<event>
 8    1  0.8577104E-018  0.8385783E+02  0.7818608E-02  0.1318447E+00
         -2   -1    0    0    0  501 -0.00000000000E+00  0.00000000000E+00  0.21101128268E+03  0.21101128269E+03  0.25500000000E-02 0.  1.
          1   -1    0    0  501    0  0.00000000000E+00 -0.00000000000E+00 -0.83314680719E+01  0.83314695964E+01  0.50400000000E-02 0. -1.
        -24    2    1    2    0    0  0.00000000000E+00  0.88817841970E-15  0.20267981460E+03  0.21934275229E+03  0.83857830483E+02 0.  0.
         66    2    3    3    0    0  0.38294874328E+02 -0.60524527457E+01  0.14299357597E+03  0.14816980919E+03  0.20000000408E+01 0.  0.
         13    1    3    3    0    0 -0.38294874328E+02  0.60524527457E+01  0.59686238630E+02  0.71172943102E+02  0.10566000000E+00 0. -1.
         13    1    4    4    0    0  0.23988583691E+02 -0.37151031910E+01  0.90425067354E+02  0.93626695494E+02  0.10566000000E+00 0. -1.
        -13    1    4    4    0    0  0.43176597332E+01 -0.12237175088E+01  0.15669833700E+02  0.16300138721E+02  0.10566000000E+00 0.  1.
        -14    1    4    4    0    0  0.99886309033E+01 -0.11136320458E+01  0.36898674921E+02  0.38242974970E+02  0.00000000000E+00 0.  1.
<mgrwt>
<rscale>  0 0.83857830E+02</rscale>
<asrwt>0</asrwt>
<pdfrwt beam="1">  1        1 0.12817644E-02 0.83857830E+02</pdfrwt>
<pdfrwt beam="2">  1       -2 0.32463275E-01 0.83857830E+02</pdfrwt>
<totfact> 0.73675779E+04</totfact>
</mgrwt>
</event>
<event>
 8    1  0.8577104E-018  0.7656112E+02  0.7818608E-02  0.1339104E+00
          1   -1    0    0  501    0  0.00000000000E+00  0.00000000000E+00  0.81293219952E+02  0.81293220108E+02  0.50400000000E-02 0. -1.
         -2   -1    0    0    0  501 -0.00000000000E+00 -0.00000000000E+00 -0.18026118093E+02  0.18026118273E+02  0.25500000000E-02 0.  1.
        -24    2    1    2    0    0  0.00000000000E+00  0.00000000000E+00  0.63267101859E+02  0.99319338381E+02  0.76561118062E+02 0.  0.
         66    2    3    3    0    0  0.29930694736E+02  0.15884924002E+02  0.86230719427E+01  0.35021916447E+02  0.19999909809E+01 0.  0.
         13    1    3    3    0    0 -0.29930694736E+02 -0.15884924002E+02  0.54644029916E+02  0.64297421935E+02  0.10566000000E+00 0. -1.
         13    1    4    4    0    0  0.40457205240E+01  0.20575071044E+01  0.17978952671E+01  0.48831118634E+01  0.10566000000E+00 0. -1.
        -13    1    4    4    0    0  0.18197044538E+02  0.93605003094E+01  0.46620116797E+01  0.20988018317E+02  0.10566000000E+00 0.  1.
        -14    1    4    4    0    0  0.76879296743E+01  0.44669165882E+01  0.21631649959E+01  0.91507862658E+01  0.00000000000E+00 0.  1.
<mgrwt>
<rscale>  0 0.76561118E+02</rscale>
<asrwt>0</asrwt>
<pdfrwt beam="1">  1        1 0.12506649E-01 0.76561118E+02</pdfrwt>
<pdfrwt beam="2">  1       -2 0.27732489E-02 0.76561118E+02</pdfrwt>
<totfact> 0.16004978E+05</totfact>
</mgrwt>
</event>
<event>
 8    1  0.8577104E-018  0.7951818E+02  0.7818608E-02  0.1330424E+00
         -2   -1    0    0    0  501 -0.00000000000E+00  0.00000000000E+00  0.97612500026E+01  0.97612503357E+01  0.25500000000E-02 0.  1.
          1   -1    0    0  501    0  0.00000000000E+00 -0.00000000000E+00 -0.16194495643E+03  0.16194495651E+03  0.50400000000E-02 0. -1.
        -24    2    1    2    0    0  0.00000000000E+00  0.00000000000E+00 -0.15218370643E+03  0.17170620684E+03  0.79518180103E+02 0.  0.
         66    2    3    3    0    0  0.20384897453E+02 -0.27163734979E+02 -0.31604814960E+02  0.46435728384E+02  0.19999999368E+01 0.  0.
         13    1    3    3    0    0 -0.20384897453E+02  0.27163734979E+02 -0.12057889147E+03  0.12527047846E+03  0.10566000000E+00 0. -1.
         13    1    4    4    0    0  0.89970646997E+00 -0.11133450280E+01 -0.16725979627E+01  0.22040319562E+01  0.10566000000E+00 0. -1.
        -13    1    4    4    0    0  0.84012560410E+01 -0.12353190285E+02 -0.13323355916E+02  0.20017626987E+02  0.10566000000E+00 0.  1.
        -14    1    4    4    0    0  0.11083934942E+02 -0.13697199665E+02 -0.16608861081E+02  0.24214069441E+02  0.00000000000E+00 0.  1.
<mgrwt>
<rscale>  0 0.79518180E+02</rscale>
<asrwt>0</asrwt>
<pdfrwt beam="1">  1        1 0.24914607E-01 0.79518180E+02</pdfrwt>
<pdfrwt beam="2">  1       -2 0.15017309E-02 0.79518180E+02</pdfrwt>
<totfact> 0.16275000E+05</totfact>
</mgrwt>
</event>
<event>
 8    1  0.8577104E-018  0.7979399E+02  0.7818608E-02  0.1329637E+00
          1   -1    0    0  501    0  0.00000000000E+00  0.00000000000E+00  0.40558939200E+03  0.40558939203E+03  0.50400000000E-02 0. -1.
         -2   -1    0    0    0  501 -0.00000000000E+00 -0.00000000000E+00 -0.39245846320E+01  0.39245854604E+01  0.25500000000E-02 0.  1.
        -24    2    1    2    0    0  0.00000000000E+00  0.00000000000E+00  0.40166480737E+03  0.40951397749E+03  0.79793986510E+02 0.  0.
         66    2    3    3    0    0  0.28195206579E+01  0.39770344390E+02  0.19907172514E+03  0.20303492742E+03  0.20000027026E+01 0.  0.
         13    1    3    3    0    0 -0.28195206579E+01 -0.39770344390E+02  0.20259308223E+03  0.20647905007E+03  0.10566000000E+00 0. -1.
         13    1    4    4    0    0 -0.46445893192E-01  0.88133310699E+01  0.44256305993E+02  0.45125477792E+02  0.10566000000E+00 0. -1.
        -13    1    4    4    0    0  0.24872229173E+01  0.25616511927E+02  0.12626532517E+03  0.12886169123E+03  0.10566000000E+00 0.  1.
        -14    1    4    4    0    0  0.37874363374E+00  0.53405013930E+01  0.28550093978E+02  0.29047758399E+02  0.00000000000E+00 0.  1.
<mgrwt>
<rscale>  0 0.79793987E+02</rscale>
<asrwt>0</asrwt>
<pdfrwt beam="1">  1        1 0.62398414E-01 0.79793987E+02</pdfrwt>
<pdfrwt beam="2">  1       -2 0.60378187E-03 0.79793987E+02</pdfrwt>
<totfact> 0.19165673E+05</totfact>
</mgrwt>
</event>
<event>
 8    1  0.8577104E-018  0.7966675E+02  0.7818608E-02  0.1330000E+00
         -2   -1    0    0    0  501 -0.00000000000E+00  0.00000000000E+00  0.27436212766E+02  0.27436212884E+02  0.25500000000E-02 0.  1.
          1   -1    0    0  501    0  0.00000000000E+00 -0.00000000000E+00 -0.57832248220E+02  0.57832248440E+02  0.50400000000E-02 0. -1.
        -24    2    1    2    0    0  0.00000000000E+00  0.88817841970E-15 -0.30396035454E+02  0.85268461324E+02  0.79666752947E+02 0.  0.
         66    2    3    3    0    0  0.35580246089E+02  0.58639383244E+01  0.28409011750E+01  0.36227205172E+02  0.19999976686E+01 0.  0.
         13    1    3    3    0    0 -0.35580246089E+02 -0.58639383244E+01 -0.33236936629E+02  0.49041256152E+02  0.10566000000E+00 0. -1.
         13    1    4    4    0    0  0.27437900596E+01  0.36387386596E+00 -0.11850345685E+00  0.27723627444E+01  0.10566000000E+00 0.  1.
        -13    1    4    4    0    0  0.96433378055E+01  0.98294461082E+00  0.74881728434E+00  0.97227586363E+01  0.10566000000E+00 0.  1.
        -14    1    4    4    0    0  0.23193118224E+02  0.45171198476E+01  0.22105873475E+01  0.23732083791E+02  0.00000000000E+00 0.  1.
<mgrwt>
<rscale>  0 0.79666753E+02</rscale>
<asrwt>0</asrwt>
<pdfrwt beam="1">  1        1 0.88972690E-02 0.79666753E+02</pdfrwt>
<pdfrwt beam="2">  1       -2 0.42209558E-02 0.79666753E+02</pdfrwt>
<totfact> 0.13616729E+05</totfact>
</mgrwt>
</event>
<event>
 8    1  0.8577104E-018  0.7990449E+02  0.7818608E-02  0.1329323E+00
          1   -1    0    0  501    0  0.00000000000E+00  0.00000000000E+00  0.83675684211E+01  0.83675699389E+01  0.50400000000E-02 0. -1.
         -2   -1    0    0    0  501 -0.00000000000E+00 -0.00000000000E+00 -0.19075815442E+03  0.19075815444E+03  0.25500000000E-02 0.  1.
        -24    2    1    2    0    0  0.00000000000E+00  0.00000000000E+00 -0.18239058600E+03  0.19912572438E+03  0.79904494538E+02 0.  0.
         66    2    3    3    0    0 -0.27236836336E+02 -0.29123203747E+02 -0.96341683058E+02  0.10428674973E+03  0.20000062995E+01 0.  0.
         13    1    3    3    0    0  0.27236836336E+02  0.29123203747E+02 -0.86048902944E+02  0.94838974647E+02  0.10566000000E+00 0. -1.
         13    1    4    4    0    0 -0.14093689104E+02 -0.14780448508E+02 -0.50689293965E+02  0.54648965383E+02  0.10566000000E+00 0.  1.
        -13    1    4    4    0    0 -0.74011318146E+01 -0.72607792741E+01 -0.23953674526E+02  0.26101443545E+02  0.10566000000E+00 0. -1.
         14    1    4    4    0    0 -0.57420154172E+01 -0.70819759655E+01 -0.21698714567E+02  0.23536340805E+02  0.00000000000E+00 0. -1.
<mgrwt>
<rscale>  0 0.79904495E+02</rscale>
<asrwt>0</asrwt>
<pdfrwt beam="1">  1        1 0.12873185E-02 0.79904495E+02</pdfrwt>
<pdfrwt beam="2">  1       -2 0.29347405E-01 0.79904495E+02</pdfrwt>
<totfact> 0.86963835E+04</totfact>
</mgrwt>
</event>
<event>
 8    1  0.8577104E-018  0.8052534E+02  0.7818608E-02  0.1327567E+00
         -2   -1    0    0    0  501 -0.00000000000E+00  0.00000000000E+00  0.28419965174E+02  0.28419965288E+02  0.25500000000E-02 0.  1.
          1   -1    0    0  501    0  0.00000000000E+00 -0.00000000000E+00 -0.57040273423E+02  0.57040273646E+02  0.50400000000E-02 0. -1.
        -24    2    1    2    0    0  0.44408920985E-15  0.00000000000E+00 -0.28620308250E+02  0.85460238934E+02  0.80525340076E+02 0.  0.
         66    2    3    3    0    0 -0.35664074439E+01  0.37992152001E+02 -0.77127291040E+00  0.38219337068E+02  0.19999970768E+01 0.  0.
         13    1    3    3    0    0  0.35664074439E+01 -0.37992152001E+02 -0.27849035339E+02  0.47240901866E+02  0.10566000000E+00 0. -1.
         13    1    4    4    0    0 -0.33111137851E+00  0.11985966964E+01 -0.16774623711E+00  0.12591948306E+01  0.10566000000E+00 0. -1.
        -13    1    4    4    0    0 -0.13126802666E+01  0.95630521151E+01 -0.38493764914E+00  0.96609749129E+01  0.10566000000E+00 0. -1.
        -14    1    4    4    0    0 -0.19226157987E+01  0.27230503189E+02 -0.21858902415E+00  0.27299167325E+02  0.00000000000E+00 0.  1.
<mgrwt>
<rscale>  0 0.80525340E+02</rscale>
<asrwt>0</asrwt>
<pdfrwt beam="1">  1        1 0.87754267E-02 0.80525340E+02</pdfrwt>
<pdfrwt beam="2">  1       -2 0.43723023E-02 0.80525340E+02</pdfrwt>
<totfact> 0.13190806E+05</totfact>
</mgrwt>
</event>
<event>
 8    1  0.8577104E-018  0.8083648E+02  0.7818608E-02  0.1326694E+00
          1   -1    0    0  501    0  0.00000000000E+00  0.00000000000E+00  0.57663733760E+01  0.57663755786E+01  0.50400000000E-02 0. -1.
         -2   -1    0    0    0  501 -0.00000000000E+00 -0.00000000000E+00 -0.28330353495E+03  0.28330353496E+03  0.25500000000E-02 0.  1.
        -24    2    1    2    0    0 -0.35527136788E-14  0.00000000000E+00 -0.27753716157E+03  0.28906991054E+03  0.80836483873E+02 0.  0.
         66    2    3    3    0    0 -0.12536087481E+02  0.36556104542E+02 -0.18088091098E+03  0.18497406907E+03  0.20000005568E+01 0.  0.
         13    1    3    3    0    0  0.12536087481E+02 -0.36556104542E+02 -0.96656250588E+02  0.10409584147E+03  0.10566000000E+00 0. -1.
         13    1    4    4    0    0 -0.21588970484E+01  0.74692867956E+01 -0.38797871440E+02  0.39569395674E+02  0.10566000000E+00 0. -1.
        -13    1    4    4    0    0 -0.50157948746E+01  0.14565460191E+02 -0.73295108860E+02  0.74896561841E+02  0.10566000000E+00 0.  1.
         14    1    4    4    0    0 -0.53613955582E+01  0.14521357555E+02 -0.68787930681E+02  0.70508111554E+02  0.00000000000E+00 0. -1.
<mgrwt>
<rscale>  0 0.80836484E+02</rscale>
<asrwt>0</asrwt>
<pdfrwt beam="1">  1        1 0.88713476E-03 0.80836484E+02</pdfrwt>
<pdfrwt beam="2">  1       -2 0.43585148E-01 0.80836484E+02</pdfrwt>
<totfact> 0.70525784E+04</totfact>
</mgrwt>
</event>
<event>
 8    1  0.8577104E-018  0.8409220E+02  0.7818608E-02  0.1317824E+00
          1   -1    0    0  501    0  0.00000000000E+00  0.00000000000E+00  0.95100187508E+02  0.95100187641E+02  0.50400000000E-02 0. -1.
         -2   -1    0    0    0  501 -0.00000000000E+00 -0.00000000000E+00 -0.18589601097E+02  0.18589601271E+02  0.25500000000E-02 0.  1.
        -24    2    1    2    0    0  0.44408920985E-15 -0.35527136788E-14  0.76510586411E+02  0.11368978891E+03  0.84092201006E+02 0.  0.
         66    2    3    3    0    0  0.37100162298E+01 -0.27116023220E+02 -0.48342371390E+01  0.27864184236E+02  0.19999946749E+01 0.  0.
         13    1    3    3    0    0 -0.37100162298E+01  0.27116023220E+02  0.81344823550E+02  0.85825604677E+02  0.10566000000E+00 0. -1.
         13    1    4    4    0    0  0.20160686792E+01 -0.10078551743E+02 -0.20608805116E+01  0.10483326317E+02  0.10566000000E+00 0. -1.
        -13    1    4    4    0    0  0.13581820613E+01 -0.12599004319E+02 -0.15657371387E+01  0.12768800460E+02  0.10566000000E+00 0.  1.
         14    1    4    4    0    0  0.33576548935E+00 -0.44384671577E+01 -0.12076194886E+01  0.46120574588E+01  0.00000000000E+00 0. -1.
<mgrwt>
<rscale>  0 0.84092201E+02</rscale>
<asrwt>0</asrwt>
<pdfrwt beam="1">  1        1 0.14630798E-01 0.84092201E+02</pdfrwt>
<pdfrwt beam="2">  1       -2 0.28599386E-02 0.84092201E+02</pdfrwt>
<totfact> 0.12728979E+05</totfact>
</mgrwt>
</event>
<event>
 8    1  0.8577104E-018  0.8071926E+02  0.7818608E-02  0.1327023E+00
          1   -1    0    0  501    0  0.00000000000E+00  0.00000000000E+00  0.22359717606E+02  0.22359718174E+02  0.50400000000E-02 0. -1.
         -2   -1    0    0    0  501 -0.00000000000E+00 -0.00000000000E+00 -0.72849740748E+02  0.72849740793E+02  0.25500000000E-02 0.  1.
        -24    2    1    2    0    0  0.00000000000E+00  0.44408920985E-15 -0.50490023143E+02  0.95209458967E+02  0.80719258172E+02 0.  0.
         66    2    3    3    0    0  0.11776035202E+02  0.24077723703E+01 -0.70674377807E+02  0.71717083392E+02  0.19999997577E+01 0.  0.
         13    1    3    3    0    0 -0.11776035202E+02 -0.24077723703E+01  0.20184354664E+02  0.23492375574E+02  0.10566000000E+00 0. -1.
         13    1    4    4    0    0  0.34062233289E+00  0.95646991260E-01 -0.31411306788E+01  0.31627579575E+01  0.10566000000E+00 0. -1.
        -13    1    4    4    0    0  0.57416531725E+01  0.14875460695E+01 -0.29761885622E+02  0.30347328948E+02  0.10566000000E+00 0.  1.
        -14    1    4    4    0    0  0.56937596968E+01  0.82457930957E+00 -0.37771361506E+02  0.38206996487E+02  0.00000000000E+00 0.  1.
<mgrwt>
<rscale>  0 0.80719258E+02</rscale>
<asrwt>0</asrwt>
<pdfrwt beam="1">  1        1 0.34399566E-02 0.80719258E+02</pdfrwt>
<pdfrwt beam="2">  1       -2 0.11207652E-01 0.80719258E+02</pdfrwt>
<totfact> 0.11141914E+05</totfact>
</mgrwt>
</event>
<event>
 8    1  0.8577104E-018  0.8307738E+02  0.7818608E-02  0.1320538E+00
         -2   -1    0    0    0  501 -0.00000000000E+00  0.00000000000E+00  0.76169968668E+01  0.76169972936E+01  0.25500000000E-02 0.  1.
          1   -1    0    0  501    0  0.00000000000E+00 -0.00000000000E+00 -0.22652795459E+03  0.22652795465E+03  0.50400000000E-02 0. -1.
        -24    2    1    2    0    0  0.00000000000E+00  0.00000000000E+00 -0.21891095772E+03  0.23414495194E+03  0.83077380240E+02 0.  0.
         66    2    3    3    0    0 -0.31408482341E+02  0.57479218135E+01 -0.34742151861E+02  0.47228683025E+02  0.20000040471E+01 0.  0.
         13    1    3    3    0    0  0.31408482341E+02 -0.57479218135E+01 -0.18416880586E+03  0.18691626891E+03  0.10566000000E+00 0. -1.
         13    1    4    4    0    0 -0.45704914012E+01  0.13756442506E+01 -0.55445862111E+01  0.73167881642E+01  0.10566000000E+00 0. -1.
        -13    1    4    4    0    0 -0.21445372486E+01  0.52104798712E+00 -0.20848224468E+01  0.30377919095E+01  0.10566000000E+00 0.  1.
        -14    1    4    4    0    0 -0.24693453692E+02  0.38512295758E+01 -0.27112743203E+02  0.36874102952E+02  0.00000000000E+00 0.  1.
<mgrwt>
<rscale>  0 0.83077380E+02</rscale>
<asrwt>0</asrwt>
<pdfrwt beam="1">  1        1 0.34850450E-01 0.83077380E+02</pdfrwt>
<pdfrwt beam="2">  1       -2 0.11718459E-02 0.83077380E+02</pdfrwt>
<totfact> 0.15454909E+05</totfact>
</mgrwt>
</event>
<event>
 8    1  0.8577104E-018  0.8055570E+02  0.7818608E-02  0.1327482E+00
          1   -1    0    0  501    0  0.00000000000E+00  0.00000000000E+00  0.21853499630E+02  0.21853500212E+02  0.50400000000E-02 0. -1.
         -2   -1    0    0    0  501 -0.00000000000E+00 -0.00000000000E+00 -0.74235489470E+02  0.74235489514E+02  0.25500000000E-02 0.  1.
        -24    2    1    2    0    0  0.88817841970E-15  0.00000000000E+00 -0.52381989840E+02  0.96088989725E+02  0.80555701765E+02 0.  0.
         66    2    3    3    0    0  0.43153921762E+01 -0.14787122276E+02 -0.70567076963E+02  0.72256445745E+02  0.20000014360E+01 0.  0.
         13    1    3    3    0    0 -0.43153921762E+01  0.14787122276E+02  0.18185087124E+02  0.23832543980E+02  0.10566000000E+00 0. -1.
         13    1    4    4    0    0  0.22875693668E+00 -0.20615667251E+01 -0.77284152154E+01  0.80026216251E+01  0.10566000000E+00 0. -1.
        -13    1    4    4    0    0  0.11681827715E+01 -0.36652389328E+01 -0.15823074179E+02  0.16284331977E+02  0.10566000000E+00 0.  1.
         14    1    4    4    0    0  0.29184524681E+01 -0.90603166180E+01 -0.47015587569E+02  0.47969492143E+02  0.00000000000E+00 0. -1.
<mgrwt>
<rscale>  0 0.80555702E+02</rscale>
<asrwt>0</asrwt>
<pdfrwt beam="1">  1        1 0.33620770E-02 0.80555702E+02</pdfrwt>
<pdfrwt beam="2">  1       -2 0.11420844E-01 0.80555702E+02</pdfrwt>
<totfact> 0.11156020E+05</totfact>
</mgrwt>
</event>
<event>
 8    1  0.8577104E-018  0.8308086E+02  0.7818608E-02  0.1320529E+00
          1   -1    0    0  501    0  0.00000000000E+00  0.00000000000E+00  0.63151936487E+02  0.63151936688E+02  0.50400000000E-02 0. -1.
         -2   -1    0    0    0  501 -0.00000000000E+00 -0.00000000000E+00 -0.27324690833E+02  0.27324690952E+02  0.25500000000E-02 0.  1.
        -24    2    1    2    0    0 -0.71054273576E-14  0.00000000000E+00  0.35827245654E+02  0.90476627640E+02  0.83080855905E+02 0.  0.
         66    2    3    3    0    0  0.38195559066E+02 -0.56528610668E+01  0.13098645424E+01  0.38685544108E+02  0.20000017881E+01 0.  0.
         13    1    3    3    0    0 -0.38195559066E+02  0.56528610668E+01  0.34517381111E+02  0.51791083532E+02  0.10566000000E+00 0. -1.
         13    1    4    4    0    0  0.34242859050E+01 -0.51284508672E+00 -0.19368395238E+00  0.34694987464E+01  0.10566000000E+00 0. -1.
        -13    1    4    4    0    0  0.93332841279E+01 -0.81674828375E+00  0.39086283766E-03  0.93695482580E+01  0.10566000000E+00 0.  1.
        -14    1    4    4    0    0  0.25437989033E+02 -0.43232676963E+01  0.15031576320E+01  0.25846497103E+02  0.00000000000E+00 0.  1.
<mgrwt>
<rscale>  0 0.83080856E+02</rscale>
<asrwt>0</asrwt>
<pdfrwt beam="1">  1        1 0.97156825E-02 0.83080856E+02</pdfrwt>
<pdfrwt beam="2">  1       -2 0.42037986E-02 0.83080856E+02</pdfrwt>
<totfact> 0.12296697E+05</totfact>
</mgrwt>
</event>
<event>
 8    1  0.8577104E-018  0.7509703E+02  0.7818608E-02  0.1343571E+00
          1   -1    0    0  501    0  0.00000000000E+00  0.00000000000E+00  0.49933469400E+01  0.49933494836E+01  0.50400000000E-02 0. -1.
         -2   -1    0    0    0  501 -0.00000000000E+00 -0.00000000000E+00 -0.28235382210E+03  0.28235382211E+03  0.25500000000E-02 0.  1.
        -24    2    1    2    0    0  0.00000000000E+00 -0.88817841970E-15 -0.27736047516E+03  0.28734717159E+03  0.75097029520E+02 0.  0.
         66    2    3    3    0    0 -0.33794235580E+02 -0.68534193153E+01 -0.82170862857E+02  0.89135124460E+02  0.19999987310E+01 0.  0.
         13    1    3    3    0    0  0.33794235580E+02  0.68534193153E+01 -0.19518961230E+03  0.19821204713E+03  0.10566000000E+00 0. -1.
         13    1    4    4    0    0 -0.12497981190E+02 -0.17420071633E+01 -0.29828063254E+02  0.32387631039E+02  0.10566000000E+00 0. -1.
        -13    1    4    4    0    0 -0.16978742775E+02 -0.40967427699E+01 -0.40764618703E+02  0.44348915540E+02  0.10566000000E+00 0.  1.
         14    1    4    4    0    0 -0.43175116159E+01 -0.10146693821E+01 -0.11578180900E+02  0.12398577881E+02  0.00000000000E+00 0. -1.
<mgrwt>
<rscale>  0 0.75097030E+02</rscale>
<asrwt>0</asrwt>
<pdfrwt beam="1">  1        1 0.76820764E-03 0.75097030E+02</pdfrwt>
<pdfrwt beam="2">  1       -2 0.43439037E-01 0.75097030E+02</pdfrwt>
<totfact> 0.85422016E+04</totfact>
</mgrwt>
</event>
<event>
 8    1  0.8577104E-018  0.7970047E+02  0.7818608E-02  0.1329904E+00
         -2   -1    0    0    0  501 -0.00000000000E+00  0.00000000000E+00  0.11111603455E+02  0.11111603747E+02  0.25500000000E-02 0.  1.
          1   -1    0    0  501    0  0.00000000000E+00 -0.00000000000E+00 -0.14291738571E+03  0.14291738580E+03  0.50400000000E-02 0. -1.
        -24    2    1    2    0    0  0.35527136788E-14 -0.35527136788E-14 -0.13180578225E+03  0.15402898955E+03  0.79700472927E+02 0.  0.
         66    2    3    3    0    0  0.12529665107E+02 -0.25289790801E+02 -0.11643068056E+02  0.30596193766E+02  0.20000031881E+01 0.  0.
         13    1    3    3    0    0 -0.12529665107E+02  0.25289790801E+02 -0.12016271420E+03  0.12343279578E+03  0.10566000000E+00 0. -1.
         13    1    4    4    0    0  0.22058609533E+01 -0.42775655345E+01 -0.12442859037E+01  0.49722028210E+01  0.10566000000E+00 0. -1.
        -13    1    4    4    0    0  0.60059483261E+00 -0.14234815746E+01 -0.75646110030E+00  0.17234881427E+01  0.10566000000E+00 0.  1.
        -14    1    4    4    0    0  0.97232093215E+01 -0.19588743692E+02 -0.96423210523E+01  0.23900502802E+02  0.00000000000E+00 0.  1.
<mgrwt>
<rscale>  0 0.79700473E+02</rscale>
<asrwt>0</asrwt>
<pdfrwt beam="1">  1        1 0.21987289E-01 0.79700473E+02</pdfrwt>
<pdfrwt beam="2">  1       -2 0.17094776E-02 0.79700473E+02</pdfrwt>
<totfact> 0.15806644E+05</totfact>
</mgrwt>
</event>
<event>
 8    1  0.8577104E-018  0.7960592E+02  0.7818608E-02  0.1330174E+00
          1   -1    0    0  501    0  0.00000000000E+00  0.00000000000E+00  0.35738768149E+02  0.35738768505E+02  0.50400000000E-02 0. -1.
         -2   -1    0    0    0  501 -0.00000000000E+00 -0.00000000000E+00 -0.44329325502E+02  0.44329325576E+02  0.25500000000E-02 0.  1.
        -24    2    1    2    0    0  0.00000000000E+00  0.00000000000E+00 -0.85905573530E+01  0.80068094080E+02  0.79605916953E+02 0.  0.
         66    2    3    3    0    0  0.44762333841E+00 -0.36922849153E+02 -0.19174846315E+02  0.41655394447E+02  0.19999997676E+01 0.  0.
         13    1    3    3    0    0 -0.44762333841E+00  0.36922849153E+02  0.10584288962E+02  0.38412699633E+02  0.10566000000E+00 0. -1.
         13    1    4    4    0    0  0.34725140541E+00 -0.12423194857E+02 -0.68658845628E+01  0.14198869281E+02  0.10566000000E+00 0. -1.
        -13    1    4    4    0    0  0.59559539715E+00 -0.20355398254E+02 -0.10011830872E+02  0.22692397260E+02  0.10566000000E+00 0.  1.
         14    1    4    4    0    0 -0.49522346415E+00 -0.41442560422E+01 -0.22971308804E+01  0.47641279060E+01  0.00000000000E+00 0. -1.
<mgrwt>
<rscale>  0 0.79605917E+02</rscale>
<asrwt>0</asrwt>
<pdfrwt beam="1">  1        1 0.54982721E-02 0.79605917E+02</pdfrwt>
<pdfrwt beam="2">  1       -2 0.68198962E-02 0.79605917E+02</pdfrwt>
<totfact> 0.12639924E+05</totfact>
</mgrwt>
</event>
<event>
 8    1  0.8577104E-018  0.7965794E+02  0.7818608E-02  0.1330025E+00
          1   -1    0    0  501    0  0.00000000000E+00  0.00000000000E+00  0.29395316669E+02  0.29395317101E+02  0.50400000000E-02 0. -1.
         -2   -1    0    0    0  501 -0.00000000000E+00 -0.00000000000E+00 -0.53965965588E+02  0.53965965648E+02  0.25500000000E-02 0.  1.
        -24    2    1    2    0    0  0.00000000000E+00  0.00000000000E+00 -0.24570648919E+02  0.83361282750E+02  0.79657935407E+02 0.  0.
         66    2    3    3    0    0 -0.37697192885E+02  0.89404717167E+01 -0.21846040993E+02  0.44522577334E+02  0.19999998656E+01 0.  0.
         13    1    3    3    0    0  0.37697192885E+02 -0.89404717167E+01 -0.27246079255E+01  0.38838705415E+02  0.10566000000E+00 0. -1.
         13    1    4    4    0    0 -0.27489430210E+02  0.66830855404E+01 -0.15042634509E+02  0.32040980363E+02  0.10566000000E+00 0. -1.
        -13    1    4    4    0    0 -0.24502195846E+01  0.69611837554E+00 -0.17616901971E+01  0.30988503016E+01  0.10566000000E+00 0.  1.
         14    1    4    4    0    0 -0.77575430910E+01  0.15612678007E+01 -0.50417162869E+01  0.93827466699E+01  0.00000000000E+00 0. -1.
<mgrwt>
<rscale>  0 0.79657935E+02</rscale>
<asrwt>0</asrwt>
<pdfrwt beam="1">  1        1 0.45223565E-02 0.79657935E+02</pdfrwt>
<pdfrwt beam="2">  1       -2 0.83024563E-02 0.79657935E+02</pdfrwt>
<totfact> 0.12200602E+05</totfact>
</mgrwt>
</event>
<event>
 8    1  0.8577104E-018  0.8006926E+02  0.7818608E-02  0.1328855E+00
         -2   -1    0    0    0  501 -0.00000000000E+00  0.00000000000E+00  0.43880220988E+02  0.43880221062E+02  0.25500000000E-02 0.  1.
          1   -1    0    0  501    0  0.00000000000E+00 -0.00000000000E+00 -0.36526057949E+02  0.36526058297E+02  0.50400000000E-02 0. -1.
        -24    2    1    2    0    0  0.00000000000E+00  0.00000000000E+00  0.73541630391E+01  0.80406279359E+02  0.80069257810E+02 0.  0.
         66    2    3    3    0    0  0.11294928800E+02 -0.16046247925E+02  0.38693148652E+02  0.43430602593E+02  0.19999999769E+01 0.  0.
         13    1    3    3    0    0 -0.11294928800E+02  0.16046247925E+02 -0.31338985612E+02  0.36975676766E+02  0.10566000000E+00 0. -1.
         13    1    4    4    0    0  0.26098267343E+01 -0.28070597364E+01  0.80591736866E+01  0.89248094934E+01  0.10566000000E+00 0. -1.
        -13    1    4    4    0    0  0.64008485498E+01 -0.95610863599E+01  0.23377453181E+02  0.26055742473E+02  0.10566000000E+00 0.  1.
        -14    1    4    4    0    0  0.22842535157E+01 -0.36781018291E+01  0.72565217840E+01  0.84500506265E+01  0.00000000000E+00 0.  1.
<mgrwt>
<rscale>  0 0.80069258E+02</rscale>
<asrwt>0</asrwt>
<pdfrwt beam="1">  1        1 0.56193936E-02 0.80069258E+02</pdfrwt>
<pdfrwt beam="2">  1       -2 0.67508032E-02 0.80069258E+02</pdfrwt>
<totfact> 0.12478781E+05</totfact>
</mgrwt>
</event>
<event>
 8    1  0.8577104E-018  0.7802426E+02  0.7818608E-02  0.1334754E+00
         -2   -1    0    0    0  501 -0.00000000000E+00  0.00000000000E+00  0.39728440730E+02  0.39728440812E+02  0.25500000000E-02 0.  1.
          1   -1    0    0  501    0  0.00000000000E+00 -0.00000000000E+00 -0.38308730974E+02  0.38308731305E+02  0.50400000000E-02 0. -1.
        -24    2    1    2    0    0  0.00000000000E+00  0.00000000000E+00  0.14197097568E+01  0.78037172117E+02  0.78024256845E+02 0.  0.
         66    2    3    3    0    0 -0.15511020625E+02  0.35762150870E+02  0.13569884082E+01  0.39055916447E+02  0.19999990702E+01 0.  0.
         13    1    3    3    0    0  0.15511020625E+02 -0.35762150870E+02  0.62721348562E-01  0.38981255671E+02  0.10566000000E+00 0. -1.
         13    1    4    4    0    0 -0.12696958138E+01  0.19295913411E+01 -0.14339226224E+00  0.23167165514E+01  0.10566000000E+00 0. -1.
        -13    1    4    4    0    0 -0.11047731928E+02  0.26042167768E+02  0.11131298139E+01  0.28310724202E+02  0.10566000000E+00 0.  1.
         14    1    4    4    0    0 -0.31935928829E+01  0.77903917602E+01  0.38725085659E+00  0.84284756929E+01  0.00000000000E+00 0. -1.
<mgrwt>
<rscale>  0 0.78024257E+02</rscale>
<asrwt>0</asrwt>
<pdfrwt beam="1">  1        1 0.58936510E-02 0.78024257E+02</pdfrwt>
<pdfrwt beam="2">  1       -2 0.61120678E-02 0.78024257E+02</pdfrwt>
<totfact> 0.13529022E+05</totfact>
</mgrwt>
</event>
<event>
 8    1  0.8577104E-018  0.7772016E+02  0.7818608E-02  0.1335649E+00
          1   -1    0    0  501    0  0.00000000000E+00  0.00000000000E+00  0.70164616943E+01  0.70164635045E+01  0.50400000000E-02 0. -1.
         -2   -1    0    0    0  501 -0.00000000000E+00 -0.00000000000E+00 -0.21522326684E+03  0.21522326685E+03  0.25500000000E-02 0.  1.
        -24    2    1    2    0    0  0.00000000000E+00  0.00000000000E+00 -0.20820680514E+03  0.22223973036E+03  0.77720164959E+02 0.  0.
         66    2    3    3    0    0 -0.20012821193E+02 -0.21772069546E+02 -0.17614746689E+03  0.17862381173E+03  0.20000002552E+01 0.  0.
         13    1    3    3    0    0  0.20012821193E+02  0.21772069546E+02 -0.32059338256E+02  0.43615918629E+02  0.10566000000E+00 0. -1.
         13    1    4    4    0    0 -0.95417313991E+00 -0.13242764831E+01 -0.87534132148E+01  0.89049178283E+01  0.10566000000E+00 0. -1.
        -13    1    4    4    0    0 -0.17624841417E+02 -0.18266074027E+02 -0.15125151629E+03  0.15336660927E+03  0.10566000000E+00 0.  1.
        -14    1    4    4    0    0 -0.14338066362E+01 -0.21817190357E+01 -0.16142537382E+02  0.16352284627E+02  0.00000000000E+00 0.  1.
<mgrwt>
<rscale>  0 0.77720165E+02</rscale>
<asrwt>0</asrwt>
<pdfrwt beam="1">  1        1 0.10794560E-02 0.77720165E+02</pdfrwt>
<pdfrwt beam="2">  1       -2 0.33111267E-01 0.77720165E+02</pdfrwt>
<totfact> 0.88901133E+04</totfact>
</mgrwt>
</event>
<event>
 8    1  0.8577104E-018  0.8145083E+02  0.7818608E-02  0.1324984E+00
         -2   -1    0    0    0  501 -0.00000000000E+00  0.00000000000E+00  0.50164381383E+02  0.50164381448E+02  0.25500000000E-02 0.  1.
          1   -1    0    0  501    0  0.00000000000E+00 -0.00000000000E+00 -0.33062489310E+02  0.33062489694E+02  0.50400000000E-02 0. -1.
        -24    2    1    2    0    0 -0.35527136788E-14  0.35527136788E-14  0.17101892073E+02  0.83226871142E+02  0.81450827912E+02 0.  0.
         66    2    3    3    0    0 -0.17000810691E+02  0.25869155799E+02  0.35557923931E+02  0.47186934102E+02  0.20000024397E+01 0.  0.
         13    1    3    3    0    0  0.17000810691E+02 -0.25869155799E+02 -0.18456031858E+02  0.36039937040E+02  0.10566000000E+00 0. -1.
         13    1    4    4    0    0 -0.11194516126E+02  0.17742409135E+02  0.24747158389E+02  0.32442923505E+02  0.10566000000E+00 0. -1.
        -13    1    4    4    0    0 -0.28121968277E+01  0.41810979653E+01  0.60461821977E+01  0.78713095731E+01  0.10566000000E+00 0.  1.
         14    1    4    4    0    0 -0.29940977367E+01  0.39456486985E+01  0.47645833444E+01  0.68727010232E+01  0.00000000000E+00 0. -1.
<mgrwt>
<rscale>  0 0.81450828E+02</rscale>
<asrwt>0</asrwt>
<pdfrwt beam="1">  1        1 0.50865369E-02 0.81450828E+02</pdfrwt>
<pdfrwt beam="2">  1       -2 0.77175972E-02 0.81450828E+02</pdfrwt>
<totfact> 0.11684998E+05</totfact>
</mgrwt>
</event>
<event>
 8    1  0.8577104E-018  0.7930527E+02  0.7818608E-02  0.1331035E+00
          1   -1    0    0  501    0  0.00000000000E+00  0.00000000000E+00  0.12520591074E+02  0.12520592088E+02  0.50400000000E-02 0. -1.
         -2   -1    0    0    0  501 -0.00000000000E+00 -0.00000000000E+00 -0.12557963133E+03  0.12557963135E+03  0.25500000000E-02 0.  1.
        -24    2    1    2    0    0  0.44408920985E-15  0.00000000000E+00 -0.11305904025E+03  0.13810022344E+03  0.79305265473E+02 0.  0.
         66    2    3    3    0    0 -0.23900425968E+01 -0.13212875781E+02 -0.12148934131E+03  0.12224545981E+03  0.20000005539E+01 0.  0.
         13    1    3    3    0    0  0.23900425968E+01  0.13212875781E+02  0.84303010539E+01  0.15854763634E+02  0.10566000000E+00 0. -1.
         13    1    4    4    0    0 -0.71615629135E-01 -0.26287425407E+00 -0.11374024467E+01  0.11743423832E+01  0.10566000000E+00 0. -1.
        -13    1    4    4    0    0 -0.78350293920E+00 -0.60005665507E+01 -0.53297828897E+02  0.53640380358E+02  0.10566000000E+00 0.  1.
         14    1    4    4    0    0 -0.15349240284E+01 -0.69494349758E+01 -0.67054109964E+02  0.67430737067E+02  0.00000000000E+00 0. -1.
<mgrwt>
<rscale>  0 0.79305265E+02</rscale>
<asrwt>0</asrwt>
<pdfrwt beam="1">  1        1 0.19262450E-02 0.79305265E+02</pdfrwt>
<pdfrwt beam="2">  1       -2 0.19319942E-01 0.79305265E+02</pdfrwt>
<totfact> 0.10210375E+05</totfact>
</mgrwt>
</event>
<event>
 8    1  0.8577104E-018  0.8018681E+02  0.7818608E-02  0.1328522E+00
          1   -1    0    0  501    0  0.00000000000E+00  0.00000000000E+00  0.10385895824E+03  0.10385895837E+03  0.50400000000E-02 0. -1.
         -2   -1    0    0    0  501 -0.00000000000E+00 -0.00000000000E+00 -0.15477537382E+02  0.15477537592E+02  0.25500000000E-02 0.  1.
        -24    2    1    2    0    0  0.88817841970E-15  0.00000000000E+00  0.88381420861E+02  0.11933649596E+03  0.80186805112E+02 0.  0.
         66    2    3    3    0    0  0.62862891844E+01 -0.28590110552E+02  0.35002710647E+01  0.29549344272E+02  0.19999990751E+01 0.  0.
         13    1    3    3    0    0 -0.62862891844E+01  0.28590110552E+02  0.84881149796E+02  0.89787151686E+02  0.10566000000E+00 0. -1.
         13    1    4    4    0    0  0.37285652013E+00 -0.23125450655E+01  0.38360199310E+00  0.23759632130E+01  0.10566000000E+00 0. -1.
        -13    1    4    4    0    0  0.43957956574E+01 -0.20891383410E+02  0.31308953275E+01  0.21577455592E+02  0.10566000000E+00 0.  1.
         14    1    4    4    0    0  0.15176370068E+01 -0.53861820765E+01 -0.14226255867E-01  0.55959254669E+01  0.00000000000E+00 0. -1.
<mgrwt>
<rscale>  0 0.80186805E+02</rscale>
<asrwt>0</asrwt>
<pdfrwt beam="1">  1        1 0.15978301E-01 0.80186805E+02</pdfrwt>
<pdfrwt beam="2">  1       -2 0.23811596E-02 0.80186805E+02</pdfrwt>
<totfact> 0.14700555E+05</totfact>
</mgrwt>
</event>
<event>
 8    1  0.8577104E-018  0.8327616E+02  0.7818608E-02  0.1320003E+00
         -2   -1    0    0    0  501 -0.00000000000E+00  0.00000000000E+00  0.23234714980E+02  0.23234715120E+02  0.25500000000E-02 0.  1.
          1   -1    0    0  501    0  0.00000000000E+00 -0.00000000000E+00 -0.74618078695E+02  0.74618078865E+02  0.50400000000E-02 0. -1.
        -24    2    1    2    0    0  0.00000000000E+00  0.00000000000E+00 -0.51383363714E+02  0.97852793985E+02  0.83276162400E+02 0.  0.
         66    2    3    3    0    0  0.38961562485E+02 -0.27396519655E+01 -0.88326380907E+01  0.40093946530E+02  0.20000021269E+01 0.  0.
         13    1    3    3    0    0 -0.38961562485E+02  0.27396519655E+01 -0.42550725624E+02  0.57758847455E+02  0.10566000000E+00 0. -1.
         13    1    4    4    0    0  0.24611431011E+01  0.18503465635E+00 -0.77964960824E+00  0.25904595606E+01  0.10566000000E+00 0. -1.
        -13    1    4    4    0    0  0.47762826053E+01 -0.63347887651E+00 -0.12126875152E+01  0.49695015905E+01  0.10566000000E+00 0.  1.
        -14    1    4    4    0    0  0.31724136779E+02 -0.22912077453E+01 -0.68403009672E+01  0.32533985379E+02  0.00000000000E+00 0.  1.
<mgrwt>
<rscale>  0 0.83276162E+02</rscale>
<asrwt>0</asrwt>
<pdfrwt beam="1">  1        1 0.11479704E-01 0.83276162E+02</pdfrwt>
<pdfrwt beam="2">  1       -2 0.35745716E-02 0.83276162E+02</pdfrwt>
<totfact> 0.12553299E+05</totfact>
</mgrwt>
</event>
<event>
 8    1  0.8577104E-018  0.8019943E+02  0.7818608E-02  0.1328486E+00
         -2   -1    0    0    0  501 -0.00000000000E+00  0.00000000000E+00  0.11069828327E+02  0.11069828620E+02  0.25500000000E-02 0.  1.
          1   -1    0    0  501    0  0.00000000000E+00 -0.00000000000E+00 -0.14525852512E+03  0.14525852521E+03  0.50400000000E-02 0. -1.
        -24    2    1    2    0    0  0.00000000000E+00  0.00000000000E+00 -0.13418869679E+03  0.15632835383E+03  0.80199425579E+02 0.  0.
         66    2    3    3    0    0  0.22595621632E+02 -0.13583417633E+02 -0.83052074106E+01  0.27713675759E+02  0.20000005932E+01 0.  0.
         13    1    3    3    0    0 -0.22595621632E+02  0.13583417633E+02 -0.12588348938E+03  0.12861467807E+03  0.10566000000E+00 0. -1.
         13    1    4    4    0    0  0.34761916660E+01 -0.16243497758E+01 -0.95820505876E+00  0.39562282118E+01  0.10566000000E+00 0. -1.
        -13    1    4    4    0    0  0.13206697772E+02 -0.82539836801E+01 -0.44074502616E+01  0.16185854765E+02  0.10566000000E+00 0.  1.
        -14    1    4    4    0    0  0.59127321940E+01 -0.37050841772E+01 -0.29395520902E+01  0.75715927816E+01  0.00000000000E+00 0.  1.
<mgrwt>
<rscale>  0 0.80199426E+02</rscale>
<asrwt>0</asrwt>
<pdfrwt beam="1">  1        1 0.22347464E-01 0.80199426E+02</pdfrwt>
<pdfrwt beam="2">  1       -2 0.17030506E-02 0.80199426E+02</pdfrwt>
<totfact> 0.15591284E+05</totfact>
</mgrwt>
</event>
<event>
 8    1  0.8577104E-018  0.7965516E+02  0.7818608E-02  0.1330033E+00
          1   -1    0    0  501    0  0.00000000000E+00  0.00000000000E+00  0.34103713973E+01  0.34103751215E+01  0.50400000000E-02 0. -1.
         -2   -1    0    0    0  501 -0.00000000000E+00 -0.00000000000E+00 -0.46512099823E+03  0.46512099824E+03  0.25500000000E-02 0.  1.
        -24    2    1    2    0    0 -0.35527136788E-14 -0.88817841970E-15 -0.46171062683E+03  0.46853137336E+03  0.79655162362E+02 0.  0.
         66    2    3    3    0    0 -0.23259389908E+02 -0.67790978222E+01 -0.41675197719E+03  0.41746037643E+03  0.20000013852E+01 0.  0.
         13    1    3    3    0    0  0.23259389908E+02  0.67790978222E+01 -0.44958649640E+02  0.51070996932E+02  0.10566000000E+00 0. -1.
         13    1    4    4    0    0 -0.13654711510E+02 -0.31881195646E+01 -0.23901822171E+03  0.23942918937E+03  0.10566000000E+00 0. -1.
        -13    1    4    4    0    0 -0.86205702946E+01 -0.33455465549E+01 -0.15611803343E+03  0.15639168277E+03  0.10566000000E+00 0.  1.
        -14    1    4    4    0    0 -0.98410810358E+00 -0.24543170270E+00 -0.21615722052E+02  0.21639504276E+02  0.00000000000E+00 0.  1.
<mgrwt>
<rscale>  0 0.79655162E+02</rscale>
<asrwt>0</asrwt>
<pdfrwt beam="1">  1        1 0.52467318E-03 0.79655162E+02</pdfrwt>
<pdfrwt beam="2">  1       -2 0.71557027E-01 0.79655162E+02</pdfrwt>
<totfact> 0.53791662E+04</totfact>
</mgrwt>
</event>
<event>
 8    1  0.8577104E-018  0.8095942E+02  0.7818608E-02  0.1326351E+00
          1   -1    0    0  501    0  0.00000000000E+00  0.00000000000E+00  0.99898326010E+01  0.99898338724E+01  0.50400000000E-02 0. -1.
         -2   -1    0    0    0  501 -0.00000000000E+00 -0.00000000000E+00 -0.16402745674E+03  0.16402745675E+03  0.25500000000E-02 0.  1.
        -24    2    1    2    0    0  0.00000000000E+00  0.00000000000E+00 -0.15403762413E+03  0.17401729063E+03  0.80959420628E+02 0.  0.
         66    2    3    3    0    0  0.10992666561E+02  0.36605221259E+02 -0.10556670469E+03  0.11229029380E+03  0.20000002653E+01 0.  0.
         13    1    3    3    0    0 -0.10992666561E+02 -0.36605221259E+02 -0.48470919444E+02  0.61726996827E+02  0.10566000000E+00 0. -1.
         13    1    4    4    0    0  0.39218313619E-01  0.40729788990E+00 -0.86302797440E+00  0.96094274930E+00  0.10566000000E+00 0. -1.
        -13    1    4    4    0    0  0.86027625489E+01  0.29791638204E+02 -0.85621554412E+02  0.91063774216E+02  0.10566000000E+00 0.  1.
        -14    1    4    4    0    0  0.23506856987E+01  0.64062851646E+01 -0.19082122303E+02  0.20265576835E+02  0.00000000000E+00 0.  1.
<mgrwt>
<rscale>  0 0.80959421E+02</rscale>
<asrwt>0</asrwt>
<pdfrwt beam="1">  1        1 0.15368976E-02 0.80959421E+02</pdfrwt>
<pdfrwt beam="2">  1       -2 0.25234991E-01 0.80959421E+02</pdfrwt>
<totfact> 0.88912924E+04</totfact>
</mgrwt>
</event>
<event>
 8    1  0.8577104E-018  0.8029043E+02  0.7818608E-02  0.1328229E+00
          1   -1    0    0  501    0  0.00000000000E+00  0.00000000000E+00  0.43235261731E+01  0.43235291107E+01  0.50400000000E-02 0. -1.
         -2   -1    0    0    0  501 -0.00000000000E+00 -0.00000000000E+00 -0.37276007263E+03  0.37276007264E+03  0.25500000000E-02 0.  1.
        -24    2    1    2    0    0  0.00000000000E+00  0.00000000000E+00 -0.36843654646E+03  0.37708360175E+03  0.80290434943E+02 0.  0.
         66    2    3    3    0    0  0.32821415009E+02 -0.14151401491E+01 -0.29249301280E+03  0.29433893804E+03  0.20000005417E+01 0.  0.
         13    1    3    3    0    0 -0.32821415009E+02  0.14151401491E+01 -0.75943533658E+02  0.82744663715E+02  0.10566000000E+00 0. -1.
         13    1    4    4    0    0  0.22844383139E+02 -0.13410699265E+01 -0.20495079409E+03  0.20622440077E+03  0.10566000000E+00 0. -1.
        -13    1    4    4    0    0  0.66709316182E+01 -0.43727899826E+00 -0.56189100057E+02  0.56585498768E+02  0.10566000000E+00 0.  1.
         14    1    4    4    0    0  0.33061002520E+01  0.36320877570E+00 -0.31353118656E+02  0.31529038503E+02  0.00000000000E+00 0. -1.
<mgrwt>
<rscale>  0 0.80290435E+02</rscale>
<asrwt>0</asrwt>
<pdfrwt beam="1">  1        1 0.66515840E-03 0.80290435E+02</pdfrwt>
<pdfrwt beam="2">  1       -2 0.57347678E-01 0.80290435E+02</pdfrwt>
<totfact> 0.61276878E+04</totfact>
</mgrwt>
</event>
<event>
 8    1  0.8577104E-018  0.7952916E+02  0.7818608E-02  0.1330393E+00
          1   -1    0    0  501    0  0.00000000000E+00  0.00000000000E+00  0.17176385531E+02  0.17176386271E+02  0.50400000000E-02 0. -1.
         -2   -1    0    0    0  501 -0.00000000000E+00 -0.00000000000E+00 -0.92057891200E+02  0.92057891236E+02  0.25500000000E-02 0.  1.
        -24    2    1    2    0    0 -0.35527136788E-14  0.17763568394E-14 -0.74881505669E+02  0.10923427751E+03  0.79529161262E+02 0.  0.
         66    2    3    3    0    0  0.28966265048E+02 -0.80318680634E+01 -0.73166741669E+02  0.79126022907E+02  0.19999997794E+01 0.  0.
         13    1    3    3    0    0 -0.28966265048E+02  0.80318680634E+01 -0.17147640001E+01  0.30108254600E+02  0.10566000000E+00 0. -1.
         13    1    4    4    0    0  0.40251302414E+01 -0.10544720095E+01 -0.11163098152E+02  0.11913836874E+02  0.10566000000E+00 0. -1.
        -13    1    4    4    0    0  0.58201056205E+01 -0.21138647378E+01 -0.13715375099E+02  0.15048745187E+02  0.10566000000E+00 0.  1.
         14    1    4    4    0    0  0.19121029186E+02 -0.48635313162E+01 -0.48288268418E+02  0.52163440845E+02  0.00000000000E+00 0. -1.
<mgrwt>
<rscale>  0 0.79529161E+02</rscale>
<asrwt>0</asrwt>
<pdfrwt beam="1">  1        1 0.26425210E-02 0.79529161E+02</pdfrwt>
<pdfrwt beam="2">  1       -2 0.14162752E-01 0.79529161E+02</pdfrwt>
<totfact> 0.10991946E+05</totfact>
</mgrwt>
</event>
<event>
 8    1  0.8577104E-018  0.7841120E+02  0.7818608E-02  0.1333622E+00
         -2   -1    0    0    0  501 -0.00000000000E+00  0.00000000000E+00  0.92228307738E+02  0.92228307773E+02  0.25500000000E-02 0.  1.
          1   -1    0    0  501    0  0.00000000000E+00 -0.00000000000E+00 -0.16666024170E+02  0.16666024932E+02  0.50400000000E-02 0. -1.
        -24    2    1    2    0    0  0.00000000000E+00 -0.17763568394E-14  0.75562283568E+02  0.10889433271E+03  0.78411204540E+02 0.  0.
         66    2    3    3    0    0 -0.11782291308E+02  0.13114670253E+02  0.86397511781E+02  0.88200606633E+02  0.20000010159E+01 0.  0.
         13    1    3    3    0    0  0.11782291308E+02 -0.13114670253E+02 -0.10835228213E+02  0.20693726073E+02  0.10566000000E+00 0. -1.
         13    1    4    4    0    0 -0.12023725973E+01  0.18212536839E+01  0.12296467497E+02  0.12489072895E+02  0.10566000000E+00 0. -1.
        -13    1    4    4    0    0 -0.17430282668E+01  0.13230632391E+01  0.11843021180E+02  0.12043959423E+02  0.10566000000E+00 0.  1.
        -14    1    4    4    0    0 -0.88368904440E+01  0.99703533300E+01  0.62258023104E+02  0.63667574314E+02  0.00000000000E+00 0.  1.
<mgrwt>
<rscale>  0 0.78411205E+02</rscale>
<asrwt>0</asrwt>
<pdfrwt beam="1">  1        1 0.25640037E-02 0.78411205E+02</pdfrwt>
<pdfrwt beam="2">  1       -2 0.14188971E-01 0.78411205E+02</pdfrwt>
<totfact> 0.11391761E+05</totfact>
</mgrwt>
</event>
<event>
 8    1  0.8577104E-018  0.8265635E+02  0.7818608E-02  0.1321678E+00
         -2   -1    0    0    0  501 -0.00000000000E+00  0.00000000000E+00  0.38664739223E+02  0.38664739307E+02  0.25500000000E-02 0.  1.
          1   -1    0    0  501    0  0.00000000000E+00 -0.00000000000E+00 -0.44175084360E+02  0.44175084647E+02  0.50400000000E-02 0. -1.
        -24    2    1    2    0    0  0.71054273576E-14  0.00000000000E+00 -0.55103451362E+01  0.82839823954E+02  0.82656352020E+02 0.  0.
         66    2    3    3    0    0 -0.37265452025E+02 -0.17353135102E+02  0.12730794823E+01  0.41176036007E+02  0.19999993502E+01 0.  0.
         13    1    3    3    0    0  0.37265452025E+02  0.17353135102E+02 -0.67834246185E+01  0.41663787947E+02  0.10566000000E+00 0. -1.
         13    1    4    4    0    0 -0.23707221819E+02 -0.11980345772E+02  0.48189055992E+00  0.26566980140E+02  0.10566000000E+00 0. -1.
        -13    1    4    4    0    0 -0.29770502255E+01 -0.12679037268E+01  0.12163512462E+00  0.32398097235E+01  0.10566000000E+00 0.  1.
        -14    1    4    4    0    0 -0.10581179981E+02 -0.41048856032E+01  0.66955379778E+00  0.11369246144E+02  0.00000000000E+00 0.  1.
<mgrwt>
<rscale>  0 0.82656352E+02</rscale>
<asrwt>0</asrwt>
<pdfrwt beam="1">  1        1 0.67961669E-02 0.82656352E+02</pdfrwt>
<pdfrwt beam="2">  1       -2 0.59484214E-02 0.82656352E+02</pdfrwt>
<totfact> 0.11770721E+05</totfact>
</mgrwt>
</event>
<event>
 8    1  0.8577104E-018  0.7322821E+02  0.7818608E-02  0.1349447E+00
          1   -1    0    0  501    0  0.00000000000E+00  0.00000000000E+00  0.57944192322E+02  0.57944192541E+02  0.50400000000E-02 0. -1.
         -2   -1    0    0    0  501 -0.00000000000E+00 -0.00000000000E+00 -0.23135928666E+02  0.23135928806E+02  0.25500000000E-02 0.  1.
        -24    2    1    2    0    0 -0.35527136788E-14  0.17763568394E-14  0.34808263656E+02  0.81080121348E+02  0.73228210814E+02 0.  0.
         66    2    3    3    0    0 -0.31822786227E+02  0.11368376984E+02  0.18899210165E+01  0.33904299524E+02  0.20000015731E+01 0.  0.
         13    1    3    3    0    0  0.31822786227E+02 -0.11368376984E+02  0.32918342640E+02  0.47175821823E+02  0.10566000000E+00 0. -1.
         13    1    4    4    0    0 -0.67269927430E+00  0.53633085945E+00 -0.33983040294E-01  0.86746411284E+00  0.10566000000E+00 0. -1.
        -13    1    4    4    0    0 -0.21097268620E+02  0.73991017693E+01  0.13946907536E+01  0.22400843211E+02  0.10566000000E+00 0.  1.
         14    1    4    4    0    0 -0.10052818332E+02  0.34329443553E+01  0.52921330322E+00  0.10635992200E+02  0.00000000000E+00 0. -1.
<mgrwt>
<rscale>  0 0.73228211E+02</rscale>
<asrwt>0</asrwt>
<pdfrwt beam="1">  1        1 0.89144911E-02 0.73228211E+02</pdfrwt>
<pdfrwt beam="2">  1       -2 0.35593737E-02 0.73228211E+02</pdfrwt>
<totfact> 0.17156601E+05</totfact>
</mgrwt>
</event>
<event>
 8    1  0.8577104E-018  0.8254462E+02  0.7818608E-02  0.1321981E+00
         -2   -1    0    0    0  501 -0.00000000000E+00  0.00000000000E+00  0.31719362757E+03  0.31719362758E+03  0.25500000000E-02 0.  1.
          1   -1    0    0  501    0  0.00000000000E+00 -0.00000000000E+00 -0.53702317033E+01  0.53702340683E+01  0.50400000000E-02 0. -1.
        -24    2    1    2    0    0  0.00000000000E+00 -0.17763568394E-14  0.31182339586E+03  0.32256386164E+03  0.82544622064E+02 0.  0.
         66    2    3    3    0    0  0.36979497556E+02  0.12522409029E+02  0.10399834779E+03  0.11110333167E+03  0.19999993417E+01 0.  0.
         13    1    3    3    0    0 -0.36979497556E+02 -0.12522409029E+02  0.20782504808E+03  0.21146052998E+03  0.10566000000E+00 0. -1.
         13    1    4    4    0    0  0.80445811891E+01  0.32651677251E+01  0.23572210543E+02  0.25120447462E+02  0.10566000000E+00 0. -1.
        -13    1    4    4    0    0  0.16601062751E+02  0.57701025090E+01  0.45130892459E+02  0.48432406357E+02  0.10566000000E+00 0.  1.
         14    1    4    4    0    0  0.12333853615E+02  0.34871387953E+01  0.35295244786E+02  0.37550477847E+02  0.00000000000E+00 0. -1.
<mgrwt>
<rscale>  0 0.82544622E+02</rscale>
<asrwt>0</asrwt>
<pdfrwt beam="1">  1        1 0.82618953E-03 0.82544622E+02</pdfrwt>
<pdfrwt beam="2">  1       -2 0.48799028E-01 0.82544622E+02</pdfrwt>
<totfact> 0.62829623E+04</totfact>
</mgrwt>
</event>
<event>
 8    1  0.8577104E-018  0.7826297E+02  0.7818608E-02  0.1334054E+00
         -2   -1    0    0    0  501 -0.00000000000E+00  0.00000000000E+00  0.28365717939E+02  0.28365718054E+02  0.25500000000E-02 0.  1.
          1   -1    0    0  501    0  0.00000000000E+00 -0.00000000000E+00 -0.53983232724E+02  0.53983232959E+02  0.50400000000E-02 0. -1.
        -24    2    1    2    0    0  0.00000000000E+00  0.00000000000E+00 -0.25617514785E+02  0.82348951013E+02  0.78262971252E+02 0.  0.
         66    2    3    3    0    0 -0.43240755155E+01  0.31090894976E+02  0.11722755943E+02  0.33567311418E+02  0.20000023665E+01 0.  0.
         13    1    3    3    0    0  0.43240755155E+01 -0.31090894976E+02 -0.37340270728E+02  0.48781639595E+02  0.10566000000E+00 0. -1.
         13    1    4    4    0    0 -0.23439918369E+01  0.16468775760E+02  0.63577740127E+01  0.17808630694E+02  0.10566000000E+00 0. -1.
        -13    1    4    4    0    0 -0.21421100025E+01  0.14103488157E+02  0.50656136626E+01  0.15138316263E+02  0.10566000000E+00 0.  1.
         14    1    4    4    0    0  0.16202632385E+00  0.51863105832E+00  0.29936826786E+00  0.62036446068E+00  0.00000000000E+00 0. -1.
<mgrwt>
<rscale>  0 0.78262971E+02</rscale>
<asrwt>0</asrwt>
<pdfrwt beam="1">  1        1 0.83051128E-02 0.78262971E+02</pdfrwt>
<pdfrwt beam="2">  1       -2 0.43639566E-02 0.78262971E+02</pdfrwt>
<totfact> 0.14149860E+05</totfact>
</mgrwt>
</event>
<event>
 8    1  0.8577104E-018  0.7918195E+02  0.7818608E-02  0.1331389E+00
         -2   -1    0    0    0  501 -0.00000000000E+00  0.00000000000E+00  0.63187468003E+01  0.63187473149E+01  0.25500000000E-02 0.  1.
          1   -1    0    0  501    0  0.00000000000E+00 -0.00000000000E+00 -0.24806265896E+03  0.24806265901E+03  0.50400000000E-02 0. -1.
        -24    2    1    2    0    0 -0.35527136788E-14  0.00000000000E+00 -0.24174391216E+03  0.25438140633E+03  0.79181947552E+02 0.  0.
         66    2    3    3    0    0  0.12997026041E+02  0.35660004826E+02 -0.15685001330E+03  0.16138923537E+03  0.19999983697E+01 0.  0.
         13    1    3    3    0    0 -0.12997026041E+02 -0.35660004826E+02 -0.84893898864E+02  0.92992170952E+02  0.10566000000E+00 0. -1.
         13    1    4    4    0    0  0.30514962300E+00  0.72969515309E+00 -0.25020957204E+01  0.26262555738E+01  0.10566000000E+00 0. -1.
        -13    1    4    4    0    0  0.93635116430E+01  0.26536605345E+02 -0.11518501435E+03  0.11857261686E+03  0.10566000000E+00 0.  1.
        -14    1    4    4    0    0  0.33283647747E+01  0.83937043284E+01 -0.39162903226E+02  0.40190362944E+02  0.00000000000E+00 0.  1.
<mgrwt>
<rscale>  0 0.79181948E+02</rscale>
<asrwt>0</asrwt>
<pdfrwt beam="1">  1        1 0.38163479E-01 0.79181948E+02</pdfrwt>
<pdfrwt beam="2">  1       -2 0.97211512E-03 0.79181948E+02</pdfrwt>
<totfact> 0.17867776E+05</totfact>
</mgrwt>
</event>
<event>
 8    1  0.8577104E-018  0.7934988E+02  0.7818608E-02  0.1330907E+00
         -2   -1    0    0    0  501 -0.00000000000E+00  0.00000000000E+00  0.44463303079E+03  0.44463303080E+03  0.25500000000E-02 0.  1.
          1   -1    0    0  501    0  0.00000000000E+00 -0.00000000000E+00 -0.35402226187E+01  0.35402262062E+01  0.50400000000E-02 0. -1.
        -24    2    1    2    0    0 -0.35527136788E-14  0.00000000000E+00  0.44109280817E+03  0.44817325701E+03  0.79349876325E+02 0.  0.
         66    2    3    3    0    0 -0.26850391889E+02  0.12038017351E+02  0.37078427133E+03  0.37195541839E+03  0.19999991417E+01 0.  0.
         13    1    3    3    0    0  0.26850391889E+02 -0.12038017351E+02  0.70308536841E+02  0.76217838614E+02  0.10566000000E+00 0. -1.
         13    1    4    4    0    0 -0.24722430768E+00  0.92074495412E-01  0.31076902513E+01  0.31206570309E+01  0.10566000000E+00 0.  1.
        -13    1    4    4    0    0 -0.82107384291E+01  0.40398789473E+01  0.12392661032E+03  0.12426404450E+03  0.10566000000E+00 0. -1.
        -14    1    4    4    0    0 -0.18392429152E+02  0.79060639086E+01  0.24374997076E+03  0.24457071686E+03  0.00000000000E+00 0.  1.
<mgrwt>
<rscale>  0 0.79349876E+02</rscale>
<asrwt>0</asrwt>
<pdfrwt beam="1">  1        1 0.54465024E-03 0.79349876E+02</pdfrwt>
<pdfrwt beam="2">  1       -2 0.68405040E-01 0.79349876E+02</pdfrwt>
<totfact> 0.56123144E+04</totfact>
</mgrwt>
</event>
<event>
 8    1  0.8577104E-018  0.8518414E+02  0.7818608E-02  0.1314952E+00
         -2   -1    0    0    0  501 -0.00000000000E+00  0.00000000000E+00  0.12144394916E+03  0.12144394919E+03  0.25500000000E-02 0.  1.
          1   -1    0    0  501    0  0.00000000000E+00 -0.00000000000E+00 -0.14937626580E+02  0.14937627430E+02  0.50400000000E-02 0. -1.
        -24    2    1    2    0    0  0.00000000000E+00 -0.35527136788E-14  0.10650632258E+03  0.13638157662E+03  0.85184139904E+02 0.  0.
         66    2    3    3    0    0  0.19722299662E+01  0.25177372755E+02  0.10814606880E+03  0.11107367822E+03  0.20000013737E+01 0.  0.
         13    1    3    3    0    0 -0.19722299662E+01 -0.25177372755E+02 -0.16397462189E+01  0.25307898403E+02  0.10566000000E+00 0. -1.
         13    1    4    4    0    0  0.33945830415E+00  0.12484848877E+02  0.55480859667E+02  0.56869355868E+02  0.10566000000E+00 0. -1.
        -13    1    4    4    0    0  0.16218601732E+01  0.12187152958E+02  0.49831969134E+02  0.51326342549E+02  0.10566000000E+00 0.  1.
        -14    1    4    4    0    0  0.10911488861E-01  0.50537091975E+00  0.28332400004E+01  0.28779797996E+01  0.00000000000E+00 0.  1.
<mgrwt>
<rscale>  0 0.85184140E+02</rscale>
<asrwt>0</asrwt>
<pdfrwt beam="1">  1        1 0.22980966E-02 0.85184140E+02</pdfrwt>
<pdfrwt beam="2">  1       -2 0.18683683E-01 0.85184140E+02</pdfrwt>
<totfact> 0.85778591E+04</totfact>
</mgrwt>
</event>
<event>
 8    1  0.8577104E-018  0.7873151E+02  0.7818608E-02  0.1332690E+00
         -2   -1    0    0    0  501 -0.00000000000E+00  0.00000000000E+00  0.28705343640E+02  0.28705343754E+02  0.25500000000E-02 0.  1.
          1   -1    0    0  501    0  0.00000000000E+00 -0.00000000000E+00 -0.53985158105E+02  0.53985158340E+02  0.50400000000E-02 0. -1.
        -24    2    1    2    0    0  0.00000000000E+00  0.00000000000E+00 -0.25279814464E+02  0.82690502093E+02  0.78731506509E+02 0.  0.
         66    2    3    3    0    0  0.13764993745E+02  0.22114869230E+01  0.25988906066E+02  0.29559921482E+02  0.19999980751E+01 0.  0.
         13    1    3    3    0    0 -0.13764993745E+02 -0.22114869230E+01 -0.51268720531E+02  0.53130580611E+02  0.10566000000E+00 0. -1.
         13    1    4    4    0    0  0.11435083797E+01 -0.56590324044E-01  0.18367952833E+01  0.21669782711E+01  0.10566000000E+00 0. -1.
        -13    1    4    4    0    0  0.87805078789E+01  0.86014847819E+00  0.15975922558E+02  0.18250436697E+02  0.10566000000E+00 0.  1.
        -14    1    4    4    0    0  0.38409774861E+01  0.14079287688E+01  0.81761882248E+01  0.91425065137E+01  0.00000000000E+00 0.  1.
<mgrwt>
<rscale>  0 0.78731507E+02</rscale>
<asrwt>0</asrwt>
<pdfrwt beam="1">  1        1 0.83054090E-02 0.78731507E+02</pdfrwt>
<pdfrwt beam="2">  1       -2 0.44162067E-02 0.78731507E+02</pdfrwt>
<totfact> 0.13918566E+05</totfact>
</mgrwt>
</event>
<event>
 8    1  0.8577104E-018  0.7940102E+02  0.7818608E-02  0.1330760E+00
         -2   -1    0    0    0  501 -0.00000000000E+00  0.00000000000E+00  0.14194951410E+02  0.14194951639E+02  0.25500000000E-02 0.  1.
          1   -1    0    0  501    0  0.00000000000E+00 -0.00000000000E+00 -0.11103458881E+03  0.11103458893E+03  0.50400000000E-02 0. -1.
        -24    2    1    2    0    0  0.35527136788E-14  0.00000000000E+00 -0.96839637404E+02  0.12522954057E+03  0.79401023029E+02 0.  0.
         66    2    3    3    0    0 -0.31305329459E+02 -0.22222522021E+02 -0.32658066030E+02  0.50442179298E+02  0.20000094958E+01 0.  0.
         13    1    3    3    0    0  0.31305329459E+02  0.22222522021E+02 -0.64181571374E+02  0.74787361269E+02  0.10566000000E+00 0. -1.
         13    1    4    4    0    0 -0.10787201561E+02 -0.86003711620E+01 -0.11112156762E+02  0.17715001936E+02  0.10566000000E+00 0. -1.
        -13    1    4    4    0    0 -0.11457845639E+02 -0.76739128306E+01 -0.12395354103E+02  0.18542576202E+02  0.10566000000E+00 0.  1.
         14    1    4    4    0    0 -0.90602822592E+01 -0.59482380280E+01 -0.91505551643E+01  0.14184601160E+02  0.00000000000E+00 0. -1.
<mgrwt>
<rscale>  0 0.79401023E+02</rscale>
<asrwt>0</asrwt>
<pdfrwt beam="1">  1        1 0.17082244E-01 0.79401023E+02</pdfrwt>
<pdfrwt beam="2">  1       -2 0.21838388E-02 0.79401023E+02</pdfrwt>
<totfact> 0.15269127E+05</totfact>
</mgrwt>
</event>
<event>
 8    1  0.8577104E-018  0.7858065E+02  0.7818608E-02  0.1333128E+00
          1   -1    0    0  501    0  0.00000000000E+00  0.00000000000E+00  0.45203423270E+01  0.45203451367E+01  0.50400000000E-02 0. -1.
         -2   -1    0    0    0  501 -0.00000000000E+00 -0.00000000000E+00 -0.34150717099E+03  0.34150717100E+03  0.25500000000E-02 0.  1.
        -24    2    1    2    0    0  0.35527136788E-14  0.00000000000E+00 -0.33698682866E+03  0.34602751613E+03  0.78580654305E+02 0.  0.
         66    2    3    3    0    0  0.14339651925E+02  0.66283798871E+01 -0.32689236821E+03  0.32727997408E+03  0.20000002474E+01 0.  0.
         13    1    3    3    0    0 -0.14339651925E+02 -0.66283798871E+01 -0.10094460447E+02  0.18747542052E+02  0.10566000000E+00 0. -1.
         13    1    4    4    0    0  0.60802260446E+01  0.20626640054E+01 -0.14235424250E+03  0.14249900088E+03  0.10566000000E+00 0. -1.
        -13    1    4    4    0    0  0.59376339820E+01  0.29117723228E+01 -0.12596595137E+03  0.12613947036E+03  0.10566000000E+00 0.  1.
         14    1    4    4    0    0  0.23217918982E+01  0.16539435589E+01 -0.58572174348E+02  0.58641502836E+02  0.00000000000E+00 0. -1.
<mgrwt>
<rscale>  0 0.78580654E+02</rscale>
<asrwt>0</asrwt>
<pdfrwt beam="1">  1        1 0.69543777E-03 0.78580654E+02</pdfrwt>
<pdfrwt beam="2">  1       -2 0.52539544E-01 0.78580654E+02</pdfrwt>
<totfact> 0.68358958E+04</totfact>
</mgrwt>
</event>
<event>
 8    1  0.8577104E-018  0.7129328E+02  0.7818608E-02  0.1355750E+00
          1   -1    0    0  501    0  0.00000000000E+00  0.00000000000E+00  0.58253074548E+01  0.58253096351E+01  0.50400000000E-02 0. -1.
         -2   -1    0    0    0  501 -0.00000000000E+00 -0.00000000000E+00 -0.21813146910E+03  0.21813146912E+03  0.25500000000E-02 0.  1.
        -24    2    1    2    0    0  0.00000000000E+00  0.00000000000E+00 -0.21230616165E+03  0.22395677875E+03  0.71293284927E+02 0.  0.
         66    2    3    3    0    0 -0.94720443589E+01 -0.27125283837E+02 -0.17236730071E+03  0.17475693704E+03  0.20000104307E+01 0.  0.
         13    1    3    3    0    0  0.94720443589E+01  0.27125283837E+02 -0.39938860939E+02  0.49199841714E+02  0.10566000000E+00 0. -1.
         13    1    4    4    0    0 -0.35611452193E+00 -0.10856070986E+01 -0.53585511969E+01  0.54800178184E+01  0.10566000000E+00 0. -1.
        -13    1    4    4    0    0 -0.28114305434E+01 -0.96345146908E+01 -0.58989778871E+02  0.59837556687E+02  0.10566000000E+00 0.  1.
         14    1    4    4    0    0 -0.63044992935E+01 -0.16405162048E+02 -0.10801897064E+03  0.10943936253E+03  0.00000000000E+00 0. -1.
<mgrwt>
<rscale>  0 0.71293285E+02</rscale>
<asrwt>0</asrwt>
<pdfrwt beam="1">  1        1 0.89620149E-03 0.71293285E+02</pdfrwt>
<pdfrwt beam="2">  1       -2 0.33558681E-01 0.71293285E+02</pdfrwt>
<totfact> 0.11029715E+05</totfact>
</mgrwt>
</event>
<event>
 8    1  0.8577104E-018  0.8116619E+02  0.7818608E-02  0.1325774E+00
         -2   -1    0    0    0  501 -0.00000000000E+00  0.00000000000E+00  0.43771480307E+02  0.43771480382E+02  0.25500000000E-02 0.  1.
          1   -1    0    0  501    0  0.00000000000E+00 -0.00000000000E+00 -0.37626953338E+02  0.37626953676E+02  0.50400000000E-02 0. -1.
        -24    2    1    2    0    0  0.00000000000E+00  0.71054273576E-14  0.61445269691E+01  0.81398434058E+02  0.81166186650E+02 0.  0.
         66    2    3    3    0    0  0.20865728476E+02 -0.30671989552E+02 -0.13368916980E+02  0.39482622880E+02  0.20000000797E+01 0.  0.
         13    1    3    3    0    0 -0.20865728476E+02  0.30671989552E+02  0.19513443949E+02  0.41915811178E+02  0.10566000000E+00 0. -1.
         13    1    4    4    0    0  0.79513696700E+01 -0.11642732127E+02 -0.52730658152E+01  0.15053035512E+02  0.10566000000E+00 0. -1.
        -13    1    4    4    0    0  0.80784795794E+01 -0.11033316517E+02 -0.54143511175E+01  0.14707898141E+02  0.10566000000E+00 0.  1.
         14    1    4    4    0    0  0.48358792265E+01 -0.79959409082E+01 -0.26815000474E+01  0.97216892259E+01  0.00000000000E+00 0. -1.
<mgrwt>
<rscale>  0 0.81166187E+02</rscale>
<asrwt>0</asrwt>
<pdfrwt beam="1">  1        1 0.57887621E-02 0.81166187E+02</pdfrwt>
<pdfrwt beam="2">  1       -2 0.67340739E-02 0.81166187E+02</pdfrwt>
<totfact> 0.12066128E+05</totfact>
</mgrwt>
</event>
<event>
 8    1  0.8577104E-018  0.8038609E+02  0.7818608E-02  0.1327959E+00
         -2   -1    0    0    0  501 -0.00000000000E+00  0.00000000000E+00  0.66261964339E+02  0.66261964388E+02  0.25500000000E-02 0.  1.
          1   -1    0    0  501    0  0.00000000000E+00 -0.00000000000E+00 -0.24380215569E+02  0.24380216090E+02  0.50400000000E-02 0. -1.
        -24    2    1    2    0    0  0.00000000000E+00 -0.71054273576E-14  0.41881748770E+02  0.90642180478E+02  0.80386093336E+02 0.  0.
         66    2    3    3    0    0  0.58506829479E+01  0.36105889080E+02  0.39673426362E+02  0.53998578457E+02  0.19999997200E+01 0.  0.
         13    1    3    3    0    0 -0.58506829479E+01 -0.36105889080E+02  0.22083224079E+01  0.36643602021E+02  0.10566000000E+00 0. -1.
         13    1    4    4    0    0  0.39786797263E+01  0.20386238500E+02  0.21829906350E+02  0.30132782610E+02  0.10566000000E+00 0. -1.
        -13    1    4    4    0    0  0.18883007162E+01  0.14083305042E+02  0.16131640841E+02  0.21497584998E+02  0.10566000000E+00 0.  1.
         14    1    4    4    0    0 -0.16297494518E-01  0.16363455382E+01  0.17118791707E+01  0.23682108487E+01  0.00000000000E+00 0. -1.
<mgrwt>
<rscale>  0 0.80386093E+02</rscale>
<asrwt>0</asrwt>
<pdfrwt beam="1">  1        1 0.37508025E-02 0.80386093E+02</pdfrwt>
<pdfrwt beam="2">  1       -2 0.10194148E-01 0.80386093E+02</pdfrwt>
<totfact> 0.11475739E+05</totfact>
</mgrwt>
</event>
<event>
 8    1  0.8577104E-018  0.7984102E+02  0.7818608E-02  0.1329503E+00
         -2   -1    0    0    0  501 -0.00000000000E+00  0.00000000000E+00  0.25948786963E+03  0.25948786964E+03  0.25500000000E-02 0.  1.
          1   -1    0    0  501    0  0.00000000000E+00 -0.00000000000E+00 -0.61415077096E+01  0.61415097776E+01  0.50400000000E-02 0. -1.
        -24    2    1    2    0    0  0.00000000000E+00  0.00000000000E+00  0.25334636192E+03  0.26562937942E+03  0.79841017735E+02 0.  0.
         66    2    3    3    0    0  0.30554557015E+02 -0.25385047374E+02  0.13904898739E+03  0.14462573248E+03  0.20000040928E+01 0.  0.
         13    1    3    3    0    0 -0.30554557015E+02  0.25385047374E+02  0.11429737454E+03  0.12100364695E+03  0.10566000000E+00 0. -1.
         13    1    4    4    0    0  0.11644664384E+02 -0.10315103462E+02  0.55633711574E+02  0.57767816261E+02  0.10566000000E+00 0. -1.
        -13    1    4    4    0    0  0.65235242616E+01 -0.52247604548E+01  0.26798640878E+02  0.28071922050E+02  0.10566000000E+00 0.  1.
        -14    1    4    4    0    0  0.12386368369E+02 -0.98451834573E+01  0.56616634934E+02  0.58785994165E+02  0.00000000000E+00 0.  1.
<mgrwt>
<rscale>  0 0.79841018E+02</rscale>
<asrwt>0</asrwt>
<pdfrwt beam="1">  1        1 0.94484766E-03 0.79841018E+02</pdfrwt>
<pdfrwt beam="2">  1       -2 0.39921204E-01 0.79841018E+02</pdfrwt>
<totfact> 0.76129206E+04</totfact>
</mgrwt>
</event>
<event>
 8    1  0.8577104E-018  0.7946915E+02  0.7818608E-02  0.1330565E+00
         -2   -1    0    0    0  501 -0.00000000000E+00  0.00000000000E+00  0.28803500552E+02  0.28803500665E+02  0.25500000000E-02 0.  1.
          1   -1    0    0  501    0  0.00000000000E+00 -0.00000000000E+00 -0.54814051068E+02  0.54814051300E+02  0.50400000000E-02 0. -1.
        -24    2    1    2    0    0 -0.71054273576E-14  0.00000000000E+00 -0.26010550516E+02  0.83617551965E+02  0.79469152873E+02 0.  0.
         66    2    3    3    0    0  0.24908859033E+02  0.10510501742E+02  0.17589289726E+02  0.32315708544E+02  0.20000001048E+01 0.  0.
         13    1    3    3    0    0 -0.24908859033E+02 -0.10510501742E+02 -0.43599840242E+02  0.51301843421E+02  0.10566000000E+00 0. -1.
         13    1    4    4    0    0  0.39960029517E+01  0.23016849179E+01  0.29681163414E+01  0.54851318766E+01  0.10566000000E+00 0.  1.
        -13    1    4    4    0    0  0.28096634944E+01  0.13124648196E+01  0.24338562494E+01  0.39435508280E+01  0.10566000000E+00 0.  1.
         14    1    4    4    0    0  0.18103192587E+02  0.68963520044E+01  0.12187317135E+02  0.22887025839E+02  0.00000000000E+00 0. -1.
<mgrwt>
<rscale>  0 0.79469153E+02</rscale>
<asrwt>0</asrwt>
<pdfrwt beam="1">  1        1 0.84329310E-02 0.79469153E+02</pdfrwt>
<pdfrwt beam="2">  1       -2 0.44313078E-02 0.79469153E+02</pdfrwt>
<totfact> 0.13596414E+05</totfact>
</mgrwt>
</event>
<event>
 8    1  0.8577104E-018  0.8245972E+02  0.7818608E-02  0.1322213E+00
         -2   -1    0    0    0  501 -0.00000000000E+00  0.00000000000E+00  0.32232278239E+02  0.32232278340E+02  0.25500000000E-02 0.  1.
          1   -1    0    0  501    0  0.00000000000E+00 -0.00000000000E+00 -0.52739098036E+02  0.52739098276E+02  0.50400000000E-02 0. -1.
        -24    2    1    2    0    0  0.00000000000E+00 -0.35527136788E-14 -0.20506819797E+02  0.84971376616E+02  0.82459718566E+02 0.  0.
         66    2    3    3    0    0 -0.23203103798E+02  0.29831599948E+02  0.66598217191E+01  0.38427354910E+02  0.19999996897E+01 0.  0.
         13    1    3    3    0    0  0.23203103798E+02 -0.29831599948E+02 -0.27166641516E+02  0.46544021706E+02  0.10566000000E+00 0. -1.
         13    1    4    4    0    0 -0.13145940574E+02  0.17359132791E+02  0.39266018901E+01  0.22126558957E+02  0.10566000000E+00 0. -1.
        -13    1    4    4    0    0 -0.88338876288E+01  0.10712840862E+02  0.27609482052E+01  0.14157560842E+02  0.10566000000E+00 0.  1.
         14    1    4    4    0    0 -0.12232755955E+01  0.17596262945E+01 -0.27728376140E-01  0.21432351111E+01  0.00000000000E+00 0. -1.
<mgrwt>
<rscale>  0 0.82459719E+02</rscale>
<asrwt>0</asrwt>
<pdfrwt beam="1">  1        1 0.81137075E-02 0.82459719E+02</pdfrwt>
<pdfrwt beam="2">  1       -2 0.49588120E-02 0.82459719E+02</pdfrwt>
<totfact> 0.12196081E+05</totfact>
</mgrwt>
</event>
<event>
 8    1  0.9430637E-018  0.7498882E+02  0.7818608E-02  0.1343906E+00
         -2   -1    0    0    0  501 -0.00000000000E+00  0.00000000000E+00  0.25404382800E+02  0.25404382928E+02  0.25500000000E-02 0.  1.
          1   -1    0    0  501    0  0.00000000000E+00 -0.00000000000E+00 -0.55338122527E+02  0.55338122756E+02  0.50400000000E-02 0. -1.
        -24    2    1    2    0    0  0.00000000000E+00  0.00000000000E+00 -0.29933739727E+02  0.80742505684E+02  0.74988822168E+02 0.  0.
         66    2    3    3    0    0 -0.18793179086E+02 -0.73019883206E+01  0.19026018871E+02  0.27793740453E+02  0.20000001771E+01 0.  0.
         13    1    3    3    0    0  0.18793179086E+02  0.73019883206E+01 -0.48959758597E+02  0.52948765232E+02  0.10566000000E+00 0. -1.
         13    1    4    4    0    0 -0.38243103757E+01 -0.95905149924E+00  0.35141054180E+01  0.52825401610E+01  0.10566000000E+00 0. -1.
        -13    1    4    4    0    0 -0.10184171505E+02 -0.38387560049E+01  0.97255629272E+01  0.14596271277E+02  0.10566000000E+00 0.  1.
         14    1    4    4    0    0 -0.47846972056E+01 -0.25041808165E+01  0.57863505253E+01  0.79149290150E+01  0.00000000000E+00 0. -1.
<mgrwt>
<rscale>  0 0.74988822E+02</rscale>
<asrwt>0</asrwt>
<pdfrwt beam="1">  1        1 0.85135573E-02 0.74988822E+02</pdfrwt>
<pdfrwt beam="2">  1       -2 0.39083666E-02 0.74988822E+02</pdfrwt>
<totfact> 0.15973003E+05</totfact>
</mgrwt>
</event>
<event>
 8    1  0.8577104E-018  0.8019350E+02  0.7818608E-02  0.1328503E+00
         -2   -1    0    0    0  501 -0.00000000000E+00  0.00000000000E+00  0.71314357957E+03  0.71314357957E+03  0.25500000000E-02 0.  1.
          1   -1    0    0  501    0  0.00000000000E+00 -0.00000000000E+00 -0.22544512411E+01  0.22544568747E+01  0.50400000000E-02 0. -1.
        -24    2    1    2    0    0  0.00000000000E+00  0.00000000000E+00  0.71088912833E+03  0.71539803645E+03  0.80193502101E+02 0.  0.
         66    2    3    3    0    0 -0.22205314850E+02 -0.27199463050E+01  0.65224568825E+03  0.65263229465E+03  0.20000153431E+01 0.  0.
         13    1    3    3    0    0  0.22205314850E+02  0.27199463050E+01  0.58643440074E+02  0.62765741796E+02  0.10566000000E+00 0. -1.
         13    1    4    4    0    0 -0.99466073177E+00 -0.34268562153E+00  0.36652093386E+02  0.36667341014E+02  0.10566000000E+00 0.  1.
        -13    1    4    4    0    0 -0.15687954751E+02 -0.18173108313E+01  0.43808488272E+03  0.43836946766E+03  0.10566000000E+00 0.  1.
        -14    1    4    4    0    0 -0.55226993668E+01 -0.55994985215E+00  0.17750871214E+03  0.17759548598E+03  0.00000000000E+00 0.  1.
<mgrwt>
<rscale>  0 0.80193502E+02</rscale>
<asrwt>0</asrwt>
<pdfrwt beam="1">  1        1 0.34683875E-03 0.80193502E+02</pdfrwt>
<pdfrwt beam="2">  1       -2 0.10971450E+00 0.80193502E+02</pdfrwt>
<totfact> 0.36952812E+04</totfact>
</mgrwt>
</event>
<event>
 8    1  0.9514555E-018  0.7885025E+02  0.7818608E-02  0.1332346E+00
         -2   -1    0    0    0  501 -0.00000000000E+00  0.00000000000E+00  0.19876696237E+02  0.19876696400E+02  0.25500000000E-02 0.  1.
          1   -1    0    0  501    0  0.00000000000E+00 -0.00000000000E+00 -0.78199140400E+02  0.78199140563E+02  0.50400000000E-02 0. -1.
        -24    2    1    2    0    0  0.00000000000E+00 -0.35527136788E-14 -0.58322444164E+02  0.98075836963E+02  0.78850252395E+02 0.  0.
         66    2    3    3    0    0 -0.20076562752E+02  0.20564188705E+02  0.43429470237E+01  0.29134436877E+02  0.19999985717E+01 0.  0.
         13    1    3    3    0    0  0.20076562752E+02 -0.20564188705E+02 -0.62665391187E+02  0.68941400085E+02  0.10566000000E+00 0. -1.
         13    1    4    4    0    0 -0.52823490911E+01  0.50137195940E+01  0.60614574381E+00  0.73088420961E+01  0.10566000000E+00 0. -1.
        -13    1    4    4    0    0 -0.11417907228E+02  0.11333268634E+02  0.24656534160E+01  0.16275816237E+02  0.10566000000E+00 0.  1.
         14    1    4    4    0    0 -0.33763064327E+01  0.42172004774E+01  0.12711478640E+01  0.55497785439E+01  0.00000000000E+00 0. -1.
<mgrwt>
<rscale>  0 0.78850252E+02</rscale>
<asrwt>0</asrwt>
<pdfrwt beam="1">  1        1 0.12030637E-01 0.78850252E+02</pdfrwt>
<pdfrwt beam="2">  1       -2 0.30579533E-02 0.78850252E+02</pdfrwt>
<totfact> 0.14685289E+05</totfact>
</mgrwt>
</event>
<event>
 8    1  0.8577104E-018  0.7610726E+02  0.7818608E-02  0.1340476E+00
         -2   -1    0    0    0  501 -0.00000000000E+00  0.00000000000E+00  0.10197437379E+02  0.10197437697E+02  0.25500000000E-02 0.  1.
          1   -1    0    0  501    0  0.00000000000E+00 -0.00000000000E+00 -0.14200416673E+03  0.14200416682E+03  0.50400000000E-02 0. -1.
        -24    2    1    2    0    0 -0.17763568394E-14  0.00000000000E+00 -0.13180672936E+03  0.15220160452E+03  0.76107256654E+02 0.  0.
         66    2    3    3    0    0  0.15021385016E+02 -0.34933836664E+02 -0.65463857647E+02  0.75733292506E+02  0.19999959634E+01 0.  0.
         13    1    3    3    0    0 -0.15021385016E+02  0.34933836664E+02 -0.66342871709E+02  0.76468312016E+02  0.10566000000E+00 0. -1.
         13    1    4    4    0    0  0.10008946735E+02 -0.22088816537E+02 -0.41442870637E+02  0.48016846225E+02  0.10566000000E+00 0. -1.
        -13    1    4    4    0    0  0.50265301012E+01 -0.12443522165E+02 -0.23436980355E+02  0.27007600059E+02  0.10566000000E+00 0.  1.
         14    1    4    4    0    0 -0.14091820302E-01 -0.40149796255E+00 -0.58400665402E+00  0.70884622118E+00  0.00000000000E+00 0. -1.
<mgrwt>
<rscale>  0 0.76107257E+02</rscale>
<asrwt>0</asrwt>
<pdfrwt beam="1">  1        1 0.21846794E-01 0.76107257E+02</pdfrwt>
<pdfrwt beam="2">  1       -2 0.15688366E-02 0.76107257E+02</pdfrwt>
<totfact> 0.17855312E+05</totfact>
</mgrwt>
</event>
<event>
 8    1  0.8577104E-018  0.7976275E+02  0.7818608E-02  0.1329726E+00
          1   -1    0    0  501    0  0.00000000000E+00  0.00000000000E+00  0.10171944633E+03  0.10171944645E+03  0.50400000000E-02 0. -1.
         -2   -1    0    0    0  501 -0.00000000000E+00 -0.00000000000E+00 -0.15636381828E+02  0.15636382035E+02  0.25500000000E-02 0.  1.
        -24    2    1    2    0    0  0.00000000000E+00  0.00000000000E+00  0.86083064498E+02  0.11735582849E+03  0.79762751245E+02 0.  0.
         66    2    3    3    0    0 -0.17342380729E+02  0.25566689211E+02  0.60187693534E+01  0.31537903274E+02  0.19999979633E+01 0.  0.
         13    1    3    3    0    0  0.17342380729E+02 -0.25566689211E+02  0.80064295144E+02  0.85817925211E+02  0.10566000000E+00 0. -1.
         13    1    4    4    0    0 -0.15659048274E+02  0.23477940229E+02  0.51839487390E+01  0.28693273755E+02  0.10566000000E+00 0. -1.
        -13    1    4    4    0    0 -0.59731554837E+00  0.81336767269E+00  0.11411247097E+00  0.10210477594E+01  0.10566000000E+00 0.  1.
         14    1    4    4    0    0 -0.10860169066E+01  0.12753813094E+01  0.72070814343E+00  0.18235817596E+01  0.00000000000E+00 0. -1.
<mgrwt>
<rscale>  0 0.79762751E+02</rscale>
<asrwt>0</asrwt>
<pdfrwt beam="1">  1        1 0.15649146E-01 0.79762751E+02</pdfrwt>
<pdfrwt beam="2">  1       -2 0.24055971E-02 0.79762751E+02</pdfrwt>
<totfact> 0.14860122E+05</totfact>
</mgrwt>
</event>
<event>
 8    1  0.8577104E-018  0.7935944E+02  0.7818608E-02  0.1330879E+00
         -2   -1    0    0    0  501 -0.00000000000E+00  0.00000000000E+00  0.44595360796E+03  0.44595360797E+03  0.25500000000E-02 0.  1.
          1   -1    0    0  501    0  0.00000000000E+00 -0.00000000000E+00 -0.35305904022E+01  0.35305939996E+01  0.50400000000E-02 0. -1.
        -24    2    1    2    0    0  0.00000000000E+00 -0.35527136788E-14  0.44242301756E+03  0.44948420197E+03  0.79359444006E+02 0.  0.
         66    2    3    3    0    0 -0.32654160225E+02 -0.17129996759E+02  0.30396395091E+03  0.30619897848E+03  0.19999999795E+01 0.  0.
         13    1    3    3    0    0  0.32654160225E+02  0.17129996759E+02  0.13845906665E+03  0.14328522349E+03  0.10566000000E+00 0. -1.
         13    1    4    4    0    0 -0.13912675575E+02 -0.78429985813E+01  0.13391820024E+03  0.13486723356E+03  0.10566000000E+00 0. -1.
        -13    1    4    4    0    0 -0.75422186173E+00 -0.16712609819E+00  0.56146711673E+01  0.56685516759E+01  0.10566000000E+00 0.  1.
        -14    1    4    4    0    0 -0.17987262788E+02 -0.91198720797E+01  0.16443107950E+03  0.16566319324E+03  0.00000000000E+00 0.  1.
<mgrwt>
<rscale>  0 0.79359444E+02</rscale>
<asrwt>0</asrwt>
<pdfrwt beam="1">  1        1 0.54316832E-03 0.79359444E+02</pdfrwt>
<pdfrwt beam="2">  1       -2 0.68608212E-01 0.79359444E+02</pdfrwt>
<totfact> 0.55987351E+04</totfact>
</mgrwt>
</event>
<event>
 8    1  0.8577104E-018  0.7966351E+02  0.7818608E-02  0.1330009E+00
          1   -1    0    0  501    0  0.00000000000E+00  0.00000000000E+00  0.18249763052E+01  0.18249832646E+01  0.50400000000E-02 0. -1.
         -2   -1    0    0    0  501 -0.00000000000E+00 -0.00000000000E+00 -0.86936234308E+03  0.86936234308E+03  0.25500000000E-02 0.  1.
        -24    2    1    2    0    0 -0.11102230246E-15  0.35527136788E-14 -0.86753736677E+03  0.87118732635E+03  0.79663510088E+02 0.  0.
         66    2    3    3    0    0 -0.65770625679E+00  0.23399629814E+02 -0.78613262909E+03  0.78648362079E+03  0.20000013130E+01 0.  0.
         13    1    3    3    0    0  0.65770625679E+00 -0.23399629814E+02 -0.81404737684E+02  0.84703705553E+02  0.10566000000E+00 0. -1.
         13    1    4    4    0    0 -0.25541676990E+00  0.24916520433E+01 -0.67020162695E+02  0.67067033178E+02  0.10566000000E+00 0. -1.
        -13    1    4    4    0    0 -0.37775942409E-01  0.72913564888E+01 -0.24549186483E+03  0.24560014692E+03  0.10566000000E+00 0.  1.
        -14    1    4    4    0    0 -0.36451354448E+00  0.13616621282E+02 -0.47362060157E+03  0.47381644069E+03  0.00000000000E+00 0.  1.
<mgrwt>
<rscale>  0 0.79663510E+02</rscale>
<asrwt>0</asrwt>
<pdfrwt beam="1">  1        1 0.28076682E-03 0.79663510E+02</pdfrwt>
<pdfrwt beam="2">  1       -2 0.13374772E+00 0.79663510E+02</pdfrwt>
<totfact> 0.30811247E+04</totfact>
</mgrwt>
</event>
<event>
 8    1  0.8577104E-018  0.8420795E+02  0.7818608E-02  0.1317517E+00
         -2   -1    0    0    0  501 -0.00000000000E+00  0.00000000000E+00  0.77558260276E+02  0.77558260318E+02  0.25500000000E-02 0.  1.
          1   -1    0    0  501    0  0.00000000000E+00 -0.00000000000E+00 -0.22856940021E+02  0.22856940577E+02  0.50400000000E-02 0. -1.
        -24    2    1    2    0    0  0.00000000000E+00  0.00000000000E+00  0.54701320256E+02  0.10041520089E+03  0.84207945783E+02 0.  0.
         66    2    3    3    0    0  0.18738659550E+02 -0.34889359745E+02  0.44328223097E+02  0.59476013142E+02  0.19999978053E+01 0.  0.
         13    1    3    3    0    0 -0.18738659550E+02  0.34889359745E+02  0.10373097159E+02  0.40939187753E+02  0.10566000000E+00 0. -1.
         13    1    4    4    0    0  0.65533677146E+01 -0.11023341939E+02  0.13781876297E+02  0.18825832630E+02  0.10566000000E+00 0. -1.
        -13    1    4    4    0    0  0.56756339042E+01 -0.10868721259E+02  0.14811110931E+02  0.19228158858E+02  0.10566000000E+00 0.  1.
        -14    1    4    4    0    0  0.65096579314E+01 -0.12997296547E+02  0.15735235868E+02  0.21422021654E+02  0.00000000000E+00 0.  1.
<mgrwt>
<rscale>  0 0.84207946E+02</rscale>
<asrwt>0</asrwt>
<pdfrwt beam="1">  1        1 0.35164524E-02 0.84207946E+02</pdfrwt>
<pdfrwt beam="2">  1       -2 0.11932040E-01 0.84207946E+02</pdfrwt>
<totfact> 0.98727582E+04</totfact>
</mgrwt>
</event>
<event>
 8    1  0.8577104E-018  0.8016075E+02  0.7818608E-02  0.1328596E+00
          1   -1    0    0  501    0  0.00000000000E+00  0.00000000000E+00  0.17421379129E+01  0.17421452032E+01  0.50400000000E-02 0. -1.
         -2   -1    0    0    0  501 -0.00000000000E+00 -0.00000000000E+00 -0.92210452445E+03  0.92210452445E+03  0.25500000000E-02 0.  1.
        -24    2    1    2    0    0 -0.17763568394E-14  0.69388939039E-17 -0.92036238653E+03  0.92384666965E+03  0.80160754010E+02 0.  0.
         66    2    3    3    0    0  0.11197495983E+02 -0.33759520839E-01 -0.90369673731E+03  0.90376832101E+03  0.19999970106E+01 0.  0.
         13    1    3    3    0    0 -0.11197495983E+02  0.33759520839E-01 -0.16665649223E+02  0.20078348639E+02  0.10566000000E+00 0. -1.
         13    1    4    4    0    0  0.71713780895E+01 -0.17136121443E+00 -0.62592617706E+03  0.62596729013E+03  0.10566000000E+00 0. -1.
        -13    1    4    4    0    0  0.35085299399E+00 -0.16115978156E+00 -0.38161395552E+02  0.38163494924E+02  0.10566000000E+00 0.  1.
         14    1    4    4    0    0  0.36752648992E+01  0.29876147516E+00 -0.23960916470E+03  0.23963753596E+03  0.00000000000E+00 0. -1.
<mgrwt>
<rscale>  0 0.80160754E+02</rscale>
<asrwt>0</asrwt>
<pdfrwt beam="1">  1        1 0.26802252E-03 0.80160754E+02</pdfrwt>
<pdfrwt beam="2">  1       -2 0.14186184E+00 0.80160754E+02</pdfrwt>
<totfact> 0.28443042E+04</totfact>
</mgrwt>
</event>
<event>
 8    1  0.8577104E-018  0.7890854E+02  0.7818608E-02  0.1332178E+00
         -2   -1    0    0    0  501 -0.00000000000E+00  0.00000000000E+00  0.24447881494E+03  0.24447881495E+03  0.25500000000E-02 0.  1.
          1   -1    0    0  501    0  0.00000000000E+00 -0.00000000000E+00 -0.63671745689E+01  0.63671765636E+01  0.50400000000E-02 0. -1.
        -24    2    1    2    0    0 -0.35527136788E-14  0.00000000000E+00  0.23811164037E+03  0.25084599152E+03  0.78908543136E+02 0.  0.
         66    2    3    3    0    0 -0.24481818168E+02  0.21469704209E+02  0.18981107330E+03  0.19259426568E+03  0.20000013890E+01 0.  0.
         13    1    3    3    0    0  0.24481818168E+02 -0.21469704209E+02  0.48300567071E+02  0.58251725838E+02  0.10566000000E+00 0. -1.
         13    1    4    4    0    0 -0.67020656542E+01  0.64189998151E+01  0.50847451634E+02  0.51687481506E+02  0.10566000000E+00 0. -1.
        -13    1    4    4    0    0 -0.10023367558E+02  0.91399224299E+01  0.79712261051E+02  0.80858282230E+02  0.10566000000E+00 0.  1.
        -14    1    4    4    0    0 -0.77563849557E+01  0.59107819639E+01  0.59251360615E+02  0.60048501944E+02  0.00000000000E+00 0.  1.
<mgrwt>
<rscale>  0 0.78908543E+02</rscale>
<asrwt>0</asrwt>
<pdfrwt beam="1">  1        1 0.97956540E-03 0.78908543E+02</pdfrwt>
<pdfrwt beam="2">  1       -2 0.37612128E-01 0.78908543E+02</pdfrwt>
<totfact> 0.80746791E+04</totfact>
</mgrwt>
</event>
<event>
 8    1  0.8577104E-018  0.7952842E+02  0.7818608E-02  0.1330395E+00
         -2   -1    0    0    0  501 -0.00000000000E+00  0.00000000000E+00  0.24665552931E+03  0.24665552933E+03  0.25500000000E-02 0.  1.
          1   -1    0    0  501    0  0.00000000000E+00 -0.00000000000E+00 -0.64105283058E+01  0.64105302870E+01  0.50400000000E-02 0. -1.
        -24    2    1    2    0    0  0.00000000000E+00 -0.88817841970E-15  0.24024500101E+03  0.25306605961E+03  0.79528422713E+02 0.  0.
         66    2    3    3    0    0 -0.17745133140E+02  0.67176522202E+01  0.23130587598E+03  0.23209141488E+03  0.19999990076E+01 0.  0.
         13    1    3    3    0    0  0.17745133140E+02 -0.67176522202E+01  0.89391250293E+01  0.20974644737E+02  0.10566000000E+00 0. -1.
         13    1    4    4    0    0 -0.16496852520E+01  0.11958604502E+01  0.25660608693E+02  0.25741591757E+02  0.10566000000E+00 0.  1.
        -13    1    4    4    0    0 -0.34788113371E+01  0.14236156540E+01  0.48650190355E+02  0.48795296858E+02  0.10566000000E+00 0.  1.
         14    1    4    4    0    0 -0.12616636551E+02  0.40981761160E+01  0.15699507693E+03  0.15755452626E+03  0.00000000000E+00 0. -1.
<mgrwt>
<rscale>  0 0.79528423E+02</rscale>
<asrwt>0</asrwt>
<pdfrwt beam="1">  1        1 0.98623539E-03 0.79528423E+02</pdfrwt>
<pdfrwt beam="2">  1       -2 0.37947000E-01 0.79528423E+02</pdfrwt>
<totfact> 0.78803248E+04</totfact>
</mgrwt>
</event>
<event>
 8    1  0.8577104E-018  0.7972929E+02  0.7818608E-02  0.1329821E+00
          1   -1    0    0  501    0  0.00000000000E+00  0.00000000000E+00  0.27269370178E+02  0.27269370643E+02  0.50400000000E-02 0. -1.
         -2   -1    0    0    0  501 -0.00000000000E+00 -0.00000000000E+00 -0.58277465682E+02  0.58277465738E+02  0.25500000000E-02 0.  1.
        -24    2    1    2    0    0  0.00000000000E+00  0.00000000000E+00 -0.31008095504E+02  0.85546836381E+02  0.79729287141E+02 0.  0.
         66    2    3    3    0    0 -0.23466129425E+02  0.16339537913E+02 -0.45278586625E+02  0.53589085987E+02  0.20000001976E+01 0.  0.
         13    1    3    3    0    0  0.23466129425E+02 -0.16339537913E+02  0.14270491121E+02  0.31957750394E+02  0.10566000000E+00 0. -1.
         13    1    4    4    0    0 -0.16221544844E+01  0.12151340121E+01 -0.27464774873E+01  0.34150019711E+01  0.10566000000E+00 0. -1.
        -13    1    4    4    0    0 -0.37666735026E+01  0.30438636932E+01 -0.68513165928E+01  0.83907471984E+01  0.10566000000E+00 0.  1.
        -14    1    4    4    0    0 -0.18077301438E+02  0.12080540207E+02 -0.35680792545E+02  0.41783336817E+02  0.00000000000E+00 0.  1.
<mgrwt>
<rscale>  0 0.79729287E+02</rscale>
<asrwt>0</asrwt>
<pdfrwt beam="1">  1        1 0.41952878E-02 0.79729287E+02</pdfrwt>
<pdfrwt beam="2">  1       -2 0.89657639E-02 0.79729287E+02</pdfrwt>
<totfact> 0.12005417E+05</totfact>
</mgrwt>
</event>
<event>
 8    1  0.8577104E-018  0.7909200E+02  0.7818608E-02  0.1331648E+00
         -2   -1    0    0    0  501 -0.00000000000E+00  0.00000000000E+00  0.30611088593E+03  0.30611088595E+03  0.25500000000E-02 0.  1.
          1   -1    0    0  501    0  0.00000000000E+00 -0.00000000000E+00 -0.51088865908E+01  0.51088890768E+01  0.50400000000E-02 0. -1.
        -24    2    1    2    0    0  0.00000000000E+00 -0.17763568394E-14  0.30100199934E+03  0.31121977502E+03  0.79092001845E+02 0.  0.
         66    2    3    3    0    0  0.20361350393E+02  0.12461834689E+02  0.27453092035E+03  0.27557414274E+03  0.20000013685E+01 0.  0.
         13    1    3    3    0    0 -0.20361350393E+02 -0.12461834689E+02  0.26471078995E+02  0.35645632283E+02  0.10566000000E+00 0. -1.
         13    1    4    4    0    0  0.49148714488E+01  0.37475724171E+01  0.68256465424E+02  0.68535804486E+02  0.10566000000E+00 0. -1.
        -13    1    4    4    0    0  0.78116533245E+01  0.44841913907E+01  0.98507992195E+02  0.98918984985E+02  0.10566000000E+00 0.  1.
         14    1    4    4    0    0  0.76348256193E+01  0.42300708815E+01  0.10776646273E+03  0.10811935327E+03  0.00000000000E+00 0. -1.
<mgrwt>
<rscale>  0 0.79092002E+02</rscale>
<asrwt>0</asrwt>
<pdfrwt beam="1">  1        1 0.78598243E-03 0.79092002E+02</pdfrwt>
<pdfrwt beam="2">  1       -2 0.47094002E-01 0.79092002E+02</pdfrwt>
<totfact> 0.71577180E+04</totfact>
</mgrwt>
</event>
<event>
 8    1  0.8577104E-018  0.8023761E+02  0.7818608E-02  0.1328378E+00
         -2   -1    0    0    0  501 -0.00000000000E+00  0.00000000000E+00  0.47223990169E+02  0.47223990238E+02  0.25500000000E-02 0.  1.
          1   -1    0    0  501    0  0.00000000000E+00 -0.00000000000E+00 -0.34082647938E+02  0.34082648310E+02  0.50400000000E-02 0. -1.
        -24    2    1    2    0    0  0.00000000000E+00  0.00000000000E+00  0.13141342232E+02  0.81306638548E+02  0.80237613352E+02 0.  0.
         66    2    3    3    0    0 -0.31595255547E+02  0.18515319940E+02  0.23115096809E+02  0.43351873499E+02  0.19999974635E+01 0.  0.
         13    1    3    3    0    0  0.31595255547E+02 -0.18515319940E+02 -0.99737545771E+01  0.37954765049E+02  0.10566000000E+00 0. -1.
         13    1    4    4    0    0 -0.40918931778E+01  0.27351147613E+01  0.35205564936E+01  0.60522660711E+01  0.10566000000E+00 0. -1.
        -13    1    4    4    0    0 -0.15907299540E+02  0.94267956721E+01  0.12147805833E+02  0.22124353231E+02  0.10566000000E+00 0. -1.
        -14    1    4    4    0    0 -0.11596062829E+02  0.63534095065E+01  0.74467344818E+01  0.15175254196E+02  0.00000000000E+00 0.  1.
<mgrwt>
<rscale>  0 0.80237613E+02</rscale>
<asrwt>0</asrwt>
<pdfrwt beam="1">  1        1 0.52434843E-02 0.80237613E+02</pdfrwt>
<pdfrwt beam="2">  1       -2 0.72652293E-02 0.80237613E+02</pdfrwt>
<totfact> 0.12260927E+05</totfact>
</mgrwt>
</event>
<event>
 8    1  0.8577104E-018  0.7813785E+02  0.7818608E-02  0.1334421E+00
          1   -1    0    0  501    0  0.00000000000E+00  0.00000000000E+00  0.25240262156E+02  0.25240262659E+02  0.50400000000E-02 0. -1.
         -2   -1    0    0    0  501 -0.00000000000E+00 -0.00000000000E+00 -0.60474051532E+02  0.60474051585E+02  0.25500000000E-02 0.  1.
        -24    2    1    2    0    0  0.35527136788E-14  0.00000000000E+00 -0.35233789376E+02  0.85714314245E+02  0.78137850960E+02 0.  0.
         66    2    3    3    0    0 -0.27754034385E+02  0.11047505473E+02 -0.45206541533E+02  0.54221445982E+02  0.20000013013E+01 0.  0.
         13    1    3    3    0    0  0.27754034385E+02 -0.11047505473E+02  0.99727521571E+01  0.31492868263E+02  0.10566000000E+00 0. -1.
         13    1    4    4    0    0 -0.10552542601E+02  0.49112702280E+01 -0.16960712198E+02  0.20570698892E+02  0.10566000000E+00 0. -1.
        -13    1    4    4    0    0 -0.10948559626E+02  0.37317613183E+01 -0.18703159050E+02  0.21991278337E+02  0.10566000000E+00 0.  1.
        -14    1    4    4    0    0 -0.62529321582E+01  0.24044739264E+01 -0.95426702845E+01  0.11659468753E+02  0.00000000000E+00 0.  1.
<mgrwt>
<rscale>  0 0.78137851E+02</rscale>
<asrwt>0</asrwt>
<pdfrwt beam="1">  1        1 0.38831173E-02 0.78137851E+02</pdfrwt>
<pdfrwt beam="2">  1       -2 0.93037002E-02 0.78137851E+02</pdfrwt>
<totfact> 0.12547159E+05</totfact>
</mgrwt>
</event>
<event>
 8    1  0.8577104E-018  0.8091734E+02  0.7818608E-02  0.1326468E+00
         -2   -1    0    0    0  501 -0.00000000000E+00  0.00000000000E+00  0.25538844223E+03  0.25538844224E+03  0.25500000000E-02 0.  1.
          1   -1    0    0  501    0  0.00000000000E+00 -0.00000000000E+00 -0.64094665137E+01  0.64094684952E+01  0.50400000000E-02 0. -1.
        -24    2    1    2    0    0  0.00000000000E+00  0.00000000000E+00  0.24897897571E+03  0.26179791073E+03  0.80917338796E+02 0.  0.
         66    2    3    3    0    0 -0.25093809607E+02 -0.64564886532E+01  0.22499301688E+03  0.22648894712E+03  0.19999992424E+01 0.  0.
         13    1    3    3    0    0  0.25093809607E+02  0.64564886532E+01  0.23985958835E+02  0.35308963616E+02  0.10566000000E+00 0. -1.
         13    1    4    4    0    0 -0.79211426332E+01 -0.26205338092E+01  0.76012955883E+02  0.76469551615E+02  0.10566000000E+00 0. -1.
        -13    1    4    4    0    0 -0.15082949836E+02 -0.36899373504E+01  0.13002498448E+03  0.13094891663E+03  0.10566000000E+00 0.  1.
         14    1    4    4    0    0 -0.20897171380E+01 -0.14601749365E+00  0.18955076514E+02  0.19070478874E+02  0.00000000000E+00 0. -1.
<mgrwt>
<rscale>  0 0.80917339E+02</rscale>
<asrwt>0</asrwt>
<pdfrwt beam="1">  1        1 0.98607203E-03 0.80917339E+02</pdfrwt>
<pdfrwt beam="2">  1       -2 0.39290526E-01 0.80917339E+02</pdfrwt>
<totfact> 0.74113407E+04</totfact>
</mgrwt>
</event>
<event>
 8    1  0.8577104E-018  0.7955165E+02  0.7818608E-02  0.1330329E+00
         -2   -1    0    0    0  501 -0.00000000000E+00  0.00000000000E+00  0.58142318188E+01  0.58142323780E+01  0.25500000000E-02 0.  1.
          1   -1    0    0  501    0  0.00000000000E+00 -0.00000000000E+00 -0.27211098337E+03  0.27211098342E+03  0.50400000000E-02 0. -1.
        -24    2    1    2    0    0  0.00000000000E+00  0.00000000000E+00 -0.26629675155E+03  0.27792521579E+03  0.79551654211E+02 0.  0.
         66    2    3    3    0    0 -0.35324827664E+02 -0.16826192449E+02 -0.10874005738E+03  0.11558271599E+03  0.19999884802E+01 0.  0.
         13    1    3    3    0    0  0.35324827664E+02  0.16826192449E+02 -0.15755669417E+03  0.16234249981E+03  0.10566000000E+00 0. -1.
         13    1    4    4    0    0 -0.54626952940E+01 -0.30280775851E+01 -0.16471484168E+02  0.17616221174E+02  0.10566000000E+00 0. -1.
        -13    1    4    4    0    0 -0.12358890740E+02 -0.59447748569E+01 -0.36621630739E+02  0.39105466759E+02  0.10566000000E+00 0.  1.
        -14    1    4    4    0    0 -0.17503241630E+02 -0.78533400068E+01 -0.55646942474E+02  0.58861028054E+02  0.00000000000E+00 0.  1.
<mgrwt>
<rscale>  0 0.79551654E+02</rscale>
<asrwt>0</asrwt>
<pdfrwt beam="1">  1        1 0.41863218E-01 0.79551654E+02</pdfrwt>
<pdfrwt beam="2">  1       -2 0.89449746E-03 0.79551654E+02</pdfrwt>
<totfact> 0.17970221E+05</totfact>
</mgrwt>
</event>
<event>
 8    1  0.8577104E-018  0.7914848E+02  0.7818608E-02  0.1331485E+00
          1   -1    0    0  501    0  0.00000000000E+00  0.00000000000E+00  0.81585231056E+02  0.81585231212E+02  0.50400000000E-02 0. -1.
         -2   -1    0    0    0  501 -0.00000000000E+00 -0.00000000000E+00 -0.19196125212E+02  0.19196125382E+02  0.25500000000E-02 0.  1.
        -24    2    1    2    0    0 -0.17763568394E-14  0.00000000000E+00  0.62389105844E+02  0.10078135659E+03  0.79148476352E+02 0.  0.
         66    2    3    3    0    0  0.11908319005E+02  0.37560509612E+02  0.26893479655E+02  0.47747871074E+02  0.20000000640E+01 0.  0.
         13    1    3    3    0    0 -0.11908319005E+02 -0.37560509612E+02  0.35495626188E+02  0.53033485520E+02  0.10566000000E+00 0. -1.
         13    1    4    4    0    0  0.56059211557E+01  0.15757726279E+02  0.12312319842E+02  0.20768646403E+02  0.10566000000E+00 0. -1.
        -13    1    4    4    0    0  0.31575026561E+01  0.10938172822E+02  0.75555358471E+01  0.13664213613E+02  0.10566000000E+00 0.  1.
         14    1    4    4    0    0  0.31448951930E+01  0.10864610511E+02  0.70256239663E+01  0.13315011057E+02  0.00000000000E+00 0. -1.
<mgrwt>
<rscale>  0 0.79148476E+02</rscale>
<asrwt>0</asrwt>
<pdfrwt beam="1">  1        1 0.12551575E-01 0.79148476E+02</pdfrwt>
<pdfrwt beam="2">  1       -2 0.29532499E-02 0.79148476E+02</pdfrwt>
<totfact> 0.14634122E+05</totfact>
</mgrwt>
</event>
<event>
 8    1  0.8577104E-018  0.7477102E+02  0.7818608E-02  0.1344582E+00
          1   -1    0    0  501    0  0.00000000000E+00  0.00000000000E+00  0.81370199194E+01  0.81370214803E+01  0.50400000000E-02 0. -1.
         -2   -1    0    0    0  501 -0.00000000000E+00 -0.00000000000E+00 -0.17176757892E+03  0.17176757894E+03  0.25500000000E-02 0.  1.
        -24    2    1    2    0    0  0.44408920985E-15 -0.17763568394E-14 -0.16363055900E+03  0.17990460042E+03  0.74771019875E+02 0.  0.
         66    2    3    3    0    0  0.25558453219E+01 -0.14582428794E+02 -0.16440205507E+03  0.16507942099E+03  0.19999869514E+01 0.  0.
         13    1    3    3    0    0 -0.25558453219E+01  0.14582428794E+02  0.77149607255E+00  0.14825179428E+02  0.10566000000E+00 0. -1.
         13    1    4    4    0    0  0.80391142289E-02 -0.48501746164E+01 -0.53337695242E+02  0.53557867361E+02  0.10566000000E+00 0. -1.
        -13    1    4    4    0    0  0.23844692444E+00 -0.17566001384E+01 -0.21400091101E+02  0.21473648134E+02  0.10566000000E+00 0.  1.
         14    1    4    4    0    0  0.23093592832E+01 -0.79756540389E+01 -0.89664268730E+02  0.90047905498E+02  0.00000000000E+00 0. -1.
<mgrwt>
<rscale>  0 0.74771020E+02</rscale>
<asrwt>0</asrwt>
<pdfrwt beam="1">  1        1 0.12518495E-02 0.74771020E+02</pdfrwt>
<pdfrwt beam="2">  1       -2 0.26425779E-01 0.74771020E+02</pdfrwt>
<totfact> 0.10731108E+05</totfact>
</mgrwt>
</event>
<event>
 8    1  0.8577104E-018  0.8048888E+02  0.7818608E-02  0.1327670E+00
          1   -1    0    0  501    0  0.00000000000E+00  0.00000000000E+00  0.79079907165E+02  0.79079907326E+02  0.50400000000E-02 0. -1.
         -2   -1    0    0    0  501 -0.00000000000E+00 -0.00000000000E+00 -0.20480738948E+02  0.20480739107E+02  0.25500000000E-02 0.  1.
        -24    2    1    2    0    0  0.17763568394E-14 -0.71054273576E-14  0.58599168217E+02  0.99560646432E+02  0.80488879992E+02 0.  0.
         66    2    3    3    0    0 -0.15387296441E+02  0.35299557800E+02  0.43678081458E+02  0.58263217133E+02  0.19999995491E+01 0.  0.
         13    1    3    3    0    0  0.15387296441E+02 -0.35299557800E+02  0.14921086759E+02  0.41297429300E+02  0.10566000000E+00 0. -1.
         13    1    4    4    0    0 -0.29632182207E+01  0.69377424703E+01  0.78615087196E+01  0.10896211093E+02  0.10566000000E+00 0. -1.
        -13    1    4    4    0    0 -0.12008201271E+02  0.27410092628E+02  0.34183420710E+02  0.45431569322E+02  0.10566000000E+00 0.  1.
         14    1    4    4    0    0 -0.41587694922E+00  0.95172270195E+00  0.16331520283E+01  0.19354367170E+01  0.00000000000E+00 0. -1.
<mgrwt>
<rscale>  0 0.80488880E+02</rscale>
<asrwt>0</asrwt>
<pdfrwt beam="1">  1        1 0.12166139E-01 0.80488880E+02</pdfrwt>
<pdfrwt beam="2">  1       -2 0.31508830E-02 0.80488880E+02</pdfrwt>
<totfact> 0.13910073E+05</totfact>
</mgrwt>
</event>
<event>
 8    1  0.8577104E-018  0.8117999E+02  0.7818608E-02  0.1325736E+00
         -2   -1    0    0    0  501 -0.00000000000E+00  0.00000000000E+00  0.18318625387E+03  0.18318625389E+03  0.25500000000E-02 0.  1.
          1   -1    0    0  501    0  0.00000000000E+00 -0.00000000000E+00 -0.89938382274E+01  0.89938396396E+01  0.50400000000E-02 0. -1.
        -24    2    1    2    0    0  0.00000000000E+00  0.00000000000E+00  0.17419241564E+03  0.19218009353E+03  0.81179989412E+02 0.  0.
         66    2    3    3    0    0  0.15873588853E+02  0.97726192743E+01  0.17244088458E+03  0.17345700790E+03  0.20000006108E+01 0.  0.
         13    1    3    3    0    0 -0.15873588853E+02 -0.97726192743E+01  0.17515310638E+01  0.18723085634E+02  0.10566000000E+00 0. -1.
         13    1    4    4    0    0  0.54091445926E+01  0.37114119681E+01  0.60247762469E+02  0.60603939398E+02  0.10566000000E+00 0. -1.
        -13    1    4    4    0    0  0.57343344462E+01  0.41492775571E+01  0.66946355768E+02  0.67319572269E+02  0.10566000000E+00 0.  1.
         14    1    4    4    0    0  0.47301098144E+01  0.19119297491E+01  0.45246766344E+02  0.45533496229E+02  0.00000000000E+00 0. -1.
<mgrwt>
<rscale>  0 0.81179989E+02</rscale>
<asrwt>0</asrwt>
<pdfrwt beam="1">  1        1 0.13836676E-02 0.81179989E+02</pdfrwt>
<pdfrwt beam="2">  1       -2 0.28182499E-01 0.81179989E+02</pdfrwt>
<totfact> 0.84799785E+04</totfact>
</mgrwt>
</event>
<event>
 8    1  0.8577104E-018  0.7216517E+02  0.7818608E-02  0.1352881E+00
         -2   -1    0    0    0  501 -0.00000000000E+00  0.00000000000E+00  0.25940118981E+02  0.25940119106E+02  0.25500000000E-02 0.  1.
          1   -1    0    0  501    0  0.00000000000E+00 -0.00000000000E+00 -0.50190700646E+02  0.50190700899E+02  0.50400000000E-02 0. -1.
        -24    2    1    2    0    0  0.00000000000E+00  0.00000000000E+00 -0.24250581665E+02  0.76130820004E+02  0.72165165028E+02 0.  0.
         66    2    3    3    0    0  0.77587711032E+01  0.18692610082E+02  0.19343616033E+02  0.28067555055E+02  0.19999912063E+01 0.  0.
         13    1    3    3    0    0 -0.77587711032E+01 -0.18692610082E+02 -0.43594197698E+02  0.48063264950E+02  0.10566000000E+00 0. -1.
         13    1    4    4    0    0  0.34186856305E+01  0.70090427913E+01  0.63408562709E+01  0.10051453356E+02  0.10566000000E+00 0. -1.
        -13    1    4    4    0    0  0.37743533857E+01  0.97807477758E+01  0.11010471596E+02  0.15203631781E+02  0.10566000000E+00 0.  1.
        -14    1    4    4    0    0  0.56573208690E+00  0.19028195144E+01  0.19922881659E+01  0.28124699171E+01  0.00000000000E+00 0.  1.
<mgrwt>
<rscale>  0 0.72165165E+02</rscale>
<asrwt>0</asrwt>
<pdfrwt beam="1">  1        1 0.77216463E-02 0.72165165E+02</pdfrwt>
<pdfrwt beam="2">  1       -2 0.39907876E-02 0.72165165E+02</pdfrwt>
<totfact> 0.17486935E+05</totfact>
</mgrwt>
</event>
<event>
 8    1  0.8577104E-018  0.8145454E+02  0.7818608E-02  0.1324974E+00
         -2   -1    0    0    0  501 -0.00000000000E+00  0.00000000000E+00  0.10357242395E+02  0.10357242709E+02  0.25500000000E-02 0.  1.
          1   -1    0    0  501    0  0.00000000000E+00 -0.00000000000E+00 -0.16014980150E+03  0.16014980158E+03  0.50400000000E-02 0. -1.
        -24    2    1    2    0    0  0.00000000000E+00  0.35527136788E-14 -0.14979255911E+03  0.17050704429E+03  0.81454535716E+02 0.  0.
         66    2    3    3    0    0 -0.19447214767E+02  0.30146306617E+02 -0.34691993851E+02  0.49945254111E+02  0.20000015168E+01 0.  0.
         13    1    3    3    0    0  0.19447214767E+02 -0.30146306617E+02 -0.11510056526E+03  0.12056179018E+03  0.10566000000E+00 0. -1.
         13    1    4    4    0    0 -0.27358714622E+01  0.34900595585E+01 -0.44590893017E+01  0.62896859870E+01  0.10566000000E+00 0. -1.
        -13    1    4    4    0    0 -0.13439108671E+02  0.20388370819E+02 -0.23212546949E+02  0.33691672657E+02  0.10566000000E+00 0.  1.
         14    1    4    4    0    0 -0.32722346333E+01  0.62678762392E+01 -0.70203576003E+01  0.99638954672E+01  0.00000000000E+00 0. -1.
<mgrwt>
<rscale>  0 0.81454536E+02</rscale>
<asrwt>0</asrwt>
<pdfrwt beam="1">  1        1 0.24638429E-01 0.81454536E+02</pdfrwt>
<pdfrwt beam="2">  1       -2 0.15934221E-02 0.81454536E+02</pdfrwt>
<totfact> 0.15230727E+05</totfact>
</mgrwt>
</event>
<event>
 8    1  0.8577104E-018  0.6968024E+02  0.7818608E-02  0.1361184E+00
          1   -1    0    0  501    0  0.00000000000E+00  0.00000000000E+00  0.10044702975E+03  0.10044702988E+03  0.50400000000E-02 0. -1.
         -2   -1    0    0    0  501 -0.00000000000E+00 -0.00000000000E+00 -0.12084319618E+02  0.12084319887E+02  0.25500000000E-02 0.  1.
        -24    2    1    2    0    0  0.00000000000E+00  0.00000000000E+00  0.88362710135E+02  0.11253134977E+03  0.69680242092E+02 0.  0.
         66    2    3    3    0    0  0.22707417789E+02 -0.16199918734E+02  0.10582671801E+02  0.29900788127E+02  0.19999996318E+01 0.  0.
         13    1    3    3    0    0 -0.22707417789E+02  0.16199918734E+02  0.77780038333E+02  0.82630561639E+02  0.10566000000E+00 0. -1.
         13    1    4    4    0    0  0.20660572635E+01 -0.19446660322E+01  0.11443266043E+01  0.30612033591E+01  0.10566000000E+00 0. -1.
        -13    1    4    4    0    0  0.17721234342E+02 -0.11694224892E+02  0.77167710751E+01  0.22591077050E+02  0.10566000000E+00 0.  1.
        -14    1    4    4    0    0  0.29201261843E+01 -0.25610278097E+01  0.17215741219E+01  0.42485077182E+01  0.00000000000E+00 0.  1.
<mgrwt>
<rscale>  0 0.69680242E+02</rscale>
<asrwt>0</asrwt>
<pdfrwt beam="1">  1        1 0.15453390E-01 0.69680242E+02</pdfrwt>
<pdfrwt beam="2">  1       -2 0.18591261E-02 0.69680242E+02</pdfrwt>
<totfact> 0.21284301E+05</totfact>
</mgrwt>
</event>
<event>
 8    1  0.8577104E-018  0.7229745E+02  0.7818608E-02  0.1352450E+00
          1   -1    0    0  501    0  0.00000000000E+00  0.00000000000E+00  0.99594295353E+02  0.99594295480E+02  0.50400000000E-02 0. -1.
         -2   -1    0    0    0  501 -0.00000000000E+00 -0.00000000000E+00 -0.13120532452E+02  0.13120532700E+02  0.25500000000E-02 0.  1.
        -24    2    1    2    0    0  0.00000000000E+00 -0.11102230246E-15  0.86473762900E+02  0.11271482818E+03  0.72297446854E+02 0.  0.
         66    2    3    3    0    0  0.15538494262E+02 -0.96682325839E+00 -0.75450205825E+01  0.17415707708E+02  0.19999970601E+01 0.  0.
         13    1    3    3    0    0 -0.15538494262E+02  0.96682325839E+00  0.94018783483E+02  0.95299120472E+02  0.10566000000E+00 0. -1.
         13    1    4    4    0    0  0.75508686520E+01  0.10221346359E+00 -0.43161225003E+01  0.86986287692E+01  0.10566000000E+00 0. -1.
        -13    1    4    4    0    0  0.59564274446E+01 -0.11354581977E+01 -0.24395245731E+01  0.65368752015E+01  0.10566000000E+00 0.  1.
         14    1    4    4    0    0  0.20311981655E+01  0.66421475710E-01 -0.78937350911E+00  0.21802037375E+01  0.00000000000E+00 0. -1.
<mgrwt>
<rscale>  0 0.72297447E+02</rscale>
<asrwt>0</asrwt>
<pdfrwt beam="1">  1        1 0.15322200E-01 0.72297447E+02</pdfrwt>
<pdfrwt beam="2">  1       -2 0.20185434E-02 0.72297447E+02</pdfrwt>
<totfact> 0.19273104E+05</totfact>
</mgrwt>
</event>
<event>
 8    1  0.9434068E-018  0.7867613E+02  0.7818608E-02  0.1332851E+00
          1   -1    0    0  501    0  0.00000000000E+00  0.00000000000E+00  0.99592641781E+02  0.99592641909E+02  0.50400000000E-02 0. -1.
         -2   -1    0    0    0  501 -0.00000000000E+00 -0.00000000000E+00 -0.15538129036E+02  0.15538129245E+02  0.25500000000E-02 0.  1.
        -24    2    1    2    0    0  0.00000000000E+00 -0.71054273576E-14  0.84054512745E+02  0.11513077115E+03  0.78676129503E+02 0.  0.
         66    2    3    3    0    0  0.83080303130E+00 -0.33525841799E+02  0.12035807802E+02  0.35686593722E+02  0.20000000184E+01 0.  0.
         13    1    3    3    0    0 -0.83080303130E+00  0.33525841799E+02  0.72018704944E+02  0.79444177432E+02  0.10566000000E+00 0. -1.
         13    1    4    4    0    0  0.11254128245E+00 -0.86251903483E+01  0.25023112098E+01  0.89821656359E+01  0.10566000000E+00 0. -1.
        -13    1    4    4    0    0  0.36131786541E+00 -0.20242696466E+02  0.72553973715E+01  0.21506958546E+02  0.10566000000E+00 0.  1.
         14    1    4    4    0    0  0.35694388344E+00 -0.46579549838E+01  0.22780992204E+01  0.51974695406E+01  0.00000000000E+00 0. -1.
<mgrwt>
<rscale>  0 0.78676130E+02</rscale>
<asrwt>0</asrwt>
<pdfrwt beam="1">  1        1 0.15321944E-01 0.78676130E+02</pdfrwt>
<pdfrwt beam="2">  1       -2 0.23904815E-02 0.78676130E+02</pdfrwt>
<totfact> 0.15365977E+05</totfact>
</mgrwt>
</event>
<event>
 8    1  0.8577104E-018  0.8038472E+02  0.7818608E-02  0.1327963E+00
         -2   -1    0    0    0  501 -0.00000000000E+00  0.00000000000E+00  0.43763244560E+01  0.43763251989E+01  0.25500000000E-02 0.  1.
          1   -1    0    0  501    0  0.00000000000E+00 -0.00000000000E+00 -0.36912842409E+03  0.36912842412E+03  0.50400000000E-02 0. -1.
        -24    2    1    2    0    0  0.00000000000E+00  0.00000000000E+00 -0.36475209963E+03  0.37350474932E+03  0.80384722303E+02 0.  0.
         66    2    3    3    0    0 -0.17501734635E+02 -0.35940943943E+02 -0.20069824416E+03  0.20465054942E+03  0.20000000716E+01 0.  0.
         13    1    3    3    0    0  0.17501734635E+02  0.35940943943E+02 -0.16405385547E+03  0.16885419991E+03  0.10566000000E+00 0. -1.
         13    1    4    4    0    0 -0.49456432177E+01 -0.92361753264E+01 -0.49473074445E+02  0.50570372557E+02  0.10566000000E+00 0. -1.
        -13    1    4    4    0    0 -0.14948822740E+01 -0.35412420736E+01 -0.18430128099E+02  0.18826998014E+02  0.10566000000E+00 0.  1.
         14    1    4    4    0    0 -0.11061209143E+02 -0.23163526543E+02 -0.13279504162E+03  0.13525317884E+03  0.00000000000E+00 0. -1.
<mgrwt>
<rscale>  0 0.80384722E+02</rscale>
<asrwt>0</asrwt>
<pdfrwt beam="1">  1        1 0.56788964E-01 0.80384722E+02</pdfrwt>
<pdfrwt beam="2">  1       -2 0.67328104E-03 0.80384722E+02</pdfrwt>
<totfact> 0.18502620E+05</totfact>
</mgrwt>
</event>
<event>
 8    1  0.8577104E-018  0.8209296E+02  0.7818608E-02  0.1323215E+00
         -2   -1    0    0    0  501 -0.00000000000E+00  0.00000000000E+00  0.14684499245E+03  0.14684499247E+03  0.25500000000E-02 0.  1.
          1   -1    0    0  501    0  0.00000000000E+00 -0.00000000000E+00 -0.11473415019E+02  0.11473416126E+02  0.50400000000E-02 0. -1.
        -24    2    1    2    0    0  0.00000000000E+00  0.17763568394E-14  0.13537157743E+03  0.15831840860E+03  0.82092962700E+02 0.  0.
         66    2    3    3    0    0  0.85925053644E+01 -0.13628360900E+02  0.14048127211E+03  0.14141623379E+03  0.19999992354E+01 0.  0.
         13    1    3    3    0    0 -0.85925053644E+01  0.13628360900E+02 -0.51096946833E+01  0.16902174802E+02  0.10566000000E+00 0. -1.
         13    1    4    4    0    0  0.62551956877E+01 -0.10173797538E+02  0.10318732973E+03  0.10387622351E+03  0.10566000000E+00 0. -1.
        -13    1    4    4    0    0  0.22250803655E+01 -0.26496780618E+01  0.28804451819E+02  0.29011711171E+02  0.10566000000E+00 0.  1.
         14    1    4    4    0    0  0.11222931123E+00 -0.80488530052E+00  0.84894905637E+01  0.85282991151E+01  0.00000000000E+00 0. -1.
<mgrwt>
<rscale>  0 0.82092963E+02</rscale>
<asrwt>0</asrwt>
<pdfrwt beam="1">  1        1 0.17651408E-02 0.82092963E+02</pdfrwt>
<pdfrwt beam="2">  1       -2 0.22591538E-01 0.82092963E+02</pdfrwt>
<totfact> 0.89045418E+04</totfact>
</mgrwt>
</event>
<event>
 8    1  0.8577104E-018  0.7984151E+02  0.7818608E-02  0.1329502E+00
         -2   -1    0    0    0  501 -0.00000000000E+00  0.00000000000E+00  0.12206835718E+02  0.12206835984E+02  0.25500000000E-02 0.  1.
          1   -1    0    0  501    0  0.00000000000E+00 -0.00000000000E+00 -0.13055524864E+03  0.13055524873E+03  0.50400000000E-02 0. -1.
        -24    2    1    2    0    0 -0.35527136788E-14  0.00000000000E+00 -0.11834841292E+03  0.14276208472E+03  0.79841505450E+02 0.  0.
         66    2    3    3    0    0  0.20856088208E+02 -0.33801643076E+02 -0.52488939783E+02  0.65852989965E+02  0.19999994410E+01 0.  0.
         13    1    3    3    0    0 -0.20856088208E+02  0.33801643076E+02 -0.65859473136E+02  0.76909094754E+02  0.10566000000E+00 0. -1.
         13    1    4    4    0    0  0.11076685868E+02 -0.17348416910E+02 -0.26469185708E+02  0.33530426409E+02  0.10566000000E+00 0.  1.
        -13    1    4    4    0    0  0.80229759484E+00 -0.98716811500E+00 -0.14134601421E+01  0.19045251185E+01  0.10566000000E+00 0. -1.
         14    1    4    4    0    0  0.89771047449E+01 -0.15466058052E+02 -0.24606293933E+02  0.30418038437E+02  0.00000000000E+00 0. -1.
<mgrwt>
<rscale>  0 0.79841505E+02</rscale>
<asrwt>0</asrwt>
<pdfrwt beam="1">  1        1 0.20085422E-01 0.79841505E+02</pdfrwt>
<pdfrwt beam="2">  1       -2 0.18779748E-02 0.79841505E+02</pdfrwt>
<totfact> 0.15476893E+05</totfact>
</mgrwt>
</event>
<event>
 8    1  0.8577104E-018  0.7963232E+02  0.7818608E-02  0.1330098E+00
         -2   -1    0    0    0  501 -0.00000000000E+00  0.00000000000E+00  0.53495309316E+02  0.53495309377E+02  0.25500000000E-02 0.  1.
          1   -1    0    0  501    0  0.00000000000E+00 -0.00000000000E+00 -0.29634874361E+02  0.29634874790E+02  0.50400000000E-02 0. -1.
        -24    2    1    2    0    0  0.00000000000E+00  0.35527136788E-14  0.23860434955E+02  0.83130184167E+02  0.79632324865E+02 0.  0.
         66    2    3    3    0    0  0.14616794991E+02  0.28270917757E+02  0.36870411834E+02  0.48747541030E+02  0.20000002551E+01 0.  0.
         13    1    3    3    0    0 -0.14616794991E+02 -0.28270917757E+02 -0.13009976879E+02  0.34382643137E+02  0.10566000000E+00 0. -1.
         13    1    4    4    0    0  0.10025012194E+00  0.56914686563E+00  0.63429774736E+00  0.86456689129E+00  0.10566000000E+00 0.  1.
        -13    1    4    4    0    0  0.80503719905E+01  0.14951474112E+02  0.18757381533E+02  0.25302284350E+02  0.10566000000E+00 0.  1.
         14    1    4    4    0    0  0.64661728782E+01  0.12750296779E+02  0.17478732553E+02  0.22580689789E+02  0.00000000000E+00 0. -1.
<mgrwt>
<rscale>  0 0.79632325E+02</rscale>
<asrwt>0</asrwt>
<pdfrwt beam="1">  1        1 0.45592115E-02 0.79632325E+02</pdfrwt>
<pdfrwt beam="2">  1       -2 0.82300476E-02 0.79632325E+02</pdfrwt>
<totfact> 0.12229465E+05</totfact>
</mgrwt>
</event>
<event>
 8    1  0.8577104E-018  0.7729691E+02  0.7818608E-02  0.1336902E+00
         -2   -1    0    0    0  501 -0.00000000000E+00  0.00000000000E+00  0.23520698144E+03  0.23520698146E+03  0.25500000000E-02 0.  1.
          1   -1    0    0  501    0  0.00000000000E+00 -0.00000000000E+00 -0.63505893310E+01  0.63505913310E+01  0.50400000000E-02 0. -1.
        -24    2    1    2    0    0  0.00000000000E+00  0.00000000000E+00  0.22885639211E+03  0.24155757279E+03  0.77296913008E+02 0.  0.
         66    2    3    3    0    0 -0.42261031044E+01 -0.32027073035E+02  0.18065740915E+03  0.18353390109E+03  0.20000034760E+01 0.  0.
         13    1    3    3    0    0  0.42261031044E+01  0.32027073035E+02  0.48198982961E+02  0.58023671697E+02  0.10566000000E+00 0. -1.
         13    1    4    4    0    0 -0.81398743080E+00 -0.35017332828E+01  0.22246988888E+02  0.22535846781E+02  0.10566000000E+00 0. -1.
        -13    1    4    4    0    0 -0.14903524404E+01 -0.15860823281E+02  0.89758884608E+02  0.91161699170E+02  0.10566000000E+00 0.  1.
         14    1    4    4    0    0 -0.19217632332E+01 -0.12664516471E+02  0.68651535654E+02  0.69836355139E+02  0.00000000000E+00 0. -1.
<mgrwt>
<rscale>  0 0.77296913E+02</rscale>
<asrwt>0</asrwt>
<pdfrwt beam="1">  1        1 0.97701384E-03 0.77296913E+02</pdfrwt>
<pdfrwt beam="2">  1       -2 0.36185692E-01 0.77296913E+02</pdfrwt>
<totfact> 0.86694577E+04</totfact>
</mgrwt>
</event>
<event>
 8    1  0.8577104E-018  0.7939201E+02  0.7818608E-02  0.1330786E+00
         -2   -1    0    0    0  501 -0.00000000000E+00  0.00000000000E+00  0.31254367209E+02  0.31254367313E+02  0.25500000000E-02 0.  1.
          1   -1    0    0  501    0  0.00000000000E+00 -0.00000000000E+00 -0.50417687803E+02  0.50417688055E+02  0.50400000000E-02 0. -1.
        -24    2    1    2    0    0  0.00000000000E+00  0.00000000000E+00 -0.19163320594E+02  0.81672055368E+02  0.79392013275E+02 0.  0.
         66    2    3    3    0    0  0.17803183327E+02  0.90563985929E+01  0.25671922582E+02  0.32588637733E+02  0.20000020336E+01 0.  0.
         13    1    3    3    0    0 -0.17803183327E+02 -0.90563985929E+01 -0.44835243176E+02  0.49083417635E+02  0.10566000000E+00 0. -1.
         13    1    4    4    0    0  0.11213625605E+01  0.98197404707E+00  0.18155307279E+01  0.23513916902E+01  0.10566000000E+00 0. -1.
        -13    1    4    4    0    0  0.12260883612E+02  0.59059790770E+01  0.16562775587E+02  0.21437036992E+02  0.10566000000E+00 0.  1.
        -14    1    4    4    0    0  0.44209371545E+01  0.21684454689E+01  0.72936162677E+01  0.88002090507E+01  0.00000000000E+00 0.  1.
<mgrwt>
<rscale>  0 0.79392013E+02</rscale>
<asrwt>0</asrwt>
<pdfrwt beam="1">  1        1 0.77565674E-02 0.79392013E+02</pdfrwt>
<pdfrwt beam="2">  1       -2 0.48083642E-02 0.79392013E+02</pdfrwt>
<totfact> 0.13456577E+05</totfact>
</mgrwt>
</event>
<event>
 8    1  0.8577104E-018  0.7967646E+02  0.7818608E-02  0.1329972E+00
         -2   -1    0    0    0  501 -0.00000000000E+00  0.00000000000E+00  0.97185787869E+02  0.97185787902E+02  0.25500000000E-02 0.  1.
          1   -1    0    0  501    0  0.00000000000E+00 -0.00000000000E+00 -0.16330419047E+02  0.16330419825E+02  0.50400000000E-02 0. -1.
        -24    2    1    2    0    0  0.00000000000E+00  0.35527136788E-14  0.80855368821E+02  0.11351620773E+03  0.79676462958E+02 0.  0.
         66    2    3    3    0    0  0.29929335561E+02 -0.26041731635E+02  0.35697266720E+02  0.53406289551E+02  0.19999996733E+01 0.  0.
         13    1    3    3    0    0 -0.29929335561E+02  0.26041731635E+02  0.45158102101E+02  0.60109918175E+02  0.10566000000E+00 0. -1.
         13    1    4    4    0    0  0.54296824733E+01 -0.39042667339E+01  0.55734254529E+01  0.87062612989E+01  0.10566000000E+00 0. -1.
        -13    1    4    4    0    0  0.14619878153E+02 -0.13216445826E+02  0.17599052188E+02  0.26422586539E+02  0.10566000000E+00 0.  1.
         14    1    4    4    0    0  0.98797749351E+01 -0.89210190748E+01  0.12524789079E+02  0.18277441713E+02  0.00000000000E+00 0. -1.
<mgrwt>
<rscale>  0 0.79676463E+02</rscale>
<asrwt>0</asrwt>
<pdfrwt beam="1">  1        1 0.25123722E-02 0.79676463E+02</pdfrwt>
<pdfrwt beam="2">  1       -2 0.14951660E-01 0.79676463E+02</pdfrwt>
<totfact> 0.10798952E+05</totfact>
</mgrwt>
</event>
<event>
 8    1  0.8577104E-018  0.7923713E+02  0.7818608E-02  0.1331230E+00
          1   -1    0    0  501    0  0.00000000000E+00  0.00000000000E+00  0.11160388781E+03  0.11160388792E+03  0.50400000000E-02 0. -1.
         -2   -1    0    0    0  501 -0.00000000000E+00 -0.00000000000E+00 -0.14064301246E+02  0.14064301478E+02  0.25500000000E-02 0.  1.
        -24    2    1    2    0    0  0.00000000000E+00 -0.88817841970E-15  0.97539586561E+02  0.12566818940E+03  0.79237130692E+02 0.  0.
         66    2    3    3    0    0  0.34455776835E+02  0.75010803994E+01  0.20246205017E+02  0.40710878007E+02  0.20000015044E+01 0.  0.
         13    1    3    3    0    0 -0.34455776835E+02 -0.75010803994E+01  0.77293381544E+02  0.84957311392E+02  0.10566000000E+00 0. -1.
         13    1    4    4    0    0  0.13961035805E+02  0.37776657410E+01  0.80978401347E+01  0.16576111066E+02  0.10566000000E+00 0. -1.
        -13    1    4    4    0    0  0.20387538829E+02  0.36848614673E+01  0.12155239081E+02  0.24020635810E+02  0.10566000000E+00 0.  1.
         14    1    4    4    0    0  0.10720220108E+00  0.38553191034E-01 -0.68741986182E-02  0.11413113100E+00  0.00000000000E+00 0. -1.
<mgrwt>
<rscale>  0 0.79237131E+02</rscale>
<asrwt>0</asrwt>
<pdfrwt beam="1">  1        1 0.17169829E-01 0.79237131E+02</pdfrwt>
<pdfrwt beam="2">  1       -2 0.21637386E-02 0.79237131E+02</pdfrwt>
<totfact> 0.15367736E+05</totfact>
</mgrwt>
</event>
<event>
 8    1  0.8577104E-018  0.7986124E+02  0.7818608E-02  0.1329446E+00
         -2   -1    0    0    0  501 -0.00000000000E+00  0.00000000000E+00  0.17179907644E+02  0.17179907834E+02  0.25500000000E-02 0.  1.
          1   -1    0    0  501    0  0.00000000000E+00 -0.00000000000E+00 -0.92809261024E+02  0.92809261161E+02  0.50400000000E-02 0. -1.
        -24    2    1    2    0    0  0.00000000000E+00  0.44408920985E-15 -0.75629353380E+02  0.10998916899E+03  0.79861243438E+02 0.  0.
         66    2    3    3    0    0 -0.35523025419E+02  0.32524731694E+01 -0.13201820653E+02  0.38088738377E+02  0.20000014921E+01 0.  0.
         13    1    3    3    0    0  0.35523025419E+02 -0.32524731694E+01 -0.62427532727E+02  0.71900430618E+02  0.10566000000E+00 0. -1.
         13    1    4    4    0    0 -0.31556492215E+01  0.97719170319E-01 -0.96886407708E+00  0.33041689849E+01  0.10566000000E+00 0. -1.
        -13    1    4    4    0    0 -0.30443363074E+02  0.32938346961E+01 -0.11277689306E+02  0.32631965040E+02  0.10566000000E+00 0.  1.
         14    1    4    4    0    0 -0.19240131227E+01 -0.13908069701E+00 -0.95526726941E+00  0.21526043512E+01  0.00000000000E+00 0. -1.
<mgrwt>
<rscale>  0 0.79861243E+02</rscale>
<asrwt>0</asrwt>
<pdfrwt beam="1">  1        1 0.14278348E-01 0.79861243E+02</pdfrwt>
<pdfrwt beam="2">  1       -2 0.26430628E-02 0.79861243E+02</pdfrwt>
<totfact> 0.14585636E+05</totfact>
</mgrwt>
</event>
<event>
 8    1  0.8577104E-018  0.7952705E+02  0.7818608E-02  0.1330399E+00
          1   -1    0    0  501    0  0.00000000000E+00  0.00000000000E+00  0.89974330087E+02  0.89974330228E+02  0.50400000000E-02 0. -1.
         -2   -1    0    0    0  501 -0.00000000000E+00 -0.00000000000E+00 -0.17573210967E+02  0.17573211152E+02  0.25500000000E-02 0.  1.
        -24    2    1    2    0    0  0.35527136788E-14 -0.35527136788E-14  0.72401119119E+02  0.10754754138E+03  0.79527049531E+02 0.  0.
         66    2    3    3    0    0 -0.16969254219E+02  0.31796908521E+02  0.13589016191E+02  0.38570200208E+02  0.20000006935E+01 0.  0.
         13    1    3    3    0    0  0.16969254219E+02 -0.31796908521E+02  0.58812102929E+02  0.68977341172E+02  0.10566000000E+00 0. -1.
         13    1    4    4    0    0 -0.69098010685E+01  0.12086701857E+02  0.47165801248E+01  0.14700034173E+02  0.10566000000E+00 0. -1.
        -13    1    4    4    0    0 -0.77097556022E+01  0.14030689647E+02  0.62109441364E+01  0.17172290893E+02  0.10566000000E+00 0.  1.
         14    1    4    4    0    0 -0.23496975483E+01  0.56795170180E+01  0.26614919297E+01  0.66978751420E+01  0.00000000000E+00 0. -1.
<mgrwt>
<rscale>  0 0.79527050E+02</rscale>
<asrwt>0</asrwt>
<pdfrwt beam="1">  1        1 0.13842204E-01 0.79527050E+02</pdfrwt>
<pdfrwt beam="2">  1       -2 0.27035710E-02 0.79527050E+02</pdfrwt>
<totfact> 0.14677090E+05</totfact>
</mgrwt>
</event>
<event>
 8    1  0.8577104E-018  0.7929077E+02  0.7818608E-02  0.1331076E+00
         -2   -1    0    0    0  501 -0.00000000000E+00  0.00000000000E+00  0.17754720959E+02  0.17754721142E+02  0.25500000000E-02 0.  1.
          1   -1    0    0  501    0  0.00000000000E+00 -0.00000000000E+00 -0.88526124483E+02  0.88526124626E+02  0.50400000000E-02 0. -1.
        -24    2    1    2    0    0  0.35527136788E-14  0.00000000000E+00 -0.70771403524E+02  0.10628084577E+03  0.79290772606E+02 0.  0.
         66    2    3    3    0    0  0.21173676114E+02 -0.70500617798E+01  0.84725715390E+01  0.23954381742E+02  0.20000012143E+01 0.  0.
         13    1    3    3    0    0 -0.21173676114E+02  0.70500617798E+01 -0.79243975063E+02  0.82326464026E+02  0.10566000000E+00 0. -1.
         13    1    4    4    0    0  0.47524660431E+00 -0.21053789316E+00  0.35457076765E+00  0.63802037917E+00  0.10566000000E+00 0. -1.
        -13    1    4    4    0    0  0.68608407118E+01 -0.24999598756E+01  0.34880379844E+01  0.80931148310E+01  0.10566000000E+00 0. -1.
        -14    1    4    4    0    0  0.13837588798E+02 -0.43395640111E+01  0.46299627869E+01  0.15223246531E+02  0.00000000000E+00 0.  1.
<mgrwt>
<rscale>  0 0.79290773E+02</rscale>
<asrwt>0</asrwt>
<pdfrwt beam="1">  1        1 0.13619404E-01 0.79290773E+02</pdfrwt>
<pdfrwt beam="2">  1       -2 0.27314956E-02 0.79290773E+02</pdfrwt>
<totfact> 0.14756683E+05</totfact>
</mgrwt>
</event>
<event>
 8    1  0.8577104E-018  0.8081227E+02  0.7818608E-02  0.1326762E+00
          1   -1    0    0  501    0  0.00000000000E+00  0.00000000000E+00  0.19068845939E+02  0.19068846605E+02  0.50400000000E-02 0. -1.
         -2   -1    0    0    0  501 -0.00000000000E+00 -0.00000000000E+00 -0.85619015267E+02  0.85619015305E+02  0.25500000000E-02 0.  1.
        -24    2    1    2    0    0  0.00000000000E+00 -0.35527136788E-14 -0.66550169328E+02  0.10468786191E+03  0.80812272544E+02 0.  0.
         66    2    3    3    0    0  0.10548348609E+02 -0.24662135702E+02 -0.72399020885E+02  0.77234103983E+02  0.19999992852E+01 0.  0.
         13    1    3    3    0    0 -0.10548348609E+02  0.24662135702E+02  0.58488515568E+01  0.27453757928E+02  0.10566000000E+00 0. -1.
         13    1    4    4    0    0  0.58821102824E+00 -0.17562532425E+01 -0.62447375200E+01  0.65144706919E+01  0.10566000000E+00 0. -1.
        -13    1    4    4    0    0  0.21632944324E+01 -0.60037378167E+01 -0.16580242173E+02  0.17766268745E+02  0.10566000000E+00 0.  1.
        -14    1    4    4    0    0  0.77968431487E+01 -0.16902144643E+02 -0.49574041192E+02  0.52953364546E+02  0.00000000000E+00 0.  1.
<mgrwt>
<rscale>  0 0.80812273E+02</rscale>
<asrwt>0</asrwt>
<pdfrwt beam="1">  1        1 0.29336687E-02 0.80812273E+02</pdfrwt>
<pdfrwt beam="2">  1       -2 0.13172156E-01 0.80812273E+02</pdfrwt>
<totfact> 0.10729687E+05</totfact>
</mgrwt>
</event>
<event>
 8    1  0.8577104E-018  0.7907378E+02  0.7818608E-02  0.1331701E+00
         -2   -1    0    0    0  501 -0.00000000000E+00  0.00000000000E+00  0.52314934931E+03  0.52314934932E+03  0.25500000000E-02 0.  1.
          1   -1    0    0  501    0  0.00000000000E+00 -0.00000000000E+00 -0.29879891907E+01  0.29879934413E+01  0.50400000000E-02 0. -1.
        -24    2    1    2    0    0  0.00000000000E+00  0.00000000000E+00  0.52016136012E+03  0.52613734276E+03  0.79073781260E+02 0.  0.
         66    2    3    3    0    0  0.14882730053E+02 -0.33116156462E+02  0.36396519065E+03  0.36577702973E+03  0.20000005320E+01 0.  0.
         13    1    3    3    0    0 -0.14882730053E+02  0.33116156462E+02  0.15619616947E+03  0.16036031302E+03  0.10566000000E+00 0. -1.
         13    1    4    4    0    0  0.38091751637E+01 -0.82555444695E+01  0.95399994958E+02  0.95832322480E+02  0.10566000000E+00 0.  1.
        -13    1    4    4    0    0  0.24668313649E+01 -0.48066826562E+01  0.58466638513E+02  0.58715827833E+02  0.10566000000E+00 0. -1.
         14    1    4    4    0    0  0.86067235244E+01 -0.20053929337E+02  0.21009855718E+03  0.21122887942E+03  0.00000000000E+00 0. -1.
<mgrwt>
<rscale>  0 0.79073781E+02</rscale>
<asrwt>0</asrwt>
<pdfrwt beam="1">  1        1 0.45969111E-03 0.79073781E+02</pdfrwt>
<pdfrwt beam="2">  1       -2 0.80484492E-01 0.79073781E+02</pdfrwt>
<totfact> 0.50129349E+04</totfact>
</mgrwt>
</event>
<event>
 8    1  0.8577104E-018  0.7809051E+02  0.7818608E-02  0.1334559E+00
          1   -1    0    0  501    0  0.00000000000E+00  0.00000000000E+00  0.19340691789E+03  0.19340691795E+03  0.50400000000E-02 0. -1.
         -2   -1    0    0    0  501 -0.00000000000E+00 -0.00000000000E+00 -0.78825096756E+01  0.78825100880E+01  0.25500000000E-02 0.  1.
        -24    2    1    2    0    0 -0.35527136788E-14  0.35527136788E-14  0.18552440821E+03  0.20128942804E+03  0.78090510299E+02 0.  0.
         66    2    3    3    0    0 -0.28404891150E+02  0.26296836439E+02  0.80151579572E+02  0.89031663821E+02  0.20000017495E+01 0.  0.
         13    1    3    3    0    0  0.28404891150E+02 -0.26296836439E+02  0.10537282864E+03  0.11225776422E+03  0.10566000000E+00 0. -1.
         13    1    4    4    0    0 -0.20246177601E+01  0.20534135065E+01  0.55660041211E+01  0.62695414517E+01  0.10566000000E+00 0. -1.
        -13    1    4    4    0    0 -0.16845352484E+02  0.15978556150E+02  0.49972596137E+02  0.55103100509E+02  0.10566000000E+00 0.  1.
        -14    1    4    4    0    0 -0.95349209057E+01  0.82648667823E+01  0.24612979314E+02  0.27659021861E+02  0.00000000000E+00 0.  1.
<mgrwt>
<rscale>  0 0.78090510E+02</rscale>
<asrwt>0</asrwt>
<pdfrwt beam="1">  1        1 0.29754908E-01 0.78090510E+02</pdfrwt>
<pdfrwt beam="2">  1       -2 0.12126939E-02 0.78090510E+02</pdfrwt>
<totfact> 0.17662572E+05</totfact>
</mgrwt>
</event>
<event>
 8    1  0.8577104E-018  0.8084189E+02  0.7818608E-02  0.1326679E+00
          1   -1    0    0  501    0  0.00000000000E+00  0.00000000000E+00  0.15017146710E+02  0.15017147556E+02  0.50400000000E-02 0. -1.
         -2   -1    0    0    0  501 -0.00000000000E+00 -0.00000000000E+00 -0.10879915942E+03  0.10879915945E+03  0.25500000000E-02 0.  1.
        -24    2    1    2    0    0 -0.71054273576E-14  0.00000000000E+00 -0.93782012707E+02  0.12381630700E+03  0.80841894909E+02 0.  0.
         66    2    3    3    0    0  0.36375425619E+02 -0.11966693603E+02 -0.66621481474E+02  0.76868687621E+02  0.19999994979E+01 0.  0.
         13    1    3    3    0    0 -0.36375425619E+02  0.11966693603E+02 -0.27160531234E+02  0.46947619383E+02  0.10566000000E+00 0. -1.
         13    1    4    4    0    0  0.65430862806E+01 -0.16745107675E+01 -0.11793742864E+02  0.13591155181E+02  0.10566000000E+00 0. -1.
        -13    1    4    4    0    0  0.22083692344E+02 -0.72164955850E+01 -0.39322270433E+02  0.45672961281E+02  0.10566000000E+00 0.  1.
         14    1    4    4    0    0  0.77486469947E+01 -0.30756872508E+01 -0.15505468176E+02  0.17604571159E+02  0.00000000000E+00 0. -1.
<mgrwt>
<rscale>  0 0.80841895E+02</rscale>
<asrwt>0</asrwt>
<pdfrwt beam="1">  1        1 0.23103304E-02 0.80841895E+02</pdfrwt>
<pdfrwt beam="2">  1       -2 0.16738332E-01 0.80841895E+02</pdfrwt>
<totfact> 0.10111749E+05</totfact>
</mgrwt>
</event>
<event>
 8    1  0.8577104E-018  0.7913538E+02  0.7818608E-02  0.1331523E+00
         -2   -1    0    0    0  501 -0.00000000000E+00  0.00000000000E+00  0.16737688643E+02  0.16737688838E+02  0.25500000000E-02 0.  1.
          1   -1    0    0  501    0  0.00000000000E+00 -0.00000000000E+00 -0.93537536053E+02  0.93537536189E+02  0.50400000000E-02 0. -1.
        -24    2    1    2    0    0 -0.88817841970E-15 -0.35527136788E-14 -0.76799847410E+02  0.11027522503E+03  0.79135382052E+02 0.  0.
         66    2    3    3    0    0  0.49708598720E+01  0.17686283502E+02  0.10369706193E+02  0.21190679165E+02  0.20000012401E+01 0.  0.
         13    1    3    3    0    0 -0.49708598720E+01 -0.17686283502E+02 -0.87169553603E+02  0.89084545862E+02  0.10566000000E+00 0. -1.
         13    1    4    4    0    0  0.10794069573E+01  0.59805456154E+01  0.37204874474E+01  0.71263760860E+01  0.10566000000E+00 0. -1.
        -13    1    4    4    0    0  0.95052948548E+00  0.27421410675E+01  0.21452562401E+01  0.36105584483E+01  0.10566000000E+00 0.  1.
        -14    1    4    4    0    0  0.29409234292E+01  0.89635968193E+01  0.45039625055E+01  0.10453744631E+02  0.00000000000E+00 0.  1.
<mgrwt>
<rscale>  0 0.79135382E+02</rscale>
<asrwt>0</asrwt>
<pdfrwt beam="1">  1        1 0.14390390E-01 0.79135382E+02</pdfrwt>
<pdfrwt beam="2">  1       -2 0.25750291E-02 0.79135382E+02</pdfrwt>
<totfact> 0.14969884E+05</totfact>
</mgrwt>
</event>
<event>
 8    1  0.8577104E-018  0.8056547E+02  0.7818608E-02  0.1327454E+00
         -2   -1    0    0    0  501 -0.00000000000E+00  0.00000000000E+00  0.20633922502E+02  0.20633922660E+02  0.25500000000E-02 0.  1.
          1   -1    0    0  501    0  0.00000000000E+00 -0.00000000000E+00 -0.78642283282E+02  0.78642283443E+02  0.50400000000E-02 0. -1.
        -24    2    1    2    0    0  0.00000000000E+00  0.88817841970E-15 -0.58008360780E+02  0.99276206103E+02  0.80565471375E+02 0.  0.
         66    2    3    3    0    0 -0.31603177993E+02 -0.54702778330E+01  0.95998065312E+00  0.32149748918E+02  0.19999984572E+01 0.  0.
         13    1    3    3    0    0  0.31603177993E+02  0.54702778330E+01 -0.58968341433E+02  0.67126457185E+02  0.10566000000E+00 0. -1.
         13    1    4    4    0    0 -0.54315425603E+01 -0.42794731941E+00  0.48820098629E+00  0.54712245184E+01  0.10566000000E+00 0. -1.
        -13    1    4    4    0    0 -0.11898384404E+02 -0.21448633684E+01  0.71990749776E+00  0.12112036209E+02  0.10566000000E+00 0.  1.
         14    1    4    4    0    0 -0.14273251028E+02 -0.28974671451E+01 -0.24812783093E+00  0.14566488190E+02  0.00000000000E+00 0. -1.
<mgrwt>
<rscale>  0 0.80565471E+02</rscale>
<asrwt>0</asrwt>
<pdfrwt beam="1">  1        1 0.12098813E-01 0.80565471E+02</pdfrwt>
<pdfrwt beam="2">  1       -2 0.31744497E-02 0.80565471E+02</pdfrwt>
<totfact> 0.13861605E+05</totfact>
</mgrwt>
</event>
<event>
 8    1  0.8577104E-018  0.7982409E+02  0.7818608E-02  0.1329551E+00
          1   -1    0    0  501    0  0.00000000000E+00  0.00000000000E+00  0.18698965480E+02  0.18698966159E+02  0.50400000000E-02 0. -1.
         -2   -1    0    0    0  501 -0.00000000000E+00 -0.00000000000E+00 -0.85190340980E+02  0.85190341018E+02  0.25500000000E-02 0.  1.
        -24    2    1    2    0    0  0.00000000000E+00  0.00000000000E+00 -0.66491375500E+02  0.10388930718E+03  0.79824088657E+02 0.  0.
         66    2    3    3    0    0  0.14723997330E+02  0.36995593301E+02 -0.30215290062E+02  0.50024331917E+02  0.20000022784E+01 0.  0.
         13    1    3    3    0    0 -0.14723997330E+02 -0.36995593301E+02 -0.36276085438E+02  0.53864975260E+02  0.10566000000E+00 0. -1.
         13    1    4    4    0    0  0.76738805644E+01  0.17277146424E+02 -0.14004353971E+02  0.23527033933E+02  0.10566000000E+00 0. -1.
        -13    1    4    4    0    0  0.57723033655E+01  0.15361909810E+02 -0.12378331459E+02  0.20555826738E+02  0.10566000000E+00 0.  1.
         14    1    4    4    0    0  0.12778134002E+01  0.43565370668E+01 -0.38326046318E+01  0.59414712457E+01  0.00000000000E+00 0. -1.
<mgrwt>
<rscale>  0 0.79824089E+02</rscale>
<asrwt>0</asrwt>
<pdfrwt beam="1">  1        1 0.28767640E-02 0.79824089E+02</pdfrwt>
<pdfrwt beam="2">  1       -2 0.13106206E-01 0.79824089E+02</pdfrwt>
<totfact> 0.11084476E+05</totfact>
</mgrwt>
</event>
<event>
 8    1  0.8577104E-018  0.7699406E+02  0.7818608E-02  0.1337805E+00
         -2   -1    0    0    0  501 -0.00000000000E+00  0.00000000000E+00  0.74862433627E+02  0.74862433671E+02  0.25500000000E-02 0.  1.
          1   -1    0    0  501    0  0.00000000000E+00 -0.00000000000E+00 -0.19796597345E+02  0.19796597986E+02  0.50400000000E-02 0. -1.
        -24    2    1    2    0    0  0.35527136788E-14  0.71054273576E-14  0.55065836283E+02  0.94659031657E+02  0.76994064373E+02 0.  0.
         66    2    3    3    0    0  0.19966024446E+02  0.32812216122E+02  0.24876778804E+02  0.45805433893E+02  0.19999978612E+01 0.  0.
         13    1    3    3    0    0 -0.19966024446E+02 -0.32812216122E+02  0.30189057478E+02  0.48853597764E+02  0.10566000000E+00 0. -1.
         13    1    4    4    0    0  0.41407019015E+01  0.71084521403E+01  0.59046642292E+01  0.10126782696E+02  0.10566000000E+00 0. -1.
        -13    1    4    4    0    0  0.15445429703E+02  0.24853181930E+02  0.18131564125E+02  0.34423926743E+02  0.10566000000E+00 0.  1.
         14    1    4    4    0    0  0.37989284132E+00  0.85058205188E+00  0.84055044973E+00  0.12547244544E+01  0.00000000000E+00 0. -1.
<mgrwt>
<rscale>  0 0.76994064E+02</rscale>
<asrwt>0</asrwt>
<pdfrwt beam="1">  1        1 0.30456303E-02 0.76994064E+02</pdfrwt>
<pdfrwt beam="2">  1       -2 0.11517298E-01 0.76994064E+02</pdfrwt>
<totfact> 0.12493884E+05</totfact>
</mgrwt>
</event>
<event>
 8    1  0.8577104E-018  0.8047288E+02  0.7818608E-02  0.1327715E+00
         -2   -1    0    0    0  501 -0.00000000000E+00  0.00000000000E+00  0.30577914770E+03  0.30577914771E+03  0.25500000000E-02 0.  1.
          1   -1    0    0  501    0  0.00000000000E+00 -0.00000000000E+00 -0.52945755227E+01  0.52945779215E+01  0.50400000000E-02 0. -1.
        -24    2    1    2    0    0  0.35527136788E-14 -0.22204460493E-15  0.30048457218E+03  0.31107372564E+03  0.80472881532E+02 0.  0.
         66    2    3    3    0    0  0.25472442384E+02 -0.13478659230E+01  0.27049780952E+03  0.27170522093E+03  0.20000160256E+01 0.  0.
         13    1    3    3    0    0 -0.25472442384E+02  0.13478659230E+01  0.29986762663E+02  0.39368504704E+02  0.10566000000E+00 0. -1.
         13    1    4    4    0    0  0.19794766191E+01 -0.42024018511E+00  0.20280304984E+02  0.20381287098E+02  0.10566000000E+00 0. -1.
        -13    1    4    4    0    0  0.87685692999E+01  0.79346651913E-01  0.99303430340E+02  0.99689901920E+02  0.10566000000E+00 0.  1.
        -14    1    4    4    0    0  0.14724396465E+02 -0.10069723898E+01  0.15091407419E+03  0.15163403191E+03  0.00000000000E+00 0.  1.
<mgrwt>
<rscale>  0 0.80472882E+02</rscale>
<asrwt>0</asrwt>
<pdfrwt beam="1">  1        1 0.81455015E-03 0.80472882E+02</pdfrwt>
<pdfrwt beam="2">  1       -2 0.47042953E-01 0.80472882E+02</pdfrwt>
<totfact> 0.68488268E+04</totfact>
</mgrwt>
</event>
<event>
 8    1  0.8577104E-018  0.8014295E+02  0.7818608E-02  0.1328646E+00
          1   -1    0    0  501    0  0.00000000000E+00  0.00000000000E+00  0.76160337573E+01  0.76160354249E+01  0.50400000000E-02 0. -1.
         -2   -1    0    0    0  501 -0.00000000000E+00 -0.00000000000E+00 -0.21083454841E+03  0.21083454843E+03  0.25500000000E-02 0.  1.
        -24    2    1    2    0    0  0.00000000000E+00  0.00000000000E+00 -0.20321851465E+03  0.21845058385E+03  0.80142952821E+02 0.  0.
         66    2    3    3    0    0  0.10075471207E+01  0.39753621984E+02 -0.88785358026E+02  0.97304704384E+02  0.20000208464E+01 0.  0.
         13    1    3    3    0    0 -0.10075471207E+01 -0.39753621984E+02 -0.11443315663E+03  0.12114587947E+03  0.10566000000E+00 0. -1.
         13    1    4    4    0    0  0.84967950921E+00  0.11888803371E+02 -0.25785842313E+02  0.28407506555E+02  0.10566000000E+00 0. -1.
        -13    1    4    4    0    0  0.39034197643E+00  0.20465702748E+02 -0.47344980273E+02  0.51580574608E+02  0.10566000000E+00 0.  1.
        -14    1    4    4    0    0 -0.23247436492E+00  0.73991158661E+01 -0.15654535441E+02  0.17316623222E+02  0.00000000000E+00 0.  1.
<mgrwt>
<rscale>  0 0.80142953E+02</rscale>
<asrwt>0</asrwt>
<pdfrwt beam="1">  1        1 0.11716978E-02 0.80142953E+02</pdfrwt>
<pdfrwt beam="2">  1       -2 0.32436080E-01 0.80142953E+02</pdfrwt>
<totfact> 0.82857631E+04</totfact>
</mgrwt>
</event>
<event>
 8    1  0.8577104E-018  0.8584542E+02  0.7818608E-02  0.1313236E+00
         -2   -1    0    0    0  501 -0.00000000000E+00  0.00000000000E+00  0.26467666998E+03  0.26467667000E+03  0.25500000000E-02 0.  1.
          1   -1    0    0  501    0  0.00000000000E+00 -0.00000000000E+00 -0.69607910376E+01  0.69607928622E+01  0.50400000000E-02 0. -1.
        -24    2    1    2    0    0  0.00000000000E+00  0.00000000000E+00  0.25771587895E+03  0.27163746286E+03  0.85845424847E+02 0.  0.
         66    2    3    3    0    0 -0.14486472132E+02 -0.38508730238E+02  0.90488209106E+02  0.99422815097E+02  0.19999987970E+01 0.  0.
         13    1    3    3    0    0  0.14486472132E+02  0.38508730238E+02  0.16722766984E+03  0.17221464776E+03  0.10566000000E+00 0. -1.
         13    1    4    4    0    0 -0.45202192400E+00 -0.77113929919E+00  0.18729209418E+01  0.20779741405E+01  0.10566000000E+00 0. -1.
        -13    1    4    4    0    0 -0.12838945477E+02 -0.34038124053E+02  0.79027981658E+02  0.86999226772E+02  0.10566000000E+00 0.  1.
        -14    1    4    4    0    0 -0.11955047305E+01 -0.36994668863E+01  0.95873065065E+01  0.10345614184E+02  0.00000000000E+00 0.  1.
<mgrwt>
<rscale>  0 0.85845425E+02</rscale>
<asrwt>0</asrwt>
<pdfrwt beam="1">  1        1 0.10708912E-02 0.85845425E+02</pdfrwt>
<pdfrwt beam="2">  1       -2 0.40719483E-01 0.85845425E+02</pdfrwt>
<totfact> 0.62485300E+04</totfact>
</mgrwt>
</event>
<event>
 8    1  0.8577104E-018  0.7622070E+02  0.7818608E-02  0.1340132E+00
         -2   -1    0    0    0  501 -0.00000000000E+00  0.00000000000E+00  0.74805526897E+02  0.74805526940E+02  0.25500000000E-02 0.  1.
          1   -1    0    0  501    0  0.00000000000E+00 -0.00000000000E+00 -0.19415661079E+02  0.19415661733E+02  0.50400000000E-02 0. -1.
        -24    2    1    2    0    0 -0.88817841970E-15  0.00000000000E+00  0.55389865818E+02  0.94221188673E+02  0.76220700335E+02 0.  0.
         66    2    3    3    0    0  0.78234572422E+01  0.34344839705E+02  0.45611407070E+02  0.57664329985E+02  0.20000000475E+01 0.  0.
         13    1    3    3    0    0 -0.78234572422E+01 -0.34344839705E+02  0.97784587484E+01  0.36556858688E+02  0.10566000000E+00 0. -1.
         13    1    4    4    0    0  0.40465658105E+01  0.17876168318E+02  0.22978385056E+02  0.29393016728E+02  0.10566000000E+00 0. -1.
        -13    1    4    4    0    0  0.37782644053E+01  0.15683994363E+02  0.21871422607E+02  0.27177808079E+02  0.10566000000E+00 0.  1.
         14    1    4    4    0    0 -0.13729736024E-02  0.78467702400E+00  0.76159940679E+00  0.10935051776E+01  0.00000000000E+00 0. -1.
<mgrwt>
<rscale>  0 0.76220700E+02</rscale>
<asrwt>0</asrwt>
<pdfrwt beam="1">  1        1 0.29870249E-02 0.76220700E+02</pdfrwt>
<pdfrwt beam="2">  1       -2 0.11508542E-01 0.76220700E+02</pdfrwt>
<totfact> 0.12820560E+05</totfact>
</mgrwt>
</event>
<event>
 8    1  0.8577104E-018  0.8181428E+02  0.7818608E-02  0.1323980E+00
         -2   -1    0    0    0  501 -0.00000000000E+00  0.00000000000E+00  0.70536900371E+02  0.70536900417E+02  0.25500000000E-02 0.  1.
          1   -1    0    0  501    0  0.00000000000E+00 -0.00000000000E+00 -0.23723670903E+02  0.23723671438E+02  0.50400000000E-02 0. -1.
        -24    2    1    2    0    0  0.00000000000E+00  0.00000000000E+00  0.46813229468E+02  0.94260571855E+02  0.81814283308E+02 0.  0.
         66    2    3    3    0    0  0.15639378672E+02  0.32073370613E+02  0.46408283784E+02  0.58574910690E+02  0.20000227193E+01 0.  0.
         13    1    3    3    0    0 -0.15639378672E+02 -0.32073370613E+02  0.40494568405E+00  0.35685661165E+02  0.10566000000E+00 0. -1.
         13    1    4    4    0    0  0.57032701862E+01  0.10315582470E+02  0.15778508523E+02  0.19695457034E+02  0.10566000000E+00 0. -1.
        -13    1    4    4    0    0  0.88815574997E+01  0.18688092295E+02  0.26834990760E+02  0.33885907844E+02  0.10566000000E+00 0.  1.
         14    1    4    4    0    0  0.10545509865E+01  0.30696958480E+01  0.37947844997E+01  0.49935458125E+01  0.00000000000E+00 0. -1.
<mgrwt>
<rscale>  0 0.81814283E+02</rscale>
<asrwt>0</asrwt>
<pdfrwt beam="1">  1        1 0.36497956E-02 0.81814283E+02</pdfrwt>
<pdfrwt beam="2">  1       -2 0.10851831E-01 0.81814283E+02</pdfrwt>
<totfact> 0.10837899E+05</totfact>
</mgrwt>
</event>
<event>
 8    1  0.8577104E-018  0.8120069E+02  0.7818608E-02  0.1325678E+00
         -2   -1    0    0    0  501 -0.00000000000E+00  0.00000000000E+00  0.51448420017E+02  0.51448420080E+02  0.25500000000E-02 0.  1.
          1   -1    0    0  501    0  0.00000000000E+00 -0.00000000000E+00 -0.32039623045E+02  0.32039623441E+02  0.50400000000E-02 0. -1.
        -24    2    1    2    0    0  0.35527136788E-14  0.00000000000E+00  0.19408796972E+02  0.83488043521E+02  0.81200689721E+02 0.  0.
         66    2    3    3    0    0 -0.22843633181E+02  0.32337586794E+02  0.58142824627E+00  0.39647057290E+02  0.19999990886E+01 0.  0.
         13    1    3    3    0    0  0.22843633181E+02 -0.32337586794E+02  0.18827368726E+02  0.43840986232E+02  0.10566000000E+00 0. -1.
         13    1    4    4    0    0 -0.11200151465E+02  0.14982900334E+02 -0.40149730520E+00  0.18711041109E+02  0.10566000000E+00 0.  1.
        -13    1    4    4    0    0 -0.88040630003E+01  0.13019908649E+02  0.10631743286E+01  0.15753445662E+02  0.10566000000E+00 0. -1.
         14    1    4    4    0    0 -0.28394187157E+01  0.43347778116E+01 -0.80248777097E-01  0.51825705191E+01  0.00000000000E+00 0. -1.
<mgrwt>
<rscale>  0 0.81200690E+02</rscale>
<asrwt>0</asrwt>
<pdfrwt beam="1">  1        1 0.49291729E-02 0.81200690E+02</pdfrwt>
<pdfrwt beam="2">  1       -2 0.79151415E-02 0.81200690E+02</pdfrwt>
<totfact> 0.11723673E+05</totfact>
</mgrwt>
</event>
<event>
 8    1  0.8577104E-018  0.7964195E+02  0.7818608E-02  0.1330071E+00
          1   -1    0    0  501    0  0.00000000000E+00  0.00000000000E+00  0.29606611850E+03  0.29606611854E+03  0.50400000000E-02 0. -1.
         -2   -1    0    0    0  501 -0.00000000000E+00 -0.00000000000E+00 -0.53559312622E+01  0.53559318693E+01  0.25500000000E-02 0.  1.
        -24    2    1    2    0    0  0.35527136788E-14  0.00000000000E+00  0.29071018724E+03  0.30142205041E+03  0.79641945675E+02 0.  0.
         66    2    3    3    0    0 -0.16249592400E+02  0.31785349769E+02  0.78879921876E+02  0.86604848586E+02  0.20000025728E+01 0.  0.
         13    1    3    3    0    0  0.16249592400E+02 -0.31785349769E+02  0.21183026536E+03  0.21481720182E+03  0.10566000000E+00 0. -1.
         13    1    4    4    0    0 -0.77083186019E+00  0.87515673855E+00  0.29409942224E+01  0.31655476817E+01  0.10566000000E+00 0.  1.
        -13    1    4    4    0    0 -0.45164086916E+01  0.96049820580E+01  0.23241389572E+02  0.25550479077E+02  0.10566000000E+00 0. -1.
        -14    1    4    4    0    0 -0.10962351849E+02  0.21305210973E+02  0.52697538082E+02  0.57888821827E+02  0.00000000000E+00 0.  1.
<mgrwt>
<rscale>  0 0.79641946E+02</rscale>
<asrwt>0</asrwt>
<pdfrwt beam="1">  1        1 0.45548651E-01 0.79641946E+02</pdfrwt>
<pdfrwt beam="2">  1       -2 0.82398917E-03 0.79641946E+02</pdfrwt>
<totfact> 0.18210327E+05</totfact>
</mgrwt>
</event>
<event>
 8    1  0.8577104E-018  0.8115195E+02  0.7818608E-02  0.1325814E+00
         -2   -1    0    0    0  501 -0.00000000000E+00  0.00000000000E+00  0.28424619377E+02  0.28424619491E+02  0.25500000000E-02 0.  1.
          1   -1    0    0  501    0  0.00000000000E+00 -0.00000000000E+00 -0.57921960955E+02  0.57921961174E+02  0.50400000000E-02 0. -1.
        -24    2    1    2    0    0 -0.17763568394E-14 -0.71054273576E-14 -0.29497341578E+02  0.86346580665E+02  0.81151949036E+02 0.  0.
         66    2    3    3    0    0 -0.10321983428E+02 -0.34586689129E+02  0.49085444085E+01  0.36481176211E+02  0.20000006653E+01 0.  0.
         13    1    3    3    0    0  0.10321983428E+02  0.34586689129E+02 -0.34405885987E+02  0.49865404454E+02  0.10566000000E+00 0. -1.
         13    1    4    4    0    0 -0.37455890621E+01 -0.13815530959E+02  0.27692840006E+01  0.14580069650E+02  0.10566000000E+00 0. -1.
        -13    1    4    4    0    0 -0.26853190800E+01 -0.87945475824E+01  0.11876341100E+01  0.92723591688E+01  0.10566000000E+00 0.  1.
         14    1    4    4    0    0 -0.38910752863E+01 -0.11976610589E+02  0.95162629793E+00  0.12628747392E+02  0.00000000000E+00 0. -1.
<mgrwt>
<rscale>  0 0.81151949E+02</rscale>
<asrwt>0</asrwt>
<pdfrwt beam="1">  1        1 0.89110710E-02 0.81151949E+02</pdfrwt>
<pdfrwt beam="2">  1       -2 0.43730184E-02 0.81151949E+02</pdfrwt>
<totfact> 0.12942216E+05</totfact>
</mgrwt>
</event>
<event>
 8    1  0.8577104E-018  0.8065502E+02  0.7818608E-02  0.1327203E+00
          1   -1    0    0  501    0  0.00000000000E+00  0.00000000000E+00  0.19018828486E+02  0.19018829153E+02  0.50400000000E-02 0. -1.
         -2   -1    0    0    0  501 -0.00000000000E+00 -0.00000000000E+00 -0.85510416183E+02  0.85510416221E+02  0.25500000000E-02 0.  1.
        -24    2    1    2    0    0  0.00000000000E+00  0.00000000000E+00 -0.66491587697E+02  0.10452924537E+03  0.80655017848E+02 0.  0.
         66    2    3    3    0    0 -0.12787697062E+02  0.38217399746E+02 -0.33857489353E+02  0.52672805289E+02  0.19999980749E+01 0.  0.
         13    1    3    3    0    0  0.12787697062E+02 -0.38217399746E+02 -0.32634098345E+02  0.51856440085E+02  0.10566000000E+00 0. -1.
         13    1    4    4    0    0 -0.82965135344E-01  0.86273445114E+00 -0.71199974365E+00  0.11266328672E+01  0.10566000000E+00 0. -1.
        -13    1    4    4    0    0 -0.69283627126E+01  0.21771937972E+02 -0.19745126058E+02  0.30197692959E+02  0.10566000000E+00 0.  1.
         14    1    4    4    0    0 -0.57763692136E+01  0.15582727323E+02 -0.13400363551E+02  0.21348479464E+02  0.00000000000E+00 0. -1.
<mgrwt>
<rscale>  0 0.80655018E+02</rscale>
<asrwt>0</asrwt>
<pdfrwt beam="1">  1        1 0.29259737E-02 0.80655018E+02</pdfrwt>
<pdfrwt beam="2">  1       -2 0.13155448E-01 0.80655018E+02</pdfrwt>
<totfact> 0.10786263E+05</totfact>
</mgrwt>
</event>
<event>
 8    1  0.8577104E-018  0.8476315E+02  0.7818608E-02  0.1316053E+00
         -2   -1    0    0    0  501 -0.00000000000E+00  0.00000000000E+00  0.47749284805E+02  0.47749284873E+02  0.25500000000E-02 0.  1.
          1   -1    0    0  501    0  0.00000000000E+00 -0.00000000000E+00 -0.37617270826E+02  0.37617271164E+02  0.50400000000E-02 0. -1.
        -24    2    1    2    0    0  0.00000000000E+00  0.00000000000E+00  0.10132013979E+02  0.85366556037E+02  0.84763147549E+02 0.  0.
         66    2    3    3    0    0 -0.24276337033E+02  0.87592313841E+01  0.38895539634E+02  0.46721811940E+02  0.20000083507E+01 0.  0.
         13    1    3    3    0    0  0.24276337033E+02 -0.87592313841E+01 -0.28763525655E+02  0.38644744097E+02  0.10566000000E+00 0. -1.
         13    1    4    4    0    0 -0.35339597587E+01  0.17334304740E+01  0.66051432194E+01  0.76897811262E+01  0.10566000000E+00 0. -1.
        -13    1    4    4    0    0 -0.18426368404E+02  0.58787200404E+01  0.28635167100E+02  0.34555381068E+02  0.10566000000E+00 0.  1.
        -14    1    4    4    0    0 -0.23160088699E+01  0.11470808696E+01  0.36552293148E+01  0.44766497463E+01  0.00000000000E+00 0.  1.
<mgrwt>
<rscale>  0 0.84763148E+02</rscale>
<asrwt>0</asrwt>
<pdfrwt beam="1">  1        1 0.57872725E-02 0.84763148E+02</pdfrwt>
<pdfrwt beam="2">  1       -2 0.73460438E-02 0.84763148E+02</pdfrwt>
<totfact> 0.10663355E+05</totfact>
</mgrwt>
</event>
<event>
 8    1  0.8577104E-018  0.7889182E+02  0.7818608E-02  0.1332226E+00
         -2   -1    0    0    0  501 -0.00000000000E+00  0.00000000000E+00  0.21594688280E+02  0.21594688431E+02  0.25500000000E-02 0.  1.
          1   -1    0    0  501    0  0.00000000000E+00 -0.00000000000E+00 -0.72053817529E+02  0.72053817706E+02  0.50400000000E-02 0. -1.
        -24    2    1    2    0    0  0.00000000000E+00  0.00000000000E+00 -0.50459129249E+02  0.93648506137E+02  0.78891818188E+02 0.  0.
         66    2    3    3    0    0  0.15597839247E+02  0.34024590565E+02 -0.10562287136E+02  0.38942614983E+02  0.19999999797E+01 0.  0.
         13    1    3    3    0    0 -0.15597839247E+02 -0.34024590565E+02 -0.39896842113E+02  0.54705891153E+02  0.10566000000E+00 0. -1.
         13    1    4    4    0    0  0.10555915936E+01  0.23891389895E+01 -0.61871013391E+00  0.26863032199E+01  0.10566000000E+00 0. -1.
        -13    1    4    4    0    0  0.11473398554E+02  0.26286542375E+02 -0.77384433150E+01  0.29707168384E+02  0.10566000000E+00 0.  1.
        -14    1    4    4    0    0  0.30688490996E+01  0.53489091999E+01 -0.22051336874E+01  0.65491433794E+01  0.00000000000E+00 0.  1.
<mgrwt>
<rscale>  0 0.78891818E+02</rscale>
<asrwt>0</asrwt>
<pdfrwt beam="1">  1        1 0.11085203E-01 0.78891818E+02</pdfrwt>
<pdfrwt beam="2">  1       -2 0.33222598E-02 0.78891818E+02</pdfrwt>
<totfact> 0.14475645E+05</totfact>
</mgrwt>
</event>
<event>
 8    1  0.8577104E-018  0.7837203E+02  0.7818608E-02  0.1333736E+00
          1   -1    0    0  501    0  0.00000000000E+00  0.00000000000E+00  0.53318799413E+02  0.53318799651E+02  0.50400000000E-02 0. -1.
         -2   -1    0    0    0  501 -0.00000000000E+00 -0.00000000000E+00 -0.28799292064E+02  0.28799292177E+02  0.25500000000E-02 0.  1.
        -24    2    1    2    0    0  0.00000000000E+00  0.00000000000E+00  0.24519507349E+02  0.82118091828E+02  0.78372027949E+02 0.  0.
         66    2    3    3    0    0 -0.10707895107E+02 -0.34955996313E+02 -0.24372715732E+01  0.36694972277E+02  0.20000004640E+01 0.  0.
         13    1    3    3    0    0  0.10707895107E+02  0.34955996313E+02  0.26956778922E+02  0.45423119551E+02  0.10566000000E+00 0. -1.
         13    1    4    4    0    0 -0.35268606448E+01 -0.97174524442E+01 -0.57673482801E-01  0.10338380834E+02  0.10566000000E+00 0. -1.
        -13    1    4    4    0    0 -0.49799854935E+01 -0.17223022299E+02 -0.19256538814E+01  0.18031973257E+02  0.10566000000E+00 0.  1.
        -14    1    4    4    0    0 -0.22010489691E+01 -0.80155215695E+01 -0.45394420904E+00  0.83246181859E+01  0.00000000000E+00 0.  1.
<mgrwt>
<rscale>  0 0.78372028E+02</rscale>
<asrwt>0</asrwt>
<pdfrwt beam="1">  1        1 0.82028922E-02 0.78372028E+02</pdfrwt>
<pdfrwt beam="2">  1       -2 0.44306604E-02 0.78372028E+02</pdfrwt>
<totfact> 0.14068720E+05</totfact>
</mgrwt>
</event>
<event>
 8    1  0.8577104E-018  0.7944297E+02  0.7818608E-02  0.1330640E+00
         -2   -1    0    0    0  501 -0.00000000000E+00  0.00000000000E+00  0.11655534075E+03  0.11655534078E+03  0.25500000000E-02 0.  1.
          1   -1    0    0  501    0  0.00000000000E+00 -0.00000000000E+00 -0.13536886012E+02  0.13536886950E+02  0.50400000000E-02 0. -1.
        -24    2    1    2    0    0  0.71054273576E-14  0.44408920985E-15  0.10301845474E+03  0.13009222773E+03  0.79442971361E+02 0.  0.
         66    2    3    3    0    0  0.38596953282E+02  0.18838606418E+01  0.36666352339E+02  0.53307552236E+02  0.19999994873E+01 0.  0.
         13    1    3    3    0    0 -0.38596953282E+02 -0.18838606418E+01  0.66352102400E+02  0.76784675493E+02  0.10566000000E+00 0. -1.
         13    1    4    4    0    0  0.24125448696E+01  0.61429963553E-02  0.25033772857E+01  0.34782858357E+01  0.10566000000E+00 0. -1.
        -13    1    4    4    0    0  0.13875568511E+01 -0.17925778736E+00  0.10670611204E+01  0.17627339106E+01  0.10566000000E+00 0.  1.
        -14    1    4    4    0    0  0.34796851562E+02  0.20569754328E+01  0.33095913933E+02  0.48066532490E+02  0.00000000000E+00 0.  1.
<mgrwt>
<rscale>  0 0.79442971E+02</rscale>
<asrwt>0</asrwt>
<pdfrwt beam="1">  1        1 0.20825979E-02 0.79442971E+02</pdfrwt>
<pdfrwt beam="2">  1       -2 0.17931591E-01 0.79442971E+02</pdfrwt>
<totfact> 0.10381010E+05</totfact>
</mgrwt>
</event>
<event>
 8    1  0.8577104E-018  0.8009238E+02  0.7818608E-02  0.1328789E+00
         -2   -1    0    0    0  501 -0.00000000000E+00  0.00000000000E+00  0.12408186424E+03  0.12408186426E+03  0.25500000000E-02 0.  1.
          1   -1    0    0  501    0  0.00000000000E+00 -0.00000000000E+00 -0.12924510679E+02  0.12924511662E+02  0.50400000000E-02 0. -1.
        -24    2    1    2    0    0  0.88817841970E-15  0.00000000000E+00  0.11115735356E+03  0.13700637593E+03  0.80092382873E+02 0.  0.
         66    2    3    3    0    0  0.67275329808E+01  0.35621659771E+02  0.84619464484E+02  0.92079401117E+02  0.19999989537E+01 0.  0.
         13    1    3    3    0    0 -0.67275329808E+01 -0.35621659771E+02  0.26537889075E+02  0.44926974808E+02  0.10566000000E+00 0. -1.
         13    1    4    4    0    0  0.17944280656E+01  0.86367495516E+01  0.22336244359E+02  0.24015253298E+02  0.10566000000E+00 0. -1.
        -13    1    4    4    0    0  0.31007059759E+00  0.18740293204E+01  0.49235144971E+01  0.52782846369E+01  0.10566000000E+00 0.  1.
        -14    1    4    4    0    0  0.46230343176E+01  0.25110880899E+02  0.57359705628E+02  0.62785863182E+02  0.00000000000E+00 0.  1.
<mgrwt>
<rscale>  0 0.80092383E+02</rscale>
<asrwt>0</asrwt>
<pdfrwt beam="1">  1        1 0.19883863E-02 0.80092383E+02</pdfrwt>
<pdfrwt beam="2">  1       -2 0.19089518E-01 0.80092383E+02</pdfrwt>
<totfact> 0.99892743E+04</totfact>
</mgrwt>
</event>
<event>
 8    1  0.8577104E-018  0.8001218E+02  0.7818608E-02  0.1329017E+00
         -2   -1    0    0    0  501 -0.00000000000E+00  0.00000000000E+00  0.24991064027E+01  0.24991077037E+01  0.25500000000E-02 0.  1.
          1   -1    0    0  501    0  0.00000000000E+00 -0.00000000000E+00 -0.64042370441E+03  0.64042370443E+03  0.50400000000E-02 0. -1.
        -24    2    1    2    0    0  0.35527136788E-14  0.00000000000E+00 -0.63792459801E+03  0.64292281214E+03  0.80012184191E+02 0.  0.
         66    2    3    3    0    0 -0.21385677631E+02 -0.31376637444E+02 -0.41972829551E+03  0.42144712911E+03  0.19999986914E+01 0.  0.
         13    1    3    3    0    0  0.21385677631E+02  0.31376637444E+02 -0.21819630250E+03  0.22147568303E+03  0.10566000000E+00 0. -1.
         13    1    4    4    0    0 -0.31442308746E+01 -0.53380965312E+01 -0.68379067135E+02  0.68659226974E+02  0.10566000000E+00 0. -1.
        -13    1    4    4    0    0 -0.14580398761E+01 -0.15220579470E+01 -0.21563250907E+02  0.21666275508E+02  0.10566000000E+00 0.  1.
        -14    1    4    4    0    0 -0.16783406880E+02 -0.24516482966E+02 -0.32978597747E+03  0.33112162663E+03  0.00000000000E+00 0.  1.
<mgrwt>
<rscale>  0 0.80012184E+02</rscale>
<asrwt>0</asrwt>
<pdfrwt beam="1">  1        1 0.98526594E-01 0.80012184E+02</pdfrwt>
<pdfrwt beam="2">  1       -2 0.38447852E-03 0.80012184E+02</pdfrwt>
<totfact> 0.19988955E+05</totfact>
</mgrwt>
</event>
<event>
 8    1  0.8577104E-018  0.7796952E+02  0.7818608E-02  0.1334914E+00
          1   -1    0    0  501    0  0.00000000000E+00  0.00000000000E+00  0.24488131544E+03  0.24488131549E+03  0.50400000000E-02 0. -1.
         -2   -1    0    0    0  501 -0.00000000000E+00 -0.00000000000E+00 -0.62063180706E+01  0.62063185944E+01  0.25500000000E-02 0.  1.
        -24    2    1    2    0    0  0.00000000000E+00  0.00000000000E+00  0.23867499737E+03  0.25108763409E+03  0.77969517260E+02 0.  0.
         66    2    3    3    0    0 -0.25999640604E+02 -0.29004937381E+02  0.12177956797E+03  0.12787310457E+03  0.19999987088E+01 0.  0.
         13    1    3    3    0    0  0.25999640604E+02  0.29004937381E+02  0.11689542940E+03  0.12321452951E+03  0.10566000000E+00 0. -1.
         13    1    4    4    0    0 -0.25650728505E+01 -0.24233642285E+01  0.12606313696E+02  0.13091317808E+02  0.10566000000E+00 0. -1.
        -13    1    4    4    0    0 -0.14439774916E+02 -0.15987104617E+02  0.66342115799E+02  0.69752291047E+02  0.10566000000E+00 0.  1.
         14    1    4    4    0    0 -0.89947928377E+01 -0.10594468535E+02  0.42831138474E+02  0.45029495719E+02  0.00000000000E+00 0. -1.
<mgrwt>
<rscale>  0 0.77969517E+02</rscale>
<asrwt>0</asrwt>
<pdfrwt beam="1">  1        1 0.37674052E-01 0.77969517E+02</pdfrwt>
<pdfrwt beam="2">  1       -2 0.95481813E-03 0.77969517E+02</pdfrwt>
<totfact> 0.18564026E+05</totfact>
</mgrwt>
</event>
<event>
 8    1  0.8577104E-018  0.8107293E+02  0.7818608E-02  0.1326034E+00
          1   -1    0    0  501    0  0.00000000000E+00  0.00000000000E+00  0.16302031462E+02  0.16302032242E+02  0.50400000000E-02 0. -1.
         -2   -1    0    0    0  501 -0.00000000000E+00 -0.00000000000E+00 -0.10079756170E+03  0.10079756173E+03  0.25500000000E-02 0.  1.
        -24    2    1    2    0    0  0.35527136788E-14  0.00000000000E+00 -0.84495530237E+02  0.11709959397E+03  0.81072931849E+02 0.  0.
         66    2    3    3    0    0  0.30131902691E+02 -0.16115503776E+02 -0.73705011216E+02  0.81265427504E+02  0.20000018610E+01 0.  0.
         13    1    3    3    0    0 -0.30131902691E+02  0.16115503776E+02 -0.10790519022E+02  0.35834166469E+02  0.10566000000E+00 0. -1.
         13    1    4    4    0    0  0.18273861250E+01 -0.96889817238E+00 -0.35713457296E+01  0.41284110835E+01  0.10566000000E+00 0. -1.
        -13    1    4    4    0    0  0.14143073697E+02 -0.75305374283E+01 -0.33933939289E+02  0.37526776138E+02  0.10566000000E+00 0.  1.
        -14    1    4    4    0    0  0.14161442869E+02 -0.76160681751E+01 -0.36199726197E+02  0.39610240283E+02  0.00000000000E+00 0.  1.
<mgrwt>
<rscale>  0 0.81072932E+02</rscale>
<asrwt>0</asrwt>
<pdfrwt beam="1">  1        1 0.25080050E-02 0.81072932E+02</pdfrwt>
<pdfrwt beam="2">  1       -2 0.15507317E-01 0.81072932E+02</pdfrwt>
<totfact> 0.10236593E+05</totfact>
</mgrwt>
</event>
<event>
 8    1  0.8577104E-018  0.7894160E+02  0.7818608E-02  0.1332082E+00
         -2   -1    0    0    0  501 -0.00000000000E+00  0.00000000000E+00  0.46185876267E+01  0.46185883306E+01  0.25500000000E-02 0.  1.
          1   -1    0    0  501    0  0.00000000000E+00 -0.00000000000E+00 -0.33732042787E+03  0.33732042791E+03  0.50400000000E-02 0. -1.
        -24    2    1    2    0    0  0.00000000000E+00  0.71054273576E-14 -0.33270184024E+03  0.34193901624E+03  0.78941600723E+02 0.  0.
         66    2    3    3    0    0 -0.10768414506E+02 -0.32910659146E+02 -0.24828448288E+03  0.25069554182E+03  0.20000027684E+01 0.  0.
         13    1    3    3    0    0  0.10768414506E+02  0.32910659146E+02 -0.84417357359E+02  0.91243474418E+02  0.10566000000E+00 0. -1.
         13    1    4    4    0    0 -0.30899678411E+01 -0.10876891106E+02 -0.77616634345E+02  0.78436010560E+02  0.10566000000E+00 0. -1.
        -13    1    4    4    0    0 -0.35882875670E+01 -0.11438781277E+02 -0.90934075917E+02  0.91720983704E+02  0.10566000000E+00 0.  1.
         14    1    4    4    0    0 -0.40901590976E+01 -0.10594986763E+02 -0.79733772622E+02  0.80538547557E+02  0.00000000000E+00 0. -1.
<mgrwt>
<rscale>  0 0.78941601E+02</rscale>
<asrwt>0</asrwt>
<pdfrwt beam="1">  1        1 0.51895431E-01 0.78941601E+02</pdfrwt>
<pdfrwt beam="2">  1       -2 0.71055226E-03 0.78941601E+02</pdfrwt>
<totfact> 0.19097761E+05</totfact>
</mgrwt>
</event>
<event>
 8    1  0.8577104E-018  0.7968057E+02  0.7818608E-02  0.1329960E+00
         -2   -1    0    0    0  501 -0.00000000000E+00  0.00000000000E+00  0.27119705243E+02  0.27119705363E+02  0.25500000000E-02 0.  1.
          1   -1    0    0  501    0  0.00000000000E+00 -0.00000000000E+00 -0.58527490700E+02  0.58527490917E+02  0.50400000000E-02 0. -1.
        -24    2    1    2    0    0  0.35527136788E-14 -0.35527136788E-14 -0.31407785457E+02  0.85647196280E+02  0.79680570048E+02 0.  0.
         66    2    3    3    0    0 -0.27033490244E+02 -0.27446981758E+02 -0.49061466425E+01  0.38887230216E+02  0.19999991581E+01 0.  0.
         13    1    3    3    0    0  0.27033490244E+02  0.27446981758E+02 -0.26501638815E+02  0.46759966064E+02  0.10566000000E+00 0. -1.
         13    1    4    4    0    0 -0.97299537166E-01 -0.20409092076E+00  0.14056389635E-01  0.24996384050E+00  0.10566000000E+00 0. -1.
        -13    1    4    4    0    0 -0.16969513057E+02 -0.16531646404E+02 -0.29386608704E+01  0.23872716602E+02  0.10566000000E+00 0.  1.
         14    1    4    4    0    0 -0.99666776497E+01 -0.10711244434E+02 -0.19815421617E+01  0.14764549774E+02  0.00000000000E+00 0. -1.
<mgrwt>
<rscale>  0 0.79680570E+02</rscale>
<asrwt>0</asrwt>
<pdfrwt beam="1">  1        1 0.90042293E-02 0.79680570E+02</pdfrwt>
<pdfrwt beam="2">  1       -2 0.41722624E-02 0.79680570E+02</pdfrwt>
<totfact> 0.13635595E+05</totfact>
</mgrwt>
</event>
<event>
 8    1  0.8577104E-018  0.7917067E+02  0.7818608E-02  0.1331422E+00
         -2   -1    0    0    0  501 -0.00000000000E+00  0.00000000000E+00  0.16031233499E+03  0.16031233501E+03  0.25500000000E-02 0.  1.
          1   -1    0    0  501    0  0.00000000000E+00 -0.00000000000E+00 -0.97746604923E+01  0.97746617917E+01  0.50400000000E-02 0. -1.
        -24    2    1    2    0    0 -0.88817841970E-15  0.00000000000E+00  0.15053767450E+03  0.17008699680E+03  0.79170670313E+02 0.  0.
         66    2    3    3    0    0  0.76138843765E+01 -0.29931765284E+02  0.12842562416E+03  0.13210231907E+03  0.19999884994E+01 0.  0.
         13    1    3    3    0    0 -0.76138843765E+01  0.29931765284E+02  0.22112050335E+02  0.37984677732E+02  0.10566000000E+00 0. -1.
         13    1    4    4    0    0  0.41552900028E+01 -0.17475410126E+02  0.76614459410E+02  0.78692076785E+02  0.10566000000E+00 0.  1.
        -13    1    4    4    0    0  0.90917275232E+00 -0.49844037314E+01  0.21219960708E+02  0.21816708554E+02  0.10566000000E+00 0. -1.
         14    1    4    4    0    0  0.25494216214E+01 -0.74719514266E+01  0.30591204042E+02  0.31593533729E+02  0.00000000000E+00 0. -1.
<mgrwt>
<rscale>  0 0.79170670E+02</rscale>
<asrwt>0</asrwt>
<pdfrwt beam="1">  1        1 0.15037939E-02 0.79170670E+02</pdfrwt>
<pdfrwt beam="2">  1       -2 0.24663439E-01 0.79170670E+02</pdfrwt>
<totfact> 0.94932236E+04</totfact>
</mgrwt>
</event>
<event>
 8    1  0.8577104E-018  0.7889279E+02  0.7818608E-02  0.1332223E+00
          1   -1    0    0  501    0  0.00000000000E+00  0.00000000000E+00  0.21863293948E+03  0.21863293953E+03  0.50400000000E-02 0. -1.
         -2   -1    0    0    0  501 -0.00000000000E+00 -0.00000000000E+00 -0.71170337710E+01  0.71170342278E+01  0.25500000000E-02 0.  1.
        -24    2    1    2    0    0  0.00000000000E+00  0.00000000000E+00  0.21151590571E+03  0.22574997376E+03  0.78892789831E+02 0.  0.
         66    2    3    3    0    0 -0.81172660288E+01  0.38433694091E+02  0.11530507741E+03  0.12182897736E+03  0.19999993155E+01 0.  0.
         13    1    3    3    0    0  0.81172660288E+01 -0.38433694091E+02  0.96210828291E+02  0.10392099640E+03  0.10566000000E+00 0. -1.
         13    1    4    4    0    0 -0.34641678991E+01  0.16607372535E+02  0.50280697676E+02  0.53065666910E+02  0.10566000000E+00 0. -1.
        -13    1    4    4    0    0 -0.16916568953E+01  0.11417249953E+02  0.33905723241E+02  0.35816539924E+02  0.10566000000E+00 0.  1.
         14    1    4    4    0    0 -0.29614412344E+01  0.10409071602E+02  0.31118656496E+02  0.32946770524E+02  0.00000000000E+00 0. -1.
<mgrwt>
<rscale>  0 0.78892790E+02</rscale>
<asrwt>0</asrwt>
<pdfrwt beam="1">  1        1 0.33635838E-01 0.78892790E+02</pdfrwt>
<pdfrwt beam="2">  1       -2 0.10949283E-02 0.78892790E+02</pdfrwt>
<totfact> 0.17603515E+05</totfact>
</mgrwt>
</event>
<event>
 8    1  0.8577104E-018  0.7988351E+02  0.7818608E-02  0.1329382E+00
          1   -1    0    0  501    0  0.00000000000E+00  0.00000000000E+00  0.51130312321E+03  0.51130312323E+03  0.50400000000E-02 0. -1.
         -2   -1    0    0    0  501 -0.00000000000E+00 -0.00000000000E+00 -0.31201518711E+01  0.31201529132E+01  0.25500000000E-02 0.  1.
        -24    2    1    2    0    0  0.00000000000E+00  0.10658141036E-13  0.50818297134E+03  0.51442327615E+03  0.79883506959E+02 0.  0.
         66    2    3    3    0    0  0.30757273065E+02 -0.24849523539E+02  0.28942177677E+03  0.29211722567E+03  0.19999993028E+01 0.  0.
         13    1    3    3    0    0 -0.30757273065E+02  0.24849523539E+02  0.21876119457E+03  0.22230605048E+03  0.10566000000E+00 0. -1.
         13    1    4    4    0    0  0.31124775012E+01 -0.22772890806E+01  0.25186840465E+02  0.25480613384E+02  0.10566000000E+00 0. -1.
        -13    1    4    4    0    0  0.56868905402E+01 -0.49162187169E+01  0.52789683270E+02  0.53322338230E+02  0.10566000000E+00 0.  1.
        -14    1    4    4    0    0  0.21957905023E+02 -0.17656015741E+02  0.21144525303E+03  0.21331427405E+03  0.00000000000E+00 0.  1.
<mgrwt>
<rscale>  0 0.79883507E+02</rscale>
<asrwt>0</asrwt>
<pdfrwt beam="1">  1        1 0.78662064E-01 0.79883507E+02</pdfrwt>
<pdfrwt beam="2">  1       -2 0.48002317E-03 0.79883507E+02</pdfrwt>
<totfact> 0.19734161E+05</totfact>
</mgrwt>
</event>
<event>
 8    1  0.8577104E-018  0.7760847E+02  0.7818608E-02  0.1335979E+00
         -2   -1    0    0    0  501 -0.00000000000E+00  0.00000000000E+00  0.51666465704E+02  0.51666465767E+02  0.25500000000E-02 0.  1.
          1   -1    0    0  501    0  0.00000000000E+00 -0.00000000000E+00 -0.29144024883E+02  0.29144025319E+02  0.50400000000E-02 0. -1.
        -24    2    1    2    0    0  0.35527136788E-14  0.00000000000E+00  0.22522440821E+02  0.80810491086E+02  0.77608473307E+02 0.  0.
         66    2    3    3    0    0  0.23228805862E+02  0.29677182853E+02  0.20780748279E+02  0.43083083797E+02  0.20000016550E+01 0.  0.
         13    1    3    3    0    0 -0.23228805862E+02 -0.29677182853E+02  0.17416925424E+01  0.37727407289E+02  0.10566000000E+00 0. -1.
         13    1    4    4    0    0  0.44036529333E+01  0.60000902650E+01  0.38812378827E+01  0.83945466753E+01  0.10566000000E+00 0. -1.
        -13    1    4    4    0    0  0.64099033255E+01  0.92113233722E+01  0.58779049490E+01  0.12668712229E+02  0.10566000000E+00 0.  1.
         14    1    4    4    0    0  0.12415249603E+02  0.14465769215E+02  0.11021605447E+02  0.22019824893E+02  0.00000000000E+00 0. -1.
<mgrwt>
<rscale>  0 0.77608473E+02</rscale>
<asrwt>0</asrwt>
<pdfrwt beam="1">  1        1 0.44836962E-02 0.77608473E+02</pdfrwt>
<pdfrwt beam="2">  1       -2 0.79486870E-02 0.77608473E+02</pdfrwt>
<totfact> 0.13128116E+05</totfact>
</mgrwt>
</event>
<event>
 8    1  0.8577104E-018  0.8052104E+02  0.7818608E-02  0.1327579E+00
          1   -1    0    0  501    0  0.00000000000E+00  0.00000000000E+00  0.11768765010E+03  0.11768765021E+03  0.50400000000E-02 0. -1.
         -2   -1    0    0    0  501 -0.00000000000E+00 -0.00000000000E+00 -0.13772977380E+02  0.13772977616E+02  0.25500000000E-02 0.  1.
        -24    2    1    2    0    0  0.00000000000E+00  0.00000000000E+00  0.10391467272E+03  0.13146062782E+03  0.80521037385E+02 0.  0.
         66    2    3    3    0    0 -0.23191920223E+02  0.10724133312E+02  0.12456001453E+01  0.25659768536E+02  0.20000006690E+01 0.  0.
         13    1    3    3    0    0  0.23191920223E+02 -0.10724133312E+02  0.10266907257E+03  0.10580085929E+03  0.10566000000E+00 0. -1.
         13    1    4    4    0    0 -0.22283451587E+01  0.86751003345E+00  0.29645097432E+00  0.24118754156E+01  0.10566000000E+00 0. -1.
        -13    1    4    4    0    0 -0.15159628090E+02  0.77791603174E+01  0.11688331008E+01  0.17079431897E+02  0.10566000000E+00 0.  1.
         14    1    4    4    0    0 -0.58039469744E+01  0.20774629607E+01 -0.21968392990E+00  0.61684612234E+01  0.00000000000E+00 0. -1.
<mgrwt>
<rscale>  0 0.80521037E+02</rscale>
<asrwt>0</asrwt>
<pdfrwt beam="1">  1        1 0.18105792E-01 0.80521037E+02</pdfrwt>
<pdfrwt beam="2">  1       -2 0.21189196E-02 0.80521037E+02</pdfrwt>
<totfact> 0.14853182E+05</totfact>
</mgrwt>
</event>
<event>
 8    1  0.8577104E-018  0.8118346E+02  0.7818608E-02  0.1325726E+00
         -2   -1    0    0    0  501 -0.00000000000E+00  0.00000000000E+00  0.46779115376E+03  0.46779115377E+03  0.25500000000E-02 0.  1.
          1   -1    0    0  501    0  0.00000000000E+00 -0.00000000000E+00 -0.35222721563E+01  0.35222757622E+01  0.50400000000E-02 0. -1.
        -24    2    1    2    0    0 -0.35527136788E-14  0.71054273576E-14  0.46426888161E+03  0.47131342953E+03  0.81183461549E+02 0.  0.
         66    2    3    3    0    0  0.19343117364E+02 -0.23829781945E+02  0.38627695972E+03  0.38749955395E+03  0.20000005035E+01 0.  0.
         13    1    3    3    0    0 -0.19343117364E+02  0.23829781945E+02  0.77991921886E+02  0.83813875584E+02  0.10566000000E+00 0. -1.
         13    1    4    4    0    0  0.13651909103E+02 -0.16275211558E+02  0.27134566116E+03  0.27217592864E+03  0.10566000000E+00 0. -1.
        -13    1    4    4    0    0  0.11313495256E+00 -0.18383967966E+00  0.19321688505E+01  0.19470585630E+01  0.10566000000E+00 0.  1.
        -14    1    4    4    0    0  0.55780733078E+01 -0.73707307080E+01  0.11299912971E+03  0.11337656675E+03  0.00000000000E+00 0.  1.
<mgrwt>
<rscale>  0 0.81183462E+02</rscale>
<asrwt>0</asrwt>
<pdfrwt beam="1">  1        1 0.54188828E-03 0.81183462E+02</pdfrwt>
<pdfrwt beam="2">  1       -2 0.71967873E-01 0.81183462E+02</pdfrwt>
<totfact> 0.50998470E+04</totfact>
</mgrwt>
</event>
<event>
 8    1  0.8577104E-018  0.7980250E+02  0.7818608E-02  0.1329613E+00
          1   -1    0    0  501    0  0.00000000000E+00  0.00000000000E+00  0.48997548868E+02  0.48997549127E+02  0.50400000000E-02 0. -1.
         -2   -1    0    0    0  501 -0.00000000000E+00 -0.00000000000E+00 -0.32493664098E+02  0.32493664198E+02  0.25500000000E-02 0.  1.
        -24    2    1    2    0    0 -0.17763568394E-14  0.00000000000E+00  0.16503884770E+02  0.81491213326E+02  0.79802503950E+02 0.  0.
         66    2    3    3    0    0 -0.13172049327E+02 -0.18406485190E+02 -0.25267521931E+02  0.33981602063E+02  0.20000084281E+01 0.  0.
         13    1    3    3    0    0  0.13172049327E+02  0.18406485190E+02  0.41771406701E+02  0.47509611263E+02  0.10566000000E+00 0. -1.
         13    1    4    4    0    0 -0.23931116376E+01 -0.27249877689E+01 -0.35852091147E+01  0.51007283875E+01  0.10566000000E+00 0. -1.
        -13    1    4    4    0    0 -0.77544535224E+01 -0.11876974994E+02 -0.15385343943E+02  0.20926396171E+02  0.10566000000E+00 0.  1.
         14    1    4    4    0    0 -0.30244841668E+01 -0.38045224272E+01 -0.62969688731E+01  0.79544775041E+01  0.00000000000E+00 0. -1.
<mgrwt>
<rscale>  0 0.79802504E+02</rscale>
<asrwt>0</asrwt>
<pdfrwt beam="1">  1        1 0.75380845E-02 0.79802504E+02</pdfrwt>
<pdfrwt beam="2">  1       -2 0.49990253E-02 0.79802504E+02</pdfrwt>
<totfact> 0.13205806E+05</totfact>
</mgrwt>
</event>
<event>
 8    1  0.8577104E-018  0.8017596E+02  0.7818608E-02  0.1328553E+00
         -2   -1    0    0    0  501 -0.00000000000E+00  0.00000000000E+00  0.75690700768E+01  0.75690705063E+01  0.25500000000E-02 0.  1.
          1   -1    0    0  501    0  0.00000000000E+00 -0.00000000000E+00 -0.21231748047E+03  0.21231748053E+03  0.50400000000E-02 0. -1.
        -24    2    1    2    0    0  0.00000000000E+00  0.35527136788E-14 -0.20474841039E+03  0.21988655103E+03  0.80175955048E+02 0.  0.
         66    2    3    3    0    0 -0.10712867626E+02  0.30889900183E+02 -0.16593765124E+03  0.16913975156E+03  0.19999988848E+01 0.  0.
         13    1    3    3    0    0  0.10712867626E+02 -0.30889900183E+02 -0.38810759153E+02  0.50746799467E+02  0.10566000000E+00 0. -1.
         13    1    4    4    0    0 -0.81667547040E+00  0.29981599461E+01 -0.16651886567E+02  0.16939669777E+02  0.10566000000E+00 0. -1.
        -13    1    4    4    0    0 -0.98114020467E+01  0.27703174623E+02 -0.14875558695E+03  0.15163101697E+03  0.10566000000E+00 0.  1.
        -14    1    4    4    0    0 -0.84790108668E-01  0.18856561407E+00 -0.53017771940E+00  0.56906481835E+00  0.00000000000E+00 0.  1.
<mgrwt>
<rscale>  0 0.80175955E+02</rscale>
<asrwt>0</asrwt>
<pdfrwt beam="1">  1        1 0.32664223E-01 0.80175955E+02</pdfrwt>
<pdfrwt beam="2">  1       -2 0.11644725E-02 0.80175955E+02</pdfrwt>
<totfact> 0.16770879E+05</totfact>
</mgrwt>
</event>
<event>
 8    1  0.9217908E-018  0.7283626E+02  0.7818608E-02  0.1350705E+00
         -2   -1    0    0    0  501 -0.00000000000E+00  0.00000000000E+00  0.26932614084E+02  0.26932614205E+02  0.25500000000E-02 0.  1.
          1   -1    0    0  501    0  0.00000000000E+00 -0.00000000000E+00 -0.49244393625E+02  0.49244393883E+02  0.50400000000E-02 0. -1.
        -24    2    1    2    0    0  0.00000000000E+00  0.00000000000E+00 -0.22311779540E+02  0.76177008088E+02  0.72836261951E+02 0.  0.
         66    2    3    3    0    0  0.22018349978E+02  0.49157579688E+01  0.18698884024E+02  0.29370404898E+02  0.20000019881E+01 0.  0.
         13    1    3    3    0    0 -0.22018349978E+02 -0.49157579688E+01 -0.41010663565E+02  0.46806603190E+02  0.10566000000E+00 0. -1.
         13    1    4    4    0    0  0.67266327744E+01  0.10629541437E+01  0.55384808612E+01  0.87785758685E+01  0.10566000000E+00 0. -1.
        -13    1    4    4    0    0  0.14971633771E+02  0.37969087656E+01  0.12555685473E+02  0.19905344400E+02  0.10566000000E+00 0.  1.
         14    1    4    4    0    0  0.32008343218E+00  0.55895059407E-01  0.60471769059E+00  0.68648462950E+00  0.00000000000E+00 0. -1.
<mgrwt>
<rscale>  0 0.72836262E+02</rscale>
<asrwt>0</asrwt>
<pdfrwt beam="1">  1        1 0.75760606E-02 0.72836262E+02</pdfrwt>
<pdfrwt beam="2">  1       -2 0.41434791E-02 0.72836262E+02</pdfrwt>
<totfact> 0.17003897E+05</totfact>
</mgrwt>
</event>
<event>
 8    1  0.8577104E-018  0.7939528E+02  0.7818608E-02  0.1330776E+00
         -2   -1    0    0    0  501 -0.00000000000E+00  0.00000000000E+00  0.78609868256E+01  0.78609872392E+01  0.25500000000E-02 0.  1.
          1   -1    0    0  501    0  0.00000000000E+00 -0.00000000000E+00 -0.20047131651E+03  0.20047131657E+03  0.50400000000E-02 0. -1.
        -24    2    1    2    0    0  0.35527136788E-14  0.00000000000E+00 -0.19261032968E+03  0.20833230381E+03  0.79395275115E+02 0.  0.
         66    2    3    3    0    0  0.22178881640E+02  0.32849747106E+02 -0.91906242272E+02  0.10010877097E+03  0.19999951247E+01 0.  0.
         13    1    3    3    0    0 -0.22178881640E+02 -0.32849747106E+02 -0.10070408741E+03  0.10822353284E+03  0.10566000000E+00 0. -1.
         13    1    4    4    0    0  0.82236790950E+01  0.11802651678E+02 -0.34069395647E+02  0.36981973558E+02  0.10566000000E+00 0. -1.
        -13    1    4    4    0    0  0.13459220304E+02  0.20664765297E+02 -0.56135383155E+02  0.61313746762E+02  0.10566000000E+00 0.  1.
         14    1    4    4    0    0  0.49598224087E+00  0.38233012990E+00 -0.17014634700E+01  0.18130506477E+01  0.00000000000E+00 0. -1.
<mgrwt>
<rscale>  0 0.79395275E+02</rscale>
<asrwt>0</asrwt>
<pdfrwt beam="1">  1        1 0.30841737E-01 0.79395275E+02</pdfrwt>
<pdfrwt beam="2">  1       -2 0.12093828E-02 0.79395275E+02</pdfrwt>
<totfact> 0.17020850E+05</totfact>
</mgrwt>
</event>
<event>
 8    1  0.8577104E-018  0.7954259E+02  0.7818608E-02  0.1330355E+00
         -2   -1    0    0    0  501 -0.00000000000E+00  0.00000000000E+00  0.20483757445E+02  0.20483757604E+02  0.25500000000E-02 0.  1.
          1   -1    0    0  501    0  0.00000000000E+00 -0.00000000000E+00 -0.77220012104E+02  0.77220012268E+02  0.50400000000E-02 0. -1.
        -24    2    1    2    0    0  0.00000000000E+00  0.35527136788E-14 -0.56736254659E+02  0.97703769872E+02  0.79542592707E+02 0.  0.
         66    2    3    3    0    0 -0.25682218650E+02 -0.28135008955E+02 -0.14456840861E+02  0.40794059991E+02  0.19999997899E+01 0.  0.
         13    1    3    3    0    0  0.25682218650E+02  0.28135008955E+02 -0.42279413797E+02  0.56909709881E+02  0.10566000000E+00 0. -1.
         13    1    4    4    0    0 -0.35968525716E+01 -0.30834345082E+01 -0.19295905669E+01  0.51165809462E+01  0.10566000000E+00 0. -1.
        -13    1    4    4    0    0 -0.16751005191E+02 -0.18535232438E+02 -0.92312765005E+01  0.26634163143E+02  0.10566000000E+00 0.  1.
         14    1    4    4    0    0 -0.53343608870E+01 -0.65163420087E+01 -0.32959737941E+01  0.90433159018E+01  0.00000000000E+00 0. -1.
<mgrwt>
<rscale>  0 0.79542593E+02</rscale>
<asrwt>0</asrwt>
<pdfrwt beam="1">  1        1 0.11880002E-01 0.79542593E+02</pdfrwt>
<pdfrwt beam="2">  1       -2 0.31513473E-02 0.79542593E+02</pdfrwt>
<totfact> 0.14311087E+05</totfact>
</mgrwt>
</event>
<event>
 8    1  0.8577104E-018  0.8043704E+02  0.7818608E-02  0.1327816E+00
          1   -1    0    0  501    0  0.00000000000E+00  0.00000000000E+00  0.88167318828E+03  0.88167318829E+03  0.50400000000E-02 0. -1.
         -2   -1    0    0    0  501 -0.00000000000E+00 -0.00000000000E+00 -0.18346125478E+01  0.18346143200E+01  0.25500000000E-02 0.  1.
        -24    2    1    2    0    0 -0.17763568394E-14  0.35527136788E-14  0.87983857573E+03  0.88350780261E+03  0.80437043295E+02 0.  0.
         66    2    3    3    0    0  0.15546613697E+02  0.24933721808E+02  0.74142361875E+03  0.74200833562E+03  0.20000003037E+01 0.  0.
         13    1    3    3    0    0 -0.15546613697E+02 -0.24933721808E+02  0.13841495698E+03  0.14149946699E+03  0.10566000000E+00 0. -1.
         13    1    4    4    0    0  0.24634704906E+01  0.29556996824E+01  0.10361212774E+03  0.10368360056E+03  0.10566000000E+00 0. -1.
        -13    1    4    4    0    0  0.29978866032E+01  0.56286266953E+01  0.15384899934E+03  0.15398114990E+03  0.10566000000E+00 0.  1.
        -14    1    4    4    0    0  0.10085256603E+02  0.16349395430E+02  0.48396249167E+03  0.48434358515E+03  0.00000000000E+00 0.  1.
<mgrwt>
<rscale>  0 0.80437043E+02</rscale>
<asrwt>0</asrwt>
<pdfrwt beam="1">  1        1 0.13564184E+00 0.80437043E+02</pdfrwt>
<pdfrwt beam="2">  1       -2 0.28224861E-03 0.80437043E+02</pdfrwt>
<totfact> 0.19389558E+05</totfact>
</mgrwt>
</event>
<event>
 8    1  0.8577104E-018  0.7946502E+02  0.7818608E-02  0.1330577E+00
         -2   -1    0    0    0  501 -0.00000000000E+00  0.00000000000E+00  0.10246781706E+03  0.10246781709E+03  0.25500000000E-02 0.  1.
          1   -1    0    0  501    0  0.00000000000E+00 -0.00000000000E+00 -0.15406517025E+02  0.15406517849E+02  0.50400000000E-02 0. -1.
        -24    2    1    2    0    0  0.00000000000E+00  0.00000000000E+00  0.87061300038E+02  0.11787433494E+03  0.79465016669E+02 0.  0.
         66    2    3    3    0    0  0.10801658179E+02  0.24999325839E+02  0.86422182712E+02  0.90633524626E+02  0.20000023969E+01 0.  0.
         13    1    3    3    0    0 -0.10801658179E+02 -0.24999325839E+02  0.63911732581E+00  0.27240810318E+02  0.10566000000E+00 0. -1.
         13    1    4    4    0    0  0.25754552656E+00  0.41413257454E+00  0.19384632482E+01  0.20016591337E+01  0.10566000000E+00 0.  1.
        -13    1    4    4    0    0  0.12203249041E+01  0.18539648562E+01  0.64905712361E+01  0.68603977702E+01  0.10566000000E+00 0.  1.
        -14    1    4    4    0    0  0.93237877483E+01  0.22731228408E+02  0.77993148228E+02  0.81771467722E+02  0.00000000000E+00 0.  1.
<mgrwt>
<rscale>  0 0.79465017E+02</rscale>
<asrwt>0</asrwt>
<pdfrwt beam="1">  1        1 0.23702335E-02 0.79465017E+02</pdfrwt>
<pdfrwt beam="2">  1       -2 0.15764279E-01 0.79465017E+02</pdfrwt>
<totfact> 0.10730996E+05</totfact>
</mgrwt>
</event>
<event>
 8    1  0.8577104E-018  0.8104737E+02  0.7818608E-02  0.1326105E+00
         -2   -1    0    0    0  501 -0.00000000000E+00  0.00000000000E+00  0.24827431952E+03  0.24827431953E+03  0.25500000000E-02 0.  1.
          1   -1    0    0  501    0  0.00000000000E+00 -0.00000000000E+00 -0.66143316156E+01  0.66143335358E+01  0.50400000000E-02 0. -1.
        -24    2    1    2    0    0 -0.88817841970E-15  0.00000000000E+00  0.24165998790E+03  0.25488865307E+03  0.81047367071E+02 0.  0.
         66    2    3    3    0    0 -0.66584860271E+01 -0.39237553906E+02  0.14448888245E+03  0.14988314859E+03  0.20000013152E+01 0.  0.
         13    1    3    3    0    0  0.66584860271E+01  0.39237553906E+02  0.97171105451E+02  0.10500550448E+03  0.10566000000E+00 0. -1.
         13    1    4    4    0    0 -0.19150321333E+00 -0.23243456144E+01  0.79087815385E+01  0.82461655013E+01  0.10566000000E+00 0. -1.
        -13    1    4    4    0    0 -0.27922688915E+01 -0.12149057007E+02  0.46722407857E+02  0.48356911726E+02  0.10566000000E+00 0.  1.
        -14    1    4    4    0    0 -0.36747139223E+01 -0.24764151284E+02  0.89857693056E+02  0.93280071358E+02  0.00000000000E+00 0.  1.
<mgrwt>
<rscale>  0 0.81047367E+02</rscale>
<asrwt>0</asrwt>
<pdfrwt beam="1">  1        1 0.10175899E-02 0.81047367E+02</pdfrwt>
<pdfrwt beam="2">  1       -2 0.38196041E-01 0.81047367E+02</pdfrwt>
<totfact> 0.74812834E+04</totfact>
</mgrwt>
</event>
<event>
 8    1  0.8577104E-018  0.7964163E+02  0.7818608E-02  0.1330072E+00
         -2   -1    0    0    0  501 -0.00000000000E+00  0.00000000000E+00  0.10167270142E+04  0.10167270143E+04  0.25500000000E-02 0.  1.
          1   -1    0    0  501    0  0.00000000000E+00 -0.00000000000E+00 -0.15596055968E+01  0.15596137404E+01  0.50400000000E-02 0. -1.
        -24    2    1    2    0    0  0.00000000000E+00  0.00000000000E+00  0.10151674087E+04  0.10182866280E+04  0.79641629560E+02 0.  0.
         66    2    3    3    0    0  0.12702336502E+02  0.25731600076E+02  0.86043752176E+03  0.86091822692E+03  0.19999979804E+01 0.  0.
         13    1    3    3    0    0 -0.12702336502E+02 -0.25731600076E+02  0.15472988689E+03  0.15736840107E+03  0.10566000000E+00 0. -1.
         13    1    4    4    0    0  0.15832091871E+01  0.24391208043E+01  0.79123211257E+02  0.79176698499E+02  0.10566000000E+00 0.  1.
        -13    1    4    4    0    0  0.65718677412E+01  0.13685407017E+02  0.44077019855E+03  0.44103158493E+03  0.10566000000E+00 0.  1.
        -14    1    4    4    0    0  0.45472595742E+01  0.96070722548E+01  0.34054411195E+03  0.34070994349E+03  0.00000000000E+00 0.  1.
<mgrwt>
<rscale>  0 0.79641630E+02</rscale>
<asrwt>0</asrwt>
<pdfrwt beam="1">  1        1 0.23994069E-03 0.79641630E+02</pdfrwt>
<pdfrwt beam="2">  1       -2 0.15641906E+00 0.79641630E+02</pdfrwt>
<totfact> 0.25874135E+04</totfact>
</mgrwt>
</event>
<event>
 8    1  0.8577104E-018  0.7908733E+02  0.7818608E-02  0.1331662E+00
         -2   -1    0    0    0  501 -0.00000000000E+00  0.00000000000E+00  0.29030994638E+02  0.29030994750E+02  0.25500000000E-02 0.  1.
          1   -1    0    0  501    0  0.00000000000E+00 -0.00000000000E+00 -0.53863169034E+02  0.53863169270E+02  0.50400000000E-02 0. -1.
        -24    2    1    2    0    0  0.00000000000E+00 -0.35527136788E-14 -0.24832174396E+02  0.82894164020E+02  0.79087328589E+02 0.  0.
         66    2    3    3    0    0 -0.20883651277E+02 -0.22061663091E+02  0.14068154655E+02  0.33537395150E+02  0.20000072736E+01 0.  0.
         13    1    3    3    0    0  0.20883651277E+02  0.22061663091E+02 -0.38900329050E+02  0.49356768870E+02  0.10566000000E+00 0. -1.
         13    1    4    4    0    0 -0.58600587354E+01 -0.71658502157E+01  0.43860411185E+01  0.10243935690E+02  0.10566000000E+00 0. -1.
        -13    1    4    4    0    0 -0.14135383898E+02 -0.13730713950E+02  0.92231647502E+01  0.21758205706E+02  0.10566000000E+00 0.  1.
         14    1    4    4    0    0 -0.88820864336E+00 -0.11650989256E+01  0.45894878577E+00  0.15352537538E+01  0.00000000000E+00 0. -1.
<mgrwt>
<rscale>  0 0.79087329E+02</rscale>
<asrwt>0</asrwt>
<pdfrwt beam="1">  1        1 0.82866414E-02 0.79087329E+02</pdfrwt>
<pdfrwt beam="2">  1       -2 0.44663069E-02 0.79087329E+02</pdfrwt>
<totfact> 0.13741314E+05</totfact>
</mgrwt>
</event>
<event>
 8    1  0.8577104E-018  0.7763673E+02  0.7818608E-02  0.1335895E+00
          1   -1    0    0  501    0  0.00000000000E+00  0.00000000000E+00  0.37538165505E+02  0.37538165843E+02  0.50400000000E-02 0. -1.
         -2   -1    0    0    0  501 -0.00000000000E+00 -0.00000000000E+00 -0.40142220404E+02  0.40142220485E+02  0.25500000000E-02 0.  1.
        -24    2    1    2    0    0 -0.35527136788E-14  0.44408920985E-15 -0.26040548989E+01  0.77680386328E+02  0.77636726607E+02 0.  0.
         66    2    3    3    0    0  0.27158737129E+02 -0.39173173187E+01 -0.28739433235E+02  0.39785643392E+02  0.20000049931E+01 0.  0.
         13    1    3    3    0    0 -0.27158737129E+02  0.39173173187E+01  0.26135378336E+02  0.37894742937E+02  0.10566000000E+00 0. -1.
         13    1    4    4    0    0  0.18094270323E+02 -0.33932932802E+01 -0.19508569161E+02  0.26823730027E+02  0.10566000000E+00 0. -1.
        -13    1    4    4    0    0  0.56908562041E+01 -0.49890926378E+00 -0.54762958285E+01  0.79142741187E+01  0.10566000000E+00 0.  1.
         14    1    4    4    0    0  0.33736106021E+01 -0.25114774740E-01 -0.37545682454E+01  0.50476392458E+01  0.00000000000E+00 0. -1.
<mgrwt>
<rscale>  0 0.77636727E+02</rscale>
<asrwt>0</asrwt>
<pdfrwt beam="1">  1        1 0.57751024E-02 0.77636727E+02</pdfrwt>
<pdfrwt beam="2">  1       -2 0.61757263E-02 0.77636727E+02</pdfrwt>
<totfact> 0.13675372E+05</totfact>
</mgrwt>
</event>
<event>
 8    1  0.8577104E-018  0.8083477E+02  0.7818608E-02  0.1326699E+00
          1   -1    0    0  501    0  0.00000000000E+00  0.00000000000E+00  0.57381422268E+01  0.57381444402E+01  0.50400000000E-02 0. -1.
         -2   -1    0    0    0  501 -0.00000000000E+00 -0.00000000000E+00 -0.28468525799E+03  0.28468525801E+03  0.25500000000E-02 0.  1.
        -24    2    1    2    0    0  0.00000000000E+00  0.00000000000E+00 -0.27894711577E+03  0.29042340245E+03  0.80834765375E+02 0.  0.
         66    2    3    3    0    0 -0.13958371762E+02  0.24090309850E+02 -0.24469842919E+03  0.24628540445E+03  0.20000063757E+01 0.  0.
         13    1    3    3    0    0  0.13958371762E+02 -0.24090309850E+02 -0.34248686579E+02  0.44137997999E+02  0.10566000000E+00 0. -1.
         13    1    4    4    0    0 -0.56914810623E+01  0.88465076761E+01 -0.88878656409E+02  0.89499052419E+02  0.10566000000E+00 0. -1.
        -13    1    4    4    0    0 -0.68980914660E+01  0.12589999893E+02 -0.12471244216E+03  0.12553603529E+03  0.10566000000E+00 0.  1.
         14    1    4    4    0    0 -0.13687992334E+01  0.26538022816E+01 -0.31107330619E+02  0.31250316737E+02  0.00000000000E+00 0. -1.
<mgrwt>
<rscale>  0 0.80834765E+02</rscale>
<asrwt>0</asrwt>
<pdfrwt beam="1">  1        1 0.88279151E-03 0.80834765E+02</pdfrwt>
<pdfrwt beam="2">  1       -2 0.43797721E-01 0.80834765E+02</pdfrwt>
<totfact> 0.70350381E+04</totfact>
</mgrwt>
</event>
<event>
 8    1  0.8577104E-018  0.8500483E+02  0.7818608E-02  0.1315420E+00
          1   -1    0    0  501    0  0.00000000000E+00  0.00000000000E+00  0.13478563829E+03  0.13478563839E+03  0.50400000000E-02 0. -1.
         -2   -1    0    0    0  501 -0.00000000000E+00 -0.00000000000E+00 -0.13402430401E+02  0.13402430644E+02  0.25500000000E-02 0.  1.
        -24    2    1    2    0    0  0.00000000000E+00  0.14210854715E-13  0.12138320789E+03  0.14818806903E+03  0.85004827187E+02 0.  0.
         66    2    3    3    0    0 -0.18692177110E+02 -0.36482164481E+02  0.41304486883E+02  0.58227196798E+02  0.19999999969E+01 0.  0.
         13    1    3    3    0    0  0.18692177110E+02  0.36482164481E+02  0.80078721009E+02  0.89960872233E+02  0.10566000000E+00 0. -1.
         13    1    4    4    0    0 -0.69590511195E+00 -0.17283852414E+01  0.20307977518E+01  0.27580614590E+01  0.10566000000E+00 0. -1.
        -13    1    4    4    0    0 -0.68488256687E+01 -0.14500240191E+02  0.15304926861E+02  0.22167889590E+02  0.10566000000E+00 0.  1.
         14    1    4    4    0    0 -0.11147446330E+02 -0.20253539049E+02  0.23968762270E+02  0.33301245749E+02  0.00000000000E+00 0. -1.
<mgrwt>
<rscale>  0 0.85004827E+02</rscale>
<asrwt>0</asrwt>
<pdfrwt beam="1">  1        1 0.20736252E-01 0.85004827E+02</pdfrwt>
<pdfrwt beam="2">  1       -2 0.20619124E-02 0.85004827E+02</pdfrwt>
<totfact> 0.13152044E+05</totfact>
</mgrwt>
</event>
<event>
 8    1  0.8577104E-018  0.8182046E+02  0.7818608E-02  0.1323963E+00
          1   -1    0    0  501    0  0.00000000000E+00  0.00000000000E+00  0.64829354284E+02  0.64829354480E+02  0.50400000000E-02 0. -1.
         -2   -1    0    0    0  501 -0.00000000000E+00 -0.00000000000E+00 -0.25816190766E+02  0.25816190892E+02  0.25500000000E-02 0.  1.
        -24    2    1    2    0    0 -0.35527136788E-14  0.00000000000E+00  0.39013163518E+02  0.90645545372E+02  0.81820461794E+02 0.  0.
         66    2    3    3    0    0 -0.19966113317E+02  0.45403454983E+01 -0.19687826512E+02  0.28475795390E+02  0.19999980169E+01 0.  0.
         13    1    3    3    0    0  0.19966113317E+02 -0.45403454983E+01  0.58700990030E+02  0.62169749982E+02  0.10566000000E+00 0. -1.
         13    1    4    4    0    0 -0.96067827658E+00  0.10995517608E+00 -0.65376436177E+00  0.11719917953E+01  0.10566000000E+00 0. -1.
        -13    1    4    4    0    0 -0.12564947532E+02  0.28935512048E+01 -0.13569033717E+02  0.18718450392E+02  0.10566000000E+00 0.  1.
        -14    1    4    4    0    0 -0.64404875092E+01  0.15368391174E+01 -0.54650284341E+01  0.85853532027E+01  0.00000000000E+00 0.  1.
<mgrwt>
<rscale>  0 0.81820462E+02</rscale>
<asrwt>0</asrwt>
<pdfrwt beam="1">  1        1 0.99737468E-02 0.81820462E+02</pdfrwt>
<pdfrwt beam="2">  1       -2 0.39717217E-02 0.81820462E+02</pdfrwt>
<totfact> 0.12881072E+05</totfact>
</mgrwt>
</event>
<event>
 8    1  0.8577104E-018  0.8480270E+02  0.7818608E-02  0.1315949E+00
          1   -1    0    0  501    0  0.00000000000E+00  0.00000000000E+00  0.23211372349E+02  0.23211372897E+02  0.50400000000E-02 0. -1.
         -2   -1    0    0    0  501 -0.00000000000E+00 -0.00000000000E+00 -0.77456611382E+02  0.77456611424E+02  0.25500000000E-02 0.  1.
        -24    2    1    2    0    0  0.00000000000E+00  0.17763568394E-14 -0.54245239033E+02  0.10066798432E+03  0.84802695178E+02 0.  0.
         66    2    3    3    0    0  0.35957249061E+02  0.81268386204E+01 -0.51950290536E+02  0.63732266937E+02  0.19999740607E+01 0.  0.
         13    1    3    3    0    0 -0.35957249061E+02 -0.81268386204E+01 -0.22949484969E+01  0.36935717383E+02  0.10566000000E+00 0. -1.
         13    1    4    4    0    0  0.10916191544E+02  0.30056606503E+01 -0.16861509713E+02  0.20310561479E+02  0.10566000000E+00 0. -1.
        -13    1    4    4    0    0  0.11842179679E+02  0.24299688150E+01 -0.17409427435E+02  0.21195313058E+02  0.10566000000E+00 0.  1.
        -14    1    4    4    0    0  0.13198877838E+02  0.26912091552E+01 -0.17679353388E+02  0.22226392400E+02  0.00000000000E+00 0.  1.
<mgrwt>
<rscale>  0 0.84802695E+02</rscale>
<asrwt>0</asrwt>
<pdfrwt beam="1">  1        1 0.35709804E-02 0.84802695E+02</pdfrwt>
<pdfrwt beam="2">  1       -2 0.11916402E-01 0.84802695E+02</pdfrwt>
<totfact> 0.96999036E+04</totfact>
</mgrwt>
</event>
<event>
 8    1  0.8577104E-018  0.7916981E+02  0.7818608E-02  0.1331424E+00
         -2   -1    0    0    0  501 -0.00000000000E+00  0.00000000000E+00  0.27513528964E+02  0.27513529082E+02  0.25500000000E-02 0.  1.
          1   -1    0    0  501    0  0.00000000000E+00 -0.00000000000E+00 -0.56952515872E+02  0.56952516095E+02  0.50400000000E-02 0. -1.
        -24    2    1    2    0    0 -0.44408920985E-15  0.71054273576E-14 -0.29438986908E+02  0.84466045177E+02  0.79169810140E+02 0.  0.
         66    2    3    3    0    0 -0.30977411534E+01  0.33459145649E+02  0.75447563732E+01  0.34496866086E+02  0.19999983028E+01 0.  0.
         13    1    3    3    0    0  0.30977411534E+01 -0.33459145649E+02 -0.36983743281E+02  0.49969179090E+02  0.10566000000E+00 0. -1.
         13    1    4    4    0    0 -0.70386145117E+00  0.10062816184E+02  0.14493596405E+01  0.10191540506E+02  0.10566000000E+00 0. -1.
        -13    1    4    4    0    0 -0.18335751997E+01  0.16423183332E+02  0.40027229889E+01  0.17003408603E+02  0.10566000000E+00 0.  1.
         14    1    4    4    0    0 -0.56030450247E+00  0.69731461342E+01  0.20926737439E+01  0.73019169773E+01  0.00000000000E+00 0. -1.
<mgrwt>
<rscale>  0 0.79169810E+02</rscale>
<asrwt>0</asrwt>
<pdfrwt beam="1">  1        1 0.87619255E-02 0.79169810E+02</pdfrwt>
<pdfrwt beam="2">  1       -2 0.42328506E-02 0.79169810E+02</pdfrwt>
<totfact> 0.13820871E+05</totfact>
</mgrwt>
</event>
<event>
 8    1  0.8577104E-018  0.8015245E+02  0.7818608E-02  0.1328619E+00
         -2   -1    0    0    0  501 -0.00000000000E+00  0.00000000000E+00  0.20447246669E+02  0.20447246828E+02  0.25500000000E-02 0.  1.
          1   -1    0    0  501    0  0.00000000000E+00 -0.00000000000E+00 -0.78548659626E+02  0.78548659788E+02  0.50400000000E-02 0. -1.
        -24    2    1    2    0    0  0.00000000000E+00  0.00000000000E+00 -0.58101412957E+02  0.98995906616E+02  0.80152450612E+02 0.  0.
         66    2    3    3    0    0  0.29717817768E+02 -0.24024098698E+02 -0.14258265021E+02  0.40836308989E+02  0.19999998153E+01 0.  0.
         13    1    3    3    0    0 -0.29717817768E+02  0.24024098698E+02 -0.43843147936E+02  0.58159597627E+02  0.10566000000E+00 0. -1.
         13    1    4    4    0    0  0.32837163809E+01 -0.33936307585E+01 -0.19500169779E+01  0.51101128407E+01  0.10566000000E+00 0. -1.
        -13    1    4    4    0    0  0.21452062705E+02 -0.16653364342E+02 -0.96881273132E+01  0.28833947234E+02  0.10566000000E+00 0.  1.
         14    1    4    4    0    0  0.49820386823E+01 -0.39771035977E+01 -0.26201207301E+01  0.68922489144E+01  0.00000000000E+00 0. -1.
<mgrwt>
<rscale>  0 0.80152451E+02</rscale>
<asrwt>0</asrwt>
<pdfrwt beam="1">  1        1 0.12084409E-01 0.80152451E+02</pdfrwt>
<pdfrwt beam="2">  1       -2 0.31457303E-02 0.80152451E+02</pdfrwt>
<totfact> 0.14054589E+05</totfact>
</mgrwt>
</event>
<event>
 8    1  0.8577104E-018  0.8091242E+02  0.7818608E-02  0.1326482E+00
          1   -1    0    0  501    0  0.00000000000E+00  0.00000000000E+00  0.25114775378E+01  0.25114825949E+01  0.50400000000E-02 0. -1.
         -2   -1    0    0    0  501 -0.00000000000E+00 -0.00000000000E+00 -0.65168934862E+03  0.65168934862E+03  0.25500000000E-02 0.  1.
        -24    2    1    2    0    0  0.00000000000E+00  0.00000000000E+00 -0.64917787108E+03  0.65420083122E+03  0.80912417255E+02 0.  0.
         66    2    3    3    0    0  0.99238615012E+01 -0.35746502992E+02 -0.45475750788E+03  0.45627260106E+03  0.19999999853E+01 0.  0.
         13    1    3    3    0    0 -0.99238615012E+01  0.35746502992E+02 -0.19442036320E+03  0.19792823016E+03  0.10566000000E+00 0. -1.
         13    1    4    4    0    0  0.17082866444E+01 -0.56395172901E+01 -0.67979673821E+02  0.68234665790E+02  0.10566000000E+00 0. -1.
        -13    1    4    4    0    0  0.63721912950E+01 -0.21255739898E+02 -0.26932045411E+03  0.27023310209E+03  0.10566000000E+00 0.  1.
         14    1    4    4    0    0  0.18433835618E+01 -0.88512458033E+01 -0.11745737995E+03  0.11780483318E+03  0.00000000000E+00 0. -1.
<mgrwt>
<rscale>  0 0.80912417E+02</rscale>
<asrwt>0</asrwt>
<pdfrwt beam="1">  1        1 0.38638207E-03 0.80912417E+02</pdfrwt>
<pdfrwt beam="2">  1       -2 0.10025977E+00 0.80912417E+02</pdfrwt>
<totfact> 0.39259917E+04</totfact>
</mgrwt>
</event>
<event>
 8    1  0.8577104E-018  0.8120332E+02  0.7818608E-02  0.1325671E+00
         -2   -1    0    0    0  501 -0.00000000000E+00  0.00000000000E+00  0.70726838941E+01  0.70726843538E+01  0.25500000000E-02 0.  1.
          1   -1    0    0  501    0  0.00000000000E+00 -0.00000000000E+00 -0.23307911283E+03  0.23307911288E+03  0.50400000000E-02 0. -1.
        -24    2    1    2    0    0  0.00000000000E+00 -0.71054273576E-14 -0.22600642894E+03  0.24015179724E+03  0.81203323802E+02 0.  0.
         66    2    3    3    0    0  0.16381970894E+02 -0.37045135510E+02 -0.12018101034E+03  0.12683921444E+03  0.20000095521E+01 0.  0.
         13    1    3    3    0    0 -0.16381970894E+02  0.37045135510E+02 -0.10582541860E+03  0.11331258280E+03  0.10566000000E+00 0. -1.
         13    1    4    4    0    0  0.12388993753E+02 -0.27124956687E+02 -0.86573312363E+02  0.91565277365E+02  0.10566000000E+00 0. -1.
        -13    1    4    4    0    0  0.36817730166E+01 -0.94836689046E+01 -0.32107901645E+02  0.33681210496E+02  0.10566000000E+00 0.  1.
         14    1    4    4    0    0  0.31120412424E+00 -0.43650991812E+00 -0.14997963312E+01  0.15927265775E+01  0.00000000000E+00 0. -1.
<mgrwt>
<rscale>  0 0.81203324E+02</rscale>
<asrwt>0</asrwt>
<pdfrwt beam="1">  1        1 0.35858319E-01 0.81203324E+02</pdfrwt>
<pdfrwt beam="2">  1       -2 0.10881054E-02 0.81203324E+02</pdfrwt>
<totfact> 0.16512582E+05</totfact>
</mgrwt>
</event>
<event>
 8    1  0.8577104E-018  0.7918060E+02  0.7818608E-02  0.1331393E+00
         -2   -1    0    0    0  501 -0.00000000000E+00  0.00000000000E+00  0.37192828796E+02  0.37192828883E+02  0.25500000000E-02 0.  1.
          1   -1    0    0  501    0  0.00000000000E+00 -0.00000000000E+00 -0.42142317625E+02  0.42142317927E+02  0.50400000000E-02 0. -1.
        -24    2    1    2    0    0  0.00000000000E+00  0.00000000000E+00 -0.49494888292E+01  0.79335146810E+02  0.79180604189E+02 0.  0.
         66    2    3    3    0    0 -0.17693028768E+02  0.12853069621E+02  0.30559877325E+02  0.37631778668E+02  0.19999994787E+01 0.  0.
         13    1    3    3    0    0  0.17693028768E+02 -0.12853069621E+02 -0.35509366154E+02  0.41703368142E+02  0.10566000000E+00 0. -1.
         13    1    4    4    0    0 -0.82194199011E+01  0.67180852016E+01  0.16010059955E+02  0.19210016036E+02  0.10566000000E+00 0. -1.
        -13    1    4    4    0    0 -0.50635347858E+01  0.35748232535E+01  0.79120468192E+01  0.10051387701E+02  0.10566000000E+00 0.  1.
         14    1    4    4    0    0 -0.44100740814E+01  0.25601611656E+01  0.66377705506E+01  0.83703749307E+01  0.00000000000E+00 0. -1.
<mgrwt>
<rscale>  0 0.79180604E+02</rscale>
<asrwt>0</asrwt>
<pdfrwt beam="1">  1        1 0.64834335E-02 0.79180604E+02</pdfrwt>
<pdfrwt beam="2">  1       -2 0.57219737E-02 0.79180604E+02</pdfrwt>
<totfact> 0.13180213E+05</totfact>
</mgrwt>
</event>
<event>
 8    1  0.8577104E-018  0.8032584E+02  0.7818608E-02  0.1328129E+00
         -2   -1    0    0    0  501 -0.00000000000E+00  0.00000000000E+00  0.93110740470E+01  0.93110743962E+01  0.25500000000E-02 0.  1.
          1   -1    0    0  501    0  0.00000000000E+00 -0.00000000000E+00 -0.17324102541E+03  0.17324102548E+03  0.50400000000E-02 0. -1.
        -24    2    1    2    0    0  0.00000000000E+00  0.00000000000E+00 -0.16392995136E+03  0.18255209988E+03  0.80325837789E+02 0.  0.
         66    2    3    3    0    0  0.97055528510E+01  0.32757122561E+02 -0.34137311676E+02  0.48338213431E+02  0.19999986605E+01 0.  0.
         13    1    3    3    0    0 -0.97055528510E+01 -0.32757122561E+02 -0.12979263969E+03  0.13421388645E+03  0.10566000000E+00 0. -1.
         13    1    4    4    0    0  0.57306260020E+01  0.20400226071E+02 -0.21229231548E+02  0.29995011823E+02  0.10566000000E+00 0. -1.
        -13    1    4    4    0    0  0.31369525610E+01  0.10636393359E+02 -0.11424197060E+02  0.15921582132E+02  0.10566000000E+00 0.  1.
         14    1    4    4    0    0  0.83797428810E+00  0.17205031301E+01 -0.14838830676E+01  0.24216194760E+01  0.00000000000E+00 0. -1.
<mgrwt>
<rscale>  0 0.80325838E+02</rscale>
<asrwt>0</asrwt>
<pdfrwt beam="1">  1        1 0.26652463E-01 0.80325838E+02</pdfrwt>
<pdfrwt beam="2">  1       -2 0.14324731E-02 0.80325838E+02</pdfrwt>
<totfact> 0.16045004E+05</totfact>
</mgrwt>
</event>
<event>
 8    1  0.8577104E-018  0.8018874E+02  0.7818608E-02  0.1328517E+00
          1   -1    0    0  501    0  0.00000000000E+00  0.00000000000E+00  0.18038748908E+02  0.18038749612E+02  0.50400000000E-02 0. -1.
         -2   -1    0    0    0  501 -0.00000000000E+00 -0.00000000000E+00 -0.89116954963E+02  0.89116954999E+02  0.25500000000E-02 0.  1.
        -24    2    1    2    0    0  0.71054273576E-14  0.35527136788E-14 -0.71078206055E+02  0.10715570461E+03  0.80188737705E+02 0.  0.
         66    2    3    3    0    0 -0.24878661914E+02 -0.18949667881E+02 -0.69035658482E+02  0.75815301039E+02  0.19999995495E+01 0.  0.
         13    1    3    3    0    0  0.24878661914E+02  0.18949667881E+02 -0.20425475728E+01  0.31340403572E+02  0.10566000000E+00 0. -1.
         13    1    4    4    0    0 -0.16176126160E+01 -0.78149813729E+00 -0.44673092448E+01  0.48161629787E+01  0.10566000000E+00 0. -1.
        -13    1    4    4    0    0 -0.60526282774E+01 -0.45479038204E+01 -0.17312834655E+02  0.18896114576E+02  0.10566000000E+00 0.  1.
        -14    1    4    4    0    0 -0.17208421021E+02 -0.13620265923E+02 -0.47255514582E+02  0.52103023485E+02  0.00000000000E+00 0.  1.
<mgrwt>
<rscale>  0 0.80188738E+02</rscale>
<asrwt>0</asrwt>
<pdfrwt beam="1">  1        1 0.27751922E-02 0.80188738E+02</pdfrwt>
<pdfrwt beam="2">  1       -2 0.13710301E-01 0.80188738E+02</pdfrwt>
<totfact> 0.10844289E+05</totfact>
</mgrwt>
</event>
<event>
 8    1  0.8577104E-018  0.7906378E+02  0.7818608E-02  0.1331729E+00
         -2   -1    0    0    0  501 -0.00000000000E+00  0.00000000000E+00  0.91450611608E+01  0.91450615163E+01  0.25500000000E-02 0.  1.
          1   -1    0    0  501    0  0.00000000000E+00 -0.00000000000E+00 -0.17088679972E+03  0.17088679979E+03  0.50400000000E-02 0. -1.
        -24    2    1    2    0    0  0.00000000000E+00  0.00000000000E+00 -0.16174173855E+03  0.18003186131E+03  0.79063778651E+02 0.  0.
         66    2    3    3    0    0 -0.32569745564E+02 -0.21980100749E+02 -0.71574879594E+02  0.81675434094E+02  0.19999976416E+01 0.  0.
         13    1    3    3    0    0  0.32569745564E+02  0.21980100749E+02 -0.90166858961E+02  0.98356427212E+02  0.10566000000E+00 0. -1.
         13    1    4    4    0    0 -0.68157486931E+01 -0.39186014828E+01 -0.14985071836E+02  0.16922571016E+02  0.10566000000E+00 0. -1.
        -13    1    4    4    0    0 -0.15499360216E+02 -0.10359373951E+02 -0.34077038170E+02  0.38843306891E+02  0.10566000000E+00 0.  1.
        -14    1    4    4    0    0 -0.10254636654E+02 -0.77021253145E+01 -0.22512769589E+02  0.25909556187E+02  0.00000000000E+00 0.  1.
<mgrwt>
<rscale>  0 0.79063779E+02</rscale>
<asrwt>0</asrwt>
<pdfrwt beam="1">  1        1 0.26290274E-01 0.79063779E+02</pdfrwt>
<pdfrwt beam="2">  1       -2 0.14069326E-02 0.79063779E+02</pdfrwt>
<totfact> 0.16692761E+05</totfact>
</mgrwt>
</event>
<event>
 8    1  0.8577104E-018  0.7974420E+02  0.7818608E-02  0.1329779E+00
          1   -1    0    0  501    0  0.00000000000E+00  0.00000000000E+00  0.48748007421E+02  0.48748007682E+02  0.50400000000E-02 0. -1.
         -2   -1    0    0    0  501 -0.00000000000E+00 -0.00000000000E+00 -0.32612290470E+02  0.32612290570E+02  0.25500000000E-02 0.  1.
        -24    2    1    2    0    0  0.35527136788E-14  0.00000000000E+00  0.16135716951E+02  0.81360298251E+02  0.79744195839E+02 0.  0.
         66    2    3    3    0    0 -0.28741688106E+02 -0.19081574011E+02 -0.12270790871E+02  0.36671015950E+02  0.20000000694E+01 0.  0.
         13    1    3    3    0    0  0.28741688106E+02  0.19081574011E+02  0.28406507822E+02  0.44689282301E+02  0.10566000000E+00 0. -1.
         13    1    4    4    0    0 -0.21685075422E+02 -0.13959283416E+02 -0.95887463092E+01  0.27514710781E+02  0.10566000000E+00 0. -1.
        -13    1    4    4    0    0 -0.36145893990E+01 -0.27647252716E+01 -0.17819983833E+01  0.48883171566E+01  0.10566000000E+00 0.  1.
         14    1    4    4    0    0 -0.34420232851E+01 -0.23575653237E+01 -0.90004617866E+00  0.42679880125E+01  0.00000000000E+00 0. -1.
<mgrwt>
<rscale>  0 0.79744196E+02</rscale>
<asrwt>0</asrwt>
<pdfrwt beam="1">  1        1 0.74996935E-02 0.79744196E+02</pdfrwt>
<pdfrwt beam="2">  1       -2 0.50172755E-02 0.79744196E+02</pdfrwt>
<totfact> 0.13222090E+05</totfact>
</mgrwt>
</event>
<event>
 8    1  0.8577104E-018  0.7880109E+02  0.7818608E-02  0.1332489E+00
         -2   -1    0    0    0  501 -0.00000000000E+00  0.00000000000E+00  0.29896220279E+02  0.29896220388E+02  0.25500000000E-02 0.  1.
          1   -1    0    0  501    0  0.00000000000E+00 -0.00000000000E+00 -0.51926398845E+02  0.51926399090E+02  0.50400000000E-02 0. -1.
        -24    2    1    2    0    0 -0.22204460493E-15  0.17763568394E-14 -0.22030178566E+02  0.81822619478E+02  0.78801093207E+02 0.  0.
         66    2    3    3    0    0 -0.14482891980E+01 -0.13987052039E+02  0.27166628368E+02  0.30655519278E+02  0.19999997544E+01 0.  0.
         13    1    3    3    0    0  0.14482891980E+01  0.13987052039E+02 -0.49196806934E+02  0.51167100200E+02  0.10566000000E+00 0. -1.
         13    1    4    4    0    0  0.17029746419E-01 -0.27219751807E+01  0.56601352735E+01  0.62815391623E+01  0.10566000000E+00 0. -1.
        -13    1    4    4    0    0 -0.14190217158E+01 -0.83381949741E+01  0.17191118831E+02  0.19159458467E+02  0.10566000000E+00 0.  1.
         14    1    4    4    0    0 -0.46297228592E-01 -0.29268818840E+01  0.43153742633E+01  0.52145216490E+01  0.00000000000E+00 0. -1.
<mgrwt>
<rscale>  0 0.78801093E+02</rscale>
<asrwt>0</asrwt>
<pdfrwt beam="1">  1        1 0.79886768E-02 0.78801093E+02</pdfrwt>
<pdfrwt beam="2">  1       -2 0.45994185E-02 0.78801093E+02</pdfrwt>
<totfact> 0.13801360E+05</totfact>
</mgrwt>
</event>
<event>
 8    1  0.8577104E-018  0.8015117E+02  0.7818608E-02  0.1328623E+00
         -2   -1    0    0    0  501 -0.00000000000E+00  0.00000000000E+00  0.55622023673E+01  0.55622029518E+01  0.25500000000E-02 0.  1.
          1   -1    0    0  501    0  0.00000000000E+00 -0.00000000000E+00 -0.28874393954E+03  0.28874393958E+03  0.50400000000E-02 0. -1.
        -24    2    1    2    0    0  0.00000000000E+00  0.00000000000E+00 -0.28318173717E+03  0.29430614253E+03  0.80151165095E+02 0.  0.
         66    2    3    3    0    0 -0.22112944986E+02  0.30607214190E+02 -0.92653441606E+02  0.10007219475E+03  0.20000061003E+01 0.  0.
         13    1    3    3    0    0  0.22112944986E+02 -0.30607214190E+02 -0.19052829556E+03  0.19423394778E+03  0.10566000000E+00 0. -1.
         13    1    4    4    0    0 -0.12561944022E+01  0.15201672628E+01 -0.54967954514E+01  0.58407925107E+01  0.10566000000E+00 0. -1.
        -13    1    4    4    0    0 -0.17052618999E+02  0.22823372581E+02 -0.68753872357E+02  0.74423143435E+02  0.10566000000E+00 0.  1.
         14    1    4    4    0    0 -0.38041315844E+01  0.62636743464E+01 -0.18402773797E+02  0.19808258804E+02  0.00000000000E+00 0. -1.
<mgrwt>
<rscale>  0 0.80151165E+02</rscale>
<asrwt>0</asrwt>
<pdfrwt beam="1">  1        1 0.44422133E-01 0.80151165E+02</pdfrwt>
<pdfrwt beam="2">  1       -2 0.85572371E-03 0.80151165E+02</pdfrwt>
<totfact> 0.17821086E+05</totfact>
</mgrwt>
</event>
<event>
 8    1  0.8577104E-018  0.7899418E+02  0.7818608E-02  0.1331930E+00
         -2   -1    0    0    0  501 -0.00000000000E+00  0.00000000000E+00  0.25849949930E+02  0.25849950056E+02  0.25500000000E-02 0.  1.
          1   -1    0    0  501    0  0.00000000000E+00 -0.00000000000E+00 -0.60349063097E+02  0.60349063307E+02  0.50400000000E-02 0. -1.
        -24    2    1    2    0    0  0.71054273576E-14 -0.17763568394E-14 -0.34499113167E+02  0.86199013363E+02  0.78994183934E+02 0.  0.
         66    2    3    3    0    0 -0.31307149809E+02  0.12300716939E+02  0.52767417826E+01  0.34107026768E+02  0.20000011793E+01 0.  0.
         13    1    3    3    0    0  0.31307149809E+02 -0.12300716939E+02 -0.39775854949E+02  0.52091986595E+02  0.10566000000E+00 0. -1.
         13    1    4    4    0    0 -0.18780287212E+00  0.17711701093E+00  0.81718193047E-01  0.29065830973E+00  0.10566000000E+00 0. -1.
        -13    1    4    4    0    0 -0.21770789156E+02  0.88260172666E+01  0.32790074750E+01  0.23719799648E+02  0.10566000000E+00 0.  1.
         14    1    4    4    0    0 -0.93485577813E+01  0.32975826613E+01  0.19160161146E+01  0.10096568811E+02  0.00000000000E+00 0. -1.
<mgrwt>
<rscale>  0 0.78994184E+02</rscale>
<asrwt>0</asrwt>
<pdfrwt beam="1">  1        1 0.92844713E-02 0.78994184E+02</pdfrwt>
<pdfrwt beam="2">  1       -2 0.39769154E-02 0.78994184E+02</pdfrwt>
<totfact> 0.14031065E+05</totfact>
</mgrwt>
</event>
<event>
 8    1  0.8577104E-018  0.7758806E+02  0.7818608E-02  0.1336039E+00
         -2   -1    0    0    0  501 -0.00000000000E+00  0.00000000000E+00  0.54045220938E+02  0.54045220998E+02  0.25500000000E-02 0.  1.
          1   -1    0    0  501    0  0.00000000000E+00 -0.00000000000E+00 -0.27846620111E+02  0.27846620567E+02  0.50400000000E-02 0. -1.
        -24    2    1    2    0    0 -0.71054273576E-14 -0.35527136788E-14  0.26198600827E+02  0.81891841564E+02  0.77588059839E+02 0.  0.
         66    2    3    3    0    0  0.30520670779E+02  0.23733309477E+02  0.16128636782E+02  0.41939411558E+02  0.19999984633E+01 0.  0.
         13    1    3    3    0    0 -0.30520670779E+02 -0.23733309477E+02  0.10069964045E+02  0.39952430006E+02  0.10566000000E+00 0. -1.
         13    1    4    4    0    0  0.15123495220E+01  0.84705279788E+00  0.78080138131E+00  0.19040783471E+01  0.10566000000E+00 0. -1.
        -13    1    4    4    0    0  0.17666393265E+02  0.13058323091E+02  0.90612111494E+01  0.23764216050E+02  0.10566000000E+00 0.  1.
        -14    1    4    4    0    0  0.11341927992E+02  0.98279335872E+01  0.62866242514E+01  0.16271117160E+02  0.00000000000E+00 0.  1.
<mgrwt>
<rscale>  0 0.77588060E+02</rscale>
<asrwt>0</asrwt>
<pdfrwt beam="1">  1        1 0.42840954E-02 0.77588060E+02</pdfrwt>
<pdfrwt beam="2">  1       -2 0.83146494E-02 0.77588060E+02</pdfrwt>
<totfact> 0.13034354E+05</totfact>
</mgrwt>
</event>
<event>
 8    1  0.8577104E-018  0.8303221E+02  0.7818608E-02  0.1320660E+00
          1   -1    0    0  501    0  0.00000000000E+00  0.00000000000E+00  0.17399892406E+03  0.17399892413E+03  0.50400000000E-02 0. -1.
         -2   -1    0    0    0  501 -0.00000000000E+00 -0.00000000000E+00 -0.99057333607E+01  0.99057336889E+01  0.25500000000E-02 0.  1.
        -24    2    1    2    0    0  0.71054273576E-14 -0.17763568394E-14  0.16409319070E+03  0.18390465782E+03  0.83032210224E+02 0.  0.
         66    2    3    3    0    0  0.35179588437E+02 -0.15016901357E+02  0.46485684624E+02  0.60233127475E+02  0.20000003683E+01 0.  0.
         13    1    3    3    0    0 -0.35179588437E+02  0.15016901357E+02  0.11760750607E+03  0.12367153034E+03  0.10566000000E+00 0. -1.
         13    1    4    4    0    0  0.55941656153E+01 -0.25032241155E+01  0.65661792473E+01  0.89825772386E+01  0.10566000000E+00 0. -1.
        -13    1    4    4    0    0  0.24802223342E+02 -0.10185078604E+02  0.33752809097E+02  0.43106257027E+02  0.10566000000E+00 0.  1.
        -14    1    4    4    0    0  0.47831994803E+01 -0.23285986372E+01  0.61666962792E+01  0.81442932095E+01  0.00000000000E+00 0.  1.
<mgrwt>
<rscale>  0 0.83032210E+02</rscale>
<asrwt>0</asrwt>
<pdfrwt beam="1">  1        1 0.26769067E-01 0.83032210E+02</pdfrwt>
<pdfrwt beam="2">  1       -2 0.15239589E-02 0.83032210E+02</pdfrwt>
<totfact> 0.14698899E+05</totfact>
</mgrwt>
</event>
<event>
 8    1  0.8577104E-018  0.7879123E+02  0.7818608E-02  0.1332517E+00
          1   -1    0    0  501    0  0.00000000000E+00  0.00000000000E+00  0.24912911351E+03  0.24912911357E+03  0.50400000000E-02 0. -1.
         -2   -1    0    0    0  501 -0.00000000000E+00 -0.00000000000E+00 -0.62297596389E+01  0.62297601608E+01  0.25500000000E-02 0.  1.
        -24    2    1    2    0    0 -0.35527136788E-14  0.00000000000E+00  0.24289935388E+03  0.25535887373E+03  0.78791232238E+02 0.  0.
         66    2    3    3    0    0 -0.17030298104E+02 -0.32804151738E+02  0.77581238837E+02  0.85959246370E+02  0.19999980216E+01 0.  0.
         13    1    3    3    0    0  0.17030298104E+02  0.32804151738E+02  0.16531811504E+03  0.16939962736E+03  0.10566000000E+00 0. -1.
         13    1    4    4    0    0 -0.93659161585E+00 -0.11222957807E+01  0.27014845001E+01  0.30734238585E+01  0.10566000000E+00 0. -1.
        -13    1    4    4    0    0 -0.12596120857E+02 -0.24302697140E+02  0.57863285891E+02  0.64011361234E+02  0.10566000000E+00 0.  1.
         14    1    4    4    0    0 -0.34975856316E+01 -0.73791588182E+01  0.17016468446E+02  0.18874461277E+02  0.00000000000E+00 0. -1.
<mgrwt>
<rscale>  0 0.78791232E+02</rscale>
<asrwt>0</asrwt>
<pdfrwt beam="1">  1        1 0.38327552E-01 0.78791232E+02</pdfrwt>
<pdfrwt beam="2">  1       -2 0.95842469E-03 0.78791232E+02</pdfrwt>
<totfact> 0.18117802E+05</totfact>
</mgrwt>
</event>
<event>
 8    1  0.8577104E-018  0.8177124E+02  0.7818608E-02  0.1324099E+00
         -2   -1    0    0    0  501 -0.00000000000E+00  0.00000000000E+00  0.25148321690E+02  0.25148321820E+02  0.25500000000E-02 0.  1.
          1   -1    0    0  501    0  0.00000000000E+00 -0.00000000000E+00 -0.66470999764E+02  0.66470999956E+02  0.50400000000E-02 0. -1.
        -24    2    1    2    0    0  0.00000000000E+00  0.00000000000E+00 -0.41322678074E+02  0.91619321775E+02  0.81771244330E+02 0.  0.
         66    2    3    3    0    0 -0.82456786070E+01 -0.20592020360E+02  0.17775471096E+02  0.28495436299E+02  0.19999997475E+01 0.  0.
         13    1    3    3    0    0  0.82456786070E+01  0.20592020360E+02 -0.59098149171E+02  0.63123885476E+02  0.10566000000E+00 0. -1.
         13    1    4    4    0    0 -0.53510344828E+00 -0.19791283626E+01  0.10978845256E+01  0.23280462287E+01  0.10566000000E+00 0. -1.
        -13    1    4    4    0    0 -0.39851277129E+00 -0.97834524619E+00  0.10897857603E+01  0.15214364557E+01  0.10566000000E+00 0.  1.
        -14    1    4    4    0    0 -0.73120623874E+01 -0.17634546751E+02  0.15587800810E+02  0.24645953615E+02  0.00000000000E+00 0.  1.
<mgrwt>
<rscale>  0 0.81771244E+02</rscale>
<asrwt>0</asrwt>
<pdfrwt beam="1">  1        1 0.10226308E-01 0.81771244E+02</pdfrwt>
<pdfrwt beam="2">  1       -2 0.38689726E-02 0.81771244E+02</pdfrwt>
<totfact> 0.12954161E+05</totfact>
</mgrwt>
</event>
<event>
 8    1  0.8577104E-018  0.7926238E+02  0.7818608E-02  0.1331158E+00
          1   -1    0    0  501    0  0.00000000000E+00  0.00000000000E+00  0.19103622464E+03  0.19103622470E+03  0.50400000000E-02 0. -1.
         -2   -1    0    0    0  501 -0.00000000000E+00 -0.00000000000E+00 -0.82216406068E+01  0.82216410023E+01  0.25500000000E-02 0.  1.
        -24    2    1    2    0    0  0.35527136788E-14  0.00000000000E+00  0.18281458403E+03  0.19925786570E+03  0.79262380178E+02 0.  0.
         66    2    3    3    0    0  0.27916687225E+02 -0.22131790680E+02  0.47961839430E+02  0.59778722195E+02  0.20000003500E+01 0.  0.
         13    1    3    3    0    0 -0.27916687225E+02  0.22131790680E+02  0.13485274460E+03  0.13947914351E+03  0.10566000000E+00 0. -1.
         13    1    4    4    0    0  0.11324961234E+02 -0.87524961947E+01  0.20276921500E+02  0.24819863943E+02  0.10566000000E+00 0. -1.
        -13    1    4    4    0    0  0.77090180423E+01 -0.66425455385E+01  0.13994010715E+02  0.17303059566E+02  0.10566000000E+00 0.  1.
        -14    1    4    4    0    0  0.88827079489E+01 -0.67367489473E+01  0.13690907215E+02  0.17655798687E+02  0.00000000000E+00 0.  1.
<mgrwt>
<rscale>  0 0.79262380E+02</rscale>
<asrwt>0</asrwt>
<pdfrwt beam="1">  1        1 0.29390188E-01 0.79262380E+02</pdfrwt>
<pdfrwt beam="2">  1       -2 0.12648678E-02 0.79262380E+02</pdfrwt>
<totfact> 0.16938190E+05</totfact>
</mgrwt>
</event>
<event>
 8    1  0.8577104E-018  0.7896751E+02  0.7818608E-02  0.1332007E+00
         -2   -1    0    0    0  501 -0.00000000000E+00  0.00000000000E+00  0.31120931755E+03  0.31120931756E+03  0.25500000000E-02 0.  1.
          1   -1    0    0  501    0  0.00000000000E+00 -0.00000000000E+00 -0.50093828199E+01  0.50093853553E+01  0.50400000000E-02 0. -1.
        -24    2    1    2    0    0 -0.35527136788E-14  0.00000000000E+00  0.30619993473E+03  0.31621870291E+03  0.78967512591E+02 0.  0.
         66    2    3    3    0    0  0.20367917332E+02  0.32678342842E+02  0.18770004807E+03  0.19161950368E+03  0.19999995718E+01 0.  0.
         13    1    3    3    0    0 -0.20367917332E+02 -0.32678342842E+02  0.11849988666E+03  0.12459919923E+03  0.10566000000E+00 0. -1.
         13    1    4    4    0    0  0.12086772658E+01  0.24169274428E+01  0.14619669609E+02  0.14867694593E+02  0.10566000000E+00 0. -1.
        -13    1    4    4    0    0  0.20239055062E+01  0.26822739555E+01  0.17329908150E+02  0.17652979001E+02  0.10566000000E+00 0.  1.
        -14    1    4    4    0    0  0.17135334560E+02  0.27579141444E+02  0.15575047031E+03  0.15909883009E+03  0.00000000000E+00 0.  1.
<mgrwt>
<rscale>  0 0.78967513E+02</rscale>
<asrwt>0</asrwt>
<pdfrwt beam="1">  1        1 0.77067456E-03 0.78967513E+02</pdfrwt>
<pdfrwt beam="2">  1       -2 0.47878351E-01 0.78967513E+02</pdfrwt>
<totfact> 0.71213159E+04</totfact>
</mgrwt>
</event>
<event>
 8    1  0.8577104E-018  0.7941199E+02  0.7818608E-02  0.1330728E+00
         -2   -1    0    0    0  501 -0.00000000000E+00  0.00000000000E+00  0.12861170468E+03  0.12861170470E+03  0.25500000000E-02 0.  1.
          1   -1    0    0  501    0  0.00000000000E+00 -0.00000000000E+00 -0.12258340408E+02  0.12258341444E+02  0.50400000000E-02 0. -1.
        -24    2    1    2    0    0  0.00000000000E+00  0.00000000000E+00  0.11635336427E+03  0.14087004615E+03  0.79411992323E+02 0.  0.
         66    2    3    3    0    0 -0.38929713173E+02  0.67160161067E+01  0.64835139166E+02  0.75948816015E+02  0.19999858096E+01 0.  0.
         13    1    3    3    0    0  0.38929713173E+02 -0.67160161067E+01  0.51518225102E+02  0.64921230132E+02  0.10566000000E+00 0. -1.
         13    1    4    4    0    0 -0.12823547774E+01  0.55355231148E-01  0.21898062452E+01  0.25404553536E+01  0.10566000000E+00 0. -1.
        -13    1    4    4    0    0 -0.28832768629E+02  0.45042284536E+01  0.48478039306E+02  0.56583991374E+02  0.10566000000E+00 0.  1.
        -14    1    4    4    0    0 -0.88145897664E+01  0.21564324220E+01  0.14167293615E+02  0.16824369287E+02  0.00000000000E+00 0.  1.
<mgrwt>
<rscale>  0 0.79411992E+02</rscale>
<asrwt>0</asrwt>
<pdfrwt beam="1">  1        1 0.18858986E-02 0.79411992E+02</pdfrwt>
<pdfrwt beam="2">  1       -2 0.19786417E-01 0.79411992E+02</pdfrwt>
<totfact> 0.10104479E+05</totfact>
</mgrwt>
</event>
<event>
 8    1  0.8577104E-018  0.8239786E+02  0.7818608E-02  0.1322381E+00
          1   -1    0    0  501    0  0.00000000000E+00  0.00000000000E+00  0.30016931963E+02  0.30016932386E+02  0.50400000000E-02 0. -1.
         -2   -1    0    0    0  501 -0.00000000000E+00 -0.00000000000E+00 -0.56546484354E+02  0.56546484412E+02  0.25500000000E-02 0.  1.
        -24    2    1    2    0    0  0.17763568394E-14  0.00000000000E+00 -0.26529552391E+02  0.86563416798E+02  0.82397863915E+02 0.  0.
         66    2    3    3    0    0  0.10802432219E+02  0.33177694185E+02 -0.36238535004E+02  0.50345638834E+02  0.19999992715E+01 0.  0.
         13    1    3    3    0    0 -0.10802432219E+02 -0.33177694185E+02  0.97089826127E+01  0.36217777964E+02  0.10566000000E+00 0. -1.
         13    1    4    4    0    0  0.37821549517E+01  0.13787984378E+02 -0.15361208384E+02  0.20985497286E+02  0.10566000000E+00 0. -1.
        -13    1    4    4    0    0  0.33220346984E+01  0.10324992687E+02 -0.11344840031E+02  0.15695793956E+02  0.10566000000E+00 0.  1.
        -14    1    4    4    0    0  0.36982425688E+01  0.90647171198E+01 -0.95324865885E+01  0.13664347592E+02  0.00000000000E+00 0.  1.
<mgrwt>
<rscale>  0 0.82397864E+02</rscale>
<asrwt>0</asrwt>
<pdfrwt beam="1">  1        1 0.46179896E-02 0.82397864E+02</pdfrwt>
<pdfrwt beam="2">  1       -2 0.86994591E-02 0.82397864E+02</pdfrwt>
<totfact> 0.11108630E+05</totfact>
</mgrwt>
</event>
<event>
 8    1  0.8577104E-018  0.8433041E+02  0.7818608E-02  0.1317193E+00
          1   -1    0    0  501    0  0.00000000000E+00  0.00000000000E+00  0.19809103620E+02  0.19809104261E+02  0.50400000000E-02 0. -1.
         -2   -1    0    0    0  501 -0.00000000000E+00 -0.00000000000E+00 -0.89751898673E+02  0.89751898709E+02  0.25500000000E-02 0.  1.
        -24    2    1    2    0    0 -0.71054273576E-14 -0.11102230246E-15 -0.69942795053E+02  0.10956100297E+03  0.84330414395E+02 0.  0.
         66    2    3    3    0    0 -0.36644195271E+02 -0.90966842029E+00 -0.62002710972E+02  0.72055261503E+02  0.19999996982E+01 0.  0.
         13    1    3    3    0    0  0.36644195271E+02  0.90966842029E+00 -0.79400840811E+01  0.37505741467E+02  0.10566000000E+00 0. -1.
         13    1    4    4    0    0 -0.51699040005E+01  0.17142690872E+00 -0.79766642366E+01  0.95076616967E+01  0.10566000000E+00 0. -1.
        -13    1    4    4    0    0 -0.22107083080E+02 -0.59984927906E+00 -0.36827109216E+02  0.42957305301E+02  0.10566000000E+00 0.  1.
         14    1    4    4    0    0 -0.93672081912E+01 -0.48124604995E+00 -0.17198937519E+02  0.19590294506E+02  0.00000000000E+00 0. -1.
<mgrwt>
<rscale>  0 0.84330414E+02</rscale>
<asrwt>0</asrwt>
<pdfrwt beam="1">  1        1 0.30475545E-02 0.84330414E+02</pdfrwt>
<pdfrwt beam="2">  1       -2 0.13807984E-01 0.84330414E+02</pdfrwt>
<totfact> 0.95185232E+04</totfact>
</mgrwt>
</event>
<event>
 8    1  0.8577104E-018  0.7365399E+02  0.7818608E-02  0.1348091E+00
         -2   -1    0    0    0  501 -0.00000000000E+00  0.00000000000E+00  0.66284671122E+02  0.66284671171E+02  0.25500000000E-02 0.  1.
          1   -1    0    0  501    0  0.00000000000E+00 -0.00000000000E+00 -0.20460649424E+02  0.20460650045E+02  0.50400000000E-02 0. -1.
        -24    2    1    2    0    0 -0.35527136788E-14 -0.22204460493E-15  0.45824021698E+02  0.86745321216E+02  0.73653986914E+02 0.  0.
         66    2    3    3    0    0  0.16969513407E+02  0.14475146310E+01  0.61348548078E+02  0.63700109843E+02  0.19999897397E+01 0.  0.
         13    1    3    3    0    0 -0.16969513407E+02 -0.14475146310E+01 -0.15524526379E+02  0.23045211373E+02  0.10566000000E+00 0. -1.
         13    1    4    4    0    0  0.49806702316E+01  0.15296174035E+00  0.15607557868E+02  0.16384062374E+02  0.10566000000E+00 0.  1.
        -13    1    4    4    0    0  0.26570720944E+01  0.31848064275E+00  0.85418072945E+01  0.89518209280E+01  0.10566000000E+00 0. -1.
         14    1    4    4    0    0  0.93317710810E+01  0.97607224795E+00  0.37199182915E+02  0.38364226541E+02  0.00000000000E+00 0. -1.
<mgrwt>
<rscale>  0 0.73653987E+02</rscale>
<asrwt>0</asrwt>
<pdfrwt beam="1">  1        1 0.31477923E-02 0.73653987E+02</pdfrwt>
<pdfrwt beam="2">  1       -2 0.10197642E-01 0.73653987E+02</pdfrwt>
<totfact> 0.14320124E+05</totfact>
</mgrwt>
</event>
<event>
 8    1  0.8577104E-018  0.8473958E+02  0.7818608E-02  0.1316115E+00
         -2   -1    0    0    0  501 -0.00000000000E+00  0.00000000000E+00  0.12324616204E+03  0.12324616207E+03  0.25500000000E-02 0.  1.
          1   -1    0    0  501    0  0.00000000000E+00 -0.00000000000E+00 -0.14565964313E+02  0.14565965185E+02  0.50400000000E-02 0. -1.
        -24    2    1    2    0    0  0.00000000000E+00  0.35527136788E-14  0.10868019773E+03  0.13781212725E+03  0.84739583666E+02 0.  0.
         66    2    3    3    0    0 -0.93394355923E+00  0.21509924434E+02  0.11367223549E+03  0.11571052766E+03  0.19999977096E+01 0.  0.
         13    1    3    3    0    0  0.93394355923E+00 -0.21509924434E+02 -0.49920377567E+01  0.22101599596E+02  0.10566000000E+00 0. -1.
         13    1    4    4    0    0 -0.76792675449E+00  0.71591835744E+01  0.41181957500E+02  0.41806798593E+02  0.10566000000E+00 0. -1.
        -13    1    4    4    0    0  0.10321904357E+00  0.61678939767E+01  0.33444856897E+02  0.34009163282E+02  0.10566000000E+00 0.  1.
         14    1    4    4    0    0 -0.26923584832E+00  0.81828468825E+01  0.39045421089E+02  0.39894565784E+02  0.00000000000E+00 0. -1.
<mgrwt>
<rscale>  0 0.84739584E+02</rscale>
<asrwt>0</asrwt>
<pdfrwt beam="1">  1        1 0.22409177E-02 0.84739584E+02</pdfrwt>
<pdfrwt beam="2">  1       -2 0.18960948E-01 0.84739584E+02</pdfrwt>
<totfact> 0.86575209E+04</totfact>
</mgrwt>
</event>
<event>
 8    1  0.8577104E-018  0.7916662E+02  0.7818608E-02  0.1331433E+00
         -2   -1    0    0    0  501 -0.00000000000E+00  0.00000000000E+00  0.10258708976E+02  0.10258709293E+02  0.25500000000E-02 0.  1.
          1   -1    0    0  501    0  0.00000000000E+00 -0.00000000000E+00 -0.15273252121E+03  0.15273252129E+03  0.50400000000E-02 0. -1.
        -24    2    1    2    0    0  0.00000000000E+00  0.00000000000E+00 -0.14247381223E+03  0.16299123059E+03  0.79166622230E+02 0.  0.
         66    2    3    3    0    0  0.25006369402E+02 -0.12315810540E+02 -0.13493933815E+02  0.31033593820E+02  0.19999989095E+01 0.  0.
         13    1    3    3    0    0 -0.25006369402E+02  0.12315810540E+02 -0.12897987842E+03  0.13195763677E+03  0.10566000000E+00 0. -1.
         13    1    4    4    0    0  0.73990564369E+01 -0.36466652537E+01 -0.31290293465E+01  0.88230489240E+01  0.10566000000E+00 0. -1.
        -13    1    4    4    0    0  0.16754112092E+01 -0.58268049697E+00 -0.96158755952E+00  0.20204786442E+01  0.10566000000E+00 0.  1.
        -14    1    4    4    0    0  0.15931901756E+02 -0.80864647889E+01 -0.94033169093E+01  0.20190066251E+02  0.00000000000E+00 0.  1.
<mgrwt>
<rscale>  0 0.79166622E+02</rscale>
<asrwt>0</asrwt>
<pdfrwt beam="1">  1        1 0.23497309E-01 0.79166622E+02</pdfrwt>
<pdfrwt beam="2">  1       -2 0.15782631E-02 0.79166622E+02</pdfrwt>
<totfact> 0.16290266E+05</totfact>
</mgrwt>
</event>
<event>
 8    1  0.8577104E-018  0.8089279E+02  0.7818608E-02  0.1326537E+00
          1   -1    0    0  501    0  0.00000000000E+00  0.00000000000E+00  0.68158180161E+01  0.68158198795E+01  0.50400000000E-02 0. -1.
         -2   -1    0    0    0  501 -0.00000000000E+00 -0.00000000000E+00 -0.24001678337E+03  0.24001678338E+03  0.25500000000E-02 0.  1.
        -24    2    1    2    0    0 -0.35527136788E-14  0.35527136788E-14 -0.23320096535E+03  0.24683260326E+03  0.80892791963E+02 0.  0.
         66    2    3    3    0    0 -0.18739744877E+02  0.20283339324E+02 -0.20674153897E+03  0.20858728589E+03  0.20000018901E+01 0.  0.
         13    1    3    3    0    0  0.18739744877E+02 -0.20283339324E+02 -0.26459426379E+02  0.38245317367E+02  0.10566000000E+00 0. -1.
         13    1    4    4    0    0 -0.58199232693E+01  0.67239800172E+01 -0.70047324433E+02  0.70609646922E+02  0.10566000000E+00 0. -1.
        -13    1    4    4    0    0 -0.63265667388E+01  0.75638799431E+01 -0.70694460439E+02  0.71378957874E+02  0.10566000000E+00 0.  1.
        -14    1    4    4    0    0 -0.65932548686E+01  0.59954793636E+01 -0.65999754099E+02  0.66598681096E+02  0.00000000000E+00 0.  1.
<mgrwt>
<rscale>  0 0.80892792E+02</rscale>
<asrwt>0</asrwt>
<pdfrwt beam="1">  1        1 0.10485877E-02 0.80892792E+02</pdfrwt>
<pdfrwt beam="2">  1       -2 0.36925653E-01 0.80892792E+02</pdfrwt>
<totfact> 0.76384466E+04</totfact>
</mgrwt>
</event>
<event>
 8    1  0.8577104E-018  0.8094946E+02  0.7818608E-02  0.1326378E+00
         -2   -1    0    0    0  501 -0.00000000000E+00  0.00000000000E+00  0.32140242280E+02  0.32140242381E+02  0.25500000000E-02 0.  1.
          1   -1    0    0  501    0  0.00000000000E+00 -0.00000000000E+00 -0.50970490294E+02  0.50970490543E+02  0.50400000000E-02 0. -1.
        -24    2    1    2    0    0 -0.71054273576E-14  0.35527136788E-14 -0.18830248014E+02  0.83110732924E+02  0.80949463784E+02 0.  0.
         66    2    3    3    0    0  0.32452860784E+02 -0.20010268895E+02  0.44528806965E+01  0.38437314867E+02  0.19999983452E+01 0.  0.
         13    1    3    3    0    0 -0.32452860784E+02  0.20010268895E+02 -0.23283128711E+02  0.44673418057E+02  0.10566000000E+00 0. -1.
         13    1    4    4    0    0  0.94741559324E+01 -0.61037151060E+01  0.18078022648E+01  0.11414652066E+02  0.10566000000E+00 0.  1.
        -13    1    4    4    0    0  0.10332255242E+02 -0.63894597234E+01  0.18554132073E+01  0.12289606021E+02  0.10566000000E+00 0. -1.
        -14    1    4    4    0    0  0.12646449610E+02 -0.75170940654E+01  0.78966522433E+00  0.14733056780E+02  0.00000000000E+00 0.  1.
<mgrwt>
<rscale>  0 0.80949464E+02</rscale>
<asrwt>0</asrwt>
<pdfrwt beam="1">  1        1 0.78416139E-02 0.80949464E+02</pdfrwt>
<pdfrwt beam="2">  1       -2 0.49446527E-02 0.80949464E+02</pdfrwt>
<totfact> 0.12770842E+05</totfact>
</mgrwt>
</event>
<event>
 8    1  0.8577104E-018  0.7962212E+02  0.7818608E-02  0.1330127E+00
          1   -1    0    0  501    0  0.00000000000E+00  0.00000000000E+00  0.67062611209E+01  0.67062630147E+01  0.50400000000E-02 0. -1.
         -2   -1    0    0    0  501 -0.00000000000E+00 -0.00000000000E+00 -0.23633443001E+03  0.23633443002E+03  0.25500000000E-02 0.  1.
        -24    2    1    2    0    0 -0.35527136788E-14  0.00000000000E+00 -0.22962816889E+03  0.24304069304E+03  0.79622123340E+02 0.  0.
         66    2    3    3    0    0 -0.15787729733E+02  0.10792625126E+02 -0.22137982151E+03  0.22221331764E+03  0.20000000832E+01 0.  0.
         13    1    3    3    0    0  0.15787729733E+02 -0.10792625126E+02 -0.82483473810E+01  0.20827375394E+02  0.10566000000E+00 0. -1.
         13    1    4    4    0    0 -0.11137535715E+01  0.66726326839E+00 -0.17798282059E+02  0.17845887358E+02  0.10566000000E+00 0. -1.
        -13    1    4    4    0    0 -0.49584281561E+01  0.38274200899E+01 -0.79832334307E+02  0.80077761702E+02  0.10566000000E+00 0.  1.
        -14    1    4    4    0    0 -0.97155480057E+01  0.62979417682E+01 -0.12374920514E+03  0.12428966858E+03  0.00000000000E+00 0.  1.
<mgrwt>
<rscale>  0 0.79622123E+02</rscale>
<asrwt>0</asrwt>
<pdfrwt beam="1">  1        1 0.10317328E-02 0.79622123E+02</pdfrwt>
<pdfrwt beam="2">  1       -2 0.36359137E-01 0.79622123E+02</pdfrwt>
<totfact> 0.80140873E+04</totfact>
</mgrwt>
</event>
<event>
 8    1  0.8577104E-018  0.7740045E+02  0.7818608E-02  0.1336595E+00
          1   -1    0    0  501    0  0.00000000000E+00  0.00000000000E+00  0.45133385384E+01  0.45133413525E+01  0.50400000000E-02 0. -1.
         -2   -1    0    0    0  501 -0.00000000000E+00 -0.00000000000E+00 -0.33184014550E+03  0.33184014551E+03  0.25500000000E-02 0.  1.
        -24    2    1    2    0    0  0.00000000000E+00  0.00000000000E+00 -0.32732680696E+03  0.33635348686E+03  0.77400449409E+02 0.  0.
         66    2    3    3    0    0 -0.36950934724E+02  0.11074318659E+02 -0.15172129625E+03  0.15656105469E+03  0.19999996328E+01 0.  0.
         13    1    3    3    0    0  0.36950934724E+02 -0.11074318659E+02 -0.17560551071E+03  0.17979243217E+03  0.10566000000E+00 0. -1.
         13    1    4    4    0    0 -0.89316825699E+01  0.33928199216E+01 -0.38619850118E+02  0.39784295491E+02  0.10566000000E+00 0.  1.
        -13    1    4    4    0    0 -0.14844424621E+01  0.57654194522E+00 -0.59735319496E+01  0.61830589538E+01  0.10566000000E+00 0.  1.
         14    1    4    4    0    0 -0.26534809692E+02  0.71049567922E+01 -0.10712791418E+03  0.11059370024E+03  0.00000000000E+00 0. -1.
<mgrwt>
<rscale>  0 0.77400449E+02</rscale>
<asrwt>0</asrwt>
<pdfrwt beam="1">  1        1 0.69436026E-03 0.77400449E+02</pdfrwt>
<pdfrwt beam="2">  1       -2 0.51052311E-01 0.77400449E+02</pdfrwt>
<totfact> 0.72293808E+04</totfact>
</mgrwt>
</event>
<event>
 8    1  0.8577104E-018  0.8343128E+02  0.7818608E-02  0.1319587E+00
          1   -1    0    0  501    0  0.00000000000E+00  0.00000000000E+00  0.23929198058E+03  0.23929198063E+03  0.50400000000E-02 0. -1.
         -2   -1    0    0    0  501 -0.00000000000E+00 -0.00000000000E+00 -0.72722646816E+01  0.72722651287E+01  0.25500000000E-02 0.  1.
        -24    2    1    2    0    0  0.00000000000E+00  0.00000000000E+00  0.23201971590E+03  0.24656424576E+03  0.83431281439E+02 0.  0.
         66    2    3    3    0    0  0.32226615446E+02  0.18284505378E+02  0.59591347281E+02  0.70199761389E+02  0.19999870721E+01 0.  0.
         13    1    3    3    0    0 -0.32226615446E+02 -0.18284505378E+02  0.17242836862E+03  0.17636448437E+03  0.10566000000E+00 0. -1.
         13    1    4    4    0    0  0.25880623625E+01  0.16830317271E+01  0.54636120294E+01  0.62763749912E+01  0.10566000000E+00 0. -1.
        -13    1    4    4    0    0  0.12148987015E+02  0.75178200921E+01  0.23539049637E+02  0.27535677335E+02  0.10566000000E+00 0.  1.
        -14    1    4    4    0    0  0.17489566068E+02  0.90836535584E+01  0.30588685615E+02  0.36387709063E+02  0.00000000000E+00 0.  1.
<mgrwt>
<rscale>  0 0.83431281E+02</rscale>
<asrwt>0</asrwt>
<pdfrwt beam="1">  1        1 0.36814149E-01 0.83431281E+02</pdfrwt>
<pdfrwt beam="2">  1       -2 0.11188100E-02 0.83431281E+02</pdfrwt>
<totfact> 0.15447251E+05</totfact>
</mgrwt>
</event>
<event>
 8    1  0.8577104E-018  0.8018371E+02  0.7818608E-02  0.1328531E+00
         -2   -1    0    0    0  501 -0.00000000000E+00  0.00000000000E+00  0.15123417274E+02  0.15123417488E+02  0.25500000000E-02 0.  1.
          1   -1    0    0  501    0  0.00000000000E+00 -0.00000000000E+00 -0.10628264400E+03  0.10628264412E+03  0.50400000000E-02 0. -1.
        -24    2    1    2    0    0  0.00000000000E+00  0.00000000000E+00 -0.91159226727E+02  0.12140606161E+03  0.80183708930E+02 0.  0.
         66    2    3    3    0    0  0.13563794557E+02  0.30637641640E+02 -0.12342128868E+02  0.35762686576E+02  0.19999995213E+01 0.  0.
         13    1    3    3    0    0 -0.13563794557E+02 -0.30637641640E+02 -0.78817097859E+02  0.85643375033E+02  0.10566000000E+00 0. -1.
         13    1    4    4    0    0  0.24532978009E+01  0.59155150154E+01 -0.17524893855E+01  0.66403592583E+01  0.10566000000E+00 0. -1.
        -13    1    4    4    0    0  0.94073484195E+01  0.19891841369E+02 -0.84324329117E+01  0.23564817974E+02  0.10566000000E+00 0.  1.
        -14    1    4    4    0    0  0.17031483363E+01  0.48302852559E+01 -0.21572065706E+01  0.55575093430E+01  0.00000000000E+00 0.  1.
<mgrwt>
<rscale>  0 0.80183709E+02</rscale>
<asrwt>0</asrwt>
<pdfrwt beam="1">  1        1 0.16351176E-01 0.80183709E+02</pdfrwt>
<pdfrwt beam="2">  1       -2 0.23266797E-02 0.80183709E+02</pdfrwt>
<totfact> 0.14759927E+05</totfact>
</mgrwt>
</event>
<event>
 8    1  0.8577104E-018  0.8017159E+02  0.7818608E-02  0.1328565E+00
          1   -1    0    0  501    0  0.00000000000E+00  0.00000000000E+00  0.98752614029E+01  0.98752626891E+01  0.50400000000E-02 0. -1.
         -2   -1    0    0    0  501 -0.00000000000E+00 -0.00000000000E+00 -0.16271679854E+03  0.16271679856E+03  0.25500000000E-02 0.  1.
        -24    2    1    2    0    0  0.00000000000E+00  0.00000000000E+00 -0.15284153713E+03  0.17259206125E+03  0.80171591799E+02 0.  0.
         66    2    3    3    0    0  0.19495238184E+02 -0.22820729311E+02 -0.13358864125E+03  0.13693346954E+03  0.20000032398E+01 0.  0.
         13    1    3    3    0    0 -0.19495238184E+02  0.22820729311E+02 -0.19252895887E+02  0.35658591702E+02  0.10566000000E+00 0. -1.
         13    1    4    4    0    0  0.12798653962E+02 -0.14398306833E+02 -0.86892795239E+02  0.89002729236E+02  0.10566000000E+00 0. -1.
        -13    1    4    4    0    0  0.23409017785E+01 -0.22878138725E+01 -0.13172458157E+02  0.13573456870E+02  0.10566000000E+00 0.  1.
         14    1    4    4    0    0  0.43556824431E+01 -0.61346086055E+01 -0.33523387850E+02  0.34357283438E+02  0.00000000000E+00 0. -1.
<mgrwt>
<rscale>  0 0.80171592E+02</rscale>
<asrwt>0</asrwt>
<pdfrwt beam="1">  1        1 0.15192712E-02 0.80171592E+02</pdfrwt>
<pdfrwt beam="2">  1       -2 0.25033352E-01 0.80171592E+02</pdfrwt>
<totfact> 0.91437773E+04</totfact>
</mgrwt>
</event>
<event>
 8    1  0.8577104E-018  0.8052680E+02  0.7818608E-02  0.1327563E+00
         -2   -1    0    0    0  501 -0.00000000000E+00  0.00000000000E+00  0.14352338877E+03  0.14352338879E+03  0.25500000000E-02 0.  1.
          1   -1    0    0  501    0  0.00000000000E+00 -0.00000000000E+00 -0.11295311461E+02  0.11295312586E+02  0.50400000000E-02 0. -1.
        -24    2    1    2    0    0 -0.35527136788E-14  0.00000000000E+00  0.13222807731E+03  0.15481870138E+03  0.80526802169E+02 0.  0.
         66    2    3    3    0    0 -0.20621298908E+02  0.34346940649E+02  0.58913417302E+02  0.71272302075E+02  0.20000010856E+01 0.  0.
         13    1    3    3    0    0  0.20621298908E+02 -0.34346940649E+02  0.73314660005E+02  0.83546399301E+02  0.10566000000E+00 0. -1.
         13    1    4    4    0    0 -0.18043402822E+02  0.29472606123E+02  0.51731961362E+02  0.62212586246E+02  0.10566000000E+00 0. -1.
        -13    1    4    4    0    0 -0.13012222169E+01  0.23024845530E+01  0.36377280324E+01  0.44987602346E+01  0.10566000000E+00 0.  1.
         14    1    4    4    0    0 -0.12766738686E+01  0.25718499731E+01  0.35437279074E+01  0.45609555942E+01  0.00000000000E+00 0. -1.
<mgrwt>
<rscale>  0 0.80526802E+02</rscale>
<asrwt>0</asrwt>
<pdfrwt beam="1">  1        1 0.17377403E-02 0.80526802E+02</pdfrwt>
<pdfrwt beam="2">  1       -2 0.22080522E-01 0.80526802E+02</pdfrwt>
<totfact> 0.94264158E+04</totfact>
</mgrwt>
</event>
<event>
 8    1  0.8577104E-018  0.7903211E+02  0.7818608E-02  0.1331821E+00
         -2   -1    0    0    0  501 -0.00000000000E+00  0.00000000000E+00  0.41510341667E+03  0.41510341668E+03  0.25500000000E-02 0.  1.
          1   -1    0    0  501    0  0.00000000000E+00 -0.00000000000E+00 -0.37617559542E+01  0.37617593305E+01  0.50400000000E-02 0. -1.
        -24    2    1    2    0    0  0.35527136788E-14  0.00000000000E+00  0.41134166072E+03  0.41886517601E+03  0.79032106337E+02 0.  0.
         66    2    3    3    0    0  0.30615212950E+02  0.22443887588E+02  0.26349464933E+03  0.26622255649E+03  0.20000009585E+01 0.  0.
         13    1    3    3    0    0 -0.30615212950E+02 -0.22443887588E+02  0.14784701139E+03  0.15264261952E+03  0.10566000000E+00 0. -1.
         13    1    4    4    0    0  0.95165165281E+01  0.64690814028E+01  0.81557125169E+02  0.82364973932E+02  0.10566000000E+00 0. -1.
        -13    1    4    4    0    0  0.12929486177E+02  0.89327839566E+01  0.10862564448E+03  0.10975658543E+03  0.10566000000E+00 0.  1.
        -14    1    4    4    0    0  0.81692102449E+01  0.70420222283E+01  0.73311879682E+02  0.74100997130E+02  0.00000000000E+00 0.  1.
<mgrwt>
<rscale>  0 0.79032106E+02</rscale>
<asrwt>0</asrwt>
<pdfrwt beam="1">  1        1 0.57873201E-03 0.79032106E+02</pdfrwt>
<pdfrwt beam="2">  1       -2 0.63862057E-01 0.79032106E+02</pdfrwt>
<totfact> 0.59482771E+04</totfact>
</mgrwt>
</event>
<event>
 8    1  0.8577104E-018  0.7939315E+02  0.7818608E-02  0.1330782E+00
          1   -1    0    0  501    0  0.00000000000E+00  0.00000000000E+00  0.93199469780E+01  0.93199483408E+01  0.50400000000E-02 0. -1.
         -2   -1    0    0    0  501 -0.00000000000E+00 -0.00000000000E+00 -0.16908013539E+03  0.16908013541E+03  0.25500000000E-02 0.  1.
        -24    2    1    2    0    0  0.71054273576E-14 -0.35527136788E-14 -0.15976018841E+03  0.17840008375E+03  0.79393148827E+02 0.  0.
         66    2    3    3    0    0 -0.24842595227E+02  0.29600116010E+02 -0.10009050252E+03  0.10730997203E+03  0.19999994758E+01 0.  0.
         13    1    3    3    0    0  0.24842595227E+02 -0.29600116010E+02 -0.59669685898E+02  0.71090111721E+02  0.10566000000E+00 0. -1.
         13    1    4    4    0    0 -0.12440342755E+01  0.21667065364E+01 -0.69673303751E+01  0.74025060004E+01  0.10566000000E+00 0. -1.
        -13    1    4    4    0    0 -0.87831462538E+01  0.10218139807E+02 -0.34342224319E+02  0.36891104273E+02  0.10566000000E+00 0.  1.
         14    1    4    4    0    0 -0.14815414697E+02  0.17215269666E+02 -0.58780947821E+02  0.63016361757E+02  0.00000000000E+00 0. -1.
<mgrwt>
<rscale>  0 0.79393149E+02</rscale>
<asrwt>0</asrwt>
<pdfrwt beam="1">  1        1 0.14338382E-02 0.79393149E+02</pdfrwt>
<pdfrwt beam="2">  1       -2 0.26012326E-01 0.79393149E+02</pdfrwt>
<totfact> 0.92503534E+04</totfact>
</mgrwt>
</event>
<event>
 8    1  0.8577104E-018  0.7918734E+02  0.7818608E-02  0.1331374E+00
         -2   -1    0    0    0  501 -0.00000000000E+00  0.00000000000E+00  0.14376099960E+03  0.14376099962E+03  0.25500000000E-02 0.  1.
          1   -1    0    0  501    0  0.00000000000E+00 -0.00000000000E+00 -0.10904617038E+02  0.10904618203E+02  0.50400000000E-02 0. -1.
        -24    2    1    2    0    0  0.00000000000E+00 -0.71054273576E-14  0.13285638256E+03  0.15466561782E+03  0.79187340843E+02 0.  0.
         66    2    3    3    0    0  0.25983349642E+02  0.29381982031E+02  0.76660343604E+02  0.86135031331E+02  0.20000035204E+01 0.  0.
         13    1    3    3    0    0 -0.25983349642E+02 -0.29381982031E+02  0.56196038953E+02  0.68530586491E+02  0.10566000000E+00 0. -1.
         13    1    4    4    0    0  0.15801407135E+02  0.17440354947E+02  0.44382135868E+02  0.50235799947E+02  0.10566000000E+00 0. -1.
        -13    1    4    4    0    0  0.80632716497E+01  0.93695599608E+01  0.24701071395E+02  0.27621714206E+02  0.10566000000E+00 0.  1.
         14    1    4    4    0    0  0.21186708574E+01  0.25720671231E+01  0.75771363416E+01  0.82775171777E+01  0.00000000000E+00 0. -1.
<mgrwt>
<rscale>  0 0.79187341E+02</rscale>
<asrwt>0</asrwt>
<pdfrwt beam="1">  1        1 0.16776336E-02 0.79187341E+02</pdfrwt>
<pdfrwt beam="2">  1       -2 0.22117076E-01 0.79187341E+02</pdfrwt>
<totfact> 0.98368268E+04</totfact>
</mgrwt>
</event>
<event>
 8    1  0.8577104E-018  0.8159400E+02  0.7818608E-02  0.1324588E+00
          1   -1    0    0  501    0  0.00000000000E+00  0.00000000000E+00  0.25676621456E+02  0.25676621950E+02  0.50400000000E-02 0. -1.
         -2   -1    0    0    0  501 -0.00000000000E+00 -0.00000000000E+00 -0.64821418471E+02  0.64821418521E+02  0.25500000000E-02 0.  1.
        -24    2    1    2    0    0  0.35527136788E-14  0.00000000000E+00 -0.39144797015E+02  0.90498040471E+02  0.81593996076E+02 0.  0.
         66    2    3    3    0    0  0.23867038938E+02 -0.21756028191E+02 -0.47188442069E+02  0.57216338290E+02  0.19999980230E+01 0.  0.
         13    1    3    3    0    0 -0.23867038938E+02  0.21756028191E+02  0.80436450539E+01  0.33281702181E+02  0.10566000000E+00 0. -1.
         13    1    4    4    0    0  0.53359822306E+01 -0.47082764800E+01 -0.98621576070E+01  0.12161985466E+02  0.10566000000E+00 0. -1.
        -13    1    4    4    0    0  0.23890667824E+01 -0.19722592260E+01 -0.55300715022E+01  0.63395821156E+01  0.10566000000E+00 0.  1.
         14    1    4    4    0    0  0.16141989925E+02 -0.15075492485E+02 -0.31796212960E+02  0.38714770708E+02  0.00000000000E+00 0. -1.
<mgrwt>
<rscale>  0 0.81593996E+02</rscale>
<asrwt>0</asrwt>
<pdfrwt beam="1">  1        1 0.39502495E-02 0.81593996E+02</pdfrwt>
<pdfrwt beam="2">  1       -2 0.99725259E-02 0.81593996E+02</pdfrwt>
<totfact> 0.11097287E+05</totfact>
</mgrwt>
</event>
<event>
 8    1  0.8577104E-018  0.7621895E+02  0.7818608E-02  0.1340137E+00
          1   -1    0    0  501    0  0.00000000000E+00  0.00000000000E+00  0.11421596684E+03  0.11421596695E+03  0.50400000000E-02 0. -1.
         -2   -1    0    0    0  501 -0.00000000000E+00 -0.00000000000E+00 -0.12715666678E+02  0.12715666933E+02  0.25500000000E-02 0.  1.
        -24    2    1    2    0    0 -0.44408920985E-15 -0.35527136788E-14  0.10150030017E+03  0.12693163389E+03  0.76218952680E+02 0.  0.
         66    2    3    3    0    0 -0.34901701892E+01  0.28050151548E+02  0.82830223101E+01  0.29522885078E+02  0.19999987348E+01 0.  0.
         13    1    3    3    0    0  0.34901701892E+01 -0.28050151548E+02  0.93217277855E+02  0.97408748809E+02  0.10566000000E+00 0. -1.
         13    1    4    4    0    0 -0.64045730421E-01  0.36357609287E+00  0.14227451157E+00  0.40950641403E+00  0.10566000000E+00 0.  1.
        -13    1    4    4    0    0 -0.24890120754E+01  0.23006233537E+02  0.73140328486E+01  0.24269079158E+02  0.10566000000E+00 0.  1.
        -14    1    4    4    0    0 -0.93711238338E+00  0.46803419184E+01  0.82671494993E+00  0.48442995057E+01  0.00000000000E+00 0.  1.
<mgrwt>
<rscale>  0 0.76218953E+02</rscale>
<asrwt>0</asrwt>
<pdfrwt beam="1">  1        1 0.17571688E-01 0.76218953E+02</pdfrwt>
<pdfrwt beam="2">  1       -2 0.19562564E-02 0.76218953E+02</pdfrwt>
<totfact> 0.17122560E+05</totfact>
</mgrwt>
</event>
<event>
 8    1  0.8577104E-018  0.7838220E+02  0.7818608E-02  0.1333706E+00
          1   -1    0    0  501    0  0.00000000000E+00  0.00000000000E+00  0.70869209658E+02  0.70869209837E+02  0.50400000000E-02 0. -1.
         -2   -1    0    0    0  501 -0.00000000000E+00 -0.00000000000E+00 -0.21672916786E+02  0.21672916936E+02  0.25500000000E-02 0.  1.
        -24    2    1    2    0    0  0.00000000000E+00  0.00000000000E+00  0.49196292871E+02  0.92542126773E+02  0.78382204584E+02 0.  0.
         66    2    3    3    0    0 -0.24895975603E+02 -0.30213808468E+02  0.23292135449E+02  0.45598326766E+02  0.20000016721E+01 0.  0.
         13    1    3    3    0    0  0.24895975603E+02  0.30213808468E+02  0.25904157422E+02  0.46943800008E+02  0.10566000000E+00 0. -1.
         13    1    4    4    0    0 -0.37480161235E+01 -0.54248033666E+01  0.35701987753E+01  0.74989065709E+01  0.10566000000E+00 0.  1.
        -13    1    4    4    0    0 -0.15115026050E+01 -0.19633274811E+01  0.12827064766E+01  0.27920950671E+01  0.10566000000E+00 0. -1.
        -14    1    4    4    0    0 -0.19636456875E+02 -0.22825677620E+02  0.18439230197E+02  0.35307325128E+02  0.00000000000E+00 0.  1.
<mgrwt>
<rscale>  0 0.78382205E+02</rscale>
<asrwt>0</asrwt>
<pdfrwt beam="1">  1        1 0.10902955E-01 0.78382205E+02</pdfrwt>
<pdfrwt beam="2">  1       -2 0.33342950E-02 0.78382205E+02</pdfrwt>
<totfact> 0.14695681E+05</totfact>
</mgrwt>
</event>
<event>
 8    1  0.8577104E-018  0.8058377E+02  0.7818608E-02  0.1327403E+00
          1   -1    0    0  501    0  0.00000000000E+00  0.00000000000E+00  0.28668480590E+03  0.28668480594E+03  0.50400000000E-02 0. -1.
         -2   -1    0    0    0  501 -0.00000000000E+00 -0.00000000000E+00 -0.56627895043E+01  0.56627900785E+01  0.25500000000E-02 0.  1.
        -24    2    1    2    0    0  0.00000000000E+00  0.00000000000E+00  0.28102201639E+03  0.29234759602E+03  0.80583765121E+02 0.  0.
         66    2    3    3    0    0 -0.36965067895E+02 -0.50074843684E+01  0.19560951154E+03  0.19914460093E+03  0.19999827901E+01 0.  0.
         13    1    3    3    0    0  0.36965067895E+02  0.50074843684E+01  0.85412504856E+02  0.93202995091E+02  0.10566000000E+00 0. -1.
         13    1    4    4    0    0 -0.36230287297E+01 -0.85801937026E+00  0.19862892698E+02  0.20209111925E+02  0.10566000000E+00 0. -1.
        -13    1    4    4    0    0 -0.26587499538E+02 -0.27202702184E+01  0.13937475297E+03  0.14191415691E+03  0.10566000000E+00 0.  1.
        -14    1    4    4    0    0 -0.67545396277E+01 -0.14291947797E+01  0.36371865868E+02  0.37021332095E+02  0.00000000000E+00 0.  1.
<mgrwt>
<rscale>  0 0.80583765E+02</rscale>
<asrwt>0</asrwt>
<pdfrwt beam="1">  1        1 0.44105365E-01 0.80583765E+02</pdfrwt>
<pdfrwt beam="2">  1       -2 0.87119823E-03 0.80583765E+02</pdfrwt>
<totfact> 0.17545492E+05</totfact>
</mgrwt>
</event>
<event>
 8    1  0.8577104E-018  0.8050816E+02  0.7818608E-02  0.1327616E+00
         -2   -1    0    0    0  501 -0.00000000000E+00  0.00000000000E+00  0.30736782926E+02  0.30736783032E+02  0.25500000000E-02 0.  1.
          1   -1    0    0  501    0  0.00000000000E+00 -0.00000000000E+00 -0.52718295353E+02  0.52718295594E+02  0.50400000000E-02 0. -1.
        -24    2    1    2    0    0  0.71054273576E-14  0.00000000000E+00 -0.21981512427E+02  0.83455078626E+02  0.80508156481E+02 0.  0.
         66    2    3    3    0    0  0.38998070531E+02  0.65773221622E+01 -0.18634357715E+02  0.43764711020E+02  0.19999928255E+01 0.  0.
         13    1    3    3    0    0 -0.38998070531E+02 -0.65773221622E+01 -0.33471547122E+01  0.39690367606E+02  0.10566000000E+00 0. -1.
         13    1    4    4    0    0  0.96678097366E+00  0.26874617822E+00 -0.71366507399E+00  0.12358688574E+01  0.10566000000E+00 0. -1.
        -13    1    4    4    0    0  0.10989802909E+02  0.23266253806E+01 -0.50331111699E+01  0.12309846698E+02  0.10566000000E+00 0.  1.
        -14    1    4    4    0    0  0.27041486648E+02  0.39819506034E+01 -0.12887581471E+02  0.30218995465E+02  0.00000000000E+00 0.  1.
<mgrwt>
<rscale>  0 0.80508156E+02</rscale>
<asrwt>0</asrwt>
<pdfrwt beam="1">  1        1 0.81105070E-02 0.80508156E+02</pdfrwt>
<pdfrwt beam="2">  1       -2 0.47287359E-02 0.80508156E+02</pdfrwt>
<totfact> 0.13035806E+05</totfact>
</mgrwt>
</event>
<event>
 8    1  0.8577104E-018  0.7986242E+02  0.7818608E-02  0.1329442E+00
         -2   -1    0    0    0  501 -0.00000000000E+00  0.00000000000E+00  0.14935639864E+02  0.14935640081E+02  0.25500000000E-02 0.  1.
          1   -1    0    0  501    0  0.00000000000E+00 -0.00000000000E+00 -0.10675816742E+03  0.10675816754E+03  0.50400000000E-02 0. -1.
        -24    2    1    2    0    0  0.00000000000E+00  0.00000000000E+00 -0.91822527554E+02  0.12169380762E+03  0.79862420738E+02 0.  0.
         66    2    3    3    0    0 -0.31307612723E+02  0.16556905592E+02 -0.17917141015E+02  0.39740680401E+02  0.19999998439E+01 0.  0.
         13    1    3    3    0    0  0.31307612723E+02 -0.16556905592E+02 -0.73905386539E+02  0.81953127217E+02  0.10566000000E+00 0. -1.
         13    1    4    4    0    0 -0.24050206248E+01  0.18098589482E+01 -0.17934343773E+01  0.35053223132E+01  0.10566000000E+00 0. -1.
        -13    1    4    4    0    0 -0.17506513841E+02  0.87521058255E+01 -0.95851908141E+01  0.21793678676E+02  0.10566000000E+00 0.  1.
         14    1    4    4    0    0 -0.11396078257E+02  0.59949408181E+01 -0.65385158236E+01  0.14441679412E+02  0.00000000000E+00 0. -1.
<mgrwt>
<rscale>  0 0.79862421E+02</rscale>
<asrwt>0</asrwt>
<pdfrwt beam="1">  1        1 0.16424333E-01 0.79862421E+02</pdfrwt>
<pdfrwt beam="2">  1       -2 0.22977908E-02 0.79862421E+02</pdfrwt>
<totfact> 0.14932012E+05</totfact>
</mgrwt>
</event>
<event>
 8    1  0.8577104E-018  0.8113990E+02  0.7818608E-02  0.1325847E+00
          1   -1    0    0  501    0  0.00000000000E+00  0.00000000000E+00  0.26972919986E+02  0.26972920456E+02  0.50400000000E-02 0. -1.
         -2   -1    0    0    0  501 -0.00000000000E+00 -0.00000000000E+00 -0.61021232232E+02  0.61021232286E+02  0.25500000000E-02 0.  1.
        -24    2    1    2    0    0  0.00000000000E+00  0.00000000000E+00 -0.34048312247E+02  0.87994152742E+02  0.81139899864E+02 0.  0.
         66    2    3    3    0    0 -0.97285837255E+01  0.81297003188E+01 -0.58799813852E+02  0.60184345761E+02  0.19999992816E+01 0.  0.
         13    1    3    3    0    0  0.97285837255E+01 -0.81297003188E+01  0.24751501605E+02  0.27809806981E+02  0.10566000000E+00 0. -1.
         13    1    4    4    0    0 -0.31653053086E+01  0.27032576375E+01 -0.17137298731E+02  0.17635898939E+02  0.10566000000E+00 0. -1.
        -13    1    4    4    0    0 -0.66294268283E+01  0.54299628698E+01 -0.41399023899E+02  0.42276756506E+02  0.10566000000E+00 0.  1.
         14    1    4    4    0    0  0.66148411399E-01 -0.35201885466E-02 -0.26349122187E+00  0.27169031647E+00  0.00000000000E+00 0. -1.
<mgrwt>
<rscale>  0 0.81139900E+02</rscale>
<asrwt>0</asrwt>
<pdfrwt beam="1">  1        1 0.41496801E-02 0.81139900E+02</pdfrwt>
<pdfrwt beam="2">  1       -2 0.93878819E-02 0.81139900E+02</pdfrwt>
<totfact> 0.11386513E+05</totfact>
</mgrwt>
</event>
<event>
 8    1  0.8577104E-018  0.8023904E+02  0.7818608E-02  0.1328374E+00
         -2   -1    0    0    0  501 -0.00000000000E+00  0.00000000000E+00  0.11307335301E+03  0.11307335304E+03  0.25500000000E-02 0.  1.
          1   -1    0    0  501    0  0.00000000000E+00 -0.00000000000E+00 -0.14234793441E+02  0.14234794333E+02  0.50400000000E-02 0. -1.
        -24    2    1    2    0    0  0.00000000000E+00  0.00000000000E+00  0.98838559572E+02  0.12730814737E+03  0.80239039934E+02 0.  0.
         66    2    3    3    0    0  0.23509117226E+02  0.42895672599E+01  0.10053019737E+03  0.10335085657E+03  0.19999977608E+01 0.  0.
         13    1    3    3    0    0 -0.23509117226E+02 -0.42895672599E+01 -0.16916377997E+01  0.23957290800E+02  0.10566000000E+00 0. -1.
         13    1    4    4    0    0  0.82974687862E+01  0.16563528320E+01  0.32504239264E+02  0.33587620147E+02  0.10566000000E+00 0. -1.
        -13    1    4    4    0    0  0.13081457685E+02  0.19011268306E+01  0.58195101892E+02  0.59677632884E+02  0.10566000000E+00 0.  1.
        -14    1    4    4    0    0  0.21301907542E+01  0.73208759731E+00  0.98308562159E+01  0.10085603543E+02  0.00000000000E+00 0.  1.
<mgrwt>
<rscale>  0 0.80239040E+02</rscale>
<asrwt>0</asrwt>
<pdfrwt beam="1">  1        1 0.21899682E-02 0.80239040E+02</pdfrwt>
<pdfrwt beam="2">  1       -2 0.17395901E-01 0.80239040E+02</pdfrwt>
<totfact> 0.10202641E+05</totfact>
</mgrwt>
</event>
<event>
 8    1  0.8577104E-018  0.7739414E+02  0.7818608E-02  0.1336613E+00
          1   -1    0    0  501    0  0.00000000000E+00  0.00000000000E+00  0.22350950819E+02  0.22350951387E+02  0.50400000000E-02 0. -1.
         -2   -1    0    0    0  501 -0.00000000000E+00 -0.00000000000E+00 -0.66997748805E+02  0.66997748853E+02  0.25500000000E-02 0.  1.
        -24    2    1    2    0    0  0.17763568394E-14  0.00000000000E+00 -0.44646797986E+02  0.89348700241E+02  0.77394144897E+02 0.  0.
         66    2    3    3    0    0 -0.12493285031E+02  0.26652790175E+02 -0.51292174655E+02  0.59172126710E+02  0.20000009068E+01 0.  0.
         13    1    3    3    0    0  0.12493285031E+02 -0.26652790175E+02  0.66453766690E+01  0.30176573531E+02  0.10566000000E+00 0. -1.
         13    1    4    4    0    0 -0.29409529800E+01  0.74564918235E+01 -0.14559318201E+02  0.16620270312E+02  0.10566000000E+00 0. -1.
        -13    1    4    4    0    0 -0.77049187052E+01  0.16115575001E+02 -0.31306994394E+02  0.36044647202E+02  0.10566000000E+00 0.  1.
         14    1    4    4    0    0 -0.18474133458E+01  0.30807233497E+01 -0.54258620594E+01  0.65072091956E+01  0.00000000000E+00 0. -1.
<mgrwt>
<rscale>  0 0.77394145E+02</rscale>
<asrwt>0</asrwt>
<pdfrwt beam="1">  1        1 0.34386079E-02 0.77394145E+02</pdfrwt>
<pdfrwt beam="2">  1       -2 0.10307346E-01 0.77394145E+02</pdfrwt>
<totfact> 0.12607270E+05</totfact>
</mgrwt>
</event>
<event>
 8    1  0.8577104E-018  0.8343349E+02  0.7818608E-02  0.1319581E+00
          1   -1    0    0  501    0  0.00000000000E+00  0.00000000000E+00  0.18859161169E+02  0.18859161843E+02  0.50400000000E-02 0. -1.
         -2   -1    0    0    0  501 -0.00000000000E+00 -0.00000000000E+00 -0.92278051521E+02  0.92278051556E+02  0.25500000000E-02 0.  1.
        -24    2    1    2    0    0  0.35527136788E-14 -0.17763568394E-14 -0.73418890352E+02  0.11113721340E+03  0.83433486932E+02 0.  0.
         66    2    3    3    0    0  0.16935046386E+02 -0.10845263178E+02 -0.85379627722E+02  0.87738796102E+02  0.19999954914E+01 0.  0.
         13    1    3    3    0    0 -0.16935046386E+02  0.10845263178E+02  0.11960737370E+02  0.23398417297E+02  0.10566000000E+00 0. -1.
         13    1    4    4    0    0  0.33062388321E+01 -0.28239545816E+01 -0.16959282004E+02  0.17508122253E+02  0.10566000000E+00 0. -1.
        -13    1    4    4    0    0  0.10782243503E+02 -0.67831989239E+01 -0.55068214943E+02  0.56522455924E+02  0.10566000000E+00 0.  1.
        -14    1    4    4    0    0  0.28465640508E+01 -0.12381096726E+01 -0.13352130775E+02  0.13708217925E+02  0.00000000000E+00 0.  1.
<mgrwt>
<rscale>  0 0.83433487E+02</rscale>
<asrwt>0</asrwt>
<pdfrwt beam="1">  1        1 0.29014095E-02 0.83433487E+02</pdfrwt>
<pdfrwt beam="2">  1       -2 0.14196623E-01 0.83433487E+02</pdfrwt>
<totfact> 0.97185985E+04</totfact>
</mgrwt>
</event>
<event>
 8    1  0.8577104E-018  0.8014580E+02  0.7818608E-02  0.1328638E+00
          1   -1    0    0  501    0  0.00000000000E+00  0.00000000000E+00  0.36229096125E+02  0.36229096476E+02  0.50400000000E-02 0. -1.
         -2   -1    0    0    0  501 -0.00000000000E+00 -0.00000000000E+00 -0.44324521891E+02  0.44324521964E+02  0.25500000000E-02 0.  1.
        -24    2    1    2    0    0  0.00000000000E+00  0.44408920985E-15 -0.80954257651E+01  0.80553618440E+02  0.80145801671E+02 0.  0.
         66    2    3    3    0    0 -0.39824489470E+02 -0.37420763815E+01 -0.60196174373E+01  0.40499739209E+02  0.19999961671E+01 0.  0.
         13    1    3    3    0    0  0.39824489470E+02  0.37420763815E+01 -0.20758083278E+01  0.40053879231E+02  0.10566000000E+00 0. -1.
         13    1    4    4    0    0 -0.58809454032E+00 -0.46646135032E-01  0.25599728441E-01  0.59987534702E+00  0.10566000000E+00 0. -1.
        -13    1    4    4    0    0 -0.13494483809E+02 -0.10249380515E+01 -0.27572586513E+01  0.13811778690E+02  0.10566000000E+00 0.  1.
        -14    1    4    4    0    0 -0.25741911121E+02 -0.26704921950E+01 -0.32879585144E+01  0.26088085172E+02  0.00000000000E+00 0.  1.
<mgrwt>
<rscale>  0 0.80145802E+02</rscale>
<asrwt>0</asrwt>
<pdfrwt beam="1">  1        1 0.55737071E-02 0.80145802E+02</pdfrwt>
<pdfrwt beam="2">  1       -2 0.68191573E-02 0.80145802E+02</pdfrwt>
<totfact> 0.12428100E+05</totfact>
</mgrwt>
</event>
<event>
 8    1  0.8577104E-018  0.7990609E+02  0.7818608E-02  0.1329318E+00
         -2   -1    0    0    0  501 -0.00000000000E+00  0.00000000000E+00  0.32335364446E+01  0.32335374501E+01  0.25500000000E-02 0.  1.
          1   -1    0    0  501    0  0.00000000000E+00 -0.00000000000E+00 -0.49365319216E+03  0.49365319219E+03  0.50400000000E-02 0. -1.
        -24    2    1    2    0    0  0.17763568394E-14  0.00000000000E+00 -0.49041965572E+03  0.49688672964E+03  0.79906090983E+02 0.  0.
         66    2    3    3    0    0 -0.14375219633E+02 -0.36520008971E+02 -0.29100903872E+03  0.29365050420E+03  0.20000013972E+01 0.  0.
         13    1    3    3    0    0  0.14375219633E+02  0.36520008971E+02 -0.19941061699E+03  0.20323622543E+03  0.10566000000E+00 0. -1.
         13    1    4    4    0    0 -0.24354350161E+01 -0.45194085015E+01 -0.38627634015E+02  0.38967443726E+02  0.10566000000E+00 0.  1.
        -13    1    4    4    0    0 -0.71116148692E+01 -0.18436977031E+02 -0.14793912259E+03  0.14925311502E+03  0.10566000000E+00 0.  1.
        -14    1    4    4    0    0 -0.48281697477E+01 -0.13563623439E+02 -0.10444228212E+03  0.10542994546E+03  0.00000000000E+00 0.  1.
<mgrwt>
<rscale>  0 0.79906091E+02</rscale>
<asrwt>0</asrwt>
<pdfrwt beam="1">  1        1 0.75946585E-01 0.79906091E+02</pdfrwt>
<pdfrwt beam="2">  1       -2 0.49746762E-03 0.79906091E+02</pdfrwt>
<totfact> 0.19638897E+05</totfact>
</mgrwt>
</event>
<event>
 8    1  0.8577104E-018  0.8896091E+02  0.7818608E-02  0.1305388E+00
          1   -1    0    0  501    0  0.00000000000E+00  0.00000000000E+00  0.11156844571E+03  0.11156844582E+03  0.50400000000E-02 0. -1.
         -2   -1    0    0    0  501 -0.00000000000E+00 -0.00000000000E+00 -0.17733605710E+02  0.17733605893E+02  0.25500000000E-02 0.  1.
        -24    2    1    2    0    0  0.00000000000E+00  0.35527136788E-14  0.93834840000E+02  0.12930205172E+03  0.88960909283E+02 0.  0.
         66    2    3    3    0    0 -0.20859826273E+02  0.29693973301E+02  0.96108821104E+01  0.37592997371E+02  0.19999984571E+01 0.  0.
         13    1    3    3    0    0  0.20859826273E+02 -0.29693973301E+02  0.84223957890E+02  0.91709054347E+02  0.10566000000E+00 0. -1.
         13    1    4    4    0    0 -0.15607446629E+02  0.23183029880E+02  0.75749341998E+01  0.28955760340E+02  0.10566000000E+00 0. -1.
        -13    1    4    4    0    0 -0.30757873470E+01  0.41690959816E+01  0.15065851350E+01  0.53965537070E+01  0.10566000000E+00 0.  1.
         14    1    4    4    0    0 -0.21765922968E+01  0.23418474392E+01  0.52936277557E+00  0.32406833235E+01  0.00000000000E+00 0. -1.
<mgrwt>
<rscale>  0 0.88960909E+02</rscale>
<asrwt>0</asrwt>
<pdfrwt beam="1">  1        1 0.17164376E-01 0.88960909E+02</pdfrwt>
<pdfrwt beam="2">  1       -2 0.27282471E-02 0.88960909E+02</pdfrwt>
<totfact> 0.11228627E+05</totfact>
</mgrwt>
</event>
<event>
 8    1  0.8577104E-018  0.8064694E+02  0.7818608E-02  0.1327225E+00
          1   -1    0    0  501    0  0.00000000000E+00  0.00000000000E+00  0.88878116722E+02  0.88878116865E+02  0.50400000000E-02 0. -1.
         -2   -1    0    0    0  501 -0.00000000000E+00 -0.00000000000E+00 -0.18294518678E+02  0.18294518855E+02  0.25500000000E-02 0.  1.
        -24    2    1    2    0    0  0.00000000000E+00  0.00000000000E+00  0.70583598044E+02  0.10717263572E+03  0.80646943738E+02 0.  0.
         66    2    3    3    0    0  0.29989816042E+02 -0.69843354770E+01  0.76667153528E+00  0.30866774874E+02  0.19999993940E+01 0.  0.
         13    1    3    3    0    0 -0.29989816042E+02  0.69843354770E+01  0.69816926509E+02  0.76305860846E+02  0.10566000000E+00 0. -1.
         13    1    4    4    0    0  0.10158068498E+02 -0.17863519564E+01  0.86177605299E+00  0.10350421775E+02  0.10566000000E+00 0. -1.
        -13    1    4    4    0    0  0.18222108843E+02 -0.49265286680E+01  0.59069249508E-01  0.18876720812E+02  0.10566000000E+00 0.  1.
        -14    1    4    4    0    0  0.16096387012E+01 -0.27145485250E+00 -0.15417376721E+00  0.16396322867E+01  0.00000000000E+00 0.  1.
<mgrwt>
<rscale>  0 0.80646944E+02</rscale>
<asrwt>0</asrwt>
<pdfrwt beam="1">  1        1 0.13673556E-01 0.80646944E+02</pdfrwt>
<pdfrwt beam="2">  1       -2 0.28145414E-02 0.80646944E+02</pdfrwt>
<totfact> 0.14102239E+05</totfact>
</mgrwt>
</event>
<event>
 8    1  0.8577104E-018  0.8038708E+02  0.7818608E-02  0.1327957E+00
         -2   -1    0    0    0  501 -0.00000000000E+00  0.00000000000E+00  0.85178217455E+01  0.85178221272E+01  0.25500000000E-02 0.  1.
          1   -1    0    0  501    0  0.00000000000E+00 -0.00000000000E+00 -0.18966358363E+03  0.18966358369E+03  0.50400000000E-02 0. -1.
        -24    2    1    2    0    0  0.35527136788E-14  0.00000000000E+00 -0.18114576188E+03  0.19818140582E+03  0.80387079594E+02 0.  0.
         66    2    3    3    0    0 -0.27270611509E+02 -0.16681135467E+02 -0.30666333138E+02  0.44343776577E+02  0.20000001084E+01 0.  0.
         13    1    3    3    0    0  0.27270611509E+02  0.16681135467E+02 -0.15047942874E+03  0.15383762925E+03  0.10566000000E+00 0. -1.
         13    1    4    4    0    0 -0.41362530839E+00 -0.31640903758E+00 -0.31696602395E+00  0.61873424888E+00  0.10566000000E+00 0. -1.
        -13    1    4    4    0    0 -0.16537065894E+02 -0.10295651716E+02 -0.17958086018E+02  0.26494886490E+02  0.10566000000E+00 0.  1.
         14    1    4    4    0    0 -0.10319920306E+02 -0.60690747137E+01 -0.12391281096E+02  0.17230155838E+02  0.00000000000E+00 0. -1.
<mgrwt>
<rscale>  0 0.80387080E+02</rscale>
<asrwt>0</asrwt>
<pdfrwt beam="1">  1        1 0.29179010E-01 0.80387080E+02</pdfrwt>
<pdfrwt beam="2">  1       -2 0.13104343E-02 0.80387080E+02</pdfrwt>
<totfact> 0.16293119E+05</totfact>
</mgrwt>
</event>
<event>
 8    1  0.8577104E-018  0.7310550E+02  0.7818608E-02  0.1349840E+00
          1   -1    0    0  501    0  0.00000000000E+00  0.00000000000E+00  0.11676536311E+02  0.11676537399E+02  0.50400000000E-02 0. -1.
         -2   -1    0    0    0  501 -0.00000000000E+00 -0.00000000000E+00 -0.11442635149E+03  0.11442635152E+03  0.25500000000E-02 0.  1.
        -24    2    1    2    0    0 -0.22204460493E-15  0.71054273576E-14 -0.10274981518E+03  0.12610288892E+03  0.73105499614E+02 0.  0.
         66    2    3    3    0    0  0.17616812177E+01 -0.36136738628E+02 -0.42765916332E+02  0.56052573540E+02  0.20000003430E+01 0.  0.
         13    1    3    3    0    0 -0.17616812177E+01  0.36136738628E+02 -0.59983898846E+02  0.70050315376E+02  0.10566000000E+00 0. -1.
         13    1    4    4    0    0  0.19836973427E+01 -0.28853069169E+02 -0.33703936565E+02  0.44411723223E+02  0.10566000000E+00 0. -1.
        -13    1    4    4    0    0  0.47033412306E-01 -0.35884045441E+01 -0.41331738845E+01  0.54747739414E+01  0.10566000000E+00 0.  1.
         14    1    4    4    0    0 -0.26904953729E+00 -0.36952649151E+01 -0.49288058825E+01  0.61660763759E+01  0.00000000000E+00 0. -1.
<mgrwt>
<rscale>  0 0.73105500E+02</rscale>
<asrwt>0</asrwt>
<pdfrwt beam="1">  1        1 0.17963904E-02 0.73105500E+02</pdfrwt>
<pdfrwt beam="2">  1       -2 0.17604053E-01 0.73105500E+02</pdfrwt>
<totfact> 0.12904467E+05</totfact>
</mgrwt>
</event>
<event>
 8    1  0.8577104E-018  0.7903664E+02  0.7818608E-02  0.1331808E+00
          1   -1    0    0  501    0  0.00000000000E+00  0.00000000000E+00  0.28427230155E+03  0.28427230160E+03  0.50400000000E-02 0. -1.
         -2   -1    0    0    0  501 -0.00000000000E+00 -0.00000000000E+00 -0.54936679308E+01  0.54936685226E+01  0.25500000000E-02 0.  1.
        -24    2    1    2    0    0  0.16653345369E-15  0.00000000000E+00  0.27877863362E+03  0.28976597012E+03  0.79036642613E+02 0.  0.
         66    2    3    3    0    0  0.26490897815E+00  0.37114609704E+02  0.90000831893E+02  0.97374093940E+02  0.19999997700E+01 0.  0.
         13    1    3    3    0    0 -0.26490897815E+00 -0.37114609704E+02  0.18877780173E+03  0.19239187618E+03  0.10566000000E+00 0. -1.
         13    1    4    4    0    0 -0.60090385031E+00  0.61179992176E+01  0.14752048073E+02  0.15982023847E+02  0.10566000000E+00 0. -1.
        -13    1    4    4    0    0  0.38697555208E+00  0.24499718740E+02  0.59921813261E+02  0.64738094171E+02  0.10566000000E+00 0.  1.
         14    1    4    4    0    0  0.47883727638E+00  0.64968917464E+01  0.15326970558E+02  0.16653975921E+02  0.00000000000E+00 0. -1.
<mgrwt>
<rscale>  0 0.79036643E+02</rscale>
<asrwt>0</asrwt>
<pdfrwt beam="1">  1        1 0.43734212E-01 0.79036643E+02</pdfrwt>
<pdfrwt beam="2">  1       -2 0.84517950E-03 0.79036643E+02</pdfrwt>
<totfact> 0.18435918E+05</totfact>
</mgrwt>
</event>
<event>
 8    1  0.8577104E-018  0.7655741E+02  0.7818608E-02  0.1339115E+00
         -2   -1    0    0    0  501 -0.00000000000E+00  0.00000000000E+00  0.20864782237E+02  0.20864782392E+02  0.25500000000E-02 0.  1.
          1   -1    0    0  501    0  0.00000000000E+00 -0.00000000000E+00 -0.70226430464E+02  0.70226430645E+02  0.50400000000E-02 0. -1.
        -24    2    1    2    0    0  0.00000000000E+00 -0.44408920985E-15 -0.49361648227E+02  0.91091213037E+02  0.76557408373E+02 0.  0.
         66    2    3    3    0    0 -0.19451868462E+02 -0.23698549856E+01  0.14391228120E+02  0.24394647864E+02  0.19999995725E+01 0.  0.
         13    1    3    3    0    0  0.19451868462E+02  0.23698549856E+01 -0.63752876347E+02  0.66696565173E+02  0.10566000000E+00 0. -1.
         13    1    4    4    0    0 -0.64520269379E+01 -0.13551349884E+01  0.51000768778E+01  0.83358857141E+01  0.10566000000E+00 0.  1.
        -13    1    4    4    0    0 -0.27245753091E+01 -0.54262427099E+00  0.24482933396E+01  0.37044643373E+01  0.10566000000E+00 0. -1.
        -14    1    4    4    0    0 -0.10275266215E+02 -0.47209572622E+00  0.68428579024E+01  0.12354297813E+02  0.00000000000E+00 0.  1.
<mgrwt>
<rscale>  0 0.76557408E+02</rscale>
<asrwt>0</asrwt>
<pdfrwt beam="1">  1        1 0.10804066E-01 0.76557408E+02</pdfrwt>
<pdfrwt beam="2">  1       -2 0.32099665E-02 0.76557408E+02</pdfrwt>
<totfact> 0.15647546E+05</totfact>
</mgrwt>
</event>
<event>
 8    1  0.8577104E-018  0.8050722E+02  0.7818608E-02  0.1327618E+00
         -2   -1    0    0    0  501 -0.00000000000E+00  0.00000000000E+00  0.12420862850E+04  0.12420862850E+04  0.25500000000E-02 0.  1.
          1   -1    0    0  501    0  0.00000000000E+00 -0.00000000000E+00 -0.13045367373E+01  0.13045464732E+01  0.50400000000E-02 0. -1.
        -24    2    1    2    0    0  0.00000000000E+00  0.00000000000E+00  0.12407817483E+04  0.12433908315E+04  0.80507223132E+02 0.  0.
         66    2    3    3    0    0 -0.21049118784E+02 -0.13952115147E+02  0.11044140987E+04  0.11047045887E+04  0.20000032129E+01 0.  0.
         13    1    3    3    0    0  0.21049118784E+02  0.13952115147E+02  0.13636764961E+03  0.13868624280E+03  0.10566000000E+00 0. -1.
         13    1    4    4    0    0 -0.54102098530E+01 -0.30642935474E+01  0.30087048658E+03  0.30093474563E+03  0.10566000000E+00 0. -1.
        -13    1    4    4    0    0 -0.99873013532E+01 -0.73012261421E+01  0.52860447834E+03  0.52874924092E+03  0.10566000000E+00 0.  1.
         14    1    4    4    0    0 -0.56516075776E+01 -0.35865954579E+01  0.27493913377E+03  0.27502060216E+03  0.00000000000E+00 0. -1.
<mgrwt>
<rscale>  0 0.80507223E+02</rscale>
<asrwt>0</asrwt>
<pdfrwt beam="1">  1        1 0.20069964E-03 0.80507223E+02</pdfrwt>
<pdfrwt beam="2">  1       -2 0.19108931E+00 0.80507223E+02</pdfrwt>
<totfact> 0.19489763E+04</totfact>
</mgrwt>
</event>
<event>
 8    1  0.8577104E-018  0.7069711E+02  0.7818608E-02  0.1357738E+00
          1   -1    0    0  501    0  0.00000000000E+00  0.00000000000E+00  0.35544822551E+02  0.35544822908E+02  0.50400000000E-02 0. -1.
         -2   -1    0    0    0  501 -0.00000000000E+00 -0.00000000000E+00 -0.35153369665E+02  0.35153369758E+02  0.25500000000E-02 0.  1.
        -24    2    1    2    0    0  0.35527136788E-14  0.17763568394E-14  0.39145288568E+00  0.70698192666E+02  0.70697108928E+02 0.  0.
         66    2    3    3    0    0 -0.30838058056E+02 -0.10087297341E+02 -0.13760553063E+02  0.35300031290E+02  0.19999990442E+01 0.  0.
         13    1    3    3    0    0  0.30838058056E+02  0.10087297341E+02  0.14152005948E+02  0.35398161375E+02  0.10566000000E+00 0. -1.
         13    1    4    4    0    0 -0.10183920235E+01 -0.63101385648E+00 -0.66152801137E+00  0.13726194469E+01  0.10566000000E+00 0. -1.
        -13    1    4    4    0    0 -0.15438580954E+02 -0.47145515442E+01 -0.63022847959E+01  0.17329360514E+02  0.10566000000E+00 0.  1.
        -14    1    4    4    0    0 -0.14381085078E+02 -0.47417319406E+01 -0.67967402553E+01  0.16598051329E+02  0.00000000000E+00 0.  1.
<mgrwt>
<rscale>  0 0.70697109E+02</rscale>
<asrwt>0</asrwt>
<pdfrwt beam="1">  1        1 0.54684343E-02 0.70697109E+02</pdfrwt>
<pdfrwt beam="2">  1       -2 0.54082107E-02 0.70697109E+02</pdfrwt>
<totfact> 0.17607266E+05</totfact>
</mgrwt>
</event>
<event>
 8    1  0.8577104E-018  0.7949293E+02  0.7818608E-02  0.1330497E+00
          1   -1    0    0  501    0  0.00000000000E+00  0.00000000000E+00  0.19289875061E+03  0.19289875067E+03  0.50400000000E-02 0. -1.
         -2   -1    0    0    0  501 -0.00000000000E+00 -0.00000000000E+00 -0.81896925317E+01  0.81896929286E+01  0.25500000000E-02 0.  1.
        -24    2    1    2    0    0  0.00000000000E+00  0.17763568394E-14  0.18470905807E+03  0.20108844360E+03  0.79492930597E+02 0.  0.
         66    2    3    3    0    0  0.37592105159E+02 -0.12741419249E+02  0.88604547387E+02  0.97109607901E+02  0.19999985934E+01 0.  0.
         13    1    3    3    0    0 -0.37592105159E+02  0.12741419249E+02  0.96104510687E+02  0.10397883570E+03  0.10566000000E+00 0. -1.
         13    1    4    4    0    0  0.90521067741E+00 -0.33514322090E+00  0.29117052884E+01  0.30693515717E+01  0.10566000000E+00 0. -1.
        -13    1    4    4    0    0  0.10735899933E+02 -0.36866594414E+01  0.24413883897E+02  0.26923965091E+02  0.10566000000E+00 0.  1.
         14    1    4    4    0    0  0.25950994549E+02 -0.87196165862E+01  0.61278958201E+02  0.67116291239E+02  0.00000000000E+00 0. -1.
<mgrwt>
<rscale>  0 0.79492931E+02</rscale>
<asrwt>0</asrwt>
<pdfrwt beam="1">  1        1 0.29676731E-01 0.79492931E+02</pdfrwt>
<pdfrwt beam="2">  1       -2 0.12599527E-02 0.79492931E+02</pdfrwt>
<totfact> 0.16839558E+05</totfact>
</mgrwt>
</event>
<event>
 8    1  0.8577104E-018  0.8086341E+02  0.7818608E-02  0.1326619E+00
          1   -1    0    0  501    0  0.00000000000E+00  0.00000000000E+00  0.98147182559E+02  0.98147182688E+02  0.50400000000E-02 0. -1.
         -2   -1    0    0    0  501 -0.00000000000E+00 -0.00000000000E+00 -0.16655828779E+02  0.16655828974E+02  0.25500000000E-02 0.  1.
        -24    2    1    2    0    0  0.00000000000E+00  0.00000000000E+00  0.81491353780E+02  0.11480301166E+03  0.80863407953E+02 0.  0.
         66    2    3    3    0    0 -0.22427425400E+02  0.33005094560E+02  0.31747570906E+02  0.51031695417E+02  0.20000004364E+01 0.  0.
         13    1    3    3    0    0  0.22427425400E+02 -0.33005094560E+02  0.49743782873E+02  0.63771316245E+02  0.10566000000E+00 0. -1.
         13    1    4    4    0    0 -0.18664839619E+01  0.32056090732E+01  0.32859226489E+01  0.49566262317E+01  0.10566000000E+00 0. -1.
        -13    1    4    4    0    0 -0.18685729045E+02  0.27749355311E+02  0.26341409837E+02  0.42580091902E+02  0.10566000000E+00 0.  1.
         14    1    4    4    0    0 -0.18752123934E+01  0.20501301753E+01  0.21202384208E+01  0.34949772842E+01  0.00000000000E+00 0. -1.
<mgrwt>
<rscale>  0 0.80863408E+02</rscale>
<asrwt>0</asrwt>
<pdfrwt beam="1">  1        1 0.15099567E-01 0.80863408E+02</pdfrwt>
<pdfrwt beam="2">  1       -2 0.25624352E-02 0.80863408E+02</pdfrwt>
<totfact> 0.14233500E+05</totfact>
</mgrwt>
</event>
<event>
 8    1  0.8577104E-018  0.7760506E+02  0.7818608E-02  0.1335989E+00
          1   -1    0    0  501    0  0.00000000000E+00  0.00000000000E+00  0.19787795865E+02  0.19787796507E+02  0.50400000000E-02 0. -1.
         -2   -1    0    0    0  501 -0.00000000000E+00 -0.00000000000E+00 -0.76089127095E+02  0.76089127137E+02  0.25500000000E-02 0.  1.
        -24    2    1    2    0    0  0.00000000000E+00  0.00000000000E+00 -0.56301331229E+02  0.95876923644E+02  0.77605055179E+02 0.  0.
         66    2    3    3    0    0  0.24896640409E+02  0.27279036302E+02 -0.42768649490E+02  0.56543309975E+02  0.19999996171E+01 0.  0.
         13    1    3    3    0    0 -0.24896640409E+02 -0.27279036302E+02 -0.13532681740E+02  0.39333613670E+02  0.10566000000E+00 0. -1.
         13    1    4    4    0    0  0.11013335090E+02  0.12581798546E+02 -0.18766577523E+02  0.25135449080E+02  0.10566000000E+00 0. -1.
        -13    1    4    4    0    0  0.73194011675E+01  0.70379114681E+01 -0.11428338497E+02  0.15288031793E+02  0.10566000000E+00 0.  1.
         14    1    4    4    0    0  0.65639041508E+01  0.76593262883E+01 -0.12573733470E+02  0.16119829101E+02  0.00000000000E+00 0. -1.
<mgrwt>
<rscale>  0 0.77605055E+02</rscale>
<asrwt>0</asrwt>
<pdfrwt beam="1">  1        1 0.30442764E-02 0.77605055E+02</pdfrwt>
<pdfrwt beam="2">  1       -2 0.11706019E-01 0.77605055E+02</pdfrwt>
<totfact> 0.12204170E+05</totfact>
</mgrwt>
</event>
<event>
 8    1  0.8577104E-018  0.8278239E+02  0.7818608E-02  0.1321336E+00
         -2   -1    0    0    0  501 -0.00000000000E+00  0.00000000000E+00  0.16680941305E+03  0.16680941306E+03  0.25500000000E-02 0.  1.
          1   -1    0    0  501    0  0.00000000000E+00 -0.00000000000E+00 -0.10270589894E+02  0.10270591131E+02  0.50400000000E-02 0. -1.
        -24    2    1    2    0    0  0.35527136788E-14  0.35527136788E-14  0.15653882315E+03  0.17708000420E+03  0.82782393855E+02 0.  0.
         66    2    3    3    0    0  0.26720413478E+02  0.30375074680E+02  0.96790736343E+02  0.10492412641E+03  0.20000005354E+01 0.  0.
         13    1    3    3    0    0 -0.26720413478E+02 -0.30375074680E+02  0.59748086808E+02  0.72155877789E+02  0.10566000000E+00 0. -1.
         13    1    4    4    0    0  0.61628090731E+01  0.75663958986E+01  0.23889078336E+02  0.25805615481E+02  0.10566000000E+00 0. -1.
        -13    1    4    4    0    0  0.14922826520E+02  0.15911688809E+02  0.53084452796E+02  0.57392010636E+02  0.10566000000E+00 0.  1.
         14    1    4    4    0    0  0.56347778848E+01  0.68969899724E+01  0.19817205210E+02  0.21726500289E+02  0.00000000000E+00 0. -1.
<mgrwt>
<rscale>  0 0.82782394E+02</rscale>
<asrwt>0</asrwt>
<pdfrwt beam="1">  1        1 0.15800908E-02 0.82782394E+02</pdfrwt>
<pdfrwt beam="2">  1       -2 0.25662988E-01 0.82782394E+02</pdfrwt>
<totfact> 0.83453196E+04</totfact>
</mgrwt>
</event>
<event>
 8    1  0.8577104E-018  0.8281584E+02  0.7818608E-02  0.1321245E+00
         -2   -1    0    0    0  501 -0.00000000000E+00  0.00000000000E+00  0.46495999456E+02  0.46495999526E+02  0.25500000000E-02 0.  1.
          1   -1    0    0  501    0  0.00000000000E+00 -0.00000000000E+00 -0.36876635156E+02  0.36876635500E+02  0.50400000000E-02 0. -1.
        -24    2    1    2    0    0  0.00000000000E+00  0.00000000000E+00  0.96193643008E+01  0.83372635026E+02  0.82815844509E+02 0.  0.
         66    2    3    3    0    0 -0.21632854607E+02 -0.99724632217E+01  0.38880514159E+02  0.45641262453E+02  0.20000089564E+01 0.  0.
         13    1    3    3    0    0  0.21632854607E+02  0.99724632217E+01 -0.29261149859E+02  0.37731372573E+02  0.10566000000E+00 0. -1.
         13    1    4    4    0    0 -0.71873472881E+01 -0.39978934564E+01  0.12801921140E+02  0.15216486521E+02  0.10566000000E+00 0. -1.
        -13    1    4    4    0    0 -0.88286832236E+01 -0.39813529490E+01  0.15294078220E+02  0.18102950351E+02  0.10566000000E+00 0.  1.
        -14    1    4    4    0    0 -0.56168240958E+01 -0.19932168164E+01  0.10784514799E+02  0.12321825581E+02  0.00000000000E+00 0.  1.
<mgrwt>
<rscale>  0 0.82815845E+02</rscale>
<asrwt>0</asrwt>
<pdfrwt beam="1">  1        1 0.56733286E-02 0.82815845E+02</pdfrwt>
<pdfrwt beam="2">  1       -2 0.71532306E-02 0.82815845E+02</pdfrwt>
<totfact> 0.11356015E+05</totfact>
</mgrwt>
</event>
<event>
 8    1  0.8577104E-018  0.7506633E+02  0.7818608E-02  0.1343666E+00
         -2   -1    0    0    0  501 -0.00000000000E+00  0.00000000000E+00  0.23652033984E+02  0.23652034121E+02  0.25500000000E-02 0.  1.
          1   -1    0    0  501    0  0.00000000000E+00 -0.00000000000E+00 -0.59560989628E+02  0.59560989841E+02  0.50400000000E-02 0. -1.
        -24    2    1    2    0    0 -0.35527136788E-14 -0.35527136788E-14 -0.35908955644E+02  0.83213023963E+02  0.75066332410E+02 0.  0.
         66    2    3    3    0    0  0.19236079569E+02  0.18908229536E+02  0.10922337717E+02  0.29169253708E+02  0.19999998280E+01 0.  0.
         13    1    3    3    0    0 -0.19236079569E+02 -0.18908229536E+02 -0.46831293361E+02  0.54043770254E+02  0.10566000000E+00 0. -1.
         13    1    4    4    0    0  0.56028169965E+01  0.58198515168E+01  0.39209586018E+01  0.89803847561E+01  0.10566000000E+00 0. -1.
        -13    1    4    4    0    0  0.83538008301E+01  0.79505247663E+01  0.48782438566E+01  0.12522190684E+02  0.10566000000E+00 0.  1.
        -14    1    4    4    0    0  0.52794617428E+01  0.51378532528E+01  0.21231352584E+01  0.76666782681E+01  0.00000000000E+00 0.  1.
<mgrwt>
<rscale>  0 0.75066332E+02</rscale>
<asrwt>0</asrwt>
<pdfrwt beam="1">  1        1 0.91632292E-02 0.75066332E+02</pdfrwt>
<pdfrwt beam="2">  1       -2 0.36387745E-02 0.75066332E+02</pdfrwt>
<totfact> 0.16102843E+05</totfact>
</mgrwt>
</event>
<event>
 8    1  0.8577104E-018  0.8012481E+02  0.7818608E-02  0.1328698E+00
         -2   -1    0    0    0  501 -0.00000000000E+00  0.00000000000E+00  0.37921183585E+02  0.37921183671E+02  0.25500000000E-02 0.  1.
          1   -1    0    0  501    0  0.00000000000E+00 -0.00000000000E+00 -0.42324526157E+02  0.42324526457E+02  0.50400000000E-02 0. -1.
        -24    2    1    2    0    0  0.00000000000E+00 -0.17763568394E-14 -0.44033425723E+01  0.80245710128E+02  0.80124806197E+02 0.  0.
         66    2    3    3    0    0  0.30495995916E+02 -0.15661243370E+02  0.18509339428E+02  0.39011228547E+02  0.19999989608E+01 0.  0.
         13    1    3    3    0    0 -0.30495995916E+02  0.15661243370E+02 -0.22912682000E+02  0.41234481581E+02  0.10566000000E+00 0. -1.
         13    1    4    4    0    0  0.16294225943E+02 -0.77933990891E+01  0.10257506458E+02  0.20771771018E+02  0.10566000000E+00 0. -1.
        -13    1    4    4    0    0  0.70186366017E+01 -0.34381040209E+01  0.42981211735E+01  0.89200240281E+01  0.10566000000E+00 0.  1.
        -14    1    4    4    0    0  0.71831333720E+01 -0.44297402601E+01  0.39537117959E+01  0.93194335008E+01  0.00000000000E+00 0.  1.
<mgrwt>
<rscale>  0 0.80124806E+02</rscale>
<asrwt>0</asrwt>
<pdfrwt beam="1">  1        1 0.65114656E-02 0.80124806E+02</pdfrwt>
<pdfrwt beam="2">  1       -2 0.58340283E-02 0.80124806E+02</pdfrwt>
<totfact> 0.12757865E+05</totfact>
</mgrwt>
</event>
<event>
 8    1  0.8577104E-018  0.7888829E+02  0.7818608E-02  0.1332236E+00
         -2   -1    0    0    0  501 -0.00000000000E+00  0.00000000000E+00  0.43009103324E+02  0.43009103399E+02  0.25500000000E-02 0.  1.
          1   -1    0    0  501    0  0.00000000000E+00 -0.00000000000E+00 -0.36174677086E+02  0.36174677437E+02  0.50400000000E-02 0. -1.
        -24    2    1    2    0    0  0.00000000000E+00 -0.17763568394E-14  0.68344262372E+01  0.79183780837E+02  0.78888286618E+02 0.  0.
         66    2    3    3    0    0 -0.28341100669E+01 -0.14171144076E+02  0.40230770590E+02  0.42794490043E+02  0.19999928569E+01 0.  0.
         13    1    3    3    0    0  0.28341100669E+01  0.14171144076E+02 -0.33396344353E+02  0.36389290794E+02  0.10566000000E+00 0. -1.
         13    1    4    4    0    0 -0.21668300752E+01 -0.79507850547E+01  0.22816219299E+02  0.24259042906E+02  0.10566000000E+00 0.  1.
        -13    1    4    4    0    0 -0.75804398209E+00 -0.34482170397E+01  0.86820294524E+01  0.93730267726E+01  0.10566000000E+00 0.  1.
        -14    1    4    4    0    0  0.90763990400E-01 -0.27721419817E+01  0.87325218389E+01  0.91624203645E+01  0.00000000000E+00 0.  1.
<mgrwt>
<rscale>  0 0.78888287E+02</rscale>
<asrwt>0</asrwt>
<pdfrwt beam="1">  1        1 0.55653350E-02 0.78888287E+02</pdfrwt>
<pdfrwt beam="2">  1       -2 0.66167851E-02 0.78888287E+02</pdfrwt>
<totfact> 0.12994242E+05</totfact>
</mgrwt>
</event>
<event>
 8    1  0.8577104E-018  0.7902106E+02  0.7818608E-02  0.1331853E+00
          1   -1    0    0  501    0  0.00000000000E+00  0.00000000000E+00  0.36123078581E+01  0.36123113740E+01  0.50400000000E-02 0. -1.
         -2   -1    0    0    0  501 -0.00000000000E+00 -0.00000000000E+00 -0.43215614188E+03  0.43215614189E+03  0.25500000000E-02 0.  1.
        -24    2    1    2    0    0  0.00000000000E+00  0.00000000000E+00 -0.42854383402E+03  0.43576845326E+03  0.79021055294E+02 0.  0.
         66    2    3    3    0    0 -0.10391811163E+02 -0.66171664087E+01 -0.42128299627E+03  0.42146783931E+03  0.19999988621E+01 0.  0.
         13    1    3    3    0    0  0.10391811163E+02  0.66171664087E+01 -0.72608377538E+01  0.14300613954E+02  0.10566000000E+00 0. -1.
         13    1    4    4    0    0 -0.21066262016E+01 -0.18990899128E+01 -0.93806163595E+02  0.93849091145E+02  0.10566000000E+00 0. -1.
        -13    1    4    4    0    0 -0.24318152243E+01 -0.21057962574E+01 -0.11782546642E+03  0.11786941845E+03  0.10566000000E+00 0.  1.
         14    1    4    4    0    0 -0.58533697376E+01 -0.26122802385E+01 -0.20965136625E+03  0.20974932972E+03  0.00000000000E+00 0. -1.
<mgrwt>
<rscale>  0 0.79021055E+02</rscale>
<asrwt>0</asrwt>
<pdfrwt beam="1">  1        1 0.55574029E-03 0.79021055E+02</pdfrwt>
<pdfrwt beam="2">  1       -2 0.66485519E-01 0.79021055E+02</pdfrwt>
<totfact> 0.57877116E+04</totfact>
</mgrwt>
</event>
<event>
 8    1  0.8577104E-018  0.7430907E+02  0.7818608E-02  0.1346024E+00
          1   -1    0    0  501    0  0.00000000000E+00  0.00000000000E+00  0.22616690401E+02  0.22616690963E+02  0.50400000000E-02 0. -1.
         -2   -1    0    0    0  501 -0.00000000000E+00 -0.00000000000E+00 -0.61037198893E+02  0.61037198947E+02  0.25500000000E-02 0.  1.
        -24    2    1    2    0    0 -0.17763568394E-14  0.00000000000E+00 -0.38420508492E+02  0.83653889910E+02  0.74309069596E+02 0.  0.
         66    2    3    3    0    0  0.14474382364E+02 -0.91800997504E+01 -0.56300198030E+02  0.58885433393E+02  0.19999978496E+01 0.  0.
         13    1    3    3    0    0 -0.14474382364E+02  0.91800997504E+01  0.17879689538E+02  0.24768456517E+02  0.10566000000E+00 0. -1.
         13    1    4    4    0    0  0.13134844687E+01 -0.80039483477E+00 -0.46023160198E+01  0.48536944818E+01  0.10566000000E+00 0. -1.
        -13    1    4    4    0    0  0.10692210787E+02 -0.59194458991E+01 -0.39929808343E+02  0.41758399989E+02  0.10566000000E+00 0.  1.
         14    1    4    4    0    0  0.24686871079E+01 -0.24602590165E+01 -0.11768073667E+02  0.12273338922E+02  0.00000000000E+00 0. -1.
<mgrwt>
<rscale>  0 0.74309070E+02</rscale>
<asrwt>0</asrwt>
<pdfrwt beam="1">  1        1 0.34794909E-02 0.74309070E+02</pdfrwt>
<pdfrwt beam="2">  1       -2 0.93903382E-02 0.74309070E+02</pdfrwt>
<totfact> 0.14220701E+05</totfact>
</mgrwt>
</event>
<event>
 8    1  0.8849418E-018  0.8122407E+02  0.7818608E-02  0.1325613E+00
          1   -1    0    0  501    0  0.00000000000E+00  0.00000000000E+00  0.53587188715E+01  0.53587212416E+01  0.50400000000E-02 0. -1.
         -2   -1    0    0    0  501 -0.00000000000E+00 -0.00000000000E+00 -0.30778571359E+03  0.30778571360E+03  0.25500000000E-02 0.  1.
        -24    2    1    2    0    0 -0.17763568394E-14  0.35527136788E-14 -0.30242699471E+03  0.31314443484E+03  0.81224072405E+02 0.  0.
         66    2    3    3    0    0  0.93599153406E+01 -0.10604114941E+02 -0.29797306919E+03  0.29831527824E+03  0.20000001261E+01 0.  0.
         13    1    3    3    0    0 -0.93599153406E+01  0.10604114941E+02 -0.44539255289E+01  0.14829156602E+02  0.10566000000E+00 0. -1.
         13    1    4    4    0    0  0.22419134396E+01 -0.19779655780E+01 -0.59916538568E+02  0.59991176698E+02  0.10566000000E+00 0. -1.
        -13    1    4    4    0    0  0.63977456936E+01 -0.70253472365E+01 -0.20701122285E+03  0.20722920692E+03  0.10566000000E+00 0.  1.
         14    1    4    4    0    0  0.72025620731E+00 -0.16008021267E+01 -0.31045307770E+02  0.31094894613E+02  0.00000000000E+00 0. -1.
<mgrwt>
<rscale>  0 0.81224072E+02</rscale>
<asrwt>0</asrwt>
<pdfrwt beam="1">  1        1 0.82441871E-03 0.81224072E+02</pdfrwt>
<pdfrwt beam="2">  1       -2 0.47351634E-01 0.81224072E+02</pdfrwt>
<totfact> 0.66621242E+04</totfact>
</mgrwt>
</event>
<event>
 8    1  0.8577104E-018  0.7852279E+02  0.7818608E-02  0.1333297E+00
         -2   -1    0    0    0  501 -0.00000000000E+00  0.00000000000E+00  0.10265687453E+02  0.10265687770E+02  0.25500000000E-02 0.  1.
          1   -1    0    0  501    0  0.00000000000E+00 -0.00000000000E+00 -0.15015626205E+03  0.15015626214E+03  0.50400000000E-02 0. -1.
        -24    2    1    2    0    0  0.00000000000E+00  0.00000000000E+00 -0.13989057460E+03  0.16042194991E+03  0.78522793826E+02 0.  0.
         66    2    3    3    0    0 -0.32329921310E+02 -0.20063018888E+02 -0.50426352667E+02  0.63202575764E+02  0.20000002710E+01 0.  0.
         13    1    3    3    0    0  0.32329921310E+02  0.20063018888E+02 -0.89464221931E+02  0.97219374142E+02  0.10566000000E+00 0. -1.
         13    1    4    4    0    0 -0.38033677438E+00 -0.11672355521E+00 -0.35586689439E+00  0.54413760430E+00  0.10566000000E+00 0.  1.
        -13    1    4    4    0    0 -0.22995580915E+02 -0.14633723344E+02 -0.36469481175E+02  0.45529955213E+02  0.10566000000E+00 0.  1.
        -14    1    4    4    0    0 -0.89540036198E+01 -0.53125719893E+01 -0.13601004598E+02  0.17128482946E+02  0.00000000000E+00 0.  1.
<mgrwt>
<rscale>  0 0.78522794E+02</rscale>
<asrwt>0</asrwt>
<pdfrwt beam="1">  1        1 0.23100962E-01 0.78522794E+02</pdfrwt>
<pdfrwt beam="2">  1       -2 0.15793367E-02 0.78522794E+02</pdfrwt>
<totfact> 0.16596898E+05</totfact>
</mgrwt>
</event>
<event>
 8    1  0.8577104E-018  0.7921883E+02  0.7818608E-02  0.1331283E+00
         -2   -1    0    0    0  501 -0.00000000000E+00  0.00000000000E+00  0.18820430216E+02  0.18820430389E+02  0.25500000000E-02 0.  1.
          1   -1    0    0  501    0  0.00000000000E+00 -0.00000000000E+00 -0.83361851709E+02  0.83361851861E+02  0.50400000000E-02 0. -1.
        -24    2    1    2    0    0  0.35527136788E-14  0.00000000000E+00 -0.64541421493E+02  0.10218228225E+03  0.79218834361E+02 0.  0.
         66    2    3    3    0    0  0.18695887649E+02 -0.35361740773E+01  0.12481706117E+02  0.22843678198E+02  0.19999759796E+01 0.  0.
         13    1    3    3    0    0 -0.18695887649E+02  0.35361740773E+01 -0.77023127610E+02  0.79338604052E+02  0.10566000000E+00 0. -1.
         13    1    4    4    0    0  0.97495218404E+00 -0.58539931909E+00  0.75269727358E+00  0.13678235797E+01  0.10566000000E+00 0. -1.
        -13    1    4    4    0    0  0.62589854014E+01 -0.12264087039E+01  0.46549328938E+01  0.78967424199E+01  0.10566000000E+00 0.  1.
        -14    1    4    4    0    0  0.11461950063E+02 -0.17243660543E+01  0.70740759499E+01  0.13579112198E+02  0.00000000000E+00 0.  1.
<mgrwt>
<rscale>  0 0.79218834E+02</rscale>
<asrwt>0</asrwt>
<pdfrwt beam="1">  1        1 0.12824900E-01 0.79218834E+02</pdfrwt>
<pdfrwt beam="2">  1       -2 0.28954509E-02 0.79218834E+02</pdfrwt>
<totfact> 0.14649514E+05</totfact>
</mgrwt>
</event>
<event>
 8    1  0.8577104E-018  0.7649056E+02  0.7818608E-02  0.1339316E+00
         -2   -1    0    0    0  501 -0.00000000000E+00  0.00000000000E+00  0.48317804860E+02  0.48317804927E+02  0.25500000000E-02 0.  1.
          1   -1    0    0  501    0  0.00000000000E+00 -0.00000000000E+00 -0.30272517171E+02  0.30272517591E+02  0.50400000000E-02 0. -1.
        -24    2    1    2    0    0  0.00000000000E+00 -0.35527136788E-14  0.18045287689E+02  0.78590322518E+02  0.76490564031E+02 0.  0.
         66    2    3    3    0    0  0.15123558328E+02  0.30527903469E+02  0.26825418319E+02  0.43408270778E+02  0.19999993196E+01 0.  0.
         13    1    3    3    0    0 -0.15123558328E+02 -0.30527903469E+02 -0.87801306303E+01  0.35182051740E+02  0.10566000000E+00 0. -1.
         13    1    4    4    0    0  0.55486781280E+00  0.84886278163E+00  0.69635809393E+00  0.12347165433E+01  0.10566000000E+00 0. -1.
        -13    1    4    4    0    0  0.12621885711E+02  0.25264215675E+02  0.21589188729E+02  0.35548513705E+02  0.10566000000E+00 0.  1.
        -14    1    4    4    0    0  0.19468048040E+01  0.44148250125E+01  0.45398714956E+01  0.66250405306E+01  0.00000000000E+00 0.  1.
<mgrwt>
<rscale>  0 0.76490564E+02</rscale>
<asrwt>0</asrwt>
<pdfrwt beam="1">  1        1 0.46573104E-02 0.76490564E+02</pdfrwt>
<pdfrwt beam="2">  1       -2 0.74335084E-02 0.76490564E+02</pdfrwt>
<totfact> 0.13771495E+05</totfact>
</mgrwt>
</event>
<event>
 8    1  0.8577104E-018  0.8555287E+02  0.7818608E-02  0.1313993E+00
         -2   -1    0    0    0  501 -0.00000000000E+00  0.00000000000E+00  0.17117667685E+03  0.17117667687E+03  0.25500000000E-02 0.  1.
          1   -1    0    0  501    0  0.00000000000E+00 -0.00000000000E+00 -0.10689676334E+02  0.10689677523E+02  0.50400000000E-02 0. -1.
        -24    2    1    2    0    0  0.71054273576E-14  0.35527136788E-14  0.16048700051E+03  0.18186635439E+03  0.85552869765E+02 0.  0.
         66    2    3    3    0    0  0.35436779222E+02  0.23479619859E+02  0.89973055033E+02  0.99529937528E+02  0.19999904761E+01 0.  0.
         13    1    3    3    0    0 -0.35436779222E+02 -0.23479619859E+02  0.70513945479E+02  0.82336416861E+02  0.10566000000E+00 0. -1.
         13    1    4    4    0    0  0.34706558385E+01  0.19645659669E+01  0.87978749968E+01  0.96601625184E+01  0.10566000000E+00 0. -1.
        -13    1    4    4    0    0  0.21873833570E+02  0.15110349400E+02  0.57478008079E+02  0.63328665159E+02  0.10566000000E+00 0.  1.
         14    1    4    4    0    0  0.10092289814E+02  0.64047044927E+01  0.23697171957E+02  0.26541109850E+02  0.00000000000E+00 0. -1.
<mgrwt>
<rscale>  0 0.85552870E+02</rscale>
<asrwt>0</asrwt>
<pdfrwt beam="1">  1        1 0.16445659E-02 0.85552870E+02</pdfrwt>
<pdfrwt beam="2">  1       -2 0.26334870E-01 0.85552870E+02</pdfrwt>
<totfact> 0.75940563E+04</totfact>
</mgrwt>
</event>
<event>
 8    1  0.8577104E-018  0.7872255E+02  0.7818608E-02  0.1332716E+00
         -2   -1    0    0    0  501 -0.00000000000E+00  0.00000000000E+00  0.46260824020E+01  0.46260831048E+01  0.25500000000E-02 0.  1.
          1   -1    0    0  501    0  0.00000000000E+00 -0.00000000000E+00 -0.33490749394E+03  0.33490749398E+03  0.50400000000E-02 0. -1.
        -24    2    1    2    0    0  0.00000000000E+00 -0.55511151231E-16 -0.33028141154E+03  0.33953357709E+03  0.78722545431E+02 0.  0.
         66    2    3    3    0    0 -0.39248611987E+02  0.49371640660E+00 -0.15416029401E+03  0.15909146309E+03  0.20000200208E+01 0.  0.
         13    1    3    3    0    0  0.39248611987E+02 -0.49371640660E+00 -0.17612111753E+03  0.18044211400E+03  0.10566000000E+00 0. -1.
         13    1    4    4    0    0 -0.58316639242E+00  0.22296084216E-01 -0.17698813712E+01  0.18666076878E+01  0.10566000000E+00 0. -1.
        -13    1    4    4    0    0 -0.64292876119E+01  0.52677272190E+00 -0.25796921269E+02  0.26591456141E+02  0.10566000000E+00 0. -1.
        -14    1    4    4    0    0 -0.32236157983E+02 -0.55352399521E-01 -0.12659349137E+03  0.13063339926E+03  0.00000000000E+00 0.  1.
<mgrwt>
<rscale>  0 0.78722545E+02</rscale>
<asrwt>0</asrwt>
<pdfrwt beam="1">  1        1 0.51524211E-01 0.78722545E+02</pdfrwt>
<pdfrwt beam="2">  1       -2 0.71170530E-03 0.78722545E+02</pdfrwt>
<totfact> 0.19212668E+05</totfact>
</mgrwt>
</event>
<event>
 8    1  0.8577104E-018  0.7931648E+02  0.7818608E-02  0.1331002E+00
         -2   -1    0    0    0  501 -0.00000000000E+00  0.00000000000E+00  0.11068341541E+02  0.11068341834E+02  0.25500000000E-02 0.  1.
          1   -1    0    0  501    0  0.00000000000E+00 -0.00000000000E+00 -0.14209679833E+03  0.14209679842E+03  0.50400000000E-02 0. -1.
        -24    2    1    2    0    0  0.00000000000E+00  0.00000000000E+00 -0.13102845679E+03  0.15316514025E+03  0.79316478113E+02 0.  0.
         66    2    3    3    0    0 -0.25892235858E+02  0.28531104170E+02 -0.47612542178E+02  0.61281203914E+02  0.19999993861E+01 0.  0.
         13    1    3    3    0    0  0.25892235858E+02 -0.28531104170E+02 -0.83415914609E+02  0.91883936338E+02  0.10566000000E+00 0. -1.
         13    1    4    4    0    0 -0.52286927979E+01  0.67289317671E+01 -0.98869893717E+01  0.13053025472E+02  0.10566000000E+00 0.  1.
        -13    1    4    4    0    0 -0.12394281106E+02  0.13355121116E+02 -0.22486605251E+02  0.28941942642E+02  0.10566000000E+00 0.  1.
        -14    1    4    4    0    0 -0.82692619543E+01  0.84470512872E+01 -0.15238947556E+02  0.19286235800E+02  0.00000000000E+00 0.  1.
<mgrwt>
<rscale>  0 0.79316478E+02</rscale>
<asrwt>0</asrwt>
<pdfrwt beam="1">  1        1 0.21861045E-01 0.79316478E+02</pdfrwt>
<pdfrwt beam="2">  1       -2 0.17028219E-02 0.79316478E+02</pdfrwt>
<totfact> 0.15995272E+05</totfact>
</mgrwt>
</event>
<event>
 8    1  0.8577104E-018  0.7955723E+02  0.7818608E-02  0.1330313E+00
          1   -1    0    0  501    0  0.00000000000E+00  0.00000000000E+00  0.12155367599E+02  0.12155368643E+02  0.50400000000E-02 0. -1.
         -2   -1    0    0    0  501 -0.00000000000E+00 -0.00000000000E+00 -0.13017607871E+03  0.13017607873E+03  0.25500000000E-02 0.  1.
        -24    2    1    2    0    0  0.35527136788E-14  0.35527136788E-14 -0.11802071111E+03  0.14233144738E+03  0.79557228845E+02 0.  0.
         66    2    3    3    0    0  0.27881264273E+02 -0.18689745643E+02 -0.97153011545E+02  0.10280748580E+03  0.19999986298E+01 0.  0.
         13    1    3    3    0    0 -0.27881264273E+02  0.18689745643E+02 -0.20867699567E+02  0.39523961579E+02  0.10566000000E+00 0. -1.
         13    1    4    4    0    0  0.16562873268E+02 -0.10335249785E+02 -0.54761797709E+02  0.58137868996E+02  0.10566000000E+00 0. -1.
        -13    1    4    4    0    0  0.10026084681E+02 -0.71701163349E+01 -0.37476797027E+02  0.39451925450E+02  0.10566000000E+00 0.  1.
        -14    1    4    4    0    0  0.12923063229E+01 -0.11843795233E+01 -0.49144168081E+01  0.52176913526E+01  0.00000000000E+00 0.  1.
<mgrwt>
<rscale>  0 0.79557229E+02</rscale>
<asrwt>0</asrwt>
<pdfrwt beam="1">  1        1 0.18700567E-02 0.79557229E+02</pdfrwt>
<pdfrwt beam="2">  1       -2 0.20027088E-01 0.79557229E+02</pdfrwt>
<totfact> 0.10021245E+05</totfact>
</mgrwt>
</event>
<event>
 8    1  0.8577104E-018  0.8027323E+02  0.7818608E-02  0.1328278E+00
         -2   -1    0    0    0  501 -0.00000000000E+00  0.00000000000E+00  0.10349398924E+02  0.10349399238E+02  0.25500000000E-02 0.  1.
          1   -1    0    0  501    0  0.00000000000E+00 -0.00000000000E+00 -0.15565618772E+03  0.15565618780E+03  0.50400000000E-02 0. -1.
        -24    2    1    2    0    0  0.00000000000E+00  0.00000000000E+00 -0.14530678880E+03  0.16600558704E+03  0.80273233759E+02 0.  0.
         66    2    3    3    0    0 -0.89483073489E+01 -0.30911549010E+02 -0.23180638660E+02  0.39710679074E+02  0.19999893115E+01 0.  0.
         13    1    3    3    0    0  0.89483073489E+01  0.30911549010E+02 -0.12212615014E+03  0.12629490797E+03  0.10566000000E+00 0. -1.
         13    1    4    4    0    0 -0.12229356970E+01 -0.48427709934E+01 -0.41967390052E+01  0.65247057349E+01  0.10566000000E+00 0.  1.
        -13    1    4    4    0    0 -0.70107953861E+01 -0.24081083668E+02 -0.17886709446E+02  0.30805768639E+02  0.10566000000E+00 0.  1.
        -14    1    4    4    0    0 -0.71457626576E+00 -0.19876943487E+01 -0.10971902080E+01  0.23802047004E+01  0.00000000000E+00 0.  1.
<mgrwt>
<rscale>  0 0.80273234E+02</rscale>
<asrwt>0</asrwt>
<pdfrwt beam="1">  1        1 0.23947104E-01 0.80273234E+02</pdfrwt>
<pdfrwt beam="2">  1       -2 0.15922154E-02 0.80273234E+02</pdfrwt>
<totfact> 0.15752969E+05</totfact>
</mgrwt>
</event>
<event>
 8    1  0.8577104E-018  0.8119344E+02  0.7818608E-02  0.1325698E+00
          1   -1    0    0  501    0  0.00000000000E+00  0.00000000000E+00  0.12620867607E+02  0.12620868613E+02  0.50400000000E-02 0. -1.
         -2   -1    0    0    0  501 -0.00000000000E+00 -0.00000000000E+00 -0.13058480788E+03  0.13058480791E+03  0.25500000000E-02 0.  1.
        -24    2    1    2    0    0  0.00000000000E+00 -0.17763568394E-14 -0.11796394027E+03  0.14320567652E+03  0.81193439281E+02 0.  0.
         66    2    3    3    0    0  0.10279092883E+02  0.10852566772E+02 -0.12554320272E+03  0.12644577380E+03  0.20000014705E+01 0.  0.
         13    1    3    3    0    0 -0.10279092883E+02 -0.10852566772E+02  0.75792624456E+01  0.16759902723E+02  0.10566000000E+00 0. -1.
         13    1    4    4    0    0  0.56174738996E+01  0.56632074122E+01 -0.71296115175E+02  0.71741028249E+02  0.10566000000E+00 0. -1.
        -13    1    4    4    0    0  0.38112028720E+01  0.45404371158E+01 -0.48261732712E+02  0.48624549817E+02  0.10566000000E+00 0.  1.
         14    1    4    4    0    0  0.85041611098E+00  0.64892224375E+00 -0.59853548325E+01  0.60801957297E+01  0.00000000000E+00 0. -1.
<mgrwt>
<rscale>  0 0.81193439E+02</rscale>
<asrwt>0</asrwt>
<pdfrwt beam="1">  1        1 0.19416721E-02 0.81193439E+02</pdfrwt>
<pdfrwt beam="2">  1       -2 0.20089970E-01 0.81193439E+02</pdfrwt>
<totfact> 0.95015380E+04</totfact>
</mgrwt>
</event>
<event>
 8    1  0.8577104E-018  0.8012176E+02  0.7818608E-02  0.1328706E+00
         -2   -1    0    0    0  501 -0.00000000000E+00  0.00000000000E+00  0.13346582513E+03  0.13346582515E+03  0.25500000000E-02 0.  1.
          1   -1    0    0  501    0  0.00000000000E+00 -0.00000000000E+00 -0.12024605584E+02  0.12024606640E+02  0.50400000000E-02 0. -1.
        -24    2    1    2    0    0  0.17763568394E-14 -0.71054273576E-14  0.12144121954E+03  0.14549043179E+03  0.80121756961E+02 0.  0.
         66    2    3    3    0    0  0.15809422615E+02 -0.36263782614E+02  0.71932818561E+02  0.82117782290E+02  0.20000023110E+01 0.  0.
         13    1    3    3    0    0 -0.15809422615E+02  0.36263782614E+02  0.49508400982E+02  0.63372649500E+02  0.10566000000E+00 0. -1.
         13    1    4    4    0    0  0.52927118621E+01 -0.12611283499E+02  0.26000971324E+02  0.29378886026E+02  0.10566000000E+00 0.  1.
        -13    1    4    4    0    0  0.22883306853E+01 -0.62835514686E+01  0.11263215027E+02  0.13099261550E+02  0.10566000000E+00 0. -1.
         14    1    4    4    0    0  0.82283800674E+01 -0.17368947646E+02  0.34668632211E+02  0.39639634714E+02  0.00000000000E+00 0. -1.
<mgrwt>
<rscale>  0 0.80121757E+02</rscale>
<asrwt>0</asrwt>
<pdfrwt beam="1">  1        1 0.18499394E-02 0.80121757E+02</pdfrwt>
<pdfrwt beam="2">  1       -2 0.20533204E-01 0.80121757E+02</pdfrwt>
<totfact> 0.97674169E+04</totfact>
</mgrwt>
</event>
<event>
 8    1  0.8577104E-018  0.7735238E+02  0.7818608E-02  0.1336737E+00
         -2   -1    0    0    0  501 -0.00000000000E+00  0.00000000000E+00  0.13756113907E+02  0.13756114144E+02  0.25500000000E-02 0.  1.
          1   -1    0    0  501    0  0.00000000000E+00 -0.00000000000E+00 -0.10874057274E+03  0.10874057286E+03  0.50400000000E-02 0. -1.
        -24    2    1    2    0    0  0.35527136788E-14 -0.35527136788E-14 -0.94984458835E+02  0.12249668700E+03  0.77352381389E+02 0.  0.
         66    2    3    3    0    0 -0.27150414388E+02  0.17016383556E+02 -0.81751329751E+02  0.87829278964E+02  0.20000041155E+01 0.  0.
         13    1    3    3    0    0  0.27150414388E+02 -0.17016383556E+02 -0.13233129084E+02  0.34667408039E+02  0.10566000000E+00 0. -1.
         13    1    4    4    0    0 -0.20098092180E+01  0.11159207140E+01 -0.61588500731E+01  0.65747403288E+01  0.10566000000E+00 0. -1.
        -13    1    4    4    0    0 -0.96264673599E+01  0.53691630873E+01 -0.26344890830E+02  0.28558032547E+02  0.10566000000E+00 0.  1.
         14    1    4    4    0    0 -0.15514137810E+02  0.10531299755E+02 -0.49247588849E+02  0.52696506088E+02  0.00000000000E+00 0. -1.
<mgrwt>
<rscale>  0 0.77352381E+02</rscale>
<asrwt>0</asrwt>
<pdfrwt beam="1">  1        1 0.16729318E-01 0.77352381E+02</pdfrwt>
<pdfrwt beam="2">  1       -2 0.21163253E-02 0.77352381E+02</pdfrwt>
<totfact> 0.16322398E+05</totfact>
</mgrwt>
</event>
<event>
 8    1  0.8577104E-018  0.7998932E+02  0.7818608E-02  0.1329082E+00
         -2   -1    0    0    0  501 -0.00000000000E+00  0.00000000000E+00  0.37452595425E+02  0.37452595512E+02  0.25500000000E-02 0.  1.
          1   -1    0    0  501    0  0.00000000000E+00 -0.00000000000E+00 -0.42709268604E+02  0.42709268901E+02  0.50400000000E-02 0. -1.
        -24    2    1    2    0    0 -0.71054273576E-14  0.00000000000E+00 -0.52566731787E+01  0.80161864413E+02  0.79989323621E+02 0.  0.
         66    2    3    3    0    0  0.26965120704E+02 -0.29430242252E+02 -0.47107769942E+01  0.40242369674E+02  0.20000008720E+01 0.  0.
         13    1    3    3    0    0 -0.26965120704E+02  0.29430242252E+02 -0.54589618459E+00  0.39919494739E+02  0.10566000000E+00 0. -1.
         13    1    4    4    0    0  0.80865107856E+01 -0.92920240388E+01 -0.19064101696E+01  0.12465108551E+02  0.10566000000E+00 0. -1.
        -13    1    4    4    0    0  0.59163542839E+01 -0.69273977252E+01 -0.13800513234E+01  0.92145424708E+01  0.10566000000E+00 0.  1.
         14    1    4    4    0    0  0.12962255635E+02 -0.13210820488E+02 -0.14243155012E+01  0.18562718652E+02  0.00000000000E+00 0. -1.
<mgrwt>
<rscale>  0 0.79989324E+02</rscale>
<asrwt>0</asrwt>
<pdfrwt beam="1">  1        1 0.65706568E-02 0.79989324E+02</pdfrwt>
<pdfrwt beam="2">  1       -2 0.57619378E-02 0.79989324E+02</pdfrwt>
<totfact> 0.12837245E+05</totfact>
</mgrwt>
</event>
<event>
 8    1  0.8577104E-018  0.7953836E+02  0.7818608E-02  0.1330367E+00
         -2   -1    0    0    0  501 -0.00000000000E+00  0.00000000000E+00  0.10109351748E+02  0.10109352070E+02  0.25500000000E-02 0.  1.
          1   -1    0    0  501    0  0.00000000000E+00 -0.00000000000E+00 -0.15644798622E+03  0.15644798630E+03  0.50400000000E-02 0. -1.
        -24    2    1    2    0    0 -0.17763568394E-14  0.00000000000E+00 -0.14633863447E+03  0.16655733837E+03  0.79538361978E+02 0.  0.
         66    2    3    3    0    0  0.10998459659E+02  0.32445054714E+02 -0.31024876883E+02  0.46262194896E+02  0.20000001916E+01 0.  0.
         13    1    3    3    0    0 -0.10998459659E+02 -0.32445054714E+02 -0.11531375759E+03  0.12029514347E+03  0.10566000000E+00 0. -1.
         13    1    4    4    0    0  0.22933527182E+01  0.77134625627E+01 -0.77083634748E+01  0.11143922240E+02  0.10566000000E+00 0. -1.
        -13    1    4    4    0    0  0.63501907816E+01  0.16519900608E+02 -0.15085783152E+02  0.23255624189E+02  0.10566000000E+00 0.  1.
        -14    1    4    4    0    0  0.23549161596E+01  0.82116915432E+01 -0.82307302561E+01  0.11862648468E+02  0.00000000000E+00 0.  1.
<mgrwt>
<rscale>  0 0.79538362E+02</rscale>
<asrwt>0</asrwt>
<pdfrwt beam="1">  1        1 0.24068919E-01 0.79538362E+02</pdfrwt>
<pdfrwt beam="2">  1       -2 0.15552850E-02 0.79538362E+02</pdfrwt>
<totfact> 0.16159694E+05</totfact>
</mgrwt>
</event>
<event>
 8    1  0.8577104E-018  0.8020300E+02  0.7818608E-02  0.1328476E+00
          1   -1    0    0  501    0  0.00000000000E+00  0.00000000000E+00  0.16581901637E+02  0.16581902403E+02  0.50400000000E-02 0. -1.
         -2   -1    0    0    0  501 -0.00000000000E+00 -0.00000000000E+00 -0.96981046442E+02  0.96981046475E+02  0.25500000000E-02 0.  1.
        -24    2    1    2    0    0  0.00000000000E+00  0.00000000000E+00 -0.80399144804E+02  0.11356294888E+03  0.80202997904E+02 0.  0.
         66    2    3    3    0    0 -0.22171523984E+02  0.52324495305E+01 -0.86911378979E+02  0.89869587744E+02  0.20000003419E+01 0.  0.
         13    1    3    3    0    0  0.22171523984E+02 -0.52324495305E+01  0.65122341750E+01  0.23693361135E+02  0.10566000000E+00 0. -1.
         13    1    4    4    0    0 -0.87613672215E+01  0.13800153152E+01 -0.34863821835E+02  0.35974480328E+02  0.10566000000E+00 0. -1.
        -13    1    4    4    0    0 -0.62695703841E+01  0.13313220611E+01 -0.22972243390E+02  0.23849844059E+02  0.10566000000E+00 0.  1.
        -14    1    4    4    0    0 -0.71405863785E+01  0.25211121543E+01 -0.29075313754E+02  0.30045263358E+02  0.00000000000E+00 0.  1.
<mgrwt>
<rscale>  0 0.80202998E+02</rscale>
<asrwt>0</asrwt>
<pdfrwt beam="1">  1        1 0.25510619E-02 0.80202998E+02</pdfrwt>
<pdfrwt beam="2">  1       -2 0.14920161E-01 0.80202998E+02</pdfrwt>
<totfact> 0.10623982E+05</totfact>
</mgrwt>
</event>
<event>
 8    1  0.8577104E-018  0.7990199E+02  0.7818608E-02  0.1329330E+00
          1   -1    0    0  501    0  0.00000000000E+00  0.00000000000E+00  0.15736532077E+03  0.15736532085E+03  0.50400000000E-02 0. -1.
         -2   -1    0    0    0  501 -0.00000000000E+00 -0.00000000000E+00 -0.10142525909E+02  0.10142526230E+02  0.25500000000E-02 0.  1.
        -24    2    1    2    0    0  0.17763568394E-14  0.00000000000E+00  0.14722279486E+03  0.16750784708E+03  0.79901986878E+02 0.  0.
         66    2    3    3    0    0  0.99523149181E+01 -0.36608889982E+02  0.47572582104E+02  0.60880292178E+02  0.20000024347E+01 0.  0.
         13    1    3    3    0    0 -0.99523149181E+01  0.36608889982E+02  0.99650212757E+02  0.10662755490E+03  0.10566000000E+00 0. -1.
         13    1    4    4    0    0  0.22306268989E+01 -0.93340853247E+01  0.11052278331E+02  0.14637788957E+02  0.10566000000E+00 0. -1.
        -13    1    4    4    0    0  0.57420536091E+01 -0.19761241152E+02  0.25780468450E+02  0.32986687452E+02  0.10566000000E+00 0.  1.
         14    1    4    4    0    0  0.19796344101E+01 -0.75135635055E+01  0.10739835322E+02  0.13255815769E+02  0.00000000000E+00 0. -1.
<mgrwt>
<rscale>  0 0.79901987E+02</rscale>
<asrwt>0</asrwt>
<pdfrwt beam="1">  1        1 0.24210050E-01 0.79901987E+02</pdfrwt>
<pdfrwt beam="2">  1       -2 0.15603886E-02 0.79901987E+02</pdfrwt>
<totfact> 0.15981585E+05</totfact>
</mgrwt>
</event>
<event>
 8    1  0.8577104E-018  0.8213754E+02  0.7818608E-02  0.1323093E+00
         -2   -1    0    0    0  501 -0.00000000000E+00  0.00000000000E+00  0.10718613495E+03  0.10718613498E+03  0.25500000000E-02 0.  1.
          1   -1    0    0  501    0  0.00000000000E+00 -0.00000000000E+00 -0.15735652546E+02  0.15735653354E+02  0.50400000000E-02 0. -1.
        -24    2    1    2    0    0  0.17763568394E-14  0.00000000000E+00  0.91450482402E+02  0.12292178833E+03  0.82137539014E+02 0.  0.
         66    2    3    3    0    0 -0.12857512062E+02  0.21909664745E+02  0.93997632026E+02  0.97390471075E+02  0.20000009962E+01 0.  0.
         13    1    3    3    0    0  0.12857512062E+02 -0.21909664745E+02 -0.25471496244E+01  0.25531317257E+02  0.10566000000E+00 0. -1.
         13    1    4    4    0    0 -0.23694092720E+01  0.32449513445E+01  0.14520324425E+02  0.15066346437E+02  0.10566000000E+00 0. -1.
        -13    1    4    4    0    0 -0.10106847461E+02  0.17267310579E+02  0.74565135252E+02  0.77202842820E+02  0.10566000000E+00 0.  1.
        -14    1    4    4    0    0 -0.38125532920E+00  0.13974028212E+01  0.49121723494E+01  0.51212818181E+01  0.00000000000E+00 0.  1.
<mgrwt>
<rscale>  0 0.82137539E+02</rscale>
<asrwt>0</asrwt>
<pdfrwt beam="1">  1        1 0.24208697E-02 0.82137539E+02</pdfrwt>
<pdfrwt beam="2">  1       -2 0.16490174E-01 0.82137539E+02</pdfrwt>
<totfact> 0.97457301E+04</totfact>
</mgrwt>
</event>
<event>
 8    1  0.8577104E-018  0.8230678E+02  0.7818608E-02  0.1322630E+00
         -2   -1    0    0    0  501 -0.00000000000E+00  0.00000000000E+00  0.50084520905E+02  0.50084520970E+02  0.25500000000E-02 0.  1.
          1   -1    0    0  501    0  0.00000000000E+00 -0.00000000000E+00 -0.33814871546E+02  0.33814871922E+02  0.50400000000E-02 0. -1.
        -24    2    1    2    0    0  0.00000000000E+00  0.71054273576E-14  0.16269649359E+02  0.83899392892E+02  0.82306783665E+02 0.  0.
         66    2    3    3    0    0 -0.21212567192E+01 -0.37743975059E+02 -0.83754003369E+01  0.38771829010E+02  0.20000026590E+01 0.  0.
         13    1    3    3    0    0  0.21212567192E+01  0.37743975059E+02  0.24645049696E+02  0.45127563882E+02  0.10566000000E+00 0. -1.
         13    1    4    4    0    0  0.15293438889E+00 -0.61081064609E+01 -0.16960038578E+01  0.63419197871E+01  0.10566000000E+00 0. -1.
        -13    1    4    4    0    0 -0.15839145676E+01 -0.22903738092E+02 -0.43650714551E+01  0.23369959709E+02  0.10566000000E+00 0.  1.
        -14    1    4    4    0    0 -0.69027654053E+00 -0.87321305066E+01 -0.23143250240E+01  0.90599495144E+01  0.00000000000E+00 0.  1.
<mgrwt>
<rscale>  0 0.82306784E+02</rscale>
<asrwt>0</asrwt>
<pdfrwt beam="1">  1        1 0.52022880E-02 0.82306784E+02</pdfrwt>
<pdfrwt beam="2">  1       -2 0.77053109E-02 0.82306784E+02</pdfrwt>
<totfact> 0.11384996E+05</totfact>
</mgrwt>
</event>
<event>
 8    1  0.8577104E-018  0.7471060E+02  0.7818608E-02  0.1344770E+00
         -2   -1    0    0    0  501 -0.00000000000E+00  0.00000000000E+00  0.14939446808E+03  0.14939446811E+03  0.25500000000E-02 0.  1.
          1   -1    0    0  501    0  0.00000000000E+00 -0.00000000000E+00 -0.93404957635E+01  0.93404971233E+01  0.50400000000E-02 0. -1.
        -24    2    1    2    0    0  0.00000000000E+00  0.00000000000E+00  0.14005397232E+03  0.15873496523E+03  0.74710601815E+02 0.  0.
         66    2    3    3    0    0 -0.23329813509E+02 -0.28241873132E+02  0.85328811860E+02  0.92881051543E+02  0.20000014786E+01 0.  0.
         13    1    3    3    0    0  0.23329813509E+02  0.28241873132E+02  0.54725160461E+02  0.65853913687E+02  0.10566000000E+00 0. -1.
         13    1    4    4    0    0 -0.21742480808E+01 -0.32734734533E+01  0.92179686811E+01  0.10021232150E+02  0.10566000000E+00 0. -1.
        -13    1    4    4    0    0 -0.11040354774E+02 -0.12345520084E+02  0.37175121401E+02  0.40697691764E+02  0.10566000000E+00 0.  1.
        -14    1    4    4    0    0 -0.10115210654E+02 -0.12622879595E+02  0.38935721778E+02  0.42162127629E+02  0.00000000000E+00 0.  1.
<mgrwt>
<rscale>  0 0.74710602E+02</rscale>
<asrwt>0</asrwt>
<pdfrwt beam="1">  1        1 0.14369993E-02 0.74710602E+02</pdfrwt>
<pdfrwt beam="2">  1       -2 0.22983767E-01 0.74710602E+02</pdfrwt>
<totfact> 0.11280826E+05</totfact>
</mgrwt>
</event>
<event>
 8    1  0.8577104E-018  0.8065443E+02  0.7818608E-02  0.1327204E+00
          1   -1    0    0  501    0  0.00000000000E+00  0.00000000000E+00  0.11029589170E+02  0.11029590321E+02  0.50400000000E-02 0. -1.
         -2   -1    0    0    0  501 -0.00000000000E+00 -0.00000000000E+00 -0.14744739036E+03  0.14744739039E+03  0.25500000000E-02 0.  1.
        -24    2    1    2    0    0 -0.35527136788E-14  0.17763568394E-14 -0.13641780120E+03  0.15847698071E+03  0.80654429087E+02 0.  0.
         66    2    3    3    0    0  0.26757950915E+02 -0.13571518746E+02 -0.12112431541E+03  0.12480093685E+03  0.19999995022E+01 0.  0.
         13    1    3    3    0    0 -0.26757950915E+02  0.13571518746E+02 -0.15293485788E+02  0.33676043857E+02  0.10566000000E+00 0. -1.
         13    1    4    4    0    0  0.42892352540E+01 -0.20097659232E+01 -0.17315066957E+02  0.17951585052E+02  0.10566000000E+00 0. -1.
        -13    1    4    4    0    0  0.18791842253E+02 -0.95696543959E+01 -0.84402428744E+02  0.86997084792E+02  0.10566000000E+00 0.  1.
        -14    1    4    4    0    0  0.36768734083E+01 -0.19920984266E+01 -0.19406819706E+02  0.19852267007E+02  0.00000000000E+00 0.  1.
<mgrwt>
<rscale>  0 0.80654429E+02</rscale>
<asrwt>0</asrwt>
<pdfrwt beam="1">  1        1 0.16968601E-02 0.80654429E+02</pdfrwt>
<pdfrwt beam="2">  1       -2 0.22684213E-01 0.80654429E+02</pdfrwt>
<totfact> 0.93069468E+04</totfact>
</mgrwt>
</event>
<event>
 8    1  0.8577104E-018  0.8093538E+02  0.7818608E-02  0.1326418E+00
         -2   -1    0    0    0  501 -0.00000000000E+00  0.00000000000E+00  0.29896102504E+02  0.29896102613E+02  0.25500000000E-02 0.  1.
          1   -1    0    0  501    0  0.00000000000E+00 -0.00000000000E+00 -0.54777505248E+02  0.54777505480E+02  0.50400000000E-02 0. -1.
        -24    2    1    2    0    0  0.00000000000E+00  0.00000000000E+00 -0.24881402744E+02  0.84673608093E+02  0.80935379810E+02 0.  0.
         66    2    3    3    0    0 -0.33311918807E+02  0.94052986026E+00  0.11524276636E+02  0.35318231627E+02  0.20000005630E+01 0.  0.
         13    1    3    3    0    0  0.33311918807E+02 -0.94052986026E+00 -0.36405679380E+02  0.49355376467E+02  0.10566000000E+00 0. -1.
         13    1    4    4    0    0 -0.87267043974E+01  0.31495963874E+00  0.35499701703E+01  0.94269836883E+01  0.10566000000E+00 0. -1.
        -13    1    4    4    0    0 -0.73558503624E+01  0.26603576759E+00  0.17322330009E+01  0.75624800687E+01  0.10566000000E+00 0.  1.
         14    1    4    4    0    0 -0.17229364047E+02  0.35953445394E+00  0.62420734647E+01  0.18328767870E+02  0.00000000000E+00 0. -1.
<mgrwt>
<rscale>  0 0.80935380E+02</rscale>
<asrwt>0</asrwt>
<pdfrwt beam="1">  1        1 0.84273086E-02 0.80935380E+02</pdfrwt>
<pdfrwt beam="2">  1       -2 0.45994004E-02 0.80935380E+02</pdfrwt>
<totfact> 0.12923688E+05</totfact>
</mgrwt>
</event>
<event>
 8    1  0.8577104E-018  0.7423725E+02  0.7818608E-02  0.1346249E+00
         -2   -1    0    0    0  501 -0.00000000000E+00  0.00000000000E+00  0.82001111621E+02  0.82001111660E+02  0.25500000000E-02 0.  1.
          1   -1    0    0  501    0  0.00000000000E+00 -0.00000000000E+00 -0.16802118576E+02  0.16802119332E+02  0.50400000000E-02 0. -1.
        -24    2    1    2    0    0  0.17763568394E-14  0.00000000000E+00  0.65198993045E+02  0.98803230992E+02  0.74237253186E+02 0.  0.
         66    2    3    3    0    0 -0.11085836829E+02  0.19059292224E+02  0.72319866248E+02  0.75632767089E+02  0.20000012929E+01 0.  0.
         13    1    3    3    0    0  0.11085836829E+02 -0.19059292224E+02 -0.71208732036E+01  0.23170463903E+02  0.10566000000E+00 0. -1.
         13    1    4    4    0    0 -0.27080309600E+01  0.47483744055E+01  0.17144555964E+02  0.17995206429E+02  0.10566000000E+00 0. -1.
        -13    1    4    4    0    0 -0.17893614855E+01  0.20181809389E+01  0.79437455071E+01  0.83898227362E+01  0.10566000000E+00 0.  1.
        -14    1    4    4    0    0 -0.65884443831E+01  0.12292736880E+02  0.47231564777E+02  0.49247737924E+02  0.00000000000E+00 0.  1.
<mgrwt>
<rscale>  0 0.74237253E+02</rscale>
<asrwt>0</asrwt>
<pdfrwt beam="1">  1        1 0.25849414E-02 0.74237253E+02</pdfrwt>
<pdfrwt beam="2">  1       -2 0.12615556E-01 0.74237253E+02</pdfrwt>
<totfact> 0.13445787E+05</totfact>
</mgrwt>
</event>
<event>
 8    1  0.8577104E-018  0.8089112E+02  0.7818608E-02  0.1326541E+00
         -2   -1    0    0    0  501 -0.00000000000E+00  0.00000000000E+00  0.53289643065E+02  0.53289643126E+02  0.25500000000E-02 0.  1.
          1   -1    0    0  501    0  0.00000000000E+00 -0.00000000000E+00 -0.30697206962E+02  0.30697207376E+02  0.50400000000E-02 0. -1.
        -24    2    1    2    0    0  0.00000000000E+00 -0.71054273576E-14  0.22592436103E+02  0.83986850502E+02  0.80891117486E+02 0.  0.
         66    2    3    3    0    0 -0.21823919373E+02 -0.29169272362E+02  0.29486427324E+02  0.46910332517E+02  0.19999983942E+01 0.  0.
         13    1    3    3    0    0  0.21823919373E+02  0.29169272362E+02 -0.68939912216E+01  0.37076517985E+02  0.10566000000E+00 0. -1.
         13    1    4    4    0    0 -0.64857194386E+01 -0.93068786969E+01  0.93915860170E+01  0.14727375858E+02  0.10566000000E+00 0. -1.
        -13    1    4    4    0    0 -0.19981685371E+01 -0.24328537434E+01  0.19455664534E+01  0.37024110658E+01  0.10566000000E+00 0.  1.
        -14    1    4    4    0    0 -0.13340031398E+02 -0.17429539921E+02  0.18149274854E+02  0.28480545593E+02  0.00000000000E+00 0.  1.
<mgrwt>
<rscale>  0 0.80891117E+02</rscale>
<asrwt>0</asrwt>
<pdfrwt beam="1">  1        1 0.47226473E-02 0.80891117E+02</pdfrwt>
<pdfrwt beam="2">  1       -2 0.81984067E-02 0.80891117E+02</pdfrwt>
<totfact> 0.11763559E+05</totfact>
</mgrwt>
</event>
<event>
 8    1  0.8577104E-018  0.7677097E+02  0.7818608E-02  0.1338473E+00
          1   -1    0    0  501    0  0.00000000000E+00  0.00000000000E+00  0.21673376905E+02  0.21673377491E+02  0.50400000000E-02 0. -1.
         -2   -1    0    0    0  501 -0.00000000000E+00 -0.00000000000E+00 -0.67984110092E+02  0.67984110139E+02  0.25500000000E-02 0.  1.
        -24    2    1    2    0    0 -0.22204460493E-15  0.00000000000E+00 -0.46310733186E+02  0.89657487631E+02  0.76770965085E+02 0.  0.
         66    2    3    3    0    0 -0.10112490261E+01  0.28441867881E+02 -0.53207392981E+02  0.60373745494E+02  0.20000010051E+01 0.  0.
         13    1    3    3    0    0  0.10112490261E+01 -0.28441867881E+02  0.68966597952E+01  0.29283742136E+02  0.10566000000E+00 0. -1.
         13    1    4    4    0    0 -0.55001579092E+00  0.52736769327E+01 -0.88745915853E+01  0.10338458570E+02  0.10566000000E+00 0. -1.
        -13    1    4    4    0    0  0.33879854728E+00  0.60108243028E+01 -0.11634235812E+02  0.13100053443E+02  0.10566000000E+00 0.  1.
         14    1    4    4    0    0 -0.80003178245E+00  0.17157366645E+02 -0.32698565584E+02  0.36935233481E+02  0.00000000000E+00 0. -1.
<mgrwt>
<rscale>  0 0.76770965E+02</rscale>
<asrwt>0</asrwt>
<pdfrwt beam="1">  1        1 0.33343658E-02 0.76770965E+02</pdfrwt>
<pdfrwt beam="2">  1       -2 0.10459094E-01 0.76770965E+02</pdfrwt>
<totfact> 0.12831796E+05</totfact>
</mgrwt>
</event>
<event>
 8    1  0.8577104E-018  0.8206928E+02  0.7818608E-02  0.1323280E+00
          1   -1    0    0  501    0  0.00000000000E+00  0.00000000000E+00  0.91151426724E+01  0.91151440658E+01  0.50400000000E-02 0. -1.
         -2   -1    0    0    0  501 -0.00000000000E+00 -0.00000000000E+00 -0.18473013330E+03  0.18473013332E+03  0.25500000000E-02 0.  1.
        -24    2    1    2    0    0  0.00000000000E+00  0.71054273576E-14 -0.17561499063E+03  0.19384527739E+03  0.82069279459E+02 0.  0.
         66    2    3    3    0    0  0.13874685857E+02  0.37673641957E+02 -0.68094092974E+02  0.79073482930E+02  0.19999996688E+01 0.  0.
         13    1    3    3    0    0 -0.13874685857E+02 -0.37673641957E+02 -0.10752089766E+03  0.11477179446E+03  0.10566000000E+00 0. -1.
         13    1    4    4    0    0  0.27397336937E+01  0.72680280462E+01 -0.12038711950E+02  0.14327320819E+02  0.10566000000E+00 0. -1.
        -13    1    4    4    0    0  0.41136607357E+01  0.12488319904E+02 -0.22015359365E+02  0.25643079977E+02  0.10566000000E+00 0.  1.
         14    1    4    4    0    0  0.70212914276E+01  0.17917294007E+02 -0.34040021659E+02  0.39103082134E+02  0.00000000000E+00 0. -1.
<mgrwt>
<rscale>  0 0.82069279E+02</rscale>
<asrwt>0</asrwt>
<pdfrwt beam="1">  1        1 0.14023299E-02 0.82069279E+02</pdfrwt>
<pdfrwt beam="2">  1       -2 0.28420018E-01 0.82069279E+02</pdfrwt>
<totfact> 0.82184235E+04</totfact>
</mgrwt>
</event>
<event>
 8    1  0.8577104E-018  0.8009429E+02  0.7818608E-02  0.1328784E+00
         -2   -1    0    0    0  501 -0.00000000000E+00  0.00000000000E+00  0.21445266819E+02  0.21445266970E+02  0.25500000000E-02 0.  1.
          1   -1    0    0  501    0  0.00000000000E+00 -0.00000000000E+00 -0.74784514548E+02  0.74784514718E+02  0.50400000000E-02 0. -1.
        -24    2    1    2    0    0  0.00000000000E+00  0.35527136788E-14 -0.53339247729E+02  0.96229781688E+02  0.80094291529E+02 0.  0.
         66    2    3    3    0    0 -0.23361832060E+01  0.18471215915E+02  0.15878680612E+02  0.24551498106E+02  0.19999979756E+01 0.  0.
         13    1    3    3    0    0  0.23361832060E+01 -0.18471215915E+02 -0.69217928342E+02  0.71678283582E+02  0.10566000000E+00 0. -1.
         13    1    4    4    0    0  0.16047749262E-01  0.88350731692E+00  0.12197647344E+01  0.15099115048E+01  0.10566000000E+00 0. -1.
        -13    1    4    4    0    0 -0.17642585142E+01  0.15201601987E+02  0.12285901755E+02  0.19625388074E+02  0.10566000000E+00 0.  1.
         14    1    4    4    0    0 -0.58797244104E+00  0.23861066114E+01  0.23730141226E+01  0.34161985274E+01  0.00000000000E+00 0. -1.
<mgrwt>
<rscale>  0 0.80094292E+02</rscale>
<asrwt>0</asrwt>
<pdfrwt beam="1">  1        1 0.11505310E-01 0.80094292E+02</pdfrwt>
<pdfrwt beam="2">  1       -2 0.32992719E-02 0.80094292E+02</pdfrwt>
<totfact> 0.13972072E+05</totfact>
</mgrwt>
</event>
<event>
 8    1  0.8577104E-018  0.8035381E+02  0.7818608E-02  0.1328050E+00
          1   -1    0    0  501    0  0.00000000000E+00  0.00000000000E+00  0.34163667922E+02  0.34163668293E+02  0.50400000000E-02 0. -1.
         -2   -1    0    0    0  501 -0.00000000000E+00 -0.00000000000E+00 -0.47248548163E+02  0.47248548232E+02  0.25500000000E-02 0.  1.
        -24    2    1    2    0    0  0.00000000000E+00  0.55511151231E-16 -0.13084880242E+02  0.81412216526E+02  0.80353810791E+02 0.  0.
         66    2    3    3    0    0  0.27142429822E+02 -0.29573941435E+00 -0.36523012138E+02  0.45549197283E+02  0.19999997641E+01 0.  0.
         13    1    3    3    0    0 -0.27142429822E+02  0.29573941435E+00  0.23438131896E+02  0.35863019243E+02  0.10566000000E+00 0. -1.
         13    1    4    4    0    0  0.52855072872E+01  0.19500425268E+00 -0.68663963283E+01  0.86679395772E+01  0.10566000000E+00 0. -1.
        -13    1    4    4    0    0  0.13521809593E+02 -0.74804952197E+00 -0.17217193718E+02  0.21905292427E+02  0.10566000000E+00 0.  1.
        -14    1    4    4    0    0  0.83351129413E+01  0.25730585494E+00 -0.12439422091E+02  0.14975965278E+02  0.00000000000E+00 0.  1.
<mgrwt>
<rscale>  0 0.80353811E+02</rscale>
<asrwt>0</asrwt>
<pdfrwt beam="1">  1        1 0.52559490E-02 0.80353811E+02</pdfrwt>
<pdfrwt beam="2">  1       -2 0.72690074E-02 0.80353811E+02</pdfrwt>
<totfact> 0.12215407E+05</totfact>
</mgrwt>
</event>
<event>
 8    1  0.8577104E-018  0.7567233E+02  0.7818608E-02  0.1341802E+00
         -2   -1    0    0    0  501 -0.00000000000E+00  0.00000000000E+00  0.65885902687E+02  0.65885902736E+02  0.25500000000E-02 0.  1.
          1   -1    0    0  501    0  0.00000000000E+00 -0.00000000000E+00 -0.21728095533E+02  0.21728096117E+02  0.50400000000E-02 0. -1.
        -24    2    1    2    0    0  0.35527136788E-14  0.88817841970E-15  0.44157807154E+02  0.87613998854E+02  0.75672325605E+02 0.  0.
         66    2    3    3    0    0  0.30725998693E+02 -0.78318232476E+01  0.45939103196E+02  0.55855399535E+02  0.20000009072E+01 0.  0.
         13    1    3    3    0    0 -0.30725998693E+02  0.78318232476E+01 -0.17812960423E+01  0.31758599319E+02  0.10566000000E+00 0. -1.
         13    1    4    4    0    0  0.13216901514E+02 -0.36390559353E+01  0.18713368612E+02  0.23197640883E+02  0.10566000000E+00 0. -1.
        -13    1    4    4    0    0  0.11234276773E+02 -0.29880489468E+01  0.16806472234E+02  0.20435412501E+02  0.10566000000E+00 0.  1.
        -14    1    4    4    0    0  0.62748204070E+01 -0.12047183655E+01  0.10419262351E+02  0.12222346151E+02  0.00000000000E+00 0.  1.
<mgrwt>
<rscale>  0 0.75672326E+02</rscale>
<asrwt>0</asrwt>
<pdfrwt beam="1">  1        1 0.33427840E-02 0.75672326E+02</pdfrwt>
<pdfrwt beam="2">  1       -2 0.10136293E-01 0.75672326E+02</pdfrwt>
<totfact> 0.13390051E+05</totfact>
</mgrwt>
</event>
<event>
 8    1  0.8577104E-018  0.8023885E+02  0.7818608E-02  0.1328375E+00
         -2   -1    0    0    0  501 -0.00000000000E+00  0.00000000000E+00  0.12226148887E+02  0.12226149153E+02  0.25500000000E-02 0.  1.
          1   -1    0    0  501    0  0.00000000000E+00 -0.00000000000E+00 -0.13164964400E+03  0.13164964410E+03  0.50400000000E-02 0. -1.
        -24    2    1    2    0    0  0.00000000000E+00  0.35527136788E-14 -0.11942349512E+03  0.14387579325E+03  0.80238847813E+02 0.  0.
         66    2    3    3    0    0  0.25167435561E+02  0.27378088598E+02 -0.32876032107E+02  0.49676886330E+02  0.20000000807E+01 0.  0.
         13    1    3    3    0    0 -0.25167435561E+02 -0.27378088598E+02 -0.86547463011E+02  0.94198906924E+02  0.10566000000E+00 0. -1.
         13    1    4    4    0    0  0.16412425895E+02  0.18133812552E+02 -0.20720931502E+02  0.32055749059E+02  0.10566000000E+00 0.  1.
        -13    1    4    4    0    0  0.25599288798E+01  0.22513886098E+01 -0.30439715418E+01  0.45715329294E+01  0.10566000000E+00 0.  1.
        -14    1    4    4    0    0  0.61950807871E+01  0.69928874365E+01 -0.91111290630E+01  0.13049604341E+02  0.00000000000E+00 0.  1.
<mgrwt>
<rscale>  0 0.80238848E+02</rscale>
<asrwt>0</asrwt>
<pdfrwt beam="1">  1        1 0.20253790E-01 0.80238848E+02</pdfrwt>
<pdfrwt beam="2">  1       -2 0.18809461E-02 0.80238848E+02</pdfrwt>
<totfact> 0.15295124E+05</totfact>
</mgrwt>
</event>
<event>
 8    1  0.9554611E-018  0.7881904E+02  0.7818608E-02  0.1332437E+00
          1   -1    0    0  501    0  0.00000000000E+00  0.00000000000E+00  0.19664950832E+02  0.19664951478E+02  0.50400000000E-02 0. -1.
         -2   -1    0    0    0  501 -0.00000000000E+00 -0.00000000000E+00 -0.78978591669E+02  0.78978591710E+02  0.25500000000E-02 0.  1.
        -24    2    1    2    0    0  0.00000000000E+00  0.00000000000E+00 -0.59313640836E+02  0.98643543188E+02  0.78819037189E+02 0.  0.
         66    2    3    3    0    0  0.17621595913E+02 -0.63724342898E+01 -0.73029339422E+02  0.75421568401E+02  0.20000005830E+01 0.  0.
         13    1    3    3    0    0 -0.17621595913E+02  0.63724342898E+01  0.13715698586E+02  0.23221974787E+02  0.10566000000E+00 0. -1.
         13    1    4    4    0    0  0.61894557811E+01 -0.15564422873E+01 -0.24583554633E+02  0.25398704649E+02  0.10566000000E+00 0. -1.
        -13    1    4    4    0    0  0.54180311134E+01 -0.16714668659E+01 -0.22694282706E+02  0.23392103244E+02  0.10566000000E+00 0.  1.
         14    1    4    4    0    0  0.60141090185E+01 -0.31445251366E+01 -0.25751502084E+02  0.26630760507E+02  0.00000000000E+00 0. -1.
<mgrwt>
<rscale>  0 0.78819037E+02</rscale>
<asrwt>0</asrwt>
<pdfrwt beam="1">  1        1 0.30253772E-02 0.78819037E+02</pdfrwt>
<pdfrwt beam="2">  1       -2 0.12150552E-01 0.78819037E+02</pdfrwt>
<totfact> 0.11639631E+05</totfact>
</mgrwt>
</event>
<event>
 8    1  0.8577104E-018  0.7979213E+02  0.7818608E-02  0.1329642E+00
          1   -1    0    0  501    0  0.00000000000E+00  0.00000000000E+00  0.12901517419E+03  0.12901517428E+03  0.50400000000E-02 0. -1.
         -2   -1    0    0    0  501 -0.00000000000E+00 -0.00000000000E+00 -0.12337276404E+02  0.12337276667E+02  0.25500000000E-02 0.  1.
        -24    2    1    2    0    0  0.35527136788E-14  0.88817841970E-15  0.11667789778E+03  0.14135245095E+03  0.79792127175E+02 0.  0.
         66    2    3    3    0    0 -0.23987074137E+02  0.75336911119E+01  0.35572575686E+01  0.25471362616E+02  0.20000011684E+01 0.  0.
         13    1    3    3    0    0  0.23987074137E+02 -0.75336911119E+01  0.11312064021E+03  0.11588108834E+03  0.10566000000E+00 0. -1.
         13    1    4    4    0    0 -0.66094679905E+01  0.15803985110E+01  0.16448542837E+01  0.69928131837E+01  0.10566000000E+00 0. -1.
        -13    1    4    4    0    0 -0.14265763290E+02  0.47218443260E+01  0.13907565633E+01  0.15091493761E+02  0.10566000000E+00 0.  1.
        -14    1    4    4    0    0 -0.31118428565E+01  0.12314482749E+01  0.52164672160E+00  0.33870556711E+01  0.00000000000E+00 0.  1.
<mgrwt>
<rscale>  0 0.79792127E+02</rscale>
<asrwt>0</asrwt>
<pdfrwt beam="1">  1        1 0.19848490E-01 0.79792127E+02</pdfrwt>
<pdfrwt beam="2">  1       -2 0.18980424E-02 0.79792127E+02</pdfrwt>
<totfact> 0.15469747E+05</totfact>
</mgrwt>
</event>
<event>
 8    1  0.8577104E-018  0.7791240E+02  0.7818608E-02  0.1335082E+00
         -2   -1    0    0    0  501 -0.00000000000E+00  0.00000000000E+00  0.75719704639E+02  0.75719704681E+02  0.25500000000E-02 0.  1.
          1   -1    0    0  501    0  0.00000000000E+00 -0.00000000000E+00 -0.20042145998E+02  0.20042146631E+02  0.50400000000E-02 0. -1.
        -24    2    1    2    0    0  0.44408920985E-15  0.00000000000E+00  0.55677558641E+02  0.95761851313E+02  0.77912397156E+02 0.  0.
         66    2    3    3    0    0  0.38253390201E+01  0.36356849949E+02  0.44307081975E+02  0.57476701966E+02  0.19999997245E+01 0.  0.
         13    1    3    3    0    0 -0.38253390201E+01 -0.36356849949E+02  0.11370476666E+02  0.38285149347E+02  0.10566000000E+00 0. -1.
         13    1    4    4    0    0  0.12578486741E+01  0.85788674380E+01  0.95476427456E+01  0.12897588761E+02  0.10566000000E+00 0. -1.
        -13    1    4    4    0    0  0.53272247568E+00  0.33020128679E+01  0.44526519572E+01  0.55699511401E+01  0.10566000000E+00 0.  1.
        -14    1    4    4    0    0  0.20347678703E+01  0.24475969643E+02  0.30306787272E+02  0.39009162065E+02  0.00000000000E+00 0.  1.
<mgrwt>
<rscale>  0 0.77912397E+02</rscale>
<asrwt>0</asrwt>
<pdfrwt beam="1">  1        1 0.30834071E-02 0.77912397E+02</pdfrwt>
<pdfrwt beam="2">  1       -2 0.11649186E-01 0.77912397E+02</pdfrwt>
<totfact> 0.12094349E+05</totfact>
</mgrwt>
</event>
<event>
 8    1  0.8577104E-018  0.8053977E+02  0.7818608E-02  0.1327527E+00
         -2   -1    0    0    0  501 -0.00000000000E+00  0.00000000000E+00  0.45868473437E+01  0.45868480525E+01  0.25500000000E-02 0.  1.
          1   -1    0    0  501    0  0.00000000000E+00 -0.00000000000E+00 -0.35354646941E+03  0.35354646944E+03  0.50400000000E-02 0. -1.
        -24    2    1    2    0    0  0.00000000000E+00  0.00000000000E+00 -0.34895962206E+03  0.35813331749E+03  0.80539774457E+02 0.  0.
         66    2    3    3    0    0  0.45575721716E+01  0.39106116203E+02 -0.13749034121E+03  0.14303025453E+03  0.19999990471E+01 0.  0.
         13    1    3    3    0    0 -0.45575721716E+01 -0.39106116203E+02 -0.21146928085E+03  0.21510306296E+03  0.10566000000E+00 0. -1.
         13    1    4    4    0    0  0.39225645808E+00  0.46286735701E+01 -0.18232708488E+02  0.18815453940E+02  0.10566000000E+00 0. -1.
        -13    1    4    4    0    0  0.39791469723E+01  0.30870436235E+02 -0.10634031112E+03  0.11080203237E+03  0.10566000000E+00 0.  1.
        -14    1    4    4    0    0  0.18616874126E+00  0.36070063980E+01 -0.12917321603E+02  0.13412768221E+02  0.00000000000E+00 0.  1.
<mgrwt>
<rscale>  0 0.80539774E+02</rscale>
<asrwt>0</asrwt>
<pdfrwt beam="1">  1        1 0.54391743E-01 0.80539774E+02</pdfrwt>
<pdfrwt beam="2">  1       -2 0.70566916E-03 0.80539774E+02</pdfrwt>
<totfact> 0.18270491E+05</totfact>
</mgrwt>
</event>
<event>
 8    1  0.8577104E-018  0.8257639E+02  0.7818608E-02  0.1321895E+00
          1   -1    0    0  501    0  0.00000000000E+00  0.00000000000E+00  0.30636410684E+03  0.30636410688E+03  0.50400000000E-02 0. -1.
         -2   -1    0    0    0  501 -0.00000000000E+00 -0.00000000000E+00 -0.55643431141E+01  0.55643436984E+01  0.25500000000E-02 0.  1.
        -24    2    1    2    0    0  0.00000000000E+00  0.00000000000E+00  0.30079976373E+03  0.31192845058E+03  0.82576391443E+02 0.  0.
         66    2    3    3    0    0  0.50955679961E+01  0.36657014617E+02  0.81554922419E+02  0.89581844720E+02  0.19999996878E+01 0.  0.
         13    1    3    3    0    0 -0.50955679961E+01 -0.36657014617E+02  0.21924484131E+03  0.22234660586E+03  0.10566000000E+00 0. -1.
         13    1    4    4    0    0  0.53813993300E+00  0.23446924350E+01  0.44306555738E+01  0.50427224841E+01  0.10566000000E+00 0. -1.
        -13    1    4    4    0    0  0.44298825432E+01  0.33203615934E+02  0.74290749398E+02  0.81493745653E+02  0.10566000000E+00 0.  1.
        -14    1    4    4    0    0  0.12754551991E+00  0.11087062484E+01  0.28335174480E+01  0.30453765831E+01  0.00000000000E+00 0.  1.
<mgrwt>
<rscale>  0 0.82576391E+02</rscale>
<asrwt>0</asrwt>
<pdfrwt beam="1">  1        1 0.47132940E-01 0.82576391E+02</pdfrwt>
<pdfrwt beam="2">  1       -2 0.85605282E-03 0.82576391E+02</pdfrwt>
<totfact> 0.16659590E+05</totfact>
</mgrwt>
</event>
<event>
 8    1  0.8797252E-018  0.7870397E+02  0.7818608E-02  0.1332770E+00
          1   -1    0    0  501    0  0.00000000000E+00  0.00000000000E+00  0.18211908102E+02  0.18211908799E+02  0.50400000000E-02 0. -1.
         -2   -1    0    0    0  501 -0.00000000000E+00 -0.00000000000E+00 -0.85031100194E+02  0.85031100232E+02  0.25500000000E-02 0.  1.
        -24    2    1    2    0    0  0.00000000000E+00  0.00000000000E+00 -0.66819192093E+02  0.10324300903E+03  0.78703967384E+02 0.  0.
         66    2    3    3    0    0 -0.92141009439E+01  0.18301469294E+02 -0.77463677296E+02  0.80152758626E+02  0.19999951755E+01 0.  0.
         13    1    3    3    0    0  0.92141009439E+01 -0.18301469294E+02  0.10644485203E+02  0.23090250405E+02  0.10566000000E+00 0. -1.
         13    1    4    4    0    0 -0.73761699824E+00  0.90187393035E+00 -0.35062061407E+01  0.36962279366E+01  0.10566000000E+00 0. -1.
        -13    1    4    4    0    0 -0.55821476253E+01  0.10713925381E+02 -0.44380093221E+02  0.45995134607E+02  0.10566000000E+00 0.  1.
         14    1    4    4    0    0 -0.28943363203E+01  0.66856699817E+01 -0.29577377934E+02  0.30461396082E+02  0.00000000000E+00 0. -1.
<mgrwt>
<rscale>  0 0.78703967E+02</rscale>
<asrwt>0</asrwt>
<pdfrwt beam="1">  1        1 0.28018321E-02 0.78703967E+02</pdfrwt>
<pdfrwt beam="2">  1       -2 0.13081708E-01 0.78703967E+02</pdfrwt>
<totfact> 0.11496142E+05</totfact>
</mgrwt>
</event>
<event>
 8    1  0.8577104E-018  0.8145663E+02  0.7818608E-02  0.1324968E+00
         -2   -1    0    0    0  501 -0.00000000000E+00  0.00000000000E+00  0.12343584149E+02  0.12343584413E+02  0.25500000000E-02 0.  1.
          1   -1    0    0  501    0  0.00000000000E+00 -0.00000000000E+00 -0.13438525369E+03  0.13438525378E+03  0.50400000000E-02 0. -1.
        -24    2    1    2    0    0  0.00000000000E+00  0.00000000000E+00 -0.12204166954E+03  0.14672883819E+03  0.81456631738E+02 0.  0.
         66    2    3    3    0    0 -0.38187247559E+02 -0.11846063271E+02 -0.47316015129E+02  0.61979031810E+02  0.20000013379E+01 0.  0.
         13    1    3    3    0    0  0.38187247559E+02  0.11846063271E+02 -0.74725654408E+02  0.84749806382E+02  0.10566000000E+00 0. -1.
         13    1    4    4    0    0 -0.14980848644E+02 -0.46368163974E+01 -0.17492774764E+02  0.23493280430E+02  0.10566000000E+00 0. -1.
        -13    1    4    4    0    0 -0.11575987614E+02 -0.38091576059E+01 -0.14151770556E+02  0.18676106254E+02  0.10566000000E+00 0.  1.
        -14    1    4    4    0    0 -0.11630411301E+02 -0.34000892672E+01 -0.15671469809E+02  0.19809645126E+02  0.00000000000E+00 0.  1.
<mgrwt>
<rscale>  0 0.81456632E+02</rscale>
<asrwt>0</asrwt>
<pdfrwt beam="1">  1        1 0.20674653E-01 0.81456632E+02</pdfrwt>
<pdfrwt beam="2">  1       -2 0.18990131E-02 0.81456632E+02</pdfrwt>
<totfact> 0.14743846E+05</totfact>
</mgrwt>
</event>
<event>
 8    1  0.8577104E-018  0.8214758E+02  0.7818608E-02  0.1323065E+00
          1   -1    0    0  501    0  0.00000000000E+00  0.00000000000E+00  0.15405938984E+03  0.15405938993E+03  0.50400000000E-02 0. -1.
         -2   -1    0    0    0  501 -0.00000000000E+00 -0.00000000000E+00 -0.10950688563E+02  0.10950688860E+02  0.25500000000E-02 0.  1.
        -24    2    1    2    0    0  0.35527136788E-14 -0.17763568394E-14  0.14310870128E+03  0.16501007878E+03  0.82147584982E+02 0.  0.
         66    2    3    3    0    0 -0.27143200291E+02  0.14558075800E+02  0.17088560524E+02  0.35280444802E+02  0.19999979054E+01 0.  0.
         13    1    3    3    0    0  0.27143200291E+02 -0.14558075800E+02  0.12602014076E+03  0.12972963398E+03  0.10566000000E+00 0. -1.
         13    1    4    4    0    0 -0.12428941119E+01  0.27259596180E+00  0.56252746696E+00  0.13952403085E+01  0.10566000000E+00 0. -1.
        -13    1    4    4    0    0 -0.14004393876E+02  0.75000981827E+01  0.89576258921E+01  0.18238002803E+02  0.10566000000E+00 0.  1.
         14    1    4    4    0    0 -0.11895912303E+02  0.67853816556E+01  0.75684071646E+01  0.15647201690E+02  0.00000000000E+00 0. -1.
<mgrwt>
<rscale>  0 0.82147585E+02</rscale>
<asrwt>0</asrwt>
<pdfrwt beam="1">  1        1 0.23701443E-01 0.82147585E+02</pdfrwt>
<pdfrwt beam="2">  1       -2 0.16847215E-02 0.82147585E+02</pdfrwt>
<totfact> 0.14781377E+05</totfact>
</mgrwt>
</event>
<event>
 8    1  0.8577104E-018  0.7922903E+02  0.7818608E-02  0.1331254E+00
          1   -1    0    0  501    0  0.00000000000E+00  0.00000000000E+00  0.91665563367E+02  0.91665563506E+02  0.50400000000E-02 0. -1.
         -2   -1    0    0    0  501 -0.00000000000E+00 -0.00000000000E+00 -0.17119949705E+02  0.17119949895E+02  0.25500000000E-02 0.  1.
        -24    2    1    2    0    0 -0.35527136788E-14  0.00000000000E+00  0.74545613662E+02  0.10878551340E+03  0.79229031356E+02 0.  0.
         66    2    3    3    0    0 -0.17038543982E+02 -0.35730872264E+02  0.38045646513E+02  0.54940680969E+02  0.19999982239E+01 0.  0.
         13    1    3    3    0    0  0.17038543982E+02  0.35730872264E+02  0.36499967149E+02  0.53844832432E+02  0.10566000000E+00 0. -1.
         13    1    4    4    0    0 -0.52387987614E+01 -0.10296430825E+02  0.10749798827E+02  0.15780710980E+02  0.10566000000E+00 0. -1.
        -13    1    4    4    0    0 -0.11831919458E+02 -0.25333420812E+02  0.27106196318E+02  0.38942695990E+02  0.10566000000E+00 0.  1.
         14    1    4    4    0    0  0.32174237588E-01 -0.10102062735E+00  0.18965136908E+00  0.21727399869E+00  0.00000000000E+00 0. -1.
<mgrwt>
<rscale>  0 0.79229031E+02</rscale>
<asrwt>0</asrwt>
<pdfrwt beam="1">  1        1 0.14102394E-01 0.79229031E+02</pdfrwt>
<pdfrwt beam="2">  1       -2 0.26338385E-02 0.79229031E+02</pdfrwt>
<totfact> 0.14872487E+05</totfact>
</mgrwt>
</event>
<event>
 8    1  0.8577104E-018  0.7989925E+02  0.7818608E-02  0.1329338E+00
          1   -1    0    0  501    0  0.00000000000E+00  0.00000000000E+00  0.27488064653E+02  0.27488065115E+02  0.50400000000E-02 0. -1.
         -2   -1    0    0    0  501 -0.00000000000E+00 -0.00000000000E+00 -0.58060561222E+02  0.58060561278E+02  0.25500000000E-02 0.  1.
        -24    2    1    2    0    0  0.00000000000E+00  0.00000000000E+00 -0.30572496569E+02  0.85548626393E+02  0.79899248628E+02 0.  0.
         66    2    3    3    0    0  0.28662183405E+02  0.26709955412E+02 -0.70698030290E+01  0.39861316959E+02  0.19999997960E+01 0.  0.
         13    1    3    3    0    0 -0.28662183405E+02 -0.26709955412E+02 -0.23502693540E+02  0.45687309434E+02  0.10566000000E+00 0. -1.
         13    1    4    4    0    0  0.26545394754E+00  0.35670768840E+00 -0.30483959170E-01  0.45803873263E+00  0.10566000000E+00 0.  1.
        -13    1    4    4    0    0  0.14580285724E+02  0.13133161479E+02 -0.42536396345E+01  0.20079075586E+02  0.10566000000E+00 0.  1.
        -14    1    4    4    0    0  0.13816443733E+02  0.13220086245E+02 -0.27856794353E+01  0.19324202640E+02  0.00000000000E+00 0.  1.
<mgrwt>
<rscale>  0 0.79899249E+02</rscale>
<asrwt>0</asrwt>
<pdfrwt beam="1">  1        1 0.42289331E-02 0.79899249E+02</pdfrwt>
<pdfrwt beam="2">  1       -2 0.89323940E-02 0.79899249E+02</pdfrwt>
<totfact> 0.11949182E+05</totfact>
</mgrwt>
</event>
<event>
 8    1  0.8577104E-018  0.7959683E+02  0.7818608E-02  0.1330199E+00
          1   -1    0    0  501    0  0.00000000000E+00  0.00000000000E+00  0.47352904730E+01  0.47352931551E+01  0.50400000000E-02 0. -1.
         -2   -1    0    0    0  501 -0.00000000000E+00 -0.00000000000E+00 -0.33449130649E+03  0.33449130650E+03  0.25500000000E-02 0.  1.
        -24    2    1    2    0    0 -0.71054273576E-14  0.44408920985E-15 -0.32975601602E+03  0.33922659966E+03  0.79596832940E+02 0.  0.
         66    2    3    3    0    0  0.37460640693E+02 -0.32539791659E+01 -0.10973898294E+03  0.11601953437E+03  0.19999997492E+01 0.  0.
         13    1    3    3    0    0 -0.37460640693E+02  0.32539791659E+01 -0.22001703308E+03  0.22320706528E+03  0.10566000000E+00 0. -1.
         13    1    4    4    0    0  0.65204022905E+01 -0.66737190310E+00 -0.20777823261E+02  0.21787384762E+02  0.10566000000E+00 0. -1.
        -13    1    4    4    0    0  0.10850540897E+02 -0.65312952211E+00 -0.29506147255E+02  0.31444947222E+02  0.10566000000E+00 0.  1.
        -14    1    4    4    0    0  0.20089697506E+02 -0.19334777407E+01 -0.59455012420E+02  0.62787202390E+02  0.00000000000E+00 0.  1.
<mgrwt>
<rscale>  0 0.79596833E+02</rscale>
<asrwt>0</asrwt>
<pdfrwt beam="1">  1        1 0.72850670E-03 0.79596833E+02</pdfrwt>
<pdfrwt beam="2">  1       -2 0.51460182E-01 0.79596833E+02</pdfrwt>
<totfact> 0.66945211E+04</totfact>
</mgrwt>
</event>
<event>
 8    1  0.8577104E-018  0.7651014E+02  0.7818608E-02  0.1339257E+00
          1   -1    0    0  501    0  0.00000000000E+00  0.00000000000E+00  0.39499847357E+02  0.39499847678E+02  0.50400000000E-02 0. -1.
         -2   -1    0    0    0  501 -0.00000000000E+00 -0.00000000000E+00 -0.37049519098E+02  0.37049519186E+02  0.25500000000E-02 0.  1.
        -24    2    1    2    0    0  0.00000000000E+00  0.00000000000E+00  0.24503282585E+01  0.76549366864E+02  0.76510139581E+02 0.  0.
         66    2    3    3    0    0 -0.25330414345E+02 -0.10196653000E+02 -0.25542976848E+02  0.37443895148E+02  0.19999985591E+01 0.  0.
         13    1    3    3    0    0  0.25330414345E+02  0.10196653000E+02  0.27993305107E+02  0.39105471716E+02  0.10566000000E+00 0. -1.
         13    1    4    4    0    0 -0.80705012177E+01 -0.27406101375E+01 -0.83836782308E+01  0.11955800205E+02  0.10566000000E+00 0. -1.
        -13    1    4    4    0    0 -0.11899778065E+02 -0.50875989697E+01 -0.10984514505E+02  0.16975249754E+02  0.10566000000E+00 0.  1.
         14    1    4    4    0    0 -0.53601350630E+01 -0.23684438932E+01 -0.61747841120E+01  0.85128451883E+01  0.00000000000E+00 0. -1.
<mgrwt>
<rscale>  0 0.76510140E+02</rscale>
<asrwt>0</asrwt>
<pdfrwt beam="1">  1        1 0.60768996E-02 0.76510140E+02</pdfrwt>
<pdfrwt beam="2">  1       -2 0.56999261E-02 0.76510140E+02</pdfrwt>
<totfact> 0.14362086E+05</totfact>
</mgrwt>
</event>
<event>
 8    1  0.8577104E-018  0.7906974E+02  0.7818608E-02  0.1331712E+00
          1   -1    0    0  501    0  0.00000000000E+00  0.00000000000E+00  0.16516042915E+03  0.16516042923E+03  0.50400000000E-02 0. -1.
         -2   -1    0    0    0  501 -0.00000000000E+00 -0.00000000000E+00 -0.94635612149E+01  0.94635615585E+01  0.25500000000E-02 0.  1.
        -24    2    1    2    0    0  0.00000000000E+00  0.00000000000E+00  0.15569686794E+03  0.17462399079E+03  0.79069738036E+02 0.  0.
         66    2    3    3    0    0 -0.23683534554E+02 -0.98097787771E+01  0.11501777014E+02  0.28167932603E+02  0.19999960012E+01 0.  0.
         13    1    3    3    0    0  0.23683534554E+02  0.98097787771E+01  0.14419509092E+03  0.14645605818E+03  0.10566000000E+00 0. -1.
         13    1    4    4    0    0 -0.28932305299E+01 -0.16030068726E+01  0.95578962745E+00  0.34445771555E+01  0.10566000000E+00 0.  1.
        -13    1    4    4    0    0 -0.17065163558E+02 -0.69733919266E+01  0.88199299160E+01  0.20436495051E+02  0.10566000000E+00 0.  1.
        -14    1    4    4    0    0 -0.37251404667E+01 -0.12333799779E+01  0.17260574707E+01  0.42868603965E+01  0.00000000000E+00 0.  1.
<mgrwt>
<rscale>  0 0.79069738E+02</rscale>
<asrwt>0</asrwt>
<pdfrwt beam="1">  1        1 0.25409293E-01 0.79069738E+02</pdfrwt>
<pdfrwt beam="2">  1       -2 0.14559327E-02 0.79069738E+02</pdfrwt>
<totfact> 0.16582929E+05</totfact>
</mgrwt>
</event>
<event>
 8    1  0.8577104E-018  0.7971459E+02  0.7818608E-02  0.1329863E+00
          1   -1    0    0  501    0  0.00000000000E+00  0.00000000000E+00  0.10833974027E+02  0.10833975200E+02  0.50400000000E-02 0. -1.
         -2   -1    0    0    0  501 -0.00000000000E+00 -0.00000000000E+00 -0.14663168387E+03  0.14663168389E+03  0.25500000000E-02 0.  1.
        -24    2    1    2    0    0  0.00000000000E+00  0.00000000000E+00 -0.13579770984E+03  0.15746565909E+03  0.79714589596E+02 0.  0.
         66    2    3    3    0    0  0.99747491310E+01  0.20794096897E+02 -0.13209408943E+03  0.13410719051E+03  0.19999995483E+01 0.  0.
         13    1    3    3    0    0 -0.99747491310E+01 -0.20794096897E+02 -0.37036204052E+01  0.23358468574E+02  0.10566000000E+00 0. -1.
         13    1    4    4    0    0  0.12999428019E+01  0.34515065794E+01 -0.23546175741E+02  0.23833512226E+02  0.10566000000E+00 0. -1.
        -13    1    4    4    0    0  0.72609101473E+01  0.13867977685E+02 -0.89783833201E+02  0.91138298698E+02  0.10566000000E+00 0.  1.
        -14    1    4    4    0    0  0.14138961819E+01  0.34746126323E+01 -0.18764080492E+02  0.19135379591E+02  0.00000000000E+00 0.  1.
<mgrwt>
<rscale>  0 0.79714590E+02</rscale>
<asrwt>0</asrwt>
<pdfrwt beam="1">  1        1 0.16667654E-02 0.79714590E+02</pdfrwt>
<pdfrwt beam="2">  1       -2 0.22558719E-01 0.79714590E+02</pdfrwt>
<totfact> 0.96092051E+04</totfact>
</mgrwt>
</event>
<event>
 8    1  0.8577104E-018  0.8050406E+02  0.7818608E-02  0.1327627E+00
          1   -1    0    0  501    0  0.00000000000E+00  0.00000000000E+00  0.13803078232E+02  0.13803079153E+02  0.50400000000E-02 0. -1.
         -2   -1    0    0    0  501 -0.00000000000E+00 -0.00000000000E+00 -0.11738148950E+03  0.11738148952E+03  0.25500000000E-02 0.  1.
        -24    2    1    2    0    0  0.22204460493E-15  0.00000000000E+00 -0.10357841126E+03  0.13118456868E+03  0.80504060636E+02 0.  0.
         66    2    3    3    0    0 -0.13015341919E+01 -0.29978685363E+02 -0.95479532141E+02  0.10010372933E+03  0.20000001507E+01 0.  0.
         13    1    3    3    0    0  0.13015341919E+01  0.29978685363E+02 -0.80988791219E+01  0.31080839345E+02  0.10566000000E+00 0. -1.
         13    1    4    4    0    0 -0.43575584506E-01 -0.87659440222E+00 -0.21651428614E+01  0.23386586377E+01  0.10566000000E+00 0. -1.
        -13    1    4    4    0    0  0.19915356212E+00 -0.10016090847E+02 -0.32610066537E+02  0.34114356825E+02  0.10566000000E+00 0.  1.
         14    1    4    4    0    0 -0.14571121695E+01 -0.19086000114E+02 -0.60704322742E+02  0.63650713867E+02  0.00000000000E+00 0. -1.
<mgrwt>
<rscale>  0 0.80504061E+02</rscale>
<asrwt>0</asrwt>
<pdfrwt beam="1">  1        1 0.21235507E-02 0.80504061E+02</pdfrwt>
<pdfrwt beam="2">  1       -2 0.18058690E-01 0.80504061E+02</pdfrwt>
<totfact> 0.10014045E+05</totfact>
</mgrwt>
</event>
<event>
 8    1  0.8577104E-018  0.7971558E+02  0.7818608E-02  0.1329861E+00
         -2   -1    0    0    0  501 -0.00000000000E+00  0.00000000000E+00  0.61103505255E+02  0.61103505308E+02  0.25500000000E-02 0.  1.
          1   -1    0    0  501    0  0.00000000000E+00 -0.00000000000E+00 -0.25999217300E+02  0.25999217788E+02  0.50400000000E-02 0. -1.
        -24    2    1    2    0    0  0.00000000000E+00  0.00000000000E+00  0.35104287955E+02  0.87102723096E+02  0.79715577762E+02 0.  0.
         66    2    3    3    0    0 -0.13219774666E+02 -0.81935198535E+01  0.57632119333E+02  0.59727358982E+02  0.20000055858E+01 0.  0.
         13    1    3    3    0    0  0.13219774666E+02  0.81935198535E+01 -0.22527831378E+02  0.27375364115E+02  0.10566000000E+00 0. -1.
         13    1    4    4    0    0 -0.27035247078E+01 -0.10666163200E+01  0.11003421036E+02  0.11381263320E+02  0.10566000000E+00 0. -1.
        -13    1    4    4    0    0 -0.33509882178E+01 -0.29452813366E+01  0.15298531922E+02  0.15936123970E+02  0.10566000000E+00 0.  1.
         14    1    4    4    0    0 -0.71652617400E+01 -0.41816221969E+01  0.31330166375E+02  0.32409971692E+02  0.00000000000E+00 0. -1.
<mgrwt>
<rscale>  0 0.79715578E+02</rscale>
<asrwt>0</asrwt>
<pdfrwt beam="1">  1        1 0.39998797E-02 0.79715578E+02</pdfrwt>
<pdfrwt beam="2">  1       -2 0.94005392E-02 0.79715578E+02</pdfrwt>
<totfact> 0.11905420E+05</totfact>
</mgrwt>
</event>
<event>
 8    1  0.8577104E-018  0.7505406E+02  0.7818608E-02  0.1343704E+00
         -2   -1    0    0    0  501 -0.00000000000E+00  0.00000000000E+00  0.12800596426E+02  0.12800596680E+02  0.25500000000E-02 0.  1.
          1   -1    0    0  501    0  0.00000000000E+00 -0.00000000000E+00 -0.11001659956E+03  0.11001659967E+03  0.50400000000E-02 0. -1.
        -24    2    1    2    0    0  0.00000000000E+00  0.35527136788E-14 -0.97216003129E+02  0.12281719635E+03  0.75054063548E+02 0.  0.
         66    2    3    3    0    0  0.17987145246E+02  0.30690460616E+02 -0.29223064962E+02  0.46080682411E+02  0.19999997152E+01 0.  0.
         13    1    3    3    0    0 -0.17987145246E+02 -0.30690460616E+02 -0.67992938168E+02  0.76736513939E+02  0.10566000000E+00 0. -1.
         13    1    4    4    0    0  0.12218957665E+01  0.22770764527E+01 -0.26090312895E+01  0.36737330796E+01  0.10566000000E+00 0. -1.
        -13    1    4    4    0    0  0.13320514593E+02  0.21557204911E+02 -0.20625294459E+02  0.32673584562E+02  0.10566000000E+00 0.  1.
         14    1    4    4    0    0  0.34447348862E+01  0.68561792519E+01 -0.59887392134E+01  0.97333647695E+01  0.00000000000E+00 0. -1.
<mgrwt>
<rscale>  0 0.75054064E+02</rscale>
<asrwt>0</asrwt>
<pdfrwt beam="1">  1        1 0.16925630E-01 0.75054064E+02</pdfrwt>
<pdfrwt beam="2">  1       -2 0.19693226E-02 0.75054064E+02</pdfrwt>
<totfact> 0.17729939E+05</totfact>
</mgrwt>
</event>
<event>
 8    1  0.8577104E-018  0.7362251E+02  0.7818608E-02  0.1348191E+00
          1   -1    0    0  501    0  0.00000000000E+00  0.00000000000E+00  0.25055042609E+02  0.25055043116E+02  0.50400000000E-02 0. -1.
         -2   -1    0    0    0  501 -0.00000000000E+00 -0.00000000000E+00 -0.54083663651E+02  0.54083663711E+02  0.25500000000E-02 0.  1.
        -24    2    1    2    0    0 -0.44408920985E-15 -0.71054273576E-14 -0.29028621042E+02  0.79138706827E+02  0.73622510678E+02 0.  0.
         66    2    3    3    0    0  0.37634754455E+01  0.32102233983E+02 -0.33400464876E+02  0.46522125818E+02  0.19999906382E+01 0.  0.
         13    1    3    3    0    0 -0.37634754455E+01 -0.32102233983E+02  0.43718438340E+01  0.32616581009E+02  0.10566000000E+00 0. -1.
         13    1    4    4    0    0  0.19535567552E+01  0.13511329284E+02 -0.14620393212E+02  0.20003486314E+02  0.10566000000E+00 0. -1.
        -13    1    4    4    0    0  0.17518387499E+01  0.18572318657E+02 -0.18669989028E+02  0.26392794730E+02  0.10566000000E+00 0.  1.
         14    1    4    4    0    0  0.58079940312E-01  0.18586042344E-01 -0.11008263566E+00  0.12584477387E+00  0.00000000000E+00 0. -1.
<mgrwt>
<rscale>  0 0.73622511E+02</rscale>
<asrwt>0</asrwt>
<pdfrwt beam="1">  1        1 0.38546220E-02 0.73622511E+02</pdfrwt>
<pdfrwt beam="2">  1       -2 0.83205636E-02 0.73622511E+02</pdfrwt>
<totfact> 0.14871878E+05</totfact>
</mgrwt>
</event>
<event>
 8    1  0.8577104E-018  0.7685143E+02  0.7818608E-02  0.1338232E+00
          1   -1    0    0  501    0  0.00000000000E+00  0.00000000000E+00  0.40288980025E+02  0.40288980340E+02  0.50400000000E-02 0. -1.
         -2   -1    0    0    0  501 -0.00000000000E+00 -0.00000000000E+00 -0.36648619433E+02  0.36648619522E+02  0.25500000000E-02 0.  1.
        -24    2    1    2    0    0  0.35527136788E-14  0.00000000000E+00  0.36403605915E+01  0.76937599862E+02  0.76851428401E+02 0.  0.
         66    2    3    3    0    0  0.14027096154E+02 -0.23234854222E+02 -0.25373598334E+02  0.37208028334E+02  0.20000007145E+01 0.  0.
         13    1    3    3    0    0 -0.14027096154E+02  0.23234854222E+02  0.29013958926E+02  0.39729571528E+02  0.10566000000E+00 0. -1.
         13    1    4    4    0    0  0.23041600227E+01 -0.48845297126E+01 -0.42956108195E+01  0.69015375295E+01  0.10566000000E+00 0. -1.
        -13    1    4    4    0    0  0.80210248866E+01 -0.12455865660E+02 -0.14407055039E+02  0.20665425921E+02  0.10566000000E+00 0.  1.
         14    1    4    4    0    0  0.37019112448E+01 -0.58944588487E+01 -0.66709324760E+01  0.96410648832E+01  0.00000000000E+00 0. -1.
<mgrwt>
<rscale>  0 0.76851428E+02</rscale>
<asrwt>0</asrwt>
<pdfrwt beam="1">  1        1 0.61983046E-02 0.76851428E+02</pdfrwt>
<pdfrwt beam="2">  1       -2 0.56382492E-02 0.76851428E+02</pdfrwt>
<totfact> 0.14228123E+05</totfact>
</mgrwt>
</event>
<event>
 8    1  0.8577104E-018  0.7765981E+02  0.7818608E-02  0.1335827E+00
          1   -1    0    0  501    0  0.00000000000E+00  0.00000000000E+00  0.42863836328E+02  0.42863836625E+02  0.50400000000E-02 0. -1.
         -2   -1    0    0    0  501 -0.00000000000E+00 -0.00000000000E+00 -0.35175605311E+02  0.35175605404E+02  0.25500000000E-02 0.  1.
        -24    2    1    2    0    0  0.00000000000E+00  0.00000000000E+00  0.76882310170E+01  0.78039442028E+02  0.77659806953E+02 0.  0.
         66    2    3    3    0    0 -0.18114656093E+02  0.24374586749E+02 -0.20427071552E+02  0.36654146969E+02  0.19999983279E+01 0.  0.
         13    1    3    3    0    0  0.18114656093E+02 -0.24374586749E+02  0.28115302569E+02  0.41385295059E+02  0.10566000000E+00 0. -1.
         13    1    4    4    0    0 -0.32341947728E+01  0.52653023638E+01 -0.42759039615E+01  0.75151808717E+01  0.10566000000E+00 0. -1.
        -13    1    4    4    0    0 -0.14345439916E+02  0.18130971253E+02 -0.15160018430E+02  0.27647081000E+02  0.10566000000E+00 0.  1.
        -14    1    4    4    0    0 -0.53502140366E+00  0.97831313177E+00 -0.99114916043E+00  0.14918850976E+01  0.00000000000E+00 0.  1.
<mgrwt>
<rscale>  0 0.77659807E+02</rscale>
<asrwt>0</asrwt>
<pdfrwt beam="1">  1        1 0.65944364E-02 0.77659807E+02</pdfrwt>
<pdfrwt beam="2">  1       -2 0.54116316E-02 0.77659807E+02</pdfrwt>
<totfact> 0.13951958E+05</totfact>
</mgrwt>
</event>
<event>
 8    1  0.8577104E-018  0.8020548E+02  0.7818608E-02  0.1328469E+00
          1   -1    0    0  501    0  0.00000000000E+00  0.00000000000E+00  0.35582540311E+03  0.35582540315E+03  0.50400000000E-02 0. -1.
         -2   -1    0    0    0  501 -0.00000000000E+00 -0.00000000000E+00 -0.45197151588E+01  0.45197158781E+01  0.25500000000E-02 0.  1.
        -24    2    1    2    0    0  0.00000000000E+00  0.00000000000E+00  0.35130568795E+03  0.36034511903E+03  0.80205476231E+02 0.  0.
         66    2    3    3    0    0  0.34581878817E+02 -0.20226341802E+02  0.17081277147E+03  0.17545943729E+03  0.19999981573E+01 0.  0.
         13    1    3    3    0    0 -0.34581878817E+02  0.20226341802E+02  0.18049291649E+03  0.18488568174E+03  0.10566000000E+00 0. -1.
         13    1    4    4    0    0  0.42801450805E+01 -0.30888797728E+01  0.23674350484E+02  0.24255862282E+02  0.10566000000E+00 0. -1.
        -13    1    4    4    0    0  0.43791983686E+01 -0.28353324012E+01  0.22484344715E+02  0.23081884877E+02  0.10566000000E+00 0.  1.
        -14    1    4    4    0    0  0.25922535368E+02 -0.14302129628E+02  0.12465407627E+03  0.12812169013E+03  0.00000000000E+00 0.  1.
<mgrwt>
<rscale>  0 0.80205476E+02</rscale>
<asrwt>0</asrwt>
<pdfrwt beam="1">  1        1 0.54742382E-01 0.80205476E+02</pdfrwt>
<pdfrwt beam="2">  1       -2 0.69534070E-03 0.80205476E+02</pdfrwt>
<totfact> 0.18492607E+05</totfact>
</mgrwt>
</event>
<event>
 8    1  0.8577104E-018  0.7933156E+02  0.7818608E-02  0.1330959E+00
          1   -1    0    0  501    0  0.00000000000E+00  0.00000000000E+00  0.68521801143E+01  0.68521819679E+01  0.50400000000E-02 0. -1.
         -2   -1    0    0    0  501 -0.00000000000E+00 -0.00000000000E+00 -0.22961652858E+03  0.22961652859E+03  0.25500000000E-02 0.  1.
        -24    2    1    2    0    0  0.35527136788E-14  0.00000000000E+00 -0.22276434847E+03  0.23646871056E+03  0.79331558207E+02 0.  0.
         66    2    3    3    0    0  0.31066207739E+02  0.21081017368E+02 -0.14937420283E+03  0.15403301928E+03  0.20000002572E+01 0.  0.
         13    1    3    3    0    0 -0.31066207739E+02 -0.21081017368E+02 -0.73390145635E+02  0.82435691281E+02  0.10566000000E+00 0. -1.
         13    1    4    4    0    0  0.12462782102E+01  0.52993928735E+00 -0.47395764084E+01  0.49303948718E+01  0.10566000000E+00 0.  1.
        -13    1    4    4    0    0  0.37359993347E+01  0.23346054551E+01 -0.18446597496E+02  0.18965658356E+02  0.10566000000E+00 0. -1.
        -14    1    4    4    0    0  0.26083930195E+02  0.18216472626E+02 -0.12618802893E+03  0.13013696605E+03  0.00000000000E+00 0.  1.
<mgrwt>
<rscale>  0 0.79331558E+02</rscale>
<asrwt>0</asrwt>
<pdfrwt beam="1">  1        1 0.10541819E-02 0.79331558E+02</pdfrwt>
<pdfrwt beam="2">  1       -2 0.35325614E-01 0.79331558E+02</pdfrwt>
<totfact> 0.81964249E+04</totfact>
</mgrwt>
</event>
<event>
 8    1  0.8577104E-018  0.8337653E+02  0.7818608E-02  0.1319734E+00
         -2   -1    0    0    0  501 -0.00000000000E+00  0.00000000000E+00  0.66224296573E+02  0.66224296622E+02  0.25500000000E-02 0.  1.
          1   -1    0    0  501    0  0.00000000000E+00 -0.00000000000E+00 -0.26242804322E+02  0.26242804806E+02  0.50400000000E-02 0. -1.
        -24    2    1    2    0    0  0.00000000000E+00  0.44408920985E-15  0.39981492251E+02  0.92467101429E+02  0.83376526217E+02 0.  0.
         66    2    3    3    0    0  0.33093348430E+02 -0.37451872325E+01  0.47765882403E+02  0.58264703387E+02  0.20000003257E+01 0.  0.
         13    1    3    3    0    0 -0.33093348430E+02  0.37451872325E+01 -0.77843901518E+01  0.34202398042E+02  0.10566000000E+00 0. -1.
         13    1    4    4    0    0  0.24632136240E+02 -0.22665705248E+01  0.34796610965E+02  0.42693029599E+02  0.10566000000E+00 0. -1.
        -13    1    4    4    0    0  0.73971287205E+01 -0.10760094320E+01  0.11428139950E+02  0.13656092280E+02  0.10566000000E+00 0.  1.
         14    1    4    4    0    0  0.10640834696E+01 -0.40260727583E+00  0.15411314879E+01  0.19155815075E+01  0.00000000000E+00 0. -1.
<mgrwt>
<rscale>  0 0.83376526E+02</rscale>
<asrwt>0</asrwt>
<pdfrwt beam="1">  1        1 0.40373546E-02 0.83376526E+02</pdfrwt>
<pdfrwt beam="2">  1       -2 0.10188353E-01 0.83376526E+02</pdfrwt>
<totfact> 0.10461131E+05</totfact>
</mgrwt>
</event>
<event>
 8    1  0.8577104E-018  0.7866562E+02  0.7818608E-02  0.1332881E+00
         -2   -1    0    0    0  501 -0.00000000000E+00  0.00000000000E+00  0.28571989427E+03  0.28571989428E+03  0.25500000000E-02 0.  1.
          1   -1    0    0  501    0  0.00000000000E+00 -0.00000000000E+00 -0.54146374526E+01  0.54146397982E+01  0.50400000000E-02 0. -1.
        -24    2    1    2    0    0 -0.35527136788E-14  0.88817841970E-15  0.28030525682E+03  0.29113453408E+03  0.78665621044E+02 0.  0.
         66    2    3    3    0    0  0.12939756874E+02  0.71882615596E+01  0.27500681748E+03  0.27541216035E+03  0.19999988260E+01 0.  0.
         13    1    3    3    0    0 -0.12939756874E+02 -0.71882615596E+01  0.52984393340E+01  0.15722373727E+02  0.10566000000E+00 0. -1.
         13    1    4    4    0    0  0.31642831188E+01  0.15286372064E+01  0.73365420778E+02  0.73449612316E+02  0.10566000000E+00 0. -1.
        -13    1    4    4    0    0  0.40984091293E+01  0.16368388272E+01  0.82965594246E+02  0.83082953675E+02  0.10566000000E+00 0.  1.
         14    1    4    4    0    0  0.56770646261E+01  0.40227855259E+01  0.11867580246E+03  0.11887959436E+03  0.00000000000E+00 0. -1.
<mgrwt>
<rscale>  0 0.78665621E+02</rscale>
<asrwt>0</asrwt>
<pdfrwt beam="1">  1        1 0.83302158E-03 0.78665621E+02</pdfrwt>
<pdfrwt beam="2">  1       -2 0.43956894E-01 0.78665621E+02</pdfrwt>
<totfact> 0.75326976E+04</totfact>
</mgrwt>
</event>
<event>
 8    1  0.8577104E-018  0.7920243E+02  0.7818608E-02  0.1331330E+00
          1   -1    0    0  501    0  0.00000000000E+00  0.00000000000E+00  0.16521034273E+02  0.16521035042E+02  0.50400000000E-02 0. -1.
         -2   -1    0    0    0  501 -0.00000000000E+00 -0.00000000000E+00 -0.94924828487E+02  0.94924828521E+02  0.25500000000E-02 0.  1.
        -24    2    1    2    0    0  0.00000000000E+00 -0.35527136788E-14 -0.78403794214E+02  0.11144586356E+03  0.79202434042E+02 0.  0.
         66    2    3    3    0    0 -0.31418501932E+02 -0.19256363279E+02 -0.59536015784E+02  0.70046177365E+02  0.19999993920E+01 0.  0.
         13    1    3    3    0    0  0.31418501932E+02  0.19256363279E+02 -0.18867778430E+02  0.41399686198E+02  0.10566000000E+00 0. -1.
         13    1    4    4    0    0 -0.90282741620E+01 -0.46802792586E+01 -0.17356177748E+02  0.20116232707E+02  0.10566000000E+00 0. -1.
        -13    1    4    4    0    0 -0.71046795987E+01 -0.46275256645E+01 -0.13211392885E+02  0.15698488207E+02  0.10566000000E+00 0.  1.
         14    1    4    4    0    0 -0.15285548171E+02 -0.99485583559E+01 -0.28968445151E+02  0.34231456451E+02  0.00000000000E+00 0. -1.
<mgrwt>
<rscale>  0 0.79202434E+02</rscale>
<asrwt>0</asrwt>
<pdfrwt beam="1">  1        1 0.25416977E-02 0.79202434E+02</pdfrwt>
<pdfrwt beam="2">  1       -2 0.14603819E-01 0.79202434E+02</pdfrwt>
<totfact> 0.11027551E+05</totfact>
</mgrwt>
</event>
<event>
 8    1  0.8577104E-018  0.8079690E+02  0.7818608E-02  0.1326805E+00
          1   -1    0    0  501    0  0.00000000000E+00  0.00000000000E+00  0.39284874492E+03  0.39284874495E+03  0.50400000000E-02 0. -1.
         -2   -1    0    0    0  501 -0.00000000000E+00 -0.00000000000E+00 -0.41543589189E+01  0.41543597015E+01  0.25500000000E-02 0.  1.
        -24    2    1    2    0    0  0.00000000000E+00 -0.17763568394E-14  0.38869438600E+03  0.39700310466E+03  0.80796902144E+02 0.  0.
         66    2    3    3    0    0 -0.39356167908E+02 -0.89194462957E+01  0.20061363187E+03  0.20464186710E+03  0.20000008931E+01 0.  0.
         13    1    3    3    0    0  0.39356167908E+02  0.89194462957E+01  0.18808075413E+03  0.19236123756E+03  0.10566000000E+00 0. -1.
         13    1    4    4    0    0 -0.83643246733E+01 -0.16570319389E+01  0.38767922675E+02  0.39694718473E+02  0.10566000000E+00 0. -1.
        -13    1    4    4    0    0 -0.15356667412E+02 -0.38024356075E+01  0.79569328847E+02  0.81126906806E+02  0.10566000000E+00 0.  1.
        -14    1    4    4    0    0 -0.15635175822E+02 -0.34599787493E+01  0.82276380347E+02  0.83820241821E+02  0.00000000000E+00 0.  1.
<mgrwt>
<rscale>  0 0.80796902E+02</rscale>
<asrwt>0</asrwt>
<pdfrwt beam="1">  1        1 0.60438267E-01 0.80796902E+02</pdfrwt>
<pdfrwt beam="2">  1       -2 0.63913222E-03 0.80796902E+02</pdfrwt>
<totfact> 0.18450153E+05</totfact>
</mgrwt>
</event>
<event>
 8    1  0.8577104E-018  0.7925963E+02  0.7818608E-02  0.1331166E+00
         -2   -1    0    0    0  501 -0.00000000000E+00  0.00000000000E+00  0.29224555108E+03  0.29224555109E+03  0.25500000000E-02 0.  1.
          1   -1    0    0  501    0  0.00000000000E+00 -0.00000000000E+00 -0.53739810346E+01  0.53739833980E+01  0.50400000000E-02 0. -1.
        -24    2    1    2    0    0  0.00000000000E+00  0.00000000000E+00  0.28687157005E+03  0.29761953449E+03  0.79259634173E+02 0.  0.
         66    2    3    3    0    0  0.28908485621E+01  0.10381602329E+02  0.28663024791E+03  0.28683973520E+03  0.20000003499E+01 0.  0.
         13    1    3    3    0    0 -0.28908485621E+01 -0.10381602329E+02  0.24132213819E+00  0.10779799290E+02  0.10566000000E+00 0. -1.
         13    1    4    4    0    0  0.21477976180E+00  0.51069472377E-01  0.68623099201E+01  0.68666731328E+01  0.10566000000E+00 0. -1.
        -13    1    4    4    0    0  0.12773723280E+00  0.10402087103E+01  0.34272529739E+02  0.34288712570E+02  0.10566000000E+00 0.  1.
        -14    1    4    4    0    0  0.25483315675E+01  0.92903241462E+01  0.24549540825E+03  0.24568434950E+03  0.00000000000E+00 0.  1.
<mgrwt>
<rscale>  0 0.79259634E+02</rscale>
<asrwt>0</asrwt>
<pdfrwt beam="1">  1        1 0.82676626E-03 0.79259634E+02</pdfrwt>
<pdfrwt beam="2">  1       -2 0.44960867E-01 0.79259634E+02</pdfrwt>
<totfact> 0.73000368E+04</totfact>
</mgrwt>
</event>
<event>
 8    1  0.8577104E-018  0.8081701E+02  0.7818608E-02  0.1326749E+00
          1   -1    0    0  501    0  0.00000000000E+00  0.00000000000E+00  0.10536969719E+03  0.10536969731E+03  0.50400000000E-02 0. -1.
         -2   -1    0    0    0  501 -0.00000000000E+00 -0.00000000000E+00 -0.15496362788E+02  0.15496362997E+02  0.25500000000E-02 0.  1.
        -24    2    1    2    0    0  0.00000000000E+00  0.55511151231E-16  0.89873334402E+02  0.12086606031E+03  0.80817005003E+02 0.  0.
         66    2    3    3    0    0 -0.38078353745E+02 -0.34133211561E+00  0.65071619909E+02  0.75421437552E+02  0.19999983250E+01 0.  0.
         13    1    3    3    0    0  0.38078353745E+02  0.34133211561E+00  0.24801714493E+02  0.45444622756E+02  0.10566000000E+00 0. -1.
         13    1    4    4    0    0 -0.88983847476E+01  0.45686751852E+00  0.15934350371E+02  0.18256633448E+02  0.10566000000E+00 0. -1.
        -13    1    4    4    0    0 -0.10786397285E+02 -0.25063643847E+00  0.19204778509E+02  0.22028251556E+02  0.10566000000E+00 0.  1.
         14    1    4    4    0    0 -0.18393571712E+02 -0.54756319566E+00  0.29932491029E+02  0.35136552548E+02  0.00000000000E+00 0. -1.
<mgrwt>
<rscale>  0 0.80817005E+02</rscale>
<asrwt>0</asrwt>
<pdfrwt beam="1">  1        1 0.16210723E-01 0.80817005E+02</pdfrwt>
<pdfrwt beam="2">  1       -2 0.23840558E-02 0.80817005E+02</pdfrwt>
<totfact> 0.14428436E+05</totfact>
</mgrwt>
</event>
<event>
 8    1  0.8577104E-018  0.7996981E+02  0.7818608E-02  0.1329137E+00
         -2   -1    0    0    0  501 -0.00000000000E+00  0.00000000000E+00  0.11232777155E+02  0.11232777444E+02  0.25500000000E-02 0.  1.
          1   -1    0    0  501    0  0.00000000000E+00 -0.00000000000E+00 -0.14233278411E+03  0.14233278420E+03  0.50400000000E-02 0. -1.
        -24    2    1    2    0    0  0.00000000000E+00  0.00000000000E+00 -0.13110000696E+03  0.15356556164E+03  0.79969806172E+02 0.  0.
         66    2    3    3    0    0  0.26964988318E+02 -0.22198555273E+02 -0.10287136702E+03  0.10865728036E+03  0.19999928826E+01 0.  0.
         13    1    3    3    0    0 -0.26964988318E+02  0.22198555273E+02 -0.28228639936E+02  0.44908281284E+02  0.10566000000E+00 0. -1.
         13    1    4    4    0    0  0.11577115630E+02 -0.88290676305E+01 -0.41994297739E+02  0.44446757453E+02  0.10566000000E+00 0.  1.
        -13    1    4    4    0    0  0.44788593675E+01 -0.42378508303E+01 -0.19943366275E+02  0.20875070857E+02  0.10566000000E+00 0. -1.
         14    1    4    4    0    0  0.10909013320E+02 -0.91316368124E+01 -0.40933703007E+02  0.43335452050E+02  0.00000000000E+00 0. -1.
<mgrwt>
<rscale>  0 0.79969806E+02</rscale>
<asrwt>0</asrwt>
<pdfrwt beam="1">  1        1 0.21897350E-01 0.79969806E+02</pdfrwt>
<pdfrwt beam="2">  1       -2 0.17281197E-02 0.79969806E+02</pdfrwt>
<totfact> 0.15652944E+05</totfact>
</mgrwt>
</event>
<event>
 8    1  0.8869077E-018  0.8042501E+02  0.7818608E-02  0.1327850E+00
          1   -1    0    0  501    0  0.00000000000E+00  0.00000000000E+00  0.58442400653E+02  0.58442400870E+02  0.50400000000E-02 0. -1.
         -2   -1    0    0    0  501 -0.00000000000E+00 -0.00000000000E+00 -0.27669046274E+02  0.27669046391E+02  0.25500000000E-02 0.  1.
        -24    2    1    2    0    0  0.00000000000E+00 -0.17763568394E-14  0.30773354379E+02  0.86111447261E+02  0.80425008609E+02 0.  0.
         66    2    3    3    0    0 -0.21725605596E+02  0.15513521415E+02 -0.16767231413E+02  0.31588151812E+02  0.20000001160E+01 0.  0.
         13    1    3    3    0    0  0.21725605596E+02 -0.15513521415E+02  0.47540585792E+02  0.54523295449E+02  0.10566000000E+00 0. -1.
         13    1    4    4    0    0 -0.89719138226E+01  0.71224381321E+01 -0.70879531842E+01  0.13471251128E+02  0.10566000000E+00 0. -1.
        -13    1    4    4    0    0 -0.10230810708E+02  0.72841149952E+01 -0.79499196377E+01  0.14864057497E+02  0.10566000000E+00 0.  1.
         14    1    4    4    0    0 -0.25228810654E+01  0.11069682873E+01 -0.17293585913E+01  0.32528431866E+01  0.00000000000E+00 0. -1.
<mgrwt>
<rscale>  0 0.80425009E+02</rscale>
<asrwt>0</asrwt>
<pdfrwt beam="1">  1        1 0.89911384E-02 0.80425009E+02</pdfrwt>
<pdfrwt beam="2">  1       -2 0.42567765E-02 0.80425009E+02</pdfrwt>
<totfact> 0.13287032E+05</totfact>
</mgrwt>
</event>
<event>
 8    1  0.8577104E-018  0.7959238E+02  0.7818608E-02  0.1330212E+00
          1   -1    0    0  501    0  0.00000000000E+00  0.00000000000E+00  0.39074249212E+01  0.39074281716E+01  0.50400000000E-02 0. -1.
         -2   -1    0    0    0  501 -0.00000000000E+00 -0.00000000000E+00 -0.40531454512E+03  0.40531454513E+03  0.25500000000E-02 0.  1.
        -24    2    1    2    0    0  0.00000000000E+00  0.00000000000E+00 -0.40140712020E+03  0.40922197330E+03  0.79592382079E+02 0.  0.
         66    2    3    3    0    0 -0.30536339390E+02 -0.18918544269E+02 -0.28858998036E+03  0.29082392625E+03  0.19999931602E+01 0.  0.
         13    1    3    3    0    0  0.30536339390E+02  0.18918544269E+02 -0.11281713984E+03  0.11839804705E+03  0.10566000000E+00 0. -1.
         13    1    4    4    0    0 -0.55899701307E+01 -0.29856380507E+01 -0.55868230942E+02  0.56226614635E+02  0.10566000000E+00 0. -1.
        -13    1    4    4    0    0 -0.48119143960E+01 -0.31127656402E+01 -0.43541566383E+02  0.43917228933E+02  0.10566000000E+00 0.  1.
         14    1    4    4    0    0 -0.20134454863E+02 -0.12820140578E+02 -0.18918018303E+03  0.19068008268E+03  0.00000000000E+00 0. -1.
<mgrwt>
<rscale>  0 0.79592382E+02</rscale>
<asrwt>0</asrwt>
<pdfrwt beam="1">  1        1 0.60114287E-03 0.79592382E+02</pdfrwt>
<pdfrwt beam="2">  1       -2 0.62356051E-01 0.79592382E+02</pdfrwt>
<totfact> 0.59354715E+04</totfact>
</mgrwt>
</event>
<event>
 8    1  0.8577104E-018  0.7657393E+02  0.7818608E-02  0.1339065E+00
          1   -1    0    0  501    0  0.00000000000E+00  0.00000000000E+00  0.33473514782E+02  0.33473515161E+02  0.50400000000E-02 0. -1.
         -2   -1    0    0    0  501 -0.00000000000E+00 -0.00000000000E+00 -0.43792577551E+02  0.43792577625E+02  0.25500000000E-02 0.  1.
        -24    2    1    2    0    0  0.44408920985E-15  0.00000000000E+00 -0.10319062769E+02  0.77266092786E+02  0.76573925314E+02 0.  0.
         66    2    3    3    0    0 -0.23971426282E+01 -0.23741898278E+02 -0.35340949171E+02  0.42689655871E+02  0.20000008476E+01 0.  0.
         13    1    3    3    0    0  0.23971426282E+01  0.23741898278E+02  0.25021886402E+02  0.34576436916E+02  0.10566000000E+00 0. -1.
         13    1    4    4    0    0 -0.14274294142E+01 -0.15864075778E+02 -0.23012965663E+02  0.27987751029E+02  0.10566000000E+00 0. -1.
        -13    1    4    4    0    0 -0.10915364831E+01 -0.50806566036E+01 -0.76076235918E+01  0.92136650779E+01  0.10566000000E+00 0.  1.
        -14    1    4    4    0    0  0.12182326905E+00 -0.27971658965E+01 -0.47203599165E+01  0.54882397636E+01  0.00000000000E+00 0.  1.
<mgrwt>
<rscale>  0 0.76573925E+02</rscale>
<asrwt>0</asrwt>
<pdfrwt beam="1">  1        1 0.51497716E-02 0.76573925E+02</pdfrwt>
<pdfrwt beam="2">  1       -2 0.67373196E-02 0.76573925E+02</pdfrwt>
<totfact> 0.13957814E+05</totfact>
</mgrwt>
</event>
<event>
 8    1  0.8577104E-018  0.7986348E+02  0.7818608E-02  0.1329439E+00
         -2   -1    0    0    0  501 -0.00000000000E+00  0.00000000000E+00  0.20273176741E+02  0.20273176901E+02  0.25500000000E-02 0.  1.
          1   -1    0    0  501    0  0.00000000000E+00 -0.00000000000E+00 -0.78652882582E+02  0.78652882744E+02  0.50400000000E-02 0. -1.
        -24    2    1    2    0    0 -0.71054273576E-14 -0.88817841970E-15 -0.58379705841E+02  0.98926059645E+02  0.79863478654E+02 0.  0.
         66    2    3    3    0    0  0.37934419779E+02  0.56696892908E+01 -0.15561522124E+02  0.41440638872E+02  0.19999996654E+01 0.  0.
         13    1    3    3    0    0 -0.37934419779E+02 -0.56696892908E+01 -0.42818183717E+02  0.57485420773E+02  0.10566000000E+00 0. -1.
         13    1    4    4    0    0  0.10433711101E+02  0.89037374406E+00 -0.42018194850E+01  0.11283684849E+02  0.10566000000E+00 0. -1.
        -13    1    4    4    0    0  0.98610615977E+01  0.15670839268E+01 -0.35118044158E+01  0.10584905392E+02  0.10566000000E+00 0.  1.
         14    1    4    4    0    0  0.17639647080E+02  0.32122316199E+01 -0.78478982230E+01  0.19572048631E+02  0.00000000000E+00 0. -1.
<mgrwt>
<rscale>  0 0.79863479E+02</rscale>
<asrwt>0</asrwt>
<pdfrwt beam="1">  1        1 0.12100443E-01 0.79863479E+02</pdfrwt>
<pdfrwt beam="2">  1       -2 0.31189503E-02 0.79863479E+02</pdfrwt>
<totfact> 0.14196659E+05</totfact>
</mgrwt>
</event>
<event>
 8    1  0.8577104E-018  0.7998552E+02  0.7818608E-02  0.1329093E+00
          1   -1    0    0  501    0  0.00000000000E+00  0.00000000000E+00  0.14195639122E+02  0.14195640017E+02  0.50400000000E-02 0. -1.
         -2   -1    0    0    0  501 -0.00000000000E+00 -0.00000000000E+00 -0.11266986348E+03  0.11266986351E+03  0.25500000000E-02 0.  1.
        -24    2    1    2    0    0  0.00000000000E+00  0.17763568394E-14 -0.98474224358E+02  0.12686550353E+03  0.79985518202E+02 0.  0.
         66    2    3    3    0    0  0.86948438940E+01  0.14135568712E+02 -0.10693756618E+03  0.10823611996E+03  0.19999974476E+01 0.  0.
         13    1    3    3    0    0 -0.86948438940E+01 -0.14135568712E+02  0.84633418250E+01  0.18629383566E+02  0.10566000000E+00 0. -1.
         13    1    4    4    0    0  0.49670127990E+01  0.70178864415E+01 -0.56044216585E+02  0.56699976392E+02  0.10566000000E+00 0. -1.
        -13    1    4    4    0    0  0.15806065900E+01  0.22690754860E+01 -0.20087746802E+02  0.20277469181E+02  0.10566000000E+00 0.  1.
        -14    1    4    4    0    0  0.21472245050E+01  0.48486067845E+01 -0.30805602796E+02  0.31258674387E+02  0.00000000000E+00 0.  1.
<mgrwt>
<rscale>  0 0.79985518E+02</rscale>
<asrwt>0</asrwt>
<pdfrwt beam="1">  1        1 0.21839446E-02 0.79985518E+02</pdfrwt>
<pdfrwt beam="2">  1       -2 0.17333825E-01 0.79985518E+02</pdfrwt>
<totfact> 0.10295677E+05</totfact>
</mgrwt>
</event>
<event>
 8    1  0.8577104E-018  0.7793003E+02  0.7818608E-02  0.1335030E+00
         -2   -1    0    0    0  501 -0.00000000000E+00  0.00000000000E+00  0.14395579579E+03  0.14395579582E+03  0.25500000000E-02 0.  1.
          1   -1    0    0  501    0  0.00000000000E+00 -0.00000000000E+00 -0.10546795718E+02  0.10546796922E+02  0.50400000000E-02 0. -1.
        -24    2    1    2    0    0  0.00000000000E+00  0.00000000000E+00  0.13340900008E+03  0.15450259274E+03  0.77930031833E+02 0.  0.
         66    2    3    3    0    0  0.15657882874E+02  0.16208918240E+02  0.12970483104E+03  0.13166336423E+03  0.19999897226E+01 0.  0.
         13    1    3    3    0    0 -0.15657882874E+02 -0.16208918240E+02  0.37041690381E+01  0.22839228509E+02  0.10566000000E+00 0. -1.
         13    1    4    4    0    0  0.12408518009E+01  0.92228607872E+00  0.84673472273E+01  0.86079880289E+01  0.10566000000E+00 0. -1.
        -13    1    4    4    0    0  0.66878475793E+01  0.65220345513E+01  0.57915642502E+02  0.58664274055E+02  0.10566000000E+00 0.  1.
        -14    1    4    4    0    0  0.77291834939E+01  0.87645976098E+01  0.63321841308E+02  0.64391102145E+02  0.00000000000E+00 0.  1.
<mgrwt>
<rscale>  0 0.77930032E+02</rscale>
<asrwt>0</asrwt>
<pdfrwt beam="1">  1        1 0.16225842E-02 0.77930032E+02</pdfrwt>
<pdfrwt beam="2">  1       -2 0.22147044E-01 0.77930032E+02</pdfrwt>
<totfact> 0.10245455E+05</totfact>
</mgrwt>
</event>
<event>
 8    1  0.8577104E-018  0.7896049E+02  0.7818608E-02  0.1332028E+00
          1   -1    0    0  501    0  0.00000000000E+00  0.00000000000E+00  0.12464453088E+02  0.12464454107E+02  0.50400000000E-02 0. -1.
         -2   -1    0    0    0  501 -0.00000000000E+00 -0.00000000000E+00 -0.12505078122E+03  0.12505078124E+03  0.25500000000E-02 0.  1.
        -24    2    1    2    0    0 -0.71054273576E-14  0.00000000000E+00 -0.11258632813E+03  0.13751523535E+03  0.78960488041E+02 0.  0.
         66    2    3    3    0    0  0.32269917089E+02 -0.75254875558E+01 -0.93629052252E+02  0.99339719838E+02  0.20000000187E+01 0.  0.
         13    1    3    3    0    0 -0.32269917089E+02  0.75254875558E+01 -0.18957275877E+02  0.38175515512E+02  0.10566000000E+00 0. -1.
         13    1    4    4    0    0  0.13058785134E+02 -0.28997156908E+01 -0.39468476969E+02  0.41673877413E+02  0.10566000000E+00 0. -1.
        -13    1    4    4    0    0  0.13277203476E+02 -0.36983889725E+01 -0.38533117099E+02  0.40924008730E+02  0.10566000000E+00 0.  1.
        -14    1    4    4    0    0  0.59339284784E+01 -0.92738289249E+00 -0.15627458183E+02  0.16741833695E+02  0.00000000000E+00 0.  1.
<mgrwt>
<rscale>  0 0.78960488E+02</rscale>
<asrwt>0</asrwt>
<pdfrwt beam="1">  1        1 0.19176083E-02 0.78960488E+02</pdfrwt>
<pdfrwt beam="2">  1       -2 0.19238581E-01 0.78960488E+02</pdfrwt>
<totfact> 0.10337815E+05</totfact>
</mgrwt>
</event>
<event>
 8    1  0.8577104E-018  0.8025514E+02  0.7818608E-02  0.1328329E+00
         -2   -1    0    0    0  501 -0.00000000000E+00  0.00000000000E+00  0.36340095271E+02  0.36340095360E+02  0.25500000000E-02 0.  1.
          1   -1    0    0  501    0  0.00000000000E+00 -0.00000000000E+00 -0.44309785476E+02  0.44309785763E+02  0.50400000000E-02 0. -1.
        -24    2    1    2    0    0 -0.44408920985E-15  0.00000000000E+00 -0.79696902057E+01  0.80649881123E+02  0.80255139170E+02 0.  0.
         66    2    3    3    0    0 -0.12925852367E+01 -0.40045841719E+02 -0.56917253687E+01  0.40518341115E+02  0.20000033693E+01 0.  0.
         13    1    3    3    0    0  0.12925852367E+01  0.40045841719E+02 -0.22779648370E+01  0.40131540008E+02  0.10566000000E+00 0. -1.
         13    1    4    4    0    0  0.10870572216E-01 -0.87308065840E+01 -0.16379054778E+01  0.88837492179E+01  0.10566000000E+00 0. -1.
        -13    1    4    4    0    0 -0.15900144648E+00 -0.60229226187E+01 -0.13256089340E+01  0.61700309086E+01  0.10566000000E+00 0.  1.
        -14    1    4    4    0    0 -0.11444543624E+01 -0.25292112516E+02 -0.27282109569E+01  0.25464560989E+02  0.00000000000E+00 0.  1.
<mgrwt>
<rscale>  0 0.80255139E+02</rscale>
<asrwt>0</asrwt>
<pdfrwt beam="1">  1        1 0.68168901E-02 0.80255139E+02</pdfrwt>
<pdfrwt beam="2">  1       -2 0.55907839E-02 0.80255139E+02</pdfrwt>
<totfact> 0.12793475E+05</totfact>
</mgrwt>
</event>
<event>
 8    1  0.8577104E-018  0.7857740E+02  0.7818608E-02  0.1333138E+00
         -2   -1    0    0    0  501 -0.00000000000E+00  0.00000000000E+00  0.91733779593E+02  0.91733779628E+02  0.25500000000E-02 0.  1.
          1   -1    0    0  501    0  0.00000000000E+00 -0.00000000000E+00 -0.16826972517E+02  0.16826973272E+02  0.50400000000E-02 0. -1.
        -24    2    1    2    0    0  0.00000000000E+00 -0.88817841970E-15  0.74906807075E+02  0.10856075290E+03  0.78577397030E+02 0.  0.
         66    2    3    3    0    0 -0.30788121403E+02 -0.35812678491E+01  0.70775132855E+02  0.77290706613E+02  0.19999997803E+01 0.  0.
         13    1    3    3    0    0  0.30788121403E+02  0.35812678491E+01  0.41316742202E+01  0.31270046287E+02  0.10566000000E+00 0. -1.
         13    1    4    4    0    0 -0.61173062032E+01 -0.94441616236E+00  0.13850558910E+02  0.15171107515E+02  0.10566000000E+00 0. -1.
        -13    1    4    4    0    0 -0.14611431377E+02 -0.19427168430E+01  0.31954234410E+02  0.35190230695E+02  0.10566000000E+00 0.  1.
         14    1    4    4    0    0 -0.10059383823E+02 -0.69413484377E+00  0.24970339535E+02  0.26929368402E+02  0.00000000000E+00 0. -1.
<mgrwt>
<rscale>  0 0.78577397E+02</rscale>
<asrwt>0</asrwt>
<pdfrwt beam="1">  1        1 0.25887651E-02 0.78577397E+02</pdfrwt>
<pdfrwt beam="2">  1       -2 0.14112889E-01 0.78577397E+02</pdfrwt>
<totfact> 0.11344638E+05</totfact>
</mgrwt>
</event>
<event>
 8    1  0.8577104E-018  0.7811765E+02  0.7818608E-02  0.1334480E+00
          1   -1    0    0  501    0  0.00000000000E+00  0.00000000000E+00  0.76065138955E+01  0.76065155653E+01  0.50400000000E-02 0. -1.
         -2   -1    0    0    0  501 -0.00000000000E+00 -0.00000000000E+00 -0.20056383542E+03  0.20056383544E+03  0.25500000000E-02 0.  1.
        -24    2    1    2    0    0  0.00000000000E+00  0.00000000000E+00 -0.19295732153E+03  0.20817035100E+03  0.78117649134E+02 0.  0.
         66    2    3    3    0    0  0.25496158139E+02  0.13922682090E+02 -0.16601626481E+03  0.16855057239E+03  0.20000286506E+01 0.  0.
         13    1    3    3    0    0 -0.25496158139E+02 -0.13922682090E+02 -0.26941056716E+02  0.39619778614E+02  0.10566000000E+00 0. -1.
         13    1    4    4    0    0  0.14629548498E+02  0.75133076065E+01 -0.90843852753E+02  0.92320583986E+02  0.10566000000E+00 0. -1.
        -13    1    4    4    0    0  0.59319138533E+01  0.35583869222E+01 -0.44080815196E+02  0.44620389419E+02  0.10566000000E+00 0.  1.
         14    1    4    4    0    0  0.49346957875E+01  0.28509875618E+01 -0.31091596861E+02  0.31609598984E+02  0.00000000000E+00 0. -1.
<mgrwt>
<rscale>  0 0.78117649E+02</rscale>
<asrwt>0</asrwt>
<pdfrwt beam="1">  1        1 0.11702332E-02 0.78117649E+02</pdfrwt>
<pdfrwt beam="2">  1       -2 0.30855971E-01 0.78117649E+02</pdfrwt>
<totfact> 0.90357910E+04</totfact>
</mgrwt>
</event>
<event>
 8    1  0.8577104E-018  0.7919263E+02  0.7818608E-02  0.1331358E+00
         -2   -1    0    0    0  501 -0.00000000000E+00  0.00000000000E+00  0.29920354811E+03  0.29920354813E+03  0.25500000000E-02 0.  1.
          1   -1    0    0  501    0  0.00000000000E+00 -0.00000000000E+00 -0.52401371838E+01  0.52401396075E+01  0.50400000000E-02 0. -1.
        -24    2    1    2    0    0  0.00000000000E+00  0.00000000000E+00  0.29396341093E+03  0.30444368773E+03  0.79192626136E+02 0.  0.
         66    2    3    3    0    0 -0.85199092720E+01 -0.21609648630E+02  0.27023211040E+03  0.27123598445E+03  0.20000015494E+01 0.  0.
         13    1    3    3    0    0  0.85199092720E+01  0.21609648630E+02  0.23731300536E+02  0.33207703279E+02  0.10566000000E+00 0. -1.
         13    1    4    4    0    0 -0.17083307838E+01 -0.64114283550E+01  0.74104764867E+02  0.74401291303E+02  0.10566000000E+00 0. -1.
        -13    1    4    4    0    0 -0.17074800804E+01 -0.40499228168E+01  0.55470517858E+02  0.55644468534E+02  0.10566000000E+00 0.  1.
         14    1    4    4    0    0 -0.51040984077E+01 -0.11148297458E+02  0.14065682767E+03  0.14119022462E+03  0.00000000000E+00 0. -1.
<mgrwt>
<rscale>  0 0.79192626E+02</rscale>
<asrwt>0</asrwt>
<pdfrwt beam="1">  1        1 0.80617504E-03 0.79192626E+02</pdfrwt>
<pdfrwt beam="2">  1       -2 0.46031321E-01 0.79192626E+02</pdfrwt>
<totfact> 0.72239201E+04</totfact>
</mgrwt>
</event>
<event>
 8    1  0.8577104E-018  0.7974049E+02  0.7818608E-02  0.1329790E+00
          1   -1    0    0  501    0  0.00000000000E+00  0.00000000000E+00  0.82813962551E+02  0.82813962705E+02  0.50400000000E-02 0. -1.
         -2   -1    0    0    0  501 -0.00000000000E+00 -0.00000000000E+00 -0.19195270141E+02  0.19195270311E+02  0.25500000000E-02 0.  1.
        -24    2    1    2    0    0  0.00000000000E+00  0.00000000000E+00  0.63618692410E+02  0.10200923302E+03  0.79740489065E+02 0.  0.
         66    2    3    3    0    0 -0.10362948721E+02 -0.12119550673E+02 -0.14883278344E+02  0.21904022255E+02  0.20000004870E+01 0.  0.
         13    1    3    3    0    0  0.10362948721E+02  0.12119550673E+02  0.78501970754E+02  0.80105210761E+02  0.10566000000E+00 0. -1.
         13    1    4    4    0    0 -0.14363020813E+01 -0.97007489783E+00 -0.14796463097E+01  0.22813430723E+01  0.10566000000E+00 0. -1.
        -13    1    4    4    0    0 -0.89119252153E+01 -0.11156065314E+02 -0.13286433475E+02  0.19504375993E+02  0.10566000000E+00 0.  1.
        -14    1    4    4    0    0 -0.14721424282E-01  0.65895390508E-02 -0.11719855909E+00  0.11830318935E+00  0.00000000000E+00 0.  1.
<mgrwt>
<rscale>  0 0.79740489E+02</rscale>
<asrwt>0</asrwt>
<pdfrwt beam="1">  1        1 0.12740609E-01 0.79740489E+02</pdfrwt>
<pdfrwt beam="2">  1       -2 0.29531186E-02 0.79740489E+02</pdfrwt>
<totfact> 0.14375239E+05</totfact>
</mgrwt>
</event>
<event>
 8    1  0.8577104E-018  0.7961270E+02  0.7818608E-02  0.1330154E+00
         -2   -1    0    0    0  501 -0.00000000000E+00  0.00000000000E+00  0.12758822634E+03  0.12758822636E+03  0.25500000000E-02 0.  1.
          1   -1    0    0  501    0  0.00000000000E+00 -0.00000000000E+00 -0.12419214055E+02  0.12419215078E+02  0.50400000000E-02 0. -1.
        -24    2    1    2    0    0  0.00000000000E+00  0.00000000000E+00  0.11516901228E+03  0.14000744144E+03  0.79612701681E+02 0.  0.
         66    2    3    3    0    0  0.34419083238E+02 -0.13787361865E+02  0.82970072357E+02  0.90899931481E+02  0.19999995757E+01 0.  0.
         13    1    3    3    0    0 -0.34419083238E+02  0.13787361865E+02  0.32198939926E+02  0.49107509961E+02  0.10566000000E+00 0. -1.
         13    1    4    4    0    0  0.27482678751E+02 -0.10894524601E+02  0.64548122099E+02  0.70996193758E+02  0.10566000000E+00 0.  1.
        -13    1    4    4    0    0  0.14353262260E+01 -0.82589598218E+00  0.40331993355E+01  0.43612069962E+01  0.10566000000E+00 0. -1.
        -14    1    4    4    0    0  0.55010782608E+01 -0.20669412817E+01  0.14388750922E+02  0.15542530727E+02  0.00000000000E+00 0.  1.
<mgrwt>
<rscale>  0 0.79612702E+02</rscale>
<asrwt>0</asrwt>
<pdfrwt beam="1">  1        1 0.19106484E-02 0.79612702E+02</pdfrwt>
<pdfrwt beam="2">  1       -2 0.19628958E-01 0.79612702E+02</pdfrwt>
<totfact> 0.10062792E+05</totfact>
</mgrwt>
</event>
<event>
 8    1  0.8577104E-018  0.7951457E+02  0.7818608E-02  0.1330435E+00
         -2   -1    0    0    0  501 -0.00000000000E+00  0.00000000000E+00  0.22112488851E+02  0.22112488998E+02  0.25500000000E-02 0.  1.
          1   -1    0    0  501    0  0.00000000000E+00 -0.00000000000E+00 -0.71481852184E+02  0.71481852362E+02  0.50400000000E-02 0. -1.
        -24    2    1    2    0    0  0.00000000000E+00  0.35527136788E-14 -0.49369363333E+02  0.93594341360E+02  0.79514569097E+02 0.  0.
         66    2    3    3    0    0 -0.15852497899E+02 -0.28548808627E+02  0.19416513399E+01  0.32773559102E+02  0.20000006491E+01 0.  0.
         13    1    3    3    0    0  0.15852497899E+02  0.28548808627E+02 -0.51311014673E+02  0.60820782258E+02  0.10566000000E+00 0. -1.
         13    1    4    4    0    0 -0.17231104219E+01 -0.25653089395E+01  0.40281384544E+00  0.31182274630E+01  0.10566000000E+00 0. -1.
        -13    1    4    4    0    0 -0.40533755393E+01 -0.74744344409E+01  0.11231810254E+01  0.85772794711E+01  0.10566000000E+00 0.  1.
        -14    1    4    4    0    0 -0.10076011938E+02 -0.18509065247E+02  0.41565646912E+00  0.21078052168E+02  0.00000000000E+00 0.  1.
<mgrwt>
<rscale>  0 0.79514569E+02</rscale>
<asrwt>0</asrwt>
<pdfrwt beam="1">  1        1 0.10997208E-01 0.79514569E+02</pdfrwt>
<pdfrwt beam="2">  1       -2 0.34019214E-02 0.79514569E+02</pdfrwt>
<totfact> 0.14150305E+05</totfact>
</mgrwt>
</event>
<event>
 8    1  0.8577104E-018  0.7948101E+02  0.7818608E-02  0.1330531E+00
         -2   -1    0    0    0  501 -0.00000000000E+00  0.00000000000E+00  0.39764415933E+02  0.39764416015E+02  0.25500000000E-02 0.  1.
          1   -1    0    0  501    0  0.00000000000E+00 -0.00000000000E+00 -0.39716610482E+02  0.39716610802E+02  0.50400000000E-02 0. -1.
        -24    2    1    2    0    0 -0.35527136788E-14  0.35527136788E-14  0.47805450705E-01  0.79481026817E+02  0.79481012440E+02 0.  0.
         66    2    3    3    0    0  0.29899014106E+02 -0.24427013981E+02  0.93337457536E+01  0.39771205514E+02  0.19999804164E+01 0.  0.
         13    1    3    3    0    0 -0.29899014106E+02  0.24427013981E+02 -0.92859403029E+01  0.39709821303E+02  0.10566000000E+00 0. -1.
         13    1    4    4    0    0  0.11290560392E+02 -0.87419384978E+01  0.35360950182E+01  0.14710995027E+02  0.10566000000E+00 0. -1.
        -13    1    4    4    0    0  0.68795934505E+01 -0.60343344737E+01  0.28752366761E+01  0.95927133057E+01  0.10566000000E+00 0.  1.
         14    1    4    4    0    0  0.11728860264E+02 -0.96507410097E+01  0.29224140592E+01  0.15467497181E+02  0.00000000000E+00 0. -1.
<mgrwt>
<rscale>  0 0.79481012E+02</rscale>
<asrwt>0</asrwt>
<pdfrwt beam="1">  1        1 0.61102478E-02 0.79481012E+02</pdfrwt>
<pdfrwt beam="2">  1       -2 0.61176025E-02 0.79481012E+02</pdfrwt>
<totfact> 0.12917583E+05</totfact>
</mgrwt>
</event>
<event>
 8    1  0.8577104E-018  0.8101674E+02  0.7818608E-02  0.1326191E+00
          1   -1    0    0  501    0  0.00000000000E+00  0.00000000000E+00  0.21774822238E+03  0.21774822244E+03  0.50400000000E-02 0. -1.
         -2   -1    0    0    0  501 -0.00000000000E+00 -0.00000000000E+00 -0.75358959568E+01  0.75358963883E+01  0.25500000000E-02 0.  1.
        -24    2    1    2    0    0 -0.17763568394E-14  0.35527136788E-14  0.21021232642E+03  0.22528411882E+03  0.81016739105E+02 0.  0.
         66    2    3    3    0    0  0.84350588062E+01 -0.28860204957E+02  0.29789621251E+02  0.42373142248E+02  0.20000006137E+01 0.  0.
         13    1    3    3    0    0 -0.84350588062E+01  0.28860204957E+02  0.18042270517E+03  0.18291097658E+03  0.10566000000E+00 0. -1.
         13    1    4    4    0    0  0.51051434313E-01 -0.40773317277E+00  0.31510111140E+00  0.52849345798E+00  0.10566000000E+00 0. -1.
        -13    1    4    4    0    0  0.50518009737E+01 -0.17203801604E+02  0.18869860361E+02  0.26030256948E+02  0.10566000000E+00 0.  1.
        -14    1    4    4    0    0  0.33322063983E+01 -0.11248670180E+02  0.10604659779E+02  0.15814391842E+02  0.00000000000E+00 0.  1.
<mgrwt>
<rscale>  0 0.81016739E+02</rscale>
<asrwt>0</asrwt>
<pdfrwt beam="1">  1        1 0.33499726E-01 0.81016739E+02</pdfrwt>
<pdfrwt beam="2">  1       -2 0.11593687E-02 0.81016739E+02</pdfrwt>
<totfact> 0.16393700E+05</totfact>
</mgrwt>
</event>
<event>
 8    1  0.8577104E-018  0.8101573E+02  0.7818608E-02  0.1326193E+00
         -2   -1    0    0    0  501 -0.00000000000E+00  0.00000000000E+00  0.54937281711E+02  0.54937281771E+02  0.25500000000E-02 0.  1.
          1   -1    0    0  501    0  0.00000000000E+00 -0.00000000000E+00 -0.29868369515E+02  0.29868369940E+02  0.50400000000E-02 0. -1.
        -24    2    1    2    0    0  0.44408920985E-15 -0.35527136788E-14  0.25068912197E+02  0.84805651711E+02  0.81015728123E+02 0.  0.
         66    2    3    3    0    0  0.24643828736E+01 -0.24801202385E+02  0.45935987099E+02  0.52299978333E+02  0.20000000273E+01 0.  0.
         13    1    3    3    0    0 -0.24643828736E+01  0.24801202385E+02 -0.20867074903E+02  0.32505673378E+02  0.10566000000E+00 0. -1.
         13    1    4    4    0    0  0.24620851801E+01 -0.19223251821E+02  0.34555982158E+02  0.39619721616E+02  0.10566000000E+00 0. -1.
        -13    1    4    4    0    0 -0.81888446762E-01 -0.13682092222E+01  0.25181253766E+01  0.28689408571E+01  0.10566000000E+00 0.  1.
         14    1    4    4    0    0  0.84186140268E-01 -0.42097413421E+01  0.88618795650E+01  0.98113158596E+01  0.00000000000E+00 0. -1.
<mgrwt>
<rscale>  0 0.81015728E+02</rscale>
<asrwt>0</asrwt>
<pdfrwt beam="1">  1        1 0.45951338E-02 0.81015728E+02</pdfrwt>
<pdfrwt beam="2">  1       -2 0.84518895E-02 0.81015728E+02</pdfrwt>
<totfact> 0.11654268E+05</totfact>
</mgrwt>
</event>
<event>
 8    1  0.8577104E-018  0.8145851E+02  0.7818608E-02  0.1324963E+00
         -2   -1    0    0    0  501 -0.00000000000E+00  0.00000000000E+00  0.43932404669E+01  0.43932412069E+01  0.25500000000E-02 0.  1.
          1   -1    0    0  501    0  0.00000000000E+00 -0.00000000000E+00 -0.37759645565E+03  0.37759645568E+03  0.50400000000E-02 0. -1.
        -24    2    1    2    0    0  0.00000000000E+00  0.88817841970E-15 -0.37320321518E+03  0.38198969689E+03  0.81458509116E+02 0.  0.
         66    2    3    3    0    0  0.40338850275E+02  0.45719868239E+01 -0.20057823854E+03  0.20465521172E+03  0.20000010013E+01 0.  0.
         13    1    3    3    0    0 -0.40338850275E+02 -0.45719868239E+01 -0.17262497664E+03  0.17733448516E+03  0.10566000000E+00 0. -1.
         13    1    4    4    0    0  0.64084331312E+01  0.98508752978E+00 -0.29588463474E+02  0.30290703977E+02  0.10566000000E+00 0. -1.
        -13    1    4    4    0    0  0.28363519046E+02  0.29510277091E+01 -0.14067915739E+03  0.14354035762E+03  0.10566000000E+00 0.  1.
        -14    1    4    4    0    0  0.55668980975E+01  0.63587158504E+00 -0.30310617675E+02  0.30824150125E+02  0.00000000000E+00 0.  1.
<mgrwt>
<rscale>  0 0.81458509E+02</rscale>
<asrwt>0</asrwt>
<pdfrwt beam="1">  1        1 0.58091737E-01 0.81458509E+02</pdfrwt>
<pdfrwt beam="2">  1       -2 0.67588351E-03 0.81458509E+02</pdfrwt>
<totfact> 0.17937766E+05</totfact>
</mgrwt>
</event>
<event>
 8    1  0.8577104E-018  0.8013356E+02  0.7818608E-02  0.1328673E+00
          1   -1    0    0  501    0  0.00000000000E+00  0.00000000000E+00  0.68831015606E+02  0.68831015790E+02  0.50400000000E-02 0. -1.
         -2   -1    0    0    0  501 -0.00000000000E+00 -0.00000000000E+00 -0.23323015982E+02  0.23323016121E+02  0.25500000000E-02 0.  1.
        -24    2    1    2    0    0 -0.35527136788E-14  0.00000000000E+00  0.45507999624E+02  0.92154031911E+02  0.80133560808E+02 0.  0.
         66    2    3    3    0    0 -0.26008031879E+02  0.27679267175E+02  0.81860660496E+01  0.38904642775E+02  0.19999996394E+01 0.  0.
         13    1    3    3    0    0  0.26008031879E+02 -0.27679267175E+02  0.37321933575E+02  0.53249389136E+02  0.10566000000E+00 0. -1.
         13    1    4    4    0    0 -0.19920180212E+01  0.21389235795E+01  0.11511441943E+01  0.31431555589E+01  0.10566000000E+00 0. -1.
        -13    1    4    4    0    0 -0.93781233308E+01  0.98689690480E+01  0.29881985786E+01  0.13938659981E+02  0.10566000000E+00 0.  1.
         14    1    4    4    0    0 -0.14637890527E+02  0.15671374548E+02  0.40467232767E+01  0.21822827236E+02  0.00000000000E+00 0. -1.
<mgrwt>
<rscale>  0 0.80133561E+02</rscale>
<asrwt>0</asrwt>
<pdfrwt beam="1">  1        1 0.10589387E-01 0.80133561E+02</pdfrwt>
<pdfrwt beam="2">  1       -2 0.35881563E-02 0.80133561E+02</pdfrwt>
<totfact> 0.13770654E+05</totfact>
</mgrwt>
</event>
<event>
 8    1  0.8577104E-018  0.8091005E+02  0.7818608E-02  0.1326488E+00
          1   -1    0    0  501    0  0.00000000000E+00  0.00000000000E+00  0.22739189424E+03  0.22739189430E+03  0.50400000000E-02 0. -1.
         -2   -1    0    0    0  501 -0.00000000000E+00 -0.00000000000E+00 -0.71973063306E+01  0.71973067823E+01  0.25500000000E-02 0.  1.
        -24    2    1    2    0    0  0.00000000000E+00  0.00000000000E+00  0.22019458791E+03  0.23458920108E+03  0.80910053257E+02 0.  0.
         66    2    3    3    0    0  0.28512648884E+02  0.28031800130E+02  0.92804062432E+02  0.10107099966E+03  0.20000007960E+01 0.  0.
         13    1    3    3    0    0 -0.28512648884E+02 -0.28031800130E+02  0.12739052548E+03  0.13351820142E+03  0.10566000000E+00 0. -1.
         13    1    4    4    0    0  0.59218699136E+01  0.52112411507E+01  0.16792682153E+02  0.18553461012E+02  0.10566000000E+00 0. -1.
        -13    1    4    4    0    0  0.13815765374E+02  0.13845980565E+02  0.45672361738E+02  0.49684628824E+02  0.10566000000E+00 0.  1.
         14    1    4    4    0    0  0.87750135966E+01  0.89745784143E+01  0.30339018541E+02  0.32832909822E+02  0.00000000000E+00 0. -1.
<mgrwt>
<rscale>  0 0.80910053E+02</rscale>
<asrwt>0</asrwt>
<pdfrwt beam="1">  1        1 0.34983361E-01 0.80910053E+02</pdfrwt>
<pdfrwt beam="2">  1       -2 0.11072782E-02 0.80910053E+02</pdfrwt>
<totfact> 0.16591289E+05</totfact>
</mgrwt>
</event>
<event>
 8    1  0.8577104E-018  0.7919358E+02  0.7818608E-02  0.1331356E+00
          1   -1    0    0  501    0  0.00000000000E+00  0.00000000000E+00  0.20330920938E+03  0.20330920944E+03  0.50400000000E-02 0. -1.
         -2   -1    0    0    0  501 -0.00000000000E+00 -0.00000000000E+00 -0.77119258931E+01  0.77119263147E+01  0.25500000000E-02 0.  1.
        -24    2    1    2    0    0 -0.35527136788E-14  0.00000000000E+00  0.19559728349E+03  0.21102113576E+03  0.79193575679E+02 0.  0.
         66    2    3    3    0    0  0.25847561032E+02 -0.17095971175E+02  0.32290937415E+02  0.44800371491E+02  0.20000012221E+01 0.  0.
         13    1    3    3    0    0 -0.25847561032E+02  0.17095971175E+02  0.16330634607E+03  0.16622076426E+03  0.10566000000E+00 0. -1.
         13    1    4    4    0    0  0.31232595275E+01 -0.18339556564E+01  0.36886021357E+01  0.51705989186E+01  0.10566000000E+00 0. -1.
        -13    1    4    4    0    0  0.20101386659E+02 -0.13172442875E+02  0.24330473426E+02  0.34198861064E+02  0.10566000000E+00 0.  1.
         14    1    4    4    0    0  0.26229148454E+01 -0.20895726443E+01  0.42718618535E+01  0.54309115089E+01  0.00000000000E+00 0. -1.
<mgrwt>
<rscale>  0 0.79193576E+02</rscale>
<asrwt>0</asrwt>
<pdfrwt beam="1">  1        1 0.31278340E-01 0.79193576E+02</pdfrwt>
<pdfrwt beam="2">  1       -2 0.11864502E-02 0.79193576E+02</pdfrwt>
<totfact> 0.17182792E+05</totfact>
</mgrwt>
</event>
<event>
 8    1  0.8577104E-018  0.7879344E+02  0.7818608E-02  0.1332511E+00
         -2   -1    0    0    0  501 -0.00000000000E+00  0.00000000000E+00  0.26103886781E+02  0.26103886906E+02  0.25500000000E-02 0.  1.
          1   -1    0    0  501    0  0.00000000000E+00 -0.00000000000E+00 -0.59458639983E+02  0.59458640196E+02  0.50400000000E-02 0. -1.
        -24    2    1    2    0    0  0.00000000000E+00  0.17763568394E-14 -0.33354753201E+02  0.85562527102E+02  0.78793441878E+02 0.  0.
         66    2    3    3    0    0 -0.40242128804E+01  0.10893068078E+02  0.24163511997E+02  0.26883610813E+02  0.19999992135E+01 0.  0.
         13    1    3    3    0    0  0.40242128804E+01 -0.10893068078E+02 -0.57518265198E+02  0.58678916289E+02  0.10566000000E+00 0. -1.
         13    1    4    4    0    0 -0.29545062052E+01  0.83285982811E+01  0.17478078315E+02  0.19585429326E+02  0.10566000000E+00 0.  1.
        -13    1    4    4    0    0 -0.10917370398E+01  0.17202823429E+01  0.41227657352E+01  0.45999589614E+01  0.10566000000E+00 0. -1.
         14    1    4    4    0    0  0.22030364556E-01  0.84418745364E+00  0.25626679464E+01  0.26982225256E+01  0.00000000000E+00 0. -1.
<mgrwt>
<rscale>  0 0.78793442E+02</rscale>
<asrwt>0</asrwt>
<pdfrwt beam="1">  1        1 0.91474831E-02 0.78793442E+02</pdfrwt>
<pdfrwt beam="2">  1       -2 0.40159826E-02 0.78793442E+02</pdfrwt>
<totfact> 0.14097135E+05</totfact>
</mgrwt>
</event>
<event>
 8    1  0.8577104E-018  0.7925106E+02  0.7818608E-02  0.1331190E+00
         -2   -1    0    0    0  501 -0.00000000000E+00  0.00000000000E+00  0.28220879025E+03  0.28220879026E+03  0.25500000000E-02 0.  1.
          1   -1    0    0  501    0  0.00000000000E+00 -0.00000000000E+00 -0.55639035039E+01  0.55639057866E+01  0.50400000000E-02 0. -1.
        -24    2    1    2    0    0  0.00000000000E+00  0.00000000000E+00  0.27664488675E+03  0.28777269605E+03  0.79251064523E+02 0.  0.
         66    2    3    3    0    0 -0.56499906282E+01 -0.29578176420E+02  0.23179425163E+03  0.23375064917E+03  0.19999962249E+01 0.  0.
         13    1    3    3    0    0  0.56499906282E+01  0.29578176420E+02  0.44850635117E+02  0.54022046878E+02  0.10566000000E+00 0. -1.
         13    1    4    4    0    0 -0.20590533379E+00 -0.21830791297E+01  0.15485950056E+02  0.15640781459E+02  0.10566000000E+00 0. -1.
        -13    1    4    4    0    0 -0.28898541604E+01 -0.18360943621E+02  0.14360787762E+03  0.14480576365E+03  0.10566000000E+00 0.  1.
         14    1    4    4    0    0 -0.25542311340E+01 -0.90341536695E+01  0.72700423958E+02  0.73304104065E+02  0.00000000000E+00 0. -1.
<mgrwt>
<rscale>  0 0.79251065E+02</rscale>
<asrwt>0</asrwt>
<pdfrwt beam="1">  1        1 0.85598531E-03 0.79251065E+02</pdfrwt>
<pdfrwt beam="2">  1       -2 0.43416738E-01 0.79251065E+02</pdfrwt>
<totfact> 0.74378530E+04</totfact>
</mgrwt>
</event>
<event>
 8    1  0.8577104E-018  0.8186542E+02  0.7818608E-02  0.1323839E+00
         -2   -1    0    0    0  501 -0.00000000000E+00  0.00000000000E+00  0.86685411000E+01  0.86685414751E+01  0.25500000000E-02 0.  1.
          1   -1    0    0  501    0  0.00000000000E+00 -0.00000000000E+00 -0.19328357319E+03  0.19328357326E+03  0.50400000000E-02 0. -1.
        -24    2    1    2    0    0  0.00000000000E+00  0.00000000000E+00 -0.18461503209E+03  0.20195211473E+03  0.81865417429E+02 0.  0.
         66    2    3    3    0    0 -0.46673171404E+01  0.40640373157E+02 -0.92955916037E+02  0.10157866954E+03  0.19999999519E+01 0.  0.
         13    1    3    3    0    0  0.46673171404E+01 -0.40640373157E+02 -0.91659116056E+02  0.10037344519E+03  0.10566000000E+00 0. -1.
         13    1    4    4    0    0 -0.16659037545E+01  0.17399748868E+02 -0.40193099351E+02  0.43829475191E+02  0.10566000000E+00 0. -1.
        -13    1    4    4    0    0 -0.26044959864E+01  0.15837988538E+02 -0.36876993069E+02  0.40218765049E+02  0.10566000000E+00 0.  1.
         14    1    4    4    0    0 -0.39691739947E+00  0.74026357519E+01 -0.15885823617E+02  0.17530429301E+02  0.00000000000E+00 0. -1.
<mgrwt>
<rscale>  0 0.81865417E+02</rscale>
<asrwt>0</asrwt>
<pdfrwt beam="1">  1        1 0.29735931E-01 0.81865417E+02</pdfrwt>
<pdfrwt beam="2">  1       -2 0.13336219E-02 0.81865417E+02</pdfrwt>
<totfact> 0.15578767E+05</totfact>
</mgrwt>
</event>
<event>
 8    1  0.8577104E-018  0.8550434E+02  0.7818608E-02  0.1314119E+00
          1   -1    0    0  501    0  0.00000000000E+00  0.00000000000E+00  0.22932858912E+01  0.22932914294E+01  0.50400000000E-02 0. -1.
         -2   -1    0    0    0  501 -0.00000000000E+00 -0.00000000000E+00 -0.79699862825E+03  0.79699862826E+03  0.25500000000E-02 0.  1.
        -24    2    1    2    0    0 -0.17763568394E-14 -0.35527136788E-14 -0.79470534236E+03  0.79929191969E+03  0.85504337303E+02 0.  0.
         66    2    3    3    0    0  0.11207669679E+02  0.30041601446E+02 -0.66157856112E+03  0.66235813742E+03  0.19999999865E+01 0.  0.
         13    1    3    3    0    0 -0.11207669679E+02 -0.30041601446E+02 -0.13312678124E+03  0.13693378226E+03  0.10566000000E+00 0. -1.
         13    1    4    4    0    0  0.64424763343E+00  0.27156969858E+01 -0.60722949732E+02  0.60787152042E+02  0.10566000000E+00 0. -1.
        -13    1    4    4    0    0  0.26643081544E+01  0.72232230518E+01 -0.14615818595E+03  0.14636085533E+03  0.10566000000E+00 0.  1.
        -14    1    4    4    0    0  0.78991138916E+01  0.20102681409E+02 -0.45469742544E+03  0.45521013005E+03  0.00000000000E+00 0.  1.
<mgrwt>
<rscale>  0 0.85504337E+02</rscale>
<asrwt>0</asrwt>
<pdfrwt beam="1">  1        1 0.35281428E-03 0.85504337E+02</pdfrwt>
<pdfrwt beam="2">  1       -2 0.12261495E+00 0.85504337E+02</pdfrwt>
<totfact> 0.28077487E+04</totfact>
</mgrwt>
</event>
<event>
 8    1  0.8577104E-018  0.8697670E+02  0.7818608E-02  0.1310343E+00
         -2   -1    0    0    0  501 -0.00000000000E+00  0.00000000000E+00  0.34798686983E+02  0.34798687076E+02  0.25500000000E-02 0.  1.
          1   -1    0    0  501    0  0.00000000000E+00 -0.00000000000E+00 -0.54347931172E+02  0.54347931405E+02  0.50400000000E-02 0. -1.
        -24    2    1    2    0    0  0.00000000000E+00 -0.17763568394E-14 -0.19549244189E+02  0.89146618481E+02  0.86976701698E+02 0.  0.
         66    2    3    3    0    0 -0.40569048771E+02  0.11218577641E+02  0.13316936542E+01  0.42160142430E+02  0.19999998127E+01 0.  0.
         13    1    3    3    0    0  0.40569048771E+02 -0.11218577641E+02 -0.20880937843E+02  0.46986476051E+02  0.10566000000E+00 0. -1.
         13    1    4    4    0    0 -0.71914408371E+01  0.22505117020E+01  0.24982524887E+00  0.75402387843E+01  0.10566000000E+00 0. -1.
        -13    1    4    4    0    0 -0.24776969947E+02  0.72270041680E+01  0.12961482644E+01  0.25842194051E+02  0.10566000000E+00 0.  1.
         14    1    4    4    0    0 -0.86006379874E+01  0.17410617708E+01 -0.21427985909E+00  0.87777095952E+01  0.00000000000E+00 0. -1.
<mgrwt>
<rscale>  0 0.86976702E+02</rscale>
<asrwt>0</asrwt>
<pdfrwt beam="1">  1        1 0.83612201E-02 0.86976702E+02</pdfrwt>
<pdfrwt beam="2">  1       -2 0.53536442E-02 0.86976702E+02</pdfrwt>
<totfact> 0.10557163E+05</totfact>
</mgrwt>
</event>
<event>
 8    1  0.8577104E-018  0.7975143E+02  0.7818608E-02  0.1329758E+00
         -2   -1    0    0    0  501 -0.00000000000E+00  0.00000000000E+00  0.35867335630E+02  0.35867335720E+02  0.25500000000E-02 0.  1.
          1   -1    0    0  501    0  0.00000000000E+00 -0.00000000000E+00 -0.44332050247E+02  0.44332050533E+02  0.50400000000E-02 0. -1.
        -24    2    1    2    0    0 -0.71054273576E-14  0.35527136788E-14 -0.84647146172E+01  0.80199386254E+02  0.79751427335E+02 0.  0.
         66    2    3    3    0    0  0.27201318977E+02 -0.26334701043E+02  0.82702446221E+01  0.38804963225E+02  0.19999979025E+01 0.  0.
         13    1    3    3    0    0 -0.27201318977E+02  0.26334701043E+02 -0.16734959239E+02  0.41394423029E+02  0.10566000000E+00 0. -1.
         13    1    4    4    0    0  0.19978138535E+02 -0.19934858277E+02  0.60325529465E+01  0.28860482548E+02  0.10566000000E+00 0. -1.
        -13    1    4    4    0    0  0.39081129475E+00 -0.21088982325E+00  0.22372444317E+00  0.50835484430E+00  0.10566000000E+00 0.  1.
        -14    1    4    4    0    0  0.68323691477E+01 -0.61889529434E+01  0.20139672324E+01  0.94361258322E+01  0.00000000000E+00 0.  1.
<mgrwt>
<rscale>  0 0.79751427E+02</rscale>
<asrwt>0</asrwt>
<pdfrwt beam="1">  1        1 0.68203155E-02 0.79751427E+02</pdfrwt>
<pdfrwt beam="2">  1       -2 0.55180516E-02 0.79751427E+02</pdfrwt>
<totfact> 0.13022059E+05</totfact>
</mgrwt>
</event>
<event>
 8    1  0.8577104E-018  0.8094429E+02  0.7818608E-02  0.1326393E+00
          1   -1    0    0  501    0  0.00000000000E+00  0.00000000000E+00  0.14915833457E+02  0.14915834309E+02  0.50400000000E-02 0. -1.
         -2   -1    0    0    0  501 -0.00000000000E+00 -0.00000000000E+00 -0.10981582109E+03  0.10981582112E+03  0.25500000000E-02 0.  1.
        -24    2    1    2    0    0 -0.71054273576E-14  0.88817841970E-15 -0.94899987635E+02  0.12473165543E+03  0.80944290801E+02 0.  0.
         66    2    3    3    0    0  0.36082845338E+02 -0.66121056317E+01 -0.73733904911E+02  0.82379490308E+02  0.20000053702E+01 0.  0.
         13    1    3    3    0    0 -0.36082845338E+02  0.66121056317E+01 -0.21166082724E+02  0.42352165122E+02  0.10566000000E+00 0. -1.
         13    1    4    4    0    0  0.11154869008E+02 -0.25915488981E+01 -0.21538015792E+02  0.24393534319E+02  0.10566000000E+00 0. -1.
        -13    1    4    4    0    0  0.61856052286E+01 -0.82020599748E+00 -0.12480446099E+02  0.13953750349E+02  0.10566000000E+00 0.  1.
         14    1    4    4    0    0  0.18742371102E+02 -0.32003507361E+01 -0.39715443020E+02  0.44032205641E+02  0.00000000000E+00 0. -1.
<mgrwt>
<rscale>  0 0.80944291E+02</rscale>
<asrwt>0</asrwt>
<pdfrwt beam="1">  1        1 0.22947438E-02 0.80944291E+02</pdfrwt>
<pdfrwt beam="2">  1       -2 0.16894741E-01 0.80944291E+02</pdfrwt>
<totfact> 0.10054300E+05</totfact>
</mgrwt>
</event>
<event>
 8    1  0.8577104E-018  0.7931764E+02  0.7818608E-02  0.1330999E+00
          1   -1    0    0  501    0  0.00000000000E+00  0.00000000000E+00  0.56883011535E+01  0.56883033863E+01  0.50400000000E-02 0. -1.
         -2   -1    0    0    0  501 -0.00000000000E+00 -0.00000000000E+00 -0.27650114902E+03  0.27650114903E+03  0.25500000000E-02 0.  1.
        -24    2    1    2    0    0  0.00000000000E+00  0.00000000000E+00 -0.27081284787E+03  0.28218945242E+03  0.79317642970E+02 0.  0.
         66    2    3    3    0    0  0.29620467632E+01 -0.39323251549E+02 -0.12138409650E+03  0.12764478337E+03  0.20000010181E+01 0.  0.
         13    1    3    3    0    0 -0.29620467632E+01  0.39323251549E+02 -0.14942875136E+03  0.15454466905E+03  0.10566000000E+00 0. -1.
         13    1    4    4    0    0 -0.11956767319E+00 -0.26684119429E+01 -0.80485420347E+01  0.84808555963E+01  0.10566000000E+00 0. -1.
        -13    1    4    4    0    0  0.76081127872E+00 -0.13770231414E+02 -0.40693844630E+02  0.42967409298E+02  0.10566000000E+00 0.  1.
         14    1    4    4    0    0  0.23208031576E+01 -0.22884608191E+02 -0.72641709840E+02  0.76196518476E+02  0.00000000000E+00 0. -1.
<mgrwt>
<rscale>  0 0.79317643E+02</rscale>
<asrwt>0</asrwt>
<pdfrwt beam="1">  1        1 0.87512364E-03 0.79317643E+02</pdfrwt>
<pdfrwt beam="2">  1       -2 0.42538628E-01 0.79317643E+02</pdfrwt>
<totfact> 0.75005387E+04</totfact>
</mgrwt>
</event>
<event>
 8    1  0.8577104E-018  0.8891040E+02  0.7818608E-02  0.1305512E+00
         -2   -1    0    0    0  501 -0.00000000000E+00  0.00000000000E+00  0.41610625678E+02  0.41610625756E+02  0.25500000000E-02 0.  1.
          1   -1    0    0  501    0  0.00000000000E+00 -0.00000000000E+00 -0.47494232400E+02  0.47494232668E+02  0.50400000000E-02 0. -1.
        -24    2    1    2    0    0 -0.35527136788E-14  0.00000000000E+00 -0.58836067227E+01  0.89104858423E+02  0.88910398529E+02 0.  0.
         66    2    3    3    0    0  0.26172617673E+02 -0.99967048782E+01  0.31618653055E+02  0.42292780102E+02  0.20000008739E+01 0.  0.
         13    1    3    3    0    0 -0.26172617673E+02  0.99967048782E+01 -0.37502259777E+02  0.46812078321E+02  0.10566000000E+00 0. -1.
         13    1    4    4    0    0  0.11648648197E+02 -0.49276863366E+01  0.13501065629E+02  0.18500352283E+02  0.10566000000E+00 0. -1.
        -13    1    4    4    0    0  0.58248769948E+01 -0.21883294992E+01  0.65503818450E+01  0.90352999039E+01  0.10566000000E+00 0.  1.
        -14    1    4    4    0    0  0.86990924813E+01 -0.28806890424E+01  0.11567205581E+02  0.14757127915E+02  0.00000000000E+00 0.  1.
<mgrwt>
<rscale>  0 0.88910399E+02</rscale>
<asrwt>0</asrwt>
<pdfrwt beam="1">  1        1 0.73068050E-02 0.88910399E+02</pdfrwt>
<pdfrwt beam="2">  1       -2 0.64016348E-02 0.88910399E+02</pdfrwt>
<totfact> 0.96937004E+04</totfact>
</mgrwt>
</event>
<event>
 8    1  0.8577104E-018  0.8133477E+02  0.7818608E-02  0.1325306E+00
          1   -1    0    0  501    0  0.00000000000E+00  0.00000000000E+00  0.13034077953E+03  0.13034077962E+03  0.50400000000E-02 0. -1.
         -2   -1    0    0    0  501 -0.00000000000E+00 -0.00000000000E+00 -0.12688554973E+02  0.12688555229E+02  0.25500000000E-02 0.  1.
        -24    2    1    2    0    0  0.00000000000E+00  0.00000000000E+00  0.11765222455E+03  0.14302933485E+03  0.81334769232E+02 0.  0.
         66    2    3    3    0    0 -0.16467552097E+02  0.15576134708E+02 -0.46190574399E+00  0.22759824234E+02  0.19999994301E+01 0.  0.
         13    1    3    3    0    0  0.16467552097E+02 -0.15576134708E+02  0.11811413030E+03  0.12026951062E+03  0.10566000000E+00 0. -1.
         13    1    4    4    0    0 -0.41224301941E+01  0.40144184551E+01  0.65222514842E+00  0.57919381832E+01  0.10566000000E+00 0.  1.
        -13    1    4    4    0    0 -0.41357097239E+01  0.34460491103E+01 -0.20032052648E+00  0.53880090701E+01  0.10566000000E+00 0.  1.
        -14    1    4    4    0    0 -0.82094121788E+01  0.81156671430E+01 -0.91381036594E+00  0.11579876980E+02  0.00000000000E+00 0.  1.
<mgrwt>
<rscale>  0 0.81334769E+02</rscale>
<asrwt>0</asrwt>
<pdfrwt beam="1">  1        1 0.20052427E-01 0.81334769E+02</pdfrwt>
<pdfrwt beam="2">  1       -2 0.19520854E-02 0.81334769E+02</pdfrwt>
<totfact> 0.14721664E+05</totfact>
</mgrwt>
</event>
<event>
 8    1  0.8577104E-018  0.7788576E+02  0.7818608E-02  0.1335161E+00
         -2   -1    0    0    0  501 -0.00000000000E+00  0.00000000000E+00  0.17682619775E+02  0.17682619959E+02  0.25500000000E-02 0.  1.
          1   -1    0    0  501    0  0.00000000000E+00 -0.00000000000E+00 -0.85764884186E+02  0.85764884334E+02  0.50400000000E-02 0. -1.
        -24    2    1    2    0    0  0.35527136788E-14  0.00000000000E+00 -0.68082264411E+02  0.10344750429E+03  0.77885758757E+02 0.  0.
         66    2    3    3    0    0 -0.25986555607E+02  0.11549240353E+02  0.12239355407E+01  0.28533910461E+02  0.20000007290E+01 0.  0.
         13    1    3    3    0    0  0.25986555607E+02 -0.11549240353E+02 -0.69306199952E+02  0.74913593832E+02  0.10566000000E+00 0. -1.
         13    1    4    4    0    0 -0.10952346048E+02  0.55135080945E+01  0.17821402945E+00  0.12263587556E+02  0.10566000000E+00 0. -1.
        -13    1    4    4    0    0 -0.13017142726E+02  0.51588968310E+01  0.53697474345E+00  0.14012841510E+02  0.10566000000E+00 0.  1.
         14    1    4    4    0    0 -0.20170668330E+01  0.87683542744E+00  0.50874676780E+00  0.22574813951E+01  0.00000000000E+00 0. -1.
<mgrwt>
<rscale>  0 0.77885759E+02</rscale>
<asrwt>0</asrwt>
<pdfrwt beam="1">  1        1 0.13194597E-01 0.77885759E+02</pdfrwt>
<pdfrwt beam="2">  1       -2 0.27204031E-02 0.77885759E+02</pdfrwt>
<totfact> 0.15409556E+05</totfact>
</mgrwt>
</event>
<event>
 8    1  0.8577104E-018  0.7891517E+02  0.7818608E-02  0.1332159E+00
          1   -1    0    0  501    0  0.00000000000E+00  0.00000000000E+00  0.13589148417E+03  0.13589148426E+03  0.50400000000E-02 0. -1.
         -2   -1    0    0    0  501 -0.00000000000E+00 -0.00000000000E+00 -0.11456943515E+02  0.11456943799E+02  0.25500000000E-02 0.  1.
        -24    2    1    2    0    0 -0.35527136788E-14  0.17763568394E-14  0.12443454065E+03  0.14734842806E+03  0.78915171826E+02 0.  0.
         66    2    3    3    0    0  0.27271504666E+02  0.11301821992E+02  0.13444512355E+02  0.32499554785E+02  0.20000004137E+01 0.  0.
         13    1    3    3    0    0 -0.27271504666E+02 -0.11301821992E+02  0.11099002830E+03  0.11484887328E+03  0.10566000000E+00 0. -1.
         13    1    4    4    0    0  0.36337303567E+00  0.27065661856E+00  0.13885439797E+00  0.48553017173E+00  0.10566000000E+00 0.  1.
        -13    1    4    4    0    0  0.37989407635E+01  0.10732327681E+01  0.15921745414E+01  0.42579294622E+01  0.10566000000E+00 0.  1.
        -14    1    4    4    0    0  0.23109190867E+02  0.99579326055E+01  0.11713483416E+02  0.27756095151E+02  0.00000000000E+00 0.  1.
<mgrwt>
<rscale>  0 0.78915172E+02</rscale>
<asrwt>0</asrwt>
<pdfrwt beam="1">  1        1 0.20906384E-01 0.78915172E+02</pdfrwt>
<pdfrwt beam="2">  1       -2 0.17626066E-02 0.78915172E+02</pdfrwt>
<totfact> 0.16083271E+05</totfact>
</mgrwt>
</event>
<event>
 8    1  0.8577104E-018  0.7602941E+02  0.7818608E-02  0.1340713E+00
         -2   -1    0    0    0  501 -0.00000000000E+00  0.00000000000E+00  0.93122745766E+02  0.93122745801E+02  0.25500000000E-02 0.  1.
          1   -1    0    0  501    0  0.00000000000E+00 -0.00000000000E+00 -0.15518419252E+02  0.15518420071E+02  0.50400000000E-02 0. -1.
        -24    2    1    2    0    0 -0.35527136788E-14  0.00000000000E+00  0.77604326513E+02  0.10864116587E+03  0.76029411600E+02 0.  0.
         66    2    3    3    0    0 -0.28305643944E+02  0.82663667618E+01  0.73051007144E+02  0.78803502091E+02  0.19999996491E+01 0.  0.
         13    1    3    3    0    0  0.28305643944E+02 -0.82663667618E+01  0.45533193693E+01  0.29837663780E+02  0.10566000000E+00 0. -1.
         13    1    4    4    0    0 -0.86277938196E+01  0.26343355904E+01  0.21429648594E+02  0.23251226916E+02  0.10566000000E+00 0. -1.
        -13    1    4    4    0    0 -0.18210973998E+02  0.55507256378E+01  0.47286608785E+02  0.50975333873E+02  0.10566000000E+00 0.  1.
        -14    1    4    4    0    0 -0.14668761262E+01  0.81305533644E-01  0.43347497649E+01  0.45769413021E+01  0.00000000000E+00 0.  1.
<mgrwt>
<rscale>  0 0.76029412E+02</rscale>
<asrwt>0</asrwt>
<pdfrwt beam="1">  1        1 0.23874492E-02 0.76029412E+02</pdfrwt>
<pdfrwt beam="2">  1       -2 0.14326576E-01 0.76029412E+02</pdfrwt>
<totfact> 0.12297023E+05</totfact>
</mgrwt>
</event>
<event>
 8    1  0.8577104E-018  0.7986404E+02  0.7818608E-02  0.1329438E+00
         -2   -1    0    0    0  501 -0.00000000000E+00  0.00000000000E+00  0.35574263118E+02  0.35574263209E+02  0.25500000000E-02 0.  1.
          1   -1    0    0  501    0  0.00000000000E+00 -0.00000000000E+00 -0.44823591189E+02  0.44823591473E+02  0.50400000000E-02 0. -1.
        -24    2    1    2    0    0  0.00000000000E+00  0.00000000000E+00 -0.92493280718E+01  0.80397854682E+02  0.79864040517E+02 0.  0.
         66    2    3    3    0    0  0.23102227273E+02  0.20659869187E+02  0.20680452114E+02  0.37312520683E+02  0.20000000830E+01 0.  0.
         13    1    3    3    0    0 -0.23102227273E+02 -0.20659869187E+02 -0.29929780186E+02  0.43085333999E+02  0.10566000000E+00 0. -1.
         13    1    4    4    0    0  0.15216019325E+01  0.19549764611E+01  0.17470959891E+01  0.30332678476E+01  0.10566000000E+00 0. -1.
        -13    1    4    4    0    0  0.14191070880E+02  0.11973606659E+02  0.11821660085E+02  0.22011736877E+02  0.10566000000E+00 0.  1.
         14    1    4    4    0    0  0.73895544597E+01  0.67312860670E+01  0.71116960400E+01  0.12267515959E+02  0.00000000000E+00 0. -1.
<mgrwt>
<rscale>  0 0.79864041E+02</rscale>
<asrwt>0</asrwt>
<pdfrwt beam="1">  1        1 0.68959372E-02 0.79864041E+02</pdfrwt>
<pdfrwt beam="2">  1       -2 0.54729636E-02 0.79864041E+02</pdfrwt>
<totfact> 0.12993480E+05</totfact>
</mgrwt>
</event>
<event>
 8    1  0.8577104E-018  0.8085760E+02  0.7818608E-02  0.1326635E+00
         -2   -1    0    0    0  501 -0.00000000000E+00  0.00000000000E+00  0.23959561586E+02  0.23959561722E+02  0.25500000000E-02 0.  1.
          1   -1    0    0  501    0  0.00000000000E+00 -0.00000000000E+00 -0.68218602753E+02  0.68218602940E+02  0.50400000000E-02 0. -1.
        -24    2    1    2    0    0  0.00000000000E+00  0.71054273576E-14 -0.44259041168E+02  0.92178164661E+02  0.80857598995E+02 0.  0.
         66    2    3    3    0    0 -0.99078025276E+01 -0.34743651876E+02 -0.15219210835E+01  0.36216048067E+02  0.19999992960E+01 0.  0.
         13    1    3    3    0    0  0.99078025276E+01  0.34743651876E+02 -0.42737120084E+02  0.55962116594E+02  0.10566000000E+00 0. -1.
         13    1    4    4    0    0 -0.47357181655E+00 -0.13209344681E+01  0.17361746755E+00  0.14179016874E+01  0.10566000000E+00 0.  1.
        -13    1    4    4    0    0 -0.59219170170E+01 -0.23342273858E+02 -0.11607095168E+01  0.24109941116E+02  0.10566000000E+00 0.  1.
        -14    1    4    4    0    0 -0.35123136941E+01 -0.10080443550E+02 -0.53482903422E+00  0.10688205263E+02  0.00000000000E+00 0.  1.
<mgrwt>
<rscale>  0 0.80857599E+02</rscale>
<asrwt>0</asrwt>
<pdfrwt beam="1">  1        1 0.10495170E-01 0.80857599E+02</pdfrwt>
<pdfrwt beam="2">  1       -2 0.36860865E-02 0.80857599E+02</pdfrwt>
<totfact> 0.13416015E+05</totfact>
</mgrwt>
</event>
<event>
 8    1  0.8577104E-018  0.8024270E+02  0.7818608E-02  0.1328364E+00
         -2   -1    0    0    0  501 -0.00000000000E+00  0.00000000000E+00  0.41602599834E+03  0.41602599835E+03  0.25500000000E-02 0.  1.
          1   -1    0    0  501    0  0.00000000000E+00 -0.00000000000E+00 -0.38692824685E+01  0.38692857510E+01  0.50400000000E-02 0. -1.
        -24    2    1    2    0    0  0.17763568394E-14  0.00000000000E+00  0.41215671587E+03  0.41989528410E+03  0.80242701665E+02 0.  0.
         66    2    3    3    0    0  0.11049600096E+02  0.35054946093E+02  0.29005769935E+03  0.29238401438E+03  0.19999999992E+01 0.  0.
         13    1    3    3    0    0 -0.11049600096E+02 -0.35054946093E+02  0.12209901652E+03  0.12751126972E+03  0.10566000000E+00 0. -1.
         13    1    4    4    0    0  0.25215150454E+00  0.59260337899E+00  0.36942870124E+01  0.37514903321E+01  0.10566000000E+00 0. -1.
        -13    1    4    4    0    0  0.62617097699E+01  0.19793101720E+02  0.16728263538E+03  0.16856591337E+03  0.10566000000E+00 0.  1.
        -14    1    4    4    0    0  0.45357388217E+01  0.14669240994E+02  0.11908077696E+03  0.12006661068E+03  0.00000000000E+00 0.  1.
<mgrwt>
<rscale>  0 0.80242702E+02</rscale>
<asrwt>0</asrwt>
<pdfrwt beam="1">  1        1 0.59527447E-03 0.80242702E+02</pdfrwt>
<pdfrwt beam="2">  1       -2 0.64004001E-01 0.80242702E+02</pdfrwt>
<totfact> 0.57106049E+04</totfact>
</mgrwt>
</event>
<event>
 8    1  0.8577104E-018  0.7919154E+02  0.7818608E-02  0.1331362E+00
         -2   -1    0    0    0  501 -0.00000000000E+00  0.00000000000E+00  0.64096390873E+02  0.64096390923E+02  0.25500000000E-02 0.  1.
          1   -1    0    0  501    0  0.00000000000E+00 -0.00000000000E+00 -0.24460424053E+02  0.24460424572E+02  0.50400000000E-02 0. -1.
        -24    2    1    2    0    0  0.00000000000E+00  0.00000000000E+00  0.39635966820E+02  0.88556815496E+02  0.79191538090E+02 0.  0.
         66    2    3    3    0    0  0.92323113782E+01  0.34314538950E+02  0.39299151827E+02  0.53020246091E+02  0.20000011200E+01 0.  0.
         13    1    3    3    0    0 -0.92323113782E+01 -0.34314538950E+02  0.33681499244E+00  0.35536569405E+02  0.10566000000E+00 0. -1.
         13    1    4    4    0    0  0.39597321353E+01  0.15972500843E+02  0.17367042319E+02  0.23925417127E+02  0.10566000000E+00 0. -1.
        -13    1    4    4    0    0  0.21371099307E+01  0.94466665511E+01  0.11152224789E+02  0.14771256872E+02  0.10566000000E+00 0.  1.
        -14    1    4    4    0    0  0.31354693122E+01  0.88953715552E+01  0.10779884720E+02  0.14323572092E+02  0.00000000000E+00 0.  1.
<mgrwt>
<rscale>  0 0.79191538E+02</rscale>
<asrwt>0</asrwt>
<pdfrwt beam="1">  1        1 0.37631423E-02 0.79191538E+02</pdfrwt>
<pdfrwt beam="2">  1       -2 0.98609830E-02 0.79191538E+02</pdfrwt>
<totfact> 0.11996619E+05</totfact>
</mgrwt>
</event>
<event>
 8    1  0.8577104E-018  0.8093774E+02  0.7818608E-02  0.1326411E+00
         -2   -1    0    0    0  501 -0.00000000000E+00  0.00000000000E+00  0.88141035200E+01  0.88141038888E+01  0.25500000000E-02 0.  1.
          1   -1    0    0  501    0  0.00000000000E+00 -0.00000000000E+00 -0.18580780455E+03  0.18580780462E+03  0.50400000000E-02 0. -1.
        -24    2    1    2    0    0  0.00000000000E+00 -0.35527136788E-14 -0.17699370103E+03  0.19462190851E+03  0.80937735741E+02 0.  0.
         66    2    3    3    0    0 -0.34480551103E+02 -0.21129981004E+02 -0.89952397672E+02  0.98644910452E+02  0.20000023759E+01 0.  0.
         13    1    3    3    0    0  0.34480551103E+02  0.21129981004E+02 -0.87041303362E+02  0.95976998060E+02  0.10566000000E+00 0. -1.
         13    1    4    4    0    0 -0.17499486251E+02 -0.11468272599E+02 -0.47873579826E+02  0.52245996065E+02  0.10566000000E+00 0. -1.
        -13    1    4    4    0    0 -0.73732337033E+01 -0.43547567454E+01 -0.17678618870E+02  0.19643655737E+02  0.10566000000E+00 0.  1.
         14    1    4    4    0    0 -0.96078311486E+01 -0.53069516593E+01 -0.24400198977E+02  0.26755258649E+02  0.00000000000E+00 0. -1.
<mgrwt>
<rscale>  0 0.80937736E+02</rscale>
<asrwt>0</asrwt>
<pdfrwt beam="1">  1        1 0.28585813E-01 0.80937736E+02</pdfrwt>
<pdfrwt beam="2">  1       -2 0.13560161E-02 0.80937736E+02</pdfrwt>
<totfact> 0.15936467E+05</totfact>
</mgrwt>
</event>
<event>
 8    1  0.8577104E-018  0.7918471E+02  0.7818608E-02  0.1331381E+00
         -2   -1    0    0    0  501 -0.00000000000E+00  0.00000000000E+00  0.81952027073E+03  0.81952027073E+03  0.25500000000E-02 0.  1.
          1   -1    0    0  501    0  0.00000000000E+00 -0.00000000000E+00 -0.19127675150E+01  0.19127741550E+01  0.50400000000E-02 0. -1.
        -24    2    1    2    0    0  0.00000000000E+00  0.00000000000E+00  0.81760750321E+03  0.82143304489E+03  0.79184707628E+02 0.  0.
         66    2    3    3    0    0  0.32986075252E+02 -0.52771068689E+01  0.62902898186E+03  0.62991855745E+03  0.19999965755E+01 0.  0.
         13    1    3    3    0    0 -0.32986075252E+02  0.52771068689E+01  0.18857852135E+03  0.19151448744E+03  0.10566000000E+00 0. -1.
         13    1    4    4    0    0  0.43188374916E+01 -0.12983896766E+01  0.86145882812E+02  0.86263911705E+02  0.10566000000E+00 0. -1.
        -13    1    4    4    0    0  0.10899476920E+02 -0.11683548522E+01  0.20205088157E+03  0.20234805054E+03  0.10566000000E+00 0.  1.
        -14    1    4    4    0    0  0.17767760840E+02 -0.28103623401E+01  0.34083221748E+03  0.34130659521E+03  0.00000000000E+00 0.  1.
<mgrwt>
<rscale>  0 0.79184708E+02</rscale>
<asrwt>0</asrwt>
<pdfrwt beam="1">  1        1 0.29427241E-03 0.79184708E+02</pdfrwt>
<pdfrwt beam="2">  1       -2 0.12608005E+00 0.79184708E+02</pdfrwt>
<totfact> 0.33284941E+04</totfact>
</mgrwt>
</event>
<event>
 8    1  0.8577104E-018  0.8028230E+02  0.7818608E-02  0.1328252E+00
         -2   -1    0    0    0  501 -0.00000000000E+00  0.00000000000E+00  0.91150881524E+02  0.91150881560E+02  0.25500000000E-02 0.  1.
          1   -1    0    0  501    0  0.00000000000E+00 -0.00000000000E+00 -0.17677412427E+02  0.17677413145E+02  0.50400000000E-02 0. -1.
        -24    2    1    2    0    0 -0.11102230246E-15  0.00000000000E+00  0.73473469097E+02  0.10882829471E+03  0.80282296101E+02 0.  0.
         66    2    3    3    0    0 -0.75592931028E+00  0.10944050737E+02  0.89066975794E+02  0.89762296415E+02  0.20000012584E+01 0.  0.
         13    1    3    3    0    0  0.75592931028E+00 -0.10944050737E+02 -0.15593506697E+02  0.19065998290E+02  0.10566000000E+00 0. -1.
         13    1    4    4    0    0 -0.78621197778E+00  0.21434101512E+01  0.19344217979E+02  0.19478764581E+02  0.10566000000E+00 0. -1.
        -13    1    4    4    0    0 -0.44646554401E+00  0.61824514936E+01  0.48796632826E+02  0.49188866394E+02  0.10566000000E+00 0.  1.
         14    1    4    4    0    0  0.47674821151E+00  0.26181890917E+01  0.20926124989E+02  0.21094665440E+02  0.00000000000E+00 0. -1.
<mgrwt>
<rscale>  0 0.80282296E+02</rscale>
<asrwt>0</asrwt>
<pdfrwt beam="1">  1        1 0.27196019E-02 0.80282296E+02</pdfrwt>
<pdfrwt beam="2">  1       -2 0.14023213E-01 0.80282296E+02</pdfrwt>
<totfact> 0.10755373E+05</totfact>
</mgrwt>
</event>
<event>
 8    1  0.8577104E-018  0.8102050E+02  0.7818608E-02  0.1326180E+00
          1   -1    0    0  501    0  0.00000000000E+00  0.00000000000E+00  0.15975789784E+01  0.15975869284E+01  0.50400000000E-02 0. -1.
         -2   -1    0    0    0  501 -0.00000000000E+00 -0.00000000000E+00 -0.10272269105E+04  0.10272269105E+04  0.25500000000E-02 0.  1.
        -24    2    1    2    0    0  0.17763568394E-14  0.35527136788E-14 -0.10256293315E+04  0.10288244974E+04  0.81020496406E+02 0.  0.
         66    2    3    3    0    0  0.13834709338E+02 -0.26454616502E+02 -0.86038058600E+03  0.86090069037E+03  0.20000002195E+01 0.  0.
         13    1    3    3    0    0 -0.13834709338E+02  0.26454616502E+02 -0.16524874550E+03  0.16792380704E+03  0.10566000000E+00 0. -1.
         13    1    4    4    0    0  0.55154278483E+00 -0.72883848614E+00 -0.31430088150E+02  0.31443552759E+02  0.10566000000E+00 0. -1.
        -13    1    4    4    0    0  0.68691455921E+00 -0.21039398311E+01 -0.62433318731E+02  0.62472624935E+02  0.10566000000E+00 0.  1.
         14    1    4    4    0    0  0.12596251994E+02 -0.23621838185E+02 -0.76651717911E+03  0.76698451267E+03  0.00000000000E+00 0. -1.
<mgrwt>
<rscale>  0 0.81020496E+02</rscale>
<asrwt>0</asrwt>
<pdfrwt beam="1">  1        1 0.24578282E-03 0.81020496E+02</pdfrwt>
<pdfrwt beam="2">  1       -2 0.15803438E+00 0.81020496E+02</pdfrwt>
<totfact> 0.24452080E+04</totfact>
</mgrwt>
</event>
<event>
 8    1  0.8577104E-018  0.7605232E+02  0.7818608E-02  0.1340643E+00
         -2   -1    0    0    0  501 -0.00000000000E+00  0.00000000000E+00  0.20201338826E+03  0.20201338828E+03  0.25500000000E-02 0.  1.
          1   -1    0    0  501    0  0.00000000000E+00 -0.00000000000E+00 -0.71578861408E+01  0.71578879152E+01  0.50400000000E-02 0. -1.
        -24    2    1    2    0    0  0.35527136788E-14  0.00000000000E+00  0.19485550212E+03  0.20917127619E+03  0.76052324602E+02 0.  0.
         66    2    3    3    0    0  0.20834163185E+02 -0.15825284415E+02  0.17329129864E+03  0.17526658598E+03  0.19999988121E+01 0.  0.
         13    1    3    3    0    0 -0.20834163185E+02  0.15825284415E+02  0.21564203479E+02  0.33904690209E+02  0.10566000000E+00 0. -1.
         13    1    4    4    0    0  0.59730709092E+01 -0.39688366203E+01  0.49645189665E+02  0.50160594705E+02  0.10566000000E+00 0. -1.
        -13    1    4    4    0    0  0.51646290665E+01 -0.35822490872E+01  0.37980348319E+02  0.38497063841E+02  0.10566000000E+00 0.  1.
        -14    1    4    4    0    0  0.96964632092E+01 -0.82741987073E+01  0.85665760655E+02  0.86608927436E+02  0.00000000000E+00 0.  1.
<mgrwt>
<rscale>  0 0.76052325E+02</rscale>
<asrwt>0</asrwt>
<pdfrwt beam="1">  1        1 0.11012134E-02 0.76052325E+02</pdfrwt>
<pdfrwt beam="2">  1       -2 0.31078982E-01 0.76052325E+02</pdfrwt>
<totfact> 0.96525204E+04</totfact>
</mgrwt>
</event>
<event>
 8    1  0.8577104E-018  0.7908830E+02  0.7818608E-02  0.1331659E+00
         -2   -1    0    0    0  501 -0.00000000000E+00  0.00000000000E+00  0.37840241691E+01  0.37840250283E+01  0.25500000000E-02 0.  1.
          1   -1    0    0  501    0  0.00000000000E+00 -0.00000000000E+00 -0.41324777982E+03  0.41324777986E+03  0.50400000000E-02 0. -1.
        -24    2    1    2    0    0  0.00000000000E+00 -0.71054273576E-14 -0.40946375566E+03  0.41703180488E+03  0.79088299318E+02 0.  0.
         66    2    3    3    0    0 -0.16156168963E+02  0.36016894950E+02 -0.19500282131E+03  0.19896818563E+03  0.20000142113E+01 0.  0.
         13    1    3    3    0    0  0.16156168963E+02 -0.36016894950E+02 -0.21446093435E+03  0.21806361926E+03  0.10566000000E+00 0. -1.
         13    1    4    4    0    0 -0.35029177705E+01  0.95038096692E+01 -0.48573194220E+02  0.49618133701E+02  0.10566000000E+00 0. -1.
        -13    1    4    4    0    0 -0.27252543723E+01  0.55214900074E+01 -0.29044832856E+02  0.29690526149E+02  0.10566000000E+00 0.  1.
         14    1    4    4    0    0 -0.99279968204E+01  0.20991595273E+02 -0.11738479423E+03  0.11965952578E+03  0.00000000000E+00 0. -1.
<mgrwt>
<rscale>  0 0.79088299E+02</rscale>
<asrwt>0</asrwt>
<pdfrwt beam="1">  1        1 0.63576546E-01 0.79088299E+02</pdfrwt>
<pdfrwt beam="2">  1       -2 0.58215796E-03 0.79088299E+02</pdfrwt>
<totfact> 0.19676289E+05</totfact>
</mgrwt>
</event>
<event>
 8    1  0.8577104E-018  0.7738626E+02  0.7818608E-02  0.1336637E+00
          1   -1    0    0  501    0  0.00000000000E+00  0.00000000000E+00  0.50300049300E+01  0.50300074550E+01  0.50400000000E-02 0. -1.
         -2   -1    0    0    0  501 -0.00000000000E+00 -0.00000000000E+00 -0.29764544510E+03  0.29764544511E+03  0.25500000000E-02 0.  1.
        -24    2    1    2    0    0  0.44408920985E-15 -0.71054273576E-14 -0.29261544017E+03  0.30267545257E+03  0.77386263382E+02 0.  0.
         66    2    3    3    0    0  0.11956342150E+01 -0.36226342762E+02 -0.19908002210E+03  0.20236262662E+03  0.20000008691E+01 0.  0.
         13    1    3    3    0    0 -0.11956342150E+01  0.36226342762E+02 -0.93535418074E+02  0.10031282595E+03  0.10566000000E+00 0. -1.
         13    1    4    4    0    0  0.90715780477E+00 -0.25413506290E+02 -0.14247691397E+03  0.14472854388E+03  0.10566000000E+00 0. -1.
        -13    1    4    4    0    0 -0.21362162165E+00 -0.60760298683E+01 -0.30608932979E+02  0.31207077968E+02  0.10566000000E+00 0.  1.
        -14    1    4    4    0    0  0.50209803191E+00 -0.47368066040E+01 -0.25994175153E+02  0.26427004770E+02  0.00000000000E+00 0.  1.
<mgrwt>
<rscale>  0 0.77386263E+02</rscale>
<asrwt>0</asrwt>
<pdfrwt beam="1">  1        1 0.77384734E-03 0.77386263E+02</pdfrwt>
<pdfrwt beam="2">  1       -2 0.45791593E-01 0.77386263E+02</pdfrwt>
<totfact> 0.76886681E+04</totfact>
</mgrwt>
</event>
<event>
 8    1  0.8577104E-018  0.7867067E+02  0.7818608E-02  0.1332867E+00
         -2   -1    0    0    0  501 -0.00000000000E+00  0.00000000000E+00  0.15781970044E+02  0.15781970250E+02  0.25500000000E-02 0.  1.
          1   -1    0    0  501    0  0.00000000000E+00 -0.00000000000E+00 -0.98040266563E+02  0.98040266693E+02  0.50400000000E-02 0. -1.
        -24    2    1    2    0    0  0.00000000000E+00  0.71054273576E-14 -0.82258296520E+02  0.11382223694E+03  0.78670669733E+02 0.  0.
         66    2    3    3    0    0 -0.43028047238E+01  0.29393867667E+02 -0.39088399978E+01  0.30029862073E+02  0.20000002776E+01 0.  0.
         13    1    3    3    0    0  0.43028047238E+01 -0.29393867667E+02 -0.78349456522E+02  0.83792374869E+02  0.10566000000E+00 0. -1.
         13    1    4    4    0    0 -0.33273648280E+01  0.20234673402E+02 -0.21791984271E+01  0.20622158815E+02  0.10566000000E+00 0. -1.
        -13    1    4    4    0    0 -0.11296774466E+00  0.47321989713E+01 -0.99255648272E+00  0.48376441810E+01  0.10566000000E+00 0.  1.
        -14    1    4    4    0    0 -0.86247215115E+00  0.44269952937E+01 -0.73708508795E+00  0.45700590772E+01  0.00000000000E+00 0.  1.
<mgrwt>
<rscale>  0 0.78670670E+02</rscale>
<asrwt>0</asrwt>
<pdfrwt beam="1">  1        1 0.15083118E-01 0.78670670E+02</pdfrwt>
<pdfrwt beam="2">  1       -2 0.24279955E-02 0.78670670E+02</pdfrwt>
<totfact> 0.15328746E+05</totfact>
</mgrwt>
</event>
<event>
 8    1  0.8577104E-018  0.7658164E+02  0.7818608E-02  0.1339042E+00
          1   -1    0    0  501    0  0.00000000000E+00  0.00000000000E+00  0.13960715810E+03  0.13960715819E+03  0.50400000000E-02 0. -1.
         -2   -1    0    0    0  501 -0.00000000000E+00 -0.00000000000E+00 -0.10502233342E+02  0.10502233651E+02  0.25500000000E-02 0.  1.
        -24    2    1    2    0    0 -0.35527136788E-14  0.00000000000E+00  0.12910492476E+03  0.15010939184E+03  0.76581642202E+02 0.  0.
         66    2    3    3    0    0  0.19736305634E+02 -0.32510500059E+02  0.56343413058E+02  0.68007606703E+02  0.20000000695E+01 0.  0.
         13    1    3    3    0    0 -0.19736305634E+02  0.32510500059E+02  0.72761511702E+02  0.82101785141E+02  0.10566000000E+00 0. -1.
         13    1    4    4    0    0  0.55625844841E+01 -0.87616387360E+01  0.16550180731E+02  0.19535309205E+02  0.10566000000E+00 0. -1.
        -13    1    4    4    0    0  0.11557935592E+02 -0.20090985026E+02  0.33558476205E+02  0.40784997777E+02  0.10566000000E+00 0.  1.
        -14    1    4    4    0    0  0.26157855573E+01 -0.36578762960E+01  0.62347561221E+01  0.76872997197E+01  0.00000000000E+00 0.  1.
<mgrwt>
<rscale>  0 0.76581642E+02</rscale>
<asrwt>0</asrwt>
<pdfrwt beam="1">  1        1 0.21478026E-01 0.76581642E+02</pdfrwt>
<pdfrwt beam="2">  1       -2 0.16157281E-02 0.76581642E+02</pdfrwt>
<totfact> 0.17509014E+05</totfact>
</mgrwt>
</event>
<event>
 8    1  0.8577104E-018  0.7958390E+02  0.7818608E-02  0.1330236E+00
         -2   -1    0    0    0  501 -0.00000000000E+00  0.00000000000E+00  0.15242784663E+02  0.15242784876E+02  0.25500000000E-02 0.  1.
          1   -1    0    0  501    0  0.00000000000E+00 -0.00000000000E+00 -0.10387861479E+03  0.10387861491E+03  0.50400000000E-02 0. -1.
        -24    2    1    2    0    0  0.00000000000E+00  0.00000000000E+00 -0.88635830130E+02  0.11912139979E+03  0.79583902300E+02 0.  0.
         66    2    3    3    0    0  0.33610359997E+02 -0.15384475260E+02 -0.22395529685E+02  0.43265437960E+02  0.19999984618E+01 0.  0.
         13    1    3    3    0    0 -0.33610359997E+02  0.15384475260E+02 -0.66240300445E+02  0.75855961831E+02  0.10566000000E+00 0. -1.
         13    1    4    4    0    0  0.77576846342E+01 -0.38098604038E+01 -0.56139682796E+01  0.10306527595E+02  0.10566000000E+00 0. -1.
        -13    1    4    4    0    0  0.13695105680E+02 -0.54089916700E+01 -0.91534774512E+01  0.17338120543E+02  0.10566000000E+00 0.  1.
         14    1    4    4    0    0  0.12157569683E+02 -0.61656231861E+01 -0.76280839539E+01  0.15620789822E+02  0.00000000000E+00 0. -1.
<mgrwt>
<rscale>  0 0.79583902E+02</rscale>
<asrwt>0</asrwt>
<pdfrwt beam="1">  1        1 0.15981325E-01 0.79583902E+02</pdfrwt>
<pdfrwt beam="2">  1       -2 0.23450439E-02 0.79583902E+02</pdfrwt>
<totfact> 0.15003542E+05</totfact>
</mgrwt>
</event>
<event>
 8    1  0.8577104E-018  0.8311732E+02  0.7818608E-02  0.1320431E+00
         -2   -1    0    0    0  501 -0.00000000000E+00  0.00000000000E+00  0.32767010316E+02  0.32767010415E+02  0.25500000000E-02 0.  1.
          1   -1    0    0  501    0  0.00000000000E+00 -0.00000000000E+00 -0.52709182148E+02  0.52709182389E+02  0.50400000000E-02 0. -1.
        -24    2    1    2    0    0  0.00000000000E+00  0.00000000000E+00 -0.19942171832E+02  0.85476192804E+02  0.83117322616E+02 0.  0.
         66    2    3    3    0    0 -0.17960574149E+02 -0.22971261199E+02  0.20440549188E+02  0.35666189934E+02  0.19999971235E+01 0.  0.
         13    1    3    3    0    0  0.17960574149E+02  0.22971261199E+02 -0.40382721020E+02  0.49810002869E+02  0.10566000000E+00 0. -1.
         13    1    4    4    0    0 -0.15686012637E+02 -0.20118774903E+02  0.17218179346E+02  0.30778124700E+02  0.10566000000E+00 0. -1.
        -13    1    4    4    0    0 -0.16175188807E+01 -0.21011783791E+01  0.20850018666E+01  0.33748651424E+01  0.10566000000E+00 0.  1.
         14    1    4    4    0    0 -0.65704263202E+00 -0.75130791632E+00  0.11373679758E+01  0.15132000918E+01  0.00000000000E+00 0. -1.
<mgrwt>
<rscale>  0 0.83117323E+02</rscale>
<asrwt>0</asrwt>
<pdfrwt beam="1">  1        1 0.81091050E-02 0.83117323E+02</pdfrwt>
<pdfrwt beam="2">  1       -2 0.50410785E-02 0.83117323E+02</pdfrwt>
<totfact> 0.11927653E+05</totfact>
</mgrwt>
</event>
<event>
 8    1  0.8577104E-018  0.7778201E+02  0.7818608E-02  0.1335466E+00
         -2   -1    0    0    0  501 -0.00000000000E+00  0.00000000000E+00  0.68546992312E+02  0.68546992360E+02  0.25500000000E-02 0.  1.
          1   -1    0    0  501    0  0.00000000000E+00 -0.00000000000E+00 -0.22065301438E+02  0.22065302014E+02  0.50400000000E-02 0. -1.
        -24    2    1    2    0    0  0.35527136788E-14  0.17763568394E-14  0.46481690874E+02  0.90612294374E+02  0.77782005021E+02 0.  0.
         66    2    3    3    0    0 -0.17935554626E+02 -0.15646838751E+02  0.59048781589E+02  0.63696674082E+02  0.19999998108E+01 0.  0.
         13    1    3    3    0    0  0.17935554626E+02  0.15646838751E+02 -0.12567090715E+02  0.26915620292E+02  0.10566000000E+00 0. -1.
         13    1    4    4    0    0 -0.72888570478E+00 -0.46834485391E+00  0.29847904866E+01  0.31097844873E+01  0.10566000000E+00 0. -1.
        -13    1    4    4    0    0 -0.13087489989E+02 -0.12105235677E+02  0.43147491926E+02  0.46685504694E+02  0.10566000000E+00 0.  1.
        -14    1    4    4    0    0 -0.41191789320E+01 -0.30732582201E+01  0.12916499177E+02  0.13901384901E+02  0.00000000000E+00 0.  1.
<mgrwt>
<rscale>  0 0.77782005E+02</rscale>
<asrwt>0</asrwt>
<pdfrwt beam="1">  1        1 0.33946619E-02 0.77782005E+02</pdfrwt>
<pdfrwt beam="2">  1       -2 0.10545691E-01 0.77782005E+02</pdfrwt>
<totfact> 0.12392904E+05</totfact>
</mgrwt>
</event>
<event>
 8    1  0.8577104E-018  0.8430600E+02  0.7818608E-02  0.1317257E+00
         -2   -1    0    0    0  501 -0.00000000000E+00  0.00000000000E+00  0.79681158483E+02  0.79681158524E+02  0.25500000000E-02 0.  1.
          1   -1    0    0  501    0  0.00000000000E+00 -0.00000000000E+00 -0.22299819565E+02  0.22299820134E+02  0.50400000000E-02 0. -1.
        -24    2    1    2    0    0 -0.35527136788E-14  0.00000000000E+00  0.57381338919E+02  0.10198097866E+03  0.84306001875E+02 0.  0.
         66    2    3    3    0    0 -0.23603976074E+02 -0.32301932145E+02  0.44677299685E+02  0.60005196549E+02  0.19999997417E+01 0.  0.
         13    1    3    3    0    0  0.23603976074E+02  0.32301932145E+02  0.12704039233E+02  0.41975782109E+02  0.10566000000E+00 0. -1.
         13    1    4    4    0    0 -0.97032662304E+01 -0.12053437358E+02  0.16953213320E+02  0.22953460166E+02  0.10566000000E+00 0. -1.
        -13    1    4    4    0    0 -0.20835715891E+01 -0.26817244503E+01  0.34542066194E+01  0.48451650126E+01  0.10566000000E+00 0.  1.
        -14    1    4    4    0    0 -0.11817138254E+02 -0.17566770336E+02  0.24269879746E+02  0.32206571371E+02  0.00000000000E+00 0.  1.
<mgrwt>
<rscale>  0 0.84306002E+02</rscale>
<asrwt>0</asrwt>
<pdfrwt beam="1">  1        1 0.34307415E-02 0.84306002E+02</pdfrwt>
<pdfrwt beam="2">  1       -2 0.12258640E-01 0.84306002E+02</pdfrwt>
<totfact> 0.97859569E+04</totfact>
</mgrwt>
</event>
<event>
 8    1  0.8577104E-018  0.7873364E+02  0.7818608E-02  0.1332684E+00
         -2   -1    0    0    0  501 -0.00000000000E+00  0.00000000000E+00  0.34890901368E+02  0.34890901461E+02  0.25500000000E-02 0.  1.
          1   -1    0    0  501    0  0.00000000000E+00 -0.00000000000E+00 -0.44416918345E+02  0.44416918631E+02  0.50400000000E-02 0. -1.
        -24    2    1    2    0    0  0.00000000000E+00  0.00000000000E+00 -0.95260169770E+01  0.79307820092E+02  0.78733635305E+02 0.  0.
         66    2    3    3    0    0 -0.23159660247E+02  0.31005820073E+02 -0.11889467178E+02  0.40535048692E+02  0.20000003896E+01 0.  0.
         13    1    3    3    0    0  0.23159660247E+02 -0.31005820073E+02  0.23634502007E+01  0.38772771400E+02  0.10566000000E+00 0. -1.
         13    1    4    4    0    0 -0.20194702793E+02  0.25990784878E+02 -0.10104575782E+02  0.34430517499E+02  0.10566000000E+00 0. -1.
        -13    1    4    4    0    0 -0.18783031499E+01  0.30369408268E+01 -0.93357290186E+00  0.36923914618E+01  0.10566000000E+00 0.  1.
         14    1    4    4    0    0 -0.10866543035E+01  0.19780943687E+01 -0.85131849401E+00  0.24121397317E+01  0.00000000000E+00 0. -1.
<mgrwt>
<rscale>  0 0.78733635E+02</rscale>
<asrwt>0</asrwt>
<pdfrwt beam="1">  1        1 0.68333721E-02 0.78733635E+02</pdfrwt>
<pdfrwt beam="2">  1       -2 0.53678310E-02 0.78733635E+02</pdfrwt>
<totfact> 0.13502113E+05</totfact>
</mgrwt>
</event>
<event>
 8    1  0.8577104E-018  0.8400633E+02  0.7818608E-02  0.1318052E+00
          1   -1    0    0  501    0  0.00000000000E+00  0.00000000000E+00  0.63492822207E+02  0.63492822408E+02  0.50400000000E-02 0. -1.
         -2   -1    0    0    0  501 -0.00000000000E+00 -0.00000000000E+00 -0.27786855406E+02  0.27786855523E+02  0.25500000000E-02 0.  1.
        -24    2    1    2    0    0 -0.44408920985E-15  0.00000000000E+00  0.35705966802E+02  0.91279677930E+02  0.84006330343E+02 0.  0.
         66    2    3    3    0    0  0.21412958637E+01  0.16431028946E+02 -0.24047086579E+02  0.29271594484E+02  0.20000026248E+01 0.  0.
         13    1    3    3    0    0 -0.21412958637E+01 -0.16431028946E+02  0.59753053381E+02  0.62008083446E+02  0.10566000000E+00 0. -1.
         13    1    4    4    0    0  0.17553240114E+01  0.10565541088E+02 -0.15483104672E+02  0.18826829663E+02  0.10566000000E+00 0. -1.
        -13    1    4    4    0    0 -0.11253851994E+00  0.11111423680E+01 -0.23565114618E+01  0.26099066239E+01  0.10566000000E+00 0.  1.
         14    1    4    4    0    0  0.49851037216E+00  0.47543454899E+01 -0.62074704460E+01  0.78348581969E+01  0.00000000000E+00 0. -1.
<mgrwt>
<rscale>  0 0.84006330E+02</rscale>
<asrwt>0</asrwt>
<pdfrwt beam="1">  1        1 0.97681264E-02 0.84006330E+02</pdfrwt>
<pdfrwt beam="2">  1       -2 0.42749009E-02 0.84006330E+02</pdfrwt>
<totfact> 0.11935680E+05</totfact>
</mgrwt>
</event>
<event>
 8    1  0.8577104E-018  0.8153807E+02  0.7818608E-02  0.1324742E+00
         -2   -1    0    0    0  501 -0.00000000000E+00  0.00000000000E+00  0.10263318541E+03  0.10263318544E+03  0.25500000000E-02 0.  1.
          1   -1    0    0  501    0  0.00000000000E+00 -0.00000000000E+00 -0.16194705138E+02  0.16194705922E+02  0.50400000000E-02 0. -1.
        -24    2    1    2    0    0  0.00000000000E+00  0.00000000000E+00  0.86438480271E+02  0.11882789136E+03  0.81538070213E+02 0.  0.
         66    2    3    3    0    0  0.20335278582E+02 -0.18553689120E+02  0.87022027636E+02  0.91294009933E+02  0.20000052284E+01 0.  0.
         13    1    3    3    0    0 -0.20335278582E+02  0.18553689120E+02 -0.58354736457E+00  0.27533881429E+02  0.10566000000E+00 0. -1.
         13    1    4    4    0    0  0.30100964114E+01 -0.27829057597E+01  0.11508439375E+02  0.12217224961E+02  0.10566000000E+00 0.  1.
        -13    1    4    4    0    0  0.86508981254E+01 -0.85786255498E+01  0.37677072454E+02  0.39598027822E+02  0.10566000000E+00 0.  1.
         14    1    4    4    0    0  0.86742840456E+01 -0.71921578103E+01  0.37836515807E+02  0.39478757150E+02  0.00000000000E+00 0. -1.
<mgrwt>
<rscale>  0 0.81538070E+02</rscale>
<asrwt>0</asrwt>
<pdfrwt beam="1">  1        1 0.24914931E-02 0.81538070E+02</pdfrwt>
<pdfrwt beam="2">  1       -2 0.15789721E-01 0.81538070E+02</pdfrwt>
<totfact> 0.10041927E+05</totfact>
</mgrwt>
</event>
<event>
 8    1  0.8577104E-018  0.7907607E+02  0.7818608E-02  0.1331694E+00
         -2   -1    0    0    0  501 -0.00000000000E+00  0.00000000000E+00  0.92895739502E+01  0.92895743002E+01  0.25500000000E-02 0.  1.
          1   -1    0    0  501    0  0.00000000000E+00 -0.00000000000E+00 -0.16828069699E+03  0.16828069706E+03  0.50400000000E-02 0. -1.
        -24    2    1    2    0    0  0.00000000000E+00 -0.71054273576E-14 -0.15899112304E+03  0.17757027136E+03  0.79076065072E+02 0.  0.
         66    2    3    3    0    0 -0.81005511744E+01  0.33196745084E+02 -0.12409725718E+03  0.12873139492E+03  0.19999963300E+01 0.  0.
         13    1    3    3    0    0  0.81005511744E+01 -0.33196745084E+02 -0.34893865853E+02  0.48838876438E+02  0.10566000000E+00 0. -1.
         13    1    4    4    0    0 -0.93840581978E+00  0.25148114645E+01 -0.93389561665E+01  0.97176205163E+01  0.10566000000E+00 0. -1.
        -13    1    4    4    0    0 -0.26882430954E+01  0.12078960618E+02 -0.47726487594E+02  0.49304733268E+02  0.10566000000E+00 0.  1.
         14    1    4    4    0    0 -0.44739022593E+01  0.18602973001E+02 -0.67031813421E+02  0.69709041139E+02  0.00000000000E+00 0. -1.
<mgrwt>
<rscale>  0 0.79076065E+02</rscale>
<asrwt>0</asrwt>
<pdfrwt beam="1">  1        1 0.25889336E-01 0.79076065E+02</pdfrwt>
<pdfrwt beam="2">  1       -2 0.14291654E-02 0.79076065E+02</pdfrwt>
<totfact> 0.16637695E+05</totfact>
</mgrwt>
</event>
<event>
 8    1  0.8577104E-018  0.7935951E+02  0.7818608E-02  0.1330879E+00
         -2   -1    0    0    0  501 -0.00000000000E+00  0.00000000000E+00  0.37966725131E+01  0.37966733694E+01  0.25500000000E-02 0.  1.
          1   -1    0    0  501    0  0.00000000000E+00 -0.00000000000E+00 -0.41470067020E+03  0.41470067023E+03  0.50400000000E-02 0. -1.
        -24    2    1    2    0    0  0.00000000000E+00  0.00000000000E+00 -0.41090399769E+03  0.41849734360E+03  0.79359506584E+02 0.  0.
         66    2    3    3    0    0  0.55633817450E+01 -0.37430547004E+02 -0.26808532128E+03  0.27075032143E+03  0.20000008020E+01 0.  0.
         13    1    3    3    0    0 -0.55633817450E+01  0.37430547004E+02 -0.14281867641E+03  0.14774702217E+03  0.10566000000E+00 0. -1.
         13    1    4    4    0    0  0.11157028472E+00 -0.22916279331E+01 -0.15861200282E+02  0.16026629244E+02  0.10566000000E+00 0. -1.
        -13    1    4    4    0    0  0.40625486315E+01 -0.29888383267E+02 -0.21265062374E+03  0.21477923246E+03  0.10566000000E+00 0.  1.
         14    1    4    4    0    0  0.13892628287E+01 -0.52505358039E+01 -0.39573497253E+02  0.39944459719E+02  0.00000000000E+00 0. -1.
<mgrwt>
<rscale>  0 0.79359507E+02</rscale>
<asrwt>0</asrwt>
<pdfrwt beam="1">  1        1 0.63800067E-01 0.79359507E+02</pdfrwt>
<pdfrwt beam="2">  1       -2 0.58410386E-03 0.79359507E+02</pdfrwt>
<totfact> 0.19511225E+05</totfact>
</mgrwt>
</event>
<event>
 8    1  0.8577104E-018  0.8264814E+02  0.7818608E-02  0.1321700E+00
         -2   -1    0    0    0  501 -0.00000000000E+00  0.00000000000E+00  0.12558007949E+02  0.12558008208E+02  0.25500000000E-02 0.  1.
          1   -1    0    0  501    0  0.00000000000E+00 -0.00000000000E+00 -0.13598326128E+03  0.13598326137E+03  0.50400000000E-02 0. -1.
        -24    2    1    2    0    0  0.14210854715E-13  0.00000000000E+00 -0.12342525333E+03  0.14854126958E+03  0.82648143410E+02 0.  0.
         66    2    3    3    0    0  0.40993775541E+02  0.47818626409E+01 -0.59012285388E+02  0.72040305884E+02  0.20000004262E+01 0.  0.
         13    1    3    3    0    0 -0.40993775541E+02 -0.47818626409E+01 -0.64412967943E+02  0.76500963698E+02  0.10566000000E+00 0. -1.
         13    1    4    4    0    0  0.76024603952E+01  0.12540374982E+01 -0.11074690459E+02  0.13491847424E+02  0.10566000000E+00 0. -1.
        -13    1    4    4    0    0  0.96052179679E+01  0.14898217792E+01 -0.12962222836E+02  0.16202165473E+02  0.10566000000E+00 0.  1.
         14    1    4    4    0    0  0.23786097178E+02  0.20380033635E+01 -0.34975372093E+02  0.42346292986E+02  0.00000000000E+00 0. -1.
<mgrwt>
<rscale>  0 0.82648143E+02</rscale>
<asrwt>0</asrwt>
<pdfrwt beam="1">  1        1 0.20920501E-01 0.82648143E+02</pdfrwt>
<pdfrwt beam="2">  1       -2 0.19320013E-02 0.82648143E+02</pdfrwt>
<totfact> 0.14210160E+05</totfact>
</mgrwt>
</event>
<event>
 8    1  0.8577104E-018  0.8121768E+02  0.7818608E-02  0.1325631E+00
          1   -1    0    0  501    0  0.00000000000E+00  0.00000000000E+00  0.69506659350E+02  0.69506659533E+02  0.50400000000E-02 0. -1.
         -2   -1    0    0    0  501 -0.00000000000E+00 -0.00000000000E+00 -0.23725464692E+02  0.23725464829E+02  0.25500000000E-02 0.  1.
        -24    2    1    2    0    0  0.17763568394E-14  0.00000000000E+00  0.45781194659E+02  0.93232124362E+02  0.81217678055E+02 0.  0.
         66    2    3    3    0    0  0.11273448578E+02 -0.38977512733E+02  0.21919835985E+02  0.46160766368E+02  0.20000000915E+01 0.  0.
         13    1    3    3    0    0 -0.11273448578E+02  0.38977512733E+02  0.23861358673E+02  0.47071357994E+02  0.10566000000E+00 0. -1.
         13    1    4    4    0    0  0.12070413893E+01 -0.49250263865E+01  0.26181113597E+01  0.57077583122E+01  0.10566000000E+00 0.  1.
        -13    1    4    4    0    0  0.32441229242E+01 -0.97869627489E+01  0.48114613231E+01  0.11378501549E+02  0.10566000000E+00 0. -1.
        -14    1    4    4    0    0  0.68222842646E+01 -0.24265523597E+02  0.14490263303E+02  0.29074506507E+02  0.00000000000E+00 0.  1.
<mgrwt>
<rscale>  0 0.81217678E+02</rscale>
<asrwt>0</asrwt>
<pdfrwt beam="1">  1        1 0.10693332E-01 0.81217678E+02</pdfrwt>
<pdfrwt beam="2">  1       -2 0.36500716E-02 0.81217678E+02</pdfrwt>
<totfact> 0.13292949E+05</totfact>
</mgrwt>
</event>
<event>
 8    1  0.8577104E-018  0.7957922E+02  0.7818608E-02  0.1330250E+00
          1   -1    0    0  501    0  0.00000000000E+00  0.00000000000E+00  0.64817577291E+02  0.64817577487E+02  0.50400000000E-02 0. -1.
         -2   -1    0    0    0  501 -0.00000000000E+00 -0.00000000000E+00 -0.24425675503E+02  0.24425675636E+02  0.25500000000E-02 0.  1.
        -24    2    1    2    0    0  0.00000000000E+00 -0.35527136788E-14  0.40391901788E+02  0.89243253123E+02  0.79579221521E+02 0.  0.
         66    2    3    3    0    0  0.23139241837E+02 -0.31729965467E+02  0.13205918445E+02  0.41480254099E+02  0.19999942130E+01 0.  0.
         13    1    3    3    0    0 -0.23139241837E+02  0.31729965467E+02  0.27185983343E+02  0.47762999023E+02  0.10566000000E+00 0. -1.
         13    1    4    4    0    0  0.92299788657E+00 -0.13658254674E+01  0.80682431551E+00  0.18383508419E+01  0.10566000000E+00 0. -1.
        -13    1    4    4    0    0  0.18864279197E+02 -0.26453573247E+02  0.10364519738E+02  0.34104061350E+02  0.10566000000E+00 0.  1.
         14    1    4    4    0    0  0.33519647539E+01 -0.39105667525E+01  0.20345743913E+01  0.55378419074E+01  0.00000000000E+00 0. -1.
<mgrwt>
<rscale>  0 0.79579222E+02</rscale>
<asrwt>0</asrwt>
<pdfrwt beam="1">  1        1 0.99719349E-02 0.79579222E+02</pdfrwt>
<pdfrwt beam="2">  1       -2 0.37577963E-02 0.79579222E+02</pdfrwt>
<totfact> 0.13903297E+05</totfact>
</mgrwt>
</event>
<event>
 8    1  0.8577104E-018  0.7951055E+02  0.7818608E-02  0.1330446E+00
         -2   -1    0    0    0  501 -0.00000000000E+00  0.00000000000E+00  0.93044917402E+02  0.93044917437E+02  0.25500000000E-02 0.  1.
          1   -1    0    0  501    0  0.00000000000E+00 -0.00000000000E+00 -0.16986222496E+02  0.16986223243E+02  0.50400000000E-02 0. -1.
        -24    2    1    2    0    0  0.00000000000E+00  0.17763568394E-14  0.76058694907E+02  0.11003114068E+03  0.79510545518E+02 0.  0.
         66    2    3    3    0    0  0.24984963038E+02  0.15950519037E+02  0.74661741861E+02  0.80355728680E+02  0.19999996286E+01 0.  0.
         13    1    3    3    0    0 -0.24984963038E+02 -0.15950519037E+02  0.13969530455E+01  0.29675412000E+02  0.10566000000E+00 0. -1.
         13    1    4    4    0    0  0.12732771759E+02  0.86182119277E+01  0.38485803004E+02  0.41443518798E+02  0.10566000000E+00 0. -1.
        -13    1    4    4    0    0  0.88553293586E+01  0.57196570968E+01  0.27759604025E+02  0.29694075419E+02  0.10566000000E+00 0.  1.
        -14    1    4    4    0    0  0.33968619205E+01  0.16126500121E+01  0.84163348325E+01  0.92181344632E+01  0.00000000000E+00 0.  1.
<mgrwt>
<rscale>  0 0.79510546E+02</rscale>
<asrwt>0</asrwt>
<pdfrwt beam="1">  1        1 0.26132651E-02 0.79510546E+02</pdfrwt>
<pdfrwt beam="2">  1       -2 0.14314602E-01 0.79510546E+02</pdfrwt>
<totfact> 0.10970852E+05</totfact>
</mgrwt>
</event>
<event>
 8    1  0.8577104E-018  0.7986452E+02  0.7818608E-02  0.1329436E+00
          1   -1    0    0  501    0  0.00000000000E+00  0.00000000000E+00  0.30877505958E+02  0.30877506370E+02  0.50400000000E-02 0. -1.
         -2   -1    0    0    0  501 -0.00000000000E+00 -0.00000000000E+00 -0.51642301644E+02  0.51642301707E+02  0.25500000000E-02 0.  1.
        -24    2    1    2    0    0 -0.17763568394E-14  0.00000000000E+00 -0.20764795685E+02  0.82519808076E+02  0.79864522694E+02 0.  0.
         66    2    3    3    0    0 -0.95568013880E+01 -0.36254856819E+02 -0.24512042270E+02  0.44839572982E+02  0.19999983135E+01 0.  0.
         13    1    3    3    0    0  0.95568013880E+01  0.36254856819E+02  0.37472465844E+01  0.37680235094E+02  0.10566000000E+00 0. -1.
         13    1    4    4    0    0 -0.28496625158E+01 -0.12401211972E+02 -0.76390699434E+01  0.14841738054E+02  0.10566000000E+00 0. -1.
        -13    1    4    4    0    0 -0.66281063575E+00 -0.36870948959E+01 -0.24103751033E+01  0.44559015793E+01  0.10566000000E+00 0.  1.
        -14    1    4    4    0    0 -0.60443282364E+01 -0.20166549951E+02 -0.14462597223E+02  0.25541933349E+02  0.00000000000E+00 0.  1.
<mgrwt>
<rscale>  0 0.79864523E+02</rscale>
<asrwt>0</asrwt>
<pdfrwt beam="1">  1        1 0.47503856E-02 0.79864523E+02</pdfrwt>
<pdfrwt beam="2">  1       -2 0.79449695E-02 0.79864523E+02</pdfrwt>
<totfact> 0.12215605E+05</totfact>
</mgrwt>
</event>
<event>
 8    1  0.8577104E-018  0.7968236E+02  0.7818608E-02  0.1329955E+00
         -2   -1    0    0    0  501 -0.00000000000E+00  0.00000000000E+00  0.36877742837E+02  0.36877742925E+02  0.25500000000E-02 0.  1.
          1   -1    0    0  501    0  0.00000000000E+00 -0.00000000000E+00 -0.43042758885E+02  0.43042759180E+02  0.50400000000E-02 0. -1.
        -24    2    1    2    0    0  0.00000000000E+00  0.35527136788E-14 -0.61650160477E+01  0.79920502105E+02  0.79682364635E+02 0.  0.
         66    2    3    3    0    0 -0.26923547294E+02 -0.17314731774E+02  0.20664103741E+02  0.38153407785E+02  0.20000017167E+01 0.  0.
         13    1    3    3    0    0  0.26923547294E+02  0.17314731774E+02 -0.26829119789E+02  0.41767094320E+02  0.10566000000E+00 0. -1.
         13    1    4    4    0    0 -0.10765800912E+02 -0.75521766729E+01  0.79686021260E+01  0.15376853568E+02  0.10566000000E+00 0. -1.
        -13    1    4    4    0    0 -0.28042488503E+01 -0.15650652525E+01  0.17056417486E+01  0.36378040999E+01  0.10566000000E+00 0.  1.
        -14    1    4    4    0    0 -0.13353497532E+02 -0.81974898487E+01  0.10989859866E+02  0.19138750117E+02  0.00000000000E+00 0.  1.
<mgrwt>
<rscale>  0 0.79682365E+02</rscale>
<asrwt>0</asrwt>
<pdfrwt beam="1">  1        1 0.66219630E-02 0.79682365E+02</pdfrwt>
<pdfrwt beam="2">  1       -2 0.56734989E-02 0.79682365E+02</pdfrwt>
<totfact> 0.12992547E+05</totfact>
</mgrwt>
</event>
<event>
 8    1  0.8577104E-018  0.7968938E+02  0.7818608E-02  0.1329935E+00
         -2   -1    0    0    0  501 -0.00000000000E+00  0.00000000000E+00  0.26798049061E+03  0.26798049062E+03  0.25500000000E-02 0.  1.
          1   -1    0    0  501    0  0.00000000000E+00 -0.00000000000E+00 -0.59243078723E+01  0.59243100162E+01  0.50400000000E-02 0. -1.
        -24    2    1    2    0    0  0.71054273576E-14  0.00000000000E+00  0.26205618274E+03  0.27390480064E+03  0.79689377596E+02 0.  0.
         66    2    3    3    0    0  0.32338311555E+02  0.21033523202E+02  0.16503544732E+03  0.16949594203E+03  0.19999992782E+01 0.  0.
         13    1    3    3    0    0 -0.32338311555E+02 -0.21033523202E+02  0.97020735411E+02  0.10440885861E+03  0.10566000000E+00 0. -1.
         13    1    4    4    0    0  0.11280489531E+02  0.76804500808E+01  0.60102047650E+02  0.61632021331E+02  0.10566000000E+00 0.  1.
        -13    1    4    4    0    0  0.24204968426E+01  0.12025181558E+01  0.12747505352E+02  0.13031305062E+02  0.10566000000E+00 0. -1.
         14    1    4    4    0    0  0.18637325181E+02  0.12150554966E+02  0.92185894322E+02  0.94832615633E+02  0.00000000000E+00 0. -1.
<mgrwt>
<rscale>  0 0.79689378E+02</rscale>
<asrwt>0</asrwt>
<pdfrwt beam="1">  1        1 0.91143228E-03 0.79689378E+02</pdfrwt>
<pdfrwt beam="2">  1       -2 0.41227762E-01 0.79689378E+02</pdfrwt>
<totfact> 0.75291638E+04</totfact>
</mgrwt>
</event>
<event>
 8    1  0.8577104E-018  0.7342839E+02  0.7818608E-02  0.1348808E+00
         -2   -1    0    0    0  501 -0.00000000000E+00  0.00000000000E+00  0.89377716107E+01  0.89377719745E+01  0.25500000000E-02 0.  1.
          1   -1    0    0  501    0  0.00000000000E+00 -0.00000000000E+00 -0.15081299698E+03  0.15081299706E+03  0.50400000000E-02 0. -1.
        -24    2    1    2    0    0  0.00000000000E+00  0.00000000000E+00 -0.14187522537E+03  0.15975076903E+03  0.73428391204E+02 0.  0.
         66    2    3    3    0    0  0.20780151023E+02 -0.24673490418E+02 -0.32974238595E+02  0.46172461733E+02  0.20000013933E+01 0.  0.
         13    1    3    3    0    0 -0.20780151023E+02  0.24673490418E+02 -0.10890098677E+03  0.11357830730E+03  0.10566000000E+00 0. -1.
         13    1    4    4    0    0  0.62451084819E+01 -0.71622752690E+01 -0.10878126047E+02  0.14444526898E+02  0.10566000000E+00 0.  1.
        -13    1    4    4    0    0  0.11636367207E+02 -0.13959772634E+02 -0.18030587410E+02  0.25600655072E+02  0.10566000000E+00 0. -1.
         14    1    4    4    0    0  0.28986753346E+01 -0.35514425154E+01 -0.40655251385E+01  0.61272797625E+01  0.00000000000E+00 0. -1.
<mgrwt>
<rscale>  0 0.73428391E+02</rscale>
<asrwt>0</asrwt>
<pdfrwt beam="1">  1        1 0.23201998E-01 0.73428391E+02</pdfrwt>
<pdfrwt beam="2">  1       -2 0.13750419E-02 0.73428391E+02</pdfrwt>
<totfact> 0.19846066E+05</totfact>
</mgrwt>
</event>
<event>
 8    1  0.8577104E-018  0.8214740E+02  0.7818608E-02  0.1323066E+00
          1   -1    0    0  501    0  0.00000000000E+00  0.00000000000E+00  0.54389227728E+02  0.54389227961E+02  0.50400000000E-02 0. -1.
         -2   -1    0    0    0  501 -0.00000000000E+00 -0.00000000000E+00 -0.31018068769E+02  0.31018068874E+02  0.25500000000E-02 0.  1.
        -24    2    1    2    0    0  0.00000000000E+00  0.71054273576E-14  0.23371158959E+02  0.85407296835E+02  0.82147399725E+02 0.  0.
         66    2    3    3    0    0 -0.23552133247E+02 -0.28457696147E+02 -0.69204726451E+01  0.37635573402E+02  0.19999982909E+01 0.  0.
         13    1    3    3    0    0  0.23552133247E+02  0.28457696147E+02  0.30291631604E+02  0.47771723433E+02  0.10566000000E+00 0. -1.
         13    1    4    4    0    0 -0.83070500245E+01 -0.93305847532E+01 -0.25109875873E+01  0.12742963338E+02  0.10566000000E+00 0.  1.
        -13    1    4    4    0    0 -0.22675889544E+01 -0.21222869568E+01 -0.52308757367E+00  0.31513245213E+01  0.10566000000E+00 0.  1.
        -14    1    4    4    0    0 -0.12977494268E+02 -0.17004824437E+02 -0.38863974841E+01  0.21741285542E+02  0.00000000000E+00 0.  1.
<mgrwt>
<rscale>  0 0.82147400E+02</rscale>
<asrwt>0</asrwt>
<pdfrwt beam="1">  1        1 0.83675735E-02 0.82147400E+02</pdfrwt>
<pdfrwt beam="2">  1       -2 0.47720106E-02 0.82147400E+02</pdfrwt>
<totfact> 0.12386847E+05</totfact>
</mgrwt>
</event>
<event>
 8    1  0.8577104E-018  0.8081456E+02  0.7818608E-02  0.1326756E+00
          1   -1    0    0  501    0  0.00000000000E+00  0.00000000000E+00  0.12863226858E+03  0.12863226868E+03  0.50400000000E-02 0. -1.
         -2   -1    0    0    0  501 -0.00000000000E+00 -0.00000000000E+00 -0.12693145361E+02  0.12693145617E+02  0.25500000000E-02 0.  1.
        -24    2    1    2    0    0  0.00000000000E+00  0.00000000000E+00  0.11593912322E+03  0.14132541430E+03  0.80814555824E+02 0.  0.
         66    2    3    3    0    0  0.12453392897E+02 -0.27457156395E+02  0.11023421725E+02  0.32163616875E+02  0.19999980125E+01 0.  0.
         13    1    3    3    0    0 -0.12453392897E+02  0.27457156395E+02  0.10491570150E+03  0.10916179742E+03  0.10566000000E+00 0. -1.
         13    1    4    4    0    0  0.16938556446E+01 -0.39444915856E+01  0.94158893428E+00  0.43961249494E+01  0.10566000000E+00 0. -1.
        -13    1    4    4    0    0  0.58398930260E+01 -0.11986416990E+02  0.55092039591E+01  0.14427093786E+02  0.10566000000E+00 0.  1.
         14    1    4    4    0    0  0.49196442267E+01 -0.11526247819E+02  0.45726288316E+01  0.13340398140E+02  0.00000000000E+00 0. -1.
<mgrwt>
<rscale>  0 0.80814556E+02</rscale>
<asrwt>0</asrwt>
<pdfrwt beam="1">  1        1 0.19789581E-01 0.80814556E+02</pdfrwt>
<pdfrwt beam="2">  1       -2 0.19527915E-02 0.80814556E+02</pdfrwt>
<totfact> 0.14942152E+05</totfact>
</mgrwt>
</event>
<event>
 8    1  0.8577104E-018  0.8037602E+02  0.7818608E-02  0.1327988E+00
          1   -1    0    0  501    0  0.00000000000E+00  0.00000000000E+00  0.91167178202E+02  0.91167178341E+02  0.50400000000E-02 0. -1.
         -2   -1    0    0    0  501 -0.00000000000E+00 -0.00000000000E+00 -0.17715541904E+02  0.17715542088E+02  0.25500000000E-02 0.  1.
        -24    2    1    2    0    0  0.00000000000E+00  0.00000000000E+00  0.73451636297E+02  0.10888272043E+03  0.80376015908E+02 0.  0.
         66    2    3    3    0    0 -0.37582938995E+02  0.28718914742E+01  0.17960776868E+02  0.41800891978E+02  0.20000000730E+01 0.  0.
         13    1    3    3    0    0  0.37582938995E+02 -0.28718914742E+01  0.55490859429E+02  0.67081828451E+02  0.10566000000E+00 0. -1.
         13    1    4    4    0    0 -0.81746863074E+00  0.18471479099E+00  0.30262653153E+00  0.89728555624E+00  0.10566000000E+00 0.  1.
        -13    1    4    4    0    0 -0.23395268700E+02  0.11520747510E+01  0.11752136076E+02  0.26206673580E+02  0.10566000000E+00 0.  1.
        -14    1    4    4    0    0 -0.13370201664E+02  0.15351019323E+01  0.59060142612E+01  0.14696932841E+02  0.00000000000E+00 0.  1.
<mgrwt>
<rscale>  0 0.80376016E+02</rscale>
<asrwt>0</asrwt>
<pdfrwt beam="1">  1        1 0.14025720E-01 0.80376016E+02</pdfrwt>
<pdfrwt beam="2">  1       -2 0.27254680E-02 0.80376016E+02</pdfrwt>
<totfact> 0.14291547E+05</totfact>
</mgrwt>
</event>
<event>
 8    1  0.8577104E-018  0.7741728E+02  0.7818608E-02  0.1336545E+00
         -2   -1    0    0    0  501 -0.00000000000E+00  0.00000000000E+00  0.46207316271E+02  0.46207316341E+02  0.25500000000E-02 0.  1.
          1   -1    0    0  501    0  0.00000000000E+00 -0.00000000000E+00 -0.32426870529E+02  0.32426870921E+02  0.50400000000E-02 0. -1.
        -24    2    1    2    0    0 -0.17763568394E-14 -0.71054273576E-14  0.13780445741E+02  0.78634187262E+02  0.77417276635E+02 0.  0.
         66    2    3    3    0    0 -0.73192139189E+01 -0.37924016058E+02  0.90618558029E+01  0.39723030232E+02  0.20000034631E+01 0.  0.
         13    1    3    3    0    0  0.73192139189E+01  0.37924016058E+02  0.47185899384E+01  0.38911157030E+02  0.10566000000E+00 0. -1.
         13    1    4    4    0    0 -0.47163725937E+00 -0.21139656189E+01  0.85332044277E+00  0.23303673865E+01  0.10566000000E+00 0. -1.
        -13    1    4    4    0    0 -0.48204607297E+01 -0.23681103280E+02  0.49089160973E+01  0.24660497065E+02  0.10566000000E+00 0.  1.
        -14    1    4    4    0    0 -0.20271159299E+01 -0.12128947159E+02  0.32996192629E+01  0.12732165780E+02  0.00000000000E+00 0.  1.
<mgrwt>
<rscale>  0 0.77417277E+02</rscale>
<asrwt>0</asrwt>
<pdfrwt beam="1">  1        1 0.49887494E-02 0.77417277E+02</pdfrwt>
<pdfrwt beam="2">  1       -2 0.71088178E-02 0.77417277E+02</pdfrwt>
<totfact> 0.13461259E+05</totfact>
</mgrwt>
</event>
<event>
 8    1  0.8577104E-018  0.8065563E+02  0.7818608E-02  0.1327201E+00
         -2   -1    0    0    0  501 -0.00000000000E+00  0.00000000000E+00  0.22162711485E+02  0.22162711631E+02  0.25500000000E-02 0.  1.
          1   -1    0    0  501    0  0.00000000000E+00 -0.00000000000E+00 -0.73381478205E+02  0.73381478378E+02  0.50400000000E-02 0. -1.
        -24    2    1    2    0    0  0.44408920985E-15  0.35527136788E-14 -0.51218766720E+02  0.95544190009E+02  0.80655627083E+02 0.  0.
         66    2    3    3    0    0  0.15711591245E+01  0.29353014247E+02  0.70374997118E+01  0.30291820481E+02  0.19999998788E+01 0.  0.
         13    1    3    3    0    0 -0.15711591245E+01 -0.29353014247E+02 -0.58256266432E+02  0.65252369528E+02  0.10566000000E+00 0. -1.
         13    1    4    4    0    0 -0.18799375844E-01  0.97087756863E+00 -0.22834510499E-01  0.97705788993E+00  0.10566000000E+00 0. -1.
        -13    1    4    4    0    0  0.35881994829E+00  0.30080157320E+01  0.10659304002E+01  0.32131420842E+01  0.10566000000E+00 0.  1.
        -14    1    4    4    0    0  0.12311385521E+01  0.25374120946E+02  0.59944038221E+01  0.26101620507E+02  0.00000000000E+00 0.  1.
<mgrwt>
<rscale>  0 0.80655627E+02</rscale>
<asrwt>0</asrwt>
<pdfrwt beam="1">  1        1 0.11289458E-01 0.80655627E+02</pdfrwt>
<pdfrwt beam="2">  1       -2 0.34096480E-02 0.80655627E+02</pdfrwt>
<totfact> 0.13666408E+05</totfact>
</mgrwt>
</event>
<event>
 8    1  0.8577104E-018  0.8163251E+02  0.7818608E-02  0.1324481E+00
         -2   -1    0    0    0  501 -0.00000000000E+00  0.00000000000E+00  0.17076683084E+02  0.17076683275E+02  0.25500000000E-02 0.  1.
          1   -1    0    0  501    0  0.00000000000E+00 -0.00000000000E+00 -0.97557966762E+02  0.97557966892E+02  0.50400000000E-02 0. -1.
        -24    2    1    2    0    0  0.00000000000E+00 -0.11102230246E-15 -0.80481283678E+02  0.11463465017E+03  0.81632505759E+02 0.  0.
         66    2    3    3    0    0  0.20479842191E+02  0.69641221739E+00  0.92657071588E+01  0.22577915191E+02  0.19999997659E+01 0.  0.
         13    1    3    3    0    0 -0.20479842191E+02 -0.69641221739E+00 -0.89746990836E+02  0.92056734976E+02  0.10566000000E+00 0. -1.
         13    1    4    4    0    0  0.45126971825E+01 -0.27678868536E+00  0.22286424619E+01  0.50417317557E+01  0.10566000000E+00 0. -1.
        -13    1    4    4    0    0  0.99682801244E+01  0.10033239148E+01  0.37677562101E+01  0.10704224326E+02  0.10566000000E+00 0.  1.
        -14    1    4    4    0    0  0.59988648843E+01 -0.30123012048E-01  0.32693084868E+01  0.68319591098E+01  0.00000000000E+00 0.  1.
<mgrwt>
<rscale>  0 0.81632506E+02</rscale>
<asrwt>0</asrwt>
<pdfrwt beam="1">  1        1 0.15008918E-01 0.81632506E+02</pdfrwt>
<pdfrwt beam="2">  1       -2 0.26271821E-02 0.81632506E+02</pdfrwt>
<totfact> 0.13858906E+05</totfact>
</mgrwt>
</event>
<event>
 8    1  0.8577104E-018  0.7864836E+02  0.7818608E-02  0.1332932E+00
         -2   -1    0    0    0  501 -0.00000000000E+00  0.00000000000E+00  0.79953173506E+02  0.79953173547E+02  0.25500000000E-02 0.  1.
          1   -1    0    0  501    0  0.00000000000E+00 -0.00000000000E+00 -0.19341209693E+02  0.19341210350E+02  0.50400000000E-02 0. -1.
        -24    2    1    2    0    0 -0.35527136788E-14  0.00000000000E+00  0.60611963813E+02  0.99294383896E+02  0.78648359907E+02 0.  0.
         66    2    3    3    0    0  0.20994892101E+02  0.29154820245E+02  0.10220380171E+02  0.37406486018E+02  0.19999968855E+01 0.  0.
         13    1    3    3    0    0 -0.20994892101E+02 -0.29154820245E+02  0.50391583642E+02  0.61887897879E+02  0.10566000000E+00 0. -1.
         13    1    4    4    0    0  0.15616016915E+01  0.21459104748E+01  0.71852696968E+00  0.27515407776E+01  0.10566000000E+00 0. -1.
        -13    1    4    4    0    0  0.31328679598E+01  0.32692184372E+01  0.12274917823E+01  0.46926059876E+01  0.10566000000E+00 0.  1.
         14    1    4    4    0    0  0.16300422450E+02  0.23739691333E+02  0.82743614185E+01  0.29962339253E+02  0.00000000000E+00 0. -1.
<mgrwt>
<rscale>  0 0.78648360E+02</rscale>
<asrwt>0</asrwt>
<pdfrwt beam="1">  1        1 0.29755708E-02 0.78648360E+02</pdfrwt>
<pdfrwt beam="2">  1       -2 0.12300488E-01 0.78648360E+02</pdfrwt>
<totfact> 0.11673349E+05</totfact>
</mgrwt>
</event>
<event>
 8    1  0.8577104E-018  0.7238428E+02  0.7818608E-02  0.1352168E+00
         -2   -1    0    0    0  501 -0.00000000000E+00  0.00000000000E+00  0.29264083486E+02  0.29264083597E+02  0.25500000000E-02 0.  1.
          1   -1    0    0  501    0  0.00000000000E+00 -0.00000000000E+00 -0.44760368547E+02  0.44760368831E+02  0.50400000000E-02 0. -1.
        -24    2    1    2    0    0 -0.17763568394E-14  0.00000000000E+00 -0.15496285062E+02  0.74024452427E+02  0.72384284941E+02 0.  0.
         66    2    3    3    0    0 -0.13109944892E+02 -0.20058167991E+02  0.19945973009E+02  0.31241680434E+02  0.19999997127E+01 0.  0.
         13    1    3    3    0    0  0.13109944892E+02  0.20058167991E+02 -0.35442258071E+02  0.42782771993E+02  0.10566000000E+00 0. -1.
         13    1    4    4    0    0 -0.13553832157E+01 -0.16766329484E+01  0.13316864250E+01  0.25362796524E+01  0.10566000000E+00 0. -1.
        -13    1    4    4    0    0 -0.76345732421E+01 -0.11100214135E+02  0.10996102928E+02  0.17390425701E+02  0.10566000000E+00 0.  1.
         14    1    4    4    0    0 -0.41199884346E+01 -0.72813209072E+01  0.76181836561E+01  0.11314975081E+02  0.00000000000E+00 0. -1.
<mgrwt>
<rscale>  0 0.72384285E+02</rscale>
<asrwt>0</asrwt>
<pdfrwt beam="1">  1        1 0.68862106E-02 0.72384285E+02</pdfrwt>
<pdfrwt beam="2">  1       -2 0.45021667E-02 0.72384285E+02</pdfrwt>
<totfact> 0.17059476E+05</totfact>
</mgrwt>
</event>
<event>
 8    1  0.8577104E-018  0.8030038E+02  0.7818608E-02  0.1328201E+00
          1   -1    0    0  501    0  0.00000000000E+00  0.00000000000E+00  0.25630566727E+03  0.25630566732E+03  0.50400000000E-02 0. -1.
         -2   -1    0    0    0  501 -0.00000000000E+00 -0.00000000000E+00 -0.62895128790E+01  0.62895133959E+01  0.25500000000E-02 0.  1.
        -24    2    1    2    0    0 -0.71054273576E-14 -0.35527136788E-14  0.25001615439E+03  0.26259518072E+03  0.80300382805E+02 0.  0.
         66    2    3    3    0    0 -0.34385606444E+02 -0.20651139896E+02  0.12865782033E+03  0.13478009584E+03  0.19999988160E+01 0.  0.
         13    1    3    3    0    0  0.34385606444E+02  0.20651139896E+02  0.12135833407E+03  0.12781508487E+03  0.10566000000E+00 0. -1.
         13    1    4    4    0    0 -0.75912110380E+01 -0.39446570569E+01  0.28173128540E+02  0.29443558550E+02  0.10566000000E+00 0. -1.
        -13    1    4    4    0    0 -0.22747833543E+02 -0.13647958578E+02  0.84523887996E+02  0.88589104919E+02  0.10566000000E+00 0.  1.
         14    1    4    4    0    0 -0.40465618635E+01 -0.30585242608E+01  0.15960803790E+02  0.16747432376E+02  0.00000000000E+00 0. -1.
<mgrwt>
<rscale>  0 0.80300383E+02</rscale>
<asrwt>0</asrwt>
<pdfrwt beam="1">  1        1 0.39431649E-01 0.80300383E+02</pdfrwt>
<pdfrwt beam="2">  1       -2 0.96761721E-03 0.80300383E+02</pdfrwt>
<totfact> 0.17327341E+05</totfact>
</mgrwt>
</event>
<event>
 8    1  0.8577104E-018  0.7970767E+02  0.7818608E-02  0.1329883E+00
         -2   -1    0    0    0  501 -0.00000000000E+00  0.00000000000E+00  0.38683929860E+01  0.38683938264E+01  0.25500000000E-02 0.  1.
          1   -1    0    0  501    0  0.00000000000E+00 -0.00000000000E+00 -0.41059115602E+03  0.41059115605E+03  0.50400000000E-02 0. -1.
        -24    2    1    2    0    0  0.00000000000E+00  0.00000000000E+00 -0.40672276303E+03  0.41445954987E+03  0.79707669107E+02 0.  0.
         66    2    3    3    0    0 -0.25411316372E+02  0.30446834993E+02 -0.18432857820E+03  0.18855707231E+03  0.20000036289E+01 0.  0.
         13    1    3    3    0    0  0.25411316372E+02 -0.30446834993E+02 -0.22239418483E+03  0.22590247756E+03  0.10566000000E+00 0. -1.
         13    1    4    4    0    0 -0.14682951201E+01  0.17677818404E+01 -0.11517043033E+02  0.11744547137E+02  0.10566000000E+00 0. -1.
        -13    1    4    4    0    0 -0.18520127643E+02  0.23285728699E+02 -0.13741554553E+03  0.14059965721E+03  0.10566000000E+00 0.  1.
        -14    1    4    4    0    0 -0.54228936084E+01  0.53933244541E+01 -0.35395989640E+02  0.36212867966E+02  0.00000000000E+00 0.  1.
<mgrwt>
<rscale>  0 0.79707669E+02</rscale>
<asrwt>0</asrwt>
<pdfrwt beam="1">  1        1 0.63167836E-01 0.79707669E+02</pdfrwt>
<pdfrwt beam="2">  1       -2 0.59513777E-03 0.79707669E+02</pdfrwt>
<totfact> 0.19257996E+05</totfact>
</mgrwt>
</event>
<event>
 8    1  0.8577104E-018  0.7913531E+02  0.7818608E-02  0.1331523E+00
          1   -1    0    0  501    0  0.00000000000E+00  0.00000000000E+00  0.13031459683E+02  0.13031460658E+02  0.50400000000E-02 0. -1.
         -2   -1    0    0    0  501 -0.00000000000E+00 -0.00000000000E+00 -0.12013997936E+03  0.12013997939E+03  0.25500000000E-02 0.  1.
        -24    2    1    2    0    0  0.00000000000E+00  0.00000000000E+00 -0.10710851968E+03  0.13317144005E+03  0.79135311059E+02 0.  0.
         66    2    3    3    0    0  0.34858857341E+02 -0.18227385703E+02 -0.60365181247E+02  0.72078655068E+02  0.19999712068E+01 0.  0.
         13    1    3    3    0    0 -0.34858857341E+02  0.18227385703E+02 -0.46743338433E+02  0.61092784980E+02  0.10566000000E+00 0. -1.
         13    1    4    4    0    0  0.12796357321E+02 -0.65298734466E+01 -0.20666315278E+02  0.25169301919E+02  0.10566000000E+00 0. -1.
        -13    1    4    4    0    0  0.21596047065E+02 -0.11469261952E+02 -0.38593873551E+02  0.45688417113E+02  0.10566000000E+00 0.  1.
        -14    1    4    4    0    0  0.46645295482E+00 -0.22825030405E+00 -0.11049924185E+01  0.12209360366E+01  0.00000000000E+00 0.  1.
<mgrwt>
<rscale>  0 0.79135311E+02</rscale>
<asrwt>0</asrwt>
<pdfrwt beam="1">  1        1 0.20048401E-02 0.79135311E+02</pdfrwt>
<pdfrwt beam="2">  1       -2 0.18483073E-01 0.79135311E+02</pdfrwt>
<totfact> 0.10397188E+05</totfact>
</mgrwt>
</event>
<event>
 8    1  0.8577104E-018  0.7920028E+02  0.7818608E-02  0.1331336E+00
          1   -1    0    0  501    0  0.00000000000E+00  0.00000000000E+00  0.31349570016E+03  0.31349570020E+03  0.50400000000E-02 0. -1.
         -2   -1    0    0    0  501 -0.00000000000E+00 -0.00000000000E+00 -0.50022086503E+01  0.50022093003E+01  0.25500000000E-02 0.  1.
        -24    2    1    2    0    0 -0.35527136788E-14  0.00000000000E+00  0.30849349151E+03  0.31849790950E+03  0.79200278109E+02 0.  0.
         66    2    3    3    0    0 -0.30330609658E+02 -0.24682101123E+02  0.12987880994E+03  0.13565270821E+03  0.19999939360E+01 0.  0.
         13    1    3    3    0    0  0.30330609658E+02  0.24682101123E+02  0.17861468157E+03  0.18284520129E+03  0.10566000000E+00 0. -1.
         13    1    4    4    0    0 -0.45140799204E+01 -0.33644620623E+01  0.17273641000E+02  0.18168278947E+02  0.10566000000E+00 0.  1.
        -13    1    4    4    0    0 -0.62074169807E+01 -0.50468257051E+01  0.28882216418E+02  0.29969919328E+02  0.10566000000E+00 0. -1.
         14    1    4    4    0    0 -0.19609112757E+02 -0.16270813355E+02  0.83722952520E+02  0.87514509934E+02  0.00000000000E+00 0. -1.
<mgrwt>
<rscale>  0 0.79200278E+02</rscale>
<asrwt>0</asrwt>
<pdfrwt beam="1">  1        1 0.48230120E-01 0.79200278E+02</pdfrwt>
<pdfrwt beam="2">  1       -2 0.76957042E-03 0.79200278E+02</pdfrwt>
<totfact> 0.18680040E+05</totfact>
</mgrwt>
</event>
<event>
 8    1  0.8577104E-018  0.8057460E+02  0.7818608E-02  0.1327429E+00
          1   -1    0    0  501    0  0.00000000000E+00  0.00000000000E+00  0.14942423156E+01  0.14942508154E+01  0.50400000000E-02 0. -1.
         -2   -1    0    0    0  501 -0.00000000000E+00 -0.00000000000E+00 -0.10862106540E+04  0.10862106540E+04  0.25500000000E-02 0.  1.
        -24    2    1    2    0    0  0.00000000000E+00 -0.35527136788E-14 -0.10847164117E+04  0.10877049049E+04  0.80574600146E+02 0.  0.
         66    2    3    3    0    0 -0.13042726675E+02  0.20699715776E+02 -0.97434799219E+03  0.97465717093E+03  0.20000008191E+01 0.  0.
         13    1    3    3    0    0  0.13042726675E+02 -0.20699715776E+02 -0.11036841953E+03  0.11304773393E+03  0.10566000000E+00 0. -1.
         13    1    4    4    0    0 -0.19056802334E+01  0.28559750398E+01 -0.12105940660E+03  0.12110813062E+03  0.10566000000E+00 0. -1.
        -13    1    4    4    0    0 -0.68892208954E+01  0.11611406113E+02 -0.52166864858E+03  0.52184334449E+03  0.10566000000E+00 0.  1.
        -14    1    4    4    0    0 -0.42478255464E+01  0.62323346234E+01 -0.33161993701E+03  0.33170569582E+03  0.00000000000E+00 0.  1.
<mgrwt>
<rscale>  0 0.80574600E+02</rscale>
<asrwt>0</asrwt>
<pdfrwt beam="1">  1        1 0.22988496E-03 0.80574600E+02</pdfrwt>
<pdfrwt beam="2">  1       -2 0.16710870E+00 0.80574600E+02</pdfrwt>
<totfact> 0.23176674E+04</totfact>
</mgrwt>
</event>
<event>
 8    1  0.8577104E-018  0.7939797E+02  0.7818608E-02  0.1330769E+00
          1   -1    0    0  501    0  0.00000000000E+00  0.00000000000E+00  0.26476495377E+02  0.26476495856E+02  0.50400000000E-02 0. -1.
         -2   -1    0    0    0  501 -0.00000000000E+00 -0.00000000000E+00 -0.59524856122E+02  0.59524856177E+02  0.25500000000E-02 0.  1.
        -24    2    1    2    0    0  0.00000000000E+00  0.00000000000E+00 -0.33048360745E+02  0.86001352033E+02  0.79397974808E+02 0.  0.
         66    2    3    3    0    0 -0.26200779960E+02 -0.15655848599E+02 -0.43988581458E+02  0.53577810290E+02  0.19999977485E+01 0.  0.
         13    1    3    3    0    0  0.26200779960E+02  0.15655848599E+02  0.10940220712E+02  0.32423541743E+02  0.10566000000E+00 0. -1.
         13    1    4    4    0    0 -0.65554306661E+01 -0.31070469871E+01 -0.10331964011E+02  0.12624898279E+02  0.10566000000E+00 0. -1.
        -13    1    4    4    0    0 -0.13200540425E+02 -0.89641492025E+01 -0.22920836953E+02  0.27928232474E+02  0.10566000000E+00 0.  1.
        -14    1    4    4    0    0 -0.64448088684E+01 -0.35846524096E+01 -0.10735780494E+02  0.13024679537E+02  0.00000000000E+00 0.  1.
<mgrwt>
<rscale>  0 0.79397975E+02</rscale>
<asrwt>0</asrwt>
<pdfrwt beam="1">  1        1 0.40733071E-02 0.79397975E+02</pdfrwt>
<pdfrwt beam="2">  1       -2 0.91576701E-02 0.79397975E+02</pdfrwt>
<totfact> 0.12085108E+05</totfact>
</mgrwt>
</event>
<event>
 8    1  0.8577104E-018  0.7899798E+02  0.7818608E-02  0.1331919E+00
         -2   -1    0    0    0  501 -0.00000000000E+00  0.00000000000E+00  0.92913763839E+02  0.92913763874E+02  0.25500000000E-02 0.  1.
          1   -1    0    0  501    0  0.00000000000E+00 -0.00000000000E+00 -0.16791593321E+02  0.16791594078E+02  0.50400000000E-02 0. -1.
        -24    2    1    2    0    0  0.00000000000E+00  0.00000000000E+00  0.76122170518E+02  0.10970535795E+03  0.78997979208E+02 0.  0.
         66    2    3    3    0    0  0.26272852128E+02  0.28500887675E+02  0.27730258124E+02  0.47702521675E+02  0.20000003343E+01 0.  0.
         13    1    3    3    0    0 -0.26272852128E+02 -0.28500887675E+02  0.48391912393E+02  0.62002836276E+02  0.10566000000E+00 0. -1.
         13    1    4    4    0    0  0.74489953006E+01  0.86470820390E+01  0.80127382463E+01  0.13945418496E+02  0.10566000000E+00 0. -1.
        -13    1    4    4    0    0  0.12068224590E+02  0.13722867666E+02  0.12945759138E+02  0.22395601921E+02  0.10566000000E+00 0.  1.
        -14    1    4    4    0    0  0.67556322381E+01  0.61309379700E+01  0.67717607396E+01  0.11361501258E+02  0.00000000000E+00 0.  1.
<mgrwt>
<rscale>  0 0.78997979E+02</rscale>
<asrwt>0</asrwt>
<pdfrwt beam="1">  1        1 0.25833221E-02 0.78997979E+02</pdfrwt>
<pdfrwt beam="2">  1       -2 0.14294426E-01 0.78997979E+02</pdfrwt>
<totfact> 0.11157380E+05</totfact>
</mgrwt>
</event>
<event>
 8    1  0.8577104E-018  0.7887452E+02  0.7818608E-02  0.1332276E+00
          1   -1    0    0  501    0  0.00000000000E+00  0.00000000000E+00  0.30379711833E+02  0.30379712251E+02  0.50400000000E-02 0. -1.
         -2   -1    0    0    0  501 -0.00000000000E+00 -0.00000000000E+00 -0.51195263416E+02  0.51195263480E+02  0.25500000000E-02 0.  1.
        -24    2    1    2    0    0  0.00000000000E+00  0.00000000000E+00 -0.20815551584E+02  0.81574975730E+02  0.78874517290E+02 0.  0.
         66    2    3    3    0    0 -0.24326685606E+02 -0.73104801719E+01 -0.41580222529E+02  0.48766234876E+02  0.20000013714E+01 0.  0.
         13    1    3    3    0    0  0.24326685606E+02  0.73104801719E+01  0.20764670946E+02  0.32808740854E+02  0.10566000000E+00 0. -1.
         13    1    4    4    0    0 -0.10968478649E+01 -0.49648104650E-01 -0.17408582783E+01  0.20608958619E+01  0.10566000000E+00 0. -1.
        -13    1    4    4    0    0 -0.12180216998E+02 -0.36490538557E+01 -0.22077813165E+02  0.25477721216E+02  0.10566000000E+00 0.  1.
        -14    1    4    4    0    0 -0.11049620743E+02 -0.36117782115E+01 -0.17761551086E+02  0.21227617798E+02  0.00000000000E+00 0.  1.
<mgrwt>
<rscale>  0 0.78874517E+02</rscale>
<asrwt>0</asrwt>
<pdfrwt beam="1">  1        1 0.46738019E-02 0.78874517E+02</pdfrwt>
<pdfrwt beam="2">  1       -2 0.78761944E-02 0.78874517E+02</pdfrwt>
<totfact> 0.12624247E+05</totfact>
</mgrwt>
</event>
<event>
 8    1  0.8577104E-018  0.7803454E+02  0.7818608E-02  0.1334723E+00
         -2   -1    0    0    0  501 -0.00000000000E+00  0.00000000000E+00  0.32158465716E+03  0.32158465718E+03  0.25500000000E-02 0.  1.
          1   -1    0    0  501    0  0.00000000000E+00 -0.00000000000E+00 -0.47338919342E+01  0.47338946171E+01  0.50400000000E-02 0. -1.
        -24    2    1    2    0    0  0.00000000000E+00  0.35527136788E-14  0.31685076523E+03  0.32631855179E+03  0.78034542457E+02 0.  0.
         66    2    3    3    0    0  0.13948916523E+01 -0.25353721393E+02  0.28226747015E+03  0.28341432853E+03  0.19999996909E+01 0.  0.
         13    1    3    3    0    0 -0.13948916523E+01  0.25353721393E+02  0.34583295079E+02  0.42904223263E+02  0.10566000000E+00 0. -1.
         13    1    4    4    0    0  0.21035406051E+00 -0.18242134540E+01  0.19282553403E+02  0.19370080881E+02  0.10566000000E+00 0.  1.
        -13    1    4    4    0    0  0.15277301750E+01 -0.21056911364E+02  0.23170326001E+03  0.23266314564E+03  0.10566000000E+00 0.  1.
        -14    1    4    4    0    0 -0.34319258329E+00 -0.24725965758E+01  0.31281656741E+02  0.31381102011E+02  0.00000000000E+00 0.  1.
<mgrwt>
<rscale>  0 0.78034542E+02</rscale>
<asrwt>0</asrwt>
<pdfrwt beam="1">  1        1 0.72829135E-03 0.78034542E+02</pdfrwt>
<pdfrwt beam="2">  1       -2 0.49474557E-01 0.78034542E+02</pdfrwt>
<totfact> 0.72083754E+04</totfact>
</mgrwt>
</event>
<event>
 8    1  0.1058723E-017  0.7970766E+02  0.7818608E-02  0.1329883E+00
          1   -1    0    0  501    0  0.00000000000E+00  0.00000000000E+00  0.15491422490E+03  0.15491422498E+03  0.50400000000E-02 0. -1.
         -2   -1    0    0    0  501 -0.00000000000E+00 -0.00000000000E+00 -0.10252949802E+02  0.10252950119E+02  0.25500000000E-02 0.  1.
        -24    2    1    2    0    0  0.00000000000E+00  0.35527136788E-14  0.14466127510E+03  0.16516717510E+03  0.79707660975E+02 0.  0.
         66    2    3    3    0    0  0.95538921041E-01 -0.25124492159E+02  0.83374093616E+01  0.26547346912E+02  0.19999998268E+01 0.  0.
         13    1    3    3    0    0 -0.95538921041E-01  0.25124492159E+02  0.13632386574E+03  0.13861982819E+03  0.10566000000E+00 0. -1.
         13    1    4    4    0    0 -0.13358013968E+00 -0.44326589115E+01  0.20052216124E+01  0.48680988517E+01  0.10566000000E+00 0. -1.
        -13    1    4    4    0    0  0.11358565041E+00 -0.12765559520E+02  0.45600688561E+01  0.13556467223E+02  0.10566000000E+00 0.  1.
         14    1    4    4    0    0  0.11553341031E+00 -0.79262737270E+01  0.17721188931E+01  0.81227808376E+01  0.00000000000E+00 0. -1.
<mgrwt>
<rscale>  0 0.79707661E+02</rscale>
<asrwt>0</asrwt>
<pdfrwt beam="1">  1        1 0.23832958E-01 0.79707661E+02</pdfrwt>
<pdfrwt beam="2">  1       -2 0.15773769E-02 0.79707661E+02</pdfrwt>
<totfact> 0.16038922E+05</totfact>
</mgrwt>
</event>
<event>
 8    1  0.8577104E-018  0.8094597E+02  0.7818608E-02  0.1326388E+00
         -2   -1    0    0    0  501 -0.00000000000E+00  0.00000000000E+00  0.83599293466E+02  0.83599293505E+02  0.25500000000E-02 0.  1.
          1   -1    0    0  501    0  0.00000000000E+00 -0.00000000000E+00 -0.19594216584E+02  0.19594217232E+02  0.50400000000E-02 0. -1.
        -24    2    1    2    0    0 -0.35527136788E-14  0.00000000000E+00  0.64005076883E+02  0.10319351074E+03  0.80945974523E+02 0.  0.
         66    2    3    3    0    0 -0.21409325841E+02  0.33608472157E+02  0.40869944620E+02  0.57116030960E+02  0.19999964297E+01 0.  0.
         13    1    3    3    0    0  0.21409325841E+02 -0.33608472157E+02  0.23135132262E+02  0.46077479776E+02  0.10566000000E+00 0. -1.
         13    1    4    4    0    0 -0.51121004451E+01  0.70873010660E+01  0.94077297953E+01  0.12840558839E+02  0.10566000000E+00 0. -1.
        -13    1    4    4    0    0 -0.38577441092E+01  0.57344564579E+01  0.75704395007E+01  0.10251287663E+02  0.10566000000E+00 0.  1.
         14    1    4    4    0    0 -0.12439481287E+02  0.20786714633E+02  0.23891775324E+02  0.34024184458E+02  0.00000000000E+00 0. -1.
<mgrwt>
<rscale>  0 0.80945975E+02</rscale>
<asrwt>0</asrwt>
<pdfrwt beam="1">  1        1 0.30144949E-02 0.80945975E+02</pdfrwt>
<pdfrwt beam="2">  1       -2 0.12861430E-01 0.80945975E+02</pdfrwt>
<totfact> 0.10741876E+05</totfact>
</mgrwt>
</event>
<event>
 8    1  0.8577104E-018  0.8107052E+02  0.7818608E-02  0.1326041E+00
         -2   -1    0    0    0  501 -0.00000000000E+00  0.00000000000E+00  0.10129440126E+02  0.10129440447E+02  0.25500000000E-02 0.  1.
          1   -1    0    0  501    0  0.00000000000E+00 -0.00000000000E+00 -0.16221104748E+03  0.16221104756E+03  0.50400000000E-02 0. -1.
        -24    2    1    2    0    0  0.00000000000E+00 -0.71054273576E-14 -0.15208160735E+03  0.17234048800E+03  0.81070515668E+02 0.  0.
         66    2    3    3    0    0  0.16332008048E+02  0.36224966760E+02 -0.92841711614E+02  0.10100775278E+03  0.20000005709E+01 0.  0.
         13    1    3    3    0    0 -0.16332008048E+02 -0.36224966760E+02 -0.59239895739E+02  0.71332735226E+02  0.10566000000E+00 0. -1.
         13    1    4    4    0    0  0.42854660810E+01  0.83795083428E+01 -0.22449717613E+02  0.24343014697E+02  0.10566000000E+00 0. -1.
        -13    1    4    4    0    0  0.73369498302E+01  0.16250948834E+02 -0.39772049328E+02  0.43586135899E+02  0.10566000000E+00 0.  1.
        -14    1    4    4    0    0  0.47095921373E+01  0.11594509583E+02 -0.30619944673E+02  0.33078602183E+02  0.00000000000E+00 0.  1.
<mgrwt>
<rscale>  0 0.81070516E+02</rscale>
<asrwt>0</asrwt>
<pdfrwt beam="1">  1        1 0.24955544E-01 0.81070516E+02</pdfrwt>
<pdfrwt beam="2">  1       -2 0.15583755E-02 0.81070516E+02</pdfrwt>
<totfact> 0.15461438E+05</totfact>
</mgrwt>
</event>
<event>
 8    1  0.8577104E-018  0.7421236E+02  0.7818608E-02  0.1346328E+00
         -2   -1    0    0    0  501 -0.00000000000E+00  0.00000000000E+00  0.47099276128E+01  0.47099283031E+01  0.25500000000E-02 0.  1.
          1   -1    0    0  501    0  0.00000000000E+00 -0.00000000000E+00 -0.29233327174E+03  0.29233327178E+03  0.50400000000E-02 0. -1.
        -24    2    1    2    0    0 -0.17763568394E-14  0.00000000000E+00 -0.28762334413E+03  0.29704320009E+03  0.74212361711E+02 0.  0.
         66    2    3    3    0    0  0.15795362543E+02  0.32722845180E+02 -0.17348796896E+03  0.17726351440E+03  0.20000222735E+01 0.  0.
         13    1    3    3    0    0 -0.15795362543E+02 -0.32722845180E+02 -0.11413537517E+03  0.11977968569E+03  0.10566000000E+00 0. -1.
         13    1    4    4    0    0  0.44549745131E+01  0.78980052290E+01 -0.40652256407E+02  0.41651439345E+02  0.10566000000E+00 0.  1.
        -13    1    4    4    0    0  0.68467635707E+01  0.15112916992E+02 -0.79208355020E+02  0.80927455789E+02  0.10566000000E+00 0. -1.
        -14    1    4    4    0    0  0.44936244591E+01  0.97119229588E+01 -0.53627357528E+02  0.54684619261E+02  0.00000000000E+00 0.  1.
<mgrwt>
<rscale>  0 0.74212362E+02</rscale>
<asrwt>0</asrwt>
<pdfrwt beam="1">  1        1 0.44974335E-01 0.74212362E+02</pdfrwt>
<pdfrwt beam="2">  1       -2 0.72460453E-03 0.74212362E+02</pdfrwt>
<totfact> 0.21866461E+05</totfact>
</mgrwt>
</event>
<event>
 8    1  0.8577104E-018  0.8245203E+02  0.7818608E-02  0.1322234E+00
          1   -1    0    0  501    0  0.00000000000E+00  0.00000000000E+00  0.30008858319E+02  0.30008858742E+02  0.50400000000E-02 0. -1.
         -2   -1    0    0    0  501 -0.00000000000E+00 -0.00000000000E+00 -0.56636085517E+02  0.56636085574E+02  0.25500000000E-02 0.  1.
        -24    2    1    2    0    0  0.35527136788E-14 -0.22204460493E-15 -0.26627227198E+02  0.86644944316E+02  0.82452029371E+02 0.  0.
         66    2    3    3    0    0 -0.24316359042E+02  0.17023225809E+01 -0.48228028821E+02  0.54075188191E+02  0.19999986952E+01 0.  0.
         13    1    3    3    0    0  0.24316359042E+02 -0.17023225809E+01  0.21600801623E+02  0.32569756125E+02  0.10566000000E+00 0. -1.
         13    1    4    4    0    0 -0.47919033500E+01  0.20810242622E+00 -0.79464898788E+01  0.92824301649E+01  0.10566000000E+00 0. -1.
        -13    1    4    4    0    0 -0.11695443306E+02  0.11785638618E+01 -0.24156523246E+02  0.26864868998E+02  0.10566000000E+00 0.  1.
         14    1    4    4    0    0 -0.78290123854E+01  0.31565629287E+00 -0.16125015696E+02  0.17927889028E+02  0.00000000000E+00 0. -1.
<mgrwt>
<rscale>  0 0.82452029E+02</rscale>
<asrwt>0</asrwt>
<pdfrwt beam="1">  1        1 0.46167475E-02 0.82452029E+02</pdfrwt>
<pdfrwt beam="2">  1       -2 0.87132440E-02 0.82452029E+02</pdfrwt>
<totfact> 0.11086982E+05</totfact>
</mgrwt>
</event>
<event>
 8    1  0.8577104E-018  0.7694692E+02  0.7818608E-02  0.1337946E+00
          1   -1    0    0  501    0  0.00000000000E+00  0.00000000000E+00  0.45880577858E+02  0.45880578134E+02  0.50400000000E-02 0. -1.
         -2   -1    0    0    0  501 -0.00000000000E+00 -0.00000000000E+00 -0.32262175922E+02  0.32262176023E+02  0.25500000000E-02 0.  1.
        -24    2    1    2    0    0  0.00000000000E+00  0.00000000000E+00  0.13618401936E+02  0.78142754157E+02  0.76946924279E+02 0.  0.
         66    2    3    3    0    0 -0.23388308942E+01  0.18165249659E+02 -0.27516242657E+02  0.33114800895E+02  0.20000007980E+01 0.  0.
         13    1    3    3    0    0  0.23388308942E+01 -0.18165249659E+02  0.41134644593E+02  0.45027953262E+02  0.10566000000E+00 0. -1.
         13    1    4    4    0    0 -0.15955124508E+01  0.92248277072E+01 -0.13440725351E+02  0.16380090604E+02  0.10566000000E+00 0. -1.
        -13    1    4    4    0    0 -0.45491177327E+00  0.39334075737E+01 -0.51559172176E+01  0.65017910034E+01  0.10566000000E+00 0.  1.
         14    1    4    4    0    0 -0.28840667011E+00  0.50070143783E+01 -0.89196000891E+01  0.10232919287E+02  0.00000000000E+00 0. -1.
<mgrwt>
<rscale>  0 0.76946924E+02</rscale>
<asrwt>0</asrwt>
<pdfrwt beam="1">  1        1 0.70585505E-02 0.76946924E+02</pdfrwt>
<pdfrwt beam="2">  1       -2 0.49634117E-02 0.76946924E+02</pdfrwt>
<totfact> 0.14465350E+05</totfact>
</mgrwt>
</event>
<event>
 8    1  0.8577104E-018  0.7971294E+02  0.7818608E-02  0.1329868E+00
         -2   -1    0    0    0  501 -0.00000000000E+00  0.00000000000E+00  0.23936567960E+03  0.23936567961E+03  0.25500000000E-02 0.  1.
          1   -1    0    0  501    0  0.00000000000E+00 -0.00000000000E+00 -0.66364479915E+01  0.66364499053E+01  0.50400000000E-02 0. -1.
        -24    2    1    2    0    0 -0.35527136788E-14  0.35527136788E-14  0.23272923161E+03  0.24600212952E+03  0.79712937988E+02 0.  0.
         66    2    3    3    0    0 -0.17962804452E+02  0.19999894282E+02  0.20714355960E+03  0.20889019220E+03  0.20000000843E+01 0.  0.
         13    1    3    3    0    0  0.17962804452E+02 -0.19999894282E+02  0.25585672007E+02  0.37111937313E+02  0.10566000000E+00 0. -1.
         13    1    4    4    0    0 -0.14098767486E+02  0.14732947557E+02  0.15414318601E+03  0.15548623073E+03  0.10566000000E+00 0. -1.
        -13    1    4    4    0    0 -0.21573400830E+01  0.25604022315E+01  0.26216556139E+02  0.26429694581E+02  0.10566000000E+00 0.  1.
         14    1    4    4    0    0 -0.17066968830E+01  0.27065444936E+01  0.26783817450E+02  0.26974266896E+02  0.00000000000E+00 0. -1.
<mgrwt>
<rscale>  0 0.79712938E+02</rscale>
<asrwt>0</asrwt>
<pdfrwt beam="1">  1        1 0.10209923E-02 0.79712938E+02</pdfrwt>
<pdfrwt beam="2">  1       -2 0.36825483E-01 0.79712938E+02</pdfrwt>
<totfact> 0.79438478E+04</totfact>
</mgrwt>
</event>
<event>
 8    1  0.8577104E-018  0.8073202E+02  0.7818608E-02  0.1326987E+00
          1   -1    0    0  501    0  0.00000000000E+00  0.00000000000E+00  0.25010862949E+02  0.25010863457E+02  0.50400000000E-02 0. -1.
         -2   -1    0    0    0  501 -0.00000000000E+00 -0.00000000000E+00 -0.65148278188E+02  0.65148278238E+02  0.25500000000E-02 0.  1.
        -24    2    1    2    0    0 -0.35527136788E-14  0.88817841970E-15 -0.40137415239E+02  0.90159141695E+02  0.80732017992E+02 0.  0.
         66    2    3    3    0    0  0.25210789720E+02  0.63311686139E+01 -0.54533716474E+02  0.60444965489E+02  0.20000015495E+01 0.  0.
         13    1    3    3    0    0 -0.25210789720E+02 -0.63311686139E+01  0.14396301235E+02  0.29714176206E+02  0.10566000000E+00 0. -1.
         13    1    4    4    0    0  0.60490707455E+01  0.20788306790E+01 -0.12944739801E+02  0.14439191336E+02  0.10566000000E+00 0. -1.
        -13    1    4    4    0    0  0.11962558600E+02  0.32178238142E+01 -0.26838526214E+02  0.29559682876E+02  0.10566000000E+00 0.  1.
         14    1    4    4    0    0  0.71991603746E+01  0.10345141206E+01 -0.14750450459E+02  0.16446091277E+02  0.00000000000E+00 0. -1.
<mgrwt>
<rscale>  0 0.80732018E+02</rscale>
<asrwt>0</asrwt>
<pdfrwt beam="1">  1        1 0.38478251E-02 0.80732018E+02</pdfrwt>
<pdfrwt beam="2">  1       -2 0.10022812E-01 0.80732018E+02</pdfrwt>
<totfact> 0.11389043E+05</totfact>
</mgrwt>
</event>
<event>
 8    1  0.8577104E-018  0.7532955E+02  0.7818608E-02  0.1342854E+00
          1   -1    0    0  501    0  0.00000000000E+00  0.00000000000E+00  0.13508782074E+02  0.13508783014E+02  0.50400000000E-02 0. -1.
         -2   -1    0    0    0  501 -0.00000000000E+00 -0.00000000000E+00 -0.10501577746E+03  0.10501577749E+03  0.25500000000E-02 0.  1.
        -24    2    1    2    0    0  0.35527136788E-14 -0.44408920985E-15 -0.91506995390E+02  0.11852456051E+03  0.75329550897E+02 0.  0.
         66    2    3    3    0    0 -0.29601683011E+02  0.30304310218E+01 -0.95224024699E+01  0.31306857090E+02  0.20000006976E+01 0.  0.
         13    1    3    3    0    0  0.29601683011E+02 -0.30304310218E+01 -0.81984592920E+02  0.87217703419E+02  0.10566000000E+00 0. -1.
         13    1    4    4    0    0 -0.72337837316E+00  0.69519637786E-02 -0.11710614583E+00  0.74040697292E+00  0.10566000000E+00 0. -1.
        -13    1    4    4    0    0 -0.97639364148E+01  0.14452695692E+01 -0.38905772713E+01  0.10609948821E+02  0.10566000000E+00 0.  1.
        -14    1    4    4    0    0 -0.19114368223E+02  0.15782094889E+01 -0.55147190527E+01  0.19956501296E+02  0.00000000000E+00 0.  1.
<mgrwt>
<rscale>  0 0.75329551E+02</rscale>
<asrwt>0</asrwt>
<pdfrwt beam="1">  1        1 0.20782743E-02 0.75329551E+02</pdfrwt>
<pdfrwt beam="2">  1       -2 0.16156273E-01 0.75329551E+02</pdfrwt>
<totfact> 0.12226424E+05</totfact>
</mgrwt>
</event>
<event>
 8    1  0.8577104E-018  0.8013744E+02  0.7818608E-02  0.1328662E+00
         -2   -1    0    0    0  501 -0.00000000000E+00  0.00000000000E+00  0.30759848604E+01  0.30759859174E+01  0.25500000000E-02 0.  1.
          1   -1    0    0  501    0  0.00000000000E+00 -0.00000000000E+00 -0.52194735232E+03  0.52194735234E+03  0.50400000000E-02 0. -1.
        -24    2    1    2    0    0  0.00000000000E+00  0.00000000000E+00 -0.51887136746E+03  0.52502333826E+03  0.80137442872E+02 0.  0.
         66    2    3    3    0    0  0.16539241792E+02  0.22180412869E+02 -0.44924995587E+03  0.45010558769E+03  0.19999979159E+01 0.  0.
         13    1    3    3    0    0 -0.16539241792E+02 -0.22180412869E+02 -0.69621411590E+02  0.74917750567E+02  0.10566000000E+00 0. -1.
         13    1    4    4    0    0  0.36805961531E+01  0.41286566773E+01 -0.93333498426E+02  0.93497303097E+02  0.10566000000E+00 0. -1.
        -13    1    4    4    0    0  0.84536666115E+01  0.12491860848E+02 -0.24984033950E+03  0.25029526058E+03  0.10566000000E+00 0.  1.
         14    1    4    4    0    0  0.44049790272E+01  0.55598953444E+01 -0.10607611794E+03  0.10631302401E+03  0.00000000000E+00 0. -1.
<mgrwt>
<rscale>  0 0.80137443E+02</rscale>
<asrwt>0</asrwt>
<pdfrwt beam="1">  1        1 0.80299523E-01 0.80137443E+02</pdfrwt>
<pdfrwt beam="2">  1       -2 0.47322894E-03 0.80137443E+02</pdfrwt>
<totfact> 0.19614816E+05</totfact>
</mgrwt>
</event>
<event>
 8    1  0.8577104E-018  0.7796824E+02  0.7818608E-02  0.1334918E+00
          1   -1    0    0  501    0  0.00000000000E+00  0.00000000000E+00  0.62953893769E+01  0.62953913944E+01  0.50400000000E-02 0. -1.
         -2   -1    0    0    0  501 -0.00000000000E+00 -0.00000000000E+00 -0.24140865727E+03  0.24140865729E+03  0.25500000000E-02 0.  1.
        -24    2    1    2    0    0  0.00000000000E+00 -0.35527136788E-14 -0.23511326790E+03  0.24770404868E+03  0.77968243485E+02 0.  0.
         66    2    3    3    0    0 -0.17364639219E+02 -0.21991172040E+02 -0.20362479062E+03  0.20555339378E+03  0.19999997716E+01 0.  0.
         13    1    3    3    0    0  0.17364639219E+02  0.21991172040E+02 -0.31488477280E+02  0.42150654898E+02  0.10566000000E+00 0. -1.
         13    1    4    4    0    0 -0.23173321735E+00 -0.87706411604E-01 -0.14459856116E+01  0.14708606743E+01  0.10566000000E+00 0. -1.
        -13    1    4    4    0    0 -0.46176576504E+01 -0.60982121509E+01 -0.55632876363E+02  0.56156380315E+02  0.10566000000E+00 0.  1.
         14    1    4    4    0    0 -0.12515248351E+02 -0.15805253478E+02 -0.14654592864E+03  0.14792615279E+03  0.00000000000E+00 0. -1.
<mgrwt>
<rscale>  0 0.77968243E+02</rscale>
<asrwt>0</asrwt>
<pdfrwt beam="1">  1        1 0.96852179E-03 0.77968243E+02</pdfrwt>
<pdfrwt beam="2">  1       -2 0.37139786E-01 0.77968243E+02</pdfrwt>
<totfact> 0.83774731E+04</totfact>
</mgrwt>
</event>
<event>
 8    1  0.8577104E-018  0.7713565E+02  0.7818608E-02  0.1337382E+00
          1   -1    0    0  501    0  0.00000000000E+00  0.00000000000E+00  0.88756301820E+02  0.88756301963E+02  0.50400000000E-02 0. -1.
         -2   -1    0    0    0  501 -0.00000000000E+00 -0.00000000000E+00 -0.16759113424E+02  0.16759113618E+02  0.25500000000E-02 0.  1.
        -24    2    1    2    0    0  0.35527136788E-14 -0.44408920985E-15  0.71997188395E+02  0.10551541558E+03  0.77135645381E+02 0.  0.
         66    2    3    3    0    0 -0.29701043556E+02  0.28881997926E+01  0.26561722302E+01  0.30025804553E+02  0.20000004402E+01 0.  0.
         13    1    3    3    0    0  0.29701043556E+02 -0.28881997926E+01  0.69341016165E+02  0.75489611028E+02  0.10566000000E+00 0. -1.
         13    1    4    4    0    0 -0.61731943939E+01  0.48767473423E+00  0.53610028924E+00  0.62164880139E+01  0.10566000000E+00 0. -1.
        -13    1    4    4    0    0 -0.16100615573E+02  0.18354571094E+01  0.65874333731E+00  0.16218626066E+02  0.10566000000E+00 0.  1.
        -14    1    4    4    0    0 -0.74272335886E+01  0.56506794896E+00  0.14613286037E+01  0.75906904728E+01  0.00000000000E+00 0.  1.
<mgrwt>
<rscale>  0 0.77135645E+02</rscale>
<asrwt>0</asrwt>
<pdfrwt beam="1">  1        1 0.13654816E-01 0.77135645E+02</pdfrwt>
<pdfrwt beam="2">  1       -2 0.25783251E-02 0.77135645E+02</pdfrwt>
<totfact> 0.15905380E+05</totfact>
</mgrwt>
</event>
<event>
 8    1  0.8577104E-018  0.7902273E+02  0.7818608E-02  0.1331848E+00
          1   -1    0    0  501    0  0.00000000000E+00  0.00000000000E+00  0.75955599995E+01  0.75955616716E+01  0.50400000000E-02 0. -1.
         -2   -1    0    0    0  501 -0.00000000000E+00 -0.00000000000E+00 -0.20553424889E+03  0.20553424890E+03  0.25500000000E-02 0.  1.
        -24    2    1    2    0    0  0.56378512969E-16  0.00000000000E+00 -0.19793868889E+03  0.21312981057E+03  0.79022728357E+02 0.  0.
         66    2    3    3    0    0  0.34450595659E-02  0.36689105033E+02 -0.13839985214E+03  0.14319430682E+03  0.19999983573E+01 0.  0.
         13    1    3    3    0    0 -0.34450595659E-02 -0.36689105033E+02 -0.59538836746E+02  0.69935503753E+02  0.10566000000E+00 0. -1.
         13    1    4    4    0    0 -0.48849410966E+00  0.92936612749E+01 -0.33482011072E+02  0.34751503505E+02  0.10566000000E+00 0. -1.
        -13    1    4    4    0    0 -0.36950213556E+00  0.69518877886E+01 -0.26702981022E+02  0.27595753933E+02  0.10566000000E+00 0.  1.
         14    1    4    4    0    0  0.86144130479E+00  0.20443555970E+02 -0.78214860046E+02  0.80847049383E+02  0.00000000000E+00 0. -1.
<mgrwt>
<rscale>  0 0.79022728E+02</rscale>
<asrwt>0</asrwt>
<pdfrwt beam="1">  1        1 0.11685480E-02 0.79022728E+02</pdfrwt>
<pdfrwt beam="2">  1       -2 0.31620649E-01 0.79022728E+02</pdfrwt>
<totfact> 0.86839539E+04</totfact>
</mgrwt>
</event>
<event>
 8    1  0.8577104E-018  0.7835264E+02  0.7818608E-02  0.1333792E+00
         -2   -1    0    0    0  501 -0.00000000000E+00  0.00000000000E+00  0.21335216936E+02  0.21335217089E+02  0.25500000000E-02 0.  1.
          1   -1    0    0  501    0  0.00000000000E+00 -0.00000000000E+00 -0.71936658490E+02  0.71936658667E+02  0.50400000000E-02 0. -1.
        -24    2    1    2    0    0  0.00000000000E+00  0.00000000000E+00 -0.50601441554E+02  0.93271875756E+02  0.78352644624E+02 0.  0.
         66    2    3    3    0    0 -0.22759585118E+02 -0.11945858325E+02  0.98368185858E+01  0.27594659777E+02  0.20000006176E+01 0.  0.
         13    1    3    3    0    0  0.22759585118E+02  0.11945858325E+02 -0.60438260140E+02  0.65677215978E+02  0.10566000000E+00 0. -1.
         13    1    4    4    0    0 -0.10172894248E+02 -0.47844484914E+01  0.35444354832E+01  0.11787828964E+02  0.10566000000E+00 0. -1.
        -13    1    4    4    0    0 -0.82627674042E+01 -0.45340187382E+01  0.37472888239E+01  0.10143174486E+02  0.10566000000E+00 0.  1.
        -14    1    4    4    0    0 -0.43239234660E+01 -0.26273910952E+01  0.25450942787E+01  0.56636563274E+01  0.00000000000E+00 0.  1.
<mgrwt>
<rscale>  0 0.78352645E+02</rscale>
<asrwt>0</asrwt>
<pdfrwt beam="1">  1        1 0.11067178E-01 0.78352645E+02</pdfrwt>
<pdfrwt beam="2">  1       -2 0.32823411E-02 0.78352645E+02</pdfrwt>
<totfact> 0.14745239E+05</totfact>
</mgrwt>
</event>
<event>
 8    1  0.8577104E-018  0.7847684E+02  0.7818608E-02  0.1333430E+00
          1   -1    0    0  501    0  0.00000000000E+00  0.00000000000E+00  0.18117036529E+03  0.18117036536E+03  0.50400000000E-02 0. -1.
         -2   -1    0    0    0  501 -0.00000000000E+00 -0.00000000000E+00 -0.84983747910E+01  0.84983751736E+01  0.25500000000E-02 0.  1.
        -24    2    1    2    0    0  0.00000000000E+00 -0.71054273576E-14  0.17267199050E+03  0.18966874054E+03  0.78476842654E+02 0.  0.
         66    2    3    3    0    0  0.14177828011E+02  0.36322752694E+02  0.76340616971E+02  0.85745221251E+02  0.19999993693E+01 0.  0.
         13    1    3    3    0    0 -0.14177828011E+02 -0.36322752694E+02  0.96331373531E+02  0.10392351929E+03  0.10566000000E+00 0. -1.
         13    1    4    4    0    0  0.95888301875E+00  0.17877487207E+01  0.43766747819E+01  0.48251371290E+01  0.10566000000E+00 0. -1.
        -13    1    4    4    0    0  0.86279215913E+01  0.21188201377E+02  0.43530061773E+02  0.49175790289E+02  0.10566000000E+00 0.  1.
         14    1    4    4    0    0  0.45910234007E+01  0.13346802596E+02  0.28433880416E+02  0.31744293832E+02  0.00000000000E+00 0. -1.
<mgrwt>
<rscale>  0 0.78476843E+02</rscale>
<asrwt>0</asrwt>
<pdfrwt beam="1">  1        1 0.27872361E-01 0.78476843E+02</pdfrwt>
<pdfrwt beam="2">  1       -2 0.13074424E-02 0.78476843E+02</pdfrwt>
<totfact> 0.17216113E+05</totfact>
</mgrwt>
</event>
<event>
 8    1  0.8577104E-018  0.8500996E+02  0.7818608E-02  0.1315406E+00
          1   -1    0    0  501    0  0.00000000000E+00  0.00000000000E+00  0.36516078146E+03  0.36516078150E+03  0.50400000000E-02 0. -1.
         -2   -1    0    0    0  501 -0.00000000000E+00 -0.00000000000E+00 -0.49476103399E+01  0.49476109970E+01  0.25500000000E-02 0.  1.
        -24    2    1    2    0    0  0.88817841970E-15  0.71054273576E-14  0.36021317112E+03  0.37010839250E+03  0.85009961443E+02 0.  0.
         66    2    3    3    0    0 -0.59339035363E+01 -0.41958227591E+02  0.16717082297E+03  0.17246967306E+03  0.20000001422E+01 0.  0.
         13    1    3    3    0    0  0.59339035363E+01  0.41958227591E+02  0.19304234816E+03  0.19763871944E+03  0.10566000000E+00 0. -1.
         13    1    4    4    0    0 -0.42187325031E+00 -0.49578059420E+01  0.21929610649E+02  0.22487258704E+02  0.10566000000E+00 0. -1.
        -13    1    4    4    0    0 -0.45557521816E+01 -0.29125089584E+02  0.11461853450E+03  0.11834882905E+03  0.10566000000E+00 0.  1.
         14    1    4    4    0    0 -0.95627810443E+00 -0.78753320654E+01  0.30622677814E+02  0.31633585308E+02  0.00000000000E+00 0. -1.
<mgrwt>
<rscale>  0 0.85009961E+02</rscale>
<asrwt>0</asrwt>
<pdfrwt beam="1">  1        1 0.56178585E-01 0.85009961E+02</pdfrwt>
<pdfrwt beam="2">  1       -2 0.76117084E-03 0.85009961E+02</pdfrwt>
<totfact> 0.15933890E+05</totfact>
</mgrwt>
</event>
<event>
 8    1  0.8577104E-018  0.8039487E+02  0.7818608E-02  0.1327935E+00
          1   -1    0    0  501    0  0.00000000000E+00  0.00000000000E+00  0.34544227843E+01  0.34544264609E+01  0.50400000000E-02 0. -1.
         -2   -1    0    0    0  501 -0.00000000000E+00 -0.00000000000E+00 -0.46775774746E+03  0.46775774746E+03  0.25500000000E-02 0.  1.
        -24    2    1    2    0    0  0.00000000000E+00  0.00000000000E+00 -0.46430332467E+03  0.47121217392E+03  0.80394872678E+02 0.  0.
         66    2    3    3    0    0 -0.14237379904E+02  0.71193564615E+01 -0.44848112953E+03  0.44876799325E+03  0.19999995548E+01 0.  0.
         13    1    3    3    0    0  0.14237379904E+02 -0.71193564615E+01 -0.15822195141E+02  0.22444180673E+02  0.10566000000E+00 0. -1.
         13    1    4    4    0    0 -0.54115561706E+01  0.27578283585E+01 -0.15895899842E+03  0.15907502916E+03  0.10566000000E+00 0. -1.
        -13    1    4    4    0    0 -0.21676956703E+01  0.10805190254E+01 -0.55017154644E+02  0.55070544714E+02  0.10566000000E+00 0.  1.
        -14    1    4    4    0    0 -0.66581280636E+01  0.32810090775E+01 -0.23450497646E+03  0.23462241938E+03  0.00000000000E+00 0.  1.
<mgrwt>
<rscale>  0 0.80394873E+02</rscale>
<asrwt>0</asrwt>
<pdfrwt beam="1">  1        1 0.53145031E-03 0.80394873E+02</pdfrwt>
<pdfrwt beam="2">  1       -2 0.71962680E-01 0.80394873E+02</pdfrwt>
<totfact> 0.52304790E+04</totfact>
</mgrwt>
</event>
<event>
 8    1  0.8577104E-018  0.7809008E+02  0.7818608E-02  0.1334561E+00
          1   -1    0    0  501    0  0.00000000000E+00  0.00000000000E+00  0.50220900418E+01  0.50220925708E+01  0.50400000000E-02 0. -1.
         -2   -1    0    0    0  501 -0.00000000000E+00 -0.00000000000E+00 -0.30356178685E+03  0.30356178686E+03  0.25500000000E-02 0.  1.
        -24    2    1    2    0    0 -0.71054273576E-14  0.00000000000E+00 -0.29853969681E+03  0.30858387943E+03  0.78090076672E+02 0.  0.
         66    2    3    3    0    0 -0.23282737184E+02  0.82157982045E+01 -0.26876489951E+03  0.26990397626E+03  0.20000006648E+01 0.  0.
         13    1    3    3    0    0  0.23282737184E+02 -0.82157982045E+01 -0.29774797295E+02  0.38679903166E+02  0.10566000000E+00 0. -1.
         13    1    4    4    0    0 -0.48966694289E+01  0.12216697446E+01 -0.58567941794E+02  0.58785073092E+02  0.10566000000E+00 0. -1.
        -13    1    4    4    0    0 -0.20488856281E+01  0.10457690974E+01 -0.27762906305E+02  0.27858242871E+02  0.10566000000E+00 0.  1.
        -14    1    4    4    0    0 -0.16337182127E+02  0.59483593625E+01 -0.18243405141E+03  0.18326066030E+03  0.00000000000E+00 0.  1.
<mgrwt>
<rscale>  0 0.78090077E+02</rscale>
<asrwt>0</asrwt>
<pdfrwt beam="1">  1        1 0.77262967E-03 0.78090077E+02</pdfrwt>
<pdfrwt beam="2">  1       -2 0.46701799E-01 0.78090077E+02</pdfrwt>
<totfact> 0.74312026E+04</totfact>
</mgrwt>
</event>
<event>
 8    1  0.8577104E-018  0.7879181E+02  0.7818608E-02  0.1332515E+00
         -2   -1    0    0    0  501 -0.00000000000E+00  0.00000000000E+00  0.48260950017E+02  0.48260950084E+02  0.25500000000E-02 0.  1.
          1   -1    0    0  501    0  0.00000000000E+00 -0.00000000000E+00 -0.32159274648E+02  0.32159275043E+02  0.50400000000E-02 0. -1.
        -24    2    1    2    0    0  0.00000000000E+00  0.00000000000E+00  0.16101675369E+02  0.80420225127E+02  0.78791805791E+02 0.  0.
         66    2    3    3    0    0  0.36942678354E+02  0.98656275620E+01 -0.15154402924E+01  0.38319559819E+02  0.20000035683E+01 0.  0.
         13    1    3    3    0    0 -0.36942678354E+02 -0.98656275620E+01  0.17617115661E+02  0.42100665308E+02  0.10566000000E+00 0. -1.
         13    1    4    4    0    0  0.15292686262E+01  0.40421886009E+00  0.63425313768E-01  0.15865819311E+01  0.10566000000E+00 0.  1.
        -13    1    4    4    0    0  0.34976427288E+02  0.93553057360E+01 -0.13570012301E+01  0.36231544648E+02  0.10566000000E+00 0.  1.
        -14    1    4    4    0    0  0.43698243996E+00  0.10610296586E+00 -0.22186437607E+00  0.50143323939E+00  0.00000000000E+00 0.  1.
<mgrwt>
<rscale>  0 0.78791806E+02</rscale>
<asrwt>0</asrwt>
<pdfrwt beam="1">  1        1 0.49475808E-02 0.78791806E+02</pdfrwt>
<pdfrwt beam="2">  1       -2 0.74247616E-02 0.78791806E+02</pdfrwt>
<totfact> 0.12786262E+05</totfact>
</mgrwt>
</event>
<event>
 8    1  0.8577104E-018  0.8145401E+02  0.7818608E-02  0.1324975E+00
         -2   -1    0    0    0  501 -0.00000000000E+00  0.00000000000E+00  0.34056327746E+03  0.34056327747E+03  0.25500000000E-02 0.  1.
          1   -1    0    0  501    0  0.00000000000E+00 -0.00000000000E+00 -0.48704262944E+01  0.48704289022E+01  0.50400000000E-02 0. -1.
        -24    2    1    2    0    0 -0.44408920985E-15  0.00000000000E+00  0.33569285116E+03  0.34543370637E+03  0.81454006494E+02 0.  0.
         66    2    3    3    0    0 -0.34221496958E+01  0.10312435298E+02  0.33429581992E+03  0.33447832912E+03  0.20000017667E+01 0.  0.
         13    1    3    3    0    0  0.34221496958E+01 -0.10312435298E+02  0.13970312454E+01  0.10955377248E+02  0.10566000000E+00 0. -1.
         13    1    4    4    0    0 -0.79038205428E+00  0.92645451011E+00  0.36271947451E+02  0.36292538596E+02  0.10566000000E+00 0. -1.
        -13    1    4    4    0    0 -0.19069926180E+01  0.75957835423E+01  0.22459758646E+03  0.22473410857E+03  0.10566000000E+00 0.  1.
        -14    1    4    4    0    0 -0.72477502354E+00  0.17901972452E+01  0.73426286005E+02  0.73451681952E+02  0.00000000000E+00 0.  1.
<mgrwt>
<rscale>  0 0.81454006E+02</rscale>
<asrwt>0</asrwt>
<pdfrwt beam="1">  1        1 0.74929665E-03 0.81454006E+02</pdfrwt>
<pdfrwt beam="2">  1       -2 0.52394344E-01 0.81454006E+02</pdfrwt>
<totfact> 0.62403117E+04</totfact>
</mgrwt>
</event>
<event>
 8    1  0.8577104E-018  0.8203538E+02  0.7818608E-02  0.1323373E+00
          1   -1    0    0  501    0  0.00000000000E+00  0.00000000000E+00  0.14190226379E+03  0.14190226388E+03  0.50400000000E-02 0. -1.
         -2   -1    0    0    0  501 -0.00000000000E+00 -0.00000000000E+00 -0.11856407463E+02  0.11856407738E+02  0.25500000000E-02 0.  1.
        -24    2    1    2    0    0  0.35527136788E-14  0.35527136788E-14  0.13004585633E+03  0.15375867162E+03  0.82035384742E+02 0.  0.
         66    2    3    3    0    0 -0.20239200403E+02 -0.31247227893E+02  0.97222547651E+02  0.10412606902E+03  0.19999985247E+01 0.  0.
         13    1    3    3    0    0  0.20239200403E+02  0.31247227893E+02  0.32823308676E+02  0.49632602596E+02  0.10566000000E+00 0. -1.
         13    1    4    4    0    0 -0.62237372555E+01 -0.83332304864E+01  0.26676231912E+02  0.28632326990E+02  0.10566000000E+00 0. -1.
        -13    1    4    4    0    0 -0.37895270530E+01 -0.59391453112E+01  0.17350532955E+02  0.18726615288E+02  0.10566000000E+00 0.  1.
        -14    1    4    4    0    0 -0.10225936095E+02 -0.16974852096E+02  0.53195782784E+02  0.56767126743E+02  0.00000000000E+00 0.  1.
<mgrwt>
<rscale>  0 0.82035385E+02</rscale>
<asrwt>0</asrwt>
<pdfrwt beam="1">  1        1 0.21831118E-01 0.82035385E+02</pdfrwt>
<pdfrwt beam="2">  1       -2 0.18240627E-02 0.82035385E+02</pdfrwt>
<totfact> 0.14610938E+05</totfact>
</mgrwt>
</event>
<event>
 8    1  0.8577104E-018  0.7955018E+02  0.7818608E-02  0.1330333E+00
          1   -1    0    0  501    0  0.00000000000E+00  0.00000000000E+00  0.54846868109E+01  0.54846891266E+01  0.50400000000E-02 0. -1.
         -2   -1    0    0    0  501 -0.00000000000E+00 -0.00000000000E+00 -0.28844992234E+03  0.28844992235E+03  0.25500000000E-02 0.  1.
        -24    2    1    2    0    0  0.00000000000E+00  0.35527136788E-14 -0.28296523553E+03  0.29393461148E+03  0.79550181059E+02 0.  0.
         66    2    3    3    0    0  0.27380062697E+02 -0.22654064661E+02 -0.75766424842E+02  0.83710367412E+02  0.19999999897E+01 0.  0.
         13    1    3    3    0    0 -0.27380062697E+02  0.22654064661E+02 -0.20719881068E+03  0.21022424406E+03  0.10566000000E+00 0. -1.
         13    1    4    4    0    0  0.14878701310E+02 -0.13360211978E+02 -0.42676761325E+02  0.47129482683E+02  0.10566000000E+00 0. -1.
        -13    1    4    4    0    0  0.31313704855E+01 -0.26306330017E+01 -0.91841947740E+01  0.10054168727E+02  0.10566000000E+00 0.  1.
         14    1    4    4    0    0  0.93699909018E+01 -0.66632196808E+01 -0.23905468744E+02  0.26526716002E+02  0.00000000000E+00 0. -1.
<mgrwt>
<rscale>  0 0.79550181E+02</rscale>
<asrwt>0</asrwt>
<pdfrwt beam="1">  1        1 0.84379838E-03 0.79550181E+02</pdfrwt>
<pdfrwt beam="2">  1       -2 0.44376899E-01 0.79550181E+02</pdfrwt>
<totfact> 0.72817952E+04</totfact>
</mgrwt>
</event>
<event>
 8    1  0.8577104E-018  0.8471015E+02  0.7818608E-02  0.1316192E+00
          1   -1    0    0  501    0  0.00000000000E+00  0.00000000000E+00  0.33461730358E+02  0.33461730737E+02  0.50400000000E-02 0. -1.
         -2   -1    0    0    0  501 -0.00000000000E+00 -0.00000000000E+00 -0.53612058387E+02  0.53612058448E+02  0.25500000000E-02 0.  1.
        -24    2    1    2    0    0  0.00000000000E+00  0.00000000000E+00 -0.20150328030E+02  0.87073789185E+02  0.84710147228E+02 0.  0.
         66    2    3    3    0    0 -0.33292575138E+02  0.25902706929E+02 -0.64318625805E+01  0.42716678775E+02  0.20000009386E+01 0.  0.
         13    1    3    3    0    0  0.33292575138E+02 -0.25902706929E+02 -0.13718465449E+02  0.44357110410E+02  0.10566000000E+00 0. -1.
         13    1    4    4    0    0 -0.18946701612E+02  0.15378059663E+02 -0.29367694415E+01  0.24578405151E+02  0.10566000000E+00 0. -1.
        -13    1    4    4    0    0 -0.89317719599E+01  0.66105480815E+01 -0.19721085254E+01  0.11286109709E+02  0.10566000000E+00 0.  1.
         14    1    4    4    0    0 -0.54141015668E+01  0.39140991842E+01 -0.15229846136E+01  0.68521639160E+01  0.00000000000E+00 0. -1.
<mgrwt>
<rscale>  0 0.84710147E+02</rscale>
<asrwt>0</asrwt>
<pdfrwt beam="1">  1        1 0.51479586E-02 0.84710147E+02</pdfrwt>
<pdfrwt beam="2">  1       -2 0.82480090E-02 0.84710147E+02</pdfrwt>
<totfact> 0.10460883E+05</totfact>
</mgrwt>
</event>
<event>
 8    1  0.8577104E-018  0.8000452E+02  0.7818608E-02  0.1329039E+00
         -2   -1    0    0    0  501 -0.00000000000E+00  0.00000000000E+00  0.43802542975E+01  0.43802550397E+01  0.25500000000E-02 0.  1.
          1   -1    0    0  501    0  0.00000000000E+00 -0.00000000000E+00 -0.36531679896E+03  0.36531679899E+03  0.50400000000E-02 0. -1.
        -24    2    1    2    0    0 -0.71054273576E-14  0.00000000000E+00 -0.36093654466E+03  0.36969705403E+03  0.80004515428E+02 0.  0.
         66    2    3    3    0    0 -0.39763813550E+02  0.32908904346E+01 -0.19207273361E+03  0.19618339845E+03  0.20000005338E+01 0.  0.
         13    1    3    3    0    0  0.39763813550E+02 -0.32908904346E+01 -0.16886381105E+03  0.17351365558E+03  0.10566000000E+00 0. -1.
         13    1    4    4    0    0 -0.29627358316E+01  0.31230660561E-01 -0.15665583289E+02  0.15943664660E+02  0.10566000000E+00 0. -1.
        -13    1    4    4    0    0 -0.11125800998E+02  0.14255817466E+01 -0.55795415808E+02  0.56911820568E+02  0.10566000000E+00 0.  1.
        -14    1    4    4    0    0 -0.25675276721E+02  0.18340780275E+01 -0.12061173452E+03  0.12332791322E+03  0.00000000000E+00 0.  1.
<mgrwt>
<rscale>  0 0.80004515E+02</rscale>
<asrwt>0</asrwt>
<pdfrwt beam="1">  1        1 0.56202561E-01 0.80004515E+02</pdfrwt>
<pdfrwt beam="2">  1       -2 0.67388562E-03 0.80004515E+02</pdfrwt>
<totfact> 0.18701101E+05</totfact>
</mgrwt>
</event>
<event>
 8    1  0.8577104E-018  0.7990859E+02  0.7818608E-02  0.1329311E+00
         -2   -1    0    0    0  501 -0.00000000000E+00  0.00000000000E+00  0.15240828561E+02  0.15240828774E+02  0.25500000000E-02 0.  1.
          1   -1    0    0  501    0  0.00000000000E+00 -0.00000000000E+00 -0.10474138505E+03  0.10474138517E+03  0.50400000000E-02 0. -1.
        -24    2    1    2    0    0 -0.35527136788E-14  0.00000000000E+00 -0.89500556490E+02  0.11998221395E+03  0.79908585593E+02 0.  0.
         66    2    3    3    0    0  0.20923761474E+02 -0.19629756104E+02 -0.30807734863E+01  0.28924423630E+02  0.19999995309E+01 0.  0.
         13    1    3    3    0    0 -0.20923761474E+02  0.19629756104E+02 -0.86419783004E+02  0.91057790317E+02  0.10566000000E+00 0. -1.
         13    1    4    4    0    0  0.48745143890E+01 -0.52439525930E+01 -0.77919612444E+00  0.72026550634E+01  0.10566000000E+00 0. -1.
        -13    1    4    4    0    0  0.13027245883E+02 -0.11617427695E+02 -0.24171928100E+01  0.17621797487E+02  0.10566000000E+00 0.  1.
         14    1    4    4    0    0  0.30220012018E+01 -0.27683758158E+01  0.11561544815E+00  0.40999710796E+01  0.00000000000E+00 0. -1.
<mgrwt>
<rscale>  0 0.79908586E+02</rscale>
<asrwt>0</asrwt>
<pdfrwt beam="1">  1        1 0.16114059E-01 0.79908586E+02</pdfrwt>
<pdfrwt beam="2">  1       -2 0.23447429E-02 0.79908586E+02</pdfrwt>
<totfact> 0.14860454E+05</totfact>
</mgrwt>
</event>
<event>
 8    1  0.8577104E-018  0.7801877E+02  0.7818608E-02  0.1334770E+00
         -2   -1    0    0    0  501 -0.00000000000E+00  0.00000000000E+00  0.99179409665E+02  0.99179409698E+02  0.25500000000E-02 0.  1.
          1   -1    0    0  501    0  0.00000000000E+00 -0.00000000000E+00 -0.15343224976E+02  0.15343225804E+02  0.50400000000E-02 0. -1.
        -24    2    1    2    0    0  0.17763568394E-14  0.00000000000E+00  0.83836184689E+02  0.11452263550E+03  0.78018768120E+02 0.  0.
         66    2    3    3    0    0  0.15366784860E+02 -0.34497323862E+02  0.27749984449E+02  0.46906983083E+02  0.19999986316E+01 0.  0.
         13    1    3    3    0    0 -0.15366784860E+02  0.34497323862E+02  0.56086200240E+02  0.67615652418E+02  0.10566000000E+00 0. -1.
         13    1    4    4    0    0  0.71765468660E+00 -0.20436165164E+01  0.11539442691E+01  0.24564503103E+01  0.10566000000E+00 0. -1.
        -13    1    4    4    0    0  0.13899527146E+02 -0.31150529082E+02  0.25388068620E+02  0.42521965022E+02  0.10566000000E+00 0.  1.
        -14    1    4    4    0    0  0.74960302756E+00 -0.13031782627E+01  0.12079715594E+01  0.19285677513E+01  0.00000000000E+00 0.  1.
<mgrwt>
<rscale>  0 0.78018768E+02</rscale>
<asrwt>0</asrwt>
<pdfrwt beam="1">  1        1 0.23604963E-02 0.78018768E+02</pdfrwt>
<pdfrwt beam="2">  1       -2 0.15258370E-01 0.78018768E+02</pdfrwt>
<totfact> 0.11338947E+05</totfact>
</mgrwt>
</event>
<event>
 8    1  0.8577104E-018  0.8116198E+02  0.7818608E-02  0.1325786E+00
         -2   -1    0    0    0  501 -0.00000000000E+00  0.00000000000E+00  0.26601720182E+03  0.26601720183E+03  0.25500000000E-02 0.  1.
          1   -1    0    0  501    0  0.00000000000E+00 -0.00000000000E+00 -0.61906392013E+01  0.61906412529E+01  0.50400000000E-02 0. -1.
        -24    2    1    2    0    0  0.00000000000E+00  0.88817841970E-15  0.25982656262E+03  0.27220784308E+03  0.81161981215E+02 0.  0.
         66    2    3    3    0    0 -0.37340287304E+02 -0.53860521974E+01  0.17990797016E+03  0.18383194592E+03  0.20000003306E+01 0.  0.
         13    1    3    3    0    0  0.37340287304E+02  0.53860521974E+01  0.79918592460E+02  0.88375897161E+02  0.10566000000E+00 0. -1.
         13    1    4    4    0    0 -0.37276270399E+01 -0.38957946545E+00  0.16336661560E+02  0.16761403595E+02  0.10566000000E+00 0. -1.
        -13    1    4    4    0    0 -0.21159489518E+02 -0.24335651759E+01  0.10174724846E+03  0.10395268139E+03  0.10566000000E+00 0.  1.
         14    1    4    4    0    0 -0.12453170747E+02 -0.25629075560E+01  0.61824060137E+02  0.63117860932E+02  0.00000000000E+00 0. -1.
<mgrwt>
<rscale>  0 0.81161981E+02</rscale>
<asrwt>0</asrwt>
<pdfrwt beam="1">  1        1 0.95240620E-03 0.81161981E+02</pdfrwt>
<pdfrwt beam="2">  1       -2 0.40925723E-01 0.81161981E+02</pdfrwt>
<totfact> 0.72077236E+04</totfact>
</mgrwt>
</event>
<event>
 8    1  0.8577104E-018  0.7711395E+02  0.7818608E-02  0.1337447E+00
         -2   -1    0    0    0  501 -0.00000000000E+00  0.00000000000E+00  0.48884382924E+01  0.48884389575E+01  0.25500000000E-02 0.  1.
          1   -1    0    0  501    0  0.00000000000E+00 -0.00000000000E+00 -0.30411349661E+03  0.30411349665E+03  0.50400000000E-02 0. -1.
        -24    2    1    2    0    0  0.00000000000E+00  0.00000000000E+00 -0.29922505832E+03  0.30900193561E+03  0.77113946113E+02 0.  0.
         66    2    3    3    0    0 -0.31540157483E+01 -0.22695656058E+02 -0.27384157831E+03  0.27480584167E+03  0.19999966178E+01 0.  0.
         13    1    3    3    0    0  0.31540157483E+01  0.22695656058E+02 -0.25383480008E+02  0.34196093938E+02  0.10566000000E+00 0. -1.
         13    1    4    4    0    0 -0.70440716820E+00 -0.10101637021E+02 -0.12722173294E+03  0.12762413470E+03  0.10566000000E+00 0. -1.
        -13    1    4    4    0    0 -0.76676415069E+00 -0.56702326715E+01 -0.65369708714E+02  0.65619733672E+02  0.10566000000E+00 0.  1.
         14    1    4    4    0    0 -0.16828444294E+01 -0.69237863651E+01 -0.81250136651E+02  0.81561973301E+02  0.00000000000E+00 0. -1.
<mgrwt>
<rscale>  0 0.77113946E+02</rscale>
<asrwt>0</asrwt>
<pdfrwt beam="1">  1        1 0.46786677E-01 0.77113946E+02</pdfrwt>
<pdfrwt beam="2">  1       -2 0.75206772E-03 0.77113946E+02</pdfrwt>
<totfact> 0.19924072E+05</totfact>
</mgrwt>
</event>
<event>
 8    1  0.8577104E-018  0.8149289E+02  0.7818608E-02  0.1324867E+00
          1   -1    0    0  501    0  0.00000000000E+00  0.00000000000E+00  0.74667004088E+02  0.74667004258E+02  0.50400000000E-02 0. -1.
         -2   -1    0    0    0  501 -0.00000000000E+00 -0.00000000000E+00 -0.22235695288E+02  0.22235695434E+02  0.25500000000E-02 0.  1.
        -24    2    1    2    0    0  0.17763568394E-14 -0.88817841970E-15  0.52431308800E+02  0.96902699692E+02  0.81492889660E+02 0.  0.
         66    2    3    3    0    0  0.15803409318E+02 -0.72055056526E+01 -0.17565379733E+02  0.24783252749E+02  0.19999984684E+01 0.  0.
         13    1    3    3    0    0 -0.15803409318E+02  0.72055056526E+01  0.69996688533E+02  0.72119446943E+02  0.10566000000E+00 0. -1.
         13    1    4    4    0    0  0.24064103497E+01 -0.16449699013E+01 -0.23976523949E+01  0.37757963120E+01  0.10566000000E+00 0. -1.
        -13    1    4    4    0    0  0.96565471671E+01 -0.40119068061E+01 -0.10327322885E+02  0.14697246729E+02  0.10566000000E+00 0.  1.
         14    1    4    4    0    0  0.37404518009E+01 -0.15486289453E+01 -0.48404044532E+01  0.63102097077E+01  0.00000000000E+00 0. -1.
<mgrwt>
<rscale>  0 0.81492890E+02</rscale>
<asrwt>0</asrwt>
<pdfrwt beam="1">  1        1 0.11487231E-01 0.81492890E+02</pdfrwt>
<pdfrwt beam="2">  1       -2 0.34208763E-02 0.81492890E+02</pdfrwt>
<totfact> 0.13322628E+05</totfact>
</mgrwt>
</event>
<event>
 8    1  0.8577104E-018  0.7855537E+02  0.7818608E-02  0.1333202E+00
          1   -1    0    0  501    0  0.00000000000E+00  0.00000000000E+00  0.18256154321E+03  0.18256154328E+03  0.50400000000E-02 0. -1.
         -2   -1    0    0    0  501 -0.00000000000E+00 -0.00000000000E+00 -0.84504999323E+01  0.84505003171E+01  0.25500000000E-02 0.  1.
        -24    2    1    2    0    0 -0.44408920985E-15  0.71054273576E-14  0.17411104328E+03  0.19101204360E+03  0.78555365239E+02 0.  0.
         66    2    3    3    0    0  0.25458275163E+01 -0.39168900514E+02  0.87641235332E+02  0.96050352082E+02  0.19999998172E+01 0.  0.
         13    1    3    3    0    0 -0.25458275163E+01  0.39168900514E+02  0.86469807949E+02  0.94961691518E+02  0.10566000000E+00 0. -1.
         13    1    4    4    0    0  0.96120198755E+00 -0.92368379905E+01  0.22432693730E+02  0.24279209158E+02  0.10566000000E+00 0. -1.
        -13    1    4    4    0    0  0.13021211067E+00 -0.79587448237E+01  0.17136741856E+02  0.18895440186E+02  0.10566000000E+00 0.  1.
        -14    1    4    4    0    0  0.14544134180E+01 -0.21973317700E+02  0.48071799747E+02  0.52875702738E+02  0.00000000000E+00 0.  1.
<mgrwt>
<rscale>  0 0.78555365E+02</rscale>
<asrwt>0</asrwt>
<pdfrwt beam="1">  1        1 0.28086389E-01 0.78555365E+02</pdfrwt>
<pdfrwt beam="2">  1       -2 0.13000770E-02 0.78555365E+02</pdfrwt>
<totfact> 0.17195556E+05</totfact>
</mgrwt>
</event>
<event>
 8    1  0.8577104E-018  0.8037913E+02  0.7818608E-02  0.1327979E+00
         -2   -1    0    0    0  501 -0.00000000000E+00  0.00000000000E+00  0.28532756176E+01  0.28532767571E+01  0.25500000000E-02 0.  1.
          1   -1    0    0  501    0  0.00000000000E+00 -0.00000000000E+00 -0.56608653555E+03  0.56608653557E+03  0.50400000000E-02 0. -1.
        -24    2    1    2    0    0  0.00000000000E+00 -0.17763568394E-14 -0.56323325993E+03  0.56893981233E+03  0.80379132612E+02 0.  0.
         66    2    3    3    0    0  0.35629769819E+02 -0.15932309565E+02 -0.34889443422E+03  0.35107640935E+03  0.19999969673E+01 0.  0.
         13    1    3    3    0    0 -0.35629769819E+02  0.15932309565E+02 -0.21433882571E+03  0.21786340298E+03  0.10566000000E+00 0. -1.
         13    1    4    4    0    0  0.34887684861E+01 -0.14263610036E+01 -0.37319361124E+02  0.37509357366E+02  0.10566000000E+00 0. -1.
        -13    1    4    4    0    0  0.27872936285E+02 -0.13038599549E+02 -0.27309257083E+03  0.27482079445E+03  0.10566000000E+00 0.  1.
        -14    1    4    4    0    0  0.42680650479E+01 -0.14673490129E+01 -0.38482502272E+02  0.38746257541E+02  0.00000000000E+00 0.  1.
<mgrwt>
<rscale>  0 0.80379133E+02</rscale>
<asrwt>0</asrwt>
<pdfrwt beam="1">  1        1 0.87090147E-01 0.80379133E+02</pdfrwt>
<pdfrwt beam="2">  1       -2 0.43896602E-03 0.80379133E+02</pdfrwt>
<totfact> 0.19609758E+05</totfact>
</mgrwt>
</event>
<event>
 8    1  0.8577104E-018  0.8087059E+02  0.7818608E-02  0.1326599E+00
          1   -1    0    0  501    0  0.00000000000E+00  0.00000000000E+00  0.10883897137E+02  0.10883898304E+02  0.50400000000E-02 0. -1.
         -2   -1    0    0    0  501 -0.00000000000E+00 -0.00000000000E+00 -0.15022312639E+03  0.15022312641E+03  0.25500000000E-02 0.  1.
        -24    2    1    2    0    0 -0.88817841970E-15  0.00000000000E+00 -0.13933922926E+03  0.16110702472E+03  0.80870591713E+02 0.  0.
         66    2    3    3    0    0 -0.79330521275E+01  0.39621411090E+02 -0.68780638830E+02  0.79797029148E+02  0.20000125395E+01 0.  0.
         13    1    3    3    0    0  0.79330521275E+01 -0.39621411090E+02 -0.70558590425E+02  0.81309995570E+02  0.10566000000E+00 0. -1.
         13    1    4    4    0    0 -0.11993299091E+00  0.82248771966E+00 -0.13710971125E+01  0.16068420267E+01  0.10566000000E+00 0.  1.
        -13    1    4    4    0    0 -0.65986504039E+01  0.31097171217E+02 -0.52844037229E+02  0.61669114471E+02  0.10566000000E+00 0.  1.
        -14    1    4    4    0    0 -0.12144687327E+01  0.77017521530E+01 -0.14565504489E+02  0.16521072651E+02  0.00000000000E+00 0.  1.
<mgrwt>
<rscale>  0 0.80870592E+02</rscale>
<asrwt>0</asrwt>
<pdfrwt beam="1">  1        1 0.16744459E-02 0.80870592E+02</pdfrwt>
<pdfrwt beam="2">  1       -2 0.23111249E-01 0.80870592E+02</pdfrwt>
<totfact> 0.91868253E+04</totfact>
</mgrwt>
</event>
<event>
 8    1  0.8577104E-018  0.7960500E+02  0.7818608E-02  0.1330176E+00
          1   -1    0    0  501    0  0.00000000000E+00  0.00000000000E+00  0.10033603735E+02  0.10033605001E+02  0.50400000000E-02 0. -1.
         -2   -1    0    0    0  501 -0.00000000000E+00 -0.00000000000E+00 -0.15789330205E+03  0.15789330207E+03  0.25500000000E-02 0.  1.
        -24    2    1    2    0    0  0.00000000000E+00  0.00000000000E+00 -0.14785969832E+03  0.16792690707E+03  0.79604998164E+02 0.  0.
         66    2    3    3    0    0 -0.14655896517E+01  0.32881701984E+02 -0.12109341069E+03  0.12550286206E+03  0.19999981772E+01 0.  0.
         13    1    3    3    0    0  0.14655896517E+01 -0.32881701984E+02 -0.26766287624E+02  0.42424045017E+02  0.10566000000E+00 0. -1.
         13    1    4    4    0    0 -0.16705567460E+01  0.27438449621E+02 -0.10293590999E+03  0.10654328701E+03  0.10566000000E+00 0. -1.
        -13    1    4    4    0    0 -0.50907315680E-01  0.14018844837E+01 -0.46949236584E+01  0.49011573994E+01  0.10566000000E+00 0.  1.
         14    1    4    4    0    0  0.25587441001E+00  0.40413678786E+01 -0.13462577046E+02  0.14058417648E+02  0.00000000000E+00 0. -1.
<mgrwt>
<rscale>  0 0.79604998E+02</rscale>
<asrwt>0</asrwt>
<pdfrwt beam="1">  1        1 0.15436316E-02 0.79604998E+02</pdfrwt>
<pdfrwt beam="2">  1       -2 0.24291275E-01 0.79604998E+02</pdfrwt>
<totfact> 0.94093465E+04</totfact>
</mgrwt>
</event>
<event>
 8    1  0.8577104E-018  0.7733266E+02  0.7818608E-02  0.1336796E+00
          1   -1    0    0  501    0  0.00000000000E+00  0.00000000000E+00  0.88180095512E+02  0.88180095656E+02  0.50400000000E-02 0. -1.
         -2   -1    0    0    0  501 -0.00000000000E+00 -0.00000000000E+00 -0.16954902633E+02  0.16954902825E+02  0.25500000000E-02 0.  1.
        -24    2    1    2    0    0  0.88817841970E-15 -0.35527136788E-14  0.71225192879E+02  0.10513499848E+03  0.77332656782E+02 0.  0.
         66    2    3    3    0    0 -0.43883730720E+01  0.17652656098E+02 -0.10711109251E+02  0.21203819195E+02  0.20000003877E+01 0.  0.
         13    1    3    3    0    0  0.43883730720E+01 -0.17652656098E+02  0.81936302129E+02  0.83931179285E+02  0.10566000000E+00 0. -1.
         13    1    4    4    0    0 -0.12848378385E+01  0.33230171120E+01 -0.14175768868E+01  0.38358752930E+01  0.10566000000E+00 0. -1.
        -13    1    4    4    0    0 -0.13977258726E+00  0.11619460265E+01 -0.72846780979E+00  0.13825644036E+01  0.10566000000E+00 0.  1.
        -14    1    4    4    0    0 -0.29637626462E+01  0.13167692960E+02 -0.85650645541E+01  0.15985379499E+02  0.00000000000E+00 0.  1.
<mgrwt>
<rscale>  0 0.77332657E+02</rscale>
<asrwt>0</asrwt>
<pdfrwt beam="1">  1        1 0.13566169E-01 0.77332657E+02</pdfrwt>
<pdfrwt beam="2">  1       -2 0.26084466E-02 0.77332657E+02</pdfrwt>
<totfact> 0.15779650E+05</totfact>
</mgrwt>
</event>
<event>
 8    1  0.8577104E-018  0.8774257E+02  0.7818608E-02  0.1308412E+00
         -2   -1    0    0    0  501 -0.00000000000E+00  0.00000000000E+00  0.37106583281E+01  0.37106592043E+01  0.25500000000E-02 0.  1.
          1   -1    0    0  501    0  0.00000000000E+00 -0.00000000000E+00 -0.51869222284E+03  0.51869222286E+03  0.50400000000E-02 0. -1.
        -24    2    1    2    0    0  0.00000000000E+00  0.35527136788E-14 -0.51498156451E+03  0.52240288207E+03  0.87742574653E+02 0.  0.
         66    2    3    3    0    0 -0.34932461493E+02 -0.17808438039E+02 -0.37448700885E+03  0.37653942309E+03  0.20000025235E+01 0.  0.
         13    1    3    3    0    0  0.34932461493E+02  0.17808438039E+02 -0.14049455565E+03  0.14586345897E+03  0.10566000000E+00 0. -1.
         13    1    4    4    0    0 -0.11009145172E+02 -0.53430552231E+01 -0.12232777106E+03  0.12293837584E+03  0.10566000000E+00 0. -1.
        -13    1    4    4    0    0 -0.23504528492E+02 -0.12305846423E+02 -0.24635225796E+03  0.24777680053E+03  0.10566000000E+00 0.  1.
        -14    1    4    4    0    0 -0.41878782851E+00 -0.15953639296E+00 -0.58069798338E+01  0.58242467235E+01  0.00000000000E+00 0.  1.
<mgrwt>
<rscale>  0 0.87742575E+02</rscale>
<asrwt>0</asrwt>
<pdfrwt beam="1">  1        1 0.79798746E-01 0.87742575E+02</pdfrwt>
<pdfrwt beam="2">  1       -2 0.57087099E-03 0.87742575E+02</pdfrwt>
<totfact> 0.15440470E+05</totfact>
</mgrwt>
</event>
<event>
 8    1  0.8577104E-018  0.7767874E+02  0.7818608E-02  0.1335771E+00
         -2   -1    0    0    0  501 -0.00000000000E+00  0.00000000000E+00  0.33189449190E+02  0.33189449288E+02  0.25500000000E-02 0.  1.
          1   -1    0    0  501    0  0.00000000000E+00 -0.00000000000E+00 -0.45451084898E+02  0.45451085178E+02  0.50400000000E-02 0. -1.
        -24    2    1    2    0    0  0.00000000000E+00  0.00000000000E+00 -0.12261635709E+02  0.78640534465E+02  0.77678735512E+02 0.  0.
         66    2    3    3    0    0  0.22350803903E+02 -0.17082271821E+02  0.20938139046E+02  0.35125035462E+02  0.20000009670E+01 0.  0.
         13    1    3    3    0    0 -0.22350803903E+02  0.17082271821E+02 -0.33199774755E+02  0.43515499003E+02  0.10566000000E+00 0. -1.
         13    1    4    4    0    0  0.47375584490E+01 -0.35206233605E+01  0.51692848769E+01  0.78467776238E+01  0.10566000000E+00 0. -1.
        -13    1    4    4    0    0  0.13491033484E+02 -0.10338354848E+02  0.12634409428E+02  0.21178503985E+02  0.10566000000E+00 0.  1.
         14    1    4    4    0    0  0.41222119701E+01 -0.32232936121E+01  0.31344447416E+01  0.60997538536E+01  0.00000000000E+00 0. -1.
<mgrwt>
<rscale>  0 0.77678736E+02</rscale>
<asrwt>0</asrwt>
<pdfrwt beam="1">  1        1 0.69924746E-02 0.77678736E+02</pdfrwt>
<pdfrwt beam="2">  1       -2 0.51060691E-02 0.77678736E+02</pdfrwt>
<totfact> 0.14069542E+05</totfact>
</mgrwt>
</event>
<event>
 8    1  0.8577104E-018  0.8011689E+02  0.7818608E-02  0.1328720E+00
          1   -1    0    0  501    0  0.00000000000E+00  0.00000000000E+00  0.17596430205E+03  0.17596430212E+03  0.50400000000E-02 0. -1.
         -2   -1    0    0    0  501 -0.00000000000E+00 -0.00000000000E+00 -0.91193447261E+01  0.91193450826E+01  0.25500000000E-02 0.  1.
        -24    2    1    2    0    0  0.00000000000E+00 -0.35527136788E-14  0.16684495732E+03  0.18508364720E+03  0.80116893838E+02 0.  0.
         66    2    3    3    0    0  0.28546022182E+02 -0.27394852236E+02  0.69361290436E+02  0.79877041968E+02  0.19999777984E+01 0.  0.
         13    1    3    3    0    0 -0.28546022182E+02  0.27394852236E+02  0.97483666887E+02  0.10520660524E+03  0.10566000000E+00 0. -1.
         13    1    4    4    0    0  0.19504465425E+01 -0.24818598773E+01  0.56432392714E+01  0.64669300039E+01  0.10566000000E+00 0. -1.
        -13    1    4    4    0    0  0.17040756834E+02 -0.15285870521E+02  0.39911101119E+02  0.46010350874E+02  0.10566000000E+00 0.  1.
        -14    1    4    4    0    0  0.95548188059E+01 -0.96271218375E+01  0.23806950046E+02  0.27399761090E+02  0.00000000000E+00 0.  1.
<mgrwt>
<rscale>  0 0.80116894E+02</rscale>
<asrwt>0</asrwt>
<pdfrwt beam="1">  1        1 0.27071431E-01 0.80116894E+02</pdfrwt>
<pdfrwt beam="2">  1       -2 0.14029761E-02 0.80116894E+02</pdfrwt>
<totfact> 0.16204626E+05</totfact>
</mgrwt>
</event>
<event>
 8    1  0.8577104E-018  0.7877430E+02  0.7818608E-02  0.1332566E+00
         -2   -1    0    0    0  501 -0.00000000000E+00  0.00000000000E+00  0.22996837710E+02  0.22996837851E+02  0.25500000000E-02 0.  1.
          1   -1    0    0  501    0  0.00000000000E+00 -0.00000000000E+00 -0.67459170067E+02  0.67459170255E+02  0.50400000000E-02 0. -1.
        -24    2    1    2    0    0  0.00000000000E+00  0.00000000000E+00 -0.44462332357E+02  0.90456008106E+02  0.78774300403E+02 0.  0.
         66    2    3    3    0    0  0.35830151405E+02  0.45758441020E+01 -0.42863345601E+01  0.36429532541E+02  0.20000195555E+01 0.  0.
         13    1    3    3    0    0 -0.35830151405E+02 -0.45758441020E+01 -0.40175997797E+02  0.54026475565E+02  0.10566000000E+00 0. -1.
         13    1    4    4    0    0  0.32738457229E+01  0.14334758420E-01 -0.37544753003E+00  0.32970283872E+01  0.10566000000E+00 0. -1.
        -13    1    4    4    0    0  0.24791389411E+02  0.29820638494E+01 -0.32529249041E+01  0.25181310097E+02  0.10566000000E+00 0.  1.
        -14    1    4    4    0    0  0.77649162714E+01  0.15794454942E+01 -0.65796212596E+00  0.79511940569E+01  0.00000000000E+00 0.  1.
<mgrwt>
<rscale>  0 0.78774300E+02</rscale>
<asrwt>0</asrwt>
<pdfrwt beam="1">  1        1 0.10378334E-01 0.78774300E+02</pdfrwt>
<pdfrwt beam="2">  1       -2 0.35379751E-02 0.78774300E+02</pdfrwt>
<totfact> 0.14385553E+05</totfact>
</mgrwt>
</event>
<event>
 8    1  0.8577104E-018  0.7983740E+02  0.7818608E-02  0.1329514E+00
         -2   -1    0    0    0  501 -0.00000000000E+00  0.00000000000E+00  0.19232349168E+02  0.19232349337E+02  0.25500000000E-02 0.  1.
          1   -1    0    0  501    0  0.00000000000E+00 -0.00000000000E+00 -0.82855321733E+02  0.82855321886E+02  0.50400000000E-02 0. -1.
        -24    2    1    2    0    0 -0.17763568394E-14 -0.17763568394E-14 -0.63622972565E+02  0.10208767122E+03  0.79837397113E+02 0.  0.
         66    2    3    3    0    0 -0.10764400162E+02 -0.14986066202E+02  0.13396155325E+02  0.22889112423E+02  0.19999997421E+01 0.  0.
         13    1    3    3    0    0  0.10764400162E+02  0.14986066202E+02 -0.77019127890E+02  0.79198558800E+02  0.10566000000E+00 0. -1.
         13    1    4    4    0    0 -0.49837165041E+01 -0.68695412344E+01  0.49581017072E+01  0.98296471726E+01  0.10566000000E+00 0. -1.
        -13    1    4    4    0    0 -0.51456836210E+01 -0.73112021780E+01  0.75204917025E+01  0.11683351261E+02  0.10566000000E+00 0.  1.
         14    1    4    4    0    0 -0.63500003733E+00 -0.80532278928E+00  0.91756191547E+00  0.13761139891E+01  0.00000000000E+00 0. -1.
<mgrwt>
<rscale>  0 0.79837397E+02</rscale>
<asrwt>0</asrwt>
<pdfrwt beam="1">  1        1 0.12746972E-01 0.79837397E+02</pdfrwt>
<pdfrwt beam="2">  1       -2 0.29588230E-02 0.79837397E+02</pdfrwt>
<totfact> 0.14328996E+05</totfact>
</mgrwt>
</event>
<event>
 8    1  0.8577104E-018  0.8065123E+02  0.7818608E-02  0.1327213E+00
          1   -1    0    0  501    0  0.00000000000E+00  0.00000000000E+00  0.55070579277E+02  0.55070579508E+02  0.50400000000E-02 0. -1.
         -2   -1    0    0    0  501 -0.00000000000E+00 -0.00000000000E+00 -0.29528566636E+02  0.29528566746E+02  0.25500000000E-02 0.  1.
        -24    2    1    2    0    0 -0.71054273576E-14  0.00000000000E+00  0.25542012641E+02  0.84599146254E+02  0.80651231467E+02 0.  0.
         66    2    3    3    0    0 -0.34481884353E+02  0.42886554015E+01  0.34192780643E+02  0.48790769235E+02  0.20000001941E+01 0.  0.
         13    1    3    3    0    0  0.34481884353E+02 -0.42886554015E+01 -0.86507680022E+01  0.35808377019E+02  0.10566000000E+00 0. -1.
         13    1    4    4    0    0 -0.15676123403E+02  0.14501064772E+01  0.14352724055E+02  0.21303884753E+02  0.10566000000E+00 0. -1.
        -13    1    4    4    0    0 -0.14909200223E+02  0.23970784516E+01  0.15626225533E+02  0.21730631027E+02  0.10566000000E+00 0.  1.
        -14    1    4    4    0    0 -0.38965607269E+01  0.44147047271E+00  0.42138310551E+01  0.57562534550E+01  0.00000000000E+00 0.  1.
<mgrwt>
<rscale>  0 0.80651231E+02</rscale>
<asrwt>0</asrwt>
<pdfrwt beam="1">  1        1 0.84723969E-02 0.80651231E+02</pdfrwt>
<pdfrwt beam="2">  1       -2 0.45428564E-02 0.80651231E+02</pdfrwt>
<totfact> 0.13061347E+05</totfact>
</mgrwt>
</event>
<event>
 8    1  0.8577104E-018  0.7913454E+02  0.7818608E-02  0.1331526E+00
          1   -1    0    0  501    0  0.00000000000E+00  0.00000000000E+00  0.10634273921E+02  0.10634275115E+02  0.50400000000E-02 0. -1.
         -2   -1    0    0    0  501 -0.00000000000E+00 -0.00000000000E+00 -0.14721916289E+03  0.14721916291E+03  0.25500000000E-02 0.  1.
        -24    2    1    2    0    0  0.00000000000E+00  0.00000000000E+00 -0.13658488897E+03  0.15785343803E+03  0.79134543673E+02 0.  0.
         66    2    3    3    0    0  0.35878507625E+02  0.16296399517E+02 -0.74868280469E+02  0.84629187431E+02  0.19999995440E+01 0.  0.
         13    1    3    3    0    0 -0.35878507625E+02 -0.16296399517E+02 -0.61716608502E+02  0.73224250598E+02  0.10566000000E+00 0. -1.
         13    1    4    4    0    0  0.90141359664E+01  0.33027761960E+01 -0.18526879931E+02  0.20866706061E+02  0.10566000000E+00 0. -1.
        -13    1    4    4    0    0  0.18918540711E+02  0.89551468527E+01 -0.38744467465E+02  0.44036924972E+02  0.10566000000E+00 0.  1.
        -14    1    4    4    0    0  0.79458309483E+01  0.40384764686E+01 -0.17596933073E+02  0.19725556399E+02  0.00000000000E+00 0.  1.
<mgrwt>
<rscale>  0 0.79134544E+02</rscale>
<asrwt>0</asrwt>
<pdfrwt beam="1">  1        1 0.16360423E-02 0.79134544E+02</pdfrwt>
<pdfrwt beam="2">  1       -2 0.22649101E-01 0.79134544E+02</pdfrwt>
<totfact> 0.97787489E+04</totfact>
</mgrwt>
</event>
<event>
 8    1  0.8577104E-018  0.8124413E+02  0.7818608E-02  0.1325557E+00
          1   -1    0    0  501    0  0.00000000000E+00  0.00000000000E+00  0.17333545687E+03  0.17333545694E+03  0.50400000000E-02 0. -1.
         -2   -1    0    0    0  501 -0.00000000000E+00 -0.00000000000E+00 -0.95199919637E+01  0.95199923052E+01  0.25500000000E-02 0.  1.
        -24    2    1    2    0    0  0.00000000000E+00  0.00000000000E+00  0.16381546490E+03  0.18285544924E+03  0.81244130725E+02 0.  0.
         66    2    3    3    0    0  0.10047196252E+02 -0.36169753501E+02  0.47166028853E+02  0.60314438495E+02  0.19999980849E+01 0.  0.
         13    1    3    3    0    0 -0.10047196252E+02  0.36169753501E+02  0.11664943605E+03  0.12254101075E+03  0.10566000000E+00 0. -1.
         13    1    4    4    0    0  0.56275522507E+01 -0.22618033754E+02  0.29980384512E+02  0.37974720733E+02  0.10566000000E+00 0. -1.
        -13    1    4    4    0    0  0.14492237522E+01 -0.39832309949E+01  0.46650113645E+01  0.63039569882E+01  0.10566000000E+00 0.  1.
        -14    1    4    4    0    0  0.29704202493E+01 -0.95684887523E+01  0.12520632976E+02  0.16035760774E+02  0.00000000000E+00 0.  1.
<mgrwt>
<rscale>  0 0.81244131E+02</rscale>
<asrwt>0</asrwt>
<pdfrwt beam="1">  1        1 0.26666993E-01 0.81244131E+02</pdfrwt>
<pdfrwt beam="2">  1       -2 0.14646142E-02 0.81244131E+02</pdfrwt>
<totfact> 0.15567629E+05</totfact>
</mgrwt>
</event>
<event>
 8    1  0.8577104E-018  0.8233740E+02  0.7818608E-02  0.1322546E+00
          1   -1    0    0  501    0  0.00000000000E+00  0.00000000000E+00  0.14043160828E+02  0.14043161732E+02  0.50400000000E-02 0. -1.
         -2   -1    0    0    0  501 -0.00000000000E+00 -0.00000000000E+00 -0.12068947532E+03  0.12068947535E+03  0.25500000000E-02 0.  1.
        -24    2    1    2    0    0 -0.88817841970E-15  0.00000000000E+00 -0.10664631449E+03  0.13473263708E+03  0.82337397939E+02 0.  0.
         66    2    3    3    0    0 -0.75002684118E+01  0.22644878700E+02 -0.10821033043E+03  0.11082653184E+03  0.19999979265E+01 0.  0.
         13    1    3    3    0    0  0.75002684118E+01 -0.22644878700E+02  0.15640159359E+01  0.23906105234E+02  0.10566000000E+00 0. -1.
         13    1    4    4    0    0 -0.52025950362E+01  0.13368629648E+02 -0.67078008015E+02  0.68594880108E+02  0.10566000000E+00 0. -1.
        -13    1    4    4    0    0 -0.16031935085E+01  0.57782688129E+01 -0.24880427925E+02  0.25593074799E+02  0.10566000000E+00 0.  1.
         14    1    4    4    0    0 -0.69447986712E+00  0.34979802393E+01 -0.16251894486E+02  0.16638576935E+02  0.00000000000E+00 0. -1.
<mgrwt>
<rscale>  0 0.82337398E+02</rscale>
<asrwt>0</asrwt>
<pdfrwt beam="1">  1        1 0.21604864E-02 0.82337398E+02</pdfrwt>
<pdfrwt beam="2">  1       -2 0.18567611E-01 0.82337398E+02</pdfrwt>
<totfact> 0.93781977E+04</totfact>
</mgrwt>
</event>
<event>
 8    1  0.8577104E-018  0.8529933E+02  0.7818608E-02  0.1314652E+00
          1   -1    0    0  501    0  0.00000000000E+00  0.00000000000E+00  0.35042844415E+02  0.35042844778E+02  0.50400000000E-02 0. -1.
         -2   -1    0    0    0  501 -0.00000000000E+00 -0.00000000000E+00 -0.51907713146E+02  0.51907713209E+02  0.25500000000E-02 0.  1.
        -24    2    1    2    0    0 -0.35527136788E-14 -0.17763568394E-14 -0.16864868731E+02  0.86950557987E+02  0.85299330225E+02 0.  0.
         66    2    3    3    0    0  0.24385442901E+02  0.15940394723E+02 -0.40156014293E+02  0.49651300151E+02  0.20000283529E+01 0.  0.
         13    1    3    3    0    0 -0.24385442901E+02 -0.15940394723E+02  0.23291145562E+02  0.37299257835E+02  0.10566000000E+00 0. -1.
         13    1    4    4    0    0  0.61613096046E+01  0.36890955769E+01 -0.95805480134E+01  0.11973688926E+02  0.10566000000E+00 0. -1.
        -13    1    4    4    0    0  0.13754943784E+02  0.91949626936E+01 -0.21828453043E+02  0.27390479071E+02  0.10566000000E+00 0.  1.
        -14    1    4    4    0    0  0.44691895123E+01  0.30563364529E+01 -0.87470132365E+01  0.10287132155E+02  0.00000000000E+00 0.  1.
<mgrwt>
<rscale>  0 0.85299330E+02</rscale>
<asrwt>0</asrwt>
<pdfrwt beam="1">  1        1 0.53912069E-02 0.85299330E+02</pdfrwt>
<pdfrwt beam="2">  1       -2 0.79858020E-02 0.85299330E+02</pdfrwt>
<totfact> 0.10340357E+05</totfact>
</mgrwt>
</event>
<event>
 8    1  0.8577104E-018  0.8078869E+02  0.7818608E-02  0.1326828E+00
         -2   -1    0    0    0  501 -0.00000000000E+00  0.00000000000E+00  0.44408806972E+01  0.44408814293E+01  0.25500000000E-02 0.  1.
          1   -1    0    0  501    0  0.00000000000E+00 -0.00000000000E+00 -0.36742778388E+03  0.36742778392E+03  0.50400000000E-02 0. -1.
        -24    2    1    2    0    0  0.00000000000E+00  0.00000000000E+00 -0.36298690318E+03  0.37186866535E+03  0.80788689694E+02 0.  0.
         66    2    3    3    0    0  0.43783480981E+01  0.38155094665E+02 -0.23885865056E+03  0.24193477660E+03  0.20000000228E+01 0.  0.
         13    1    3    3    0    0 -0.43783480981E+01 -0.38155094665E+02 -0.12412825262E+03  0.12993388874E+03  0.10566000000E+00 0. -1.
         13    1    4    4    0    0  0.47638365873E-02  0.15381914620E+00 -0.10484343490E+01  0.10649233041E+01  0.10566000000E+00 0.  1.
        -13    1    4    4    0    0  0.35919624506E-01  0.81183067682E+00 -0.43921839963E+01  0.44679753312E+01  0.10566000000E+00 0.  1.
        -14    1    4    4    0    0  0.43376646370E+01  0.37189444842E+02 -0.23341803222E+03  0.23640187797E+03  0.00000000000E+00 0.  1.
<mgrwt>
<rscale>  0 0.80788690E+02</rscale>
<asrwt>0</asrwt>
<pdfrwt beam="1">  1        1 0.56527328E-01 0.80788690E+02</pdfrwt>
<pdfrwt beam="2">  1       -2 0.68321276E-03 0.80788690E+02</pdfrwt>
<totfact> 0.18245611E+05</totfact>
</mgrwt>
</event>
<event>
 8    1  0.8577104E-018  0.8405694E+02  0.7818608E-02  0.1317917E+00
          1   -1    0    0  501    0  0.00000000000E+00  0.00000000000E+00  0.14135703296E+03  0.14135703305E+03  0.50400000000E-02 0. -1.
         -2   -1    0    0    0  501 -0.00000000000E+00 -0.00000000000E+00 -0.12495961946E+02  0.12495962206E+02  0.25500000000E-02 0.  1.
        -24    2    1    2    0    0  0.35527136788E-14 -0.71054273576E-14  0.12886107101E+03  0.15385299525E+03  0.84056936216E+02 0.  0.
         66    2    3    3    0    0 -0.17247640036E+02  0.36975499355E+02  0.82744553417E+02  0.92278544395E+02  0.19999990345E+01 0.  0.
         13    1    3    3    0    0  0.17247640036E+02 -0.36975499355E+02  0.46116517595E+02  0.61574450858E+02  0.10566000000E+00 0. -1.
         13    1    4    4    0    0 -0.10237927196E+02  0.23324120976E+02  0.53266043016E+02  0.59043308471E+02  0.10566000000E+00 0. -1.
        -13    1    4    4    0    0 -0.63456384765E+01  0.12531498015E+02  0.26920127337E+02  0.30364617403E+02  0.10566000000E+00 0.  1.
         14    1    4    4    0    0 -0.66407436434E+00  0.11198803633E+01  0.25583830641E+01  0.28706185209E+01  0.00000000000E+00 0. -1.
<mgrwt>
<rscale>  0 0.84056936E+02</rscale>
<asrwt>0</asrwt>
<pdfrwt beam="1">  1        1 0.21747236E-01 0.84056936E+02</pdfrwt>
<pdfrwt beam="2">  1       -2 0.19224557E-02 0.84056936E+02</pdfrwt>
<totfact> 0.13675773E+05</totfact>
</mgrwt>
</event>
<event>
 8    1  0.8577104E-018  0.7988752E+02  0.7818608E-02  0.1329371E+00
         -2   -1    0    0    0  501 -0.00000000000E+00  0.00000000000E+00  0.95142552777E+01  0.95142556195E+01  0.25500000000E-02 0.  1.
          1   -1    0    0  501    0  0.00000000000E+00 -0.00000000000E+00 -0.16769616075E+03  0.16769616083E+03  0.50400000000E-02 0. -1.
        -24    2    1    2    0    0  0.00000000000E+00  0.35527136788E-14 -0.15818190547E+03  0.17721041645E+03  0.79887523919E+02 0.  0.
         66    2    3    3    0    0  0.62228467412E+00 -0.27679637174E+02 -0.14292997521E+03  0.14560057473E+03  0.19999994475E+01 0.  0.
         13    1    3    3    0    0 -0.62228467412E+00  0.27679637174E+02 -0.15251930269E+02  0.31609841716E+02  0.10566000000E+00 0. -1.
         13    1    4    4    0    0  0.21699307757E+00 -0.88646669522E+01 -0.42874537686E+02  0.43782034580E+02  0.10566000000E+00 0.  1.
        -13    1    4    4    0    0  0.59195191954E+00 -0.10753201508E+02 -0.54256608543E+02  0.55315210244E+02  0.10566000000E+00 0. -1.
         14    1    4    4    0    0 -0.18666032299E+00 -0.80617687142E+01 -0.45798828976E+02  0.46503329907E+02  0.00000000000E+00 0. -1.
<mgrwt>
<rscale>  0 0.79887524E+02</rscale>
<asrwt>0</asrwt>
<pdfrwt beam="1">  1        1 0.25799407E-01 0.79887524E+02</pdfrwt>
<pdfrwt beam="2">  1       -2 0.14637317E-02 0.79887524E+02</pdfrwt>
<totfact> 0.16180842E+05</totfact>
</mgrwt>
</event>
<event>
 8    1  0.8577104E-018  0.8447925E+02  0.7818608E-02  0.1316800E+00
         -2   -1    0    0    0  501 -0.00000000000E+00  0.00000000000E+00  0.25985437156E+03  0.25985437157E+03  0.25500000000E-02 0.  1.
          1   -1    0    0  501    0  0.00000000000E+00 -0.00000000000E+00 -0.68660991183E+01  0.68661009681E+01  0.50400000000E-02 0. -1.
        -24    2    1    2    0    0 -0.71054273576E-14  0.00000000000E+00  0.25298827244E+03  0.26672047254E+03  0.84479254727E+02 0.  0.
         66    2    3    3    0    0 -0.36792936432E+02 -0.19823818466E+02  0.10775952020E+03  0.11559765629E+03  0.19999990195E+01 0.  0.
         13    1    3    3    0    0  0.36792936432E+02  0.19823818466E+02  0.14522875224E+03  0.15112281625E+03  0.10566000000E+00 0. -1.
         13    1    4    4    0    0 -0.58001264770E+01 -0.27724712076E+01  0.15116152323E+02  0.16426724836E+02  0.10566000000E+00 0. -1.
        -13    1    4    4    0    0 -0.29884184238E+02 -0.16518272555E+02  0.88991772535E+02  0.95317703176E+02  0.10566000000E+00 0.  1.
         14    1    4    4    0    0 -0.11086257175E+01 -0.53307470352E+00  0.36515953460E+01  0.38532282818E+01  0.00000000000E+00 0. -1.
<mgrwt>
<rscale>  0 0.84479255E+02</rscale>
<asrwt>0</asrwt>
<pdfrwt beam="1">  1        1 0.10563234E-02 0.84479255E+02</pdfrwt>
<pdfrwt beam="2">  1       -2 0.39977585E-01 0.84479255E+02</pdfrwt>
<totfact> 0.65735125E+04</totfact>
</mgrwt>
</event>
<event>
 8    1  0.8577104E-018  0.7842529E+02  0.7818608E-02  0.1333581E+00
          1   -1    0    0  501    0  0.00000000000E+00  0.00000000000E+00  0.73852591527E+02  0.73852591699E+02  0.50400000000E-02 0. -1.
         -2   -1    0    0    0  501 -0.00000000000E+00 -0.00000000000E+00 -0.20820276266E+02  0.20820276423E+02  0.25500000000E-02 0.  1.
        -24    2    1    2    0    0  0.17763568394E-14  0.00000000000E+00  0.53032315261E+02  0.94672868122E+02  0.78425286078E+02 0.  0.
         66    2    3    3    0    0  0.13875153873E+02 -0.36634165446E+02  0.27767074121E+02  0.48058218635E+02  0.20000000434E+01 0.  0.
         13    1    3    3    0    0 -0.13875153873E+02  0.36634165446E+02  0.25265241140E+02  0.46614649487E+02  0.10566000000E+00 0. -1.
         13    1    4    4    0    0  0.99656151512E+01 -0.24196425412E+02  0.18489152102E+02  0.32041229651E+02  0.10566000000E+00 0. -1.
        -13    1    4    4    0    0  0.11202704169E+01 -0.44629850000E+01  0.34861501736E+01  0.57738763397E+01  0.10566000000E+00 0.  1.
         14    1    4    4    0    0  0.27892683044E+01 -0.79747550344E+01  0.57917718453E+01  0.10243112644E+02  0.00000000000E+00 0. -1.
<mgrwt>
<rscale>  0 0.78425286E+02</rscale>
<asrwt>0</asrwt>
<pdfrwt beam="1">  1        1 0.11361937E-01 0.78425286E+02</pdfrwt>
<pdfrwt beam="2">  1       -2 0.32031195E-02 0.78425286E+02</pdfrwt>
<totfact> 0.14768799E+05</totfact>
</mgrwt>
</event>
<event>
 8    1  0.8577104E-018  0.7754381E+02  0.7818608E-02  0.1336170E+00
          1   -1    0    0  501    0  0.00000000000E+00  0.00000000000E+00  0.11501183053E+03  0.11501183064E+03  0.50400000000E-02 0. -1.
         -2   -1    0    0    0  501 -0.00000000000E+00 -0.00000000000E+00 -0.13070485965E+02  0.13070486214E+02  0.25500000000E-02 0.  1.
        -24    2    1    2    0    0  0.00000000000E+00  0.00000000000E+00  0.10194134457E+03  0.12808231685E+03  0.77543807999E+02 0.  0.
         66    2    3    3    0    0  0.18998844224E+01 -0.37766539137E+02  0.37053909243E+02  0.52980309784E+02  0.19999988608E+01 0.  0.
         13    1    3    3    0    0 -0.18998844224E+01  0.37766539137E+02  0.64887435322E+02  0.75102007070E+02  0.10566000000E+00 0. -1.
         13    1    4    4    0    0 -0.15800136171E+00 -0.42635951012E+01  0.42571655285E+01  0.60280867603E+01  0.10566000000E+00 0. -1.
        -13    1    4    4    0    0  0.19846117896E+01 -0.23196193911E+02  0.22182273229E+02  0.32156904477E+02  0.10566000000E+00 0.  1.
        -14    1    4    4    0    0  0.73273994520E-01 -0.10306750125E+02  0.10614470485E+02  0.14795318547E+02  0.00000000000E+00 0.  1.
<mgrwt>
<rscale>  0 0.77543808E+02</rscale>
<asrwt>0</asrwt>
<pdfrwt beam="1">  1        1 0.17694128E-01 0.77543808E+02</pdfrwt>
<pdfrwt beam="2">  1       -2 0.20108440E-02 0.77543808E+02</pdfrwt>
<totfact> 0.16369746E+05</totfact>
</mgrwt>
</event>
<event>
 8    1  0.8577104E-018  0.7943058E+02  0.7818608E-02  0.1330675E+00
          1   -1    0    0  501    0  0.00000000000E+00  0.00000000000E+00  0.64770845856E+01  0.64770865465E+01  0.50400000000E-02 0. -1.
         -2   -1    0    0    0  501 -0.00000000000E+00 -0.00000000000E+00 -0.24352067632E+03  0.24352067634E+03  0.25500000000E-02 0.  1.
        -24    2    1    2    0    0  0.00000000000E+00  0.00000000000E+00 -0.23704359174E+03  0.24999776288E+03  0.79430580148E+02 0.  0.
         66    2    3    3    0    0  0.15873889537E+02 -0.36366344509E+02 -0.11576770041E+03  0.12239547308E+03  0.19999974988E+01 0.  0.
         13    1    3    3    0    0 -0.15873889537E+02  0.36366344509E+02 -0.12127589133E+03  0.12760228980E+03  0.10566000000E+00 0. -1.
         13    1    4    4    0    0  0.45423836663E+00 -0.74473325505E+00 -0.20839752760E+01  0.22616536210E+01  0.10566000000E+00 0.  1.
        -13    1    4    4    0    0  0.13009123865E+02 -0.30822793546E+02 -0.98823301740E+02  0.10433282339E+03  0.10566000000E+00 0.  1.
         14    1    4    4    0    0  0.24105273054E+01 -0.47988177082E+01 -0.14860423395E+02  0.15800996069E+02  0.00000000000E+00 0. -1.
<mgrwt>
<rscale>  0 0.79430580E+02</rscale>
<asrwt>0</asrwt>
<pdfrwt beam="1">  1        1 0.99647489E-03 0.79430580E+02</pdfrwt>
<pdfrwt beam="2">  1       -2 0.37464712E-01 0.79430580E+02</pdfrwt>
<totfact> 0.79530637E+04</totfact>
</mgrwt>
</event>
<event>
 8    1  0.8577104E-018  0.8047416E+02  0.7818608E-02  0.1327711E+00
          1   -1    0    0  501    0  0.00000000000E+00  0.00000000000E+00  0.14150273907E+03  0.14150273916E+03  0.50400000000E-02 0. -1.
         -2   -1    0    0    0  501 -0.00000000000E+00 -0.00000000000E+00 -0.11441635220E+02  0.11441635504E+02  0.25500000000E-02 0.  1.
        -24    2    1    2    0    0  0.00000000000E+00  0.00000000000E+00  0.13006110385E+03  0.15294437467E+03  0.80474163597E+02 0.  0.
         66    2    3    3    0    0  0.39490011152E+02 -0.64208590672E+01  0.72750615425E+02  0.83050228561E+02  0.20000018165E+01 0.  0.
         13    1    3    3    0    0 -0.39490011152E+02  0.64208590672E+01  0.57310488430E+02  0.69894146107E+02  0.10566000000E+00 0. -1.
         13    1    4    4    0    0  0.31419352040E+02 -0.51044258653E+01  0.56776933308E+02  0.65091183473E+02  0.10566000000E+00 0. -1.
        -13    1    4    4    0    0  0.52728561139E+01 -0.11541577037E+01  0.10169153185E+02  0.11513380570E+02  0.10566000000E+00 0.  1.
         14    1    4    4    0    0  0.27978029982E+01 -0.16227549817E+00  0.58045289314E+01  0.64456645173E+01  0.00000000000E+00 0. -1.
<mgrwt>
<rscale>  0 0.80474164E+02</rscale>
<asrwt>0</asrwt>
<pdfrwt beam="1">  1        1 0.21769652E-01 0.80474164E+02</pdfrwt>
<pdfrwt beam="2">  1       -2 0.17602517E-02 0.80474164E+02</pdfrwt>
<totfact> 0.15375314E+05</totfact>
</mgrwt>
</event>
<event>
 8    1  0.8577104E-018  0.7883581E+02  0.7818608E-02  0.1332388E+00
          1   -1    0    0  501    0  0.00000000000E+00  0.00000000000E+00  0.45178719682E+03  0.45178719685E+03  0.50400000000E-02 0. -1.
         -2   -1    0    0    0  501 -0.00000000000E+00 -0.00000000000E+00 -0.34391659445E+01  0.34391668899E+01  0.25500000000E-02 0.  1.
        -24    2    1    2    0    0  0.00000000000E+00  0.00000000000E+00  0.44834803087E+03  0.45522636374E+03  0.78835813259E+02 0.  0.
         66    2    3    3    0    0  0.13001719676E+02 -0.37160327421E+02  0.23213307950E+03  0.23545636804E+03  0.20000004674E+01 0.  0.
         13    1    3    3    0    0 -0.13001719676E+02  0.37160327421E+02  0.21621495137E+03  0.21976999570E+03  0.10566000000E+00 0. -1.
         13    1    4    4    0    0  0.83337340895E+00 -0.17568167668E+01  0.11525595367E+02  0.11688944734E+02  0.10566000000E+00 0. -1.
        -13    1    4    4    0    0  0.72616782141E+01 -0.23045692795E+02  0.13941395859E+03  0.14149239888E+03  0.10566000000E+00 0.  1.
        -14    1    4    4    0    0  0.49066680526E+01 -0.12357817859E+02  0.81193525545E+02  0.82275024425E+02  0.00000000000E+00 0.  1.
<mgrwt>
<rscale>  0 0.78835813E+02</rscale>
<asrwt>0</asrwt>
<pdfrwt beam="1">  1        1 0.69505663E-01 0.78835813E+02</pdfrwt>
<pdfrwt beam="2">  1       -2 0.52910298E-03 0.78835813E+02</pdfrwt>
<totfact> 0.20109028E+05</totfact>
</mgrwt>
</event>
<event>
 8    1  0.8577104E-018  0.8046859E+02  0.7818608E-02  0.1327727E+00
          1   -1    0    0  501    0  0.00000000000E+00  0.00000000000E+00  0.71196765552E+01  0.71196783391E+01  0.50400000000E-02 0. -1.
         -2   -1    0    0    0  501 -0.00000000000E+00 -0.00000000000E+00 -0.22736964986E+03  0.22736964987E+03  0.25500000000E-02 0.  1.
        -24    2    1    2    0    0  0.00000000000E+00  0.00000000000E+00 -0.22024997331E+03  0.23448932821E+03  0.80468592042E+02 0.  0.
         66    2    3    3    0    0 -0.24659960522E+02  0.27946210058E+02 -0.15416399148E+03  0.15861790759E+03  0.20000074324E+01 0.  0.
         13    1    3    3    0    0  0.24659960522E+02 -0.27946210058E+02 -0.66085981822E+02  0.75871420620E+02  0.10566000000E+00 0. -1.
         13    1    4    4    0    0 -0.10961925202E+02  0.12212245061E+02 -0.66017687616E+02  0.68026825412E+02  0.10566000000E+00 0. -1.
        -13    1    4    4    0    0 -0.13209005113E+02  0.14934500630E+02 -0.83091530938E+02  0.85450165610E+02  0.10566000000E+00 0.  1.
         14    1    4    4    0    0 -0.48903020727E+00  0.79946436680E+00 -0.50547729300E+01  0.51409165712E+01  0.00000000000E+00 0. -1.
<mgrwt>
<rscale>  0 0.80468592E+02</rscale>
<asrwt>0</asrwt>
<pdfrwt beam="1">  1        1 0.10953352E-02 0.80468592E+02</pdfrwt>
<pdfrwt beam="2">  1       -2 0.34979941E-01 0.80468592E+02</pdfrwt>
<totfact> 0.79355864E+04</totfact>
</mgrwt>
</event>
<event>
 8    1  0.8577104E-018  0.8036072E+02  0.7818608E-02  0.1328031E+00
         -2   -1    0    0    0  501 -0.00000000000E+00  0.00000000000E+00  0.38123889242E+02  0.38123889327E+02  0.25500000000E-02 0.  1.
          1   -1    0    0  501    0  0.00000000000E+00 -0.00000000000E+00 -0.42347762956E+02  0.42347763256E+02  0.50400000000E-02 0. -1.
        -24    2    1    2    0    0 -0.35527136788E-14  0.00000000000E+00 -0.42238737146E+01  0.80471652583E+02  0.80360722746E+02 0.  0.
         66    2    3    3    0    0 -0.17921604469E+02  0.25367494127E+02  0.23373076306E+02  0.38922928421E+02  0.19999989507E+01 0.  0.
         13    1    3    3    0    0  0.17921604469E+02 -0.25367494127E+02 -0.27596950021E+02  0.41548724162E+02  0.10566000000E+00 0. -1.
         13    1    4    4    0    0 -0.54971222396E+01  0.75647777680E+01  0.60932221121E+01  0.11161663646E+02  0.10566000000E+00 0. -1.
        -13    1    4    4    0    0 -0.67560448116E+01  0.10378177345E+02  0.10068918243E+02  0.15960732599E+02  0.10566000000E+00 0.  1.
        -14    1    4    4    0    0 -0.56684374179E+01  0.74245390147E+01  0.72109359510E+01  0.11800532176E+02  0.00000000000E+00 0.  1.
<mgrwt>
<rscale>  0 0.80360723E+02</rscale>
<asrwt>0</asrwt>
<pdfrwt beam="1">  1        1 0.65150405E-02 0.80360723E+02</pdfrwt>
<pdfrwt beam="2">  1       -2 0.58652138E-02 0.80360723E+02</pdfrwt>
<totfact> 0.12654052E+05</totfact>
</mgrwt>
</event>
<event>
 8    1  0.8577104E-018  0.7757223E+02  0.7818608E-02  0.1336086E+00
          1   -1    0    0  501    0  0.00000000000E+00  0.00000000000E+00  0.41708532558E+02  0.41708532862E+02  0.50400000000E-02 0. -1.
         -2   -1    0    0    0  501 -0.00000000000E+00 -0.00000000000E+00 -0.36068464007E+02  0.36068464097E+02  0.25500000000E-02 0.  1.
        -24    2    1    2    0    0  0.00000000000E+00  0.17763568394E-14  0.56400685509E+01  0.77776996959E+02  0.77572230100E+02 0.  0.
         66    2    3    3    0    0 -0.10802820288E+02 -0.14051015958E+02 -0.31739739954E+02  0.36408008290E+02  0.19999999114E+01 0.  0.
         13    1    3    3    0    0  0.10802820288E+02  0.14051015958E+02  0.37379808505E+02  0.41368988669E+02  0.10566000000E+00 0. -1.
         13    1    4    4    0    0 -0.67462703420E+01 -0.91025994166E+01 -0.19185377632E+02  0.22281367969E+02  0.10566000000E+00 0. -1.
        -13    1    4    4    0    0 -0.39522379323E+01 -0.49536798365E+01 -0.12483915049E+02  0.14000658113E+02  0.10566000000E+00 0.  1.
         14    1    4    4    0    0 -0.10431201331E+00  0.52632953270E-02 -0.70447273349E-01  0.12598220796E+00  0.00000000000E+00 0. -1.
<mgrwt>
<rscale>  0 0.77572230E+02</rscale>
<asrwt>0</asrwt>
<pdfrwt beam="1">  1        1 0.64166974E-02 0.77572230E+02</pdfrwt>
<pdfrwt beam="2">  1       -2 0.55489945E-02 0.77572230E+02</pdfrwt>
<totfact> 0.13936607E+05</totfact>
</mgrwt>
</event>
<event>
 8    1  0.8577104E-018  0.8356215E+02  0.7818608E-02  0.1319236E+00
         -2   -1    0    0    0  501 -0.00000000000E+00  0.00000000000E+00  0.21747906892E+02  0.21747907042E+02  0.25500000000E-02 0.  1.
          1   -1    0    0  501    0  0.00000000000E+00 -0.00000000000E+00 -0.80267866178E+02  0.80267866336E+02  0.50400000000E-02 0. -1.
        -24    2    1    2    0    0  0.00000000000E+00  0.17763568394E-14 -0.58519959285E+02  0.10201577338E+03  0.83562146832E+02 0.  0.
         66    2    3    3    0    0 -0.32657898640E+02  0.82674464268E+01  0.84519708639E+00  0.33758012141E+02  0.20000028934E+01 0.  0.
         13    1    3    3    0    0  0.32657898640E+02 -0.82674464268E+01 -0.59365156372E+02  0.68257761237E+02  0.10566000000E+00 0. -1.
         13    1    4    4    0    0 -0.13809070809E+01  0.64971201081E+00  0.14149427093E+00  0.15362990358E+01  0.10566000000E+00 0. -1.
        -13    1    4    4    0    0 -0.31098785037E+02  0.74767948157E+01  0.67093456958E+00  0.31992158551E+02  0.10566000000E+00 0.  1.
        -14    1    4    4    0    0 -0.17820652207E+00  0.14093960029E+00  0.32768245886E-01  0.22955455425E+00  0.00000000000E+00 0.  1.
<mgrwt>
<rscale>  0 0.83562147E+02</rscale>
<asrwt>0</asrwt>
<pdfrwt beam="1">  1        1 0.12348902E-01 0.83562147E+02</pdfrwt>
<pdfrwt beam="2">  1       -2 0.33458319E-02 0.83562147E+02</pdfrwt>
<totfact> 0.12586249E+05</totfact>
</mgrwt>
</event>
<event>
 8    1  0.8577104E-018  0.7929245E+02  0.7818608E-02  0.1331071E+00
          1   -1    0    0  501    0  0.00000000000E+00  0.00000000000E+00  0.23430413232E+03  0.23430413237E+03  0.50400000000E-02 0. -1.
         -2   -1    0    0    0  501 -0.00000000000E+00 -0.00000000000E+00 -0.67084731290E+01  0.67084736136E+01  0.25500000000E-02 0.  1.
        -24    2    1    2    0    0  0.00000000000E+00  0.00000000000E+00  0.22759565919E+03  0.24101260599E+03  0.79292447070E+02 0.  0.
         66    2    3    3    0    0 -0.11536298115E+02 -0.33936422340E+02  0.62552071066E+02  0.72121623160E+02  0.19999992822E+01 0.  0.
         13    1    3    3    0    0  0.11536298115E+02  0.33936422340E+02  0.16504358812E+03  0.16889098283E+03  0.10566000000E+00 0. -1.
         13    1    4    4    0    0 -0.34025022137E+01 -0.11474045919E+02  0.21746922003E+02  0.24822782513E+02  0.10566000000E+00 0. -1.
        -13    1    4    4    0    0 -0.49307475541E+01 -0.11895345591E+02  0.21955985243E+02  0.25453643555E+02  0.10566000000E+00 0.  1.
         14    1    4    4    0    0 -0.32030483476E+01 -0.10567030829E+02  0.18849163820E+02  0.21845197091E+02  0.00000000000E+00 0. -1.
<mgrwt>
<rscale>  0 0.79292447E+02</rscale>
<asrwt>0</asrwt>
<pdfrwt beam="1">  1        1 0.36046786E-01 0.79292447E+02</pdfrwt>
<pdfrwt beam="2">  1       -2 0.10320729E-02 0.79292447E+02</pdfrwt>
<totfact> 0.17605442E+05</totfact>
</mgrwt>
</event>
<event>
 8    1  0.8577104E-018  0.8160786E+02  0.7818608E-02  0.1324550E+00
         -2   -1    0    0    0  501 -0.00000000000E+00  0.00000000000E+00  0.89327238621E+01  0.89327242260E+01  0.25500000000E-02 0.  1.
          1   -1    0    0  501    0  0.00000000000E+00 -0.00000000000E+00 -0.18638891656E+03  0.18638891663E+03  0.50400000000E-02 0. -1.
        -24    2    1    2    0    0 -0.35527136788E-14  0.00000000000E+00 -0.17745619270E+03  0.19532164086E+03  0.81607861503E+02 0.  0.
         66    2    3    3    0    0 -0.25586989148E+02  0.14904042931E+02 -0.21674535946E+02  0.36750646490E+02  0.19999998914E+01 0.  0.
         13    1    3    3    0    0  0.25586989148E+02 -0.14904042931E+02 -0.15578165675E+03  0.15857099437E+03  0.10566000000E+00 0. -1.
         13    1    4    4    0    0 -0.92056295416E+00  0.25797662964E+00 -0.46382522315E+00  0.10678417332E+01  0.10566000000E+00 0. -1.
        -13    1    4    4    0    0 -0.24722022996E+01  0.15927738030E+01 -0.20111991015E+01  0.35643791127E+01  0.10566000000E+00 0.  1.
        -14    1    4    4    0    0 -0.22194223894E+02  0.13053292499E+02 -0.19199511621E+02  0.32118425644E+02  0.00000000000E+00 0.  1.
<mgrwt>
<rscale>  0 0.81607862E+02</rscale>
<asrwt>0</asrwt>
<pdfrwt beam="1">  1        1 0.28675215E-01 0.81607862E+02</pdfrwt>
<pdfrwt beam="2">  1       -2 0.13742654E-02 0.81607862E+02</pdfrwt>
<totfact> 0.15599691E+05</totfact>
</mgrwt>
</event>
<event>
 8    1  0.8577104E-018  0.8011146E+02  0.7818608E-02  0.1328735E+00
         -2   -1    0    0    0  501 -0.00000000000E+00  0.00000000000E+00  0.11392033397E+02  0.11392033682E+02  0.25500000000E-02 0.  1.
          1   -1    0    0  501    0  0.00000000000E+00 -0.00000000000E+00 -0.14084064901E+03  0.14084064910E+03  0.50400000000E-02 0. -1.
        -24    2    1    2    0    0  0.00000000000E+00  0.00000000000E+00 -0.12944861561E+03  0.15223268278E+03  0.80111457501E+02 0.  0.
         66    2    3    3    0    0 -0.24380045403E+02 -0.42183773374E+01 -0.49659102062E+01  0.25314849399E+02  0.20000036752E+01 0.  0.
         13    1    3    3    0    0  0.24380045403E+02  0.42183773374E+01 -0.12448270540E+03  0.12691783338E+03  0.10566000000E+00 0. -1.
         13    1    4    4    0    0 -0.61257514555E+01 -0.81089871480E+00 -0.51984438713E+00  0.62019182389E+01  0.10566000000E+00 0. -1.
        -13    1    4    4    0    0 -0.14976837676E+02 -0.26275210684E+01 -0.33548561904E+01  0.15571633113E+02  0.10566000000E+00 0.  1.
        -14    1    4    4    0    0 -0.32774562724E+01 -0.77995755428E+00 -0.10912096287E+01  0.35412980470E+01  0.00000000000E+00 0.  1.
<mgrwt>
<rscale>  0 0.80111458E+02</rscale>
<asrwt>0</asrwt>
<pdfrwt beam="1">  1        1 0.21667791E-01 0.80111458E+02</pdfrwt>
<pdfrwt beam="2">  1       -2 0.17526206E-02 0.80111458E+02</pdfrwt>
<totfact> 0.15549078E+05</totfact>
</mgrwt>
</event>
<event>
 8    1  0.8577104E-018  0.7857399E+02  0.7818608E-02  0.1333148E+00
         -2   -1    0    0    0  501 -0.00000000000E+00  0.00000000000E+00  0.20134043275E+03  0.20134043277E+03  0.25500000000E-02 0.  1.
          1   -1    0    0  501    0  0.00000000000E+00 -0.00000000000E+00 -0.76659609878E+01  0.76659626446E+01  0.50400000000E-02 0. -1.
        -24    2    1    2    0    0  0.00000000000E+00  0.00000000000E+00  0.19367447177E+03  0.20900639542E+03  0.78573992582E+02 0.  0.
         66    2    3    3    0    0 -0.27160050976E+02 -0.26494905969E+02  0.12374002017E+03  0.12944203722E+03  0.19999989478E+01 0.  0.
         13    1    3    3    0    0  0.27160050976E+02  0.26494905969E+02  0.69934451594E+02  0.79564358196E+02  0.10566000000E+00 0. -1.
         13    1    4    4    0    0 -0.12123666363E+02 -0.10490494310E+02  0.51988299198E+02  0.54404302904E+02  0.10566000000E+00 0. -1.
        -13    1    4    4    0    0 -0.12076734647E+02 -0.12939114798E+02  0.58214575560E+02  0.60845839489E+02  0.10566000000E+00 0.  1.
         14    1    4    4    0    0 -0.29596499660E+01 -0.30652968610E+01  0.13537145416E+02  0.14191894827E+02  0.00000000000E+00 0. -1.
<mgrwt>
<rscale>  0 0.78573993E+02</rscale>
<asrwt>0</asrwt>
<pdfrwt beam="1">  1        1 0.11793786E-02 0.78573993E+02</pdfrwt>
<pdfrwt beam="2">  1       -2 0.30975455E-01 0.78573993E+02</pdfrwt>
<totfact> 0.88872331E+04</totfact>
</mgrwt>
</event>
<event>
 8    1  0.8577104E-018  0.7319945E+02  0.7818608E-02  0.1349539E+00
          1   -1    0    0  501    0  0.00000000000E+00  0.00000000000E+00  0.54270433206E+02  0.54270433440E+02  0.50400000000E-02 0. -1.
         -2   -1    0    0    0  501 -0.00000000000E+00 -0.00000000000E+00 -0.24682685181E+02  0.24682685312E+02  0.25500000000E-02 0.  1.
        -24    2    1    2    0    0 -0.17763568394E-14 -0.71054273576E-14  0.29587748026E+02  0.78953118753E+02  0.73199454421E+02 0.  0.
         66    2    3    3    0    0 -0.10708318544E+02 -0.32222453240E+02  0.15094508418E+00  0.34014370325E+02  0.20000063389E+01 0.  0.
         13    1    3    3    0    0  0.10708318544E+02  0.32222453240E+02  0.29436802941E+02  0.44938748428E+02  0.10566000000E+00 0. -1.
         13    1    4    4    0    0 -0.13230804203E+01 -0.51483070402E+01 -0.54568254383E+00  0.53445804936E+01  0.10566000000E+00 0. -1.
        -13    1    4    4    0    0 -0.66112878799E+01 -0.19708510957E+02  0.33475931252E+00  0.20790809493E+02  0.10566000000E+00 0.  1.
         14    1    4    4    0    0 -0.27739502440E+01 -0.73656352428E+01  0.36186831549E+00  0.78789803378E+01  0.00000000000E+00 0. -1.
<mgrwt>
<rscale>  0 0.73199454E+02</rscale>
<asrwt>0</asrwt>
<pdfrwt beam="1">  1        1 0.83492974E-02 0.73199454E+02</pdfrwt>
<pdfrwt beam="2">  1       -2 0.37973362E-02 0.73199454E+02</pdfrwt>
<totfact> 0.17012185E+05</totfact>
</mgrwt>
</event>
<event>
 8    1  0.8577104E-018  0.7789530E+02  0.7818608E-02  0.1335133E+00
         -2   -1    0    0    0  501 -0.00000000000E+00  0.00000000000E+00  0.77008641286E+02  0.77008641328E+02  0.25500000000E-02 0.  1.
          1   -1    0    0  501    0  0.00000000000E+00 -0.00000000000E+00 -0.19698042873E+02  0.19698043518E+02  0.50400000000E-02 0. -1.
        -24    2    1    2    0    0  0.00000000000E+00  0.00000000000E+00  0.57310598413E+02  0.96706684847E+02  0.77895302834E+02 0.  0.
         66    2    3    3    0    0 -0.31891256646E+02 -0.18726003488E+02  0.43736665839E+02  0.57311529477E+02  0.20000037930E+01 0.  0.
         13    1    3    3    0    0  0.31891256646E+02  0.18726003488E+02  0.13573932574E+02  0.39395155370E+02  0.10566000000E+00 0. -1.
         13    1    4    4    0    0 -0.15341265302E+02 -0.81403111935E+01  0.20199441859E+02  0.26639213630E+02  0.10566000000E+00 0. -1.
        -13    1    4    4    0    0 -0.82602131432E+01 -0.47501785563E+01  0.11398584882E+02  0.14857126870E+02  0.10566000000E+00 0.  1.
         14    1    4    4    0    0 -0.82897782008E+01 -0.58355137380E+01  0.12138639098E+02  0.15815188976E+02  0.00000000000E+00 0. -1.
<mgrwt>
<rscale>  0 0.77895303E+02</rscale>
<asrwt>0</asrwt>
<pdfrwt beam="1">  1        1 0.30304683E-02 0.77895303E+02</pdfrwt>
<pdfrwt beam="2">  1       -2 0.11847483E-01 0.77895303E+02</pdfrwt>
<totfact> 0.12058510E+05</totfact>
</mgrwt>
</event>
<event>
 8    1  0.8577104E-018  0.7940943E+02  0.7818608E-02  0.1330736E+00
          1   -1    0    0  501    0  0.00000000000E+00  0.00000000000E+00  0.61168777148E+02  0.61168777356E+02  0.50400000000E-02 0. -1.
         -2   -1    0    0    0  501 -0.00000000000E+00 -0.00000000000E+00 -0.25772368635E+02  0.25772368761E+02  0.25500000000E-02 0.  1.
        -24    2    1    2    0    0 -0.88817841970E-15  0.35527136788E-14  0.35396408513E+02  0.86941146117E+02  0.79409427353E+02 0.  0.
         66    2    3    3    0    0  0.79759622543E+01 -0.23691193739E+02 -0.16028415371E+02  0.29762371120E+02  0.20000001801E+01 0.  0.
         13    1    3    3    0    0 -0.79759622543E+01  0.23691193739E+02  0.51424823884E+02  0.57178774997E+02  0.10566000000E+00 0. -1.
         13    1    4    4    0    0  0.13271025532E+01 -0.43439856081E+01 -0.32282709645E+01  0.55735365439E+01  0.10566000000E+00 0.  1.
        -13    1    4    4    0    0 -0.72894404439E-02 -0.48618466685E+00 -0.51514812306E+00  0.71621944299E+00  0.10566000000E+00 0. -1.
        -14    1    4    4    0    0  0.66561491415E+01 -0.18861023464E+02 -0.12284996283E+02  0.23472615133E+02  0.00000000000E+00 0.  1.
<mgrwt>
<rscale>  0 0.79409427E+02</rscale>
<asrwt>0</asrwt>
<pdfrwt beam="1">  1        1 0.94105811E-02 0.79409427E+02</pdfrwt>
<pdfrwt beam="2">  1       -2 0.39649798E-02 0.79409427E+02</pdfrwt>
<totfact> 0.13859203E+05</totfact>
</mgrwt>
</event>
<event>
 8    1  0.8577104E-018  0.7949588E+02  0.7818608E-02  0.1330488E+00
          1   -1    0    0  501    0  0.00000000000E+00  0.00000000000E+00  0.20425050065E+03  0.20425050071E+03  0.50400000000E-02 0. -1.
         -2   -1    0    0    0  501 -0.00000000000E+00 -0.00000000000E+00 -0.77351037338E+01  0.77351041542E+01  0.25500000000E-02 0.  1.
        -24    2    1    2    0    0 -0.35527136788E-14  0.00000000000E+00  0.19651539691E+03  0.21198560486E+03  0.79495883197E+02 0.  0.
         66    2    3    3    0    0 -0.17512369282E+02  0.31259237967E+02  0.52591134896E+02  0.63668284913E+02  0.19999994704E+01 0.  0.
         13    1    3    3    0    0  0.17512369282E+02 -0.31259237967E+02  0.14392426201E+03  0.14831731995E+03  0.10566000000E+00 0. -1.
         13    1    4    4    0    0 -0.13312573197E+01  0.33840384289E+01  0.56621205580E+01  0.67301363574E+01  0.10566000000E+00 0. -1.
        -13    1    4    4    0    0 -0.63182524653E+01  0.10530633324E+02  0.18548714593E+02  0.22245910400E+02  0.10566000000E+00 0.  1.
        -14    1    4    4    0    0 -0.98628594973E+01  0.17344566214E+02  0.28380299745E+02  0.34692238155E+02  0.00000000000E+00 0.  1.
<mgrwt>
<rscale>  0 0.79495883E+02</rscale>
<asrwt>0</asrwt>
<pdfrwt beam="1">  1        1 0.31423156E-01 0.79495883E+02</pdfrwt>
<pdfrwt beam="2">  1       -2 0.11900159E-02 0.79495883E+02</pdfrwt>
<totfact> 0.17025316E+05</totfact>
</mgrwt>
</event>
<event>
 8    1  0.8577104E-018  0.8260149E+02  0.7818608E-02  0.1321827E+00
          1   -1    0    0  501    0  0.00000000000E+00  0.00000000000E+00  0.65897060581E+02  0.65897060773E+02  0.50400000000E-02 0. -1.
         -2   -1    0    0    0  501 -0.00000000000E+00 -0.00000000000E+00 -0.25885091976E+02  0.25885092101E+02  0.25500000000E-02 0.  1.
        -24    2    1    2    0    0  0.17763568394E-14  0.00000000000E+00  0.40011968605E+02  0.91782152875E+02  0.82601488817E+02 0.  0.
         66    2    3    3    0    0  0.89004307108E+01 -0.12629109529E+02 -0.22512211942E+02  0.27377212137E+02  0.19999958935E+01 0.  0.
         13    1    3    3    0    0 -0.89004307108E+01  0.12629109529E+02  0.62524180547E+02  0.64404940737E+02  0.10566000000E+00 0. -1.
         13    1    4    4    0    0  0.13865542156E+01 -0.22913049854E+01 -0.29868633749E+01  0.40131194831E+01  0.10566000000E+00 0. -1.
        -13    1    4    4    0    0  0.13892377116E+01 -0.12761543323E+01 -0.26593112523E+01  0.32621544524E+01  0.10566000000E+00 0. -1.
        -14    1    4    4    0    0  0.61246387836E+01 -0.90616502111E+01 -0.16866037315E+02  0.20101938202E+02  0.00000000000E+00 0.  1.
<mgrwt>
<rscale>  0 0.82601489E+02</rscale>
<asrwt>0</asrwt>
<pdfrwt beam="1">  1        1 0.10138009E-01 0.82601489E+02</pdfrwt>
<pdfrwt beam="2">  1       -2 0.39823218E-02 0.82601489E+02</pdfrwt>
<totfact> 0.12580950E+05</totfact>
</mgrwt>
</event>
<event>
 8    1  0.8577104E-018  0.7922412E+02  0.7818608E-02  0.1331268E+00
         -2   -1    0    0    0  501 -0.00000000000E+00  0.00000000000E+00  0.11343364361E+02  0.11343364647E+02  0.25500000000E-02 0.  1.
          1   -1    0    0  501    0  0.00000000000E+00 -0.00000000000E+00 -0.13832889684E+03  0.13832889693E+03  0.50400000000E-02 0. -1.
        -24    2    1    2    0    0  0.00000000000E+00  0.35527136788E-14 -0.12698553248E+03  0.14967226158E+03  0.79224115186E+02 0.  0.
         66    2    3    3    0    0 -0.24150697830E+02  0.22272017816E+02 -0.21806824978E+02  0.39482104764E+02  0.19999994256E+01 0.  0.
         13    1    3    3    0    0  0.24150697830E+02 -0.22272017816E+02 -0.10517870750E+03  0.11019015681E+03  0.10566000000E+00 0. -1.
         13    1    4    4    0    0 -0.70706862605E+01  0.69643012764E+01 -0.75185194321E+01  0.12451321012E+02  0.10566000000E+00 0. -1.
        -13    1    4    4    0    0 -0.13426178603E+02  0.11999350891E+02 -0.11534139045E+02  0.21384438764E+02  0.10566000000E+00 0.  1.
        -14    1    4    4    0    0 -0.36538329663E+01  0.33083656481E+01 -0.27541665004E+01  0.56463449876E+01  0.00000000000E+00 0.  1.
<mgrwt>
<rscale>  0 0.79224115E+02</rscale>
<asrwt>0</asrwt>
<pdfrwt beam="1">  1        1 0.21281368E-01 0.79224115E+02</pdfrwt>
<pdfrwt beam="2">  1       -2 0.17451331E-02 0.79224115E+02</pdfrwt>
<totfact> 0.15967180E+05</totfact>
</mgrwt>
</event>
<event>
 8    1  0.8577104E-018  0.7870759E+02  0.7818608E-02  0.1332760E+00
         -2   -1    0    0    0  501 -0.00000000000E+00  0.00000000000E+00  0.80867155521E+03  0.80867155522E+03  0.25500000000E-02 0.  1.
          1   -1    0    0  501    0  0.00000000000E+00 -0.00000000000E+00 -0.19151389451E+01  0.19151455769E+01  0.50400000000E-02 0. -1.
        -24    2    1    2    0    0  0.00000000000E+00  0.00000000000E+00  0.80675641627E+03  0.81058670079E+03  0.78707587401E+02 0.  0.
         66    2    3    3    0    0  0.22464483496E+02  0.36853575058E+01  0.73391701956E+03  0.73427271941E+03  0.19999957402E+01 0.  0.
         13    1    3    3    0    0 -0.22464483496E+02 -0.36853575058E+01  0.72839396704E+02  0.76313981386E+02  0.10566000000E+00 0. -1.
         13    1    4    4    0    0  0.51137767226E+01  0.14203825522E+01  0.16751811424E+03  0.16760220154E+03  0.10566000000E+00 0. -1.
        -13    1    4    4    0    0  0.33134615368E+01  0.77582184777E+00  0.12180019166E+03  0.12184776887E+03  0.10566000000E+00 0.  1.
        -14    1    4    4    0    0  0.14037245237E+02  0.14891531059E+01  0.44459871367E+03  0.44482274900E+03  0.00000000000E+00 0.  1.
<mgrwt>
<rscale>  0 0.78707587E+02</rscale>
<asrwt>0</asrwt>
<pdfrwt beam="1">  1        1 0.29463747E-03 0.78707587E+02</pdfrwt>
<pdfrwt beam="2">  1       -2 0.12441093E+00 0.78707587E+02</pdfrwt>
<totfact> 0.34273213E+04</totfact>
</mgrwt>
</event>
<event>
 8    1  0.8577104E-018  0.7958971E+02  0.7818608E-02  0.1330220E+00
          1   -1    0    0  501    0  0.00000000000E+00  0.00000000000E+00  0.22129721088E+02  0.22129721662E+02  0.50400000000E-02 0. -1.
         -2   -1    0    0    0  501 -0.00000000000E+00 -0.00000000000E+00 -0.71561245701E+02  0.71561245746E+02  0.25500000000E-02 0.  1.
        -24    2    1    2    0    0  0.00000000000E+00  0.35527136788E-14 -0.49431524613E+02  0.93690967408E+02  0.79589708809E+02 0.  0.
         66    2    3    3    0    0  0.17393191070E+02  0.21825295264E+02 -0.58084207627E+02  0.64472023273E+02  0.20000001001E+01 0.  0.
         13    1    3    3    0    0 -0.17393191070E+02 -0.21825295264E+02  0.86526830138E+01  0.29218944134E+02  0.10566000000E+00 0. -1.
         13    1    4    4    0    0  0.10956987187E+01  0.22563242915E+01 -0.54252227671E+01  0.59779395362E+01  0.10566000000E+00 0. -1.
        -13    1    4    4    0    0  0.10071153560E+02  0.12083329367E+02 -0.32376189240E+02  0.35995329924E+02  0.10566000000E+00 0.  1.
        -14    1    4    4    0    0  0.62263387909E+01  0.74856416055E+01 -0.20282795620E+02  0.22498753813E+02  0.00000000000E+00 0.  1.
<mgrwt>
<rscale>  0 0.79589709E+02</rscale>
<asrwt>0</asrwt>
<pdfrwt beam="1">  1        1 0.34045726E-02 0.79589709E+02</pdfrwt>
<pdfrwt beam="2">  1       -2 0.11009422E-01 0.79589709E+02</pdfrwt>
<totfact> 0.11590503E+05</totfact>
</mgrwt>
</event>
<event>
 8    1  0.8577104E-018  0.8382308E+02  0.7818608E-02  0.1318539E+00
         -2   -1    0    0    0  501 -0.00000000000E+00  0.00000000000E+00  0.14231544231E+02  0.14231544459E+02  0.25500000000E-02 0.  1.
          1   -1    0    0  501    0  0.00000000000E+00 -0.00000000000E+00 -0.12342843844E+03  0.12342843854E+03  0.50400000000E-02 0. -1.
        -24    2    1    2    0    0  0.00000000000E+00  0.35527136788E-14 -0.10919689421E+03  0.13765998300E+03  0.83823082830E+02 0.  0.
         66    2    3    3    0    0 -0.19239155382E+02  0.29778307701E+02 -0.17992519638E+02  0.39807329413E+02  0.20000006858E+01 0.  0.
         13    1    3    3    0    0  0.19239155382E+02 -0.29778307701E+02 -0.91204374569E+02  0.97852653587E+02  0.10566000000E+00 0. -1.
         13    1    4    4    0    0 -0.79393524118E+01  0.11236482756E+02 -0.68220191723E+01  0.15357179789E+02  0.10566000000E+00 0.  1.
        -13    1    4    4    0    0 -0.45176614465E+01  0.78633927088E+01 -0.52972197030E+01  0.10503042914E+02  0.10566000000E+00 0. -1.
        -14    1    4    4    0    0 -0.67821415235E+01  0.10678432236E+02 -0.58732807624E+01  0.13947106710E+02  0.00000000000E+00 0.  1.
<mgrwt>
<rscale>  0 0.83823083E+02</rscale>
<asrwt>0</asrwt>
<pdfrwt beam="1">  1        1 0.18988990E-01 0.83823083E+02</pdfrwt>
<pdfrwt beam="2">  1       -2 0.21894684E-02 0.83823083E+02</pdfrwt>
<totfact> 0.13440825E+05</totfact>
</mgrwt>
</event>
<event>
 8    1  0.8577104E-018  0.6976100E+02  0.7818608E-02  0.1360908E+00
         -2   -1    0    0    0  501 -0.00000000000E+00  0.00000000000E+00  0.42553886325E+03  0.42553886326E+03  0.25500000000E-02 0.  1.
          1   -1    0    0  501    0  0.00000000000E+00 -0.00000000000E+00 -0.28590770347E+01  0.28590814770E+01  0.50400000000E-02 0. -1.
        -24    2    1    2    0    0  0.00000000000E+00  0.00000000000E+00  0.42267978621E+03  0.42839794473E+03  0.69761001841E+02 0.  0.
         66    2    3    3    0    0  0.94171197768E+01 -0.21587093934E+02  0.36927184959E+03  0.37002754447E+03  0.19999977496E+01 0.  0.
         13    1    3    3    0    0 -0.94171197768E+01  0.21587093934E+02  0.53407936621E+02  0.58370400269E+02  0.10566000000E+00 0. -1.
         13    1    4    4    0    0  0.56722143244E+00 -0.23466030695E+01  0.40186491064E+02  0.40259079897E+02  0.10566000000E+00 0. -1.
        -13    1    4    4    0    0  0.70233272164E+01 -0.16302913652E+02  0.27303338774E+03  0.27360985747E+03  0.10566000000E+00 0.  1.
        -14    1    4    4    0    0  0.18265711279E+01 -0.29375772123E+01  0.56051970786E+02  0.56158607096E+02  0.00000000000E+00 0.  1.
<mgrwt>
<rscale>  0 0.69761002E+02</rscale>
<asrwt>0</asrwt>
<pdfrwt beam="1">  1        1 0.43985819E-03 0.69761002E+02</pdfrwt>
<pdfrwt beam="2">  1       -2 0.65467542E-01 0.69761002E+02</pdfrwt>
<totfact> 0.80552325E+04</totfact>
</mgrwt>
</event>
<event>
 8    1  0.8577104E-018  0.8302393E+02  0.7818608E-02  0.1320683E+00
         -2   -1    0    0    0  501 -0.00000000000E+00  0.00000000000E+00  0.79183300694E+02  0.79183300735E+02  0.25500000000E-02 0.  1.
          1   -1    0    0  501    0  0.00000000000E+00 -0.00000000000E+00 -0.21762710671E+02  0.21762711255E+02  0.50400000000E-02 0. -1.
        -24    2    1    2    0    0  0.00000000000E+00  0.00000000000E+00  0.57420590023E+02  0.10094601199E+03  0.83023931358E+02 0.  0.
         66    2    3    3    0    0 -0.32472908807E+02 -0.25136494525E+02  0.21543502715E+02  0.46416114492E+02  0.20000029880E+01 0.  0.
         13    1    3    3    0    0  0.32472908807E+02  0.25136494525E+02  0.35877087308E+02  0.54529897498E+02  0.10566000000E+00 0. -1.
         13    1    4    4    0    0 -0.96128378590E+01 -0.68308169742E+01  0.53416742069E+01  0.12946480588E+02  0.10566000000E+00 0. -1.
        -13    1    4    4    0    0 -0.13339225291E+02 -0.10764885433E+02  0.94848055437E+01  0.19590568904E+02  0.10566000000E+00 0.  1.
         14    1    4    4    0    0 -0.95208456568E+01 -0.75407921173E+01  0.67170229648E+01  0.13879065000E+02  0.00000000000E+00 0. -1.
<mgrwt>
<rscale>  0 0.83023931E+02</rscale>
<asrwt>0</asrwt>
<pdfrwt beam="1">  1        1 0.33481093E-02 0.83023931E+02</pdfrwt>
<pdfrwt beam="2">  1       -2 0.12182046E-01 0.83023931E+02</pdfrwt>
<totfact> 0.10189977E+05</totfact>
</mgrwt>
</event>
<event>
 8    1  0.8577104E-018  0.8068290E+02  0.7818608E-02  0.1327125E+00
         -2   -1    0    0    0  501 -0.00000000000E+00  0.00000000000E+00  0.20136454120E+02  0.20136454282E+02  0.25500000000E-02 0.  1.
          1   -1    0    0  501    0  0.00000000000E+00 -0.00000000000E+00 -0.80820217218E+02  0.80820217376E+02  0.50400000000E-02 0. -1.
        -24    2    1    2    0    0  0.00000000000E+00  0.35527136788E-14 -0.60683763098E+02  0.10095667166E+03  0.80682900594E+02 0.  0.
         66    2    3    3    0    0  0.15519344637E+02 -0.31669892793E+02 -0.59174386653E+01  0.35816871048E+02  0.20000009604E+01 0.  0.
         13    1    3    3    0    0 -0.15519344637E+02  0.31669892793E+02 -0.54766324433E+02  0.65139800609E+02  0.10566000000E+00 0. -1.
         13    1    4    4    0    0  0.10670557362E+01 -0.16923132412E+01 -0.30031302825E+00  0.20258045317E+01  0.10566000000E+00 0. -1.
        -13    1    4    4    0    0  0.34566781130E+01 -0.86352433633E+01 -0.11866690401E+01  0.93773876409E+01  0.10566000000E+00 0.  1.
        -14    1    4    4    0    0  0.10995610788E+02 -0.21342336188E+02 -0.44304565970E+01  0.24413678875E+02  0.00000000000E+00 0.  1.
<mgrwt>
<rscale>  0 0.80682901E+02</rscale>
<asrwt>0</asrwt>
<pdfrwt beam="1">  1        1 0.12433879E-01 0.80682901E+02</pdfrwt>
<pdfrwt beam="2">  1       -2 0.30979161E-02 0.80682901E+02</pdfrwt>
<totfact> 0.13867826E+05</totfact>
</mgrwt>
</event>
<event>
 8    1  0.8577104E-018  0.7912632E+02  0.7818608E-02  0.1331549E+00
          1   -1    0    0  501    0  0.00000000000E+00  0.00000000000E+00  0.45831591322E+03  0.45831591324E+03  0.50400000000E-02 0. -1.
         -2   -1    0    0    0  501 -0.00000000000E+00 -0.00000000000E+00 -0.34152065455E+01  0.34152074975E+01  0.25500000000E-02 0.  1.
        -24    2    1    2    0    0  0.00000000000E+00  0.00000000000E+00  0.45490070667E+03  0.46173112074E+03  0.79126322622E+02 0.  0.
         66    2    3    3    0    0  0.94638508954E+01 -0.35387622130E+02  0.31442083748E+03  0.31655380473E+03  0.19999926829E+01 0.  0.
         13    1    3    3    0    0 -0.94638508954E+01  0.35387622130E+02  0.14047986919E+03  0.14517731602E+03  0.10566000000E+00 0. -1.
         13    1    4    4    0    0  0.32627522819E+01 -0.13857129402E+02  0.11813451198E+03  0.11898924183E+03  0.10566000000E+00 0. -1.
        -13    1    4    4    0    0  0.12036397757E+01 -0.31486416407E+01  0.32269929179E+02  0.32445680547E+02  0.10566000000E+00 0.  1.
        -14    1    4    4    0    0  0.49974588377E+01 -0.18381851087E+02  0.16401639632E+03  0.16511888235E+03  0.00000000000E+00 0.  1.
<mgrwt>
<rscale>  0 0.79126323E+02</rscale>
<asrwt>0</asrwt>
<pdfrwt beam="1">  1        1 0.70510132E-01 0.79126323E+02</pdfrwt>
<pdfrwt beam="2">  1       -2 0.52541653E-03 0.79126323E+02</pdfrwt>
<totfact> 0.19956244E+05</totfact>
</mgrwt>
</event>
<event>
 8    1  0.8577104E-018  0.8426542E+02  0.7818608E-02  0.1317365E+00
         -2   -1    0    0    0  501 -0.00000000000E+00  0.00000000000E+00  0.43995179499E+02  0.43995179573E+02  0.25500000000E-02 0.  1.
          1   -1    0    0  501    0  0.00000000000E+00 -0.00000000000E+00 -0.40349088151E+02  0.40349088466E+02  0.50400000000E-02 0. -1.
        -24    2    1    2    0    0  0.00000000000E+00 -0.35527136788E-14  0.36460913480E+01  0.84344268039E+02  0.84265423329E+02 0.  0.
         66    2    3    3    0    0  0.23162671220E+02  0.28460622717E+02  0.22498758526E+02  0.43089563976E+02  0.20000012376E+01 0.  0.
         13    1    3    3    0    0 -0.23162671220E+02 -0.28460622717E+02 -0.18852667178E+02  0.41254704062E+02  0.10566000000E+00 0. -1.
         13    1    4    4    0    0  0.82320191536E+01  0.11020871457E+02  0.90775839582E+01  0.16481487845E+02  0.10566000000E+00 0. -1.
        -13    1    4    4    0    0  0.14935143844E+02  0.17442030822E+02  0.13427022253E+02  0.26600358108E+02  0.10566000000E+00 0.  1.
         14    1    4    4    0    0 -0.44917773478E-02 -0.22795615114E-02 -0.58476858387E-02  0.77180239760E-02  0.00000000000E+00 0. -1.
<mgrwt>
<rscale>  0 0.84265423E+02</rscale>
<asrwt>0</asrwt>
<pdfrwt beam="1">  1        1 0.62075521E-02 0.84265423E+02</pdfrwt>
<pdfrwt beam="2">  1       -2 0.67684892E-02 0.84265423E+02</pdfrwt>
<totfact> 0.10976971E+05</totfact>
</mgrwt>
</event>
<event>
 8    1  0.8577104E-018  0.7608214E+02  0.7818608E-02  0.1340552E+00
         -2   -1    0    0    0  501 -0.00000000000E+00  0.00000000000E+00  0.81636331903E+03  0.81636331903E+03  0.25500000000E-02 0.  1.
          1   -1    0    0  501    0  0.00000000000E+00 -0.00000000000E+00 -0.17726420237E+01  0.17726491886E+01  0.50400000000E-02 0. -1.
        -24    2    1    2    0    0  0.35527136788E-14  0.00000000000E+00  0.81459067700E+03  0.81813596822E+03  0.76082136102E+02 0.  0.
         66    2    3    3    0    0 -0.22038680652E+02  0.17942512006E+02  0.67908007023E+03  0.67967740801E+03  0.19999999707E+01 0.  0.
         13    1    3    3    0    0  0.22038680652E+02 -0.17942512006E+02  0.13551060678E+03  0.13845856021E+03  0.10566000000E+00 0. -1.
         13    1    4    4    0    0 -0.24523047903E+01  0.22044405260E+01  0.82765556336E+02  0.82831285373E+02  0.10566000000E+00 0. -1.
        -13    1    4    4    0    0 -0.66933805646E+01  0.47924511363E+01  0.17983191696E+03  0.18002027234E+03  0.10566000000E+00 0.  1.
        -14    1    4    4    0    0 -0.12892995297E+02  0.10945620343E+02  0.41648259693E+03  0.41682585030E+03  0.00000000000E+00 0.  1.
<mgrwt>
<rscale>  0 0.76082136E+02</rscale>
<asrwt>0</asrwt>
<pdfrwt beam="1">  1        1 0.27271458E-03 0.76082136E+02</pdfrwt>
<pdfrwt beam="2">  1       -2 0.12559442E+00 0.76082136E+02</pdfrwt>
<totfact> 0.37037498E+04</totfact>
</mgrwt>
</event>
<event>
 8    1  0.8577104E-018  0.7929980E+02  0.7818608E-02  0.1331050E+00
          1   -1    0    0  501    0  0.00000000000E+00  0.00000000000E+00  0.13445904328E+03  0.13445904337E+03  0.50400000000E-02 0. -1.
         -2   -1    0    0    0  501 -0.00000000000E+00 -0.00000000000E+00 -0.11692144446E+02  0.11692144724E+02  0.25500000000E-02 0.  1.
        -24    2    1    2    0    0  0.17763568394E-14  0.00000000000E+00  0.12276689883E+03  0.14615118810E+03  0.79299800337E+02 0.  0.
         66    2    3    3    0    0 -0.90734685939E+01 -0.29177544955E+02  0.14926629616E+02  0.34065543207E+02  0.20000000845E+01 0.  0.
         13    1    3    3    0    0  0.90734685939E+01  0.29177544955E+02  0.10784026922E+03  0.11208564489E+03  0.10566000000E+00 0. -1.
         13    1    4    4    0    0 -0.19818591554E+01 -0.49385728609E+01  0.29118294648E+01  0.60668923249E+01  0.10566000000E+00 0. -1.
        -13    1    4    4    0    0 -0.50704093817E+01 -0.19159147939E+02  0.92235376414E+01  0.21860164952E+02  0.10566000000E+00 0.  1.
        -14    1    4    4    0    0 -0.20212000568E+01 -0.50798241549E+01  0.27912625102E+01  0.61384859302E+01  0.00000000000E+00 0.  1.
<mgrwt>
<rscale>  0 0.79299800E+02</rscale>
<asrwt>0</asrwt>
<pdfrwt beam="1">  1        1 0.20686006E-01 0.79299800E+02</pdfrwt>
<pdfrwt beam="2">  1       -2 0.17987915E-02 0.79299800E+02</pdfrwt>
<totfact> 0.15845209E+05</totfact>
</mgrwt>
</event>
<event>
 8    1  0.8577104E-018  0.8148192E+02  0.7818608E-02  0.1324898E+00
         -2   -1    0    0    0  501 -0.00000000000E+00  0.00000000000E+00  0.20442817376E+02  0.20442817535E+02  0.25500000000E-02 0.  1.
          1   -1    0    0  501    0  0.00000000000E+00 -0.00000000000E+00 -0.81193590979E+02  0.81193591136E+02  0.50400000000E-02 0. -1.
        -24    2    1    2    0    0  0.35527136788E-14 -0.35527136788E-14 -0.60750773604E+02  0.10163640867E+03  0.81481918694E+02 0.  0.
         66    2    3    3    0    0 -0.26498614569E+02  0.19736863421E+02 -0.60071648155E+02  0.68588069421E+02  0.20000007499E+01 0.  0.
         13    1    3    3    0    0  0.26498614569E+02 -0.19736863421E+02 -0.67912544848E+00  0.33048339250E+02  0.10566000000E+00 0. -1.
         13    1    4    4    0    0 -0.17524923583E+01  0.14503922592E+01 -0.52190742348E+01  0.56942749385E+01  0.10566000000E+00 0. -1.
        -13    1    4    4    0    0 -0.17893200052E+02  0.13107428964E+02 -0.39568169160E+02  0.45361023763E+02  0.10566000000E+00 0.  1.
         14    1    4    4    0    0 -0.68529221590E+01  0.51790421976E+01 -0.15284404760E+02  0.17532770719E+02  0.00000000000E+00 0. -1.
<mgrwt>
<rscale>  0 0.81481919E+02</rscale>
<asrwt>0</asrwt>
<pdfrwt beam="1">  1        1 0.12491322E-01 0.81481919E+02</pdfrwt>
<pdfrwt beam="2">  1       -2 0.31450489E-02 0.81481919E+02</pdfrwt>
<totfact> 0.13510145E+05</totfact>
</mgrwt>
</event>
<event>
 8    1  0.8577104E-018  0.7984838E+02  0.7818608E-02  0.1329482E+00
          1   -1    0    0  501    0  0.00000000000E+00  0.00000000000E+00  0.18458008956E+03  0.18458008963E+03  0.50400000000E-02 0. -1.
         -2   -1    0    0    0  501 -0.00000000000E+00 -0.00000000000E+00 -0.86354972019E+01  0.86354975784E+01  0.25500000000E-02 0.  1.
        -24    2    1    2    0    0 -0.17763568394E-14  0.00000000000E+00  0.17594459236E+03  0.19321558721E+03  0.79848378567E+02 0.  0.
         66    2    3    3    0    0  0.14444483111E+02  0.34203186223E+02  0.52675758965E+02  0.64476636262E+02  0.20000002682E+01 0.  0.
         13    1    3    3    0    0 -0.14444483111E+02 -0.34203186223E+02  0.12326883339E+03  0.12873895094E+03  0.10566000000E+00 0. -1.
         13    1    4    4    0    0  0.23030153965E+00  0.59956494408E+00  0.73438820183E+00  0.98132919447E+00  0.10566000000E+00 0.  1.
        -13    1    4    4    0    0  0.12603220543E+02  0.30112812806E+02  0.47248252221E+02  0.57428487400E+02  0.10566000000E+00 0.  1.
        -14    1    4    4    0    0  0.16109610285E+01  0.34908084730E+01  0.46931185421E+01  0.60668196678E+01  0.00000000000E+00 0.  1.
<mgrwt>
<rscale>  0 0.79848379E+02</rscale>
<asrwt>0</asrwt>
<pdfrwt beam="1">  1        1 0.28396936E-01 0.79848379E+02</pdfrwt>
<pdfrwt beam="2">  1       -2 0.13285381E-02 0.79848379E+02</pdfrwt>
<totfact> 0.16500421E+05</totfact>
</mgrwt>
</event>
<event>
 8    1  0.8577104E-018  0.8078878E+02  0.7818608E-02  0.1326828E+00
          1   -1    0    0  501    0  0.00000000000E+00  0.00000000000E+00  0.62160055976E+03  0.62160055978E+03  0.50400000000E-02 0. -1.
         -2   -1    0    0    0  501 -0.00000000000E+00 -0.00000000000E+00 -0.26250081160E+01  0.26250093546E+01  0.25500000000E-02 0.  1.
        -24    2    1    2    0    0  0.00000000000E+00  0.00000000000E+00  0.61897555164E+03  0.62422556913E+03  0.80788784054E+02 0.  0.
         66    2    3    3    0    0 -0.12792515267E+02  0.35800380762E+02  0.41459605711E+03  0.41634025301E+03  0.19999993461E+01 0.  0.
         13    1    3    3    0    0  0.12792515267E+02 -0.35800380762E+02  0.20437949453E+03  0.20788531612E+03  0.10566000000E+00 0. -1.
         13    1    4    4    0    0 -0.49941843039E+01  0.11898759136E+02  0.14293381089E+03  0.14351518319E+03  0.10566000000E+00 0. -1.
        -13    1    4    4    0    0 -0.55134519526E+01  0.18154165387E+02  0.20272413828E+03  0.20361006674E+03  0.10566000000E+00 0.  1.
        -14    1    4    4    0    0 -0.22848790104E+01  0.57474562387E+01  0.68938107935E+02  0.69215003077E+02  0.00000000000E+00 0.  1.
<mgrwt>
<rscale>  0 0.80788784E+02</rscale>
<asrwt>0</asrwt>
<pdfrwt beam="1">  1        1 0.95631093E-01 0.80788784E+02</pdfrwt>
<pdfrwt beam="2">  1       -2 0.40384649E-03 0.80788784E+02</pdfrwt>
<totfact> 0.19466847E+05</totfact>
</mgrwt>
</event>
<event>
 8    1  0.8577104E-018  0.7719352E+02  0.7818608E-02  0.1337210E+00
          1   -1    0    0  501    0  0.00000000000E+00  0.00000000000E+00  0.10422199128E+02  0.10422200346E+02  0.50400000000E-02 0. -1.
         -2   -1    0    0    0  501 -0.00000000000E+00 -0.00000000000E+00 -0.14293624034E+03  0.14293624036E+03  0.25500000000E-02 0.  1.
        -24    2    1    2    0    0  0.00000000000E+00  0.00000000000E+00 -0.13251404121E+03  0.15335844070E+03  0.77193524457E+02 0.  0.
         66    2    3    3    0    0 -0.36146464875E+02  0.13086165032E+02 -0.72549300918E+02  0.82129262130E+02  0.19999990401E+01 0.  0.
         13    1    3    3    0    0  0.36146464875E+02 -0.13086165032E+02 -0.59964740290E+02  0.71229178574E+02  0.10566000000E+00 0. -1.
         13    1    4    4    0    0 -0.50032255489E+01  0.17896701552E+01 -0.92673926416E+01  0.10683207176E+02  0.10566000000E+00 0. -1.
        -13    1    4    4    0    0 -0.21962684074E+02  0.74209859210E+01 -0.43180614344E+02  0.49010275891E+02  0.10566000000E+00 0.  1.
         14    1    4    4    0    0 -0.91805552521E+01  0.38755089561E+01 -0.20101293932E+02  0.22435779063E+02  0.00000000000E+00 0. -1.
<mgrwt>
<rscale>  0 0.77193524E+02</rscale>
<asrwt>0</asrwt>
<pdfrwt beam="1">  1        1 0.16034155E-02 0.77193524E+02</pdfrwt>
<pdfrwt beam="2">  1       -2 0.21990189E-01 0.77193524E+02</pdfrwt>
<totfact> 0.10522094E+05</totfact>
</mgrwt>
</event>
<event>
 8    1  0.8577104E-018  0.8173983E+02  0.7818608E-02  0.1324185E+00
          1   -1    0    0  501    0  0.00000000000E+00  0.00000000000E+00  0.66932848216E+02  0.66932848406E+02  0.50400000000E-02 0. -1.
         -2   -1    0    0    0  501 -0.00000000000E+00 -0.00000000000E+00 -0.24955609227E+02  0.24955609358E+02  0.25500000000E-02 0.  1.
        -24    2    1    2    0    0  0.00000000000E+00  0.00000000000E+00  0.41977238989E+02  0.91888457763E+02  0.81739831643E+02 0.  0.
         66    2    3    3    0    0 -0.10300848000E+02  0.12915279495E+02 -0.20992317637E+02  0.26787857615E+02  0.20000004706E+01 0.  0.
         13    1    3    3    0    0  0.10300848000E+02 -0.12915279495E+02  0.62969556626E+02  0.65100600148E+02  0.10566000000E+00 0. -1.
         13    1    4    4    0    0 -0.89475363336E+00  0.80683065842E+00 -0.18286264587E+01  0.21923956159E+01  0.10566000000E+00 0. -1.
        -13    1    4    4    0    0 -0.13303706612E+01  0.26959022103E+01 -0.40375759825E+01  0.50349735525E+01  0.10566000000E+00 0.  1.
        -14    1    4    4    0    0 -0.80757237052E+01  0.94125466259E+01 -0.15126115196E+02  0.19560488447E+02  0.00000000000E+00 0.  1.
<mgrwt>
<rscale>  0 0.81739832E+02</rscale>
<asrwt>0</asrwt>
<pdfrwt beam="1">  1        1 0.10297361E-01 0.81739832E+02</pdfrwt>
<pdfrwt beam="2">  1       -2 0.38393246E-02 0.81739832E+02</pdfrwt>
<totfact> 0.12982251E+05</totfact>
</mgrwt>
</event>
<event>
 8    1  0.8577104E-018  0.8012763E+02  0.7818608E-02  0.1328690E+00
         -2   -1    0    0    0  501 -0.00000000000E+00  0.00000000000E+00  0.49222088986E+02  0.49222089052E+02  0.25500000000E-02 0.  1.
          1   -1    0    0  501    0  0.00000000000E+00 -0.00000000000E+00 -0.32609528917E+02  0.32609529306E+02  0.50400000000E-02 0. -1.
        -24    2    1    2    0    0  0.00000000000E+00 -0.35527136788E-14  0.16612560069E+02  0.81831618358E+02  0.80127627015E+02 0.  0.
         66    2    3    3    0    0 -0.16542521720E+02 -0.27127774132E+02  0.33192066685E+02  0.45992221630E+02  0.20000013597E+01 0.  0.
         13    1    3    3    0    0  0.16542521720E+02  0.27127774132E+02 -0.16579506616E+02  0.35839396728E+02  0.10566000000E+00 0. -1.
         13    1    4    4    0    0 -0.10270117918E+01 -0.16298599265E+01  0.14906431443E+01  0.24381094356E+01  0.10566000000E+00 0. -1.
        -13    1    4    4    0    0 -0.38466469186E+01 -0.71720493110E+01  0.84584536788E+01  0.11738466105E+02  0.10566000000E+00 0.  1.
        -14    1    4    4    0    0 -0.11668863010E+02 -0.18325864894E+02  0.23242969862E+02  0.31815646089E+02  0.00000000000E+00 0.  1.
<mgrwt>
<rscale>  0 0.80127627E+02</rscale>
<asrwt>0</asrwt>
<pdfrwt beam="1">  1        1 0.50168506E-02 0.80127627E+02</pdfrwt>
<pdfrwt beam="2">  1       -2 0.75726291E-02 0.80127627E+02</pdfrwt>
<totfact> 0.12216287E+05</totfact>
</mgrwt>
</event>
<event>
 8    1  0.8577104E-018  0.7871278E+02  0.7818608E-02  0.1332745E+00
          1   -1    0    0  501    0  0.00000000000E+00  0.00000000000E+00  0.82247844878E+02  0.82247845032E+02  0.50400000000E-02 0. -1.
         -2   -1    0    0    0  501 -0.00000000000E+00 -0.00000000000E+00 -0.18832412026E+02  0.18832412198E+02  0.25500000000E-02 0.  1.
        -24    2    1    2    0    0  0.00000000000E+00  0.35527136788E-14  0.63415432852E+02  0.10108025723E+03  0.78712777095E+02 0.  0.
         66    2    3    3    0    0  0.28805604912E+02 -0.19358043479E+02  0.79650354642E+01  0.35664246529E+02  0.19999922236E+01 0.  0.
         13    1    3    3    0    0 -0.28805604912E+02  0.19358043479E+02  0.55450397388E+02  0.65416010702E+02  0.10566000000E+00 0. -1.
         13    1    4    4    0    0  0.23383734239E+01 -0.13860402966E+01  0.73370770656E+00  0.28175501784E+01  0.10566000000E+00 0. -1.
        -13    1    4    4    0    0  0.18457737656E+02 -0.11587461007E+02  0.46690529976E+01  0.22288305272E+02  0.10566000000E+00 0.  1.
         14    1    4    4    0    0  0.80094938315E+01 -0.63845421748E+01  0.25622747601E+01  0.10558391078E+02  0.00000000000E+00 0. -1.
<mgrwt>
<rscale>  0 0.78712777E+02</rscale>
<asrwt>0</asrwt>
<pdfrwt beam="1">  1        1 0.12653515E-01 0.78712777E+02</pdfrwt>
<pdfrwt beam="2">  1       -2 0.28972941E-02 0.78712777E+02</pdfrwt>
<totfact> 0.14874471E+05</totfact>
</mgrwt>
</event>
<event>
 8    1  0.8577104E-018  0.7945420E+02  0.7818608E-02  0.1330607E+00
         -2   -1    0    0    0  501 -0.00000000000E+00  0.00000000000E+00  0.13907079932E+03  0.13907079934E+03  0.25500000000E-02 0.  1.
          1   -1    0    0  501    0  0.00000000000E+00 -0.00000000000E+00 -0.11348482513E+02  0.11348483632E+02  0.50400000000E-02 0. -1.
        -24    2    1    2    0    0  0.35527136788E-14 -0.35527136788E-14  0.12772231681E+03  0.15041928298E+03  0.79454203666E+02 0.  0.
         66    2    3    3    0    0 -0.20146097663E+02  0.18667333354E+02  0.11817614740E+03  0.12134222845E+03  0.20000013619E+01 0.  0.
         13    1    3    3    0    0  0.20146097663E+02 -0.18667333354E+02  0.95461694112E+01  0.29077054529E+02  0.10566000000E+00 0. -1.
         13    1    4    4    0    0 -0.97762225747E+01  0.89743358349E+01  0.54672860129E+02  0.56260519285E+02  0.10566000000E+00 0. -1.
        -13    1    4    4    0    0 -0.10261210008E+02  0.96332543888E+01  0.63279042900E+02  0.64825461474E+02  0.10566000000E+00 0.  1.
         14    1    4    4    0    0 -0.10866508021E+00  0.59743129991E-01  0.22424436766E+00  0.25624768812E+00  0.00000000000E+00 0. -1.
<mgrwt>
<rscale>  0 0.79454204E+02</rscale>
<asrwt>0</asrwt>
<pdfrwt beam="1">  1        1 0.17459205E-02 0.79454204E+02</pdfrwt>
<pdfrwt beam="2">  1       -2 0.21395508E-01 0.79454204E+02</pdfrwt>
<totfact> 0.98545161E+04</totfact>
</mgrwt>
</event>
<event>
 8    1  0.8577104E-018  0.8207838E+02  0.7818608E-02  0.1323255E+00
          1   -1    0    0  501    0  0.00000000000E+00  0.00000000000E+00  0.13007637183E+03  0.13007637193E+03  0.50400000000E-02 0. -1.
         -2   -1    0    0    0  501 -0.00000000000E+00 -0.00000000000E+00 -0.12947893216E+02  0.12947893467E+02  0.25500000000E-02 0.  1.
        -24    2    1    2    0    0  0.00000000000E+00  0.22204460493E-15  0.11712847862E+03  0.14302426540E+03  0.82078377111E+02 0.  0.
         66    2    3    3    0    0  0.40517918764E+02 -0.14896051038E+01  0.47816404058E+02  0.62724231100E+02  0.20000014368E+01 0.  0.
         13    1    3    3    0    0 -0.40517918764E+02  0.14896051038E+01  0.69312074558E+02  0.80300034296E+02  0.10566000000E+00 0. -1.
         13    1    4    4    0    0  0.21705606361E+02 -0.14506239868E+00  0.26364095060E+02  0.34150125372E+02  0.10566000000E+00 0.  1.
        -13    1    4    4    0    0  0.18205792235E+01 -0.28021663227E+00  0.19021294595E+01  0.26499604877E+01  0.10566000000E+00 0. -1.
        -14    1    4    4    0    0  0.16991733180E+02 -0.10643260728E+01  0.19550179539E+02  0.25924145241E+02  0.00000000000E+00 0.  1.
<mgrwt>
<rscale>  0 0.82078377E+02</rscale>
<asrwt>0</asrwt>
<pdfrwt beam="1">  1        1 0.20011750E-01 0.82078377E+02</pdfrwt>
<pdfrwt beam="2">  1       -2 0.19919835E-02 0.82078377E+02</pdfrwt>
<totfact> 0.14360549E+05</totfact>
</mgrwt>
</event>
<event>
 8    1  0.8577104E-018  0.7839962E+02  0.7818608E-02  0.1333655E+00
          1   -1    0    0  501    0  0.00000000000E+00  0.00000000000E+00  0.12184185979E+03  0.12184185989E+03  0.50400000000E-02 0. -1.
         -2   -1    0    0    0  501 -0.00000000000E+00 -0.00000000000E+00 -0.12611635141E+02  0.12611635398E+02  0.25500000000E-02 0.  1.
        -24    2    1    2    0    0  0.00000000000E+00  0.00000000000E+00  0.10923022465E+03  0.13445349529E+03  0.78399620021E+02 0.  0.
         66    2    3    3    0    0 -0.32559008313E+02 -0.18409411900E+02  0.34678280829E+02  0.51044868879E+02  0.20000021970E+01 0.  0.
         13    1    3    3    0    0  0.32559008313E+02  0.18409411900E+02  0.74551943820E+02  0.83408626413E+02  0.10566000000E+00 0. -1.
         13    1    4    4    0    0 -0.15127119291E+01 -0.11257840293E+01  0.15065948735E+01  0.24159220206E+01  0.10566000000E+00 0. -1.
        -13    1    4    4    0    0 -0.28279314481E+02 -0.16114960087E+02  0.30616235317E+02  0.44685306255E+02  0.10566000000E+00 0.  1.
        -14    1    4    4    0    0 -0.27669819029E+01 -0.11686677841E+01  0.25554506380E+01  0.39436406027E+01  0.00000000000E+00 0.  1.
<mgrwt>
<rscale>  0 0.78399620E+02</rscale>
<asrwt>0</asrwt>
<pdfrwt beam="1">  1        1 0.18744902E-01 0.78399620E+02</pdfrwt>
<pdfrwt beam="2">  1       -2 0.19402515E-02 0.78399620E+02</pdfrwt>
<totfact> 0.16054291E+05</totfact>
</mgrwt>
</event>
<event>
 8    1  0.8577104E-018  0.7902485E+02  0.7818608E-02  0.1331842E+00
          1   -1    0    0  501    0  0.00000000000E+00  0.00000000000E+00  0.15981747675E+02  0.15981748469E+02  0.50400000000E-02 0. -1.
         -2   -1    0    0    0  501 -0.00000000000E+00 -0.00000000000E+00 -0.97688431823E+02  0.97688431857E+02  0.25500000000E-02 0.  1.
        -24    2    1    2    0    0  0.00000000000E+00  0.00000000000E+00 -0.81706684149E+02  0.11367018033E+03  0.79024854703E+02 0.  0.
         66    2    3    3    0    0  0.24085231305E+02 -0.20620907018E+02 -0.74732750476E+02  0.81205321044E+02  0.19999997136E+01 0.  0.
         13    1    3    3    0    0 -0.24085231305E+02  0.20620907018E+02 -0.69739336722E+01  0.32464859282E+02  0.10566000000E+00 0. -1.
         13    1    4    4    0    0  0.75691478323E+00 -0.34521641533E+00 -0.21569582807E+01  0.23142444605E+01  0.10566000000E+00 0. -1.
        -13    1    4    4    0    0  0.12781457639E+02 -0.11663527425E+02 -0.39707332189E+02  0.43313819099E+02  0.10566000000E+00 0.  1.
         14    1    4    4    0    0  0.10546858884E+02 -0.86121631777E+01 -0.32868460007E+02  0.35577257484E+02  0.00000000000E+00 0. -1.
<mgrwt>
<rscale>  0 0.79024855E+02</rscale>
<asrwt>0</asrwt>
<pdfrwt beam="1">  1        1 0.24587305E-02 0.79024855E+02</pdfrwt>
<pdfrwt beam="2">  1       -2 0.15028989E-01 0.79024855E+02</pdfrwt>
<totfact> 0.11014282E+05</totfact>
</mgrwt>
</event>
<event>
 8    1  0.8577104E-018  0.8018501E+02  0.7818608E-02  0.1328527E+00
         -2   -1    0    0    0  501 -0.00000000000E+00  0.00000000000E+00  0.77662466755E+01  0.77662470941E+01  0.25500000000E-02 0.  1.
          1   -1    0    0  501    0  0.00000000000E+00 -0.00000000000E+00 -0.20697371464E+03  0.20697371470E+03  0.50400000000E-02 0. -1.
        -24    2    1    2    0    0  0.00000000000E+00  0.35527136788E-14 -0.19920746797E+03  0.21473996180E+03  0.80185010440E+02 0.  0.
         66    2    3    3    0    0 -0.33854604200E+02  0.20097674883E+02 -0.11959020068E+03  0.12592008128E+03  0.20000022989E+01 0.  0.
         13    1    3    3    0    0  0.33854604200E+02 -0.20097674883E+02 -0.79617267284E+02  0.88819880517E+02  0.10566000000E+00 0. -1.
         13    1    4    4    0    0 -0.40552084043E+01  0.17851959392E+01 -0.13316360751E+02  0.14034538376E+02  0.10566000000E+00 0. -1.
        -13    1    4    4    0    0 -0.29098708631E+02  0.17706915567E+02 -0.10339634695E+03  0.10886269072E+03  0.10566000000E+00 0.  1.
         14    1    4    4    0    0 -0.70068716425E+00  0.60556337660E+00 -0.28774929824E+01  0.30228521910E+01  0.00000000000E+00 0. -1.
<mgrwt>
<rscale>  0 0.80185010E+02</rscale>
<asrwt>0</asrwt>
<pdfrwt beam="1">  1        1 0.31842106E-01 0.80185010E+02</pdfrwt>
<pdfrwt beam="2">  1       -2 0.11948074E-02 0.80185010E+02</pdfrwt>
<totfact> 0.16682782E+05</totfact>
</mgrwt>
</event>
<event>
 8    1  0.8577104E-018  0.7936790E+02  0.7818608E-02  0.1330855E+00
         -2   -1    0    0    0  501 -0.00000000000E+00  0.00000000000E+00  0.27337616946E+03  0.27337616947E+03  0.25500000000E-02 0.  1.
          1   -1    0    0  501    0  0.00000000000E+00 -0.00000000000E+00 -0.57606173377E+01  0.57606195425E+01  0.50400000000E-02 0. -1.
        -24    2    1    2    0    0  0.00000000000E+00  0.00000000000E+00  0.26761555212E+03  0.27913678901E+03  0.79367898066E+02 0.  0.
         66    2    3    3    0    0  0.20843314918E+02 -0.65863095825E+01  0.25027209056E+03  0.25123284532E+03  0.20000004454E+01 0.  0.
         13    1    3    3    0    0 -0.20843314918E+02  0.65863095825E+01  0.17343461553E+02  0.27903943688E+02  0.10566000000E+00 0. -1.
         13    1    4    4    0    0  0.14712358112E+01 -0.78387200508E+00  0.18311156312E+02  0.18387185746E+02  0.10566000000E+00 0.  1.
        -13    1    4    4    0    0  0.75370181069E+01 -0.14984518080E+01  0.88238569479E+02  0.88572616013E+02  0.10566000000E+00 0.  1.
        -14    1    4    4    0    0  0.11835061000E+02 -0.43039857694E+01  0.14372236477E+03  0.14427304356E+03  0.00000000000E+00 0.  1.
<mgrwt>
<rscale>  0 0.79367898E+02</rscale>
<asrwt>0</asrwt>
<pdfrwt beam="1">  1        1 0.88624898E-03 0.79367898E+02</pdfrwt>
<pdfrwt beam="2">  1       -2 0.42057873E-01 0.79367898E+02</pdfrwt>
<totfact> 0.75319023E+04</totfact>
</mgrwt>
</event>
<event>
 8    1  0.8577104E-018  0.8377488E+02  0.7818608E-02  0.1318668E+00
         -2   -1    0    0    0  501 -0.00000000000E+00  0.00000000000E+00  0.10287435030E+02  0.10287435347E+02  0.25500000000E-02 0.  1.
          1   -1    0    0  501    0  0.00000000000E+00 -0.00000000000E+00 -0.17055347058E+03  0.17055347065E+03  0.50400000000E-02 0. -1.
        -24    2    1    2    0    0  0.00000000000E+00 -0.35527136788E-14 -0.16026603555E+03  0.18084090600E+03  0.83774883661E+02 0.  0.
         66    2    3    3    0    0  0.69852070536E+01  0.28799332458E+02 -0.16348169897E+02  0.33903647670E+02  0.19999996877E+01 0.  0.
         13    1    3    3    0    0 -0.69852070536E+01 -0.28799332458E+02 -0.14391786565E+03  0.14693725833E+03  0.10566000000E+00 0. -1.
         13    1    4    4    0    0  0.24468272627E+01  0.77823532089E+01 -0.41025813866E+01  0.91320492329E+01  0.10566000000E+00 0. -1.
        -13    1    4    4    0    0  0.20725460057E+00  0.83230501173E+00 -0.26990097830E+00  0.90537101549E+00  0.10566000000E+00 0.  1.
        -14    1    4    4    0    0  0.43311251904E+01  0.20184674238E+02 -0.11975687532E+02  0.23866227422E+02  0.00000000000E+00 0.  1.
<mgrwt>
<rscale>  0 0.83774884E+02</rscale>
<asrwt>0</asrwt>
<pdfrwt beam="1">  1        1 0.26238994E-01 0.83774884E+02</pdfrwt>
<pdfrwt beam="2">  1       -2 0.15826825E-02 0.83774884E+02</pdfrwt>
<totfact> 0.14297780E+05</totfact>
</mgrwt>
</event>
<event>
 8    1  0.8577104E-018  0.8076795E+02  0.7818608E-02  0.1326886E+00
         -2   -1    0    0    0  501 -0.00000000000E+00  0.00000000000E+00  0.59972676748E+01  0.59972682169E+01  0.25500000000E-02 0.  1.
          1   -1    0    0  501    0  0.00000000000E+00 -0.00000000000E+00 -0.27193472339E+03  0.27193472343E+03  0.50400000000E-02 0. -1.
        -24    2    1    2    0    0  0.00000000000E+00  0.00000000000E+00 -0.26593745571E+03  0.27793199165E+03  0.80767949288E+02 0.  0.
         66    2    3    3    0    0  0.32145054847E+02  0.24045947551E+02 -0.14738272633E+03  0.15276511437E+03  0.20000010029E+01 0.  0.
         13    1    3    3    0    0 -0.32145054847E+02 -0.24045947551E+02 -0.11855472938E+03  0.12516687728E+03  0.10566000000E+00 0. -1.
         13    1    4    4    0    0  0.14257579403E+02  0.10122660053E+02 -0.66002990360E+02  0.68279958388E+02  0.10566000000E+00 0. -1.
        -13    1    4    4    0    0  0.85642458365E+01  0.72641653837E+01 -0.41380630890E+02  0.42877525376E+02  0.10566000000E+00 0.  1.
        -14    1    4    4    0    0  0.93232296071E+01  0.66591221142E+01 -0.39999105078E+02  0.41607630607E+02  0.00000000000E+00 0.  1.
<mgrwt>
<rscale>  0 0.80767949E+02</rscale>
<asrwt>0</asrwt>
<pdfrwt beam="1">  1        1 0.41836102E-01 0.80767949E+02</pdfrwt>
<pdfrwt beam="2">  1       -2 0.92265682E-03 0.80767949E+02</pdfrwt>
<totfact> 0.17262190E+05</totfact>
</mgrwt>
</event>
<event>
 8    1  0.8577104E-018  0.8057384E+02  0.7818608E-02  0.1327431E+00
          1   -1    0    0  501    0  0.00000000000E+00  0.00000000000E+00  0.25517893854E+03  0.25517893859E+03  0.50400000000E-02 0. -1.
         -2   -1    0    0    0  501 -0.00000000000E+00 -0.00000000000E+00 -0.63603835942E+01  0.63603841054E+01  0.25500000000E-02 0.  1.
        -24    2    1    2    0    0  0.00000000000E+00  0.00000000000E+00  0.24881855495E+03  0.26153932270E+03  0.80573842099E+02 0.  0.
         66    2    3    3    0    0 -0.16969436876E+01  0.35852950713E+02  0.18369374934E+03  0.18717827670E+03  0.20000069382E+01 0.  0.
         13    1    3    3    0    0  0.16969436876E+01 -0.35852950713E+02  0.65124805603E+02  0.74361045995E+02  0.10566000000E+00 0. -1.
         13    1    4    4    0    0  0.45488501092E-02  0.27365977035E+01  0.15961109557E+02  0.16194356116E+02  0.10566000000E+00 0. -1.
        -13    1    4    4    0    0 -0.10103007138E+01  0.26541140492E+02  0.13619329328E+03  0.13875906149E+03  0.10566000000E+00 0.  1.
        -14    1    4    4    0    0 -0.69119182388E+00  0.65752125176E+01  0.31539346501E+02  0.32224859092E+02  0.00000000000E+00 0.  1.
<mgrwt>
<rscale>  0 0.80573842E+02</rscale>
<asrwt>0</asrwt>
<pdfrwt beam="1">  1        1 0.39258298E-01 0.80573842E+02</pdfrwt>
<pdfrwt beam="2">  1       -2 0.97852060E-03 0.80573842E+02</pdfrwt>
<totfact> 0.17157530E+05</totfact>
</mgrwt>
</event>
<event>
 8    1  0.1151439E-017  0.7676327E+02  0.7818608E-02  0.1338496E+00
          1   -1    0    0  501    0  0.00000000000E+00  0.00000000000E+00  0.66342968540E+02  0.66342968732E+02  0.50400000000E-02 0. -1.
         -2   -1    0    0    0  501 -0.00000000000E+00 -0.00000000000E+00 -0.22205062661E+02  0.22205062807E+02  0.25500000000E-02 0.  1.
        -24    2    1    2    0    0  0.00000000000E+00  0.00000000000E+00  0.44137905879E+02  0.88548031539E+02  0.76763266958E+02 0.  0.
         66    2    3    3    0    0  0.10653064714E+02  0.18448383191E+02 -0.14708076611E+02  0.25964555689E+02  0.20000010966E+01 0.  0.
         13    1    3    3    0    0 -0.10653064714E+02 -0.18448383191E+02  0.58845982490E+02  0.62583475850E+02  0.10566000000E+00 0. -1.
         13    1    4    4    0    0  0.55811395716E+01  0.86495321316E+01 -0.70481186768E+01  0.12476003604E+02  0.10566000000E+00 0. -1.
        -13    1    4    4    0    0  0.48512091299E+01  0.85394034072E+01 -0.68609109961E+01  0.11980772275E+02  0.10566000000E+00 0.  1.
         14    1    4    4    0    0  0.22071601236E+00  0.12594476517E+01 -0.79904693829E+00  0.15077798099E+01  0.00000000000E+00 0. -1.
<mgrwt>
<rscale>  0 0.76763267E+02</rscale>
<asrwt>0</asrwt>
<pdfrwt beam="1">  1        1 0.10206610E-01 0.76763267E+02</pdfrwt>
<pdfrwt beam="2">  1       -2 0.34161636E-02 0.76763267E+02</pdfrwt>
<totfact> 0.15398775E+05</totfact>
</mgrwt>
</event>
<event>
 8    1  0.8577104E-018  0.7923409E+02  0.7818608E-02  0.1331239E+00
          1   -1    0    0  501    0  0.00000000000E+00  0.00000000000E+00  0.11448410120E+03  0.11448410131E+03  0.50400000000E-02 0. -1.
         -2   -1    0    0    0  501 -0.00000000000E+00 -0.00000000000E+00 -0.13709414902E+02  0.13709415139E+02  0.25500000000E-02 0.  1.
        -24    2    1    2    0    0  0.00000000000E+00  0.35527136788E-14  0.10077468630E+03  0.12819351645E+03  0.79234085223E+02 0.  0.
         66    2    3    3    0    0  0.57929185998E+00 -0.25005007883E+02  0.76460538061E+00  0.25103199506E+02  0.20000014501E+01 0.  0.
         13    1    3    3    0    0 -0.57929185998E+00  0.25005007883E+02  0.10001008092E+03  0.10309031694E+03  0.10566000000E+00 0. -1.
         13    1    4    4    0    0  0.37708435207E+00 -0.82792703190E+01  0.97867742502E+00  0.83461058681E+01  0.10566000000E+00 0. -1.
        -13    1    4    4    0    0 -0.76092943966E-02 -0.30551961712E+01  0.32541030876E+00  0.30743027584E+01  0.10566000000E+00 0.  1.
         14    1    4    4    0    0  0.20981680231E+00 -0.13670541392E+02 -0.53948235316E+00  0.13682790880E+02  0.00000000000E+00 0. -1.
<mgrwt>
<rscale>  0 0.79234085E+02</rscale>
<asrwt>0</asrwt>
<pdfrwt beam="1">  1        1 0.17612939E-01 0.79234085E+02</pdfrwt>
<pdfrwt beam="2">  1       -2 0.21091408E-02 0.79234085E+02</pdfrwt>
<totfact> 0.15436865E+05</totfact>
</mgrwt>
</event>
<event>
 8    1  0.8577104E-018  0.8045091E+02  0.7818608E-02  0.1327777E+00
         -2   -1    0    0    0  501 -0.00000000000E+00  0.00000000000E+00  0.88830150922E+03  0.88830150923E+03  0.25500000000E-02 0.  1.
          1   -1    0    0  501    0  0.00000000000E+00 -0.00000000000E+00 -0.18215485362E+01  0.18215555087E+01  0.50400000000E-02 0. -1.
        -24    2    1    2    0    0  0.00000000000E+00  0.35527136788E-14  0.88647996069E+03  0.89012306474E+03  0.80450914691E+02 0.  0.
         66    2    3    3    0    0  0.18293737137E+02 -0.12644605687E+02  0.81404503800E+03  0.81435119621E+03  0.20000004434E+01 0.  0.
         13    1    3    3    0    0 -0.18293737137E+02  0.12644605687E+02  0.72434922684E+02  0.75771868525E+02  0.10566000000E+00 0. -1.
         13    1    4    4    0    0  0.11205870264E+02 -0.81683641189E+01  0.48181738888E+03  0.48201690955E+03  0.10566000000E+00 0. -1.
        -13    1    4    4    0    0  0.21836785506E+01 -0.11777628057E+01  0.11031480372E+03  0.11034275083E+03  0.10566000000E+00 0.  1.
        -14    1    4    4    0    0  0.49041883224E+01 -0.32984787627E+01  0.22191284540E+03  0.22199153583E+03  0.00000000000E+00 0.  1.
<mgrwt>
<rscale>  0 0.80450915E+02</rscale>
<asrwt>0</asrwt>
<pdfrwt beam="1">  1        1 0.28023951E-03 0.80450915E+02</pdfrwt>
<pdfrwt beam="2">  1       -2 0.13666141E+00 0.80450915E+02</pdfrwt>
<totfact> 0.29356920E+04</totfact>
</mgrwt>
</event>
<event>
 8    1  0.8577104E-018  0.8065910E+02  0.7818608E-02  0.1327191E+00
         -2   -1    0    0    0  501 -0.00000000000E+00  0.00000000000E+00  0.37133726220E+03  0.37133726221E+03  0.25500000000E-02 0.  1.
          1   -1    0    0  501    0  0.00000000000E+00 -0.00000000000E+00 -0.43800396676E+01  0.43800425673E+01  0.50400000000E-02 0. -1.
        -24    2    1    2    0    0 -0.71054273576E-14  0.88817841970E-15  0.36695722253E+03  0.37571730477E+03  0.80659097066E+02 0.  0.
         66    2    3    3    0    0 -0.34973872558E+02  0.46381223825E+01  0.27436812548E+03  0.27663432946E+03  0.20000035309E+01 0.  0.
         13    1    3    3    0    0  0.34973872558E+02 -0.46381223825E+01  0.92589097050E+02  0.99082975317E+02  0.10566000000E+00 0. -1.
         13    1    4    4    0    0 -0.23055131510E+01  0.49377320713E+00  0.21498136369E+02  0.21627302981E+02  0.10566000000E+00 0. -1.
        -13    1    4    4    0    0 -0.25513533424E+02  0.28319053477E+01  0.19720917309E+03  0.19887289707E+03  0.10566000000E+00 0.  1.
         14    1    4    4    0    0 -0.71548259830E+01  0.13124438277E+01  0.55660816026E+02  0.56134129407E+02  0.00000000000E+00 0. -1.
<mgrwt>
<rscale>  0 0.80659097E+02</rscale>
<asrwt>0</asrwt>
<pdfrwt beam="1">  1        1 0.67385251E-03 0.80659097E+02</pdfrwt>
<pdfrwt beam="2">  1       -2 0.57128807E-01 0.80659097E+02</pdfrwt>
<totfact> 0.60701774E+04</totfact>
</mgrwt>
</event>
<event>
 8    1  0.8577104E-018  0.7870981E+02  0.7818608E-02  0.1332753E+00
          1   -1    0    0  501    0  0.00000000000E+00  0.00000000000E+00  0.87718514139E+01  0.87718528618E+01  0.50400000000E-02 0. -1.
         -2   -1    0    0    0  501 -0.00000000000E+00 -0.00000000000E+00 -0.17656573422E+03  0.17656573424E+03  0.25500000000E-02 0.  1.
        -24    2    1    2    0    0  0.00000000000E+00  0.00000000000E+00 -0.16779388281E+03  0.18533758710E+03  0.78709809331E+02 0.  0.
         66    2    3    3    0    0  0.20627166947E+02  0.11539991650E+02 -0.15797052867E+03  0.15974147658E+03  0.19999963535E+01 0.  0.
         13    1    3    3    0    0 -0.20627166947E+02 -0.11539991650E+02 -0.98233541316E+01  0.25596110524E+02  0.10566000000E+00 0. -1.
         13    1    4    4    0    0  0.30548839100E+01  0.19056998317E+01 -0.22020944838E+02  0.22313609819E+02  0.10566000000E+00 0. -1.
        -13    1    4    4    0    0  0.57549665862E+01  0.31689654986E+01 -0.49782466445E+02  0.50214212253E+02  0.10566000000E+00 0.  1.
         14    1    4    4    0    0  0.11817316451E+02  0.64653263200E+01 -0.86167117390E+02  0.87213654504E+02  0.00000000000E+00 0. -1.
<mgrwt>
<rscale>  0 0.78709809E+02</rscale>
<asrwt>0</asrwt>
<pdfrwt beam="1">  1        1 0.13495158E-02 0.78709809E+02</pdfrwt>
<pdfrwt beam="2">  1       -2 0.27163957E-01 0.78709809E+02</pdfrwt>
<totfact> 0.93107996E+04</totfact>
</mgrwt>
</event>
<event>
 8    1  0.8577104E-018  0.7928086E+02  0.7818608E-02  0.1331105E+00
          1   -1    0    0  501    0  0.00000000000E+00  0.00000000000E+00  0.97393052153E+02  0.97393052283E+02  0.50400000000E-02 0. -1.
         -2   -1    0    0    0  501 -0.00000000000E+00 -0.00000000000E+00 -0.16134248344E+02  0.16134248546E+02  0.25500000000E-02 0.  1.
        -24    2    1    2    0    0  0.00000000000E+00  0.00000000000E+00  0.81258803809E+02  0.11352730083E+03  0.79280860471E+02 0.  0.
         66    2    3    3    0    0 -0.33834329082E+02  0.96300929484E+01  0.66741232361E+02  0.75471137604E+02  0.19999999067E+01 0.  0.
         13    1    3    3    0    0  0.33834329082E+02 -0.96300929484E+01  0.14517571448E+02  0.38056163225E+02  0.10566000000E+00 0. -1.
         13    1    4    4    0    0 -0.18825941409E+02  0.58377638617E+01  0.37039175898E+02  0.41957207630E+02  0.10566000000E+00 0. -1.
        -13    1    4    4    0    0 -0.15006228280E+02  0.38280888558E+01  0.29642348081E+02  0.33444298696E+02  0.10566000000E+00 0.  1.
         14    1    4    4    0    0 -0.21593924162E-02 -0.35759769161E-01  0.59708381863E-01  0.69631278394E-01  0.00000000000E+00 0. -1.
<mgrwt>
<rscale>  0 0.79280860E+02</rscale>
<asrwt>0</asrwt>
<pdfrwt beam="1">  1        1 0.14983547E-01 0.79280860E+02</pdfrwt>
<pdfrwt beam="2">  1       -2 0.24821921E-02 0.79280860E+02</pdfrwt>
<totfact> 0.14995762E+05</totfact>
</mgrwt>
</event>
<event>
 8    1  0.8577104E-018  0.8104132E+02  0.7818608E-02  0.1326122E+00
          1   -1    0    0  501    0  0.00000000000E+00  0.00000000000E+00  0.15453395015E+03  0.15453395024E+03  0.50400000000E-02 0. -1.
         -2   -1    0    0    0  501 -0.00000000000E+00 -0.00000000000E+00 -0.10625003423E+02  0.10625003729E+02  0.25500000000E-02 0.  1.
        -24    2    1    2    0    0 -0.71054273576E-14  0.00000000000E+00  0.14390894673E+03  0.16515895396E+03  0.81041317396E+02 0.  0.
         66    2    3    3    0    0  0.36681795059E+02  0.58965505488E+01  0.39162636378E+02  0.54018843772E+02  0.19999993084E+01 0.  0.
         13    1    3    3    0    0 -0.36681795059E+02 -0.58965505488E+01  0.10474631035E+03  0.11114011019E+03  0.10566000000E+00 0. -1.
         13    1    4    4    0    0  0.24721275610E+01  0.62107985901E+00  0.30807095878E+01  0.39998863071E+01  0.10566000000E+00 0. -1.
        -13    1    4    4    0    0  0.23368247390E+02  0.40345266327E+01  0.24033938662E+02  0.33763793668E+02  0.10566000000E+00 0.  1.
        -14    1    4    4    0    0  0.10841420108E+02  0.12409440570E+01  0.12047988129E+02  0.16255163797E+02  0.00000000000E+00 0.  1.
<mgrwt>
<rscale>  0 0.81041317E+02</rscale>
<asrwt>0</asrwt>
<pdfrwt beam="1">  1        1 0.23774452E-01 0.81041317E+02</pdfrwt>
<pdfrwt beam="2">  1       -2 0.16346161E-02 0.81041317E+02</pdfrwt>
<totfact> 0.15336431E+05</totfact>
</mgrwt>
</event>
<event>
 8    1  0.8577104E-018  0.7576670E+02  0.7818608E-02  0.1341513E+00
         -2   -1    0    0    0  501 -0.00000000000E+00  0.00000000000E+00  0.11742946705E+02  0.11742946982E+02  0.25500000000E-02 0.  1.
          1   -1    0    0  501    0  0.00000000000E+00 -0.00000000000E+00 -0.12221362958E+03  0.12221362969E+03  0.50400000000E-02 0. -1.
        -24    2    1    2    0    0  0.00000000000E+00 -0.35527136788E-14 -0.11047068288E+03  0.13395657667E+03  0.75766698869E+02 0.  0.
         66    2    3    3    0    0  0.92109105465E+01 -0.29663928098E+02 -0.17011279393E+02  0.35470736230E+02  0.19999997070E+01 0.  0.
         13    1    3    3    0    0 -0.92109105465E+01  0.29663928098E+02 -0.93459403486E+02  0.98485840441E+02  0.10566000000E+00 0. -1.
         13    1    4    4    0    0  0.51191156569E+01 -0.16793027975E+02 -0.95923345122E+01  0.20005878614E+02  0.10566000000E+00 0. -1.
        -13    1    4    4    0    0  0.29596808755E+01 -0.86661556549E+01 -0.43585301373E+01  0.10142480649E+02  0.10566000000E+00 0.  1.
         14    1    4    4    0    0  0.11321140142E+01 -0.42047444676E+01 -0.30604147433E+01  0.53223769671E+01  0.00000000000E+00 0. -1.
<mgrwt>
<rscale>  0 0.75766699E+02</rscale>
<asrwt>0</asrwt>
<pdfrwt beam="1">  1        1 0.18802096E-01 0.75766699E+02</pdfrwt>
<pdfrwt beam="2">  1       -2 0.18066073E-02 0.75766699E+02</pdfrwt>
<totfact> 0.17599110E+05</totfact>
</mgrwt>
</event>
<event>
 8    1  0.8577104E-018  0.7952752E+02  0.7818608E-02  0.1330398E+00
          1   -1    0    0  501    0  0.00000000000E+00  0.00000000000E+00  0.73394322672E+01  0.73394339977E+01  0.50400000000E-02 0. -1.
         -2   -1    0    0    0  501 -0.00000000000E+00 -0.00000000000E+00 -0.21543306648E+03  0.21543306649E+03  0.25500000000E-02 0.  1.
        -24    2    1    2    0    0  0.00000000000E+00  0.88817841970E-15 -0.20809363421E+03  0.22277250049E+03  0.79527519613E+02 0.  0.
         66    2    3    3    0    0 -0.88283858321E+01  0.65754125781E+01 -0.21107189966E+03  0.21136821726E+03  0.19999986741E+01 0.  0.
         13    1    3    3    0    0  0.88283858321E+01 -0.65754125781E+01  0.29782654460E+01  0.11404283234E+02  0.10566000000E+00 0. -1.
         13    1    4    4    0    0 -0.69980481160E+01  0.58005355077E+01 -0.17899525725E+03  0.17922592494E+03  0.10566000000E+00 0. -1.
        -13    1    4    4    0    0 -0.26224637174E+00  0.18138841554E+00 -0.81856278271E+01  0.81925174322E+01  0.10566000000E+00 0.  1.
         14    1    4    4    0    0 -0.15680913444E+01  0.59348865485E+00 -0.23891014578E+02  0.23949774880E+02  0.00000000000E+00 0. -1.
<mgrwt>
<rscale>  0 0.79527520E+02</rscale>
<asrwt>0</asrwt>
<pdfrwt beam="1">  1        1 0.11291437E-02 0.79527520E+02</pdfrwt>
<pdfrwt beam="2">  1       -2 0.33143544E-01 0.79527520E+02</pdfrwt>
<totfact> 0.83751091E+04</totfact>
</mgrwt>
</event>
<event>
 8    1  0.8577104E-018  0.7922798E+02  0.7818608E-02  0.1331257E+00
          1   -1    0    0  501    0  0.00000000000E+00  0.00000000000E+00  0.29879841885E+01  0.29879884391E+01  0.50400000000E-02 0. -1.
         -2   -1    0    0    0  501 -0.00000000000E+00 -0.00000000000E+00 -0.52519256860E+03  0.52519256860E+03  0.25500000000E-02 0.  1.
        -24    2    1    2    0    0  0.00000000000E+00  0.44408920985E-15 -0.52220458441E+03  0.52818055704E+03  0.79227980286E+02 0.  0.
         66    2    3    3    0    0  0.10443893334E+02  0.27147810486E+01 -0.51519606584E+03  0.51531294496E+03  0.20000112011E+01 0.  0.
         13    1    3    3    0    0 -0.10443893334E+02 -0.27147810486E+01 -0.70085185719E+01  0.12867612083E+02  0.10566000000E+00 0. -1.
         13    1    4    4    0    0  0.31089484601E+01  0.54178123986E+00 -0.17015050811E+03  0.17017980391E+03  0.10566000000E+00 0. -1.
        -13    1    4    4    0    0  0.65100191071E+01  0.14399006832E+01 -0.29932376073E+03  0.29939802698E+03  0.10566000000E+00 0.  1.
         14    1    4    4    0    0  0.82492576679E+00  0.73309912549E+00 -0.45721797006E+02  0.45735114062E+02  0.00000000000E+00 0. -1.
<mgrwt>
<rscale>  0 0.79227980E+02</rscale>
<asrwt>0</asrwt>
<pdfrwt beam="1">  1        1 0.45969062E-03 0.79227980E+02</pdfrwt>
<pdfrwt beam="2">  1       -2 0.80798783E-01 0.79227980E+02</pdfrwt>
<totfact> 0.49724597E+04</totfact>
</mgrwt>
</event>
<event>
 8    1  0.8577104E-018  0.7878273E+02  0.7818608E-02  0.1332542E+00
          1   -1    0    0  501    0  0.00000000000E+00  0.00000000000E+00  0.53749770924E+03  0.53749770926E+03  0.50400000000E-02 0. -1.
         -2   -1    0    0    0  501 -0.00000000000E+00 -0.00000000000E+00 -0.28868578300E+01  0.28868589563E+01  0.25500000000E-02 0.  1.
        -24    2    1    2    0    0  0.00000000000E+00  0.00000000000E+00  0.53461085141E+03  0.54038456822E+03  0.78782733672E+02 0.  0.
         66    2    3    3    0    0 -0.20919327956E+02  0.31356904513E+02  0.34532238344E+03  0.34737936359E+03  0.20000006032E+01 0.  0.
         13    1    3    3    0    0  0.20919327956E+02 -0.31356904513E+02  0.18928846797E+03  0.19300520462E+03  0.10566000000E+00 0. -1.
         13    1    4    4    0    0 -0.16151653044E+02  0.23413559820E+02  0.26007520366E+03  0.26162605643E+03  0.10566000000E+00 0. -1.
        -13    1    4    4    0    0 -0.44678977826E+01  0.73036825270E+01  0.80451546749E+02  0.80905923315E+02  0.10566000000E+00 0.  1.
         14    1    4    4    0    0 -0.29977712983E+00  0.63966216646E+00  0.47956330284E+01  0.48473838467E+01  0.00000000000E+00 0. -1.
<mgrwt>
<rscale>  0 0.78782734E+02</rscale>
<asrwt>0</asrwt>
<pdfrwt beam="1">  1        1 0.82691990E-01 0.78782734E+02</pdfrwt>
<pdfrwt beam="2">  1       -2 0.44413188E-03 0.78782734E+02</pdfrwt>
<totfact> 0.20571219E+05</totfact>
</mgrwt>
</event>
<event>
 8    1  0.8577104E-018  0.7964048E+02  0.7818608E-02  0.1330075E+00
          1   -1    0    0  501    0  0.00000000000E+00  0.00000000000E+00  0.31590295957E+02  0.31590296359E+02  0.50400000000E-02 0. -1.
         -2   -1    0    0    0  501 -0.00000000000E+00 -0.00000000000E+00 -0.50194257996E+02  0.50194258061E+02  0.25500000000E-02 0.  1.
        -24    2    1    2    0    0 -0.35527136788E-14 -0.35527136788E-14 -0.18603962039E+02  0.81784554420E+02  0.79640479269E+02 0.  0.
         66    2    3    3    0    0  0.27460219443E+02 -0.25536472262E+02 -0.22988322460E+02  0.44029967311E+02  0.19999961239E+01 0.  0.
         13    1    3    3    0    0 -0.27460219443E+02  0.25536472262E+02  0.43843604202E+01  0.37754587109E+02  0.10566000000E+00 0. -1.
         13    1    4    4    0    0  0.56658435441E+01 -0.48290303275E+01 -0.49627144797E+01  0.89476821587E+01  0.10566000000E+00 0. -1.
        -13    1    4    4    0    0  0.12469364846E+02 -0.10871598660E+02 -0.99626265054E+01  0.19311701324E+02  0.10566000000E+00 0.  1.
         14    1    4    4    0    0  0.93250110523E+01 -0.98358432745E+01 -0.80629814746E+01  0.15770583829E+02  0.00000000000E+00 0. -1.
<mgrwt>
<rscale>  0 0.79640479E+02</rscale>
<asrwt>0</asrwt>
<pdfrwt beam="1">  1        1 0.48600456E-02 0.79640479E+02</pdfrwt>
<pdfrwt beam="2">  1       -2 0.77221935E-02 0.79640479E+02</pdfrwt>
<totfact> 0.12363216E+05</totfact>
</mgrwt>
</event>
<event>
 8    1  0.8577104E-018  0.7983687E+02  0.7818608E-02  0.1329515E+00
         -2   -1    0    0    0  501 -0.00000000000E+00  0.00000000000E+00  0.63609173677E+01  0.63609178788E+01  0.25500000000E-02 0.  1.
          1   -1    0    0  501    0  0.00000000000E+00 -0.00000000000E+00 -0.25051127706E+03  0.25051127711E+03  0.50400000000E-02 0. -1.
        -24    2    1    2    0    0 -0.71054273576E-14  0.00000000000E+00 -0.24415035969E+03  0.25687219499E+03  0.79836873817E+02 0.  0.
         66    2    3    3    0    0  0.39040696706E+02  0.40333777583E+01 -0.99166970000E+02  0.10667020237E+03  0.19999999548E+01 0.  0.
         13    1    3    3    0    0 -0.39040696706E+02 -0.40333777583E+01 -0.14498338969E+03  0.15020199262E+03  0.10566000000E+00 0. -1.
         13    1    4    4    0    0  0.45421952601E+01  0.66636917987E+00 -0.12994560037E+02  0.13782065892E+02  0.10566000000E+00 0. -1.
        -13    1    4    4    0    0  0.28866930871E+02  0.31116919526E+01 -0.72772790843E+02  0.78350957721E+02  0.10566000000E+00 0.  1.
         14    1    4    4    0    0  0.56315705749E+01  0.25531662583E+00 -0.13399619120E+02  0.14537178760E+02  0.00000000000E+00 0. -1.
<mgrwt>
<rscale>  0 0.79836874E+02</rscale>
<asrwt>0</asrwt>
<pdfrwt beam="1">  1        1 0.38540189E-01 0.79836874E+02</pdfrwt>
<pdfrwt beam="2">  1       -2 0.97860291E-03 0.79836874E+02</pdfrwt>
<totfact> 0.17516475E+05</totfact>
</mgrwt>
</event>
<event>
 8    1  0.8577104E-018  0.7269830E+02  0.7818608E-02  0.1351151E+00
         -2   -1    0    0    0  501 -0.00000000000E+00  0.00000000000E+00  0.10980714172E+02  0.10980714468E+02  0.25500000000E-02 0.  1.
          1   -1    0    0  501    0  0.00000000000E+00 -0.00000000000E+00 -0.12032556236E+03  0.12032556247E+03  0.50400000000E-02 0. -1.
        -24    2    1    2    0    0  0.00000000000E+00  0.00000000000E+00 -0.10934484819E+03  0.13130627693E+03  0.72698298034E+02 0.  0.
         66    2    3    3    0    0  0.31201326080E+02 -0.18582656298E+02 -0.53546021258E+02  0.64730319449E+02  0.19999997870E+01 0.  0.
         13    1    3    3    0    0 -0.31201326080E+02  0.18582656298E+02 -0.55798826930E+02  0.66575957485E+02  0.10566000000E+00 0. -1.
         13    1    4    4    0    0  0.14851931652E+01 -0.72681514850E+00 -0.21836863458E+01  0.27411145709E+01  0.10566000000E+00 0. -1.
        -13    1    4    4    0    0  0.27017158051E+02 -0.16012476786E+02 -0.45696399555E+02  0.55448159016E+02  0.10566000000E+00 0.  1.
         14    1    4    4    0    0  0.26989748637E+01 -0.18433643627E+01 -0.56659353579E+01  0.65410458620E+01  0.00000000000E+00 0. -1.
<mgrwt>
<rscale>  0 0.72698298E+02</rscale>
<asrwt>0</asrwt>
<pdfrwt beam="1">  1        1 0.18511624E-01 0.72698298E+02</pdfrwt>
<pdfrwt beam="2">  1       -2 0.16893407E-02 0.72698298E+02</pdfrwt>
<totfact> 0.19590691E+05</totfact>
</mgrwt>
</event>
<event>
 8    1  0.8577104E-018  0.7961052E+02  0.7818608E-02  0.1330160E+00
          1   -1    0    0  501    0  0.00000000000E+00  0.00000000000E+00  0.46889720326E+02  0.46889720597E+02  0.50400000000E-02 0. -1.
         -2   -1    0    0    0  501 -0.00000000000E+00 -0.00000000000E+00 -0.33791177536E+02  0.33791177632E+02  0.25500000000E-02 0.  1.
        -24    2    1    2    0    0  0.00000000000E+00  0.00000000000E+00  0.13098542790E+02  0.80680898229E+02  0.79610523902E+02 0.  0.
         66    2    3    3    0    0  0.19397350866E+02  0.15051453416E+02 -0.25166799231E+02  0.35216065286E+02  0.20000000387E+01 0.  0.
         13    1    3    3    0    0 -0.19397350866E+02 -0.15051453416E+02  0.38265342021E+02  0.45464832943E+02  0.10566000000E+00 0. -1.
         13    1    4    4    0    0  0.29275321609E+01  0.25402627834E+01 -0.40151711831E+01  0.55817688260E+01  0.10566000000E+00 0. -1.
        -13    1    4    4    0    0  0.38556063935E+01  0.33995698058E+01 -0.61997617144E+01  0.80542525958E+01  0.10566000000E+00 0.  1.
        -14    1    4    4    0    0  0.12614212311E+02  0.91116208268E+01 -0.14951866333E+02  0.21580043864E+02  0.00000000000E+00 0.  1.
<mgrwt>
<rscale>  0 0.79610524E+02</rscale>
<asrwt>0</asrwt>
<pdfrwt beam="1">  1        1 0.72138031E-02 0.79610524E+02</pdfrwt>
<pdfrwt beam="2">  1       -2 0.51986427E-02 0.79610524E+02</pdfrwt>
<totfact> 0.13203102E+05</totfact>
</mgrwt>
</event>
<event>
 8    1  0.8577104E-018  0.8043651E+02  0.7818608E-02  0.1327817E+00
          1   -1    0    0  501    0  0.00000000000E+00  0.00000000000E+00  0.52498644411E+01  0.52498668603E+01  0.50400000000E-02 0. -1.
         -2   -1    0    0    0  501 -0.00000000000E+00 -0.00000000000E+00 -0.30810465310E+03  0.30810465311E+03  0.25500000000E-02 0.  1.
        -24    2    1    2    0    0  0.71054273576E-14  0.00000000000E+00 -0.30285478866E+03  0.31335451997E+03  0.80436510196E+02 0.  0.
         66    2    3    3    0    0  0.38992382262E+02  0.97154558650E+01 -0.14824486696E+03  0.15360773593E+03  0.20000006913E+01 0.  0.
         13    1    3    3    0    0 -0.38992382262E+02 -0.97154558650E+01 -0.15460992170E+03  0.15974678403E+03  0.10566000000E+00 0. -1.
         13    1    4    4    0    0  0.11971111457E+01  0.33671367902E+00 -0.37455688963E+01  0.39480250239E+01  0.10566000000E+00 0. -1.
        -13    1    4    4    0    0  0.14346653264E+02  0.30046189526E+01 -0.55340447995E+02  0.57248847528E+02  0.10566000000E+00 0.  1.
        -14    1    4    4    0    0  0.23448617852E+02  0.63741232333E+01 -0.89158850065E+02  0.92410863382E+02  0.00000000000E+00 0.  1.
<mgrwt>
<rscale>  0 0.80436510E+02</rscale>
<asrwt>0</asrwt>
<pdfrwt beam="1">  1        1 0.80767188E-03 0.80436510E+02</pdfrwt>
<pdfrwt beam="2">  1       -2 0.47400702E-01 0.80436510E+02</pdfrwt>
<totfact> 0.68281798E+04</totfact>
</mgrwt>
</event>
<event>
 8    1  0.8577104E-018  0.7937968E+02  0.7818608E-02  0.1330821E+00
          1   -1    0    0  501    0  0.00000000000E+00  0.00000000000E+00  0.52793212121E+03  0.52793212123E+03  0.50400000000E-02 0. -1.
         -2   -1    0    0    0  501 -0.00000000000E+00 -0.00000000000E+00 -0.29838742232E+01  0.29838753128E+01  0.25500000000E-02 0.  1.
        -24    2    1    2    0    0  0.35527136788E-14  0.00000000000E+00  0.52494824698E+03  0.53091599654E+03  0.79379678601E+02 0.  0.
         66    2    3    3    0    0 -0.24932906324E+02  0.27938717723E+02  0.35011577693E+03  0.35211827420E+03  0.20000013512E+01 0.  0.
         13    1    3    3    0    0  0.24932906324E+02 -0.27938717723E+02  0.17483247005E+03  0.17879772234E+03  0.10566000000E+00 0. -1.
         13    1    4    4    0    0 -0.54572370462E+00  0.55318947108E+00  0.60078539715E+01  0.60588205396E+01  0.10566000000E+00 0. -1.
        -13    1    4    4    0    0 -0.20571942013E+02  0.22587456754E+02  0.28243328197E+03  0.28408091793E+03  0.10566000000E+00 0.  1.
        -14    1    4    4    0    0 -0.38152406067E+01  0.47980714973E+01  0.61674640983E+02  0.61978535731E+02  0.00000000000E+00 0.  1.
<mgrwt>
<rscale>  0 0.79379679E+02</rscale>
<asrwt>0</asrwt>
<pdfrwt beam="1">  1        1 0.81220306E-01 0.79379679E+02</pdfrwt>
<pdfrwt beam="2">  1       -2 0.45905778E-03 0.79379679E+02</pdfrwt>
<totfact> 0.20132861E+05</totfact>
</mgrwt>
</event>
<event>
 8    1  0.8577104E-018  0.7993584E+02  0.7818608E-02  0.1329234E+00
          1   -1    0    0  501    0  0.00000000000E+00  0.00000000000E+00  0.15432686831E+03  0.15432686840E+03  0.50400000000E-02 0. -1.
         -2   -1    0    0    0  501 -0.00000000000E+00 -0.00000000000E+00 -0.10350981454E+02  0.10350981768E+02  0.25500000000E-02 0.  1.
        -24    2    1    2    0    0  0.35527136788E-14  0.00000000000E+00  0.14397588686E+03  0.16467785016E+03  0.79935838882E+02 0.  0.
         66    2    3    3    0    0  0.24776727244E+02  0.27792522184E+02  0.42241510681E+02  0.56344083670E+02  0.20000094295E+01 0.  0.
         13    1    3    3    0    0 -0.24776727244E+02 -0.27792522184E+02  0.10173437618E+03  0.10833376649E+03  0.10566000000E+00 0. -1.
         13    1    4    4    0    0  0.22732861378E+01  0.21587684794E+01  0.31016700612E+01  0.44113073364E+01  0.10566000000E+00 0. -1.
        -13    1    4    4    0    0  0.21532067435E+02  0.24183081754E+02  0.37370266646E+02  0.49446934833E+02  0.10566000000E+00 0.  1.
        -14    1    4    4    0    0  0.97137367201E+00  0.14506719507E+01  0.17695739738E+01  0.24858415010E+01  0.00000000000E+00 0.  1.
<mgrwt>
<rscale>  0 0.79935839E+02</rscale>
<asrwt>0</asrwt>
<pdfrwt beam="1">  1        1 0.23742594E-01 0.79935839E+02</pdfrwt>
<pdfrwt beam="2">  1       -2 0.15924588E-02 0.79935839E+02</pdfrwt>
<totfact> 0.15905785E+05</totfact>
</mgrwt>
</event>
<event>
 8    1  0.8577104E-018  0.8046507E+02  0.7818608E-02  0.1327737E+00
         -2   -1    0    0    0  501 -0.00000000000E+00  0.00000000000E+00  0.14842254523E+03  0.14842254525E+03  0.25500000000E-02 0.  1.
          1   -1    0    0  501    0  0.00000000000E+00 -0.00000000000E+00 -0.10905735102E+02  0.10905736266E+02  0.50400000000E-02 0. -1.
        -24    2    1    2    0    0  0.00000000000E+00 -0.35527136788E-14  0.13751681012E+03  0.15932828152E+03  0.80465074558E+02 0.  0.
         66    2    3    3    0    0 -0.18344648526E+02 -0.23589021602E+02  0.12206797455E+03  0.12568833867E+03  0.19999996821E+01 0.  0.
         13    1    3    3    0    0  0.18344648526E+02  0.23589021602E+02  0.15448835578E+02  0.33639942842E+02  0.10566000000E+00 0. -1.
         13    1    4    4    0    0 -0.26539328526E+01 -0.32087232761E+01  0.14556552433E+02  0.15140794147E+02  0.10566000000E+00 0. -1.
        -13    1    4    4    0    0 -0.14643783260E+02 -0.19079595506E+02  0.10122223811E+03  0.10404049214E+03  0.10566000000E+00 0.  1.
        -14    1    4    4    0    0 -0.10469324130E+01 -0.13007028200E+01  0.62891840031E+01  0.65070523840E+01  0.00000000000E+00 0.  1.
<mgrwt>
<rscale>  0 0.80465075E+02</rscale>
<asrwt>0</asrwt>
<pdfrwt beam="1">  1        1 0.16778055E-02 0.80465075E+02</pdfrwt>
<pdfrwt beam="2">  1       -2 0.22834238E-01 0.80465075E+02</pdfrwt>
<totfact> 0.93433557E+04</totfact>
</mgrwt>
</event>
<event>
 8    1  0.8577104E-018  0.7610236E+02  0.7818608E-02  0.1340491E+00
          1   -1    0    0  501    0  0.00000000000E+00  0.00000000000E+00  0.21875355407E+01  0.21875413467E+01  0.50400000000E-02 0. -1.
         -2   -1    0    0    0  501 -0.00000000000E+00 -0.00000000000E+00 -0.66188197041E+03  0.66188197042E+03  0.25500000000E-02 0.  1.
        -24    2    1    2    0    0  0.00000000000E+00  0.00000000000E+00 -0.65969443487E+03  0.66406951177E+03  0.76102359056E+02 0.  0.
         66    2    3    3    0    0 -0.18645335145E+02  0.97814784145E+01 -0.60636806622E+03  0.60673681080E+03  0.20000002705E+01 0.  0.
         13    1    3    3    0    0  0.18645335145E+02 -0.97814784145E+01 -0.53326368649E+02  0.57332700965E+02  0.10566000000E+00 0. -1.
         13    1    4    4    0    0 -0.64615045143E+01  0.30406979566E+01 -0.22678610592E+03  0.22689853655E+03  0.10566000000E+00 0. -1.
        -13    1    4    4    0    0 -0.19611963456E+01  0.75232255622E+00 -0.58852912843E+02  0.58890481357E+02  0.10566000000E+00 0.  1.
        -14    1    4    4    0    0 -0.10222634285E+02  0.59884579017E+01 -0.32072904746E+03  0.32094779289E+03  0.00000000000E+00 0.  1.
<mgrwt>
<rscale>  0 0.76102359E+02</rscale>
<asrwt>0</asrwt>
<pdfrwt beam="1">  1        1 0.33654491E-03 0.76102359E+02</pdfrwt>
<pdfrwt beam="2">  1       -2 0.10182784E+00 0.76102359E+02</pdfrwt>
<totfact> 0.45332802E+04</totfact>
</mgrwt>
</event>
<event>
 8    1  0.8577104E-018  0.8119973E+02  0.7818608E-02  0.1325681E+00
         -2   -1    0    0    0  501 -0.00000000000E+00  0.00000000000E+00  0.52561155130E+02  0.52561155192E+02  0.25500000000E-02 0.  1.
          1   -1    0    0  501    0  0.00000000000E+00 -0.00000000000E+00 -0.31360596922E+02  0.31360597327E+02  0.50400000000E-02 0. -1.
        -24    2    1    2    0    0 -0.35527136788E-14  0.35527136788E-14  0.21200558208E+02  0.83921752520E+02  0.81199734468E+02 0.  0.
         66    2    3    3    0    0  0.29053247329E+02 -0.18685416000E+02  0.32606603747E+02  0.47543943482E+02  0.20000006080E+01 0.  0.
         13    1    3    3    0    0 -0.29053247329E+02  0.18685416000E+02 -0.11406045540E+02  0.36377809037E+02  0.10566000000E+00 0. -1.
         13    1    4    4    0    0  0.38622093007E+01 -0.27078991476E+01  0.47613083789E+01  0.67030291653E+01  0.10566000000E+00 0. -1.
        -13    1    4    4    0    0  0.14276430221E+02 -0.85389216014E+01  0.16468716403E+02  0.23408533187E+02  0.10566000000E+00 0.  1.
         14    1    4    4    0    0  0.10914607808E+02 -0.74385952507E+01  0.11376578966E+02  0.17432381130E+02  0.00000000000E+00 0. -1.
<mgrwt>
<rscale>  0 0.81199734E+02</rscale>
<asrwt>0</asrwt>
<pdfrwt beam="1">  1        1 0.48247073E-02 0.81199734E+02</pdfrwt>
<pdfrwt beam="2">  1       -2 0.80863316E-02 0.81199734E+02</pdfrwt>
<totfact> 0.11679770E+05</totfact>
</mgrwt>
</event>
<event>
 8    1  0.8577104E-018  0.7769332E+02  0.7818608E-02  0.1335728E+00
          1   -1    0    0  501    0  0.00000000000E+00  0.00000000000E+00  0.93922364159E+01  0.93922377681E+01  0.50400000000E-02 0. -1.
         -2   -1    0    0    0  501 -0.00000000000E+00 -0.00000000000E+00 -0.16067131254E+03  0.16067131256E+03  0.25500000000E-02 0.  1.
        -24    2    1    2    0    0  0.00000000000E+00  0.71054273576E-14 -0.15127907613E+03  0.17006355033E+03  0.77693321962E+02 0.  0.
         66    2    3    3    0    0 -0.17376484179E+02  0.34675409933E+02 -0.79307453077E+02  0.88306275762E+02  0.19999922402E+01 0.  0.
         13    1    3    3    0    0  0.17376484179E+02 -0.34675409933E+02 -0.71971623051E+02  0.81757274570E+02  0.10566000000E+00 0. -1.
         13    1    4    4    0    0 -0.34808335768E+01  0.70094892239E+01 -0.14616358582E+02  0.16580055603E+02  0.10566000000E+00 0. -1.
        -13    1    4    4    0    0 -0.42553554022E+01  0.95704445062E+01 -0.21525116624E+02  0.23938322150E+02  0.10566000000E+00 0.  1.
         14    1    4    4    0    0 -0.96402952003E+01  0.18095476203E+02 -0.43165977871E+02  0.47787898009E+02  0.00000000000E+00 0. -1.
<mgrwt>
<rscale>  0 0.77693322E+02</rscale>
<asrwt>0</asrwt>
<pdfrwt beam="1">  1        1 0.14449597E-02 0.77693322E+02</pdfrwt>
<pdfrwt beam="2">  1       -2 0.24718662E-01 0.77693322E+02</pdfrwt>
<totfact> 0.99568823E+04</totfact>
</mgrwt>
</event>
<event>
 8    1  0.8577104E-018  0.7911928E+02  0.7818608E-02  0.1331570E+00
         -2   -1    0    0    0  501 -0.00000000000E+00  0.00000000000E+00  0.42023096813E+03  0.42023096814E+03  0.25500000000E-02 0.  1.
          1   -1    0    0  501    0  0.00000000000E+00 -0.00000000000E+00 -0.37240574798E+01  0.37240608902E+01  0.50400000000E-02 0. -1.
        -24    2    1    2    0    0 -0.71054273576E-14  0.00000000000E+00  0.41650691065E+03  0.42395502903E+03  0.79119277163E+02 0.  0.
         66    2    3    3    0    0 -0.18037668021E+02 -0.13851629289E+02  0.38166609795E+03  0.38234831689E+03  0.19999999886E+01 0.  0.
         13    1    3    3    0    0  0.18037668021E+02  0.13851629289E+02  0.34840812700E+02  0.41606712141E+02  0.10566000000E+00 0. -1.
         13    1    4    4    0    0 -0.60639369504E+01 -0.49828928441E+01  0.14398682002E+03  0.14420061046E+03  0.10566000000E+00 0. -1.
        -13    1    4    4    0    0 -0.44004939477E+00 -0.27938688727E+00  0.10853421427E+02  0.10866444736E+02  0.10566000000E+00 0.  1.
        -14    1    4    4    0    0 -0.11533681675E+02 -0.85893495577E+01  0.22682585650E+03  0.22728126169E+03  0.00000000000E+00 0.  1.
<mgrwt>
<rscale>  0 0.79119277E+02</rscale>
<asrwt>0</asrwt>
<pdfrwt beam="1">  1        1 0.57293223E-03 0.79119277E+02</pdfrwt>
<pdfrwt beam="2">  1       -2 0.64650913E-01 0.79119277E+02</pdfrwt>
<totfact> 0.58818979E+04</totfact>
</mgrwt>
</event>
<event>
 8    1  0.8577104E-018  0.7925729E+02  0.7818608E-02  0.1331172E+00
         -2   -1    0    0    0  501 -0.00000000000E+00  0.00000000000E+00  0.11226316667E+02  0.11226316957E+02  0.25500000000E-02 0.  1.
          1   -1    0    0  501    0  0.00000000000E+00 -0.00000000000E+00 -0.13988823647E+03  0.13988823656E+03  0.50400000000E-02 0. -1.
        -24    2    1    2    0    0 -0.44408920985E-15  0.71054273576E-14 -0.12866191980E+03  0.15111455351E+03  0.79257294159E+02 0.  0.
         66    2    3    3    0    0  0.33204295168E+01  0.35338857882E+02 -0.30879885268E+02  0.47089568200E+02  0.19999976260E+01 0.  0.
         13    1    3    3    0    0 -0.33204295168E+01 -0.35338857882E+02 -0.97782034530E+02  0.10402498531E+03  0.10566000000E+00 0. -1.
         13    1    4    4    0    0  0.18199812198E+00  0.11179437143E+02 -0.10040095970E+02  0.15027562320E+02  0.10566000000E+00 0. -1.
        -13    1    4    4    0    0  0.24907575159E+01  0.17941063649E+02 -0.15475826718E+02  0.23824315615E+02  0.10566000000E+00 0.  1.
        -14    1    4    4    0    0  0.64767387887E+00  0.62183570894E+01 -0.53639625806E+01  0.82376902655E+01  0.00000000000E+00 0.  1.
<mgrwt>
<rscale>  0 0.79257294E+02</rscale>
<asrwt>0</asrwt>
<pdfrwt beam="1">  1        1 0.21521266E-01 0.79257294E+02</pdfrwt>
<pdfrwt beam="2">  1       -2 0.17271258E-02 0.79257294E+02</pdfrwt>
<totfact> 0.15981704E+05</totfact>
</mgrwt>
</event>
<event>
 8    1  0.8577104E-018  0.7912711E+02  0.7818608E-02  0.1331547E+00
          1   -1    0    0  501    0  0.00000000000E+00  0.00000000000E+00  0.63565007460E+01  0.63565027441E+01  0.50400000000E-02 0. -1.
         -2   -1    0    0    0  501 -0.00000000000E+00 -0.00000000000E+00 -0.24624783851E+03  0.24624783853E+03  0.25500000000E-02 0.  1.
        -24    2    1    2    0    0  0.00000000000E+00  0.00000000000E+00 -0.23989133777E+03  0.25260434127E+03  0.79127108458E+02 0.  0.
         66    2    3    3    0    0 -0.22699184516E+02  0.18720630670E+02 -0.20433705702E+03  0.20645422714E+03  0.20000110733E+01 0.  0.
         13    1    3    3    0    0  0.22699184516E+02 -0.18720630670E+02 -0.35554280753E+02  0.46150114130E+02  0.10566000000E+00 0. -1.
         13    1    4    4    0    0 -0.11324661520E+02  0.88512043646E+01 -0.94178074946E+02  0.95268634617E+02  0.10566000000E+00 0. -1.
        -13    1    4    4    0    0 -0.95493149860E+01  0.80062944377E+01 -0.90090475996E+02  0.90948310575E+02  0.10566000000E+00 0.  1.
         14    1    4    4    0    0 -0.18252080100E+01  0.18631318672E+01 -0.20068506074E+02  0.20237281949E+02  0.00000000000E+00 0. -1.
<mgrwt>
<rscale>  0 0.79127108E+02</rscale>
<asrwt>0</asrwt>
<pdfrwt beam="1">  1        1 0.97792354E-03 0.79127108E+02</pdfrwt>
<pdfrwt beam="2">  1       -2 0.37884276E-01 0.79127108E+02</pdfrwt>
<totfact> 0.79901230E+04</totfact>
</mgrwt>
</event>
<event>
 8    1  0.8577104E-018  0.8015655E+02  0.7818608E-02  0.1328608E+00
          1   -1    0    0  501    0  0.00000000000E+00  0.00000000000E+00  0.15919331232E+02  0.15919332029E+02  0.50400000000E-02 0. -1.
         -2   -1    0    0    0  501 -0.00000000000E+00 -0.00000000000E+00 -0.10090048718E+03  0.10090048722E+03  0.25500000000E-02 0.  1.
        -24    2    1    2    0    0  0.35527136788E-14 -0.17763568394E-14 -0.84981155953E+02  0.11681981925E+03  0.80156554951E+02 0.  0.
         66    2    3    3    0    0 -0.31910683381E+02  0.11104853949E+02 -0.73864650171E+02  0.81250206373E+02  0.19999989174E+01 0.  0.
         13    1    3    3    0    0  0.31910683381E+02 -0.11104853949E+02 -0.11116505781E+02  0.35569612873E+02  0.10566000000E+00 0. -1.
         13    1    4    4    0    0 -0.48963458215E+01  0.11634791328E+01 -0.11040136917E+02  0.12133576278E+02  0.10566000000E+00 0. -1.
        -13    1    4    4    0    0 -0.12272440378E+02  0.41622950868E+01 -0.27021324657E+02  0.29968327339E+02  0.10566000000E+00 0.  1.
         14    1    4    4    0    0 -0.14741897181E+02  0.57790797296E+01 -0.35803188596E+02  0.39148302756E+02  0.00000000000E+00 0. -1.
<mgrwt>
<rscale>  0 0.80156555E+02</rscale>
<asrwt>0</asrwt>
<pdfrwt beam="1">  1        1 0.24491280E-02 0.80156555E+02</pdfrwt>
<pdfrwt beam="2">  1       -2 0.15523151E-01 0.80156555E+02</pdfrwt>
<totfact> 0.10536249E+05</totfact>
</mgrwt>
</event>
<event>
 8    1  0.8577104E-018  0.7528701E+02  0.7818608E-02  0.1342985E+00
         -2   -1    0    0    0  501 -0.00000000000E+00  0.00000000000E+00  0.18415741567E+03  0.18415741569E+03  0.25500000000E-02 0.  1.
          1   -1    0    0  501    0  0.00000000000E+00 -0.00000000000E+00 -0.76946840894E+01  0.76946857400E+01  0.50400000000E-02 0. -1.
        -24    2    1    2    0    0  0.35527136788E-14  0.35527136788E-14  0.17646273158E+03  0.19185210143E+03  0.75287005422E+02 0.  0.
         66    2    3    3    0    0 -0.21550028453E+02 -0.30143361813E+02  0.71778260620E+02  0.80803122990E+02  0.19999999169E+01 0.  0.
         13    1    3    3    0    0  0.21550028453E+02  0.30143361813E+02  0.10468447096E+03  0.11104897844E+03  0.10566000000E+00 0. -1.
         13    1    4    4    0    0 -0.16263958836E+01 -0.24380080721E+01  0.61228505701E+01  0.67889255460E+01  0.10566000000E+00 0. -1.
        -13    1    4    4    0    0 -0.10784095965E+01 -0.94596070093E+00  0.28484308896E+01  0.31910079088E+01  0.10566000000E+00 0.  1.
        -14    1    4    4    0    0 -0.18845222973E+02 -0.26759393040E+02  0.62806979161E+02  0.70823189536E+02  0.00000000000E+00 0.  1.
<mgrwt>
<rscale>  0 0.75287005E+02</rscale>
<asrwt>0</asrwt>
<pdfrwt beam="1">  1        1 0.11837976E-02 0.75287005E+02</pdfrwt>
<pdfrwt beam="2">  1       -2 0.28331911E-01 0.75287005E+02</pdfrwt>
<totfact> 0.10274750E+05</totfact>
</mgrwt>
</event>
<event>
 8    1  0.8577104E-018  0.8082102E+02  0.7818608E-02  0.1326738E+00
          1   -1    0    0  501    0  0.00000000000E+00  0.00000000000E+00  0.10713558557E+03  0.10713558569E+03  0.50400000000E-02 0. -1.
         -2   -1    0    0    0  501 -0.00000000000E+00 -0.00000000000E+00 -0.15242453076E+02  0.15242453289E+02  0.25500000000E-02 0.  1.
        -24    2    1    2    0    0 -0.71054273576E-14  0.17763568394E-14  0.91893132495E+02  0.12237803898E+03  0.80821015982E+02 0.  0.
         66    2    3    3    0    0 -0.33540933333E+02  0.13597746899E+02  0.18841053134E+02  0.40851905790E+02  0.19999984690E+01 0.  0.
         13    1    3    3    0    0  0.33540933333E+02 -0.13597746899E+02  0.73052079361E+02  0.81526133188E+02  0.10566000000E+00 0. -1.
         13    1    4    4    0    0 -0.99224983375E+01  0.49253131372E+01  0.60795082611E+01  0.12636703189E+02  0.10566000000E+00 0. -1.
        -13    1    4    4    0    0 -0.10967549608E+02  0.41804501774E+01  0.57834533189E+01  0.13085213197E+02  0.10566000000E+00 0.  1.
         14    1    4    4    0    0 -0.12650885388E+02  0.44919835845E+01  0.69780915544E+01  0.15129989404E+02  0.00000000000E+00 0. -1.
<mgrwt>
<rscale>  0 0.80821016E+02</rscale>
<asrwt>0</asrwt>
<pdfrwt beam="1">  1        1 0.16482398E-01 0.80821016E+02</pdfrwt>
<pdfrwt beam="2">  1       -2 0.23449928E-02 0.80821016E+02</pdfrwt>
<totfact> 0.14467629E+05</totfact>
</mgrwt>
</event>
<event>
 8    1  0.8577104E-018  0.8039610E+02  0.7818608E-02  0.1327931E+00
          1   -1    0    0  501    0  0.00000000000E+00  0.00000000000E+00  0.17159392495E+01  0.17159466511E+01  0.50400000000E-02 0. -1.
         -2   -1    0    0    0  501 -0.00000000000E+00 -0.00000000000E+00 -0.94168811724E+03  0.94168811724E+03  0.25500000000E-02 0.  1.
        -24    2    1    2    0    0  0.00000000000E+00  0.00000000000E+00 -0.93997217799E+03  0.94340406389E+03  0.80396096774E+02 0.  0.
         66    2    3    3    0    0 -0.23268020526E+02  0.16435556143E+01 -0.85407988542E+03  0.85440069799E+03  0.20000005932E+01 0.  0.
         13    1    3    3    0    0  0.23268020526E+02 -0.16435556143E+01 -0.85892292574E+02  0.89003365902E+02  0.10566000000E+00 0. -1.
         13    1    4    4    0    0 -0.14929805803E+02  0.86669794189E+00 -0.52765249962E+03  0.52786439716E+03  0.10566000000E+00 0. -1.
        -13    1    4    4    0    0 -0.30497915724E+01  0.50778088708E+00 -0.10469668696E+03  0.10474238156E+03  0.10566000000E+00 0.  1.
         14    1    4    4    0    0 -0.52884231510E+01  0.26907678529E+00 -0.22173069883E+03  0.22179391927E+03  0.00000000000E+00 0. -1.
<mgrwt>
<rscale>  0 0.80396097E+02</rscale>
<asrwt>0</asrwt>
<pdfrwt beam="1">  1        1 0.26399198E-03 0.80396097E+02</pdfrwt>
<pdfrwt beam="2">  1       -2 0.14487468E+00 0.80396097E+02</pdfrwt>
<totfact> 0.27574883E+04</totfact>
</mgrwt>
</event>
<event>
 8    1  0.8577104E-018  0.7975435E+02  0.7818608E-02  0.1329750E+00
         -2   -1    0    0    0  501 -0.00000000000E+00  0.00000000000E+00  0.11177578503E+03  0.11177578506E+03  0.25500000000E-02 0.  1.
          1   -1    0    0  501    0  0.00000000000E+00 -0.00000000000E+00 -0.14226597127E+02  0.14226598020E+02  0.50400000000E-02 0. -1.
        -24    2    1    2    0    0  0.00000000000E+00  0.17763568394E-14  0.97549187901E+02  0.12600238308E+03  0.79754350859E+02 0.  0.
         66    2    3    3    0    0 -0.22189613921E+02 -0.15408938814E+02  0.95092452894E+02  0.98875623737E+02  0.20000026709E+01 0.  0.
         13    1    3    3    0    0  0.22189613921E+02  0.15408938814E+02  0.24567350068E+01  0.27126759339E+02  0.10566000000E+00 0. -1.
         13    1    4    4    0    0 -0.69936911770E+01 -0.44040941826E+01  0.30975657501E+02  0.32059480399E+02  0.10566000000E+00 0. -1.
        -13    1    4    4    0    0 -0.66670504559E+01 -0.41132158789E+01  0.26607547169E+02  0.27736994016E+02  0.10566000000E+00 0.  1.
        -14    1    4    4    0    0 -0.85288722877E+01 -0.68916287527E+01  0.37509248224E+02  0.39079149322E+02  0.00000000000E+00 0.  1.
<mgrwt>
<rscale>  0 0.79754351E+02</rscale>
<asrwt>0</asrwt>
<pdfrwt beam="1">  1        1 0.21887072E-02 0.79754351E+02</pdfrwt>
<pdfrwt beam="2">  1       -2 0.17196275E-01 0.79754351E+02</pdfrwt>
<totfact> 0.10394515E+05</totfact>
</mgrwt>
</event>
<event>
 8    1  0.8577104E-018  0.7601924E+02  0.7818608E-02  0.1340744E+00
         -2   -1    0    0    0  501 -0.00000000000E+00  0.00000000000E+00  0.27531639381E+01  0.27531651190E+01  0.25500000000E-02 0.  1.
          1   -1    0    0  501    0  0.00000000000E+00 -0.00000000000E+00 -0.52475288401E+03  0.52475288403E+03  0.50400000000E-02 0. -1.
        -24    2    1    2    0    0 -0.34694469520E-17  0.71054273576E-14 -0.52199972007E+03  0.52750604915E+03  0.76019235316E+02 0.  0.
         66    2    3    3    0    0  0.43981194897E-02  0.37460134633E+02 -0.30477202085E+03  0.30707205409E+03  0.20000010367E+01 0.  0.
         13    1    3    3    0    0 -0.43981194897E-02 -0.37460134633E+02 -0.21722769922E+03  0.22043399506E+03  0.10566000000E+00 0. -1.
         13    1    4    4    0    0 -0.13203769827E+00  0.10150333230E+02 -0.79162673800E+02  0.79810944023E+02  0.10566000000E+00 0. -1.
        -13    1    4    4    0    0  0.32803395313E+00  0.16484705097E+02 -0.13049310739E+03  0.13153066315E+03  0.10566000000E+00 0.  1.
        -14    1    4    4    0    0 -0.19159813537E+00  0.10825096306E+02 -0.95116239665E+02  0.95730446922E+02  0.00000000000E+00 0.  1.
<mgrwt>
<rscale>  0 0.76019235E+02</rscale>
<asrwt>0</asrwt>
<pdfrwt beam="1">  1        1 0.80731134E-01 0.76019235E+02</pdfrwt>
<pdfrwt beam="2">  1       -2 0.42356419E-03 0.76019235E+02</pdfrwt>
<totfact> 0.22526230E+05</totfact>
</mgrwt>
</event>
<event>
 8    1  0.8577104E-018  0.8019411E+02  0.7818608E-02  0.1328501E+00
         -2   -1    0    0    0  501 -0.00000000000E+00  0.00000000000E+00  0.58772387603E+02  0.58772387658E+02  0.25500000000E-02 0.  1.
          1   -1    0    0  501    0  0.00000000000E+00 -0.00000000000E+00 -0.27355936145E+02  0.27355936609E+02  0.50400000000E-02 0. -1.
        -24    2    1    2    0    0  0.35527136788E-14 -0.35527136788E-14  0.31416451458E+02  0.86128324268E+02  0.80194107133E+02 0.  0.
         66    2    3    3    0    0  0.28955461491E+02 -0.27444225324E+02  0.19760040047E+02  0.44565271627E+02  0.19999996856E+01 0.  0.
         13    1    3    3    0    0 -0.28955461491E+02  0.27444225324E+02  0.11656411411E+02  0.41563052641E+02  0.10566000000E+00 0. -1.
         13    1    4    4    0    0  0.91934528892E+01 -0.88619109721E+01  0.69309978387E+01  0.14529381858E+02  0.10566000000E+00 0.  1.
        -13    1    4    4    0    0  0.17331214854E+02 -0.16856435669E+02  0.11385760149E+02  0.26723718491E+02  0.10566000000E+00 0. -1.
         14    1    4    4    0    0  0.24307937475E+01 -0.17258786835E+01  0.14432820590E+01  0.33121712780E+01  0.00000000000E+00 0. -1.
<mgrwt>
<rscale>  0 0.80194107E+02</rscale>
<asrwt>0</asrwt>
<pdfrwt beam="1">  1        1 0.42086056E-02 0.80194107E+02</pdfrwt>
<pdfrwt beam="2">  1       -2 0.90419058E-02 0.80194107E+02</pdfrwt>
<totfact> 0.11811896E+05</totfact>
</mgrwt>
</event>
<event>
 8    1  0.8577104E-018  0.7642341E+02  0.7818608E-02  0.1339519E+00
          1   -1    0    0  501    0  0.00000000000E+00  0.00000000000E+00  0.33237328827E+02  0.33237329209E+02  0.50400000000E-02 0. -1.
         -2   -1    0    0    0  501 -0.00000000000E+00 -0.00000000000E+00 -0.43930555208E+02  0.43930555282E+02  0.25500000000E-02 0.  1.
        -24    2    1    2    0    0 -0.17763568394E-14  0.00000000000E+00 -0.10693226382E+02  0.77167884491E+02  0.76423408105E+02 0.  0.
         66    2    3    3    0    0  0.15741044373E+02 -0.15020770737E+02 -0.37036289819E+02  0.43001055742E+02  0.19999999553E+01 0.  0.
         13    1    3    3    0    0 -0.15741044373E+02  0.15020770737E+02  0.26343063437E+02  0.34166828750E+02  0.10566000000E+00 0. -1.
         13    1    4    4    0    0  0.10585703169E+01 -0.16719390122E+01 -0.28930433660E+01  0.35066814981E+01  0.10566000000E+00 0.  1.
        -13    1    4    4    0    0  0.70143225430E+01 -0.66241086340E+01 -0.16251553557E+02  0.18899833147E+02  0.10566000000E+00 0.  1.
         14    1    4    4    0    0  0.76681515131E+01 -0.67247230911E+01 -0.17891692896E+02  0.20594541096E+02  0.00000000000E+00 0. -1.
<mgrwt>
<rscale>  0 0.76423408E+02</rscale>
<asrwt>0</asrwt>
<pdfrwt beam="1">  1        1 0.51134353E-02 0.76423408E+02</pdfrwt>
<pdfrwt beam="2">  1       -2 0.67585470E-02 0.76423408E+02</pdfrwt>
<totfact> 0.14019556E+05</totfact>
</mgrwt>
</event>
<event>
 8    1  0.8577104E-018  0.7913018E+02  0.7818608E-02  0.1331538E+00
          1   -1    0    0  501    0  0.00000000000E+00  0.00000000000E+00  0.79637668625E+01  0.79637684573E+01  0.50400000000E-02 0. -1.
         -2   -1    0    0    0  501 -0.00000000000E+00 -0.00000000000E+00 -0.19656477324E+03  0.19656477325E+03  0.25500000000E-02 0.  1.
        -24    2    1    2    0    0  0.11102230246E-15  0.71054273576E-14 -0.18860100637E+03  0.20452854171E+03  0.79130176095E+02 0.  0.
         66    2    3    3    0    0  0.86890250300E+00  0.39482891524E+02 -0.89363633009E+02  0.97721607708E+02  0.19999984288E+01 0.  0.
         13    1    3    3    0    0 -0.86890250300E+00 -0.39482891524E+02 -0.99237373365E+02  0.10680693400E+03  0.10566000000E+00 0. -1.
         13    1    4    4    0    0  0.62696346128E+00  0.20835467020E+02 -0.47384369916E+02  0.51766779361E+02  0.10566000000E+00 0.  1.
        -13    1    4    4    0    0  0.53863735385E+00  0.58061138433E+01 -0.14123505085E+02  0.15280237174E+02  0.10566000000E+00 0. -1.
         14    1    4    4    0    0 -0.29669831214E+00  0.12841310661E+02 -0.27855758009E+02  0.30674591173E+02  0.00000000000E+00 0. -1.
<mgrwt>
<rscale>  0 0.79130176E+02</rscale>
<asrwt>0</asrwt>
<pdfrwt beam="1">  1        1 0.12251952E-02 0.79130176E+02</pdfrwt>
<pdfrwt beam="2">  1       -2 0.30240731E-01 0.79130176E+02</pdfrwt>
<totfact> 0.88121611E+04</totfact>
</mgrwt>
</event>
<event>
 8    1  0.8577104E-018  0.8675181E+02  0.7818608E-02  0.1310914E+00
         -2   -1    0    0    0  501 -0.00000000000E+00  0.00000000000E+00  0.85656303462E+01  0.85656307257E+01  0.25500000000E-02 0.  1.
          1   -1    0    0  501    0  0.00000000000E+00 -0.00000000000E+00 -0.21965329836E+03  0.21965329842E+03  0.50400000000E-02 0. -1.
        -24    2    1    2    0    0 -0.17763568394E-14 -0.35527136788E-14 -0.21108766802E+03  0.22821892915E+03  0.86751807082E+02 0.  0.
         66    2    3    3    0    0 -0.11789661386E+02 -0.30743660534E+02 -0.31411151153E+02  0.45550292936E+02  0.19999977930E+01 0.  0.
         13    1    3    3    0    0  0.11789661386E+02  0.30743660534E+02 -0.17967651687E+03  0.18266863621E+03  0.10566000000E+00 0. -1.
         13    1    4    4    0    0 -0.11028342872E+01 -0.27372159226E+01 -0.24618342147E+01  0.38445267860E+01  0.10566000000E+00 0. -1.
        -13    1    4    4    0    0 -0.62814447071E+01 -0.18428181686E+02 -0.18279339160E+02  0.26705801468E+02  0.10566000000E+00 0.  1.
        -14    1    4    4    0    0 -0.44053823922E+01 -0.95782629250E+01 -0.10669977778E+02  0.14999964682E+02  0.00000000000E+00 0.  1.
<mgrwt>
<rscale>  0 0.86751807E+02</rscale>
<asrwt>0</asrwt>
<pdfrwt beam="1">  1        1 0.33792811E-01 0.86751807E+02</pdfrwt>
<pdfrwt beam="2">  1       -2 0.13177895E-02 0.86751807E+02</pdfrwt>
<totfact> 0.13686413E+05</totfact>
</mgrwt>
</event>
<event>
 8    1  0.8577104E-018  0.7912850E+02  0.7818608E-02  0.1331543E+00
         -2   -1    0    0    0  501 -0.00000000000E+00  0.00000000000E+00  0.91014518649E+02  0.91014518685E+02  0.25500000000E-02 0.  1.
          1   -1    0    0  501    0  0.00000000000E+00 -0.00000000000E+00 -0.17198682177E+02  0.17198682915E+02  0.50400000000E-02 0. -1.
        -24    2    1    2    0    0 -0.35527136788E-14 -0.35527136788E-14  0.73815836472E+02  0.10821320160E+03  0.79128498573E+02 0.  0.
         66    2    3    3    0    0 -0.20481007916E+02 -0.22500839522E+02  0.71462473782E+02  0.77695846792E+02  0.19999963101E+01 0.  0.
         13    1    3    3    0    0  0.20481007916E+02  0.22500839522E+02  0.23533626900E+01  0.30517354807E+02  0.10566000000E+00 0. -1.
         13    1    4    4    0    0 -0.75672228622E+01 -0.77919522332E+01  0.27335399293E+02  0.29414496426E+02  0.10566000000E+00 0. -1.
        -13    1    4    4    0    0 -0.10628150001E+02 -0.12403015511E+02  0.37427673843E+02  0.40836678361E+02  0.10566000000E+00 0.  1.
         14    1    4    4    0    0 -0.22856350529E+01 -0.23058717775E+01  0.66994006458E+01  0.74446720050E+01  0.00000000000E+00 0. -1.
<mgrwt>
<rscale>  0 0.79128499E+02</rscale>
<asrwt>0</asrwt>
<pdfrwt beam="1">  1        1 0.26459512E-02 0.79128499E+02</pdfrwt>
<pdfrwt beam="2">  1       -2 0.14002233E-01 0.79128499E+02</pdfrwt>
<totfact> 0.11164484E+05</totfact>
</mgrwt>
</event>
<event>
 8    1  0.8577104E-018  0.7871237E+02  0.7818608E-02  0.1332746E+00
         -2   -1    0    0    0  501 -0.00000000000E+00  0.00000000000E+00  0.44452909430E+03  0.44452909431E+03  0.25500000000E-02 0.  1.
          1   -1    0    0  501    0  0.00000000000E+00 -0.00000000000E+00 -0.34843803637E+01  0.34843840088E+01  0.50400000000E-02 0. -1.
        -24    2    1    2    0    0  0.35527136788E-14 -0.35527136788E-14  0.44104471394E+03  0.44801347832E+03  0.78712369179E+02 0.  0.
         66    2    3    3    0    0 -0.28891694924E+02  0.25614251601E+02  0.26328980691E+03  0.26611340120E+03  0.19999880436E+01 0.  0.
         13    1    3    3    0    0  0.28891694924E+02 -0.25614251601E+02  0.17775490702E+03  0.18190007712E+03  0.10566000000E+00 0. -1.
         13    1    4    4    0    0 -0.13112607599E+02  0.12209047085E+02  0.11926664420E+03  0.12060491239E+03  0.10566000000E+00 0. -1.
        -13    1    4    4    0    0 -0.13866929208E+02  0.11280448240E+02  0.12502452857E+03  0.12629601794E+03  0.10566000000E+00 0.  1.
        -14    1    4    4    0    0 -0.19121581167E+01  0.21247562757E+01  0.18998634134E+02  0.19212470868E+02  0.00000000000E+00 0.  1.
<mgrwt>
<rscale>  0 0.78712369E+02</rscale>
<asrwt>0</asrwt>
<pdfrwt beam="1">  1        1 0.53605922E-03 0.78712369E+02</pdfrwt>
<pdfrwt beam="2">  1       -2 0.68389039E-01 0.78712369E+02</pdfrwt>
<totfact> 0.57313555E+04</totfact>
</mgrwt>
</event>
<event>
 8    1  0.8577104E-018  0.8074571E+02  0.7818608E-02  0.1326948E+00
          1   -1    0    0  501    0  0.00000000000E+00  0.00000000000E+00  0.21060454500E+03  0.21060454506E+03  0.50400000000E-02 0. -1.
         -2   -1    0    0    0  501 -0.00000000000E+00 -0.00000000000E+00 -0.77394689274E+01  0.77394693475E+01  0.25500000000E-02 0.  1.
        -24    2    1    2    0    0  0.00000000000E+00  0.00000000000E+00  0.20286507607E+03  0.21834401441E+03  0.80745709098E+02 0.  0.
         66    2    3    3    0    0  0.43699034745E+01  0.29041475686E+02  0.26680604065E+02  0.39728553971E+02  0.20000002417E+01 0.  0.
         13    1    3    3    0    0 -0.43699034745E+01 -0.29041475686E+02  0.17618447201E+03  0.17861546044E+03  0.10566000000E+00 0. -1.
         13    1    4    4    0    0  0.53784958611E-01  0.17206928364E+01  0.16561213189E+01  0.23911458587E+01  0.10566000000E+00 0. -1.
        -13    1    4    4    0    0  0.36849531854E+00  0.45113840518E+01  0.48003410170E+01  0.65986978093E+01  0.10566000000E+00 0.  1.
        -14    1    4    4    0    0  0.39476231974E+01  0.22809398798E+02  0.20224141729E+02  0.30738710303E+02  0.00000000000E+00 0.  1.
<mgrwt>
<rscale>  0 0.80745709E+02</rscale>
<asrwt>0</asrwt>
<pdfrwt beam="1">  1        1 0.32400700E-01 0.80745709E+02</pdfrwt>
<pdfrwt beam="2">  1       -2 0.11906875E-02 0.80745709E+02</pdfrwt>
<totfact> 0.16432665E+05</totfact>
</mgrwt>
</event>
<event>
 8    1  0.8577104E-018  0.8038008E+02  0.7818608E-02  0.1327976E+00
          1   -1    0    0  501    0  0.00000000000E+00  0.00000000000E+00  0.34145076386E+03  0.34145076390E+03  0.50400000000E-02 0. -1.
         -2   -1    0    0    0  501 -0.00000000000E+00 -0.00000000000E+00 -0.47305181247E+01  0.47305188120E+01  0.25500000000E-02 0.  1.
        -24    2    1    2    0    0 -0.35527136788E-14  0.00000000000E+00  0.33672024574E+03  0.34618128271E+03  0.80380075953E+02 0.  0.
         66    2    3    3    0    0  0.20811073819E+02  0.31982841417E+02  0.11446022966E+03  0.12066957825E+03  0.20000005941E+01 0.  0.
         13    1    3    3    0    0 -0.20811073819E+02 -0.31982841417E+02  0.22226001608E+03  0.22551170447E+03  0.10566000000E+00 0. -1.
         13    1    4    4    0    0  0.23599459194E+01  0.31155862677E+01  0.11195948910E+02  0.11859032784E+02  0.10566000000E+00 0. -1.
        -13    1    4    4    0    0  0.84682420649E+01  0.14095016737E+02  0.47539551636E+02  0.50303088913E+02  0.10566000000E+00 0.  1.
         14    1    4    4    0    0  0.99828858349E+01  0.14772238413E+02  0.55724729112E+02  0.58507456550E+02  0.00000000000E+00 0. -1.
<mgrwt>
<rscale>  0 0.80380076E+02</rscale>
<asrwt>0</asrwt>
<pdfrwt beam="1">  1        1 0.52530876E-01 0.80380076E+02</pdfrwt>
<pdfrwt beam="2">  1       -2 0.72777223E-03 0.80380076E+02</pdfrwt>
<totfact> 0.18251951E+05</totfact>
</mgrwt>
</event>
<event>
 8    1  0.8577104E-018  0.7789996E+02  0.7818608E-02  0.1335119E+00
         -2   -1    0    0    0  501 -0.00000000000E+00  0.00000000000E+00  0.50419638594E+01  0.50419645043E+01  0.25500000000E-02 0.  1.
          1   -1    0    0  501    0  0.00000000000E+00 -0.00000000000E+00 -0.30089486253E+03  0.30089486257E+03  0.50400000000E-02 0. -1.
        -24    2    1    2    0    0  0.00000000000E+00  0.00000000000E+00 -0.29585289867E+03  0.30593682707E+03  0.77899964761E+02 0.  0.
         66    2    3    3    0    0  0.30052360286E+02  0.22214239188E+02 -0.10527566780E+03  0.11172995575E+03  0.19999997265E+01 0.  0.
         13    1    3    3    0    0 -0.30052360286E+02 -0.22214239188E+02 -0.19057723086E+03  0.19420687132E+03  0.10566000000E+00 0. -1.
         13    1    4    4    0    0  0.23921185464E+02  0.17176396029E+02 -0.82577688695E+02  0.87671760156E+02  0.10566000000E+00 0. -1.
        -13    1    4    4    0    0  0.58532641537E+01  0.45971909029E+01 -0.21492177192E+02  0.22744663329E+02  0.10566000000E+00 0.  1.
         14    1    4    4    0    0  0.27791066873E+00  0.44065225598E+00 -0.12058019170E+01  0.13135322659E+01  0.00000000000E+00 0. -1.
<mgrwt>
<rscale>  0 0.77899965E+02</rscale>
<asrwt>0</asrwt>
<pdfrwt beam="1">  1        1 0.46291504E-01 0.77899965E+02</pdfrwt>
<pdfrwt beam="2">  1       -2 0.77568703E-03 0.77899965E+02</pdfrwt>
<totfact> 0.19361310E+05</totfact>
</mgrwt>
</event>
<event>
 8    1  0.8577104E-018  0.7843189E+02  0.7818608E-02  0.1333561E+00
         -2   -1    0    0    0  501 -0.00000000000E+00  0.00000000000E+00  0.70973927380E+03  0.70973927381E+03  0.25500000000E-02 0.  1.
          1   -1    0    0  501    0  0.00000000000E+00 -0.00000000000E+00 -0.21668353329E+01  0.21668411943E+01  0.50400000000E-02 0. -1.
        -24    2    1    2    0    0  0.88817841970E-15 -0.71054273576E-14  0.70757243847E+03  0.71190611500E+03  0.78431886975E+02 0.  0.
         66    2    3    3    0    0  0.73005631664E+01  0.33628219990E+02  0.52424507322E+03  0.52537705717E+03  0.20000006353E+01 0.  0.
         13    1    3    3    0    0 -0.73005631664E+01 -0.33628219990E+02  0.18332736525E+03  0.18652905784E+03  0.10566000000E+00 0. -1.
         13    1    4    4    0    0  0.67015224902E+00  0.61179318262E+01  0.93699571102E+02  0.93901538766E+02  0.10566000000E+00 0. -1.
        -13    1    4    4    0    0  0.49696076610E+01  0.19135143108E+02  0.29666479420E+03  0.29732282453E+03  0.10566000000E+00 0.  1.
        -14    1    4    4    0    0  0.16608032563E+01  0.83751450559E+01  0.13388070791E+03  0.13415269387E+03  0.00000000000E+00 0.  1.
<mgrwt>
<rscale>  0 0.78431887E+02</rscale>
<asrwt>0</asrwt>
<pdfrwt beam="1">  1        1 0.33336010E-03 0.78431887E+02</pdfrwt>
<pdfrwt beam="2">  1       -2 0.10919054E+00 0.78431887E+02</pdfrwt>
<totfact> 0.39309450E+04</totfact>
</mgrwt>
</event>
<event>
 8    1  0.8577104E-018  0.7779546E+02  0.7818608E-02  0.1335427E+00
         -2   -1    0    0    0  501 -0.00000000000E+00  0.00000000000E+00  0.48353963809E+02  0.48353963876E+02  0.25500000000E-02 0.  1.
          1   -1    0    0  501    0  0.00000000000E+00 -0.00000000000E+00 -0.31290785218E+02  0.31290785624E+02  0.50400000000E-02 0. -1.
        -24    2    1    2    0    0  0.88817841970E-15  0.35527136788E-14  0.17063178590E+02  0.79644749500E+02  0.77795462974E+02 0.  0.
         66    2    3    3    0    0  0.54934321760E+01  0.11097413147E+02  0.46260062933E+02  0.47930405822E+02  0.20000010146E+01 0.  0.
         13    1    3    3    0    0 -0.54934321760E+01 -0.11097413147E+02 -0.29196884342E+02  0.31714343679E+02  0.10566000000E+00 0. -1.
         13    1    4    4    0    0  0.13537933279E+00  0.45020976766E+00  0.10517781064E+01  0.11569000041E+01  0.10566000000E+00 0. -1.
        -13    1    4    4    0    0  0.10045184178E+01  0.33180036051E+01  0.13742203253E+02  0.14173126665E+02  0.10566000000E+00 0.  1.
         14    1    4    4    0    0  0.43535344254E+01  0.73291997741E+01  0.31466081574E+02  0.32600379153E+02  0.00000000000E+00 0. -1.
<mgrwt>
<rscale>  0 0.77795463E+02</rscale>
<asrwt>0</asrwt>
<pdfrwt beam="1">  1        1 0.48139670E-02 0.77795463E+02</pdfrwt>
<pdfrwt beam="2">  1       -2 0.74390714E-02 0.77795463E+02</pdfrwt>
<totfact> 0.13197157E+05</totfact>
</mgrwt>
</event>
<event>
 8    1  0.8577104E-018  0.7952015E+02  0.7818608E-02  0.1330419E+00
         -2   -1    0    0    0  501 -0.00000000000E+00  0.00000000000E+00  0.15631626487E+03  0.15631626489E+03  0.25500000000E-02 0.  1.
          1   -1    0    0  501    0  0.00000000000E+00 -0.00000000000E+00 -0.10113237438E+02  0.10113238694E+02  0.50400000000E-02 0. -1.
        -24    2    1    2    0    0  0.35527136788E-14  0.00000000000E+00  0.14620302743E+03  0.16642950359E+03  0.79520151115E+02 0.  0.
         66    2    3    3    0    0  0.16397256686E+02 -0.36185753298E+02  0.71553865207E+02  0.81867175368E+02  0.20000020497E+01 0.  0.
         13    1    3    3    0    0 -0.16397256686E+02  0.36185753298E+02  0.74649162227E+02  0.84562328219E+02  0.10566000000E+00 0. -1.
         13    1    4    4    0    0  0.26741013048E+00 -0.59166031650E+00  0.13284840159E+01  0.14824317603E+01  0.10566000000E+00 0. -1.
        -13    1    4    4    0    0  0.58833603228E+01 -0.11109840659E+02  0.23019006896E+02  0.26228387878E+02  0.10566000000E+00 0.  1.
        -14    1    4    4    0    0  0.10246486232E+02 -0.24484252322E+02  0.47206374295E+02  0.54156355730E+02  0.00000000000E+00 0.  1.
<mgrwt>
<rscale>  0 0.79520151E+02</rscale>
<asrwt>0</asrwt>
<pdfrwt beam="1">  1        1 0.15558828E-02 0.79520151E+02</pdfrwt>
<pdfrwt beam="2">  1       -2 0.24048655E-01 0.79520151E+02</pdfrwt>
<totfact> 0.94674177E+04</totfact>
</mgrwt>
</event>
<event>
 8    1  0.8577104E-018  0.8134003E+02  0.7818608E-02  0.1325291E+00
          1   -1    0    0  501    0  0.00000000000E+00  0.00000000000E+00  0.89894486626E+01  0.89894500755E+01  0.50400000000E-02 0. -1.
         -2   -1    0    0    0  501 -0.00000000000E+00 -0.00000000000E+00 -0.18399906107E+03  0.18399906109E+03  0.25500000000E-02 0.  1.
        -24    2    1    2    0    0 -0.35527136788E-14 -0.17763568394E-14 -0.17500961241E+03  0.19298851116E+03  0.81340033230E+02 0.  0.
         66    2    3    3    0    0 -0.14882241212E+02 -0.15693958032E+02 -0.16920665135E+03  0.17059505356E+03  0.20000040953E+01 0.  0.
         13    1    3    3    0    0  0.14882241212E+02  0.15693958032E+02 -0.58029610550E+01  0.22393457599E+02  0.10566000000E+00 0. -1.
         13    1    4    4    0    0 -0.11419006228E+01 -0.15509505935E+01 -0.16389838560E+02  0.16502949943E+02  0.10566000000E+00 0. -1.
        -13    1    4    4    0    0 -0.49549153342E+01 -0.42765251525E+01 -0.54468849342E+02  0.54860792612E+02  0.10566000000E+00 0.  1.
        -14    1    4    4    0    0 -0.87854252547E+01 -0.98664822863E+01 -0.98347963449E+02  0.99231311007E+02  0.00000000000E+00 0.  1.
<mgrwt>
<rscale>  0 0.81340033E+02</rscale>
<asrwt>0</asrwt>
<pdfrwt beam="1">  1        1 0.13829924E-02 0.81340033E+02</pdfrwt>
<pdfrwt beam="2">  1       -2 0.28307545E-01 0.81340033E+02</pdfrwt>
<totfact> 0.84227541E+04</totfact>
</mgrwt>
</event>
<event>
 8    1  0.8577104E-018  0.7860341E+02  0.7818608E-02  0.1333062E+00
          1   -1    0    0  501    0  0.00000000000E+00  0.00000000000E+00  0.29625487100E+02  0.29625487529E+02  0.50400000000E-02 0. -1.
         -2   -1    0    0    0  501 -0.00000000000E+00 -0.00000000000E+00 -0.52138351300E+02  0.52138351362E+02  0.25500000000E-02 0.  1.
        -24    2    1    2    0    0 -0.17763568394E-14  0.71054273576E-14 -0.22512864200E+02  0.81763838891E+02  0.78603411476E+02 0.  0.
         66    2    3    3    0    0  0.10132510328E+02 -0.35943383963E+02  0.13920164188E+01  0.37423686685E+02  0.19999997886E+01 0.  0.
         13    1    3    3    0    0 -0.10132510328E+02  0.35943383963E+02 -0.23904880619E+02  0.44340152206E+02  0.10566000000E+00 0. -1.
         13    1    4    4    0    0  0.33147967377E+01 -0.12831858902E+02  0.47537385147E+00  0.13262036971E+02  0.10566000000E+00 0.  1.
        -13    1    4    4    0    0  0.55525036242E+01 -0.17438637545E+02  0.12139360074E+01  0.18341787824E+02  0.10566000000E+00 0.  1.
        -14    1    4    4    0    0  0.12652099659E+01 -0.56728875160E+01 -0.29729344007E+00  0.58198618898E+01  0.00000000000E+00 0.  1.
<mgrwt>
<rscale>  0 0.78603411E+02</rscale>
<asrwt>0</asrwt>
<pdfrwt beam="1">  1        1 0.45577673E-02 0.78603411E+02</pdfrwt>
<pdfrwt beam="2">  1       -2 0.80212849E-02 0.78603411E+02</pdfrwt>
<totfact> 0.12693826E+05</totfact>
</mgrwt>
</event>
<event>
 8    1  0.8577104E-018  0.8006604E+02  0.7818608E-02  0.1328864E+00
         -2   -1    0    0    0  501 -0.00000000000E+00  0.00000000000E+00  0.16069801380E+02  0.16069801582E+02  0.25500000000E-02 0.  1.
          1   -1    0    0  501    0  0.00000000000E+00 -0.00000000000E+00 -0.99730082086E+02  0.99730082213E+02  0.50400000000E-02 0. -1.
        -24    2    1    2    0    0  0.35527136788E-14 -0.35527136788E-14 -0.83660280706E+02  0.11579988380E+03  0.80066038488E+02 0.  0.
         66    2    3    3    0    0  0.29787250123E+02 -0.17819722389E+02 -0.13081796444E+02  0.37147761251E+02  0.19999979713E+01 0.  0.
         13    1    3    3    0    0 -0.29787250123E+02  0.17819722389E+02 -0.70578484262E+02  0.78652122544E+02  0.10566000000E+00 0. -1.
         13    1    4    4    0    0  0.17721316406E+02 -0.98697919810E+01 -0.72674552576E+01  0.21547271727E+02  0.10566000000E+00 0.  1.
        -13    1    4    4    0    0  0.12355122541E+01 -0.58317183224E+00 -0.70344846730E+00  0.15403193493E+01  0.10566000000E+00 0. -1.
         14    1    4    4    0    0  0.10830421463E+02 -0.73667585755E+01 -0.51108927195E+01  0.14060170175E+02  0.00000000000E+00 0. -1.
<mgrwt>
<rscale>  0 0.80066038E+02</rscale>
<asrwt>0</asrwt>
<pdfrwt beam="1">  1        1 0.15343089E-01 0.80066038E+02</pdfrwt>
<pdfrwt beam="2">  1       -2 0.24722772E-02 0.80066038E+02</pdfrwt>
<totfact> 0.14659708E+05</totfact>
</mgrwt>
</event>
<event>
 8    1  0.8577104E-018  0.8099631E+02  0.7818608E-02  0.1326248E+00
          1   -1    0    0  501    0  0.00000000000E+00  0.00000000000E+00  0.40941510784E+02  0.40941511094E+02  0.50400000000E-02 0. -1.
         -2   -1    0    0    0  501 -0.00000000000E+00 -0.00000000000E+00 -0.40059601774E+02  0.40059601855E+02  0.25500000000E-02 0.  1.
        -24    2    1    2    0    0  0.00000000000E+00  0.00000000000E+00  0.88190900978E+00  0.81001112950E+02  0.80996311864E+02 0.  0.
         66    2    3    3    0    0 -0.11250990993E+02 -0.98506786801E+01 -0.37170513517E+02  0.40115679199E+02  0.19999934276E+01 0.  0.
         13    1    3    3    0    0  0.11250990993E+02  0.98506786801E+01  0.38052422527E+02  0.40885433751E+02  0.10566000000E+00 0. -1.
         13    1    4    4    0    0 -0.38106649129E+01 -0.40350495162E+01 -0.12644648187E+02  0.13809456307E+02  0.10566000000E+00 0. -1.
        -13    1    4    4    0    0 -0.60257118299E+01 -0.45657317450E+01 -0.18298093591E+02  0.19798649007E+02  0.10566000000E+00 0.  1.
         14    1    4    4    0    0 -0.14146142498E+01 -0.12498974189E+01 -0.62277717395E+01  0.65075738853E+01  0.00000000000E+00 0. -1.
<mgrwt>
<rscale>  0 0.80996312E+02</rscale>
<asrwt>0</asrwt>
<pdfrwt beam="1">  1        1 0.62986940E-02 0.80996312E+02</pdfrwt>
<pdfrwt beam="2">  1       -2 0.61630156E-02 0.80996312E+02</pdfrwt>
<totfact> 0.12308834E+05</totfact>
</mgrwt>
</event>
<event>
 8    1  0.8577104E-018  0.8145844E+02  0.7818608E-02  0.1324963E+00
          1   -1    0    0  501    0  0.00000000000E+00  0.00000000000E+00  0.10682449154E+03  0.10682449165E+03  0.50400000000E-02 0. -1.
         -2   -1    0    0    0  501 -0.00000000000E+00 -0.00000000000E+00 -0.15528924982E+02  0.15528925191E+02  0.25500000000E-02 0.  1.
        -24    2    1    2    0    0  0.00000000000E+00 -0.44408920985E-15  0.91295566554E+02  0.12235341685E+03  0.81458444261E+02 0.  0.
         66    2    3    3    0    0  0.18405817208E+02 -0.33768624163E+01 -0.86205240716E+01  0.20700017312E+02  0.19999936458E+01 0.  0.
         13    1    3    3    0    0 -0.18405817208E+02  0.33768624163E+01  0.99916090625E+02  0.10165339953E+03  0.10566000000E+00 0. -1.
         13    1    4    4    0    0  0.42876196371E+01 -0.15445467641E+00 -0.22225149523E+01  0.48330399489E+01  0.10566000000E+00 0. -1.
        -13    1    4    4    0    0  0.19677061530E+01 -0.48324689574E+00 -0.52152692147E+00  0.20948864963E+01  0.10566000000E+00 0.  1.
        -14    1    4    4    0    0  0.12150491418E+02 -0.27391608442E+01 -0.58764821978E+01  0.13772090867E+02  0.00000000000E+00 0.  1.
<mgrwt>
<rscale>  0 0.81458444E+02</rscale>
<asrwt>0</asrwt>
<pdfrwt beam="1">  1        1 0.16434537E-01 0.81458444E+02</pdfrwt>
<pdfrwt beam="2">  1       -2 0.23890655E-02 0.81458444E+02</pdfrwt>
<totfact> 0.14156694E+05</totfact>
</mgrwt>
</event>
<event>
 8    1  0.8577104E-018  0.8004454E+02  0.7818608E-02  0.1328925E+00
          1   -1    0    0  501    0  0.00000000000E+00  0.00000000000E+00  0.13194291206E+03  0.13194291215E+03  0.50400000000E-02 0. -1.
         -2   -1    0    0    0  501 -0.00000000000E+00 -0.00000000000E+00 -0.12139962435E+02  0.12139962703E+02  0.25500000000E-02 0.  1.
        -24    2    1    2    0    0  0.00000000000E+00  0.00000000000E+00  0.11980294962E+03  0.14408287486E+03  0.80044538156E+02 0.  0.
         66    2    3    3    0    0  0.33089620518E+02  0.38068523789E+01  0.20078606659E+02  0.38943106669E+02  0.20000001430E+01 0.  0.
         13    1    3    3    0    0 -0.33089620518E+02 -0.38068523789E+01  0.99724342963E+02  0.10513976819E+03  0.10566000000E+00 0. -1.
         13    1    4    4    0    0  0.99709642931E+00  0.83700328321E-01  0.37183450867E+00  0.10726751474E+01  0.10566000000E+00 0. -1.
        -13    1    4    4    0    0  0.26027722131E+02  0.35565222775E+01  0.16178571912E+02  0.30852042447E+02  0.10566000000E+00 0.  1.
         14    1    4    4    0    0  0.60648019581E+01  0.16662977304E+00  0.35282002389E+01  0.70183890743E+01  0.00000000000E+00 0. -1.
<mgrwt>
<rscale>  0 0.80044538E+02</rscale>
<asrwt>0</asrwt>
<pdfrwt beam="1">  1        1 0.20298910E-01 0.80044538E+02</pdfrwt>
<pdfrwt beam="2">  1       -2 0.18676865E-02 0.80044538E+02</pdfrwt>
<totfact> 0.15401037E+05</totfact>
</mgrwt>
</event>
<event>
 8    1  0.8577104E-018  0.7936442E+02  0.7818608E-02  0.1330865E+00
         -2   -1    0    0    0  501 -0.00000000000E+00  0.00000000000E+00  0.42871713590E+03  0.42871713591E+03  0.25500000000E-02 0.  1.
          1   -1    0    0  501    0  0.00000000000E+00 -0.00000000000E+00 -0.36729975511E+01  0.36730010090E+01  0.50400000000E-02 0. -1.
        -24    2    1    2    0    0 -0.88817841970E-15  0.71054273576E-14  0.42504413835E+03  0.43239013691E+03  0.79364418715E+02 0.  0.
         66    2    3    3    0    0 -0.59557351755E+01  0.39169601401E+02  0.20330812072E+03  0.20714227092E+03  0.19999995738E+01 0.  0.
         13    1    3    3    0    0  0.59557351755E+01 -0.39169601401E+02  0.22173601763E+03  0.22524786599E+03  0.10566000000E+00 0. -1.
         13    1    4    4    0    0 -0.11665293309E+01  0.90124809309E+01  0.44060996816E+02  0.44988534180E+02  0.10566000000E+00 0. -1.
        -13    1    4    4    0    0 -0.19505838789E+01  0.15829138892E+02  0.81176699213E+02  0.82728677462E+02  0.10566000000E+00 0.  1.
         14    1    4    4    0    0 -0.28386219657E+01  0.14327981578E+02  0.78070424690E+02  0.79425059282E+02  0.00000000000E+00 0. -1.
<mgrwt>
<rscale>  0 0.79364419E+02</rscale>
<asrwt>0</asrwt>
<pdfrwt beam="1">  1        1 0.56507689E-03 0.79364419E+02</pdfrwt>
<pdfrwt beam="2">  1       -2 0.65956474E-01 0.79364419E+02</pdfrwt>
<totfact> 0.57551995E+04</totfact>
</mgrwt>
</event>
<event>
 8    1  0.8577104E-018  0.8141797E+02  0.7818608E-02  0.1325075E+00
         -2   -1    0    0    0  501 -0.00000000000E+00  0.00000000000E+00  0.20276807592E+02  0.20276807753E+02  0.25500000000E-02 0.  1.
          1   -1    0    0  501    0  0.00000000000E+00 -0.00000000000E+00 -0.81729901082E+02  0.81729901237E+02  0.50400000000E-02 0. -1.
        -24    2    1    2    0    0  0.00000000000E+00  0.00000000000E+00 -0.61453093489E+02  0.10200670899E+03  0.81417970863E+02 0.  0.
         66    2    3    3    0    0 -0.28215625991E+02  0.13109511192E+02  0.20993622356E+01  0.31247210500E+02  0.20000021258E+01 0.  0.
         13    1    3    3    0    0  0.28215625991E+02 -0.13109511192E+02 -0.63552455725E+02  0.70759498489E+02  0.10566000000E+00 0. -1.
         13    1    4    4    0    0 -0.92692759868E+00  0.14875739180E+00 -0.44236492619E-01  0.94575072704E+00  0.10566000000E+00 0. -1.
        -13    1    4    4    0    0 -0.95987681828E+01  0.43462247641E+01  0.11574174908E+01  0.10600792405E+02  0.10566000000E+00 0.  1.
         14    1    4    4    0    0 -0.17689930209E+02  0.86145290365E+01  0.98618123735E+00  0.19700667369E+02  0.00000000000E+00 0. -1.
<mgrwt>
<rscale>  0 0.81417971E+02</rscale>
<asrwt>0</asrwt>
<pdfrwt beam="1">  1        1 0.12573831E-01 0.81417971E+02</pdfrwt>
<pdfrwt beam="2">  1       -2 0.31195089E-02 0.81417971E+02</pdfrwt>
<totfact> 0.13553697E+05</totfact>
</mgrwt>
</event>
<event>
 8    1  0.9219872E-018  0.8034647E+02  0.7818608E-02  0.1328071E+00
          1   -1    0    0  501    0  0.00000000000E+00  0.00000000000E+00  0.31456098141E+02  0.31456098545E+02  0.50400000000E-02 0. -1.
         -2   -1    0    0    0  501 -0.00000000000E+00 -0.00000000000E+00 -0.51306067303E+02  0.51306067366E+02  0.25500000000E-02 0.  1.
        -24    2    1    2    0    0  0.00000000000E+00 -0.17763568394E-14 -0.19849969162E+02  0.82762165911E+02  0.80346467443E+02 0.  0.
         66    2    3    3    0    0  0.18996018331E+02 -0.96424563162E+01 -0.44984523731E+02  0.49813984267E+02  0.19999942622E+01 0.  0.
         13    1    3    3    0    0 -0.18996018331E+02  0.96424563162E+01  0.25134554569E+02  0.32948181644E+02  0.10566000000E+00 0. -1.
         13    1    4    4    0    0  0.98572840305E+01 -0.48556904278E+01 -0.22524739557E+02  0.25062299059E+02  0.10566000000E+00 0. -1.
        -13    1    4    4    0    0  0.84455852517E+01 -0.47728682224E+01 -0.21180174629E+02  0.23296333245E+02  0.10566000000E+00 0.  1.
         14    1    4    4    0    0  0.69314904900E+00 -0.13897665998E-01 -0.12796095447E+01  0.14553519630E+01  0.00000000000E+00 0. -1.
<mgrwt>
<rscale>  0 0.80346467E+02</rscale>
<asrwt>0</asrwt>
<pdfrwt beam="1">  1        1 0.48393998E-02 0.80346467E+02</pdfrwt>
<pdfrwt beam="2">  1       -2 0.78932411E-02 0.80346467E+02</pdfrwt>
<totfact> 0.12045772E+05</totfact>
</mgrwt>
</event>
<event>
 8    1  0.8577104E-018  0.8206967E+02  0.7818608E-02  0.1323279E+00
         -2   -1    0    0    0  501 -0.00000000000E+00  0.00000000000E+00  0.23648228867E+02  0.23648229004E+02  0.25500000000E-02 0.  1.
          1   -1    0    0  501    0  0.00000000000E+00 -0.00000000000E+00 -0.71204388113E+02  0.71204388291E+02  0.50400000000E-02 0. -1.
        -24    2    1    2    0    0  0.00000000000E+00 -0.35527136788E-14 -0.47556159247E+02  0.94852617295E+02  0.82069669949E+02 0.  0.
         66    2    3    3    0    0  0.23876250381E+01  0.24097666595E+02  0.14460687404E+02  0.28275603836E+02  0.20000008625E+01 0.  0.
         13    1    3    3    0    0 -0.23876250381E+01 -0.24097666595E+02 -0.62016846650E+02  0.66577013459E+02  0.10566000000E+00 0. -1.
         13    1    4    4    0    0  0.15407160662E+01  0.18655714945E+02  0.11314716931E+02  0.21873351123E+02  0.10566000000E+00 0. -1.
        -13    1    4    4    0    0  0.29622782239E+00  0.10505631695E+01  0.99800295987E+00  0.14827703259E+01  0.10566000000E+00 0.  1.
         14    1    4    4    0    0  0.55068114953E+00  0.43913884813E+01  0.21479675133E+01  0.49194823875E+01  0.00000000000E+00 0. -1.
<mgrwt>
<rscale>  0 0.82069670E+02</rscale>
<asrwt>0</asrwt>
<pdfrwt beam="1">  1        1 0.10954521E-01 0.82069670E+02</pdfrwt>
<pdfrwt beam="2">  1       -2 0.36381891E-02 0.82069670E+02</pdfrwt>
<totfact> 0.12967620E+05</totfact>
</mgrwt>
</event>
<event>
 8    1  0.8577104E-018  0.8122752E+02  0.7818608E-02  0.1325604E+00
         -2   -1    0    0    0  501 -0.00000000000E+00  0.00000000000E+00  0.10343816426E+03  0.10343816429E+03  0.25500000000E-02 0.  1.
          1   -1    0    0  501    0  0.00000000000E+00 -0.00000000000E+00 -0.15946507548E+02  0.15946508344E+02  0.50400000000E-02 0. -1.
        -24    2    1    2    0    0  0.00000000000E+00  0.00000000000E+00  0.87491656712E+02  0.11938467264E+03  0.81227520374E+02 0.  0.
         66    2    3    3    0    0  0.10137371606E+02 -0.11265089557E+02  0.99114100153E+02  0.10028595798E+03  0.19999934113E+01 0.  0.
         13    1    3    3    0    0 -0.10137371606E+02  0.11265089557E+02 -0.11622443441E+02  0.19098714652E+02  0.10566000000E+00 0. -1.
         13    1    4    4    0    0  0.51022873423E+01 -0.49402576939E+01  0.45677050395E+02  0.46226005441E+02  0.10566000000E+00 0. -1.
        -13    1    4    4    0    0  0.23711592265E+01 -0.26405453194E+01  0.19622464214E+02  0.19941091784E+02  0.10566000000E+00 0.  1.
         14    1    4    4    0    0  0.26639250368E+01 -0.36842865438E+01  0.33814585543E+02  0.34118860757E+02  0.00000000000E+00 0. -1.
<mgrwt>
<rscale>  0 0.81227520E+02</rscale>
<asrwt>0</asrwt>
<pdfrwt beam="1">  1        1 0.24533090E-02 0.81227520E+02</pdfrwt>
<pdfrwt beam="2">  1       -2 0.15913563E-01 0.81227520E+02</pdfrwt>
<totfact> 0.10120508E+05</totfact>
</mgrwt>
</event>
<event>
 8    1  0.8577104E-018  0.8048637E+02  0.7818608E-02  0.1327677E+00
         -2   -1    0    0    0  501 -0.00000000000E+00  0.00000000000E+00  0.28091389390E+02  0.28091389506E+02  0.25500000000E-02 0.  1.
          1   -1    0    0  501    0  0.00000000000E+00 -0.00000000000E+00 -0.57651610277E+02  0.57651610497E+02  0.50400000000E-02 0. -1.
        -24    2    1    2    0    0  0.00000000000E+00  0.35527136788E-14 -0.29560220887E+02  0.85743000003E+02  0.80486367732E+02 0.  0.
         66    2    3    3    0    0  0.11084461156E+01  0.27174063233E+02  0.16774396061E+02  0.32016225886E+02  0.19999978485E+01 0.  0.
         13    1    3    3    0    0 -0.11084461156E+01 -0.27174063233E+02 -0.46334616947E+02  0.53726774117E+02  0.10566000000E+00 0. -1.
         13    1    4    4    0    0  0.72632270961E+00  0.14875486548E+02  0.88451051859E+01  0.17322086898E+02  0.10566000000E+00 0. -1.
        -13    1    4    4    0    0  0.69375897675E+00  0.88847488897E+01  0.52545745619E+01  0.10346099855E+02  0.10566000000E+00 0.  1.
         14    1    4    4    0    0 -0.31163557077E+00  0.34138277950E+01  0.26747163128E+01  0.43480391324E+01  0.00000000000E+00 0. -1.
<mgrwt>
<rscale>  0 0.80486368E+02</rscale>
<asrwt>0</asrwt>
<pdfrwt beam="1">  1        1 0.88694785E-02 0.80486368E+02</pdfrwt>
<pdfrwt beam="2">  1       -2 0.43217522E-02 0.80486368E+02</pdfrwt>
<totfact> 0.13230661E+05</totfact>
</mgrwt>
</event>
<event>
 8    1  0.8577104E-018  0.8413125E+02  0.7818608E-02  0.1317720E+00
         -2   -1    0    0    0  501 -0.00000000000E+00  0.00000000000E+00  0.15872223130E+02  0.15872223335E+02  0.25500000000E-02 0.  1.
          1   -1    0    0  501    0  0.00000000000E+00 -0.00000000000E+00 -0.11148511259E+03  0.11148511271E+03  0.50400000000E-02 0. -1.
        -24    2    1    2    0    0  0.00000000000E+00 -0.35527136788E-14 -0.95612889462E+02  0.12735733604E+03  0.84131245161E+02 0.  0.
         66    2    3    3    0    0 -0.74977897780E+01  0.25567266583E+02  0.13965581210E+01  0.26755417290E+02  0.20000019291E+01 0.  0.
         13    1    3    3    0    0  0.74977897780E+01 -0.25567266583E+02 -0.97009447583E+02  0.10060191875E+03  0.10566000000E+00 0. -1.
         13    1    4    4    0    0 -0.19100055807E+01  0.95668341697E+01  0.18257658585E+00  0.97579165601E+01  0.10566000000E+00 0. -1.
        -13    1    4    4    0    0 -0.42918044458E+01  0.12746142677E+02  0.10553767613E+01  0.13491060843E+02  0.10566000000E+00 0.  1.
         14    1    4    4    0    0 -0.12959797516E+01  0.32542897362E+01  0.15860477384E+00  0.35064398866E+01  0.00000000000E+00 0. -1.
<mgrwt>
<rscale>  0 0.84131245E+02</rscale>
<asrwt>0</asrwt>
<pdfrwt beam="1">  1        1 0.17151555E-01 0.84131245E+02</pdfrwt>
<pdfrwt beam="2">  1       -2 0.24418806E-02 0.84131245E+02</pdfrwt>
<totfact> 0.13068758E+05</totfact>
</mgrwt>
</event>
<event>
 8    1  0.8577104E-018  0.7915318E+02  0.7818608E-02  0.1331472E+00
          1   -1    0    0  501    0  0.00000000000E+00  0.00000000000E+00  0.10850789911E+03  0.10850789922E+03  0.50400000000E-02 0. -1.
         -2   -1    0    0    0  501 -0.00000000000E+00 -0.00000000000E+00 -0.14434955097E+02  0.14434955322E+02  0.25500000000E-02 0.  1.
        -24    2    1    2    0    0  0.00000000000E+00  0.00000000000E+00  0.94072944010E+02  0.12294285455E+03  0.79153184960E+02 0.  0.
         66    2    3    3    0    0  0.73069016827E+01 -0.33294591836E+02  0.15909559602E+02  0.37670077625E+02  0.20000009476E+01 0.  0.
         13    1    3    3    0    0 -0.73069016827E+01  0.33294591836E+02  0.78163384408E+02  0.85272776921E+02  0.10566000000E+00 0. -1.
         13    1    4    4    0    0  0.20000600727E+01 -0.64589278102E+01  0.33360674061E+01  0.75404574480E+01  0.10566000000E+00 0. -1.
        -13    1    4    4    0    0  0.12634498737E+00 -0.19768288877E+01  0.10478689162E+01  0.22434368295E+01  0.10566000000E+00 0.  1.
         14    1    4    4    0    0  0.51804966226E+01 -0.24858835138E+02  0.11525623279E+02  0.27886183347E+02  0.00000000000E+00 0. -1.
<mgrwt>
<rscale>  0 0.79153185E+02</rscale>
<asrwt>0</asrwt>
<pdfrwt beam="1">  1        1 0.16693524E-01 0.79153185E+02</pdfrwt>
<pdfrwt beam="2">  1       -2 0.22207623E-02 0.79153185E+02</pdfrwt>
<totfact> 0.15337680E+05</totfact>
</mgrwt>
</event>
<event>
 8    1  0.8577104E-018  0.7941728E+02  0.7818608E-02  0.1330713E+00
         -2   -1    0    0    0  501 -0.00000000000E+00  0.00000000000E+00  0.71932381890E+01  0.71932386410E+01  0.25500000000E-02 0.  1.
          1   -1    0    0  501    0  0.00000000000E+00 -0.00000000000E+00 -0.21920254583E+03  0.21920254589E+03  0.50400000000E-02 0. -1.
        -24    2    1    2    0    0  0.00000000000E+00  0.00000000000E+00 -0.21200930764E+03  0.22639578453E+03  0.79417282289E+02 0.  0.
         66    2    3    3    0    0  0.32666040127E+02  0.21632661673E+02 -0.88103390464E+02  0.96442986545E+02  0.20000034207E+01 0.  0.
         13    1    3    3    0    0 -0.32666040127E+02 -0.21632661673E+02 -0.12390591718E+03  0.12995279799E+03  0.10566000000E+00 0. -1.
         13    1    4    4    0    0  0.21797633955E+01  0.19676130422E+01 -0.71157055359E+01  0.76985257584E+01  0.10566000000E+00 0. -1.
        -13    1    4    4    0    0  0.27986366334E+02  0.18246002374E+02 -0.74746973950E+02  0.81873527968E+02  0.10566000000E+00 0.  1.
        -14    1    4    4    0    0  0.24999103968E+01  0.14190462571E+01 -0.62407109784E+01  0.68709328179E+01  0.00000000000E+00 0.  1.
<mgrwt>
<rscale>  0 0.79417282E+02</rscale>
<asrwt>0</asrwt>
<pdfrwt beam="1">  1        1 0.33723464E-01 0.79417282E+02</pdfrwt>
<pdfrwt beam="2">  1       -2 0.11066522E-02 0.79417282E+02</pdfrwt>
<totfact> 0.17306171E+05</totfact>
</mgrwt>
</event>
<event>
 8    1  0.8577104E-018  0.7817818E+02  0.7818608E-02  0.1334302E+00
          1   -1    0    0  501    0  0.00000000000E+00  0.00000000000E+00  0.87621239892E+01  0.87621254387E+01  0.50400000000E-02 0. -1.
         -2   -1    0    0    0  501 -0.00000000000E+00 -0.00000000000E+00 -0.17438201054E+03  0.17438201056E+03  0.25500000000E-02 0.  1.
        -24    2    1    2    0    0  0.35527136788E-14  0.00000000000E+00 -0.16561988655E+03  0.18314413600E+03  0.78178179367E+02 0.  0.
         66    2    3    3    0    0  0.30049567437E+02 -0.94942813816E+01 -0.13693985403E+03  0.14053341773E+03  0.19999985459E+01 0.  0.
         13    1    3    3    0    0 -0.30049567437E+02  0.94942813816E+01 -0.28680032521E+02  0.42610718270E+02  0.10566000000E+00 0. -1.
         13    1    4    4    0    0  0.19845631607E+01 -0.79909284711E+00 -0.10550397590E+02  0.10765644136E+02  0.10566000000E+00 0. -1.
        -13    1    4    4    0    0  0.22576659203E+02 -0.74542122453E+01 -0.10378174017E+03  0.10647033191E+03  0.10566000000E+00 0.  1.
        -14    1    4    4    0    0  0.54883450728E+01 -0.12409762893E+01 -0.22607716272E+02  0.23297441679E+02  0.00000000000E+00 0.  1.
<mgrwt>
<rscale>  0 0.78178179E+02</rscale>
<asrwt>0</asrwt>
<pdfrwt beam="1">  1        1 0.13480193E-02 0.78178179E+02</pdfrwt>
<pdfrwt beam="2">  1       -2 0.26827999E-01 0.78178179E+02</pdfrwt>
<totfact> 0.95180825E+04</totfact>
</mgrwt>
</event>
<event>
 8    1  0.8577104E-018  0.8155959E+02  0.7818608E-02  0.1324683E+00
         -2   -1    0    0    0  501 -0.00000000000E+00  0.00000000000E+00  0.28575855968E+02  0.28575856082E+02  0.25500000000E-02 0.  1.
          1   -1    0    0  501    0  0.00000000000E+00 -0.00000000000E+00 -0.58195693887E+02  0.58195694106E+02  0.50400000000E-02 0. -1.
        -24    2    1    2    0    0  0.00000000000E+00  0.00000000000E+00 -0.29619837919E+02  0.86771550188E+02  0.81559592468E+02 0.  0.
         66    2    3    3    0    0 -0.13421744861E+02 -0.36021284972E+02 -0.29223230066E+02  0.48328804865E+02  0.19999994971E+01 0.  0.
         13    1    3    3    0    0  0.13421744861E+02  0.36021284972E+02 -0.39660785306E+00  0.38442745323E+02  0.10566000000E+00 0. -1.
         13    1    4    4    0    0 -0.29825322341E+01 -0.10216845885E+02 -0.78771116328E+01  0.13241581857E+02  0.10566000000E+00 0. -1.
        -13    1    4    4    0    0 -0.70641646221E+01 -0.18350950102E+02 -0.14934951040E+02  0.24692584273E+02  0.10566000000E+00 0.  1.
         14    1    4    4    0    0 -0.33750480051E+01 -0.74534889847E+01 -0.64111673930E+01  0.10394638735E+02  0.00000000000E+00 0. -1.
<mgrwt>
<rscale>  0 0.81559592E+02</rscale>
<asrwt>0</asrwt>
<pdfrwt beam="1">  1        1 0.89531837E-02 0.81559592E+02</pdfrwt>
<pdfrwt beam="2">  1       -2 0.43962856E-02 0.81559592E+02</pdfrwt>
<totfact> 0.12773479E+05</totfact>
</mgrwt>
</event>
<event>
 8    1  0.8577104E-018  0.7578869E+02  0.7818608E-02  0.1341446E+00
          1   -1    0    0  501    0  0.00000000000E+00  0.00000000000E+00  0.63544018866E+01  0.63544038853E+01  0.50400000000E-02 0. -1.
         -2   -1    0    0    0  501 -0.00000000000E+00 -0.00000000000E+00 -0.22598212918E+03  0.22598212919E+03  0.25500000000E-02 0.  1.
        -24    2    1    2    0    0  0.00000000000E+00  0.00000000000E+00 -0.21962772729E+03  0.23233653308E+03  0.75788693136E+02 0.  0.
         66    2    3    3    0    0  0.35157205434E+02 -0.30069802234E+01 -0.67755849302E+02  0.76419409220E+02  0.19999917363E+01 0.  0.
         13    1    3    3    0    0 -0.35157205434E+02  0.30069802234E+01 -0.15187187799E+03  0.15591712385E+03  0.10566000000E+00 0. -1.
         13    1    4    4    0    0  0.97660355187E+01 -0.50571138567E+00 -0.20327280999E+02  0.22557497880E+02  0.10566000000E+00 0. -1.
        -13    1    4    4    0    0  0.18845680197E+02 -0.21484514265E+01 -0.35667458304E+02  0.40397453528E+02  0.10566000000E+00 0.  1.
         14    1    4    4    0    0  0.65454897177E+01 -0.35281741122E+00 -0.11761109999E+02  0.13464457813E+02  0.00000000000E+00 0. -1.
<mgrwt>
<rscale>  0 0.75788693E+02</rscale>
<asrwt>0</asrwt>
<pdfrwt beam="1">  1        1 0.97760062E-03 0.75788693E+02</pdfrwt>
<pdfrwt beam="2">  1       -2 0.34766475E-01 0.75788693E+02</pdfrwt>
<totfact> 0.92859038E+04</totfact>
</mgrwt>
</event>
<event>
 8    1  0.8577104E-018  0.7938321E+02  0.7818608E-02  0.1330811E+00
         -2   -1    0    0    0  501 -0.00000000000E+00  0.00000000000E+00  0.11451398618E+02  0.11451398901E+02  0.25500000000E-02 0.  1.
          1   -1    0    0  501    0  0.00000000000E+00 -0.00000000000E+00 -0.13757477922E+03  0.13757477931E+03  0.50400000000E-02 0. -1.
        -24    2    1    2    0    0  0.35527136788E-14  0.00000000000E+00 -0.12612338060E+03  0.14902617821E+03  0.79383213959E+02 0.  0.
         66    2    3    3    0    0 -0.31778533433E+02 -0.23726568896E+02 -0.61655408256E+02  0.73336311777E+02  0.19999997702E+01 0.  0.
         13    1    3    3    0    0  0.31778533433E+02  0.23726568896E+02 -0.64467972346E+02  0.75689866437E+02  0.10566000000E+00 0. -1.
         13    1    4    4    0    0 -0.10403026049E+02 -0.75080762930E+01 -0.20921378607E+02  0.24541992736E+02  0.10566000000E+00 0. -1.
        -13    1    4    4    0    0 -0.49403068411E+00 -0.34874216247E+00 -0.66789263111E+00  0.90715600368E+00  0.10566000000E+00 0.  1.
        -14    1    4    4    0    0 -0.20881476700E+02 -0.15869750440E+02 -0.40066137018E+02  0.47887163037E+02  0.00000000000E+00 0.  1.
<mgrwt>
<rscale>  0 0.79383214E+02</rscale>
<asrwt>0</asrwt>
<pdfrwt beam="1">  1        1 0.21165350E-01 0.79383214E+02</pdfrwt>
<pdfrwt beam="2">  1       -2 0.17617537E-02 0.79383214E+02</pdfrwt>
<totfact> 0.15866046E+05</totfact>
</mgrwt>
</event>
<event>
 8    1  0.8577104E-018  0.7958842E+02  0.7818608E-02  0.1330224E+00
         -2   -1    0    0    0  501 -0.00000000000E+00  0.00000000000E+00  0.24371211154E+03  0.24371211155E+03  0.25500000000E-02 0.  1.
          1   -1    0    0  501    0  0.00000000000E+00 -0.00000000000E+00 -0.64977436539E+01  0.64977456085E+01  0.50400000000E-02 0. -1.
        -24    2    1    2    0    0  0.00000000000E+00  0.88817841970E-15  0.23721436789E+03  0.25020985716E+03  0.79588418060E+02 0.  0.
         66    2    3    3    0    0 -0.36956903387E+02 -0.71657410304E+01  0.15899285398E+03  0.16340100419E+03  0.20000002581E+01 0.  0.
         13    1    3    3    0    0  0.36956903387E+02  0.71657410304E+01  0.78221513904E+02  0.86808852970E+02  0.10566000000E+00 0. -1.
         13    1    4    4    0    0 -0.10580203180E+01 -0.50616423194E+00  0.45974752801E+01  0.47458984618E+01  0.10566000000E+00 0. -1.
        -13    1    4    4    0    0 -0.10484025187E+02 -0.16560811153E+01  0.44842816581E+02  0.46081956900E+02  0.10566000000E+00 0.  1.
         14    1    4    4    0    0 -0.25414857883E+02 -0.50034956832E+01  0.10955256212E+03  0.11257314883E+03  0.00000000000E+00 0. -1.
<mgrwt>
<rscale>  0 0.79588418E+02</rscale>
<asrwt>0</asrwt>
<pdfrwt beam="1">  1        1 0.99965310E-03 0.79588418E+02</pdfrwt>
<pdfrwt beam="2">  1       -2 0.37494168E-01 0.79588418E+02</pdfrwt>
<totfact> 0.79095075E+04</totfact>
</mgrwt>
</event>
<event>
 8    1  0.8577104E-018  0.7924997E+02  0.7818608E-02  0.1331193E+00
          1   -1    0    0  501    0  0.00000000000E+00  0.00000000000E+00  0.58627579457E+03  0.58627579459E+03  0.50400000000E-02 0. -1.
         -2   -1    0    0    0  501 -0.00000000000E+00 -0.00000000000E+00 -0.26781579359E+01  0.26781591499E+01  0.25500000000E-02 0.  1.
        -24    2    1    2    0    0 -0.35527136788E-14 -0.35527136788E-14  0.58359763663E+03  0.58895395374E+03  0.79249972510E+02 0.  0.
         66    2    3    3    0    0 -0.30365249696E+02 -0.22664759052E+02  0.37749432794E+03  0.37939650408E+03  0.19999963961E+01 0.  0.
         13    1    3    3    0    0  0.30365249696E+02  0.22664759052E+02  0.20610330869E+03  0.20955744967E+03  0.10566000000E+00 0. -1.
         13    1    4    4    0    0 -0.59158312218E+01 -0.48189018409E+01  0.73963381648E+02  0.74355980679E+02  0.10566000000E+00 0. -1.
        -13    1    4    4    0    0 -0.22818841708E+02 -0.16731929655E+02  0.27955514523E+03  0.28098353580E+03  0.10566000000E+00 0.  1.
        -14    1    4    4    0    0 -0.16305767667E+01 -0.11139275555E+01  0.23975801067E+02  0.24056987592E+02  0.00000000000E+00 0.  1.
<mgrwt>
<rscale>  0 0.79249973E+02</rscale>
<asrwt>0</asrwt>
<pdfrwt beam="1">  1        1 0.90196333E-01 0.79249973E+02</pdfrwt>
<pdfrwt beam="2">  1       -2 0.41202413E-03 0.79249973E+02</pdfrwt>
<totfact> 0.20402669E+05</totfact>
</mgrwt>
</event>
<event>
 8    1  0.8577104E-018  0.8132887E+02  0.7818608E-02  0.1325322E+00
          1   -1    0    0  501    0  0.00000000000E+00  0.00000000000E+00  0.12906889569E+03  0.12906889579E+03  0.50400000000E-02 0. -1.
         -2   -1    0    0    0  501 -0.00000000000E+00 -0.00000000000E+00 -0.12811731997E+02  0.12811732251E+02  0.25500000000E-02 0.  1.
        -24    2    1    2    0    0  0.00000000000E+00  0.71054273576E-14  0.11625716369E+03  0.14188062804E+03  0.81328866358E+02 0.  0.
         66    2    3    3    0    0  0.12382751113E+02  0.38216306110E+02  0.47441862865E+02  0.62197660161E+02  0.19999999063E+01 0.  0.
         13    1    3    3    0    0 -0.12382751113E+02 -0.38216306110E+02  0.68815300828E+02  0.79682967879E+02  0.10566000000E+00 0. -1.
         13    1    4    4    0    0  0.66706600948E+01  0.19692378013E+02  0.25535850710E+02  0.32929899687E+02  0.10566000000E+00 0. -1.
        -13    1    4    4    0    0  0.14577728847E+01  0.39640549245E+01  0.52711341725E+01  0.67553573353E+01  0.10566000000E+00 0.  1.
         14    1    4    4    0    0  0.42543181331E+01  0.14559873173E+02  0.16634877983E+02  0.22512403139E+02  0.00000000000E+00 0. -1.
<mgrwt>
<rscale>  0 0.81328866E+02</rscale>
<asrwt>0</asrwt>
<pdfrwt beam="1">  1        1 0.19856752E-01 0.81328866E+02</pdfrwt>
<pdfrwt beam="2">  1       -2 0.19710358E-02 0.81328866E+02</pdfrwt>
<totfact> 0.14698565E+05</totfact>
</mgrwt>
</event>
<event>
 8    1  0.8577104E-018  0.7661827E+02  0.7818608E-02  0.1338932E+00
          1   -1    0    0  501    0  0.00000000000E+00  0.00000000000E+00  0.10828617993E+03  0.10828618004E+03  0.50400000000E-02 0. -1.
         -2   -1    0    0    0  501 -0.00000000000E+00 -0.00000000000E+00 -0.13552882642E+02  0.13552882882E+02  0.25500000000E-02 0.  1.
        -24    2    1    2    0    0  0.00000000000E+00  0.35527136788E-14  0.94733297286E+02  0.12183906293E+03  0.76618272235E+02 0.  0.
         66    2    3    3    0    0 -0.31874343740E+02  0.21166984213E+02  0.49391357608E+02  0.62510168893E+02  0.19999997813E+01 0.  0.
         13    1    3    3    0    0  0.31874343740E+02 -0.21166984213E+02  0.45341939678E+02  0.59328894034E+02  0.10566000000E+00 0. -1.
         13    1    4    4    0    0 -0.83014063436E+01  0.52151191299E+01  0.13105371867E+02  0.16366818586E+02  0.10566000000E+00 0. -1.
        -13    1    4    4    0    0 -0.20966076478E+02  0.13634848952E+02  0.32181578947E+02  0.40757216004E+02  0.10566000000E+00 0.  1.
         14    1    4    4    0    0 -0.26068609181E+01  0.23170161305E+01  0.41044067937E+01  0.53861343024E+01  0.00000000000E+00 0. -1.
<mgrwt>
<rscale>  0 0.76618272E+02</rscale>
<asrwt>0</asrwt>
<pdfrwt beam="1">  1        1 0.16659412E-01 0.76618272E+02</pdfrwt>
<pdfrwt beam="2">  1       -2 0.20850589E-02 0.76618272E+02</pdfrwt>
<totfact> 0.16733528E+05</totfact>
</mgrwt>
</event>
<event>
 8    1  0.8577104E-018  0.7964458E+02  0.7818608E-02  0.1330063E+00
         -2   -1    0    0    0  501 -0.00000000000E+00  0.00000000000E+00  0.20540833731E+03  0.20540833733E+03  0.25500000000E-02 0.  1.
          1   -1    0    0  501    0  0.00000000000E+00 -0.00000000000E+00 -0.77203021314E+01  0.77203037765E+01  0.50400000000E-02 0. -1.
        -24    2    1    2    0    0  0.00000000000E+00  0.00000000000E+00  0.19768803518E+03  0.21312864111E+03  0.79644575493E+02 0.  0.
         66    2    3    3    0    0  0.31560532804E+02  0.22530408800E+02  0.12285942512E+03  0.12884923318E+03  0.20000000544E+01 0.  0.
         13    1    3    3    0    0 -0.31560532804E+02 -0.22530408800E+02  0.74828610068E+02  0.84279407925E+02  0.10566000000E+00 0. -1.
         13    1    4    4    0    0  0.19775472493E+01  0.15302852525E+01  0.79072263053E+01  0.82938445823E+01  0.10566000000E+00 0.  1.
        -13    1    4    4    0    0  0.60872662818E+01  0.48080646219E+01  0.26761182854E+02  0.27862956914E+02  0.10566000000E+00 0.  1.
         14    1    4    4    0    0  0.23495719273E+02  0.16192058925E+02  0.88191015955E+02  0.92692431685E+02  0.00000000000E+00 0. -1.
<mgrwt>
<rscale>  0 0.79644575E+02</rscale>
<asrwt>0</asrwt>
<pdfrwt beam="1">  1        1 0.11877391E-02 0.79644575E+02</pdfrwt>
<pdfrwt beam="2">  1       -2 0.31601279E-01 0.79644575E+02</pdfrwt>
<totfact> 0.85123512E+04</totfact>
</mgrwt>
</event>
<event>
 8    1  0.8577104E-018  0.7743180E+02  0.7818608E-02  0.1336502E+00
          1   -1    0    0  501    0  0.00000000000E+00  0.00000000000E+00  0.16046525433E+03  0.16046525441E+03  0.50400000000E-02 0. -1.
         -2   -1    0    0    0  501 -0.00000000000E+00 -0.00000000000E+00 -0.93410935316E+01  0.93410938796E+01  0.25500000000E-02 0.  1.
        -24    2    1    2    0    0  0.00000000000E+00  0.00000000000E+00  0.15112416080E+03  0.16980634829E+03  0.77431801878E+02 0.  0.
         66    2    3    3    0    0  0.30241165879E+02  0.23902101478E+02  0.68313484520E+02  0.78463818006E+02  0.19999999872E+01 0.  0.
         13    1    3    3    0    0 -0.30241165879E+02 -0.23902101478E+02  0.82810676278E+02  0.91342530283E+02  0.10566000000E+00 0. -1.
         13    1    4    4    0    0  0.16494886725E+02  0.12864795652E+02  0.38155526204E+02  0.43513671405E+02  0.10566000000E+00 0. -1.
        -13    1    4    4    0    0  0.12047412545E+02  0.10056721969E+02  0.26451584652E+02  0.30756711470E+02  0.10566000000E+00 0.  1.
        -14    1    4    4    0    0  0.16988666098E+01  0.98058385743E+00  0.37063736647E+01  0.41934351315E+01  0.00000000000E+00 0.  1.
<mgrwt>
<rscale>  0 0.77431802E+02</rscale>
<asrwt>0</asrwt>
<pdfrwt beam="1">  1        1 0.24686962E-01 0.77431802E+02</pdfrwt>
<pdfrwt beam="2">  1       -2 0.14370914E-02 0.77431802E+02</pdfrwt>
<totfact> 0.17438662E+05</totfact>
</mgrwt>
</event>
<event>
 8    1  0.8577104E-018  0.7916102E+02  0.7818608E-02  0.1331449E+00
          1   -1    0    0  501    0  0.00000000000E+00  0.00000000000E+00  0.36908349142E+02  0.36908349487E+02  0.50400000000E-02 0. -1.
         -2   -1    0    0    0  501 -0.00000000000E+00 -0.00000000000E+00 -0.42446138118E+02  0.42446138195E+02  0.25500000000E-02 0.  1.
        -24    2    1    2    0    0  0.44408920985E-15  0.00000000000E+00 -0.55377889755E+01  0.79354487681E+02  0.79161023290E+02 0.  0.
         66    2    3    3    0    0 -0.24311925629E+01  0.17066838625E+02 -0.38458566027E+02  0.42192996812E+02  0.20000002905E+01 0.  0.
         13    1    3    3    0    0  0.24311925629E+01 -0.17066838625E+02  0.32920777051E+02  0.37161490869E+02  0.10566000000E+00 0. -1.
         13    1    4    4    0    0 -0.26967178812E+00  0.14661579808E+01 -0.24021611541E+01  0.28291137029E+01  0.10566000000E+00 0. -1.
        -13    1    4    4    0    0 -0.85368885860E+00  0.44196526718E+01 -0.91649677306E+01  0.10211263974E+02  0.10566000000E+00 0.  1.
         14    1    4    4    0    0 -0.13078319161E+01  0.11181027973E+02 -0.26891437142E+02  0.29152619135E+02  0.00000000000E+00 0. -1.
<mgrwt>
<rscale>  0 0.79161023E+02</rscale>
<asrwt>0</asrwt>
<pdfrwt beam="1">  1        1 0.56782076E-02 0.79161023E+02</pdfrwt>
<pdfrwt beam="2">  1       -2 0.65301751E-02 0.79161023E+02</pdfrwt>
<totfact> 0.12910474E+05</totfact>
</mgrwt>
</event>
<event>
 8    1  0.8577104E-018  0.8123694E+02  0.7818608E-02  0.1325577E+00
         -2   -1    0    0    0  501 -0.00000000000E+00  0.00000000000E+00  0.46299853297E+02  0.46299853367E+02  0.25500000000E-02 0.  1.
          1   -1    0    0  501    0  0.00000000000E+00 -0.00000000000E+00 -0.35634237965E+02  0.35634238322E+02  0.50400000000E-02 0. -1.
        -24    2    1    2    0    0  0.35527136788E-14  0.00000000000E+00  0.10665615332E+02  0.81934091689E+02  0.81236937599E+02 0.  0.
         66    2    3    3    0    0  0.30608747415E+02 -0.55084178595E+00  0.32222939459E+02  0.44491759596E+02  0.19999999149E+01 0.  0.
         13    1    3    3    0    0 -0.30608747415E+02  0.55084178595E+00 -0.21557324127E+02  0.37442332092E+02  0.10566000000E+00 0. -1.
         13    1    4    4    0    0  0.15654275118E+02  0.92979159242E-01  0.16775603991E+02  0.22945523046E+02  0.10566000000E+00 0.  1.
        -13    1    4    4    0    0  0.10824195459E+02 -0.31389172436E+00  0.10380246432E+02  0.15000747161E+02  0.10566000000E+00 0. -1.
        -14    1    4    4    0    0  0.41302768376E+01 -0.32992922083E+00  0.50670890360E+01  0.65454893893E+01  0.00000000000E+00 0.  1.
<mgrwt>
<rscale>  0 0.81236938E+02</rscale>
<asrwt>0</asrwt>
<pdfrwt beam="1">  1        1 0.54821905E-02 0.81236938E+02</pdfrwt>
<pdfrwt beam="2">  1       -2 0.71230543E-02 0.81236938E+02</pdfrwt>
<totfact> 0.11926172E+05</totfact>
</mgrwt>
</event>
<event>
 8    1  0.8577104E-018  0.7903604E+02  0.7818608E-02  0.1331809E+00
          1   -1    0    0  501    0  0.00000000000E+00  0.00000000000E+00  0.45215123256E+02  0.45215123537E+02  0.50400000000E-02 0. -1.
         -2   -1    0    0    0  501 -0.00000000000E+00 -0.00000000000E+00 -0.34538754312E+02  0.34538754407E+02  0.25500000000E-02 0.  1.
        -24    2    1    2    0    0  0.00000000000E+00  0.00000000000E+00  0.10676368944E+02  0.79753877944E+02  0.79036043633E+02 0.  0.
         66    2    3    3    0    0  0.17027344736E+02  0.16730333524E+02 -0.26405789481E+02  0.35652492863E+02  0.20000001615E+01 0.  0.
         13    1    3    3    0    0 -0.17027344736E+02 -0.16730333524E+02  0.37082158424E+02  0.44101385081E+02  0.10566000000E+00 0. -1.
         13    1    4    4    0    0  0.31300213557E+01  0.32532373968E+01 -0.40795773684E+01  0.60856144133E+01  0.10566000000E+00 0. -1.
        -13    1    4    4    0    0  0.46679608952E+01  0.42934408467E+01 -0.66771526549E+01  0.92097244712E+01  0.10566000000E+00 0.  1.
         14    1    4    4    0    0  0.92293624854E+01  0.91836552806E+01 -0.15649059457E+02  0.20357153978E+02  0.00000000000E+00 0. -1.
<mgrwt>
<rscale>  0 0.79036044E+02</rscale>
<asrwt>0</asrwt>
<pdfrwt beam="1">  1        1 0.69561729E-02 0.79036044E+02</pdfrwt>
<pdfrwt beam="2">  1       -2 0.53136545E-02 0.79036044E+02</pdfrwt>
<totfact> 0.13395780E+05</totfact>
</mgrwt>
</event>
<event>
 8    1  0.8577104E-018  0.7974958E+02  0.7818608E-02  0.1329764E+00
         -2   -1    0    0    0  501 -0.00000000000E+00  0.00000000000E+00  0.64265969287E+02  0.64265969338E+02  0.25500000000E-02 0.  1.
          1   -1    0    0  501    0  0.00000000000E+00 -0.00000000000E+00 -0.24740912020E+02  0.24740912534E+02  0.50400000000E-02 0. -1.
        -24    2    1    2    0    0  0.00000000000E+00  0.00000000000E+00  0.39525057267E+02  0.89006881872E+02  0.79749575977E+02 0.  0.
         66    2    3    3    0    0 -0.17767180826E+02 -0.12998757249E+02  0.56847477863E+02  0.60994066521E+02  0.20000017138E+01 0.  0.
         13    1    3    3    0    0  0.17767180826E+02  0.12998757249E+02 -0.17322420596E+02  0.28012815351E+02  0.10566000000E+00 0. -1.
         13    1    4    4    0    0 -0.42877262520E-01 -0.74316441799E-01  0.23892526222E+00  0.27497401639E+00  0.10566000000E+00 0.  1.
        -13    1    4    4    0    0 -0.66339490400E+01 -0.52826457604E+01  0.22844264141E+02  0.24367749061E+02  0.10566000000E+00 0.  1.
        -14    1    4    4    0    0 -0.11090354523E+02 -0.76417950468E+01  0.33764288459E+02  0.36351343444E+02  0.00000000000E+00 0.  1.
<mgrwt>
<rscale>  0 0.79749576E+02</rscale>
<asrwt>0</asrwt>
<pdfrwt beam="1">  1        1 0.38062942E-02 0.79749576E+02</pdfrwt>
<pdfrwt beam="2">  1       -2 0.98870723E-02 0.79749576E+02</pdfrwt>
<totfact> 0.11779080E+05</totfact>
</mgrwt>
</event>
<event>
 8    1  0.8577104E-018  0.7984429E+02  0.7818608E-02  0.1329494E+00
         -2   -1    0    0    0  501 -0.00000000000E+00  0.00000000000E+00  0.10888765614E+03  0.10888765617E+03  0.25500000000E-02 0.  1.
          1   -1    0    0  501    0  0.00000000000E+00 -0.00000000000E+00 -0.14636897946E+02  0.14636898813E+02  0.50400000000E-02 0. -1.
        -24    2    1    2    0    0  0.00000000000E+00  0.00000000000E+00  0.94250758190E+02  0.12352455498E+03  0.79844287606E+02 0.  0.
         66    2    3    3    0    0 -0.22884504024E+02  0.12990672262E+02  0.93549231490E+02  0.97200395087E+02  0.20000006203E+01 0.  0.
         13    1    3    3    0    0  0.22884504024E+02 -0.12990672262E+02  0.70152669935E+00  0.26324159891E+02  0.10566000000E+00 0. -1.
         13    1    4    4    0    0 -0.10440462106E+02  0.62889383908E+01  0.42688331493E+02  0.44394355551E+02  0.10566000000E+00 0. -1.
        -13    1    4    4    0    0 -0.76229708927E+01  0.33445257792E+01  0.29999543273E+02  0.31133250690E+02  0.10566000000E+00 0.  1.
         14    1    4    4    0    0 -0.48210710248E+01  0.33572080923E+01  0.20861356724E+02  0.21672788846E+02  0.00000000000E+00 0. -1.
<mgrwt>
<rscale>  0 0.79844288E+02</rscale>
<asrwt>0</asrwt>
<pdfrwt beam="1">  1        1 0.22518306E-02 0.79844288E+02</pdfrwt>
<pdfrwt beam="2">  1       -2 0.16751946E-01 0.79844288E+02</pdfrwt>
<totfact> 0.10436579E+05</totfact>
</mgrwt>
</event>
<event>
 8    1  0.8577104E-018  0.7934334E+02  0.7818608E-02  0.1330925E+00
          1   -1    0    0  501    0  0.00000000000E+00  0.00000000000E+00  0.36445042207E+01  0.36445077056E+01  0.50400000000E-02 0. -1.
         -2   -1    0    0    0  501 -0.00000000000E+00 -0.00000000000E+00 -0.43183946295E+03  0.43183946296E+03  0.25500000000E-02 0.  1.
        -24    2    1    2    0    0  0.35527136788E-14  0.00000000000E+00 -0.42819495873E+03  0.43548397067E+03  0.79343342654E+02 0.  0.
         66    2    3    3    0    0 -0.23785769404E+02 -0.41961948063E+01 -0.38679406690E+03  0.38755260426E+03  0.20000007173E+01 0.  0.
         13    1    3    3    0    0  0.23785769404E+02  0.41961948063E+01 -0.41400891832E+02  0.47931366406E+02  0.10566000000E+00 0. -1.
         13    1    4    4    0    0 -0.48311487752E+01 -0.63218475798E+00 -0.72036983612E+02  0.72201646989E+02  0.10566000000E+00 0. -1.
        -13    1    4    4    0    0 -0.42442952771E+01 -0.22600362067E+00 -0.73148810436E+02  0.73272264550E+02  0.10566000000E+00 0.  1.
        -14    1    4    4    0    0 -0.14710325352E+02 -0.33380064277E+01 -0.24160827285E+03  0.24207869272E+03  0.00000000000E+00 0.  1.
<mgrwt>
<rscale>  0 0.79343343E+02</rscale>
<asrwt>0</asrwt>
<pdfrwt beam="1">  1        1 0.56069357E-03 0.79343343E+02</pdfrwt>
<pdfrwt beam="2">  1       -2 0.66436800E-01 0.79343343E+02</pdfrwt>
<totfact> 0.57301398E+04</totfact>
</mgrwt>
</event>
<event>
 8    1  0.8577104E-018  0.8546872E+02  0.7818608E-02  0.1314211E+00
         -2   -1    0    0    0  501 -0.00000000000E+00  0.00000000000E+00  0.26945401232E+02  0.26945401353E+02  0.25500000000E-02 0.  1.
          1   -1    0    0  501    0  0.00000000000E+00 -0.00000000000E+00 -0.67775032990E+02  0.67775033177E+02  0.50400000000E-02 0. -1.
        -24    2    1    2    0    0  0.00000000000E+00  0.00000000000E+00 -0.40829631758E+02  0.94720434530E+02  0.85468718769E+02 0.  0.
         66    2    3    3    0    0 -0.31827780434E+02  0.95413209107E+01  0.93150538178E+01  0.34566090816E+02  0.19999986422E+01 0.  0.
         13    1    3    3    0    0  0.31827780434E+02 -0.95413209107E+01 -0.50144685576E+02  0.60154343714E+02  0.10566000000E+00 0. -1.
         13    1    4    4    0    0 -0.22544131760E+02  0.61298731838E+01  0.67571516443E+01  0.24320433475E+02  0.10566000000E+00 0. -1.
        -13    1    4    4    0    0 -0.75206576847E+01  0.25813553641E+01  0.23136120100E+01  0.82817662425E+01  0.10566000000E+00 0.  1.
         14    1    4    4    0    0 -0.17629909899E+01  0.83009236282E+00  0.24429016349E+00  0.19638910981E+01  0.00000000000E+00 0. -1.
<mgrwt>
<rscale>  0 0.85468719E+02</rscale>
<asrwt>0</asrwt>
<pdfrwt beam="1">  1        1 0.10426928E-01 0.85468719E+02</pdfrwt>
<pdfrwt beam="2">  1       -2 0.41454464E-02 0.85468719E+02</pdfrwt>
<totfact> 0.11501233E+05</totfact>
</mgrwt>
</event>
<event>
 8    1  0.8577104E-018  0.8052510E+02  0.7818608E-02  0.1327568E+00
         -2   -1    0    0    0  501 -0.00000000000E+00  0.00000000000E+00  0.17829913986E+02  0.17829914168E+02  0.25500000000E-02 0.  1.
          1   -1    0    0  501    0  0.00000000000E+00 -0.00000000000E+00 -0.90918722850E+02  0.90918722990E+02  0.50400000000E-02 0. -1.
        -24    2    1    2    0    0  0.00000000000E+00  0.00000000000E+00 -0.73088808864E+02  0.10874863716E+03  0.80525102313E+02 0.  0.
         66    2    3    3    0    0 -0.19428226518E+02 -0.35126530248E+02 -0.32809951716E+02  0.51882772088E+02  0.19999987610E+01 0.  0.
         13    1    3    3    0    0  0.19428226518E+02  0.35126530248E+02 -0.40278857149E+02  0.56865865070E+02  0.10566000000E+00 0. -1.
         13    1    4    4    0    0 -0.99880395981E+01 -0.19384944520E+02 -0.17036149340E+02  0.27672704195E+02  0.10566000000E+00 0. -1.
        -13    1    4    4    0    0 -0.53331834879E+01 -0.93415233854E+01 -0.89793917706E+01  0.14012406855E+02  0.10566000000E+00 0.  1.
         14    1    4    4    0    0 -0.41070034324E+01 -0.64000623427E+01 -0.67944106047E+01  0.10197661038E+02  0.00000000000E+00 0. -1.
<mgrwt>
<rscale>  0 0.80525102E+02</rscale>
<asrwt>0</asrwt>
<pdfrwt beam="1">  1        1 0.13987496E-01 0.80525102E+02</pdfrwt>
<pdfrwt beam="2">  1       -2 0.27430638E-02 0.80525102E+02</pdfrwt>
<totfact> 0.14213455E+05</totfact>
</mgrwt>
</event>
<event>
 8    1  0.8577104E-018  0.7811248E+02  0.7818608E-02  0.1334495E+00
         -2   -1    0    0    0  501 -0.00000000000E+00  0.00000000000E+00  0.53329430567E+02  0.53329430628E+02  0.25500000000E-02 0.  1.
          1   -1    0    0  501    0  0.00000000000E+00 -0.00000000000E+00 -0.28603152519E+02  0.28603152963E+02  0.50400000000E-02 0. -1.
        -24    2    1    2    0    0  0.00000000000E+00  0.00000000000E+00  0.24726278049E+02  0.81932583591E+02  0.78112479334E+02 0.  0.
         66    2    3    3    0    0 -0.73746857443E+01 -0.27936775016E+02  0.39894451848E+02  0.49299256323E+02  0.19999994090E+01 0.  0.
         13    1    3    3    0    0  0.73746857443E+01  0.27936775016E+02 -0.15168173799E+02  0.32633327268E+02  0.10566000000E+00 0. -1.
         13    1    4    4    0    0 -0.32573045038E+00 -0.32722685770E+01  0.40711070180E+01  0.52343976114E+01  0.10566000000E+00 0. -1.
        -13    1    4    4    0    0 -0.59093746591E+01 -0.20141149223E+02  0.28999213485E+02  0.35798772991E+02  0.10566000000E+00 0.  1.
         14    1    4    4    0    0 -0.11395806348E+01 -0.45233572165E+01  0.68241313452E+01  0.82660857210E+01  0.00000000000E+00 0. -1.
<mgrwt>
<rscale>  0 0.78112479E+02</rscale>
<asrwt>0</asrwt>
<pdfrwt beam="1">  1        1 0.44004851E-02 0.78112479E+02</pdfrwt>
<pdfrwt beam="2">  1       -2 0.82045278E-02 0.78112479E+02</pdfrwt>
<totfact> 0.12844960E+05</totfact>
</mgrwt>
</event>
<event>
 8    1  0.8577104E-018  0.8135049E+02  0.7818608E-02  0.1325262E+00
         -2   -1    0    0    0  501 -0.00000000000E+00  0.00000000000E+00  0.10264713295E+04  0.10264713296E+04  0.25500000000E-02 0.  1.
          1   -1    0    0  501    0  0.00000000000E+00 -0.00000000000E+00 -0.16118049834E+01  0.16118128632E+01  0.50400000000E-02 0. -1.
        -24    2    1    2    0    0  0.88817841970E-15  0.00000000000E+00  0.10248595246E+04  0.10280831424E+04  0.81350492474E+02 0.  0.
         66    2    3    3    0    0  0.68976288434E+01  0.28139226899E+02  0.87309645658E+03  0.87357931287E+03  0.20000042178E+01 0.  0.
         13    1    3    3    0    0 -0.68976288434E+01 -0.28139226899E+02  0.15176306799E+03  0.15450382954E+03  0.10566000000E+00 0. -1.
         13    1    4    4    0    0  0.54228050072E+01  0.20379625462E+02  0.65288287772E+03  0.65322339144E+03  0.10566000000E+00 0. -1.
        -13    1    4    4    0    0  0.49464390980E+00  0.19054439262E+01  0.49824003989E+02  0.49862991554E+02  0.10566000000E+00 0.  1.
        -14    1    4    4    0    0  0.98017992642E+00  0.58541575110E+01  0.17038957487E+03  0.17049292987E+03  0.00000000000E+00 0.  1.
<mgrwt>
<rscale>  0 0.81350492E+02</rscale>
<asrwt>0</asrwt>
<pdfrwt beam="1">  1        1 0.24797094E-03 0.81350492E+02</pdfrwt>
<pdfrwt beam="2">  1       -2 0.15791845E+00 0.81350492E+02</pdfrwt>
<totfact> 0.24217726E+04</totfact>
</mgrwt>
</event>
<event>
 8    1  0.8577104E-018  0.7629735E+02  0.7818608E-02  0.1339900E+00
          1   -1    0    0  501    0  0.00000000000E+00  0.00000000000E+00  0.26093613480E+01  0.26093662154E+01  0.50400000000E-02 0. -1.
         -2   -1    0    0    0  501 -0.00000000000E+00 -0.00000000000E+00 -0.55773035522E+03  0.55773035523E+03  0.25500000000E-02 0.  1.
        -24    2    1    2    0    0  0.00000000000E+00  0.00000000000E+00 -0.55512099387E+03  0.56033972144E+03  0.76297349806E+02 0.  0.
         66    2    3    3    0    0  0.14669934142E+02 -0.96476876701E+01 -0.52626459620E+03  0.52656121207E+03  0.19999977377E+01 0.  0.
         13    1    3    3    0    0 -0.14669934142E+02  0.96476876701E+01 -0.28856397668E+02  0.33778509374E+02  0.10566000000E+00 0. -1.
         13    1    4    4    0    0  0.19598431199E+01 -0.10326467578E+01 -0.79898010428E+02  0.79928784420E+02  0.10566000000E+00 0. -1.
        -13    1    4    4    0    0  0.67120988141E+01 -0.38322134897E+01 -0.23048722068E+03  0.23061679946E+03  0.10566000000E+00 0.  1.
        -14    1    4    4    0    0  0.59979922083E+01 -0.47828274226E+01 -0.21587936510E+03  0.21601562819E+03  0.00000000000E+00 0.  1.
<mgrwt>
<rscale>  0 0.76297350E+02</rscale>
<asrwt>0</asrwt>
<pdfrwt beam="1">  1        1 0.40144103E-03 0.76297350E+02</pdfrwt>
<pdfrwt beam="2">  1       -2 0.85804575E-01 0.76297350E+02</pdfrwt>
<totfact> 0.52209546E+04</totfact>
</mgrwt>
</event>
<event>
 8    1  0.8577104E-018  0.7876023E+02  0.7818608E-02  0.1332607E+00
          1   -1    0    0  501    0  0.00000000000E+00  0.00000000000E+00  0.73637983403E+02  0.73637983575E+02  0.50400000000E-02 0. -1.
         -2   -1    0    0    0  501 -0.00000000000E+00 -0.00000000000E+00 -0.21059694046E+02  0.21059694201E+02  0.25500000000E-02 0.  1.
        -24    2    1    2    0    0  0.00000000000E+00  0.00000000000E+00  0.52578289356E+02  0.94697677776E+02  0.78760228952E+02 0.  0.
         66    2    3    3    0    0  0.23417741681E+02 -0.85349655548E+01 -0.10312534247E+02  0.27047821014E+02  0.19999991294E+01 0.  0.
         13    1    3    3    0    0 -0.23417741681E+02  0.85349655548E+01  0.62890823603E+02  0.67649856762E+02  0.10566000000E+00 0. -1.
         13    1    4    4    0    0  0.34431241942E+01 -0.15482700799E+01 -0.10372802995E+01  0.39165493629E+01  0.10566000000E+00 0. -1.
        -13    1    4    4    0    0  0.47980084326E+01 -0.13803732724E+01 -0.25904353830E+01  0.56256408346E+01  0.10566000000E+00 0.  1.
         14    1    4    4    0    0  0.15176609055E+02 -0.56063222025E+01 -0.66848185641E+01  0.17505630816E+02  0.00000000000E+00 0. -1.
<mgrwt>
<rscale>  0 0.78760229E+02</rscale>
<asrwt>0</asrwt>
<pdfrwt beam="1">  1        1 0.11328920E-01 0.78760229E+02</pdfrwt>
<pdfrwt beam="2">  1       -2 0.32399530E-02 0.78760229E+02</pdfrwt>
<totfact> 0.14591576E+05</totfact>
</mgrwt>
</event>
<event>
 8    1  0.8577104E-018  0.7909830E+02  0.7818608E-02  0.1331630E+00
          1   -1    0    0  501    0  0.00000000000E+00  0.00000000000E+00  0.43848730014E+01  0.43848758979E+01  0.50400000000E-02 0. -1.
         -2   -1    0    0    0  501 -0.00000000000E+00 -0.00000000000E+00 -0.35671148822E+03  0.35671148823E+03  0.25500000000E-02 0.  1.
        -24    2    1    2    0    0  0.35527136788E-14  0.00000000000E+00 -0.35232661522E+03  0.36109636412E+03  0.79098295774E+02 0.  0.
         66    2    3    3    0    0 -0.17494097636E+02 -0.20187118950E+01 -0.33780820703E+03  0.33827282386E+03  0.19999944403E+01 0.  0.
         13    1    3    3    0    0  0.17494097636E+02  0.20187118950E+01 -0.14518408190E+02  0.22823540265E+02  0.10566000000E+00 0. -1.
         13    1    4    4    0    0 -0.15275746939E+01  0.25710530030E+00 -0.31297959542E+02  0.31336448795E+02  0.10566000000E+00 0. -1.
        -13    1    4    4    0    0 -0.15749693155E+02 -0.23764982677E+01 -0.30230431138E+03  0.30272365026E+03  0.10566000000E+00 0.  1.
        -14    1    4    4    0    0 -0.21682978707E+00  0.10068107237E+00 -0.42059361006E+01  0.42127248091E+01  0.00000000000E+00 0.  1.
<mgrwt>
<rscale>  0 0.79098296E+02</rscale>
<asrwt>0</asrwt>
<pdfrwt beam="1">  1        1 0.67459635E-03 0.79098296E+02</pdfrwt>
<pdfrwt beam="2">  1       -2 0.54878668E-01 0.79098296E+02</pdfrwt>
<totfact> 0.65462658E+04</totfact>
</mgrwt>
</event>
<event>
 8    1  0.8577104E-018  0.7843766E+02  0.7818608E-02  0.1333544E+00
          1   -1    0    0  501    0  0.00000000000E+00  0.00000000000E+00  0.22354982194E+03  0.22354982200E+03  0.50400000000E-02 0. -1.
         -2   -1    0    0    0  501 -0.00000000000E+00 -0.00000000000E+00 -0.68804203898E+01  0.68804208623E+01  0.25500000000E-02 0.  1.
        -24    2    1    2    0    0  0.35527136788E-14 -0.35527136788E-14  0.21666940155E+03  0.23043024286E+03  0.78437664779E+02 0.  0.
         66    2    3    3    0    0  0.30649916447E+02 -0.22274072071E+02  0.78945264878E+02  0.87589420084E+02  0.19999998135E+01 0.  0.
         13    1    3    3    0    0 -0.30649916447E+02  0.22274072071E+02  0.13772413667E+03  0.14284082278E+03  0.10566000000E+00 0. -1.
         13    1    4    4    0    0  0.15319217867E+02 -0.10407455871E+02  0.38258334577E+02  0.42505351456E+02  0.10566000000E+00 0. -1.
        -13    1    4    4    0    0  0.74814676531E+01 -0.57283253106E+01  0.18471359567E+02  0.20736160623E+02  0.10566000000E+00 0.  1.
         14    1    4    4    0    0  0.78492309264E+01 -0.61382908892E+01  0.22215570734E+02  0.24347908005E+02  0.00000000000E+00 0. -1.
<mgrwt>
<rscale>  0 0.78437665E+02</rscale>
<asrwt>0</asrwt>
<pdfrwt beam="1">  1        1 0.34392276E-01 0.78437665E+02</pdfrwt>
<pdfrwt beam="2">  1       -2 0.10585264E-02 0.78437665E+02</pdfrwt>
<totfact> 0.17952417E+05</totfact>
</mgrwt>
</event>
<event>
 8    1  0.8577104E-018  0.8016256E+02  0.7818608E-02  0.1328591E+00
         -2   -1    0    0    0  501 -0.00000000000E+00  0.00000000000E+00  0.57019577057E+02  0.57019577114E+02  0.25500000000E-02 0.  1.
          1   -1    0    0  501    0  0.00000000000E+00 -0.00000000000E+00 -0.28174690559E+02  0.28174691010E+02  0.50400000000E-02 0. -1.
        -24    2    1    2    0    0  0.35527136788E-14  0.00000000000E+00  0.28844886498E+02  0.85194268124E+02  0.80162558867E+02 0.  0.
         66    2    3    3    0    0 -0.25476604708E+02  0.14733407785E+02  0.43310039755E+02  0.52401242719E+02  0.20000006343E+01 0.  0.
         13    1    3    3    0    0  0.25476604708E+02 -0.14733407785E+02 -0.14465153257E+02  0.32793025405E+02  0.10566000000E+00 0. -1.
         13    1    4    4    0    0 -0.55659060096E+01  0.33573232654E+01  0.10225225385E+02  0.12116820022E+02  0.10566000000E+00 0.  1.
        -13    1    4    4    0    0 -0.55738579276E+01  0.39703923965E+01  0.95848817045E+01  0.11777649566E+02  0.10566000000E+00 0.  1.
        -14    1    4    4    0    0 -0.14336840771E+02  0.74056921233E+01  0.23499932665E+02  0.28506773132E+02  0.00000000000E+00 0.  1.
<mgrwt>
<rscale>  0 0.80162559E+02</rscale>
<asrwt>0</asrwt>
<pdfrwt beam="1">  1        1 0.43345679E-02 0.80162559E+02</pdfrwt>
<pdfrwt beam="2">  1       -2 0.87722426E-02 0.80162559E+02</pdfrwt>
<totfact> 0.11889517E+05</totfact>
</mgrwt>
</event>
<event>
 8    1  0.8577104E-018  0.7977119E+02  0.7818608E-02  0.1329702E+00
         -2   -1    0    0    0  501 -0.00000000000E+00  0.00000000000E+00  0.40312072091E+01  0.40312080157E+01  0.25500000000E-02 0.  1.
          1   -1    0    0  501    0  0.00000000000E+00 -0.00000000000E+00 -0.39463622780E+03  0.39463622783E+03  0.50400000000E-02 0. -1.
        -24    2    1    2    0    0 -0.35527136788E-14  0.00000000000E+00 -0.39060502059E+03  0.39866743585E+03  0.79771187121E+02 0.  0.
         66    2    3    3    0    0  0.20597810825E+02 -0.32775636249E+02 -0.24292706434E+03  0.24600014377E+03  0.20000015813E+01 0.  0.
         13    1    3    3    0    0 -0.20597810825E+02  0.32775636249E+02 -0.14767795625E+03  0.15266729207E+03  0.10566000000E+00 0. -1.
         13    1    4    4    0    0  0.32437310114E+00 -0.62573239786E+00 -0.38625388952E+01  0.39277384962E+01  0.10566000000E+00 0.  1.
        -13    1    4    4    0    0  0.70911782358E+00 -0.10878755755E+01 -0.66261329755E+01  0.67530084851E+01  0.10566000000E+00 0.  1.
         14    1    4    4    0    0  0.19564319900E+02 -0.31062028275E+02 -0.23243839247E+03  0.23531939679E+03  0.00000000000E+00 0. -1.
<mgrwt>
<rscale>  0 0.79771187E+02</rscale>
<asrwt>0</asrwt>
<pdfrwt beam="1">  1        1 0.60713235E-01 0.79771187E+02</pdfrwt>
<pdfrwt beam="2">  1       -2 0.62018610E-03 0.79771187E+02</pdfrwt>
<totfact> 0.19094458E+05</totfact>
</mgrwt>
</event>
<event>
 8    1  0.8577104E-018  0.7940279E+02  0.7818608E-02  0.1330755E+00
         -2   -1    0    0    0  501 -0.00000000000E+00  0.00000000000E+00  0.10720816635E+03  0.10720816638E+03  0.25500000000E-02 0.  1.
          1   -1    0    0  501    0  0.00000000000E+00 -0.00000000000E+00 -0.14702245286E+02  0.14702246150E+02  0.50400000000E-02 0. -1.
        -24    2    1    2    0    0  0.00000000000E+00 -0.35527136788E-14  0.92505921066E+02  0.12191041253E+03  0.79402791209E+02 0.  0.
         66    2    3    3    0    0 -0.21439968115E+01 -0.23850550958E+02  0.94852201374E+02  0.97848789590E+02  0.20000038482E+01 0.  0.
         13    1    3    3    0    0  0.21439968115E+01  0.23850550958E+02 -0.23462803079E+01  0.24061622943E+02  0.10566000000E+00 0. -1.
         13    1    4    4    0    0 -0.10743558031E+01 -0.81310304046E+01  0.31233084508E+02  0.32292175953E+02  0.10566000000E+00 0. -1.
        -13    1    4    4    0    0 -0.12996135190E+00 -0.11305920353E+02  0.45240742538E+02  0.46632356518E+02  0.10566000000E+00 0.  1.
         14    1    4    4    0    0 -0.93967965654E+00 -0.44136002004E+01  0.18378374328E+02  0.18924257119E+02  0.00000000000E+00 0. -1.
<mgrwt>
<rscale>  0 0.79402791E+02</rscale>
<asrwt>0</asrwt>
<pdfrwt beam="1">  1        1 0.22618839E-02 0.79402791E+02</pdfrwt>
<pdfrwt beam="2">  1       -2 0.16493565E-01 0.79402791E+02</pdfrwt>
<totfact> 0.10628936E+05</totfact>
</mgrwt>
</event>
<event>
 8    1  0.8577104E-018  0.7988494E+02  0.7818608E-02  0.1329378E+00
         -2   -1    0    0    0  501 -0.00000000000E+00  0.00000000000E+00  0.48955402640E+02  0.48955402706E+02  0.25500000000E-02 0.  1.
          1   -1    0    0  501    0  0.00000000000E+00 -0.00000000000E+00 -0.32588865644E+02  0.32588866033E+02  0.50400000000E-02 0. -1.
        -24    2    1    2    0    0  0.00000000000E+00  0.00000000000E+00  0.16366536996E+02  0.81544268739E+02  0.79884943707E+02 0.  0.
         66    2    3    3    0    0  0.35677423749E+02 -0.87667752657E+01  0.24122268483E+02  0.43995667583E+02  0.20000038357E+01 0.  0.
         13    1    3    3    0    0 -0.35677423749E+02  0.87667752657E+01 -0.77557314871E+01  0.37548601157E+02  0.10566000000E+00 0. -1.
         13    1    4    4    0    0  0.20311597095E+01 -0.64046636738E+00  0.18326194367E+01  0.28116658707E+01  0.10566000000E+00 0. -1.
        -13    1    4    4    0    0  0.28189264097E+02 -0.71528688197E+01  0.18972634305E+02  0.34724201347E+02  0.10566000000E+00 0.  1.
        -14    1    4    4    0    0  0.54569999425E+01 -0.97344007861E+00  0.33170147418E+01  0.64598003650E+01  0.00000000000E+00 0.  1.
<mgrwt>
<rscale>  0 0.79884944E+02</rscale>
<asrwt>0</asrwt>
<pdfrwt beam="1">  1        1 0.50136717E-02 0.79884944E+02</pdfrwt>
<pdfrwt beam="2">  1       -2 0.75316004E-02 0.79884944E+02</pdfrwt>
<totfact> 0.12321256E+05</totfact>
</mgrwt>
</event>
<event>
 8    1  0.8577104E-018  0.8665797E+02  0.7818608E-02  0.1311153E+00
          1   -1    0    0  501    0  0.00000000000E+00  0.00000000000E+00  0.92545972458E+02  0.92545972596E+02  0.50400000000E-02 0. -1.
         -2   -1    0    0    0  501 -0.00000000000E+00 -0.00000000000E+00 -0.20286144629E+02  0.20286144789E+02  0.25500000000E-02 0.  1.
        -24    2    1    2    0    0  0.71054273576E-14  0.00000000000E+00  0.72259827829E+02  0.11283211739E+03  0.86657971334E+02 0.  0.
         66    2    3    3    0    0  0.39302721739E+02 -0.11412064043E+02  0.17714466701E+02  0.44640133058E+02  0.20000017926E+01 0.  0.
         13    1    3    3    0    0 -0.39302721739E+02  0.11412064043E+02  0.54545361128E+02  0.68191984327E+02  0.10566000000E+00 0. -1.
         13    1    4    4    0    0  0.24342728109E+01 -0.79964100276E+00  0.89293578156E+00  0.27154388590E+01  0.10566000000E+00 0.  1.
        -13    1    4    4    0    0  0.19916885279E+02 -0.56605436681E+01  0.81716341905E+01  0.22260072848E+02  0.10566000000E+00 0.  1.
        -14    1    4    4    0    0  0.16951563649E+02 -0.49518793722E+01  0.86498967291E+01  0.19664621351E+02  0.00000000000E+00 0.  1.
<mgrwt>
<rscale>  0 0.86657971E+02</rscale>
<asrwt>0</asrwt>
<pdfrwt beam="1">  1        1 0.14237842E-01 0.86657971E+02</pdfrwt>
<pdfrwt beam="2">  1       -2 0.31209453E-02 0.86657971E+02</pdfrwt>
<totfact> 0.11670428E+05</totfact>
</mgrwt>
</event>
<event>
 8    1  0.8577104E-018  0.7799124E+02  0.7818608E-02  0.1334851E+00
         -2   -1    0    0    0  501 -0.00000000000E+00  0.00000000000E+00  0.38473649199E+02  0.38473649283E+02  0.25500000000E-02 0.  1.
          1   -1    0    0  501    0  0.00000000000E+00 -0.00000000000E+00 -0.39524674519E+02  0.39524674840E+02  0.50400000000E-02 0. -1.
        -24    2    1    2    0    0  0.00000000000E+00  0.00000000000E+00 -0.10510253198E+01  0.77998324123E+02  0.77991242533E+02 0.  0.
         66    2    3    3    0    0 -0.68315577210E+01  0.37640652621E+02 -0.79538222240E+01  0.39124828271E+02  0.19999971614E+01 0.  0.
         13    1    3    3    0    0  0.68315577210E+01 -0.37640652621E+02  0.69027969042E+01  0.38873495852E+02  0.10566000000E+00 0. -1.
         13    1    4    4    0    0 -0.13904547824E+01  0.57754569919E+01 -0.17552773448E+01  0.61952748575E+01  0.10566000000E+00 0. -1.
        -13    1    4    4    0    0 -0.40324892205E+00  0.36283665276E+01 -0.50119039098E+00  0.36864629654E+01  0.10566000000E+00 0.  1.
        -14    1    4    4    0    0 -0.50378540165E+01  0.28236829102E+02 -0.56973544883E+01  0.29243090448E+02  0.00000000000E+00 0.  1.
<mgrwt>
<rscale>  0 0.77991243E+02</rscale>
<asrwt>0</asrwt>
<pdfrwt beam="1">  1        1 0.60807192E-02 0.77991243E+02</pdfrwt>
<pdfrwt beam="2">  1       -2 0.59190230E-02 0.77991243E+02</pdfrwt>
<totfact> 0.13612527E+05</totfact>
</mgrwt>
</event>
<event>
 8    1  0.8577104E-018  0.8262290E+02  0.7818608E-02  0.1321769E+00
          1   -1    0    0  501    0  0.00000000000E+00  0.00000000000E+00  0.17733733084E+03  0.17733733091E+03  0.50400000000E-02 0. -1.
         -2   -1    0    0    0  501 -0.00000000000E+00 -0.00000000000E+00 -0.96236693064E+01  0.96236696443E+01  0.25500000000E-02 0.  1.
        -24    2    1    2    0    0  0.00000000000E+00  0.00000000000E+00  0.16771366154E+03  0.18696100056E+03  0.82622899150E+02 0.  0.
         66    2    3    3    0    0 -0.26833726375E+02 -0.11882061314E+02  0.18190447668E+02  0.34585034928E+02  0.20000005951E+01 0.  0.
         13    1    3    3    0    0  0.26833726375E+02  0.11882061314E+02  0.14952321387E+03  0.15237596563E+03  0.10566000000E+00 0. -1.
         13    1    4    4    0    0 -0.49499435416E+01 -0.22258799378E+01  0.24910483082E+01  0.59726851810E+01  0.10566000000E+00 0. -1.
        -13    1    4    4    0    0 -0.82998482094E+01 -0.36343993217E+01  0.60321004014E+01  0.10885482902E+02  0.10566000000E+00 0.  1.
         14    1    4    4    0    0 -0.13583934624E+02 -0.60217820541E+01  0.96672989583E+01  0.17726866845E+02  0.00000000000E+00 0. -1.
<mgrwt>
<rscale>  0 0.82622899E+02</rscale>
<asrwt>0</asrwt>
<pdfrwt beam="1">  1        1 0.27282664E-01 0.82622899E+02</pdfrwt>
<pdfrwt beam="2">  1       -2 0.14805647E-02 0.82622899E+02</pdfrwt>
<totfact> 0.14948846E+05</totfact>
</mgrwt>
</event>
<event>
 8    1  0.8577104E-018  0.8342674E+02  0.7818608E-02  0.1319599E+00
         -2   -1    0    0    0  501 -0.00000000000E+00  0.00000000000E+00  0.50682426464E+02  0.50682426528E+02  0.25500000000E-02 0.  1.
          1   -1    0    0  501    0  0.00000000000E+00 -0.00000000000E+00 -0.34331527076E+02  0.34331527446E+02  0.50400000000E-02 0. -1.
        -24    2    1    2    0    0  0.00000000000E+00  0.00000000000E+00  0.16350899388E+02  0.85013953974E+02  0.83426737078E+02 0.  0.
         66    2    3    3    0    0 -0.39977165237E+02 -0.92012750999E+01  0.15748616105E+02  0.43986998041E+02  0.19999708948E+01 0.  0.
         13    1    3    3    0    0  0.39977165237E+02  0.92012750999E+01  0.60228328300E+00  0.41026955932E+02  0.10566000000E+00 0. -1.
         13    1    4    4    0    0 -0.26010554911E+01 -0.51484749470E+00  0.84977996301E+00  0.27863681795E+01  0.10566000000E+00 0. -1.
        -13    1    4    4    0    0 -0.32913919853E+02 -0.72938733520E+01  0.13567847001E+02  0.36340395496E+02  0.10566000000E+00 0.  1.
        -14    1    4    4    0    0 -0.44621898934E+01 -0.13925542533E+01  0.13309891409E+01  0.48602343654E+01  0.00000000000E+00 0.  1.
<mgrwt>
<rscale>  0 0.83426737E+02</rscale>
<asrwt>0</asrwt>
<pdfrwt beam="1">  1        1 0.52817734E-02 0.83426737E+02</pdfrwt>
<pdfrwt beam="2">  1       -2 0.77972964E-02 0.83426737E+02</pdfrwt>
<totfact> 0.10981441E+05</totfact>
</mgrwt>
</event>
<event>
 8    1  0.8577104E-018  0.8229885E+02  0.7818608E-02  0.1322651E+00
          1   -1    0    0  501    0  0.00000000000E+00  0.00000000000E+00  0.28263883861E+02  0.28263884310E+02  0.50400000000E-02 0. -1.
         -2   -1    0    0    0  501 -0.00000000000E+00 -0.00000000000E+00 -0.59909499232E+02  0.59909499286E+02  0.25500000000E-02 0.  1.
        -24    2    1    2    0    0  0.00000000000E+00  0.00000000000E+00 -0.31645615371E+02  0.88173383596E+02  0.82298849339E+02 0.  0.
         66    2    3    3    0    0 -0.22264060080E+02  0.97981475343E+01 -0.51358982698E+02  0.56863320011E+02  0.19999981388E+01 0.  0.
         13    1    3    3    0    0  0.22264060080E+02 -0.97981475343E+01  0.19713367327E+02  0.31310063585E+02  0.10566000000E+00 0. -1.
         13    1    4    4    0    0 -0.96312362372E+01  0.36995996528E+01 -0.23307477846E+02  0.25489163121E+02  0.10566000000E+00 0. -1.
        -13    1    4    4    0    0 -0.43933584503E+01  0.23809172871E+01 -0.10672147146E+02  0.11784576970E+02  0.10566000000E+00 0.  1.
         14    1    4    4    0    0 -0.82394653923E+01  0.37176305944E+01 -0.17379357705E+02  0.19589579920E+02  0.00000000000E+00 0. -1.
<mgrwt>
<rscale>  0 0.82298849E+02</rscale>
<asrwt>0</asrwt>
<pdfrwt beam="1">  1        1 0.43482899E-02 0.82298849E+02</pdfrwt>
<pdfrwt beam="2">  1       -2 0.92168460E-02 0.82298849E+02</pdfrwt>
<totfact> 0.11023291E+05</totfact>
</mgrwt>
</event>
<event>
 8    1  0.8577104E-018  0.8051538E+02  0.7818608E-02  0.1327595E+00
         -2   -1    0    0    0  501 -0.00000000000E+00  0.00000000000E+00  0.19634971043E+02  0.19634971209E+02  0.25500000000E-02 0.  1.
          1   -1    0    0  501    0  0.00000000000E+00 -0.00000000000E+00 -0.82540560993E+02  0.82540561147E+02  0.50400000000E-02 0. -1.
        -24    2    1    2    0    0  0.00000000000E+00  0.00000000000E+00 -0.62905589950E+02  0.10217553236E+03  0.80515378439E+02 0.  0.
         66    2    3    3    0    0  0.17511394194E+02 -0.32345625308E+02 -0.52160976203E+02  0.63856525430E+02  0.19999995962E+01 0.  0.
         13    1    3    3    0    0 -0.17511394194E+02  0.32345625308E+02 -0.10744613747E+02  0.38319006925E+02  0.10566000000E+00 0. -1.
         13    1    4    4    0    0  0.90212504001E+00 -0.11722626537E+01 -0.21744268566E+01  0.26319812893E+01  0.10566000000E+00 0. -1.
        -13    1    4    4    0    0  0.57168462503E+01 -0.11849529014E+02 -0.19420933931E+02  0.23457994537E+02  0.10566000000E+00 0.  1.
        -14    1    4    4    0    0  0.10892422903E+02 -0.19323833640E+02 -0.30565615415E+02  0.37766549603E+02  0.00000000000E+00 0.  1.
<mgrwt>
<rscale>  0 0.80515378E+02</rscale>
<asrwt>0</asrwt>
<pdfrwt beam="1">  1        1 0.12698548E-01 0.80515378E+02</pdfrwt>
<pdfrwt beam="2">  1       -2 0.30207648E-02 0.80515378E+02</pdfrwt>
<totfact> 0.13994376E+05</totfact>
</mgrwt>
</event>
<event>
 8    1  0.8577104E-018  0.7825783E+02  0.7818608E-02  0.1334069E+00
         -2   -1    0    0    0  501 -0.00000000000E+00  0.00000000000E+00  0.16105884001E+03  0.16105884003E+03  0.25500000000E-02 0.  1.
          1   -1    0    0  501    0  0.00000000000E+00 -0.00000000000E+00 -0.95062885477E+01  0.95062898837E+01  0.50400000000E-02 0. -1.
        -24    2    1    2    0    0 -0.17763568394E-14 -0.71054273576E-14  0.15155255146E+03  0.17056512992E+03  0.78257828285E+02 0.  0.
         66    2    3    3    0    0 -0.83582439739E+01 -0.37570473013E+02  0.90873263637E+02  0.98708412624E+02  0.19999984979E+01 0.  0.
         13    1    3    3    0    0  0.83582439739E+01  0.37570473013E+02  0.60679287827E+02  0.71856717292E+02  0.10566000000E+00 0. -1.
         13    1    4    4    0    0 -0.40055504431E+01 -0.15014614340E+02  0.35675266866E+02  0.38912965810E+02  0.10566000000E+00 0. -1.
        -13    1    4    4    0    0 -0.35530222835E+01 -0.16224697172E+02  0.39522463784E+02  0.42870748457E+02  0.10566000000E+00 0.  1.
         14    1    4    4    0    0 -0.79967124729E+00 -0.63311615010E+01  0.15675532986E+02  0.16924698356E+02  0.00000000000E+00 0. -1.
<mgrwt>
<rscale>  0 0.78257828E+02</rscale>
<asrwt>0</asrwt>
<pdfrwt beam="1">  1        1 0.14625062E-02 0.78257828E+02</pdfrwt>
<pdfrwt beam="2">  1       -2 0.24778280E-01 0.78257828E+02</pdfrwt>
<totfact> 0.97651106E+04</totfact>
</mgrwt>
</event>
<event>
 8    1  0.8577104E-018  0.7844354E+02  0.7818608E-02  0.1333527E+00
          1   -1    0    0  501    0  0.00000000000E+00  0.00000000000E+00  0.28618772423E+03  0.28618772427E+03  0.50400000000E-02 0. -1.
         -2   -1    0    0    0  501 -0.00000000000E+00 -0.00000000000E+00 -0.53753072653E+01  0.53753078702E+01  0.25500000000E-02 0.  1.
        -24    2    1    2    0    0  0.71054273576E-14  0.00000000000E+00  0.28081241696E+03  0.29156303214E+03  0.78443535054E+02 0.  0.
         66    2    3    3    0    0  0.34245370824E+02  0.19058700132E+02  0.14273548904E+03  0.14803175101E+03  0.20000008438E+01 0.  0.
         13    1    3    3    0    0 -0.34245370824E+02 -0.19058700132E+02  0.13807692792E+03  0.14353128113E+03  0.10566000000E+00 0. -1.
         13    1    4    4    0    0  0.32546375049E+01  0.22581187198E+01  0.15249166720E+02  0.15755634393E+02  0.10566000000E+00 0. -1.
        -13    1    4    4    0    0  0.37777044606E+01  0.19293503451E+01  0.16802923391E+02  0.17330402254E+02  0.10566000000E+00 0.  1.
        -14    1    4    4    0    0  0.27213028859E+02  0.14871231067E+02  0.11068339893E+03  0.11494571436E+03  0.00000000000E+00 0.  1.
<mgrwt>
<rscale>  0 0.78443535E+02</rscale>
<asrwt>0</asrwt>
<pdfrwt beam="1">  1        1 0.44028897E-01 0.78443535E+02</pdfrwt>
<pdfrwt beam="2">  1       -2 0.82697010E-03 0.78443535E+02</pdfrwt>
<totfact> 0.18829631E+05</totfact>
</mgrwt>
</event>
<event>
 8    1  0.8577104E-018  0.7959229E+02  0.7818608E-02  0.1330212E+00
         -2   -1    0    0    0  501 -0.00000000000E+00  0.00000000000E+00  0.15269786331E+03  0.15269786333E+03  0.25500000000E-02 0.  1.
          1   -1    0    0  501    0  0.00000000000E+00 -0.00000000000E+00 -0.10371677384E+02  0.10371678608E+02  0.50400000000E-02 0. -1.
        -24    2    1    2    0    0  0.00000000000E+00 -0.35527136788E-14  0.14232618592E+03  0.16306954194E+03  0.79592287993E+02 0.  0.
         66    2    3    3    0    0 -0.56026821899E+00  0.21834111576E+02  0.13930384562E+03  0.14101986997E+03  0.19999983903E+01 0.  0.
         13    1    3    3    0    0  0.56026821899E+00 -0.21834111576E+02  0.30223403028E+01  0.22049671964E+02  0.10566000000E+00 0. -1.
         13    1    4    4    0    0 -0.64274748884E-01  0.58791409918E+01  0.34845928530E+02  0.35338623759E+02  0.10566000000E+00 0. -1.
        -13    1    4    4    0    0 -0.77511750372E+00  0.72326567889E+01  0.44197808538E+02  0.44792516952E+02  0.10566000000E+00 0.  1.
        -14    1    4    4    0    0  0.27912403362E+00  0.87223137953E+01  0.60260108553E+02  0.60888729261E+02  0.00000000000E+00 0.  1.
<mgrwt>
<rscale>  0 0.79592288E+02</rscale>
<asrwt>0</asrwt>
<pdfrwt beam="1">  1        1 0.15956429E-02 0.79592288E+02</pdfrwt>
<pdfrwt beam="2">  1       -2 0.23491978E-01 0.79592288E+02</pdfrwt>
<totfact> 0.95198459E+04</totfact>
</mgrwt>
</event>
<event>
 8    1  0.8577104E-018  0.8016306E+02  0.7818608E-02  0.1328589E+00
          1   -1    0    0  501    0  0.00000000000E+00  0.00000000000E+00  0.19978477003E+03  0.19978477009E+03  0.50400000000E-02 0. -1.
         -2   -1    0    0    0  501 -0.00000000000E+00 -0.00000000000E+00 -0.80412985450E+01  0.80412989494E+01  0.25500000000E-02 0.  1.
        -24    2    1    2    0    0  0.00000000000E+00  0.00000000000E+00  0.19174347148E+03  0.20782606904E+03  0.80163059551E+02 0.  0.
         66    2    3    3    0    0 -0.73934336489E+01  0.35798450006E+02  0.53463215452E+02  0.64795889512E+02  0.20000018132E+01 0.  0.
         13    1    3    3    0    0  0.73934336489E+01 -0.35798450006E+02  0.13828025603E+03  0.14303017953E+03  0.10566000000E+00 0. -1.
         13    1    4    4    0    0 -0.21359309916E+01  0.12587057692E+02  0.19718687782E+02  0.23491148002E+02  0.10566000000E+00 0. -1.
        -13    1    4    4    0    0 -0.19099144241E+01  0.95861675668E+01  0.13155095424E+02  0.16389328277E+02  0.10566000000E+00 0.  1.
        -14    1    4    4    0    0 -0.33475882331E+01  0.13625224747E+02  0.20589432245E+02  0.24915413233E+02  0.00000000000E+00 0.  1.
<mgrwt>
<rscale>  0 0.80163060E+02</rscale>
<asrwt>0</asrwt>
<pdfrwt beam="1">  1        1 0.30736118E-01 0.80163060E+02</pdfrwt>
<pdfrwt beam="2">  1       -2 0.12371229E-02 0.80163060E+02</pdfrwt>
<totfact> 0.16580549E+05</totfact>
</mgrwt>
</event>
<event>
 8    1  0.8577104E-018  0.7824736E+02  0.7818608E-02  0.1334100E+00
         -2   -1    0    0    0  501 -0.00000000000E+00  0.00000000000E+00  0.32034198533E+01  0.32034208682E+01  0.25500000000E-02 0.  1.
          1   -1    0    0  501    0  0.00000000000E+00 -0.00000000000E+00 -0.47782127539E+03  0.47782127542E+03  0.50400000000E-02 0. -1.
        -24    2    1    2    0    0 -0.17763568394E-14 -0.71054273576E-14 -0.47461785554E+03  0.48102469629E+03  0.78247361883E+02 0.  0.
         66    2    3    3    0    0 -0.94447164620E+01 -0.37931536039E+02 -0.24243245969E+03  0.24557178528E+03  0.20000288971E+01 0.  0.
         13    1    3    3    0    0  0.94447164620E+01  0.37931536039E+02 -0.23218539585E+03  0.23545291101E+03  0.10566000000E+00 0. -1.
         13    1    4    4    0    0 -0.28011442451E+01 -0.13436993553E+02 -0.80833964084E+02  0.81991097800E+02  0.10566000000E+00 0. -1.
        -13    1    4    4    0    0 -0.35388311312E+01 -0.12086856663E+02 -0.78839435380E+02  0.79839107991E+02  0.10566000000E+00 0.  1.
        -14    1    4    4    0    0 -0.31047410857E+01 -0.12407685822E+02 -0.82759060228E+02  0.83741579484E+02  0.00000000000E+00 0.  1.
<mgrwt>
<rscale>  0 0.78247362E+02</rscale>
<asrwt>0</asrwt>
<pdfrwt beam="1">  1        1 0.73510909E-01 0.78247362E+02</pdfrwt>
<pdfrwt beam="2">  1       -2 0.49283428E-03 0.78247362E+02</pdfrwt>
<totfact> 0.20663144E+05</totfact>
</mgrwt>
</event>
<event>
 8    1  0.8577104E-018  0.7939583E+02  0.7818608E-02  0.1330775E+00
          1   -1    0    0  501    0  0.00000000000E+00  0.00000000000E+00  0.17583144671E+02  0.17583145393E+02  0.50400000000E-02 0. -1.
         -2   -1    0    0    0  501 -0.00000000000E+00 -0.00000000000E+00 -0.89626994249E+02  0.89626994285E+02  0.25500000000E-02 0.  1.
        -24    2    1    2    0    0  0.88817841970E-15  0.00000000000E+00 -0.72043849578E+02  0.10721013968E+03  0.79395829788E+02 0.  0.
         66    2    3    3    0    0  0.68912489028E+01 -0.11956893210E+02 -0.86269947790E+02  0.87389704743E+02  0.19999991700E+01 0.  0.
         13    1    3    3    0    0 -0.68912489028E+01  0.11956893210E+02  0.14226098212E+02  0.19820434936E+02  0.10566000000E+00 0. -1.
         13    1    4    4    0    0  0.11206363871E+01 -0.26161995979E+01 -0.19928043972E+02  0.20130534688E+02  0.10566000000E+00 0. -1.
        -13    1    4    4    0    0  0.54231782200E+01 -0.83289529126E+01 -0.57494541543E+02  0.58347371748E+02  0.10566000000E+00 0.  1.
        -14    1    4    4    0    0  0.34743429573E+00 -0.10117406995E+01 -0.88473622751E+01  0.89117983067E+01  0.00000000000E+00 0.  1.
<mgrwt>
<rscale>  0 0.79395830E+02</rscale>
<asrwt>0</asrwt>
<pdfrwt beam="1">  1        1 0.27050993E-02 0.79395830E+02</pdfrwt>
<pdfrwt beam="2">  1       -2 0.13788768E-01 0.79395830E+02</pdfrwt>
<totfact> 0.11108342E+05</totfact>
</mgrwt>
</event>
<event>
 8    1  0.8577104E-018  0.7831523E+02  0.7818608E-02  0.1333902E+00
          1   -1    0    0  501    0  0.00000000000E+00  0.00000000000E+00  0.27980035552E+01  0.27980080944E+01  0.50400000000E-02 0. -1.
         -2   -1    0    0    0  501 -0.00000000000E+00 -0.00000000000E+00 -0.54800414429E+03  0.54800414430E+03  0.25500000000E-02 0.  1.
        -24    2    1    2    0    0  0.00000000000E+00 -0.35527136788E-14 -0.54520614074E+03  0.55080215239E+03  0.78315229572E+02 0.  0.
         66    2    3    3    0    0  0.22336551840E+02  0.13159481966E+02 -0.47893906697E+03  0.47964437177E+03  0.19999962899E+01 0.  0.
         13    1    3    3    0    0 -0.22336551840E+02 -0.13159481966E+02 -0.66267073770E+02  0.71157780627E+02  0.10566000000E+00 0. -1.
         13    1    4    4    0    0  0.17102151666E+01  0.72166534482E+00 -0.33776361007E+02  0.33827494198E+02  0.10566000000E+00 0. -1.
        -13    1    4    4    0    0  0.93716517763E+01  0.51229830025E+01 -0.18485120365E+03  0.18515952978E+03  0.10566000000E+00 0.  1.
        -14    1    4    4    0    0  0.11254684897E+02  0.73148336188E+01 -0.26031150231E+03  0.26065734779E+03  0.00000000000E+00 0.  1.
<mgrwt>
<rscale>  0 0.78315230E+02</rscale>
<asrwt>0</asrwt>
<pdfrwt beam="1">  1        1 0.43046287E-03 0.78315230E+02</pdfrwt>
<pdfrwt beam="2">  1       -2 0.84308245E-01 0.78315230E+02</pdfrwt>
<totfact> 0.49519064E+04</totfact>
</mgrwt>
</event>
<event>
 8    1  0.8577104E-018  0.7914511E+02  0.7818608E-02  0.1331495E+00
          1   -1    0    0  501    0  0.00000000000E+00  0.00000000000E+00  0.19315849308E+02  0.19315849965E+02  0.50400000000E-02 0. -1.
         -2   -1    0    0    0  501 -0.00000000000E+00 -0.00000000000E+00 -0.81072650713E+02  0.81072650753E+02  0.25500000000E-02 0.  1.
        -24    2    1    2    0    0  0.00000000000E+00  0.00000000000E+00 -0.61756801405E+02  0.10038850072E+03  0.79145110757E+02 0.  0.
         66    2    3    3    0    0  0.19183892758E+02  0.12811640378E+02 -0.71641939579E+02  0.75290951210E+02  0.19999892592E+01 0.  0.
         13    1    3    3    0    0 -0.19183892758E+02 -0.12811640378E+02  0.98851381739E+01  0.25097549508E+02  0.10566000000E+00 0. -1.
         13    1    4    4    0    0  0.10374493194E+01  0.74415026161E+00 -0.31761300627E+01  0.34247666947E+01  0.10566000000E+00 0. -1.
        -13    1    4    4    0    0  0.88969081565E+00  0.52766686376E+00 -0.24009941245E+01  0.26164706931E+01  0.10566000000E+00 0.  1.
        -14    1    4    4    0    0  0.17256752623E+02  0.11539823253E+02 -0.66064815391E+02  0.69249713823E+02  0.00000000000E+00 0.  1.
<mgrwt>
<rscale>  0 0.79145111E+02</rscale>
<asrwt>0</asrwt>
<pdfrwt beam="1">  1        1 0.29716692E-02 0.79145111E+02</pdfrwt>
<pdfrwt beam="2">  1       -2 0.12472715E-01 0.79145111E+02</pdfrwt>
<totfact> 0.11453140E+05</totfact>
</mgrwt>
</event>
<event>
 8    1  0.8577104E-018  0.8076603E+02  0.7818608E-02  0.1326892E+00
         -2   -1    0    0    0  501 -0.00000000000E+00  0.00000000000E+00  0.59062757214E+01  0.59062762719E+01  0.25500000000E-02 0.  1.
          1   -1    0    0  501    0  0.00000000000E+00 -0.00000000000E+00 -0.27611099627E+03  0.27611099631E+03  0.50400000000E-02 0. -1.
        -24    2    1    2    0    0  0.00000000000E+00  0.35527136788E-14 -0.27020472055E+03  0.28201727259E+03  0.80766026466E+02 0.  0.
         66    2    3    3    0    0 -0.29922112647E+02 -0.19825484013E+02 -0.70761838626E+02  0.79370148366E+02  0.20000010899E+01 0.  0.
         13    1    3    3    0    0  0.29922112647E+02  0.19825484013E+02 -0.19944288192E+03  0.20264712422E+03  0.10566000000E+00 0. -1.
         13    1    4    4    0    0 -0.98857133799E+01 -0.60731280327E+01 -0.21166714353E+02  0.24138168400E+02  0.10566000000E+00 0. -1.
        -13    1    4    4    0    0 -0.75730277352E+01 -0.54813654351E+01 -0.18826746647E+02  0.21020315636E+02  0.10566000000E+00 0.  1.
         14    1    4    4    0    0 -0.12463371532E+02 -0.82709905450E+01 -0.30768377626E+02  0.34211664330E+02  0.00000000000E+00 0. -1.
<mgrwt>
<rscale>  0 0.80766026E+02</rscale>
<asrwt>0</asrwt>
<pdfrwt beam="1">  1        1 0.42478605E-01 0.80766026E+02</pdfrwt>
<pdfrwt beam="2">  1       -2 0.90865806E-03 0.80766026E+02</pdfrwt>
<totfact> 0.17314589E+05</totfact>
</mgrwt>
</event>
<event>
 8    1  0.8577104E-018  0.7693100E+02  0.7818608E-02  0.1337994E+00
          1   -1    0    0  501    0  0.00000000000E+00  0.00000000000E+00  0.62997206344E+02  0.62997206546E+02  0.50400000000E-02 0. -1.
         -2   -1    0    0    0  501 -0.00000000000E+00 -0.00000000000E+00 -0.23486670074E+02  0.23486670212E+02  0.25500000000E-02 0.  1.
        -24    2    1    2    0    0  0.00000000000E+00  0.00000000000E+00  0.39510536270E+02  0.86483876758E+02  0.76930998061E+02 0.  0.
         66    2    3    3    0    0 -0.25749145369E+02  0.15325052452E+02 -0.72984514761E+01  0.30905389752E+02  0.20000004715E+01 0.  0.
         13    1    3    3    0    0  0.25749145369E+02 -0.15325052452E+02  0.46808987747E+02  0.55578487005E+02  0.10566000000E+00 0. -1.
         13    1    4    4    0    0 -0.88290773112E+01  0.57692986748E+01 -0.20452132955E+01  0.10743904078E+02  0.10566000000E+00 0. -1.
        -13    1    4    4    0    0 -0.81097905463E+01  0.43695828713E+01 -0.19407600621E+01  0.94148643552E+01  0.10566000000E+00 0.  1.
        -14    1    4    4    0    0 -0.88102775119E+01  0.51861709057E+01 -0.33124781185E+01  0.10746621320E+02  0.00000000000E+00 0.  1.
<mgrwt>
<rscale>  0 0.76930998E+02</rscale>
<asrwt>0</asrwt>
<pdfrwt beam="1">  1        1 0.96918780E-02 0.76930998E+02</pdfrwt>
<pdfrwt beam="2">  1       -2 0.36133339E-02 0.76930998E+02</pdfrwt>
<totfact> 0.15186943E+05</totfact>
</mgrwt>
</event>
<event>
 8    1  0.8577104E-018  0.7960123E+02  0.7818608E-02  0.1330187E+00
         -2   -1    0    0    0  501 -0.00000000000E+00  0.00000000000E+00  0.53648337737E+02  0.53648337798E+02  0.25500000000E-02 0.  1.
          1   -1    0    0  501    0  0.00000000000E+00 -0.00000000000E+00 -0.29527266901E+02  0.29527267331E+02  0.50400000000E-02 0. -1.
        -24    2    1    2    0    0  0.00000000000E+00  0.00000000000E+00  0.24121070837E+02  0.83175605129E+02  0.79601226311E+02 0.  0.
         66    2    3    3    0    0  0.36993586395E+02 -0.22257336338E+01  0.27159824327E+02  0.45990601278E+02  0.20000059775E+01 0.  0.
         13    1    3    3    0    0 -0.36993586395E+02  0.22257336338E+01 -0.30387534899E+01  0.37185003851E+02  0.10566000000E+00 0. -1.
         13    1    4    4    0    0  0.71424493987E+01 -0.16208816878E-01  0.56481380971E+01  0.91064523355E+01  0.10566000000E+00 0. -1.
        -13    1    4    4    0    0  0.11008934565E+02 -0.51599299880E+00  0.72452749333E+01  0.13189695294E+02  0.10566000000E+00 0.  1.
         14    1    4    4    0    0  0.18842202431E+02 -0.16935318182E+01  0.14266411296E+02  0.23694453649E+02  0.00000000000E+00 0. -1.
<mgrwt>
<rscale>  0 0.79601226E+02</rscale>
<asrwt>0</asrwt>
<pdfrwt beam="1">  1        1 0.45426566E-02 0.79601226E+02</pdfrwt>
<pdfrwt beam="2">  1       -2 0.82535903E-02 0.79601226E+02</pdfrwt>
<totfact> 0.12235322E+05</totfact>
</mgrwt>
</event>
<event>
 8    1  0.8577104E-018  0.7833185E+02  0.7818608E-02  0.1333853E+00
         -2   -1    0    0    0  501 -0.00000000000E+00  0.00000000000E+00  0.23833673562E+03  0.23833673563E+03  0.25500000000E-02 0.  1.
          1   -1    0    0  501    0  0.00000000000E+00 -0.00000000000E+00 -0.64361434770E+01  0.64361454503E+01  0.50400000000E-02 0. -1.
        -24    2    1    2    0    0  0.44408920985E-15  0.00000000000E+00  0.23190059214E+03  0.24477288108E+03  0.78331849702E+02 0.  0.
         66    2    3    3    0    0 -0.26458983192E+01 -0.17623058761E+02  0.22491976686E+03  0.22563349594E+03  0.19999963402E+01 0.  0.
         13    1    3    3    0    0  0.26458983192E+01  0.17623058761E+02  0.69808252747E+01  0.19139385141E+02  0.10566000000E+00 0. -1.
         13    1    4    4    0    0  0.16414957417E+00 -0.39047269650E+00  0.53766749774E+01  0.53943685318E+01  0.10566000000E+00 0. -1.
        -13    1    4    4    0    0 -0.30220183911E+00 -0.49218223123E+01  0.61908044343E+02  0.62104209030E+02  0.10566000000E+00 0.  1.
        -14    1    4    4    0    0 -0.25078460543E+01 -0.12310763752E+02  0.15763504754E+03  0.15813491838E+03  0.00000000000E+00 0.  1.
<mgrwt>
<rscale>  0 0.78331850E+02</rscale>
<asrwt>0</asrwt>
<pdfrwt beam="1">  1        1 0.99017603E-03 0.78331850E+02</pdfrwt>
<pdfrwt beam="2">  1       -2 0.36667192E-01 0.78331850E+02</pdfrwt>
<totfact> 0.83267614E+04</totfact>
</mgrwt>
</event>
<event>
 8    1  0.8577104E-018  0.7627594E+02  0.7818608E-02  0.1339965E+00
          1   -1    0    0  501    0  0.00000000000E+00  0.00000000000E+00  0.82314283379E+02  0.82314283533E+02  0.50400000000E-02 0. -1.
         -2   -1    0    0    0  501 -0.00000000000E+00 -0.00000000000E+00 -0.17670135881E+02  0.17670136065E+02  0.25500000000E-02 0.  1.
        -24    2    1    2    0    0  0.00000000000E+00  0.00000000000E+00  0.64644147498E+02  0.99984419599E+02  0.76275935634E+02 0.  0.
         66    2    3    3    0    0 -0.44711971470E+01  0.32347800989E+02  0.65863397080E+01  0.33372918774E+02  0.20000010012E+01 0.  0.
         13    1    3    3    0    0  0.44711971470E+01 -0.32347800989E+02  0.58057807790E+02  0.66611500825E+02  0.10566000000E+00 0. -1.
         13    1    4    4    0    0  0.25591090803E-01  0.17054298236E+01  0.24472430542E+00  0.17263255222E+01  0.10566000000E+00 0. -1.
        -13    1    4    4    0    0 -0.19825461833E+01  0.17939106319E+02  0.33757889145E+01  0.18361621381E+02  0.10566000000E+00 0.  1.
        -14    1    4    4    0    0 -0.25142420545E+01  0.12703264846E+02  0.29658264880E+01  0.13284971871E+02  0.00000000000E+00 0.  1.
<mgrwt>
<rscale>  0 0.76275936E+02</rscale>
<asrwt>0</asrwt>
<pdfrwt beam="1">  1        1 0.12663736E-01 0.76275936E+02</pdfrwt>
<pdfrwt beam="2">  1       -2 0.27184824E-02 0.76275936E+02</pdfrwt>
<totfact> 0.16199024E+05</totfact>
</mgrwt>
</event>
<event>
 8    1  0.8577104E-018  0.8021688E+02  0.7818608E-02  0.1328437E+00
         -2   -1    0    0    0  501 -0.00000000000E+00  0.00000000000E+00  0.27015281811E+02  0.27015281931E+02  0.25500000000E-02 0.  1.
          1   -1    0    0  501    0  0.00000000000E+00 -0.00000000000E+00 -0.59547299893E+02  0.59547300106E+02  0.50400000000E-02 0. -1.
        -24    2    1    2    0    0 -0.17763568394E-14 -0.88817841970E-15 -0.32532018081E+02  0.86562582037E+02  0.80216883563E+02 0.  0.
         66    2    3    3    0    0 -0.11370206774E+02 -0.57325438731E+01  0.24737609997E+02  0.27894318678E+02  0.20000011940E+01 0.  0.
         13    1    3    3    0    0  0.11370206774E+02  0.57325438731E+01 -0.57269628079E+02  0.58668263360E+02  0.10566000000E+00 0. -1.
         13    1    4    4    0    0 -0.17411649060E+01 -0.11260745611E+01  0.28294522599E+01  0.35095104038E+01  0.10566000000E+00 0. -1.
        -13    1    4    4    0    0 -0.82356451171E+01 -0.42538995068E+01  0.19023284173E+02  0.21161711091E+02  0.10566000000E+00 0.  1.
        -14    1    4    4    0    0 -0.13933967507E+01 -0.35256980520E+00  0.28848735640E+01  0.32230971833E+01  0.00000000000E+00 0.  1.
<mgrwt>
<rscale>  0 0.80216884E+02</rscale>
<asrwt>0</asrwt>
<pdfrwt beam="1">  1        1 0.91611231E-02 0.80216884E+02</pdfrwt>
<pdfrwt beam="2">  1       -2 0.41561972E-02 0.80216884E+02</pdfrwt>
<totfact> 0.13421831E+05</totfact>
</mgrwt>
</event>
<event>
 8    1  0.8577104E-018  0.8169856E+02  0.7818608E-02  0.1324299E+00
         -2   -1    0    0    0  501 -0.00000000000E+00  0.00000000000E+00  0.52220310213E+02  0.52220310275E+02  0.25500000000E-02 0.  1.
          1   -1    0    0  501    0  0.00000000000E+00 -0.00000000000E+00 -0.31954305095E+02  0.31954305492E+02  0.50400000000E-02 0. -1.
        -24    2    1    2    0    0  0.00000000000E+00  0.00000000000E+00  0.20266005118E+02  0.84174615767E+02  0.81698561653E+02 0.  0.
         66    2    3    3    0    0  0.29836826544E+02 -0.11998139291E+02  0.36050151164E+02  0.48350852772E+02  0.20000000451E+01 0.  0.
         13    1    3    3    0    0 -0.29836826544E+02  0.11998139291E+02 -0.15784146046E+02  0.35823762995E+02  0.10566000000E+00 0. -1.
         13    1    4    4    0    0  0.11362150342E+02 -0.43921246408E+01  0.12827140566E+02  0.17689994867E+02  0.10566000000E+00 0. -1.
        -13    1    4    4    0    0  0.64803564279E+01 -0.20410667061E+01  0.80923753832E+01  0.10566866901E+02  0.10566000000E+00 0.  1.
         14    1    4    4    0    0  0.11994319775E+02 -0.55649479443E+01  0.15130635214E+02  0.20093991004E+02  0.00000000000E+00 0. -1.
<mgrwt>
<rscale>  0 0.81698562E+02</rscale>
<asrwt>0</asrwt>
<pdfrwt beam="1">  1        1 0.49160471E-02 0.81698562E+02</pdfrwt>
<pdfrwt beam="2">  1       -2 0.80338938E-02 0.81698562E+02</pdfrwt>
<totfact> 0.11514274E+05</totfact>
</mgrwt>
</event>
<event>
 8    1  0.8577104E-018  0.8040450E+02  0.7818608E-02  0.1327907E+00
         -2   -1    0    0    0  501 -0.00000000000E+00  0.00000000000E+00  0.74487330825E+01  0.74487335190E+01  0.25500000000E-02 0.  1.
          1   -1    0    0  501    0  0.00000000000E+00 -0.00000000000E+00 -0.21697932104E+03  0.21697932110E+03  0.50400000000E-02 0. -1.
        -24    2    1    2    0    0  0.00000000000E+00  0.00000000000E+00 -0.20953058796E+03  0.22442805462E+03  0.80404504909E+02 0.  0.
         66    2    3    3    0    0  0.91841500910E+01 -0.39054385277E+02 -0.98828765914E+02  0.10668045086E+03  0.20000004943E+01 0.  0.
         13    1    3    3    0    0 -0.91841500910E+01  0.39054385277E+02 -0.11070182205E+03  0.11774760376E+03  0.10566000000E+00 0. -1.
         13    1    4    4    0    0  0.51284092499E+01 -0.18728142619E+02 -0.48736778663E+02  0.52462640668E+02  0.10566000000E+00 0. -1.
        -13    1    4    4    0    0  0.97450456008E+00 -0.69014754868E+01 -0.16631206116E+02  0.18032975460E+02  0.10566000000E+00 0. -1.
        -14    1    4    4    0    0  0.30812362810E+01 -0.13424767171E+02 -0.33460781135E+02  0.36184834735E+02  0.00000000000E+00 0.  1.
<mgrwt>
<rscale>  0 0.80404505E+02</rscale>
<asrwt>0</asrwt>
<pdfrwt beam="1">  1        1 0.33381429E-01 0.80404505E+02</pdfrwt>
<pdfrwt beam="2">  1       -2 0.11459591E-02 0.80404505E+02</pdfrwt>
<totfact> 0.16715436E+05</totfact>
</mgrwt>
</event>
<event>
 8    1  0.8577104E-018  0.8322001E+02  0.7818608E-02  0.1320154E+00
         -2   -1    0    0    0  501 -0.00000000000E+00  0.00000000000E+00  0.15933020828E+03  0.15933020830E+03  0.25500000000E-02 0.  1.
          1   -1    0    0  501    0  0.00000000000E+00 -0.00000000000E+00 -0.10866692286E+02  0.10866693454E+02  0.50400000000E-02 0. -1.
        -24    2    1    2    0    0  0.00000000000E+00  0.71054273576E-14  0.14846351600E+03  0.17019690176E+03  0.83220008326E+02 0.  0.
         66    2    3    3    0    0  0.97374555568E+01  0.39633948290E+02  0.90599777113E+02  0.99388065166E+02  0.19999966995E+01 0.  0.
         13    1    3    3    0    0 -0.97374555568E+01 -0.39633948290E+02  0.57863738886E+02  0.70808836593E+02  0.10566000000E+00 0. -1.
         13    1    4    4    0    0  0.57544433745E+01  0.26235451664E+02  0.58318970202E+02  0.64206899878E+02  0.10566000000E+00 0. -1.
        -13    1    4    4    0    0  0.11169206957E+01  0.38120968094E+01  0.97396347290E+01  0.10519089438E+02  0.10566000000E+00 0.  1.
        -14    1    4    4    0    0  0.28660914867E+01  0.95863998166E+01  0.22541172182E+02  0.24662075849E+02  0.00000000000E+00 0.  1.
<mgrwt>
<rscale>  0 0.83220008E+02</rscale>
<asrwt>0</asrwt>
<pdfrwt beam="1">  1        1 0.16717990E-02 0.83220008E+02</pdfrwt>
<pdfrwt beam="2">  1       -2 0.24512338E-01 0.83220008E+02</pdfrwt>
<totfact> 0.83656528E+04</totfact>
</mgrwt>
</event>
<event>
 8    1  0.8577104E-018  0.8286514E+02  0.7818608E-02  0.1321112E+00
          1   -1    0    0  501    0  0.00000000000E+00  0.00000000000E+00  0.12071837861E+03  0.12071837871E+03  0.50400000000E-02 0. -1.
         -2   -1    0    0    0  501 -0.00000000000E+00 -0.00000000000E+00 -0.14220351051E+02  0.14220351280E+02  0.25500000000E-02 0.  1.
        -24    2    1    2    0    0  0.00000000000E+00  0.00000000000E+00  0.10649802756E+03  0.13493872999E+03  0.82865137293E+02 0.  0.
         66    2    3    3    0    0 -0.73726798732E+01  0.20685126661E+02 -0.38869296622E+01  0.22390603319E+02  0.20000053185E+01 0.  0.
         13    1    3    3    0    0  0.73726798732E+01 -0.20685126661E+02  0.11038495722E+03  0.11254812667E+03  0.10566000000E+00 0. -1.
         13    1    4    4    0    0 -0.36151641028E+01  0.10822376760E+02 -0.11464215615E+01  0.11468160125E+02  0.10566000000E+00 0. -1.
        -13    1    4    4    0    0 -0.12184852569E+01  0.39355587675E+01 -0.12097886154E+01  0.42951230091E+01  0.10566000000E+00 0.  1.
         14    1    4    4    0    0 -0.25390305134E+01  0.59271911341E+01 -0.15307194853E+01  0.66273201848E+01  0.00000000000E+00 0. -1.
<mgrwt>
<rscale>  0 0.82865137E+02</rscale>
<asrwt>0</asrwt>
<pdfrwt beam="1">  1        1 0.18572058E-01 0.82865137E+02</pdfrwt>
<pdfrwt beam="2">  1       -2 0.21877464E-02 0.82865137E+02</pdfrwt>
<totfact> 0.13809448E+05</totfact>
</mgrwt>
</event>
<event>
 8    1  0.8577104E-018  0.7080437E+02  0.7818608E-02  0.1357379E+00
          1   -1    0    0  501    0  0.00000000000E+00  0.00000000000E+00  0.72559912033E+01  0.72559929537E+01  0.50400000000E-02 0. -1.
         -2   -1    0    0    0  501 -0.00000000000E+00 -0.00000000000E+00 -0.17272823014E+03  0.17272823016E+03  0.25500000000E-02 0.  1.
        -24    2    1    2    0    0  0.00000000000E+00  0.17763568394E-14 -0.16547223894E+03  0.17998422311E+03  0.70804369291E+02 0.  0.
         66    2    3    3    0    0 -0.20769530315E+02  0.15686258022E+02 -0.14369729401E+03  0.14604911635E+03  0.20000003374E+01 0.  0.
         13    1    3    3    0    0  0.20769530315E+02 -0.15686258022E+02 -0.21774944929E+02  0.33935106762E+02  0.10566000000E+00 0. -1.
         13    1    4    4    0    0 -0.12906184076E+01  0.13358765970E+01 -0.95325070083E+01  0.97123692297E+01  0.10566000000E+00 0. -1.
        -13    1    4    4    0    0 -0.38205824773E+01  0.31638695212E+01 -0.24720480128E+02  0.25213492868E+02  0.10566000000E+00 0.  1.
        -14    1    4    4    0    0 -0.15658329431E+02  0.11186511904E+02 -0.10944430687E+03  0.11112325425E+03  0.00000000000E+00 0.  1.
<mgrwt>
<rscale>  0 0.70804369E+02</rscale>
<asrwt>0</asrwt>
<pdfrwt beam="1">  1        1 0.11163066E-02 0.70804369E+02</pdfrwt>
<pdfrwt beam="2">  1       -2 0.26573571E-01 0.70804369E+02</pdfrwt>
<totfact> 0.12310965E+05</totfact>
</mgrwt>
</event>
<event>
 8    1  0.8577104E-018  0.7984955E+02  0.7818608E-02  0.1329479E+00
         -2   -1    0    0    0  501 -0.00000000000E+00  0.00000000000E+00  0.13400437431E+03  0.13400437434E+03  0.25500000000E-02 0.  1.
          1   -1    0    0  501    0  0.00000000000E+00 -0.00000000000E+00 -0.11895041846E+02  0.11895042914E+02  0.50400000000E-02 0. -1.
        -24    2    1    2    0    0  0.00000000000E+00  0.00000000000E+00  0.12210933246E+03  0.14589941725E+03  0.79849551524E+02 0.  0.
         66    2    3    3    0    0  0.19058738574E+02  0.23524348498E+02  0.10857674901E+03  0.11273659971E+03  0.20000001067E+01 0.  0.
         13    1    3    3    0    0 -0.19058738574E+02 -0.23524348498E+02  0.13532583459E+02  0.33162817543E+02  0.10566000000E+00 0. -1.
         13    1    4    4    0    0  0.43807761739E+01  0.57642332012E+01  0.28636726158E+02  0.29537955809E+02  0.10566000000E+00 0. -1.
        -13    1    4    4    0    0  0.92783337675E+01  0.10633836426E+02  0.48316383254E+02  0.50335375328E+02  0.10566000000E+00 0.  1.
         14    1    4    4    0    0  0.53996286326E+01  0.71262788707E+01  0.31623639594E+02  0.32863268569E+02  0.00000000000E+00 0. -1.
<mgrwt>
<rscale>  0 0.79849552E+02</rscale>
<asrwt>0</asrwt>
<pdfrwt beam="1">  1        1 0.18300065E-02 0.79849552E+02</pdfrwt>
<pdfrwt beam="2">  1       -2 0.20616058E-01 0.79849552E+02</pdfrwt>
<totfact> 0.98412078E+04</totfact>
</mgrwt>
</event>
<event>
 8    1  0.8577104E-018  0.8025252E+02  0.7818608E-02  0.1328336E+00
          1   -1    0    0  501    0  0.00000000000E+00  0.00000000000E+00  0.84699364042E+01  0.84699379037E+01  0.50400000000E-02 0. -1.
         -2   -1    0    0    0  501 -0.00000000000E+00 -0.00000000000E+00 -0.19009783064E+03  0.19009783065E+03  0.25500000000E-02 0.  1.
        -24    2    1    2    0    0  0.00000000000E+00  0.00000000000E+00 -0.18162789423E+03  0.19856776856E+03  0.80252518631E+02 0.  0.
         66    2    3    3    0    0  0.35854786466E+02  0.14918800637E+02 -0.11561001815E+03  0.12197463929E+03  0.20000018833E+01 0.  0.
         13    1    3    3    0    0 -0.35854786466E+02 -0.14918800637E+02 -0.66017876083E+02  0.76593129271E+02  0.10566000000E+00 0. -1.
         13    1    4    4    0    0  0.13290563595E+02  0.54893744291E+01 -0.45380949736E+02  0.47604769460E+02  0.10566000000E+00 0. -1.
        -13    1    4    4    0    0  0.10361473122E+02  0.42672479752E+01 -0.33413425357E+02  0.35242555081E+02  0.10566000000E+00 0.  1.
        -14    1    4    4    0    0  0.12202749749E+02  0.51621782329E+01 -0.36815643057E+02  0.39127314746E+02  0.00000000000E+00 0.  1.
<mgrwt>
<rscale>  0 0.80252519E+02</rscale>
<asrwt>0</asrwt>
<pdfrwt beam="1">  1        1 0.13030674E-02 0.80252519E+02</pdfrwt>
<pdfrwt beam="2">  1       -2 0.29245817E-01 0.80252519E+02</pdfrwt>
<totfact> 0.86111433E+04</totfact>
</mgrwt>
</event>
<event>
 8    1  0.8577104E-018  0.8077836E+02  0.7818608E-02  0.1326857E+00
          1   -1    0    0  501    0  0.00000000000E+00  0.00000000000E+00  0.46809673640E+02  0.46809673911E+02  0.50400000000E-02 0. -1.
         -2   -1    0    0    0  501 -0.00000000000E+00 -0.00000000000E+00 -0.34849331752E+02  0.34849331845E+02  0.25500000000E-02 0.  1.
        -24    2    1    2    0    0  0.71054273576E-14  0.00000000000E+00  0.11960341888E+02  0.81659005756E+02  0.80778359992E+02 0.  0.
         66    2    3    3    0    0  0.34666592275E+02  0.10672858302E+02 -0.11917942593E+02  0.38232445242E+02  0.19999973029E+01 0.  0.
         13    1    3    3    0    0 -0.34666592275E+02 -0.10672858302E+02  0.23878284480E+02  0.43426560514E+02  0.10566000000E+00 0. -1.
         13    1    4    4    0    0  0.87350106070E+01  0.22852952996E+01 -0.24530002953E+01  0.93568883393E+01  0.10566000000E+00 0. -1.
        -13    1    4    4    0    0  0.22551898316E+02  0.69366330505E+01 -0.84173221127E+01  0.25051296799E+02  0.10566000000E+00 0.  1.
        -14    1    4    4    0    0  0.33796833521E+01  0.14509299516E+01 -0.10476201845E+01  0.38242601031E+01  0.00000000000E+00 0.  1.
<mgrwt>
<rscale>  0 0.80778360E+02</rscale>
<asrwt>0</asrwt>
<pdfrwt beam="1">  1        1 0.72014883E-02 0.80778360E+02</pdfrwt>
<pdfrwt beam="2">  1       -2 0.53614357E-02 0.80778360E+02</pdfrwt>
<totfact> 0.12673510E+05</totfact>
</mgrwt>
</event>
<event>
 8    1  0.8577104E-018  0.7880953E+02  0.7818608E-02  0.1332464E+00
         -2   -1    0    0    0  501 -0.00000000000E+00  0.00000000000E+00  0.20464725738E+02  0.20464725897E+02  0.25500000000E-02 0.  1.
          1   -1    0    0  501    0  0.00000000000E+00 -0.00000000000E+00 -0.75873748101E+02  0.75873748269E+02  0.50400000000E-02 0. -1.
        -24    2    1    2    0    0  0.00000000000E+00  0.17763568394E-14 -0.55409022363E+02  0.96338474166E+02  0.78809528900E+02 0.  0.
         66    2    3    3    0    0  0.38171399945E+02 -0.74315287095E+01 -0.35302020864E+02  0.52559642911E+02  0.19999982950E+01 0.  0.
         13    1    3    3    0    0 -0.38171399945E+02  0.74315287095E+01 -0.20107001499E+02  0.43778831254E+02  0.10566000000E+00 0. -1.
         13    1    4    4    0    0  0.99633420833E+01 -0.19918239497E+01 -0.10195027434E+02  0.14393932629E+02  0.10566000000E+00 0. -1.
        -13    1    4    4    0    0  0.15134759875E+02 -0.34084462900E+01 -0.13449448674E+02  0.20532347558E+02  0.10566000000E+00 0.  1.
        -14    1    4    4    0    0  0.13073297987E+02 -0.20312584698E+01 -0.11657544756E+02  0.17633362724E+02  0.00000000000E+00 0.  1.
<mgrwt>
<rscale>  0 0.78809529E+02</rscale>
<asrwt>0</asrwt>
<pdfrwt beam="1">  1        1 0.11672884E-01 0.78809529E+02</pdfrwt>
<pdfrwt beam="2">  1       -2 0.31484194E-02 0.78809529E+02</pdfrwt>
<totfact> 0.14635679E+05</totfact>
</mgrwt>
</event>
<event>
 8    1  0.8577104E-018  0.7711998E+02  0.7818608E-02  0.1337429E+00
          1   -1    0    0  501    0  0.00000000000E+00  0.00000000000E+00  0.18073276061E+03  0.18073276068E+03  0.50400000000E-02 0. -1.
         -2   -1    0    0    0  501 -0.00000000000E+00 -0.00000000000E+00 -0.82269144907E+01  0.82269148859E+01  0.25500000000E-02 0.  1.
        -24    2    1    2    0    0  0.00000000000E+00 -0.17763568394E-14  0.17250584612E+03  0.18895967557E+03  0.77119984730E+02 0.  0.
         66    2    3    3    0    0 -0.31399799375E+02 -0.10212121134E+02  0.37636544519E+02  0.50107327739E+02  0.19999977477E+01 0.  0.
         13    1    3    3    0    0  0.31399799375E+02  0.10212121134E+02  0.13486930160E+03  0.13885234783E+03  0.10566000000E+00 0. -1.
         13    1    4    4    0    0 -0.13179535850E+02 -0.41165446021E+01  0.16647016970E+02  0.21628232538E+02  0.10566000000E+00 0. -1.
        -13    1    4    4    0    0 -0.17639747464E+02 -0.59412124757E+01  0.20596637123E+02  0.27761327798E+02  0.10566000000E+00 0.  1.
         14    1    4    4    0    0 -0.58051606102E+00 -0.15436405604E+00  0.39289042622E+00  0.71776740377E+00  0.00000000000E+00 0. -1.
<mgrwt>
<rscale>  0 0.77119985E+02</rscale>
<asrwt>0</asrwt>
<pdfrwt beam="1">  1        1 0.27805039E-01 0.77119985E+02</pdfrwt>
<pdfrwt beam="2">  1       -2 0.12656792E-02 0.77119985E+02</pdfrwt>
<totfact> 0.18022854E+05</totfact>
</mgrwt>
</event>
<event>
 8    1  0.8577104E-018  0.8247586E+02  0.7818608E-02  0.1322169E+00
          1   -1    0    0  501    0  0.00000000000E+00  0.00000000000E+00  0.52497436588E+02  0.52497436830E+02  0.50400000000E-02 0. -1.
         -2   -1    0    0    0  501 -0.00000000000E+00 -0.00000000000E+00 -0.32393331483E+02  0.32393331583E+02  0.25500000000E-02 0.  1.
        -24    2    1    2    0    0  0.88817841970E-15  0.71054273576E-14  0.20104105105E+02  0.84890768413E+02  0.82475860224E+02 0.  0.
         66    2    3    3    0    0 -0.29528726445E+01 -0.40263816675E+02  0.15287293192E+01  0.40450357302E+02  0.20000006174E+01 0.  0.
         13    1    3    3    0    0  0.29528726445E+01  0.40263816675E+02  0.18575375786E+02  0.44440411111E+02  0.10566000000E+00 0. -1.
         13    1    4    4    0    0 -0.19213148183E+01 -0.15837047901E+02  0.12033656238E+01  0.15998837136E+02  0.10566000000E+00 0. -1.
        -13    1    4    4    0    0 -0.57902582827E+00 -0.13552500769E+02  0.11106466066E+00  0.13565730625E+02  0.10566000000E+00 0.  1.
         14    1    4    4    0    0 -0.45253199791E+00 -0.10874268005E+02  0.21429903472E+00  0.10885789541E+02  0.00000000000E+00 0. -1.
<mgrwt>
<rscale>  0 0.82475860E+02</rscale>
<asrwt>0</asrwt>
<pdfrwt beam="1">  1        1 0.80765286E-02 0.82475860E+02</pdfrwt>
<pdfrwt beam="2">  1       -2 0.49835896E-02 0.82475860E+02</pdfrwt>
<totfact> 0.12180407E+05</totfact>
</mgrwt>
</event>
<event>
 8    1  0.8577104E-018  0.7908790E+02  0.7818608E-02  0.1331660E+00
          1   -1    0    0  501    0  0.00000000000E+00  0.00000000000E+00  0.42350774781E+02  0.42350775080E+02  0.50400000000E-02 0. -1.
         -2   -1    0    0    0  501 -0.00000000000E+00 -0.00000000000E+00 -0.36923152256E+02  0.36923152344E+02  0.25500000000E-02 0.  1.
        -24    2    1    2    0    0  0.00000000000E+00  0.00000000000E+00  0.54276225242E+01  0.79273927425E+02  0.79087903519E+02 0.  0.
         66    2    3    3    0    0  0.15968839261E+02  0.99659278490E+01 -0.32113787394E+02  0.37277592253E+02  0.19999995359E+01 0.  0.
         13    1    3    3    0    0 -0.15968839261E+02 -0.99659278490E+01  0.37541409918E+02  0.41996335172E+02  0.10566000000E+00 0. -1.
         13    1    4    4    0    0  0.23795866442E+01  0.20186392436E+01 -0.55847922552E+01  0.63983127122E+01  0.10566000000E+00 0. -1.
        -13    1    4    4    0    0  0.78525457683E+01  0.53696966673E+01 -0.16094117118E+02  0.18695664930E+02  0.10566000000E+00 0.  1.
        -14    1    4    4    0    0  0.57367068485E+01  0.25775919381E+01 -0.10434878021E+02  0.12183614610E+02  0.00000000000E+00 0.  1.
<mgrwt>
<rscale>  0 0.79087904E+02</rscale>
<asrwt>0</asrwt>
<pdfrwt beam="1">  1        1 0.65155038E-02 0.79087904E+02</pdfrwt>
<pdfrwt beam="2">  1       -2 0.56804850E-02 0.79087904E+02</pdfrwt>
<totfact> 0.13233911E+05</totfact>
</mgrwt>
</event>
<event>
 8    1  0.8577104E-018  0.8041013E+02  0.7818608E-02  0.1327892E+00
          1   -1    0    0  501    0  0.00000000000E+00  0.00000000000E+00  0.32730754946E+02  0.32730755334E+02  0.50400000000E-02 0. -1.
         -2   -1    0    0    0  501 -0.00000000000E+00 -0.00000000000E+00 -0.49386183246E+02  0.49386183312E+02  0.25500000000E-02 0.  1.
        -24    2    1    2    0    0  0.00000000000E+00  0.35527136788E-14 -0.16655428300E+02  0.82116938646E+02  0.80410125735E+02 0.  0.
         66    2    3    3    0    0 -0.26399426853E+02  0.22514105754E+02 -0.29026924865E+02  0.45281089431E+02  0.19999992254E+01 0.  0.
         13    1    3    3    0    0  0.26399426853E+02 -0.22514105754E+02  0.12371496565E+02  0.36835849214E+02  0.10566000000E+00 0. -1.
         13    1    4    4    0    0 -0.81195949863E+01  0.57949671042E+01 -0.80885283516E+01  0.12843088469E+02  0.10566000000E+00 0. -1.
        -13    1    4    4    0    0 -0.66939400943E+01  0.61406219041E+01 -0.78724743631E+01  0.12020943723E+02  0.10566000000E+00 0.  1.
         14    1    4    4    0    0 -0.11585891772E+02  0.10578516746E+02 -0.13065922151E+02  0.20417057240E+02  0.00000000000E+00 0. -1.
<mgrwt>
<rscale>  0 0.80410126E+02</rscale>
<asrwt>0</asrwt>
<pdfrwt beam="1">  1        1 0.50355008E-02 0.80410126E+02</pdfrwt>
<pdfrwt beam="2">  1       -2 0.75978743E-02 0.80410126E+02</pdfrwt>
<totfact> 0.12101765E+05</totfact>
</mgrwt>
</event>
<event>
 8    1  0.8577104E-018  0.7963348E+02  0.7818608E-02  0.1330095E+00
         -2   -1    0    0    0  501 -0.00000000000E+00  0.00000000000E+00  0.56807668339E+02  0.56807668397E+02  0.25500000000E-02 0.  1.
          1   -1    0    0  501    0  0.00000000000E+00 -0.00000000000E+00 -0.27907727772E+02  0.27907728227E+02  0.50400000000E-02 0. -1.
        -24    2    1    2    0    0 -0.35527136788E-14 -0.35527136788E-14  0.28899940568E+02  0.84715396623E+02  0.79633484542E+02 0.  0.
         66    2    3    3    0    0  0.27914141949E+02  0.28286936116E+02  0.12326660057E+02  0.41656891465E+02  0.19999956864E+01 0.  0.
         13    1    3    3    0    0 -0.27914141949E+02 -0.28286936116E+02  0.16573280511E+02  0.43058505159E+02  0.10566000000E+00 0. -1.
         13    1    4    4    0    0  0.18202318637E+02  0.17935013322E+02  0.77679703594E+01  0.26708456230E+02  0.10566000000E+00 0. -1.
        -13    1    4    4    0    0  0.68702316686E+01  0.69338711286E+01  0.26808170991E+01  0.10123072476E+02  0.10566000000E+00 0.  1.
         14    1    4    4    0    0  0.28415916432E+01  0.34180516656E+01  0.18778725989E+01  0.48253627587E+01  0.00000000000E+00 0. -1.
<mgrwt>
<rscale>  0 0.79633485E+02</rscale>
<asrwt>0</asrwt>
<pdfrwt beam="1">  1        1 0.42934966E-02 0.79633485E+02</pdfrwt>
<pdfrwt beam="2">  1       -2 0.87396413E-02 0.79633485E+02</pdfrwt>
<totfact> 0.12098184E+05</totfact>
</mgrwt>
</event>
<event>
 8    1  0.8577104E-018  0.8204742E+02  0.7818608E-02  0.1323340E+00
         -2   -1    0    0    0  501 -0.00000000000E+00  0.00000000000E+00  0.12691626478E+02  0.12691626734E+02  0.25500000000E-02 0.  1.
          1   -1    0    0  501    0  0.00000000000E+00 -0.00000000000E+00 -0.13260276932E+03  0.13260276942E+03  0.50400000000E-02 0. -1.
        -24    2    1    2    0    0  0.00000000000E+00  0.00000000000E+00 -0.11991114285E+03  0.14529439615E+03  0.82047421501E+02 0.  0.
         66    2    3    3    0    0 -0.15312632930E+02  0.15338041280E+02  0.16390519702E+01  0.21827018837E+02  0.20000055878E+01 0.  0.
         13    1    3    3    0    0  0.15312632930E+02 -0.15338041280E+02 -0.12155019482E+03  0.12346737732E+03  0.10566000000E+00 0. -1.
         13    1    4    4    0    0 -0.62635668532E+01  0.62657204788E+01  0.60528676252E+00  0.88808253526E+01  0.10566000000E+00 0.  1.
        -13    1    4    4    0    0 -0.31228535646E+01  0.32494602470E+01 -0.35812293843E+00  0.45222364331E+01  0.10566000000E+00 0. -1.
         14    1    4    4    0    0 -0.59262125126E+01  0.58228605547E+01  0.13918881461E+01  0.84239570509E+01  0.00000000000E+00 0. -1.
<mgrwt>
<rscale>  0 0.82047422E+02</rscale>
<asrwt>0</asrwt>
<pdfrwt beam="1">  1        1 0.20400425E-01 0.82047422E+02</pdfrwt>
<pdfrwt beam="2">  1       -2 0.19525580E-02 0.82047422E+02</pdfrwt>
<totfact> 0.14425309E+05</totfact>
</mgrwt>
</event>
<event>
 8    1  0.8577104E-018  0.7998632E+02  0.7818608E-02  0.1329090E+00
          1   -1    0    0  501    0  0.00000000000E+00  0.00000000000E+00  0.25151758886E+02  0.25151759391E+02  0.50400000000E-02 0. -1.
         -2   -1    0    0    0  501 -0.00000000000E+00 -0.00000000000E+00 -0.63592090033E+02  0.63592090084E+02  0.25500000000E-02 0.  1.
        -24    2    1    2    0    0  0.00000000000E+00 -0.17763568394E-14 -0.38440331147E+02  0.88743849475E+02  0.79986322337E+02 0.  0.
         66    2    3    3    0    0 -0.10480515673E+02  0.79195896727E+01 -0.61112732526E+02  0.62540604301E+02  0.20000000302E+01 0.  0.
         13    1    3    3    0    0  0.10480515673E+02 -0.79195896727E+01  0.22672401379E+02  0.26203245175E+02  0.10566000000E+00 0. -1.
         13    1    4    4    0    0 -0.39864428733E+01  0.25813422860E+01 -0.19637341028E+02  0.20203746719E+02  0.10566000000E+00 0. -1.
        -13    1    4    4    0    0 -0.19781077807E+01  0.16604608829E+01 -0.15727242292E+02  0.15938235627E+02  0.10566000000E+00 0.  1.
         14    1    4    4    0    0 -0.45159650190E+01  0.36777865038E+01 -0.25748149205E+02  0.26398621955E+02  0.00000000000E+00 0. -1.
<mgrwt>
<rscale>  0 0.79986322E+02</rscale>
<asrwt>0</asrwt>
<pdfrwt beam="1">  1        1 0.38695014E-02 0.79986322E+02</pdfrwt>
<pdfrwt beam="2">  1       -2 0.97833984E-02 0.79986322E+02</pdfrwt>
<totfact> 0.11714620E+05</totfact>
</mgrwt>
</event>
<event>
 8    1  0.8577104E-018  0.8726139E+02  0.7818608E-02  0.1309622E+00
          1   -1    0    0  501    0  0.00000000000E+00  0.00000000000E+00  0.11974153411E+02  0.11974154471E+02  0.50400000000E-02 0. -1.
         -2   -1    0    0    0  501 -0.00000000000E+00 -0.00000000000E+00 -0.15897888057E+03  0.15897888059E+03  0.25500000000E-02 0.  1.
        -24    2    1    2    0    0  0.35527136788E-14  0.00000000000E+00 -0.14700472716E+03  0.17095303506E+03  0.87261391175E+02 0.  0.
         66    2    3    3    0    0 -0.30403745681E+02 -0.26593781096E+02 -0.10573295244E+03  0.11320368445E+03  0.19999987958E+01 0.  0.
         13    1    3    3    0    0  0.30403745681E+02  0.26593781096E+02 -0.41271774717E+02  0.57749350618E+02  0.10566000000E+00 0. -1.
         13    1    4    4    0    0 -0.90481786909E+01 -0.78271070050E+01 -0.32631868640E+02  0.34756052087E+02  0.10566000000E+00 0. -1.
        -13    1    4    4    0    0 -0.18954326322E+02 -0.16151942622E+02 -0.64710413170E+02  0.69336862299E+02  0.10566000000E+00 0.  1.
         14    1    4    4    0    0 -0.24012406690E+01 -0.26147314691E+01 -0.83906706344E+01  0.91107700608E+01  0.00000000000E+00 0. -1.
<mgrwt>
<rscale>  0 0.87261391E+02</rscale>
<asrwt>0</asrwt>
<pdfrwt beam="1">  1        1 0.18421777E-02 0.87261391E+02</pdfrwt>
<pdfrwt beam="2">  1       -2 0.24458288E-01 0.87261391E+02</pdfrwt>
<totfact> 0.74066288E+04</totfact>
</mgrwt>
</event>
<event>
 8    1  0.8577104E-018  0.8026525E+02  0.7818608E-02  0.1328300E+00
         -2   -1    0    0    0  501 -0.00000000000E+00  0.00000000000E+00  0.18326865832E+03  0.18326865833E+03  0.25500000000E-02 0.  1.
          1   -1    0    0  501    0  0.00000000000E+00 -0.00000000000E+00 -0.87883414119E+01  0.87883428571E+01  0.50400000000E-02 0. -1.
        -24    2    1    2    0    0  0.00000000000E+00  0.00000000000E+00  0.17448031690E+03  0.19205700119E+03  0.80265252254E+02 0.  0.
         66    2    3    3    0    0  0.51401966485E+01  0.33100030193E+02  0.14007591885E+03  0.14403921918E+03  0.19999994943E+01 0.  0.
         13    1    3    3    0    0 -0.51401966485E+01 -0.33100030193E+02  0.34404398052E+02  0.48017782015E+02  0.10566000000E+00 0. -1.
         13    1    4    4    0    0  0.69534494260E+00  0.19518762808E+01  0.82739220994E+01  0.85300806882E+01  0.10566000000E+00 0. -1.
        -13    1    4    4    0    0  0.33484364084E+01  0.21117248888E+02  0.88147662696E+02  0.90703758631E+02  0.10566000000E+00 0.  1.
        -14    1    4    4    0    0  0.10964152975E+01  0.10030905023E+02  0.43654334058E+02  0.44805379857E+02  0.00000000000E+00 0.  1.
<mgrwt>
<rscale>  0 0.80265252E+02</rscale>
<asrwt>0</asrwt>
<pdfrwt beam="1">  1        1 0.13520526E-02 0.80265252E+02</pdfrwt>
<pdfrwt beam="2">  1       -2 0.28195180E-01 0.80265252E+02</pdfrwt>
<totfact> 0.87299985E+04</totfact>
</mgrwt>
</event>
<event>
 8    1  0.8577104E-018  0.7608781E+02  0.7818608E-02  0.1340535E+00
         -2   -1    0    0    0  501 -0.00000000000E+00  0.00000000000E+00  0.16197238552E+03  0.16197238554E+03  0.25500000000E-02 0.  1.
          1   -1    0    0  501    0  0.00000000000E+00 -0.00000000000E+00 -0.89357117158E+01  0.89357131371E+01  0.50400000000E-02 0. -1.
        -24    2    1    2    0    0  0.88817841970E-15  0.00000000000E+00  0.15303667380E+03  0.17090809868E+03  0.76087808908E+02 0.  0.
         66    2    3    3    0    0  0.63350607018E+01  0.27343417637E+02  0.13416914848E+03  0.13708813182E+03  0.20000002868E+01 0.  0.
         13    1    3    3    0    0 -0.63350607018E+01 -0.27343417637E+02  0.18867525329E+02  0.33819966857E+02  0.10566000000E+00 0. -1.
         13    1    4    4    0    0  0.42748167148E+01  0.20793445664E+02  0.98832959830E+02  0.10108712358E+03  0.10566000000E+00 0. -1.
        -13    1    4    4    0    0  0.19383278373E+01  0.55580704866E+01  0.30221810588E+02  0.30789905190E+02  0.10566000000E+00 0.  1.
        -14    1    4    4    0    0  0.12191614977E+00  0.99190148610E+00  0.51143780577E+01  0.52111030524E+01  0.00000000000E+00 0.  1.
<mgrwt>
<rscale>  0 0.76087809E+02</rscale>
<asrwt>0</asrwt>
<pdfrwt beam="1">  1        1 0.13747252E-02 0.76087809E+02</pdfrwt>
<pdfrwt beam="2">  1       -2 0.24918825E-01 0.76087809E+02</pdfrwt>
<totfact> 0.10476496E+05</totfact>
</mgrwt>
</event>
<event>
 8    1  0.8577104E-018  0.7950295E+02  0.7818608E-02  0.1330468E+00
          1   -1    0    0  501    0  0.00000000000E+00  0.00000000000E+00  0.21050790614E+03  0.21050790620E+03  0.50400000000E-02 0. -1.
         -2   -1    0    0    0  501 -0.00000000000E+00 -0.00000000000E+00 -0.75065101163E+01  0.75065105494E+01  0.25500000000E-02 0.  1.
        -24    2    1    2    0    0 -0.35527136788E-14  0.35527136788E-14  0.20300139603E+03  0.21801441675E+03  0.79502950406E+02 0.  0.
         66    2    3    3    0    0  0.25798371373E+02 -0.29361080663E+02  0.12106070818E+03  0.12722941517E+03  0.19999991597E+01 0.  0.
         13    1    3    3    0    0 -0.25798371373E+02  0.29361080663E+02  0.81940687843E+02  0.90785001577E+02  0.10566000000E+00 0. -1.
         13    1    4    4    0    0  0.21793353611E+01 -0.29508678321E+01  0.10529850388E+02  0.11151055412E+02  0.10566000000E+00 0. -1.
        -13    1    4    4    0    0  0.12562495217E+02 -0.14329031375E+02  0.57378697909E+02  0.60460429737E+02  0.10566000000E+00 0.  1.
        -14    1    4    4    0    0  0.11056540795E+02 -0.12081181457E+02  0.53152159887E+02  0.55617930026E+02  0.00000000000E+00 0.  1.
<mgrwt>
<rscale>  0 0.79502950E+02</rscale>
<asrwt>0</asrwt>
<pdfrwt beam="1">  1        1 0.32385833E-01 0.79502950E+02</pdfrwt>
<pdfrwt beam="2">  1       -2 0.11548477E-02 0.79502950E+02</pdfrwt>
<totfact> 0.17121392E+05</totfact>
</mgrwt>
</event>
<event>
 8    1  0.8577104E-018  0.7909830E+02  0.7818608E-02  0.1331630E+00
         -2   -1    0    0    0  501 -0.00000000000E+00  0.00000000000E+00  0.62968340591E+03  0.62968340591E+03  0.25500000000E-02 0.  1.
          1   -1    0    0  501    0  0.00000000000E+00 -0.00000000000E+00 -0.24840002396E+01  0.24840053526E+01  0.50400000000E-02 0. -1.
        -24    2    1    2    0    0  0.00000000000E+00  0.00000000000E+00  0.62719940567E+03  0.63216741126E+03  0.79098302104E+02 0.  0.
         66    2    3    3    0    0 -0.15662515730E+02 -0.32127190354E+02  0.44864247784E+03  0.45006837667E+03  0.20000005805E+01 0.  0.
         13    1    3    3    0    0  0.15662515730E+02  0.32127190354E+02  0.17855692783E+03  0.18209903459E+03  0.10566000000E+00 0. -1.
         13    1    4    4    0    0 -0.94860778381E+01 -0.19616729678E+02  0.26727678621E+03  0.26816355712E+03  0.10566000000E+00 0. -1.
        -13    1    4    4    0    0 -0.46564799103E+01 -0.83310220538E+01  0.12202886291E+03  0.12240156568E+03  0.10566000000E+00 0.  1.
         14    1    4    4    0    0 -0.15199579811E+01 -0.41794386217E+01  0.59336828720E+02  0.59503253877E+02  0.00000000000E+00 0. -1.
<mgrwt>
<rscale>  0 0.79098302E+02</rscale>
<asrwt>0</asrwt>
<pdfrwt beam="1">  1        1 0.38215333E-03 0.79098302E+02</pdfrwt>
<pdfrwt beam="2">  1       -2 0.96874611E-01 0.79098302E+02</pdfrwt>
<totfact> 0.42920037E+04</totfact>
</mgrwt>
</event>
<event>
 8    1  0.8577104E-018  0.7323780E+02  0.7818608E-02  0.1349416E+00
         -2   -1    0    0    0  501 -0.00000000000E+00  0.00000000000E+00  0.22533627306E+02  0.22533627451E+02  0.25500000000E-02 0.  1.
          1   -1    0    0  501    0  0.00000000000E+00 -0.00000000000E+00 -0.59508561882E+02  0.59508562095E+02  0.50400000000E-02 0. -1.
        -24    2    1    2    0    0  0.00000000000E+00  0.17763568394E-14 -0.36974934575E+02  0.82042189546E+02  0.73237798155E+02 0.  0.
         66    2    3    3    0    0  0.22738937256E+02  0.15136127551E+02  0.87727158756E+01  0.28759731733E+02  0.20000001848E+01 0.  0.
         13    1    3    3    0    0 -0.22738937256E+02 -0.15136127551E+02 -0.45747650451E+02  0.53282457813E+02  0.10566000000E+00 0. -1.
         13    1    4    4    0    0  0.10363249313E+02  0.70279615655E+01  0.44230257784E+01  0.13280192060E+02  0.10566000000E+00 0. -1.
        -13    1    4    4    0    0  0.76996481590E+01  0.57459120431E+01  0.30732824315E+01  0.10087433565E+02  0.10566000000E+00 0.  1.
         14    1    4    4    0    0  0.46760397842E+01  0.23622539426E+01  0.12764076658E+01  0.53921061082E+01  0.00000000000E+00 0. -1.
<mgrwt>
<rscale>  0 0.73237798E+02</rscale>
<asrwt>0</asrwt>
<pdfrwt beam="1">  1        1 0.91551633E-02 0.73237798E+02</pdfrwt>
<pdfrwt beam="2">  1       -2 0.34667119E-02 0.73237798E+02</pdfrwt>
<totfact> 0.17217287E+05</totfact>
</mgrwt>
</event>
<event>
 8    1  0.8577104E-018  0.7644678E+02  0.7818608E-02  0.1339448E+00
         -2   -1    0    0    0  501 -0.00000000000E+00  0.00000000000E+00  0.15502844347E+04  0.15502844347E+04  0.25500000000E-02 0.  1.
          1   -1    0    0  501    0  0.00000000000E+00 -0.00000000000E+00 -0.94241883879E+00  0.94243231550E+00  0.50400000000E-02 0. -1.
        -24    2    1    2    0    0  0.00000000000E+00  0.55511151231E-16  0.15493420159E+04  0.15512268671E+04  0.76446784396E+02 0.  0.
         66    2    3    3    0    0  0.10962012244E+02 -0.20536313322E+00  0.15176654053E+04  0.15177063254E+04  0.19999972283E+01 0.  0.
         13    1    3    3    0    0 -0.10962012244E+02  0.20536313322E+00  0.31676610654E+02  0.33520541658E+02  0.10566000000E+00 0. -1.
         13    1    4    4    0    0  0.44155478714E+01  0.60312484307E+00  0.54288034708E+03  0.54289864914E+03  0.10566000000E+00 0. -1.
        -13    1    4    4    0    0  0.43649936258E+01 -0.89227098879E+00  0.66176804622E+03  0.66178305167E+03  0.10566000000E+00 0.  1.
        -14    1    4    4    0    0  0.21814707466E+01  0.83783012503E-01  0.31301701195E+03  0.31302462460E+03  0.00000000000E+00 0.  1.
<mgrwt>
<rscale>  0 0.76446784E+02</rscale>
<asrwt>0</asrwt>
<pdfrwt beam="1">  1        1 0.14498991E-03 0.76446784E+02</pdfrwt>
<pdfrwt beam="2">  1       -2 0.23850306E+00 0.76446784E+02</pdfrwt>
<totfact> 0.15777031E+04</totfact>
</mgrwt>
</event>
<event>
 8    1  0.8577104E-018  0.8022445E+02  0.7818608E-02  0.1328416E+00
         -2   -1    0    0    0  501 -0.00000000000E+00  0.00000000000E+00  0.16907836695E+03  0.16907836697E+03  0.25500000000E-02 0.  1.
          1   -1    0    0  501    0  0.00000000000E+00 -0.00000000000E+00 -0.95162410828E+01  0.95162424175E+01  0.50400000000E-02 0. -1.
        -24    2    1    2    0    0  0.00000000000E+00  0.00000000000E+00  0.15956212586E+03  0.17859460938E+03  0.80224450703E+02 0.  0.
         66    2    3    3    0    0 -0.11105432422E+02  0.36452553453E+02  0.10753436138E+03  0.11410415487E+03  0.19999994648E+01 0.  0.
         13    1    3    3    0    0  0.11105432422E+02 -0.36452553453E+02  0.52027764479E+02  0.64490454513E+02  0.10566000000E+00 0. -1.
         13    1    4    4    0    0 -0.59405535724E+01  0.17352992191E+02  0.52026086103E+02  0.55164674512E+02  0.10566000000E+00 0. -1.
        -13    1    4    4    0    0 -0.42431831357E+01  0.14487745675E+02  0.41266484067E+02  0.43941247697E+02  0.10566000000E+00 0.  1.
         14    1    4    4    0    0 -0.92169571417E+00  0.46118155874E+01  0.14241791214E+02  0.14998232662E+02  0.00000000000E+00 0. -1.
<mgrwt>
<rscale>  0 0.80224451E+02</rscale>
<asrwt>0</asrwt>
<pdfrwt beam="1">  1        1 0.14640372E-02 0.80224451E+02</pdfrwt>
<pdfrwt beam="2">  1       -2 0.26012056E-01 0.80224451E+02</pdfrwt>
<totfact> 0.90054615E+04</totfact>
</mgrwt>
</event>
<event>
 8    1  0.8577104E-018  0.7516817E+02  0.7818608E-02  0.1343351E+00
         -2   -1    0    0    0  501 -0.00000000000E+00  0.00000000000E+00  0.14948753557E+03  0.14948753559E+03  0.25500000000E-02 0.  1.
          1   -1    0    0  501    0  0.00000000000E+00 -0.00000000000E+00 -0.94493721059E+01  0.94493734500E+01  0.50400000000E-02 0. -1.
        -24    2    1    2    0    0  0.71054273576E-14  0.35527136788E-14  0.14003816346E+03  0.15893690904E+03  0.75168170320E+02 0.  0.
         66    2    3    3    0    0  0.33852891805E+02  0.16162524598E+02  0.66219864282E+02  0.76133539888E+02  0.19999963755E+01 0.  0.
         13    1    3    3    0    0 -0.33852891805E+02 -0.16162524598E+02  0.73818299182E+02  0.82803369153E+02  0.10566000000E+00 0. -1.
         13    1    4    4    0    0  0.14114552969E+02  0.69021179763E+01  0.29399526795E+02  0.33334714306E+02  0.10566000000E+00 0. -1.
        -13    1    4    4    0    0  0.11297983801E+02  0.56545503940E+01  0.20888118355E+02  0.24411944424E+02  0.10566000000E+00 0.  1.
         14    1    4    4    0    0  0.84403550349E+01  0.36058562276E+01  0.15932219132E+02  0.18386881158E+02  0.00000000000E+00 0. -1.
<mgrwt>
<rscale>  0 0.75168170E+02</rscale>
<asrwt>0</asrwt>
<pdfrwt beam="1">  1        1 0.14537498E-02 0.75168170E+02</pdfrwt>
<pdfrwt beam="2">  1       -2 0.22998080E-01 0.75168170E+02</pdfrwt>
<totfact> 0.11103699E+05</totfact>
</mgrwt>
</event>
<event>
 8    1  0.8577104E-018  0.7728333E+02  0.7818608E-02  0.1336943E+00
         -2   -1    0    0    0  501 -0.00000000000E+00  0.00000000000E+00  0.21884382192E+02  0.21884382341E+02  0.25500000000E-02 0.  1.
          1   -1    0    0  501    0  0.00000000000E+00 -0.00000000000E+00 -0.68230321246E+02  0.68230321432E+02  0.50400000000E-02 0. -1.
        -24    2    1    2    0    0  0.00000000000E+00  0.00000000000E+00 -0.46345939054E+02  0.90114703772E+02  0.77283334356E+02 0.  0.
         66    2    3    3    0    0  0.37103078702E+01  0.20644411747E+02  0.14617113820E+02  0.25644066264E+02  0.19999993114E+01 0.  0.
         13    1    3    3    0    0 -0.37103078702E+01 -0.20644411747E+02 -0.60963052874E+02  0.64470637508E+02  0.10566000000E+00 0. -1.
         13    1    4    4    0    0  0.12338252481E+01  0.60025516501E+01  0.37124904518E+01  0.71656612008E+01  0.10566000000E+00 0. -1.
        -13    1    4    4    0    0  0.12397299780E+01  0.42279309268E+01  0.27605112858E+01  0.52003766147E+01  0.10566000000E+00 0.  1.
         14    1    4    4    0    0  0.12367526441E+01  0.10413929171E+02  0.81441120829E+01  0.13278028449E+02  0.00000000000E+00 0. -1.
<mgrwt>
<rscale>  0 0.77283334E+02</rscale>
<asrwt>0</asrwt>
<pdfrwt beam="1">  1        1 0.10496972E-01 0.77283334E+02</pdfrwt>
<pdfrwt beam="2">  1       -2 0.33668281E-02 0.77283334E+02</pdfrwt>
<totfact> 0.15183022E+05</totfact>
</mgrwt>
</event>
<event>
 8    1  0.8577104E-018  0.7403041E+02  0.7818608E-02  0.1346900E+00
          1   -1    0    0  501    0  0.00000000000E+00  0.00000000000E+00  0.40474782143E+02  0.40474782457E+02  0.50400000000E-02 0. -1.
         -2   -1    0    0    0  501 -0.00000000000E+00 -0.00000000000E+00 -0.33851337225E+02  0.33851337321E+02  0.25500000000E-02 0.  1.
        -24    2    1    2    0    0  0.00000000000E+00  0.35527136788E-14  0.66234449177E+01  0.74326119778E+02  0.74030413066E+02 0.  0.
         66    2    3    3    0    0 -0.17986637887E+02  0.15086792828E+02 -0.25383079523E+02  0.34632805087E+02  0.20000004600E+01 0.  0.
         13    1    3    3    0    0  0.17986637887E+02 -0.15086792828E+02  0.32006524441E+02  0.39693314691E+02  0.10566000000E+00 0. -1.
         13    1    4    4    0    0 -0.10805905445E+02  0.83277447076E+01 -0.15481390229E+02  0.20635007435E+02  0.10566000000E+00 0. -1.
        -13    1    4    4    0    0 -0.21741083630E+01  0.18627995459E+01 -0.24216504311E+01  0.37513096604E+01  0.10566000000E+00 0.  1.
         14    1    4    4    0    0 -0.50066240788E+01  0.48962485743E+01 -0.74800388635E+01  0.10246487992E+02  0.00000000000E+00 0. -1.
<mgrwt>
<rscale>  0 0.74030413E+02</rscale>
<asrwt>0</asrwt>
<pdfrwt beam="1">  1        1 0.62268895E-02 0.74030413E+02</pdfrwt>
<pdfrwt beam="2">  1       -2 0.52078981E-02 0.74030413E+02</pdfrwt>
<totfact> 0.15799200E+05</totfact>
</mgrwt>
</event>
<event>
 8    1  0.8577104E-018  0.7953075E+02  0.7818608E-02  0.1330388E+00
         -2   -1    0    0    0  501 -0.00000000000E+00  0.00000000000E+00  0.86853015751E+02  0.86853015789E+02  0.25500000000E-02 0.  1.
          1   -1    0    0  501    0  0.00000000000E+00 -0.00000000000E+00 -0.18206451362E+02  0.18206452059E+02  0.50400000000E-02 0. -1.
        -24    2    1    2    0    0  0.00000000000E+00  0.00000000000E+00  0.68646564390E+02  0.10505946785E+03  0.79530754944E+02 0.  0.
         66    2    3    3    0    0 -0.33071299063E+02 -0.14413847941E+02  0.56362751084E+02  0.66949455153E+02  0.20000003288E+01 0.  0.
         13    1    3    3    0    0  0.33071299063E+02  0.14413847941E+02  0.12283813305E+02  0.38110012695E+02  0.10566000000E+00 0. -1.
         13    1    4    4    0    0 -0.77205855953E+01 -0.42076046335E+01  0.13387954280E+02  0.16017486149E+02  0.10566000000E+00 0. -1.
        -13    1    4    4    0    0 -0.16902457805E+02 -0.64895978445E+01  0.28392525247E+02  0.33674242589E+02  0.10566000000E+00 0.  1.
        -14    1    4    4    0    0 -0.84482556636E+01 -0.37166454634E+01  0.14582271557E+02  0.17257726415E+02  0.00000000000E+00 0.  1.
<mgrwt>
<rscale>  0 0.79530755E+02</rscale>
<asrwt>0</asrwt>
<pdfrwt beam="1">  1        1 0.28009925E-02 0.79530755E+02</pdfrwt>
<pdfrwt beam="2">  1       -2 0.13362003E-01 0.79530755E+02</pdfrwt>
<totfact> 0.11140331E+05</totfact>
</mgrwt>
</event>
<event>
 8    1  0.8577104E-018  0.7881238E+02  0.7818608E-02  0.1332456E+00
         -2   -1    0    0    0  501 -0.00000000000E+00  0.00000000000E+00  0.67033234581E+01  0.67033239431E+01  0.25500000000E-02 0.  1.
          1   -1    0    0  501    0  0.00000000000E+00 -0.00000000000E+00 -0.23165341470E+03  0.23165341476E+03  0.50400000000E-02 0. -1.
        -24    2    1    2    0    0  0.00000000000E+00  0.00000000000E+00 -0.22495009125E+03  0.23835673870E+03  0.78812380582E+02 0.  0.
         66    2    3    3    0    0 -0.22876669564E+02  0.31794263645E+02 -0.10021558243E+03  0.10761682106E+03  0.20000006144E+01 0.  0.
         13    1    3    3    0    0  0.22876669564E+02 -0.31794263645E+02 -0.12473450882E+03  0.13073991764E+03  0.10566000000E+00 0. -1.
         13    1    4    4    0    0 -0.92761890277E+01  0.14282600741E+02 -0.42149683903E+02  0.45460393575E+02  0.10566000000E+00 0. -1.
        -13    1    4    4    0    0 -0.37168082684E+01  0.48815083121E+01 -0.15707940380E+02  0.16863995438E+02  0.10566000000E+00 0.  1.
         14    1    4    4    0    0 -0.98836722682E+01  0.12630154592E+02 -0.42357958143E+02  0.45292432045E+02  0.00000000000E+00 0. -1.
<mgrwt>
<rscale>  0 0.78812381E+02</rscale>
<asrwt>0</asrwt>
<pdfrwt beam="1">  1        1 0.35638981E-01 0.78812381E+02</pdfrwt>
<pdfrwt beam="2">  1       -2 0.10312807E-02 0.78812381E+02</pdfrwt>
<totfact> 0.17850820E+05</totfact>
</mgrwt>
</event>
<event>
 8    1  0.8577104E-018  0.8085661E+02  0.7818608E-02  0.1326638E+00
          1   -1    0    0  501    0  0.00000000000E+00  0.00000000000E+00  0.13045395904E+03  0.13045395914E+03  0.50400000000E-02 0. -1.
         -2   -1    0    0    0  501 -0.00000000000E+00 -0.00000000000E+00 -0.12528923652E+02  0.12528923912E+02  0.25500000000E-02 0.  1.
        -24    2    1    2    0    0  0.17763568394E-14  0.00000000000E+00  0.11792503539E+03  0.14298288305E+03  0.80856606866E+02 0.  0.
         66    2    3    3    0    0 -0.12889428410E+02  0.37657925076E+02  0.71273710633E+02  0.81659038167E+02  0.20000002866E+01 0.  0.
         13    1    3    3    0    0  0.12889428410E+02 -0.37657925076E+02  0.46651324759E+02  0.61323844886E+02  0.10566000000E+00 0. -1.
         13    1    4    4    0    0 -0.59535685382E+00  0.16609848618E+01  0.38697685447E+01  0.42543616583E+01  0.10566000000E+00 0. -1.
        -13    1    4    4    0    0 -0.52591496818E+01  0.15294461859E+02  0.29782545434E+02  0.33890860058E+02  0.10566000000E+00 0.  1.
         14    1    4    4    0    0 -0.70349218745E+01  0.20702478355E+02  0.37621396655E+02  0.43513816450E+02  0.00000000000E+00 0. -1.
<mgrwt>
<rscale>  0 0.80856607E+02</rscale>
<asrwt>0</asrwt>
<pdfrwt beam="1">  1        1 0.20069838E-01 0.80856607E+02</pdfrwt>
<pdfrwt beam="2">  1       -2 0.19275269E-02 0.80856607E+02</pdfrwt>
<totfact> 0.14959010E+05</totfact>
</mgrwt>
</event>
<event>
 8    1  0.8577104E-018  0.7968121E+02  0.7818608E-02  0.1329959E+00
         -2   -1    0    0    0  501 -0.00000000000E+00  0.00000000000E+00  0.16732770591E+02  0.16732770786E+02  0.25500000000E-02 0.  1.
          1   -1    0    0  501    0  0.00000000000E+00 -0.00000000000E+00 -0.94860185754E+02  0.94860185888E+02  0.50400000000E-02 0. -1.
        -24    2    1    2    0    0  0.00000000000E+00  0.00000000000E+00 -0.78127415162E+02  0.11159295667E+03  0.79681208444E+02 0.  0.
         66    2    3    3    0    0 -0.22700564904E+02 -0.32237191673E+02 -0.46850140817E+02  0.61265715258E+02  0.19999993974E+01 0.  0.
         13    1    3    3    0    0  0.22700564904E+02  0.32237191673E+02 -0.31277274345E+02  0.50327241415E+02  0.10566000000E+00 0. -1.
         13    1    4    4    0    0 -0.64605357655E+01 -0.78894059042E+01 -0.12608587153E+02  0.16216315301E+02  0.10566000000E+00 0. -1.
        -13    1    4    4    0    0 -0.11880167651E+02 -0.17488510234E+02 -0.24396640566E+02  0.32283023535E+02  0.10566000000E+00 0.  1.
        -14    1    4    4    0    0 -0.43598614876E+01 -0.68592755349E+01 -0.98449130982E+01  0.12766376423E+02  0.00000000000E+00 0.  1.
<mgrwt>
<rscale>  0 0.79681208E+02</rscale>
<asrwt>0</asrwt>
<pdfrwt beam="1">  1        1 0.14593874E-01 0.79681208E+02</pdfrwt>
<pdfrwt beam="2">  1       -2 0.25742725E-02 0.79681208E+02</pdfrwt>
<totfact> 0.14728272E+05</totfact>
</mgrwt>
</event>
<event>
 8    1  0.8577104E-018  0.8085927E+02  0.7818608E-02  0.1326630E+00
          1   -1    0    0  501    0  0.00000000000E+00  0.00000000000E+00  0.15492827304E+03  0.15492827312E+03  0.50400000000E-02 0. -1.
         -2   -1    0    0    0  501 -0.00000000000E+00 -0.00000000000E+00 -0.10550401271E+02  0.10550401579E+02  0.25500000000E-02 0.  1.
        -24    2    1    2    0    0  0.35527136788E-14  0.00000000000E+00  0.14437787177E+03  0.16547867470E+03  0.80859272343E+02 0.  0.
         66    2    3    3    0    0  0.28045490456E+02 -0.92602554673E+01  0.15805577900E+02  0.33557684024E+02  0.19999995275E+01 0.  0.
         13    1    3    3    0    0 -0.28045490456E+02  0.92602554673E+01  0.12857229386E+03  0.13192099067E+03  0.10566000000E+00 0. -1.
         13    1    4    4    0    0  0.16751159227E+02 -0.59602122818E+01  0.93305349122E+01  0.20079728874E+02  0.10566000000E+00 0. -1.
        -13    1    4    4    0    0  0.19148487031E+01 -0.72262294259E+00  0.70009885812E+00  0.21656712400E+01  0.10566000000E+00 0.  1.
         14    1    4    4    0    0  0.93794825256E+01 -0.25774202429E+01  0.57749441302E+01  0.11312283910E+02  0.00000000000E+00 0. -1.
<mgrwt>
<rscale>  0 0.80859272E+02</rscale>
<asrwt>0</asrwt>
<pdfrwt beam="1">  1        1 0.23835119E-01 0.80859272E+02</pdfrwt>
<pdfrwt beam="2">  1       -2 0.16231387E-02 0.80859272E+02</pdfrwt>
<totfact> 0.15436258E+05</totfact>
</mgrwt>
</event>
<event>
 8    1  0.8577104E-018  0.8186406E+02  0.7818608E-02  0.1323843E+00
          1   -1    0    0  501    0  0.00000000000E+00  0.00000000000E+00  0.22796409656E+03  0.22796409662E+03  0.50400000000E-02 0. -1.
         -2   -1    0    0    0  501 -0.00000000000E+00 -0.00000000000E+00 -0.73495390679E+01  0.73495395102E+01  0.25500000000E-02 0.  1.
        -24    2    1    2    0    0 -0.35527136788E-14  0.00000000000E+00  0.22061455750E+03  0.23531363613E+03  0.81864060304E+02 0.  0.
         66    2    3    3    0    0 -0.25925886353E+02  0.25531413641E+02  0.56641479849E+02  0.67351777297E+02  0.19999999485E+01 0.  0.
         13    1    3    3    0    0  0.25925886353E+02 -0.25531413641E+02  0.16397307765E+03  0.16796185883E+03  0.10566000000E+00 0. -1.
         13    1    4    4    0    0 -0.49548386515E+01  0.42044457829E+01  0.96486896261E+01  0.11633407323E+02  0.10566000000E+00 0. -1.
        -13    1    4    4    0    0 -0.24032298808E+01  0.29144842658E+01  0.63870258033E+01  0.74212529294E+01  0.10566000000E+00 0.  1.
        -14    1    4    4    0    0 -0.18567817821E+02  0.18412483592E+02  0.40605764420E+02  0.48297117044E+02  0.00000000000E+00 0.  1.
<mgrwt>
<rscale>  0 0.81864060E+02</rscale>
<asrwt>0</asrwt>
<pdfrwt beam="1">  1        1 0.35071399E-01 0.81864060E+02</pdfrwt>
<pdfrwt beam="2">  1       -2 0.11306984E-02 0.81864060E+02</pdfrwt>
<totfact> 0.16091106E+05</totfact>
</mgrwt>
</event>
<event>
 8    1  0.8577104E-018  0.7971757E+02  0.7818608E-02  0.1329855E+00
          1   -1    0    0  501    0  0.00000000000E+00  0.00000000000E+00  0.47070904540E+01  0.47070931523E+01  0.50400000000E-02 0. -1.
         -2   -1    0    0    0  501 -0.00000000000E+00 -0.00000000000E+00 -0.33751684833E+03  0.33751684834E+03  0.25500000000E-02 0.  1.
        -24    2    1    2    0    0  0.00000000000E+00  0.35527136788E-14 -0.33280975788E+03  0.34222394149E+03  0.79717571418E+02 0.  0.
         66    2    3    3    0    0 -0.19393066925E+02 -0.19466889216E+02 -0.29031229975E+03  0.29161666996E+03  0.19999983235E+01 0.  0.
         13    1    3    3    0    0  0.19393066925E+02  0.19466889216E+02 -0.42497458129E+02  0.50607271532E+02  0.10566000000E+00 0. -1.
         13    1    4    4    0    0 -0.28018660046E+01 -0.29547209818E+01 -0.47306079925E+02  0.47481124577E+02  0.10566000000E+00 0. -1.
        -13    1    4    4    0    0 -0.14702199964E+02 -0.15085466641E+02 -0.22151661264E+03  0.22251594735E+03  0.10566000000E+00 0.  1.
        -14    1    4    4    0    0 -0.18890009562E+01 -0.14267015926E+01 -0.21489607185E+02  0.21619598031E+02  0.00000000000E+00 0.  1.
<mgrwt>
<rscale>  0 0.79717571E+02</rscale>
<asrwt>0</asrwt>
<pdfrwt beam="1">  1        1 0.72416824E-03 0.79717571E+02</pdfrwt>
<pdfrwt beam="2">  1       -2 0.51925650E-01 0.79717571E+02</pdfrwt>
<totfact> 0.66330862E+04</totfact>
</mgrwt>
</event>
<event>
 8    1  0.8577104E-018  0.8170932E+02  0.7818608E-02  0.1324269E+00
          1   -1    0    0  501    0  0.00000000000E+00  0.00000000000E+00  0.40673738049E+02  0.40673738361E+02  0.50400000000E-02 0. -1.
         -2   -1    0    0    0  501 -0.00000000000E+00 -0.00000000000E+00 -0.41036384510E+02  0.41036384589E+02  0.25500000000E-02 0.  1.
        -24    2    1    2    0    0  0.71054273576E-14  0.88817841970E-15 -0.36264646124E+00  0.81710122950E+02  0.81709318196E+02 0.  0.
         66    2    3    3    0    0 -0.39071336099E+02 -0.67223307587E+01 -0.99457044226E+01  0.40922806302E+02  0.20000009466E+01 0.  0.
         13    1    3    3    0    0  0.39071336099E+02  0.67223307587E+01  0.95830579614E+01  0.40787316648E+02  0.10566000000E+00 0. -1.
         13    1    4    4    0    0 -0.35726775050E+00  0.39361279935E-01 -0.18246567659E+00  0.41671010864E+00  0.10566000000E+00 0. -1.
        -13    1    4    4    0    0 -0.35535225336E+02 -0.59387892765E+01 -0.89362147703E+01  0.37119921285E+02  0.10566000000E+00 0.  1.
         14    1    4    4    0    0 -0.31788430125E+01 -0.82290276208E+00 -0.82702397570E+00  0.33861749085E+01  0.00000000000E+00 0. -1.
<mgrwt>
<rscale>  0 0.81709318E+02</rscale>
<asrwt>0</asrwt>
<pdfrwt beam="1">  1        1 0.62574982E-02 0.81709318E+02</pdfrwt>
<pdfrwt beam="2">  1       -2 0.63132900E-02 0.81709318E+02</pdfrwt>
<totfact> 0.11995019E+05</totfact>
</mgrwt>
</event>
<event>
 8    1  0.8577104E-018  0.8138040E+02  0.7818608E-02  0.1325179E+00
         -2   -1    0    0    0  501 -0.00000000000E+00  0.00000000000E+00  0.27029903698E+02  0.27029903818E+02  0.25500000000E-02 0.  1.
          1   -1    0    0  501    0  0.00000000000E+00 -0.00000000000E+00 -0.61254101227E+02  0.61254101435E+02  0.50400000000E-02 0. -1.
        -24    2    1    2    0    0  0.00000000000E+00  0.00000000000E+00 -0.34224197529E+02  0.88284005253E+02  0.81380402352E+02 0.  0.
         66    2    3    3    0    0  0.35409643802E+02 -0.15303114637E+02 -0.31596827993E+01  0.38755796814E+02  0.19999998831E+01 0.  0.
         13    1    3    3    0    0 -0.35409643802E+02  0.15303114637E+02 -0.31064514730E+02  0.49528208439E+02  0.10566000000E+00 0. -1.
         13    1    4    4    0    0  0.79925005166E+00 -0.15615355092E+00  0.15190733592E-01  0.82132780942E+00  0.10566000000E+00 0. -1.
        -13    1    4    4    0    0  0.24406144987E+02 -0.10679776651E+02 -0.28202382478E+01  0.26789595933E+02  0.10566000000E+00 0.  1.
         14    1    4    4    0    0  0.10204248763E+02 -0.44671844346E+01 -0.35463528515E+00  0.11144873071E+02  0.00000000000E+00 0. -1.
<mgrwt>
<rscale>  0 0.81380402E+02</rscale>
<asrwt>0</asrwt>
<pdfrwt beam="1">  1        1 0.94237079E-02 0.81380402E+02</pdfrwt>
<pdfrwt beam="2">  1       -2 0.41584468E-02 0.81380402E+02</pdfrwt>
<totfact> 0.12956514E+05</totfact>
</mgrwt>
</event>
<event>
 8    1  0.8577104E-018  0.7862764E+02  0.7818608E-02  0.1332992E+00
         -2   -1    0    0    0  501 -0.00000000000E+00  0.00000000000E+00  0.19359366931E+03  0.19359366933E+03  0.25500000000E-02 0.  1.
          1   -1    0    0  501    0  0.00000000000E+00 -0.00000000000E+00 -0.79836089652E+01  0.79836105560E+01  0.50400000000E-02 0. -1.
        -24    2    1    2    0    0  0.00000000000E+00  0.00000000000E+00  0.18561006035E+03  0.20157727988E+03  0.78627636768E+02 0.  0.
         66    2    3    3    0    0  0.91486780490E+01 -0.62685714869E+01  0.18949200076E+03  0.18982679377E+03  0.19999953863E+01 0.  0.
         13    1    3    3    0    0 -0.91486780490E+01  0.62685714869E+01 -0.38819404148E+01  0.11750486116E+02  0.10566000000E+00 0. -1.
         13    1    4    4    0    0  0.33476688496E+01 -0.28739076370E+01  0.78504483844E+02  0.78628438745E+02  0.10566000000E+00 0. -1.
        -13    1    4    4    0    0  0.18448782432E+01 -0.16856825496E+01  0.46214024118E+02  0.46281662574E+02  0.10566000000E+00 0.  1.
         14    1    4    4    0    0  0.39561309562E+01 -0.17089813002E+01  0.64773492799E+02  0.64916692449E+02  0.00000000000E+00 0. -1.
<mgrwt>
<rscale>  0 0.78627637E+02</rscale>
<asrwt>0</asrwt>
<pdfrwt beam="1">  1        1 0.12282477E-02 0.78627637E+02</pdfrwt>
<pdfrwt beam="2">  1       -2 0.29783640E-01 0.78627637E+02</pdfrwt>
<totfact> 0.90125100E+04</totfact>
</mgrwt>
</event>
<event>
 8    1  0.8577104E-018  0.7950297E+02  0.7818608E-02  0.1330468E+00
         -2   -1    0    0    0  501 -0.00000000000E+00  0.00000000000E+00  0.30863152905E+02  0.30863153010E+02  0.25500000000E-02 0.  1.
          1   -1    0    0  501    0  0.00000000000E+00 -0.00000000000E+00 -0.51199584877E+02  0.51199585125E+02  0.50400000000E-02 0. -1.
        -24    2    1    2    0    0  0.35527136788E-14  0.35527136788E-14 -0.20336431972E+02  0.82062738135E+02  0.79502971799E+02 0.  0.
         66    2    3    3    0    0 -0.21332650555E+02 -0.28642880398E+02  0.77831971187E+01  0.36607031327E+02  0.20000019928E+01 0.  0.
         13    1    3    3    0    0  0.21332650555E+02  0.28642880398E+02 -0.28119629091E+02  0.45455706808E+02  0.10566000000E+00 0. -1.
         13    1    4    4    0    0 -0.11382275397E+02 -0.14898680560E+02  0.42316959035E+01  0.19220959651E+02  0.10566000000E+00 0. -1.
        -13    1    4    4    0    0 -0.91430614179E+01 -0.12694659969E+02  0.36271106267E+01  0.16059796367E+02  0.10566000000E+00 0.  1.
         14    1    4    4    0    0 -0.80731373960E+00 -0.10495398688E+01 -0.75609411582E-01  0.13262753083E+01  0.00000000000E+00 0. -1.
<mgrwt>
<rscale>  0 0.79502972E+02</rscale>
<asrwt>0</asrwt>
<pdfrwt beam="1">  1        1 0.78768593E-02 0.79502972E+02</pdfrwt>
<pdfrwt beam="2">  1       -2 0.47481774E-02 0.79502972E+02</pdfrwt>
<totfact> 0.13436746E+05</totfact>
</mgrwt>
</event>
<event>
 8    1  0.8577104E-018  0.7468452E+02  0.7818608E-02  0.1344851E+00
          1   -1    0    0  501    0  0.00000000000E+00  0.00000000000E+00  0.27708456621E+02  0.27708457079E+02  0.50400000000E-02 0. -1.
         -2   -1    0    0    0  501 -0.00000000000E+00 -0.00000000000E+00 -0.50325590859E+02  0.50325590924E+02  0.25500000000E-02 0.  1.
        -24    2    1    2    0    0  0.00000000000E+00 -0.35527136788E-14 -0.22617134238E+02  0.78034048003E+02  0.74684522403E+02 0.  0.
         66    2    3    3    0    0 -0.25829764489E+01 -0.21178559430E+02 -0.43303993371E+02  0.48316032396E+02  0.19999994439E+01 0.  0.
         13    1    3    3    0    0  0.25829764489E+01  0.21178559430E+02  0.20686859132E+02  0.29718015607E+02  0.10566000000E+00 0. -1.
         13    1    4    4    0    0 -0.11042450665E+01 -0.11704519911E+02 -0.21736608312E+02  0.24712475563E+02  0.10566000000E+00 0. -1.
        -13    1    4    4    0    0 -0.11876130337E+01 -0.72660202553E+01 -0.16518462898E+02  0.18085249670E+02  0.10566000000E+00 0.  1.
         14    1    4    4    0    0 -0.29111834872E+00 -0.22080192638E+01 -0.50489221608E+01  0.55183071633E+01  0.00000000000E+00 0. -1.
<mgrwt>
<rscale>  0 0.74684522E+02</rscale>
<asrwt>0</asrwt>
<pdfrwt beam="1">  1        1 0.42628395E-02 0.74684522E+02</pdfrwt>
<pdfrwt beam="2">  1       -2 0.77423986E-02 0.74684522E+02</pdfrwt>
<totfact> 0.14523263E+05</totfact>
</mgrwt>
</event>
<event>
 8    1  0.8577104E-018  0.8037373E+02  0.7818608E-02  0.1327994E+00
          1   -1    0    0  501    0  0.00000000000E+00  0.00000000000E+00  0.50447687421E+02  0.50447687673E+02  0.50400000000E-02 0. -1.
         -2   -1    0    0    0  501 -0.00000000000E+00 -0.00000000000E+00 -0.32013042983E+02  0.32013043085E+02  0.25500000000E-02 0.  1.
        -24    2    1    2    0    0 -0.35527136788E-14 -0.71054273576E-14  0.18434644438E+02  0.82460730757E+02  0.80373727060E+02 0.  0.
         66    2    3    3    0    0 -0.17417839695E+02 -0.36045374303E+02  0.12520323967E+02  0.41992959642E+02  0.19999997384E+01 0.  0.
         13    1    3    3    0    0  0.17417839695E+02  0.36045374303E+02  0.59143204712E+01  0.40467771115E+02  0.10566000000E+00 0. -1.
         13    1    4    4    0    0 -0.27133333046E+01 -0.46565836600E+01  0.22430710708E+01  0.58385341370E+01  0.10566000000E+00 0. -1.
        -13    1    4    4    0    0 -0.80330609475E+01 -0.17135635543E+02  0.56870760776E+01  0.19761428895E+02  0.10566000000E+00 0.  1.
         14    1    4    4    0    0 -0.66714454434E+01 -0.14253155101E+02  0.45901768181E+01  0.16392996610E+02  0.00000000000E+00 0. -1.
<mgrwt>
<rscale>  0 0.80373727E+02</rscale>
<asrwt>0</asrwt>
<pdfrwt beam="1">  1        1 0.77611827E-02 0.80373727E+02</pdfrwt>
<pdfrwt beam="2">  1       -2 0.49250836E-02 0.80373727E+02</pdfrwt>
<totfact> 0.13005864E+05</totfact>
</mgrwt>
</event>
<event>
 8    1  0.8577104E-018  0.8038665E+02  0.7818608E-02  0.1327958E+00
          1   -1    0    0  501    0  0.00000000000E+00  0.00000000000E+00  0.32515037568E+01  0.32515076630E+01  0.50400000000E-02 0. -1.
         -2   -1    0    0    0  501 -0.00000000000E+00 -0.00000000000E+00 -0.49684781047E+03  0.49684781048E+03  0.25500000000E-02 0.  1.
        -24    2    1    2    0    0  0.00000000000E+00 -0.35527136788E-14 -0.49359630671E+03  0.50009931814E+03  0.80386653138E+02 0.  0.
         66    2    3    3    0    0 -0.81210086027E+01  0.22643640961E+02 -0.44707640166E+03  0.44772758925E+03  0.19999993790E+01 0.  0.
         13    1    3    3    0    0  0.81210086027E+01 -0.22643640961E+02 -0.46519905053E+02  0.52371728889E+02  0.10566000000E+00 0. -1.
         13    1    4    4    0    0 -0.67317039350E+01  0.19188413016E+02 -0.37475396187E+03  0.37530528125E+03  0.10566000000E+00 0.  1.
        -13    1    4    4    0    0 -0.11007629947E+01  0.21575408076E+01 -0.51949613736E+02  0.52006155337E+02  0.10566000000E+00 0. -1.
         14    1    4    4    0    0 -0.28854167304E+00  0.12976871375E+01 -0.20372826054E+02  0.20416152664E+02  0.00000000000E+00 0. -1.
<mgrwt>
<rscale>  0 0.80386653E+02</rscale>
<asrwt>0</asrwt>
<pdfrwt beam="1">  1        1 0.50023204E-03 0.80386653E+02</pdfrwt>
<pdfrwt beam="2">  1       -2 0.76438065E-01 0.80386653E+02</pdfrwt>
<totfact> 0.50005599E+04</totfact>
</mgrwt>
</event>
<event>
 8    1  0.8577104E-018  0.8274939E+02  0.7818608E-02  0.1321425E+00
          1   -1    0    0  501    0  0.00000000000E+00  0.00000000000E+00  0.13543929187E+03  0.13543929197E+03  0.50400000000E-02 0. -1.
         -2   -1    0    0    0  501 -0.00000000000E+00 -0.00000000000E+00 -0.12639357013E+02  0.12639357270E+02  0.25500000000E-02 0.  1.
        -24    2    1    2    0    0  0.00000000000E+00  0.00000000000E+00  0.12279993486E+03  0.14807864924E+03  0.82749394911E+02 0.  0.
         66    2    3    3    0    0 -0.34094326764E+02  0.22118926587E+02  0.47785067592E+02  0.62762112117E+02  0.20000004476E+01 0.  0.
         13    1    3    3    0    0  0.34094326764E+02 -0.22118926587E+02  0.75014867267E+02  0.85316537119E+02  0.10566000000E+00 0. -1.
         13    1    4    4    0    0 -0.65658822515E+01  0.39213748677E+01  0.95751779345E+01  0.12254925014E+02  0.10566000000E+00 0. -1.
        -13    1    4    4    0    0 -0.28876680373E+01  0.14950532555E+01  0.34326578535E+01  0.47294941490E+01  0.10566000000E+00 0.  1.
         14    1    4    4    0    0 -0.24640776475E+02  0.16702498464E+02  0.34777231804E+02  0.45777692954E+02  0.00000000000E+00 0. -1.
<mgrwt>
<rscale>  0 0.82749395E+02</rscale>
<asrwt>0</asrwt>
<pdfrwt beam="1">  1        1 0.20836814E-01 0.82749395E+02</pdfrwt>
<pdfrwt beam="2">  1       -2 0.19445165E-02 0.82749395E+02</pdfrwt>
<totfact> 0.14153059E+05</totfact>
</mgrwt>
</event>
<event>
 8    1  0.8577104E-018  0.8100949E+02  0.7818608E-02  0.1326211E+00
         -2   -1    0    0    0  501 -0.00000000000E+00  0.00000000000E+00  0.11194245627E+02  0.11194245918E+02  0.25500000000E-02 0.  1.
          1   -1    0    0  501    0  0.00000000000E+00 -0.00000000000E+00 -0.14656051942E+03  0.14656051951E+03  0.50400000000E-02 0. -1.
        -24    2    1    2    0    0 -0.71054273576E-14  0.00000000000E+00 -0.13536627380E+03  0.15775476543E+03  0.81009492861E+02 0.  0.
         66    2    3    3    0    0 -0.31465776016E+02  0.15417129906E+02 -0.28252523953E+02  0.45055388657E+02  0.19999956294E+01 0.  0.
         13    1    3    3    0    0  0.31465776016E+02 -0.15417129906E+02 -0.10711374984E+03  0.11269937677E+03  0.10566000000E+00 0. -1.
         13    1    4    4    0    0 -0.71891824110E+00  0.54500995633E+00 -0.88989611944E+00  0.12715968028E+01  0.10566000000E+00 0.  1.
        -13    1    4    4    0    0 -0.15864000593E+02  0.84009328481E+01 -0.14452070434E+02  0.23045947396E+02  0.10566000000E+00 0.  1.
         14    1    4    4    0    0 -0.14882857182E+02  0.64711871016E+01 -0.12910557400E+02  0.20737844458E+02  0.00000000000E+00 0. -1.
<mgrwt>
<rscale>  0 0.81009493E+02</rscale>
<asrwt>0</asrwt>
<pdfrwt beam="1">  1        1 0.22547771E-01 0.81009493E+02</pdfrwt>
<pdfrwt beam="2">  1       -2 0.17221918E-02 0.81009493E+02</pdfrwt>
<totfact> 0.15202461E+05</totfact>
</mgrwt>
</event>
<event>
 8    1  0.8577104E-018  0.7986262E+02  0.7818608E-02  0.1329442E+00
         -2   -1    0    0    0  501 -0.00000000000E+00  0.00000000000E+00  0.16142158144E+02  0.16142158345E+02  0.25500000000E-02 0.  1.
          1   -1    0    0  501    0  0.00000000000E+00 -0.00000000000E+00 -0.98779213179E+02  0.98779213307E+02  0.50400000000E-02 0. -1.
        -24    2    1    2    0    0  0.00000000000E+00  0.00000000000E+00 -0.82637055035E+02  0.11492137165E+03  0.79862624536E+02 0.  0.
         66    2    3    3    0    0  0.22170883404E+02 -0.15646499004E+02  0.76033064866E+00  0.27220196604E+02  0.19999996190E+01 0.  0.
         13    1    3    3    0    0 -0.22170883404E+02  0.15646499004E+02 -0.83397385683E+02  0.87701175048E+02  0.10566000000E+00 0. -1.
         13    1    4    4    0    0  0.60354129593E+01 -0.36370698404E+01 -0.44481069899E+00  0.70614097181E+01  0.10566000000E+00 0. -1.
        -13    1    4    4    0    0  0.92485806627E+01 -0.65559884288E+01  0.78311845394E+00  0.11364051527E+02  0.10566000000E+00 0.  1.
         14    1    4    4    0    0  0.68868897820E+01 -0.54534407354E+01  0.42202289372E+00  0.87947353596E+01  0.00000000000E+00 0. -1.
<mgrwt>
<rscale>  0 0.79862625E+02</rscale>
<asrwt>0</asrwt>
<pdfrwt beam="1">  1        1 0.15196802E-01 0.79862625E+02</pdfrwt>
<pdfrwt beam="2">  1       -2 0.24834090E-02 0.79862625E+02</pdfrwt>
<totfact> 0.14737137E+05</totfact>
</mgrwt>
</event>
<event>
 8    1  0.8577104E-018  0.7757106E+02  0.7818608E-02  0.1336089E+00
          1   -1    0    0  501    0  0.00000000000E+00  0.00000000000E+00  0.11228826311E+02  0.11228827443E+02  0.50400000000E-02 0. -1.
         -2   -1    0    0    0  501 -0.00000000000E+00 -0.00000000000E+00 -0.13396923234E+03  0.13396923236E+03  0.25500000000E-02 0.  1.
        -24    2    1    2    0    0  0.44408920985E-15  0.00000000000E+00 -0.12274040603E+03  0.14519805981E+03  0.77571059678E+02 0.  0.
         66    2    3    3    0    0  0.25220516913E+01 -0.30263795321E+02 -0.10649208158E+03  0.11075568382E+03  0.20000021005E+01 0.  0.
         13    1    3    3    0    0 -0.25220516913E+01  0.30263795321E+02 -0.16248324453E+02  0.34442375986E+02  0.10566000000E+00 0. -1.
         13    1    4    4    0    0  0.11608489206E+01 -0.82766741499E+01 -0.27882200595E+02  0.29108060383E+02  0.10566000000E+00 0. -1.
        -13    1    4    4    0    0  0.41859461566E+00 -0.51578100538E+01 -0.20407828218E+02  0.21053950761E+02  0.10566000000E+00 0. -1.
        -14    1    4    4    0    0  0.94260815504E+00 -0.16829311118E+02 -0.58202052762E+02  0.60593672678E+02  0.00000000000E+00 0.  1.
<mgrwt>
<rscale>  0 0.77571060E+02</rscale>
<asrwt>0</asrwt>
<pdfrwt beam="1">  1        1 0.17275119E-02 0.77571060E+02</pdfrwt>
<pdfrwt beam="2">  1       -2 0.20610650E-01 0.77571060E+02</pdfrwt>
<totfact> 0.10601611E+05</totfact>
</mgrwt>
</event>
<event>
 8    1  0.8577104E-018  0.8125943E+02  0.7818608E-02  0.1325515E+00
          1   -1    0    0  501    0  0.00000000000E+00  0.00000000000E+00  0.98369591741E+02  0.98369591870E+02  0.50400000000E-02 0. -1.
         -2   -1    0    0    0  501 -0.00000000000E+00 -0.00000000000E+00 -0.16781340748E+02  0.16781340942E+02  0.25500000000E-02 0.  1.
        -24    2    1    2    0    0  0.71054273576E-14  0.00000000000E+00  0.81588250993E+02  0.11515093281E+03  0.81259427929E+02 0.  0.
         66    2    3    3    0    0 -0.37770314540E+02  0.14228276016E+02  0.47112920095E+02  0.62069861765E+02  0.20000002171E+01 0.  0.
         13    1    3    3    0    0  0.37770314540E+02 -0.14228276016E+02  0.34475330898E+02  0.53081071046E+02  0.10566000000E+00 0. -1.
         13    1    4    4    0    0 -0.14887836402E+02  0.52852122763E+01  0.19000456747E+02  0.24710517238E+02  0.10566000000E+00 0. -1.
        -13    1    4    4    0    0 -0.13286694724E+02  0.56990178611E+01  0.17231028364E+02  0.22492989214E+02  0.10566000000E+00 0.  1.
        -14    1    4    4    0    0 -0.95957834144E+01  0.32440458783E+01  0.10881434983E+02  0.14866355313E+02  0.00000000000E+00 0.  1.
<mgrwt>
<rscale>  0 0.81259428E+02</rscale>
<asrwt>0</asrwt>
<pdfrwt beam="1">  1        1 0.15133783E-01 0.81259428E+02</pdfrwt>
<pdfrwt beam="2">  1       -2 0.25817448E-02 0.81259428E+02</pdfrwt>
<totfact> 0.14051738E+05</totfact>
</mgrwt>
</event>
<event>
 8    1  0.8577104E-018  0.8021953E+02  0.7818608E-02  0.1328430E+00
         -2   -1    0    0    0  501 -0.00000000000E+00  0.00000000000E+00  0.12778656627E+02  0.12778656882E+02  0.25500000000E-02 0.  1.
          1   -1    0    0  501    0  0.00000000000E+00 -0.00000000000E+00 -0.12589688659E+03  0.12589688669E+03  0.50400000000E-02 0. -1.
        -24    2    1    2    0    0  0.35527136788E-14 -0.33306690739E-15 -0.11311822996E+03  0.13867554357E+03  0.80219526520E+02 0.  0.
         66    2    3    3    0    0  0.23491856231E+02  0.57405384260E+00 -0.45553468946E+00  0.23588224909E+02  0.19999988703E+01 0.  0.
         13    1    3    3    0    0 -0.23491856231E+02 -0.57405384260E+00 -0.11266269527E+03  0.11508731866E+03  0.10566000000E+00 0. -1.
         13    1    4    4    0    0  0.44198376672E+00 -0.12333273361E+00  0.50226558496E-01  0.47354762801E+00  0.10566000000E+00 0.  1.
        -13    1    4    4    0    0  0.63540728889E+01 -0.46358725275E+00 -0.24427044323E+00  0.63765184469E+01  0.10566000000E+00 0.  1.
        -14    1    4    4    0    0  0.16695799576E+02  0.11609738290E+01 -0.26149080472E+00  0.16738158834E+02  0.00000000000E+00 0.  1.
<mgrwt>
<rscale>  0 0.80219527E+02</rscale>
<asrwt>0</asrwt>
<pdfrwt beam="1">  1        1 0.19368751E-01 0.80219527E+02</pdfrwt>
<pdfrwt beam="2">  1       -2 0.19659473E-02 0.80219527E+02</pdfrwt>
<totfact> 0.15183273E+05</totfact>
</mgrwt>
</event>
<event>
 8    1  0.8577104E-018  0.8088966E+02  0.7818608E-02  0.1326545E+00
         -2   -1    0    0    0  501 -0.00000000000E+00  0.00000000000E+00  0.15787867540E+03  0.15787867542E+03  0.25500000000E-02 0.  1.
          1   -1    0    0  501    0  0.00000000000E+00 -0.00000000000E+00 -0.10361021291E+02  0.10361022517E+02  0.50400000000E-02 0. -1.
        -24    2    1    2    0    0  0.35527136788E-14  0.00000000000E+00  0.14751765411E+03  0.16823969793E+03  0.80889663667E+02 0.  0.
         66    2    3    3    0    0  0.29994099281E+02  0.22360036947E+02  0.10563065605E+03  0.11207788694E+03  0.19999998774E+01 0.  0.
         13    1    3    3    0    0 -0.29994099281E+02 -0.22360036947E+02  0.41886998055E+02  0.56161810993E+02  0.10566000000E+00 0. -1.
         13    1    4    4    0    0  0.61849570083E+01  0.40720475616E+01  0.20854984302E+02  0.22130901446E+02  0.10566000000E+00 0. -1.
        -13    1    4    4    0    0  0.11721263496E+02  0.94911511617E+01  0.44466239277E+02  0.46954526595E+02  0.10566000000E+00 0.  1.
         14    1    4    4    0    0  0.12087878776E+02  0.87968382242E+01  0.40309432472E+02  0.42992458900E+02  0.00000000000E+00 0. -1.
<mgrwt>
<rscale>  0 0.80889664E+02</rscale>
<asrwt>0</asrwt>
<pdfrwt beam="1">  1        1 0.15940034E-02 0.80889664E+02</pdfrwt>
<pdfrwt beam="2">  1       -2 0.24289027E-01 0.80889664E+02</pdfrwt>
<totfact> 0.90295777E+04</totfact>
</mgrwt>
</event>
<event>
 8    1  0.8577104E-018  0.7969543E+02  0.7818608E-02  0.1329918E+00
          1   -1    0    0  501    0  0.00000000000E+00  0.00000000000E+00  0.28618355191E+01  0.28618399571E+01  0.50400000000E-02 0. -1.
         -2   -1    0    0    0  501 -0.00000000000E+00 -0.00000000000E+00 -0.55483244819E+03  0.55483244820E+03  0.25500000000E-02 0.  1.
        -24    2    1    2    0    0 -0.35527136788E-14  0.00000000000E+00 -0.55197061268E+03  0.55769428816E+03  0.79695431401E+02 0.  0.
         66    2    3    3    0    0  0.25031634352E+02  0.45524619240E+01 -0.49053966443E+03  0.49120308427E+03  0.19999974874E+01 0.  0.
         13    1    3    3    0    0 -0.25031634352E+02 -0.45524619240E+01 -0.61430948241E+02  0.66491203883E+02  0.10566000000E+00 0. -1.
         13    1    4    4    0    0  0.60912472626E+01  0.76237880337E+00 -0.11724675662E+03  0.11740740017E+03  0.10566000000E+00 0. -1.
        -13    1    4    4    0    0  0.57285688282E+01  0.97527785654E+00 -0.12631028754E+03  0.12644393054E+03  0.10566000000E+00 0.  1.
        -14    1    4    4    0    0  0.13211818261E+02  0.28148052641E+01 -0.24698262028E+03  0.24735175356E+03  0.00000000000E+00 0.  1.
<mgrwt>
<rscale>  0 0.79695431E+02</rscale>
<asrwt>0</asrwt>
<pdfrwt beam="1">  1        1 0.44028317E-03 0.79695431E+02</pdfrwt>
<pdfrwt beam="2">  1       -2 0.85358752E-01 0.79695431E+02</pdfrwt>
<totfact> 0.46862873E+04</totfact>
</mgrwt>
</event>
<event>
 8    1  0.8577104E-018  0.8008646E+02  0.7818608E-02  0.1328806E+00
         -2   -1    0    0    0  501 -0.00000000000E+00  0.00000000000E+00  0.11827863889E+03  0.11827863892E+03  0.25500000000E-02 0.  1.
          1   -1    0    0  501    0  0.00000000000E+00 -0.00000000000E+00 -0.13556634151E+02  0.13556635088E+02  0.50400000000E-02 0. -1.
        -24    2    1    2    0    0  0.35527136788E-14  0.27755575616E-16  0.10472200474E+03  0.13183527401E+03  0.80086460751E+02 0.  0.
         66    2    3    3    0    0 -0.28952109548E+02  0.18689072039E+00  0.97870429290E+02  0.10208271402E+03  0.19999993919E+01 0.  0.
         13    1    3    3    0    0  0.28952109548E+02 -0.18689072039E+00  0.68515754508E+01  0.29752559984E+02  0.10566000000E+00 0. -1.
         13    1    4    4    0    0 -0.90905419190E+01 -0.34569075045E+00  0.31484874829E+02  0.32772945573E+02  0.10566000000E+00 0. -1.
        -13    1    4    4    0    0 -0.14806843908E+02  0.28619219870E+00  0.51520306335E+02  0.53606694184E+02  0.10566000000E+00 0.  1.
        -14    1    4    4    0    0 -0.50547237208E+01  0.24638927214E+00  0.14865248126E+02  0.15703074267E+02  0.00000000000E+00 0.  1.
<mgrwt>
<rscale>  0 0.80086461E+02</rscale>
<asrwt>0</asrwt>
<pdfrwt beam="1">  1        1 0.20856362E-02 0.80086461E+02</pdfrwt>
<pdfrwt beam="2">  1       -2 0.18196713E-01 0.80086461E+02</pdfrwt>
<totfact> 0.10127247E+05</totfact>
</mgrwt>
</event>
<event>
 8    1  0.8577104E-018  0.7964704E+02  0.7818608E-02  0.1330056E+00
         -2   -1    0    0    0  501 -0.00000000000E+00  0.00000000000E+00  0.70747784493E+01  0.70747789088E+01  0.25500000000E-02 0.  1.
          1   -1    0    0  501    0  0.00000000000E+00 -0.00000000000E+00 -0.22416430052E+03  0.22416430058E+03  0.50400000000E-02 0. -1.
        -24    2    1    2    0    0  0.00000000000E+00  0.35527136788E-14 -0.21708952207E+03  0.23123907949E+03  0.79647041932E+02 0.  0.
         66    2    3    3    0    0 -0.26769238518E+02  0.24226797594E+02 -0.15722725959E+03  0.16133177310E+03  0.20000004085E+01 0.  0.
         13    1    3    3    0    0  0.26769238518E+02 -0.24226797594E+02 -0.59862262482E+02  0.69907306385E+02  0.10566000000E+00 0. -1.
         13    1    4    4    0    0 -0.40922038580E+01  0.36282385870E+01 -0.21106538576E+02  0.21803838706E+02  0.10566000000E+00 0. -1.
        -13    1    4    4    0    0 -0.11830136477E+02  0.10230739167E+02 -0.69936628246E+02  0.71664239949E+02  0.10566000000E+00 0.  1.
        -14    1    4    4    0    0 -0.10846898182E+02  0.10367819840E+02 -0.66184092767E+02  0.67863694446E+02  0.00000000000E+00 0.  1.
<mgrwt>
<rscale>  0 0.79647042E+02</rscale>
<asrwt>0</asrwt>
<pdfrwt beam="1">  1        1 0.34486810E-01 0.79647042E+02</pdfrwt>
<pdfrwt beam="2">  1       -2 0.10884277E-02 0.79647042E+02</pdfrwt>
<totfact> 0.17249373E+05</totfact>
</mgrwt>
</event>
<event>
 8    1  0.8577104E-018  0.7960535E+02  0.7818608E-02  0.1330175E+00
         -2   -1    0    0    0  501 -0.00000000000E+00  0.00000000000E+00  0.85425103388E+01  0.85425107194E+01  0.25500000000E-02 0.  1.
          1   -1    0    0  501    0  0.00000000000E+00 -0.00000000000E+00 -0.18545520190E+03  0.18545520196E+03  0.50400000000E-02 0. -1.
        -24    2    1    2    0    0  0.00000000000E+00  0.00000000000E+00 -0.17691269156E+03  0.19399771268E+03  0.79605352160E+02 0.  0.
         66    2    3    3    0    0  0.38636232913E+02 -0.71615440292E+01 -0.73449540478E+02  0.83323953365E+02  0.20000003362E+01 0.  0.
         13    1    3    3    0    0 -0.38636232913E+02  0.71615440292E+01 -0.10346315108E+03  0.11067375932E+03  0.10566000000E+00 0. -1.
         13    1    4    4    0    0  0.15666073942E+02 -0.32143099090E+01 -0.31382005876E+02  0.35222139597E+02  0.10566000000E+00 0. -1.
        -13    1    4    4    0    0  0.21421712104E+02 -0.37666887239E+01 -0.39681871773E+02  0.45251959127E+02  0.10566000000E+00 0.  1.
         14    1    4    4    0    0  0.15484468666E+01 -0.18054539640E+00 -0.23856628288E+01  0.28498546404E+01  0.00000000000E+00 0. -1.
<mgrwt>
<rscale>  0 0.79605352E+02</rscale>
<asrwt>0</asrwt>
<pdfrwt beam="1">  1        1 0.28531567E-01 0.79605352E+02</pdfrwt>
<pdfrwt beam="2">  1       -2 0.13142325E-02 0.79605352E+02</pdfrwt>
<totfact> 0.16649791E+05</totfact>
</mgrwt>
</event>
<event>
 8    1  0.8577104E-018  0.8165361E+02  0.7818608E-02  0.1324423E+00
         -2   -1    0    0    0  501 -0.00000000000E+00  0.00000000000E+00  0.24897172956E+03  0.24897172957E+03  0.25500000000E-02 0.  1.
          1   -1    0    0  501    0  0.00000000000E+00 -0.00000000000E+00 -0.66948469455E+01  0.66948488426E+01  0.50400000000E-02 0. -1.
        -24    2    1    2    0    0  0.00000000000E+00  0.35527136788E-14  0.24227688261E+03  0.25566657841E+03  0.81653606591E+02 0.  0.
         66    2    3    3    0    0 -0.22537529101E+02  0.25204962414E+02  0.19272050162E+03  0.19567427549E+03  0.19999995735E+01 0.  0.
         13    1    3    3    0    0  0.22537529101E+02 -0.25204962414E+02  0.49556380997E+02  0.59992302921E+02  0.10566000000E+00 0. -1.
         13    1    4    4    0    0 -0.33106445979E+01  0.41477733212E+01  0.34024712086E+02  0.34436268493E+02  0.10566000000E+00 0.  1.
        -13    1    4    4    0    0 -0.29500882439E+01  0.30082326101E+01  0.23270338105E+02  0.23648938319E+02  0.10566000000E+00 0. -1.
         14    1    4    4    0    0 -0.16276796259E+02  0.18048956482E+02  0.13542545143E+03  0.13758906868E+03  0.00000000000E+00 0. -1.
<mgrwt>
<rscale>  0 0.81653607E+02</rscale>
<asrwt>0</asrwt>
<pdfrwt beam="1">  1        1 0.10299767E-02 0.81653607E+02</pdfrwt>
<pdfrwt beam="2">  1       -2 0.38303340E-01 0.81653607E+02</pdfrwt>
<totfact> 0.73287523E+04</totfact>
</mgrwt>
</event>
<event>
 8    1  0.8577104E-018  0.7037631E+02  0.7818608E-02  0.1358818E+00
         -2   -1    0    0    0  501 -0.00000000000E+00  0.00000000000E+00  0.11174288253E+03  0.11174288256E+03  0.25500000000E-02 0.  1.
          1   -1    0    0  501    0  0.00000000000E+00 -0.00000000000E+00 -0.11080849864E+02  0.11080851010E+02  0.50400000000E-02 0. -1.
        -24    2    1    2    0    0  0.00000000000E+00  0.00000000000E+00  0.10066203266E+03  0.12282373357E+03  0.70376307854E+02 0.  0.
         66    2    3    3    0    0 -0.19268444467E+02 -0.10370788073E+02  0.98401415210E+02  0.10082492104E+03  0.19999972252E+01 0.  0.
         13    1    3    3    0    0  0.19268444467E+02  0.10370788073E+02  0.22606174528E+01  0.21998812531E+02  0.10566000000E+00 0. -1.
         13    1    4    4    0    0 -0.67805782585E+01 -0.37691318142E+01  0.35029403887E+02  0.35878306773E+02  0.10566000000E+00 0.  1.
        -13    1    4    4    0    0 -0.88018907471E+01 -0.51705850201E+01  0.43094768117E+02  0.44287452323E+02  0.10566000000E+00 0. -1.
         14    1    4    4    0    0 -0.36859754618E+01 -0.14310712391E+01  0.20277243206E+02  0.20659161939E+02  0.00000000000E+00 0. -1.
<mgrwt>
<rscale>  0 0.70376308E+02</rscale>
<asrwt>0</asrwt>
<pdfrwt beam="1">  1        1 0.17047462E-02 0.70376308E+02</pdfrwt>
<pdfrwt beam="2">  1       -2 0.17191213E-01 0.70376308E+02</pdfrwt>
<totfact> 0.14306320E+05</totfact>
</mgrwt>
</event>
<event>
 8    1  0.8577104E-018  0.8024500E+02  0.7818608E-02  0.1328358E+00
          1   -1    0    0  501    0  0.00000000000E+00  0.00000000000E+00  0.13020529217E+03  0.13020529227E+03  0.50400000000E-02 0. -1.
         -2   -1    0    0    0  501 -0.00000000000E+00 -0.00000000000E+00 -0.12363666480E+02  0.12363666743E+02  0.25500000000E-02 0.  1.
        -24    2    1    2    0    0  0.00000000000E+00  0.00000000000E+00  0.11784162569E+03  0.14256895901E+03  0.80244995658E+02 0.  0.
         66    2    3    3    0    0  0.24734046488E+02  0.19430405541E+02  0.14772244266E+02  0.34807081398E+02  0.19999999119E+01 0.  0.
         13    1    3    3    0    0 -0.24734046488E+02 -0.19430405541E+02  0.10306938143E+03  0.10776187762E+03  0.10566000000E+00 0. -1.
         13    1    4    4    0    0  0.61308547114E+01  0.45667566158E+01  0.43175154325E+01  0.87803615544E+01  0.10566000000E+00 0. -1.
        -13    1    4    4    0    0  0.39498466452E+01  0.36925042816E+01  0.24514687823E+01  0.59377385945E+01  0.10566000000E+00 0.  1.
         14    1    4    4    0    0  0.14653345132E+02  0.11171144644E+02  0.80032600510E+01  0.20088981249E+02  0.00000000000E+00 0. -1.
<mgrwt>
<rscale>  0 0.80244996E+02</rscale>
<asrwt>0</asrwt>
<pdfrwt beam="1">  1        1 0.20031584E-01 0.80244996E+02</pdfrwt>
<pdfrwt beam="2">  1       -2 0.19021026E-02 0.80244996E+02</pdfrwt>
<totfact> 0.15261742E+05</totfact>
</mgrwt>
</event>
<event>
 8    1  0.8577104E-018  0.7940720E+02  0.7818608E-02  0.1330742E+00
         -2   -1    0    0    0  501 -0.00000000000E+00  0.00000000000E+00  0.17509486521E+02  0.17509486707E+02  0.25500000000E-02 0.  1.
          1   -1    0    0  501    0  0.00000000000E+00 -0.00000000000E+00 -0.90029821004E+02  0.90029821145E+02  0.50400000000E-02 0. -1.
        -24    2    1    2    0    0  0.00000000000E+00  0.00000000000E+00 -0.72520334483E+02  0.10753930785E+03  0.79407202570E+02 0.  0.
         66    2    3    3    0    0  0.11344527417E+02  0.38020531160E+02 -0.35830053868E+02  0.53498148098E+02  0.19999994350E+01 0.  0.
         13    1    3    3    0    0 -0.11344527417E+02 -0.38020531160E+02 -0.36690280615E+02  0.54041159754E+02  0.10566000000E+00 0. -1.
         13    1    4    4    0    0  0.30923379249E+01  0.12930735733E+02 -0.11621757600E+02  0.17659073990E+02  0.10566000000E+00 0.  1.
        -13    1    4    4    0    0  0.29626239165E+01  0.92762374809E+01 -0.83657839520E+01  0.12838349872E+02  0.10566000000E+00 0.  1.
         14    1    4    4    0    0  0.52895655754E+01  0.15813557946E+02 -0.15842512316E+02  0.23000724236E+02  0.00000000000E+00 0. -1.
<mgrwt>
<rscale>  0 0.79407203E+02</rscale>
<asrwt>0</asrwt>
<pdfrwt beam="1">  1        1 0.13850742E-01 0.79407203E+02</pdfrwt>
<pdfrwt beam="2">  1       -2 0.26937672E-02 0.79407203E+02</pdfrwt>
<totfact> 0.14738678E+05</totfact>
</mgrwt>
</event>
<event>
 8    1  0.8577104E-018  0.7954292E+02  0.7818608E-02  0.1330354E+00
         -2   -1    0    0    0  501 -0.00000000000E+00  0.00000000000E+00  0.37042063441E+01  0.37042072219E+01  0.25500000000E-02 0.  1.
          1   -1    0    0  501    0  0.00000000000E+00 -0.00000000000E+00 -0.42701958802E+03  0.42701958805E+03  0.50400000000E-02 0. -1.
        -24    2    1    2    0    0  0.00000000000E+00  0.00000000000E+00 -0.42331538168E+03  0.43072379528E+03  0.79542915774E+02 0.  0.
         66    2    3    3    0    0  0.13003139191E+02  0.37432050224E+02 -0.22850221438E+03  0.23192132716E+03  0.20000001541E+01 0.  0.
         13    1    3    3    0    0 -0.13003139191E+02 -0.37432050224E+02 -0.19481316730E+03  0.19880246812E+03  0.10566000000E+00 0. -1.
         13    1    4    4    0    0  0.51972406117E+01  0.13456789285E+02 -0.85889012843E+02  0.87092078739E+02  0.10566000000E+00 0. -1.
        -13    1    4    4    0    0  0.60905905404E+01  0.18333753319E+02 -0.10658793445E+03  0.10832460818E+03  0.10566000000E+00 0.  1.
         14    1    4    4    0    0  0.17153080389E+01  0.56415076206E+01 -0.36025267092E+02  0.36504640238E+02  0.00000000000E+00 0. -1.
<mgrwt>
<rscale>  0 0.79542916E+02</rscale>
<asrwt>0</asrwt>
<pdfrwt beam="1">  1        1 0.65695282E-01 0.79542916E+02</pdfrwt>
<pdfrwt beam="2">  1       -2 0.56987831E-03 0.79542916E+02</pdfrwt>
<totfact> 0.19481673E+05</totfact>
</mgrwt>
</event>
<event>
 8    1  0.8577104E-018  0.7952589E+02  0.7818608E-02  0.1330402E+00
         -2   -1    0    0    0  501 -0.00000000000E+00  0.00000000000E+00  0.65480510727E+02  0.65480510776E+02  0.25500000000E-02 0.  1.
          1   -1    0    0  501    0  0.00000000000E+00 -0.00000000000E+00 -0.24145990117E+02  0.24145990643E+02  0.50400000000E-02 0. -1.
        -24    2    1    2    0    0 -0.11102230246E-15  0.00000000000E+00  0.41334520610E+02  0.89626501419E+02  0.79525889888E+02 0.  0.
         66    2    3    3    0    0  0.74072302818E+00  0.34008505938E+02 -0.24703653814E+01  0.34164745699E+02  0.19999992137E+01 0.  0.
         13    1    3    3    0    0 -0.74072302818E+00 -0.34008505938E+02  0.43804885991E+02  0.55461755719E+02  0.10566000000E+00 0. -1.
         13    1    4    4    0    0  0.17869419267E+00  0.44557443418E+01 -0.27670964209E+00  0.44691522144E+01  0.10566000000E+00 0.  1.
        -13    1    4    4    0    0 -0.13631841355E+00  0.21017269412E+02 -0.21882110652E+01  0.21131578927E+02  0.10566000000E+00 0.  1.
        -14    1    4    4    0    0  0.69834724907E+00  0.85354921843E+01 -0.54446741294E-02  0.85640145582E+01  0.00000000000E+00 0.  1.
<mgrwt>
<rscale>  0 0.79525890E+02</rscale>
<asrwt>0</asrwt>
<pdfrwt beam="1">  1        1 0.37147679E-02 0.79525890E+02</pdfrwt>
<pdfrwt beam="2">  1       -2 0.10073924E-01 0.79525890E+02</pdfrwt>
<totfact> 0.11820432E+05</totfact>
</mgrwt>
</event>
<event>
 8    1  0.8577104E-018  0.7993829E+02  0.7818608E-02  0.1329227E+00
         -2   -1    0    0    0  501 -0.00000000000E+00  0.00000000000E+00  0.80059554370E+02  0.80059554410E+02  0.25500000000E-02 0.  1.
          1   -1    0    0  501    0  0.00000000000E+00 -0.00000000000E+00 -0.19954300684E+02  0.19954301320E+02  0.50400000000E-02 0. -1.
        -24    2    1    2    0    0  0.88817841970E-15 -0.17763568394E-14  0.60105253686E+02  0.10001385573E+03  0.79938287556E+02 0.  0.
         66    2    3    3    0    0 -0.69969590476E+01 -0.77017274856E+01  0.78321442368E+02  0.79034944025E+02  0.20000000709E+01 0.  0.
         13    1    3    3    0    0  0.69969590476E+01  0.77017274856E+01 -0.18216188682E+02  0.20978911705E+02  0.10566000000E+00 0. -1.
         13    1    4    4    0    0 -0.56507390450E+00 -0.94905818714E+00  0.59603773513E+01  0.60627784196E+01  0.10566000000E+00 0. -1.
        -13    1    4    4    0    0 -0.49229596485E+01 -0.52404117357E+01  0.50981538767E+02  0.51486171987E+02  0.10566000000E+00 0.  1.
         14    1    4    4    0    0 -0.15089254946E+01 -0.15122575628E+01  0.21379526250E+02  0.21485993619E+02  0.00000000000E+00 0. -1.
<mgrwt>
<rscale>  0 0.79938288E+02</rscale>
<asrwt>0</asrwt>
<pdfrwt beam="1">  1        1 0.30698924E-02 0.79938288E+02</pdfrwt>
<pdfrwt beam="2">  1       -2 0.12316855E-01 0.79938288E+02</pdfrwt>
<totfact> 0.11196214E+05</totfact>
</mgrwt>
</event>
<event>
 8    1  0.8577104E-018  0.8014468E+02  0.7818608E-02  0.1328641E+00
          1   -1    0    0  501    0  0.00000000000E+00  0.00000000000E+00  0.47472962744E+02  0.47472963011E+02  0.50400000000E-02 0. -1.
         -2   -1    0    0    0  501 -0.00000000000E+00 -0.00000000000E+00 -0.33825413056E+02  0.33825413152E+02  0.25500000000E-02 0.  1.
        -24    2    1    2    0    0  0.00000000000E+00  0.00000000000E+00  0.13647549688E+02  0.81298376163E+02  0.80144683880E+02 0.  0.
         66    2    3    3    0    0  0.24653094329E+02 -0.10083234900E+02 -0.23508014865E+02  0.35581925871E+02  0.19999999445E+01 0.  0.
         13    1    3    3    0    0 -0.24653094329E+02  0.10083234900E+02  0.37155564552E+02  0.45716450292E+02  0.10566000000E+00 0. -1.
         13    1    4    4    0    0  0.16270074130E+01 -0.10523943755E+01 -0.15124727230E+01  0.24603708698E+01  0.10566000000E+00 0. -1.
        -13    1    4    4    0    0  0.89847671872E+01 -0.30331912926E+01 -0.89184198269E+01  0.13018282032E+02  0.10566000000E+00 0.  1.
        -14    1    4    4    0    0  0.14041319729E+02 -0.59976492319E+01 -0.13077122315E+02  0.20103272969E+02  0.00000000000E+00 0.  1.
<mgrwt>
<rscale>  0 0.80144684E+02</rscale>
<asrwt>0</asrwt>
<pdfrwt beam="1">  1        1 0.73035327E-02 0.80144684E+02</pdfrwt>
<pdfrwt beam="2">  1       -2 0.52039097E-02 0.80144684E+02</pdfrwt>
<totfact> 0.12984401E+05</totfact>
</mgrwt>
</event>
<event>
 8    1  0.8577104E-018  0.8081180E+02  0.7818608E-02  0.1326763E+00
         -2   -1    0    0    0  501 -0.00000000000E+00  0.00000000000E+00  0.14057116233E+02  0.14057116464E+02  0.25500000000E-02 0.  1.
          1   -1    0    0  501    0  0.00000000000E+00 -0.00000000000E+00 -0.11614308178E+03  0.11614308189E+03  0.50400000000E-02 0. -1.
        -24    2    1    2    0    0 -0.35527136788E-14  0.35527136788E-14 -0.10208596555E+03  0.13020019836E+03  0.80811801674E+02 0.  0.
         66    2    3    3    0    0 -0.24488750148E+02  0.25303983161E+02 -0.19230278627E+02  0.40172055717E+02  0.19999992089E+01 0.  0.
         13    1    3    3    0    0  0.24488750148E+02 -0.25303983161E+02 -0.82855686923E+02  0.90028142640E+02  0.10566000000E+00 0. -1.
         13    1    4    4    0    0 -0.10458384069E+02  0.10571647030E+02 -0.78226403552E+01  0.16803046879E+02  0.10566000000E+00 0. -1.
        -13    1    4    4    0    0 -0.12276825615E+02  0.12443555199E+02 -0.10233410411E+02  0.20255773642E+02  0.10566000000E+00 0.  1.
        -14    1    4    4    0    0 -0.17535404636E+01  0.22887809324E+01 -0.11742278612E+01  0.31132351957E+01  0.00000000000E+00 0.  1.
<mgrwt>
<rscale>  0 0.80811802E+02</rscale>
<asrwt>0</asrwt>
<pdfrwt beam="1">  1        1 0.17868166E-01 0.80811802E+02</pdfrwt>
<pdfrwt beam="2">  1       -2 0.21626334E-02 0.80811802E+02</pdfrwt>
<totfact> 0.14675777E+05</totfact>
</mgrwt>
</event>
<event>
 8    1  0.8577104E-018  0.8017043E+02  0.7818608E-02  0.1328568E+00
         -2   -1    0    0    0  501 -0.00000000000E+00  0.00000000000E+00  0.22597630248E+03  0.22597630250E+03  0.25500000000E-02 0.  1.
          1   -1    0    0  501    0  0.00000000000E+00 -0.00000000000E+00 -0.71105868523E+01  0.71105886384E+01  0.50400000000E-02 0. -1.
        -24    2    1    2    0    0  0.00000000000E+00  0.00000000000E+00  0.21886571563E+03  0.23308689114E+03  0.80170426847E+02 0.  0.
         66    2    3    3    0    0  0.26728738522E+01  0.25093776675E+02  0.19995654429E+03  0.20155262712E+03  0.20000025126E+01 0.  0.
         13    1    3    3    0    0 -0.26728738522E+01 -0.25093776675E+02  0.18909171338E+02  0.31534264019E+02  0.10566000000E+00 0. -1.
         13    1    4    4    0    0  0.10331658853E+01  0.35293615228E+01  0.29215481390E+02  0.29446210985E+02  0.10566000000E+00 0. -1.
        -13    1    4    4    0    0  0.30405320183E+00  0.72731918357E+01  0.56361339036E+02  0.56829600296E+02  0.10566000000E+00 0.  1.
         14    1    4    4    0    0  0.13356547651E+01  0.14291223317E+02  0.11437972387E+03  0.11527681584E+03  0.00000000000E+00 0. -1.
<mgrwt>
<rscale>  0 0.80170427E+02</rscale>
<asrwt>0</asrwt>
<pdfrwt beam="1">  1        1 0.10939366E-02 0.80170427E+02</pdfrwt>
<pdfrwt beam="2">  1       -2 0.34765583E-01 0.80170427E+02</pdfrwt>
<totfact> 0.80339239E+04</totfact>
</mgrwt>
</event>
<event>
 8    1  0.8577104E-018  0.7931081E+02  0.7818608E-02  0.1331019E+00
          1   -1    0    0  501    0  0.00000000000E+00  0.00000000000E+00  0.21785762251E+01  0.21785820550E+01  0.50400000000E-02 0. -1.
         -2   -1    0    0    0  501 -0.00000000000E+00 -0.00000000000E+00 -0.72182416062E+03  0.72182416063E+03  0.25500000000E-02 0.  1.
        -24    2    1    2    0    0  0.00000000000E+00  0.00000000000E+00 -0.71964558440E+03  0.72400274268E+03  0.79310808018E+02 0.  0.
         66    2    3    3    0    0  0.11331414532E+02  0.10556615976E+02 -0.69305416941E+03  0.69323006631E+03  0.20000001120E+01 0.  0.
         13    1    3    3    0    0 -0.11331414532E+02 -0.10556615976E+02 -0.26591414987E+02  0.30772676374E+02  0.10566000000E+00 0. -1.
         13    1    4    4    0    0  0.16268470452E+01  0.19453100573E+01 -0.12062975129E+03  0.12065644998E+03  0.10566000000E+00 0. -1.
        -13    1    4    4    0    0  0.65960654126E+01  0.64759662651E+01 -0.38180497099E+03  0.38191686695E+03  0.10566000000E+00 0.  1.
        -14    1    4    4    0    0  0.31085020741E+01  0.21353396537E+01 -0.19061944713E+03  0.19065674938E+03  0.00000000000E+00 0.  1.
<mgrwt>
<rscale>  0 0.79310808E+02</rscale>
<asrwt>0</asrwt>
<pdfrwt beam="1">  1        1 0.33516660E-03 0.79310808E+02</pdfrwt>
<pdfrwt beam="2">  1       -2 0.11104968E+00 0.79310808E+02</pdfrwt>
<totfact> 0.37588769E+04</totfact>
</mgrwt>
</event>
<event>
 8    1  0.8577104E-018  0.8296760E+02  0.7818608E-02  0.1320835E+00
          1   -1    0    0  501    0  0.00000000000E+00  0.00000000000E+00  0.10286272378E+02  0.10286273613E+02  0.50400000000E-02 0. -1.
         -2   -1    0    0    0  501 -0.00000000000E+00 -0.00000000000E+00 -0.16730118751E+03  0.16730118752E+03  0.25500000000E-02 0.  1.
        -24    2    1    2    0    0  0.00000000000E+00  0.35527136788E-14 -0.15701491513E+03  0.17758746114E+03  0.82967600792E+02 0.  0.
         66    2    3    3    0    0  0.26828966238E+02 -0.31443290643E+02 -0.71641360474E+02  0.82734264281E+02  0.19999999267E+01 0.  0.
         13    1    3    3    0    0 -0.26828966238E+02  0.31443290643E+02 -0.85373554652E+02  0.94853196856E+02  0.10566000000E+00 0. -1.
         13    1    4    4    0    0  0.14947564393E+02 -0.17773857748E+02 -0.38994119706E+02  0.45386035696E+02  0.10566000000E+00 0. -1.
        -13    1    4    4    0    0  0.20347216394E+01 -0.29374391845E+01 -0.64505839342E+01  0.73749466602E+01  0.10566000000E+00 0.  1.
        -14    1    4    4    0    0  0.98466802063E+01 -0.10731993710E+02 -0.26196656834E+02  0.29973281925E+02  0.00000000000E+00 0.  1.
<mgrwt>
<rscale>  0 0.82967601E+02</rscale>
<asrwt>0</asrwt>
<pdfrwt beam="1">  1        1 0.15825037E-02 0.82967601E+02</pdfrwt>
<pdfrwt beam="2">  1       -2 0.25738642E-01 0.82967601E+02</pdfrwt>
<totfact> 0.82886318E+04</totfact>
</mgrwt>
</event>
<event>
 8    1  0.8577104E-018  0.8610667E+02  0.7818608E-02  0.1312564E+00
          1   -1    0    0  501    0  0.00000000000E+00  0.00000000000E+00  0.94836184553E+02  0.94836184686E+02  0.50400000000E-02 0. -1.
         -2   -1    0    0    0  501 -0.00000000000E+00 -0.00000000000E+00 -0.19545172094E+02  0.19545172261E+02  0.25500000000E-02 0.  1.
        -24    2    1    2    0    0  0.00000000000E+00  0.00000000000E+00  0.75291012458E+02  0.11438135695E+03  0.86106667919E+02 0.  0.
         66    2    3    3    0    0 -0.40110814002E+02 -0.10145644556E+02  0.53370475616E+02  0.67559005417E+02  0.20000105189E+01 0.  0.
         13    1    3    3    0    0  0.40110814002E+02  0.10145644556E+02  0.21920536843E+02  0.46822351531E+02  0.10566000000E+00 0. -1.
         13    1    4    4    0    0 -0.14208593046E+02 -0.29395157136E+01  0.19182959377E+02  0.24052483520E+02  0.10566000000E+00 0. -1.
        -13    1    4    4    0    0 -0.15208510470E+02 -0.43833486452E+01  0.20943475400E+02  0.26251721123E+02  0.10566000000E+00 0.  1.
        -14    1    4    4    0    0 -0.10693710486E+02 -0.28227801971E+01  0.13244040839E+02  0.17254800773E+02  0.00000000000E+00 0.  1.
<mgrwt>
<rscale>  0 0.86106668E+02</rscale>
<asrwt>0</asrwt>
<pdfrwt beam="1">  1        1 0.14590183E-01 0.86106668E+02</pdfrwt>
<pdfrwt beam="2">  1       -2 0.30069495E-02 0.86106668E+02</pdfrwt>
<totfact> 0.11926575E+05</totfact>
</mgrwt>
</event>
<event>
 8    1  0.8577104E-018  0.7996531E+02  0.7818608E-02  0.1329150E+00
          1   -1    0    0  501    0  0.00000000000E+00  0.00000000000E+00  0.15085502061E+02  0.15085502903E+02  0.50400000000E-02 0. -1.
         -2   -1    0    0    0  501 -0.00000000000E+00 -0.00000000000E+00 -0.10597012018E+03  0.10597012021E+03  0.25500000000E-02 0.  1.
        -24    2    1    2    0    0  0.00000000000E+00  0.00000000000E+00 -0.90884618118E+02  0.12105562311E+03  0.79965305456E+02 0.  0.
         66    2    3    3    0    0 -0.17307601672E+02  0.31747539880E+02 -0.19728577343E+02  0.41239254698E+02  0.20000000103E+01 0.  0.
         13    1    3    3    0    0  0.17307601672E+02 -0.31747539880E+02 -0.71156040775E+02  0.79816368415E+02  0.10566000000E+00 0. -1.
         13    1    4    4    0    0 -0.88978264316E+00  0.10917162275E+01 -0.67790285692E+00  0.15666122023E+01  0.10566000000E+00 0. -1.
        -13    1    4    4    0    0 -0.15324296802E+02  0.28359209681E+02 -0.18004482312E+02  0.36922234406E+02  0.10566000000E+00 0.  1.
        -14    1    4    4    0    0 -0.10935222270E+01  0.22966139713E+01 -0.10461921735E+01  0.27504080894E+01  0.00000000000E+00 0.  1.
<mgrwt>
<rscale>  0 0.79965305E+02</rscale>
<asrwt>0</asrwt>
<pdfrwt beam="1">  1        1 0.23208466E-02 0.79965305E+02</pdfrwt>
<pdfrwt beam="2">  1       -2 0.16303095E-01 0.79965305E+02</pdfrwt>
<totfact> 0.10469843E+05</totfact>
</mgrwt>
</event>
<event>
 8    1  0.8577104E-018  0.8054515E+02  0.7818608E-02  0.1327511E+00
         -2   -1    0    0    0  501 -0.00000000000E+00  0.00000000000E+00  0.91371727411E+02  0.91371727446E+02  0.25500000000E-02 0.  1.
          1   -1    0    0  501    0  0.00000000000E+00 -0.00000000000E+00 -0.17750350552E+02  0.17750351267E+02  0.50400000000E-02 0. -1.
        -24    2    1    2    0    0  0.00000000000E+00  0.22204460493E-15  0.73621376859E+02  0.10912207871E+03  0.80545148409E+02 0.  0.
         66    2    3    3    0    0 -0.23985369081E+02 -0.18402118967E+01  0.80549122246E+02  0.84088318909E+02  0.19999931448E+01 0.  0.
         13    1    3    3    0    0  0.23985369081E+02  0.18402118967E+01 -0.69277453868E+01  0.25033759805E+02  0.10566000000E+00 0. -1.
         13    1    4    4    0    0 -0.38959605620E+01 -0.73357812704E-01  0.14818474668E+02  0.15322605705E+02  0.10566000000E+00 0.  1.
        -13    1    4    4    0    0 -0.23599604839E+01 -0.26915346231E+00  0.65455548394E+01  0.69640009522E+01  0.10566000000E+00 0. -1.
        -14    1    4    4    0    0 -0.17729448035E+02 -0.14977006217E+01  0.59185092739E+02  0.61801712252E+02  0.00000000000E+00 0.  1.
<mgrwt>
<rscale>  0 0.80545148E+02</rscale>
<asrwt>0</asrwt>
<pdfrwt beam="1">  1        1 0.27308232E-02 0.80545148E+02</pdfrwt>
<pdfrwt beam="2">  1       -2 0.14057189E-01 0.80545148E+02</pdfrwt>
<totfact> 0.10659845E+05</totfact>
</mgrwt>
</event>
<event>
 8    1  0.8577104E-018  0.8343588E+02  0.7818608E-02  0.1319574E+00
          1   -1    0    0  501    0  0.00000000000E+00  0.00000000000E+00  0.18844691269E+02  0.18844691943E+02  0.50400000000E-02 0. -1.
         -2   -1    0    0    0  501 -0.00000000000E+00 -0.00000000000E+00 -0.92354201823E+02  0.92354201858E+02  0.25500000000E-02 0.  1.
        -24    2    1    2    0    0  0.00000000000E+00  0.00000000000E+00 -0.73509510553E+02  0.11119889380E+03  0.83435878618E+02 0.  0.
         66    2    3    3    0    0  0.39715526499E+01 -0.16140799174E+02 -0.87736306838E+02  0.89319416546E+02  0.20000015267E+01 0.  0.
         13    1    3    3    0    0 -0.39715526499E+01  0.16140799174E+02  0.14226796284E+02  0.21879477255E+02  0.10566000000E+00 0. -1.
         13    1    4    4    0    0  0.19099264011E-01 -0.36859025755E+00 -0.14417856545E+01  0.14920232803E+01  0.10566000000E+00 0.  1.
        -13    1    4    4    0    0  0.84889131436E-01 -0.18251394112E+01 -0.80388614471E+01  0.82445616885E+01  0.10566000000E+00 0.  1.
        -14    1    4    4    0    0  0.38675642544E+01 -0.13947069505E+02 -0.78255659736E+02  0.79582831577E+02  0.00000000000E+00 0.  1.
<mgrwt>
<rscale>  0 0.83435879E+02</rscale>
<asrwt>0</asrwt>
<pdfrwt beam="1">  1        1 0.28991834E-02 0.83435879E+02</pdfrwt>
<pdfrwt beam="2">  1       -2 0.14208338E-01 0.83435879E+02</pdfrwt>
<totfact> 0.97159753E+04</totfact>
</mgrwt>
</event>
<event>
 8    1  0.8577104E-018  0.8032158E+02  0.7818608E-02  0.1328141E+00
          1   -1    0    0  501    0  0.00000000000E+00  0.00000000000E+00  0.74262318640E+01  0.74262335743E+01  0.50400000000E-02 0. -1.
         -2   -1    0    0    0  501 -0.00000000000E+00 -0.00000000000E+00 -0.21718806140E+03  0.21718806141E+03  0.25500000000E-02 0.  1.
        -24    2    1    2    0    0 -0.22204460493E-15  0.00000000000E+00 -0.20976182953E+03  0.22461429499E+03  0.80321581055E+02 0.  0.
         66    2    3    3    0    0  0.11918414557E+01 -0.36479195993E+02 -0.15163303042E+03  0.15597669103E+03  0.20000010531E+01 0.  0.
         13    1    3    3    0    0 -0.11918414557E+01  0.36479195993E+02 -0.58128799112E+02  0.68637603954E+02  0.10566000000E+00 0. -1.
         13    1    4    4    0    0 -0.30480236001E+00 -0.13475652831E+01 -0.57302473973E+01  0.58953995573E+01  0.10566000000E+00 0. -1.
        -13    1    4    4    0    0  0.38159742127E+00 -0.13190370601E+02 -0.55504946074E+02  0.57052096333E+02  0.10566000000E+00 0.  1.
        -14    1    4    4    0    0  0.11150463944E+01 -0.21941260109E+02 -0.90397836950E+02  0.93029195142E+02  0.00000000000E+00 0.  1.
<mgrwt>
<rscale>  0 0.80321581E+02</rscale>
<asrwt>0</asrwt>
<pdfrwt beam="1">  1        1 0.11424975E-02 0.80321581E+02</pdfrwt>
<pdfrwt beam="2">  1       -2 0.33413543E-01 0.80321581E+02</pdfrwt>
<totfact> 0.81347242E+04</totfact>
</mgrwt>
</event>
<event>
 8    1  0.8577104E-018  0.8113080E+02  0.7818608E-02  0.1325873E+00
          1   -1    0    0  501    0  0.00000000000E+00  0.00000000000E+00  0.19579277987E+02  0.19579278636E+02  0.50400000000E-02 0. -1.
         -2   -1    0    0    0  501 -0.00000000000E+00 -0.00000000000E+00 -0.84045571313E+02  0.84045571352E+02  0.25500000000E-02 0.  1.
        -24    2    1    2    0    0  0.00000000000E+00  0.00000000000E+00 -0.64466293326E+02  0.10362484999E+03  0.81130799083E+02 0.  0.
         66    2    3    3    0    0 -0.20657637802E+02  0.36340724783E+01 -0.76564505785E+02  0.79410755103E+02  0.19999994255E+01 0.  0.
         13    1    3    3    0    0  0.20657637802E+02 -0.36340724783E+01  0.12098212458E+02  0.24214094884E+02  0.10566000000E+00 0. -1.
         13    1    4    4    0    0 -0.21633728037E+01  0.65550377893E+00 -0.66055101050E+01  0.69823917732E+01  0.10566000000E+00 0. -1.
        -13    1    4    4    0    0 -0.15345912271E+02  0.27402285410E+01 -0.57549901153E+02  0.59623889194E+02  0.10566000000E+00 0.  1.
         14    1    4    4    0    0 -0.31483527274E+01  0.23834015838E+00 -0.12409094527E+02  0.12804474136E+02  0.00000000000E+00 0. -1.
<mgrwt>
<rscale>  0 0.81130799E+02</rscale>
<asrwt>0</asrwt>
<pdfrwt beam="1">  1        1 0.30121967E-02 0.81130799E+02</pdfrwt>
<pdfrwt beam="2">  1       -2 0.12930088E-01 0.81130799E+02</pdfrwt>
<totfact> 0.10666875E+05</totfact>
</mgrwt>
</event>
<event>
 8    1  0.8577104E-018  0.7877136E+02  0.7818608E-02  0.1332575E+00
          1   -1    0    0  501    0  0.00000000000E+00  0.00000000000E+00  0.30320090596E+01  0.30320132485E+01  0.50400000000E-02 0. -1.
         -2   -1    0    0    0  501 -0.00000000000E+00 -0.00000000000E+00 -0.51161809679E+03  0.51161809680E+03  0.25500000000E-02 0.  1.
        -24    2    1    2    0    0 -0.35527136788E-14 -0.22204460493E-15 -0.50858608773E+03  0.51465011005E+03  0.78771359873E+02 0.  0.
         66    2    3    3    0    0 -0.28379710689E+02 -0.17299451900E+01 -0.43228522692E+03  0.43322386604E+03  0.19999998374E+01 0.  0.
         13    1    3    3    0    0  0.28379710689E+02  0.17299451900E+01 -0.76300860809E+02  0.81426244009E+02  0.10566000000E+00 0. -1.
         13    1    4    4    0    0 -0.83107563447E+01 -0.67390892510E+00 -0.13471324037E+03  0.13497107512E+03  0.10566000000E+00 0. -1.
        -13    1    4    4    0    0 -0.16321333810E+02 -0.12176627248E+01 -0.24735878708E+03  0.24789967598E+03  0.10566000000E+00 0.  1.
        -14    1    4    4    0    0 -0.37476205344E+01  0.16162645994E+00 -0.50213199469E+02  0.50353114935E+02  0.00000000000E+00 0.  1.
<mgrwt>
<rscale>  0 0.78771360E+02</rscale>
<asrwt>0</asrwt>
<pdfrwt beam="1">  1        1 0.46646366E-03 0.78771360E+02</pdfrwt>
<pdfrwt beam="2">  1       -2 0.78710408E-01 0.78771360E+02</pdfrwt>
<totfact> 0.51519545E+04</totfact>
</mgrwt>
</event>
<event>
 8    1  0.8577104E-018  0.8121408E+02  0.7818608E-02  0.1325641E+00
         -2   -1    0    0    0  501 -0.00000000000E+00  0.00000000000E+00  0.24435111947E+02  0.24435112080E+02  0.25500000000E-02 0.  1.
          1   -1    0    0  501    0  0.00000000000E+00 -0.00000000000E+00 -0.67482061656E+02  0.67482061844E+02  0.50400000000E-02 0. -1.
        -24    2    1    2    0    0 -0.17763568394E-14  0.00000000000E+00 -0.43046949709E+02  0.91917173924E+02  0.81214081186E+02 0.  0.
         66    2    3    3    0    0  0.14434879745E+02  0.22642952438E+01  0.21313839037E+02  0.25918574861E+02  0.20000005395E+01 0.  0.
         13    1    3    3    0    0 -0.14434879745E+02 -0.22642952438E+01 -0.64360788746E+02  0.65998599062E+02  0.10566000000E+00 0. -1.
         13    1    4    4    0    0  0.13555221487E+00 -0.23014247728E-01  0.39701960497E+00  0.43323511040E+00  0.10566000000E+00 0.  1.
        -13    1    4    4    0    0  0.10125146596E+02  0.91988480769E+00  0.14602985072E+02  0.17793906785E+02  0.10566000000E+00 0.  1.
         14    1    4    4    0    0  0.41741809341E+01  0.13674246839E+01  0.63138343602E+01  0.76914329656E+01  0.00000000000E+00 0. -1.
<mgrwt>
<rscale>  0 0.81214081E+02</rscale>
<asrwt>0</asrwt>
<pdfrwt beam="1">  1        1 0.10381856E-01 0.81214081E+02</pdfrwt>
<pdfrwt beam="2">  1       -2 0.37592480E-02 0.81214081E+02</pdfrwt>
<totfact> 0.13231975E+05</totfact>
</mgrwt>
</event>
<event>
 8    1  0.8577104E-018  0.7977174E+02  0.7818608E-02  0.1329700E+00
         -2   -1    0    0    0  501 -0.00000000000E+00  0.00000000000E+00  0.14196282213E+04  0.14196282213E+04  0.25500000000E-02 0.  1.
          1   -1    0    0  501    0  0.00000000000E+00 -0.00000000000E+00 -0.11206276232E+01  0.11206389568E+01  0.50400000000E-02 0. -1.
        -24    2    1    2    0    0  0.00000000000E+00  0.00000000000E+00  0.14185075937E+04  0.14207488603E+04  0.79771740666E+02 0.  0.
         66    2    3    3    0    0 -0.22348762456E+01  0.15967571421E+02  0.13589568335E+04  0.13590539479E+04  0.19999983412E+01 0.  0.
         13    1    3    3    0    0  0.22348762456E+01 -0.15967571421E+02  0.59550760248E+02  0.61694912424E+02  0.10566000000E+00 0. -1.
         13    1    4    4    0    0 -0.26341718573E+00  0.46110532033E+00  0.39157256690E+02  0.39161000016E+02  0.10566000000E+00 0.  1.
        -13    1    4    4    0    0 -0.13494818653E+01  0.94368807147E+01  0.74522899604E+03  0.74528997278E+03  0.10566000000E+00 0.  1.
        -14    1    4    4    0    0 -0.62197719448E+00  0.60695853855E+01  0.57457058073E+03  0.57460297507E+03  0.00000000000E+00 0.  1.
<mgrwt>
<rscale>  0 0.79771741E+02</rscale>
<asrwt>0</asrwt>
<pdfrwt beam="1">  1        1 0.17240444E-03 0.79771741E+02</pdfrwt>
<pdfrwt beam="2">  1       -2 0.21840520E+00 0.79771741E+02</pdfrwt>
<totfact> 0.16375392E+04</totfact>
</mgrwt>
</event>
<event>
 8    1  0.8577104E-018  0.8403913E+02  0.7818608E-02  0.1317965E+00
         -2   -1    0    0    0  501 -0.00000000000E+00  0.00000000000E+00  0.10106197386E+02  0.10106197707E+02  0.25500000000E-02 0.  1.
          1   -1    0    0  501    0  0.00000000000E+00 -0.00000000000E+00 -0.17470901838E+03  0.17470901845E+03  0.50400000000E-02 0. -1.
        -24    2    1    2    0    0 -0.35527136788E-14  0.00000000000E+00 -0.16460282099E+03  0.18481521616E+03  0.84039130439E+02 0.  0.
         66    2    3    3    0    0 -0.24826408971E+02 -0.23844956418E+02 -0.29444286113E+02  0.45342017142E+02  0.20000012174E+01 0.  0.
         13    1    3    3    0    0  0.24826408971E+02  0.23844956418E+02 -0.13515853488E+03  0.13947319902E+03  0.10566000000E+00 0. -1.
         13    1    4    4    0    0 -0.20644199386E+01 -0.15070365180E+01 -0.22411468311E+01  0.34010133642E+01  0.10566000000E+00 0. -1.
        -13    1    4    4    0    0 -0.16595564561E+00 -0.29769211881E+00 -0.32871614230E+00  0.48515998569E+00  0.10566000000E+00 0.  1.
        -14    1    4    4    0    0 -0.22596033387E+02 -0.22040227781E+02 -0.26874423140E+02  0.41455843793E+02  0.00000000000E+00 0.  1.
<mgrwt>
<rscale>  0 0.84039130E+02</rscale>
<asrwt>0</asrwt>
<pdfrwt beam="1">  1        1 0.26878308E-01 0.84039130E+02</pdfrwt>
<pdfrwt beam="2">  1       -2 0.15547998E-02 0.84039130E+02</pdfrwt>
<totfact> 0.14243459E+05</totfact>
</mgrwt>
</event>
<event>
 8    1  0.8577104E-018  0.7974047E+02  0.7818608E-02  0.1329790E+00
          1   -1    0    0  501    0  0.00000000000E+00  0.00000000000E+00  0.98189234051E+02  0.98189234181E+02  0.50400000000E-02 0. -1.
         -2   -1    0    0    0  501 -0.00000000000E+00 -0.00000000000E+00 -0.16189509325E+02  0.16189509526E+02  0.25500000000E-02 0.  1.
        -24    2    1    2    0    0  0.00000000000E+00  0.00000000000E+00  0.81999724727E+02  0.11437874371E+03  0.79740467497E+02 0.  0.
         66    2    3    3    0    0  0.25942484432E+01  0.28400082381E+02  0.11110351263E+01  0.28609949419E+02  0.20000006252E+01 0.  0.
         13    1    3    3    0    0 -0.25942484432E+01 -0.28400082381E+02  0.80888689600E+02  0.85768794287E+02  0.10566000000E+00 0. -1.
         13    1    4    4    0    0 -0.36509787082E-01  0.34009605209E+00 -0.13330274401E+00  0.38201040086E+00  0.10566000000E+00 0. -1.
        -13    1    4    4    0    0  0.19233031808E+01  0.21141785053E+02  0.13578767365E+01  0.21272732866E+02  0.10566000000E+00 0.  1.
        -14    1    4    4    0    0  0.70745504943E+00  0.69182012759E+01 -0.11353886623E+00  0.69552061519E+01  0.00000000000E+00 0.  1.
<mgrwt>
<rscale>  0 0.79740467E+02</rscale>
<asrwt>0</asrwt>
<pdfrwt beam="1">  1        1 0.15106036E-01 0.79740467E+02</pdfrwt>
<pdfrwt beam="2">  1       -2 0.24906937E-02 0.79740467E+02</pdfrwt>
<totfact> 0.14783406E+05</totfact>
</mgrwt>
</event>
<event>
 8    1  0.8577104E-018  0.7521721E+02  0.7818608E-02  0.1343200E+00
          1   -1    0    0  501    0  0.00000000000E+00  0.00000000000E+00  0.18107825963E+03  0.18107825970E+03  0.50400000000E-02 0. -1.
         -2   -1    0    0    0  501 -0.00000000000E+00 -0.00000000000E+00 -0.78110267678E+01  0.78110271840E+01  0.25500000000E-02 0.  1.
        -24    2    1    2    0    0  0.00000000000E+00  0.00000000000E+00  0.17326723287E+03  0.18888928689E+03  0.75217210238E+02 0.  0.
         66    2    3    3    0    0 -0.27378535131E+02  0.86244314754E+01  0.25777458616E+02  0.38632141711E+02  0.19999990750E+01 0.  0.
         13    1    3    3    0    0  0.27378535131E+02 -0.86244314754E+01  0.14748977425E+03  0.15025714518E+03  0.10566000000E+00 0. -1.
         13    1    4    4    0    0 -0.43384189997E+01  0.19139317132E+01  0.37936489343E+01  0.60735451173E+01  0.10566000000E+00 0. -1.
        -13    1    4    4    0    0 -0.12995536441E+02  0.33137180075E+01  0.12132377155E+02  0.18085088716E+02  0.10566000000E+00 0.  1.
        -14    1    4    4    0    0 -0.10044579691E+02  0.33967817547E+01  0.98514325268E+01  0.14473507878E+02  0.00000000000E+00 0.  1.
<mgrwt>
<rscale>  0 0.75217210E+02</rscale>
<asrwt>0</asrwt>
<pdfrwt beam="1">  1        1 0.27858195E-01 0.75217210E+02</pdfrwt>
<pdfrwt beam="2">  1       -2 0.12016964E-02 0.75217210E+02</pdfrwt>
<totfact> 0.19261063E+05</totfact>
</mgrwt>
</event>
<event>
 8    1  0.8577104E-018  0.8131345E+02  0.7818608E-02  0.1325365E+00
         -2   -1    0    0    0  501 -0.00000000000E+00  0.00000000000E+00  0.74995780626E+02  0.74995780670E+02  0.25500000000E-02 0.  1.
          1   -1    0    0  501    0  0.00000000000E+00 -0.00000000000E+00 -0.22040828569E+02  0.22040829145E+02  0.50400000000E-02 0. -1.
        -24    2    1    2    0    0  0.00000000000E+00  0.00000000000E+00  0.52954952057E+02  0.97036609815E+02  0.81313447209E+02 0.  0.
         66    2    3    3    0    0 -0.27877158790E+02 -0.20348859214E+02  0.52081377195E+02  0.62511454485E+02  0.20000094416E+01 0.  0.
         13    1    3    3    0    0  0.27877158790E+02  0.20348859214E+02  0.87357486252E+00  0.34525155330E+02  0.10566000000E+00 0. -1.
         13    1    4    4    0    0 -0.15795050185E+01 -0.16222266770E+01  0.29195199361E+01  0.36961082490E+01  0.10566000000E+00 0. -1.
        -13    1    4    4    0    0 -0.21612569230E+02 -0.15495495998E+02  0.40357251223E+02  0.48331484927E+02  0.10566000000E+00 0.  1.
         14    1    4    4    0    0 -0.46850845417E+01 -0.32311365390E+01  0.88046060357E+01  0.10483861309E+02  0.00000000000E+00 0. -1.
<mgrwt>
<rscale>  0 0.81313447E+02</rscale>
<asrwt>0</asrwt>
<pdfrwt beam="1">  1        1 0.33908967E-02 0.81313447E+02</pdfrwt>
<pdfrwt beam="2">  1       -2 0.11537813E-01 0.81313447E+02</pdfrwt>
<totfact> 0.10870227E+05</totfact>
</mgrwt>
</event>
<event>
 8    1  0.8577104E-018  0.8020107E+02  0.7818608E-02  0.1328482E+00
          1   -1    0    0  501    0  0.00000000000E+00  0.00000000000E+00  0.24773991396E+03  0.24773991402E+03  0.50400000000E-02 0. -1.
         -2   -1    0    0    0  501 -0.00000000000E+00 -0.00000000000E+00 -0.64908905940E+01  0.64908910948E+01  0.25500000000E-02 0.  1.
        -24    2    1    2    0    0  0.00000000000E+00  0.00000000000E+00  0.24124902337E+03  0.25423080511E+03  0.80201066015E+02 0.  0.
         66    2    3    3    0    0 -0.12478795934E+02 -0.37680127997E+02  0.10318271876E+03  0.11057208443E+03  0.20000028454E+01 0.  0.
         13    1    3    3    0    0  0.12478795934E+02  0.37680127997E+02  0.13806630461E+03  0.14365872068E+03  0.10566000000E+00 0. -1.
         13    1    4    4    0    0 -0.28347423479E+01 -0.76258885776E+01  0.22187954993E+02  0.23632741093E+02  0.10566000000E+00 0. -1.
        -13    1    4    4    0    0 -0.54292897170E+01 -0.14741409848E+02  0.39604546950E+02  0.42606544735E+02  0.10566000000E+00 0.  1.
         14    1    4    4    0    0 -0.42147638687E+01 -0.15312829571E+02  0.41390216817E+02  0.44332798604E+02  0.00000000000E+00 0. -1.
<mgrwt>
<rscale>  0 0.80201066E+02</rscale>
<asrwt>0</asrwt>
<pdfrwt beam="1">  1        1 0.38113836E-01 0.80201066E+02</pdfrwt>
<pdfrwt beam="2">  1       -2 0.99859852E-03 0.80201066E+02</pdfrwt>
<totfact> 0.17269464E+05</totfact>
</mgrwt>
</event>
<event>
 8    1  0.8577104E-018  0.7932039E+02  0.7818608E-02  0.1330991E+00
          1   -1    0    0  501    0  0.00000000000E+00  0.00000000000E+00  0.35088483952E+02  0.35088484314E+02  0.50400000000E-02 0. -1.
         -2   -1    0    0    0  501 -0.00000000000E+00 -0.00000000000E+00 -0.44827557962E+02  0.44827558035E+02  0.25500000000E-02 0.  1.
        -24    2    1    2    0    0  0.00000000000E+00 -0.88817841970E-15 -0.97390740105E+01  0.79916042348E+02  0.79320389951E+02 0.  0.
         66    2    3    3    0    0  0.28396819434E+02 -0.43186588885E+01 -0.32388811141E+02  0.43336650271E+02  0.20000002453E+01 0.  0.
         13    1    3    3    0    0 -0.28396819434E+02  0.43186588885E+01  0.22649737131E+02  0.36579392077E+02  0.10566000000E+00 0. -1.
         13    1    4    4    0    0  0.84303221805E+01 -0.20688011961E+01 -0.93568871126E+01  0.12763728724E+02  0.10566000000E+00 0. -1.
        -13    1    4    4    0    0  0.46896846263E+01 -0.24766561888E+00 -0.54900566031E+01  0.72253972689E+01  0.10566000000E+00 0. -1.
        -14    1    4    4    0    0  0.15276812628E+02 -0.20021920735E+01 -0.17541867426E+02  0.23347524279E+02  0.00000000000E+00 0.  1.
<mgrwt>
<rscale>  0 0.79320390E+02</rscale>
<asrwt>0</asrwt>
<pdfrwt beam="1">  1        1 0.53982284E-02 0.79320390E+02</pdfrwt>
<pdfrwt beam="2">  1       -2 0.68965474E-02 0.79320390E+02</pdfrwt>
<totfact> 0.12730463E+05</totfact>
</mgrwt>
</event>
<event>
 8    1  0.8577104E-018  0.7959730E+02  0.7818608E-02  0.1330198E+00
         -2   -1    0    0    0  501 -0.00000000000E+00  0.00000000000E+00  0.27273045509E+02  0.27273045628E+02  0.25500000000E-02 0.  1.
          1   -1    0    0  501    0  0.00000000000E+00 -0.00000000000E+00 -0.58076850679E+02  0.58076850898E+02  0.50400000000E-02 0. -1.
        -24    2    1    2    0    0  0.00000000000E+00  0.00000000000E+00 -0.30803805171E+02  0.85349896526E+02  0.79597301613E+02 0.  0.
         66    2    3    3    0    0  0.11966904272E+02  0.21106621791E+02  0.18381643499E+02  0.30505427287E+02  0.19999987325E+01 0.  0.
         13    1    3    3    0    0 -0.11966904272E+02 -0.21106621791E+02 -0.49185448669E+02  0.54844469239E+02  0.10566000000E+00 0. -1.
         13    1    4    4    0    0  0.80841554240E+01  0.15942226002E+02  0.13641985371E+02  0.22486063855E+02  0.10566000000E+00 0.  1.
        -13    1    4    4    0    0  0.27010611081E+01  0.33820996089E+01  0.32310167165E+01  0.54023107956E+01  0.10566000000E+00 0. -1.
        -14    1    4    4    0    0  0.11816877402E+01  0.17822961807E+01  0.15086414116E+01  0.26170526361E+01  0.00000000000E+00 0.  1.
<mgrwt>
<rscale>  0 0.79597302E+02</rscale>
<asrwt>0</asrwt>
<pdfrwt beam="1">  1        1 0.89349002E-02 0.79597302E+02</pdfrwt>
<pdfrwt beam="2">  1       -2 0.41958532E-02 0.79597302E+02</pdfrwt>
<totfact> 0.13658510E+05</totfact>
</mgrwt>
</event>
<event>
 8    1  0.8577104E-018  0.8002075E+02  0.7818608E-02  0.1328993E+00
          1   -1    0    0  501    0  0.00000000000E+00  0.00000000000E+00  0.41969234459E+03  0.41969234462E+03  0.50400000000E-02 0. -1.
         -2   -1    0    0    0  501 -0.00000000000E+00 -0.00000000000E+00 -0.38142938391E+01  0.38142946915E+01  0.25500000000E-02 0.  1.
        -24    2    1    2    0    0  0.00000000000E+00  0.17763568394E-14  0.41587805075E+03  0.42350663931E+03  0.80020750089E+02 0.  0.
         66    2    3    3    0    0 -0.36092595833E+02 -0.12455131279E+02  0.27091736049E+03  0.27360194074E+03  0.19999981058E+01 0.  0.
         13    1    3    3    0    0  0.36092595833E+02  0.12455131279E+02  0.14496069026E+03  0.14990469858E+03  0.10566000000E+00 0. -1.
         13    1    4    4    0    0 -0.13087730224E+02 -0.39590455067E+01  0.10247471334E+03  0.10338298101E+03  0.10566000000E+00 0. -1.
        -13    1    4    4    0    0 -0.15935422233E+02 -0.57667355959E+01  0.11733968927E+03  0.11855718773E+03  0.10566000000E+00 0.  1.
         14    1    4    4    0    0 -0.70694433760E+01 -0.27293501760E+01  0.51102957880E+02  0.51661772000E+02  0.00000000000E+00 0. -1.
<mgrwt>
<rscale>  0 0.80020750E+02</rscale>
<asrwt>0</asrwt>
<pdfrwt beam="1">  1        1 0.64568067E-01 0.80020750E+02</pdfrwt>
<pdfrwt beam="2">  1       -2 0.58681438E-03 0.80020750E+02</pdfrwt>
<totfact> 0.19126810E+05</totfact>
</mgrwt>
</event>
<event>
 8    1  0.8577104E-018  0.8027077E+02  0.7818608E-02  0.1328285E+00
         -2   -1    0    0    0  501 -0.00000000000E+00  0.00000000000E+00  0.25352418509E+02  0.25352418637E+02  0.25500000000E-02 0.  1.
          1   -1    0    0  501    0  0.00000000000E+00 -0.00000000000E+00 -0.63538288649E+02  0.63538288849E+02  0.50400000000E-02 0. -1.
        -24    2    1    2    0    0  0.00000000000E+00  0.00000000000E+00 -0.38185870140E+02  0.88890707486E+02  0.80270774252E+02 0.  0.
         66    2    3    3    0    0  0.29406613360E+02 -0.19135899585E+02  0.24227997351E+01  0.35225012715E+02  0.19999999877E+01 0.  0.
         13    1    3    3    0    0 -0.29406613360E+02  0.19135899585E+02 -0.40608669875E+02  0.53665694772E+02  0.10566000000E+00 0. -1.
         13    1    4    4    0    0  0.18745024418E+02 -0.11215208690E+02  0.13103818988E+01  0.21883443769E+02  0.10566000000E+00 0. -1.
        -13    1    4    4    0    0  0.24640795351E+01 -0.21270194543E+01  0.25736967904E+00  0.32670021276E+01  0.10566000000E+00 0.  1.
         14    1    4    4    0    0  0.81975094069E+01 -0.57936714398E+01  0.85504815726E+00  0.10074566818E+02  0.00000000000E+00 0. -1.
<mgrwt>
<rscale>  0 0.80270774E+02</rscale>
<asrwt>0</asrwt>
<pdfrwt beam="1">  1        1 0.97751214E-02 0.80270774E+02</pdfrwt>
<pdfrwt beam="2">  1       -2 0.39003721E-02 0.80270774E+02</pdfrwt>
<totfact> 0.13534236E+05</totfact>
</mgrwt>
</event>
<event>
 8    1  0.8577104E-018  0.7996870E+02  0.7818608E-02  0.1329140E+00
         -2   -1    0    0    0  501 -0.00000000000E+00  0.00000000000E+00  0.34038966199E+03  0.34038966200E+03  0.25500000000E-02 0.  1.
          1   -1    0    0  501    0  0.00000000000E+00 -0.00000000000E+00 -0.46968167433E+01  0.46968194474E+01  0.50400000000E-02 0. -1.
        -24    2    1    2    0    0 -0.35527136788E-14  0.88817841970E-15  0.33569284525E+03  0.34508648145E+03  0.79968702176E+02 0.  0.
         66    2    3    3    0    0 -0.17670170231E+02  0.44875322127E+01  0.32139340795E+03  0.32191628653E+03  0.19999997822E+01 0.  0.
         13    1    3    3    0    0  0.17670170231E+02 -0.44875322127E+01  0.14299437295E+02  0.23170194914E+02  0.10566000000E+00 0. -1.
         13    1    4    4    0    0 -0.15541040806E+01 -0.10433953264E-01  0.30711317135E+02  0.30750796942E+02  0.10566000000E+00 0. -1.
        -13    1    4    4    0    0 -0.11078171947E+02  0.29427421010E+01  0.20768679411E+03  0.20800288757E+03  0.10566000000E+00 0.  1.
         14    1    4    4    0    0 -0.50378942037E+01  0.15552240650E+01  0.82995296708E+02  0.83162602024E+02  0.00000000000E+00 0. -1.
<mgrwt>
<rscale>  0 0.79968702E+02</rscale>
<asrwt>0</asrwt>
<pdfrwt beam="1">  1        1 0.72258730E-03 0.79968702E+02</pdfrwt>
<pdfrwt beam="2">  1       -2 0.52367648E-01 0.79968702E+02</pdfrwt>
<totfact> 0.65464339E+04</totfact>
</mgrwt>
</event>
<event>
 8    1  0.8577104E-018  0.8062398E+02  0.7818608E-02  0.1327290E+00
         -2   -1    0    0    0  501 -0.00000000000E+00  0.00000000000E+00  0.31551630000E+03  0.31551630001E+03  0.25500000000E-02 0.  1.
          1   -1    0    0  501    0  0.00000000000E+00 -0.00000000000E+00 -0.51504664386E+01  0.51504689046E+01  0.50400000000E-02 0. -1.
        -24    2    1    2    0    0  0.00000000000E+00  0.00000000000E+00  0.31036583356E+03  0.32066676892E+03  0.80623979337E+02 0.  0.
         66    2    3    3    0    0 -0.46473084582E+01 -0.32846202700E+02  0.24619963498E+03  0.24843254772E+03  0.19999982322E+01 0.  0.
         13    1    3    3    0    0  0.46473084582E+01  0.32846202700E+02  0.64166198582E+02  0.72234221199E+02  0.10566000000E+00 0. -1.
         13    1    4    4    0    0 -0.53748481385E-01 -0.24712156834E+00  0.13016348816E+01  0.13301786983E+01  0.10566000000E+00 0. -1.
        -13    1    4    4    0    0 -0.32150046415E+01 -0.19827183767E+02  0.14941477441E+03  0.15075887850E+03  0.10566000000E+00 0.  1.
         14    1    4    4    0    0 -0.13785553352E+01 -0.12771897365E+02  0.95483225690E+02  0.96343490518E+02  0.00000000000E+00 0. -1.
<mgrwt>
<rscale>  0 0.80623979E+02</rscale>
<asrwt>0</asrwt>
<pdfrwt beam="1">  1        1 0.79237965E-03 0.80623979E+02</pdfrwt>
<pdfrwt beam="2">  1       -2 0.48540969E-01 0.80623979E+02</pdfrwt>
<totfact> 0.66976307E+04</totfact>
</mgrwt>
</event>
<event>
 8    1  0.8577104E-018  0.8014171E+02  0.7818608E-02  0.1328650E+00
         -2   -1    0    0    0  501 -0.00000000000E+00  0.00000000000E+00  0.19174934162E+02  0.19174934331E+02  0.25500000000E-02 0.  1.
          1   -1    0    0  501    0  0.00000000000E+00 -0.00000000000E+00 -0.83738138842E+02  0.83738138993E+02  0.50400000000E-02 0. -1.
        -24    2    1    2    0    0 -0.35527136788E-14  0.35527136788E-14 -0.64563204680E+02  0.10291307332E+03  0.80141707385E+02 0.  0.
         66    2    3    3    0    0  0.17943975969E+02 -0.19933822418E+02  0.58855530249E+01  0.27531496160E+02  0.19999991570E+01 0.  0.
         13    1    3    3    0    0 -0.17943975969E+02  0.19933822418E+02 -0.70448757705E+02  0.75381577165E+02  0.10566000000E+00 0. -1.
         13    1    4    4    0    0  0.87652905223E+01 -0.99804092000E+01  0.28639319841E+01  0.13588677499E+02  0.10566000000E+00 0.  1.
        -13    1    4    4    0    0  0.43617488632E+01 -0.37208455845E+01  0.12308880001E+01  0.58647927767E+01  0.10566000000E+00 0. -1.
         14    1    4    4    0    0  0.48169365832E+01 -0.62325676333E+01  0.17907330406E+01  0.80780258835E+01  0.00000000000E+00 0. -1.
<mgrwt>
<rscale>  0 0.80141707E+02</rscale>
<asrwt>0</asrwt>
<pdfrwt beam="1">  1        1 0.12882790E-01 0.80141707E+02</pdfrwt>
<pdfrwt beam="2">  1       -2 0.29499899E-02 0.80141707E+02</pdfrwt>
<totfact> 0.14205898E+05</totfact>
</mgrwt>
</event>
<event>
 8    1  0.8577104E-018  0.7735537E+02  0.7818608E-02  0.1336729E+00
          1   -1    0    0  501    0  0.00000000000E+00  0.00000000000E+00  0.87940659820E+02  0.87940659964E+02  0.50400000000E-02 0. -1.
         -2   -1    0    0    0  501 -0.00000000000E+00 -0.00000000000E+00 -0.17011055457E+02  0.17011055648E+02  0.25500000000E-02 0.  1.
        -24    2    1    2    0    0  0.00000000000E+00  0.00000000000E+00  0.70929604363E+02  0.10495171561E+03  0.77355373665E+02 0.  0.
         66    2    3    3    0    0  0.16100016280E+02 -0.33899661912E+02  0.22938642190E+02  0.44029295960E+02  0.19999988104E+01 0.  0.
         13    1    3    3    0    0 -0.16100016280E+02  0.33899661912E+02  0.47990962173E+02  0.60922419652E+02  0.10566000000E+00 0. -1.
         13    1    4    4    0    0  0.44311420072E+00 -0.84370815214E+00  0.87667312479E+00  0.12991972307E+01  0.10566000000E+00 0. -1.
        -13    1    4    4    0    0  0.72759290582E+01 -0.14554256414E+02  0.10328668674E+02  0.19273247885E+02  0.10566000000E+00 0.  1.
         14    1    4    4    0    0  0.83809730214E+01 -0.18501697346E+02  0.11733300391E+02  0.23456850844E+02  0.00000000000E+00 0. -1.
<mgrwt>
<rscale>  0 0.77355374E+02</rscale>
<asrwt>0</asrwt>
<pdfrwt beam="1">  1        1 0.13529332E-01 0.77355374E+02</pdfrwt>
<pdfrwt beam="2">  1       -2 0.26170855E-02 0.77355374E+02</pdfrwt>
<totfact> 0.15760242E+05</totfact>
</mgrwt>
</event>
<event>
 8    1  0.8577104E-018  0.8088208E+02  0.7818608E-02  0.1326567E+00
         -2   -1    0    0    0  501 -0.00000000000E+00  0.00000000000E+00  0.72655987260E+01  0.72655991735E+01  0.25500000000E-02 0.  1.
          1   -1    0    0  501    0  0.00000000000E+00 -0.00000000000E+00 -0.22509881769E+03  0.22509881775E+03  0.50400000000E-02 0. -1.
        -24    2    1    2    0    0  0.88817841970E-15  0.00000000000E+00 -0.21783321897E+03  0.23236441692E+03  0.80882080626E+02 0.  0.
         66    2    3    3    0    0 -0.71550686313E+01 -0.36090761227E+02 -0.60933340821E+02  0.71208216362E+02  0.20000001816E+01 0.  0.
         13    1    3    3    0    0  0.71550686313E+01  0.36090761227E+02 -0.15689987815E+03  0.16115620056E+03  0.10566000000E+00 0. -1.
         13    1    4    4    0    0 -0.13205510702E+01 -0.77299090486E+01 -0.13549827456E+02  0.15655808416E+02  0.10566000000E+00 0.  1.
        -13    1    4    4    0    0 -0.26593632627E+01 -0.95619753111E+01 -0.16814127911E+02  0.19525102977E+02  0.10566000000E+00 0.  1.
        -14    1    4    4    0    0 -0.31751542984E+01 -0.18798876868E+02 -0.30569385454E+02  0.36027304969E+02  0.00000000000E+00 0.  1.
<mgrwt>
<rscale>  0 0.80882081E+02</rscale>
<asrwt>0</asrwt>
<pdfrwt beam="1">  1        1 0.34630582E-01 0.80882081E+02</pdfrwt>
<pdfrwt beam="2">  1       -2 0.11177846E-02 0.80882081E+02</pdfrwt>
<totfact> 0.16573588E+05</totfact>
</mgrwt>
</event>
<event>
 8    1  0.8577104E-018  0.8168317E+02  0.7818608E-02  0.1324342E+00
         -2   -1    0    0    0  501 -0.00000000000E+00  0.00000000000E+00  0.11709902949E+03  0.11709902951E+03  0.25500000000E-02 0.  1.
          1   -1    0    0  501    0  0.00000000000E+00 -0.00000000000E+00 -0.14244652387E+02  0.14244653279E+02  0.50400000000E-02 0. -1.
        -24    2    1    2    0    0  0.17763568394E-14 -0.71054273576E-14  0.10285437710E+03  0.13134368279E+03  0.81683169142E+02 0.  0.
         66    2    3    3    0    0 -0.13559293567E+02 -0.36866144986E+02  0.33620174951E+02  0.51742470494E+02  0.20000002479E+01 0.  0.
         13    1    3    3    0    0  0.13559293567E+02  0.36866144986E+02  0.69234202149E+02  0.79601212298E+02  0.10566000000E+00 0. -1.
         13    1    4    4    0    0 -0.26107625887E+01 -0.55514976069E+01  0.49166348282E+01  0.78625485082E+01  0.10566000000E+00 0. -1.
        -13    1    4    4    0    0 -0.60560561680E+01 -0.16891542700E+02  0.14874374455E+02  0.23307900175E+02  0.10566000000E+00 0.  1.
         14    1    4    4    0    0 -0.48924748107E+01 -0.14423104679E+02  0.13829165667E+02  0.20572021811E+02  0.00000000000E+00 0. -1.
<mgrwt>
<rscale>  0 0.81683169E+02</rscale>
<asrwt>0</asrwt>
<pdfrwt beam="1">  1        1 0.21914850E-02 0.81683169E+02</pdfrwt>
<pdfrwt beam="2">  1       -2 0.18015236E-01 0.81683169E+02</pdfrwt>
<totfact> 0.96535001E+04</totfact>
</mgrwt>
</event>
<event>
 8    1  0.8577104E-018  0.7743554E+02  0.7818608E-02  0.1336491E+00
         -2   -1    0    0    0  501 -0.00000000000E+00  0.00000000000E+00  0.13036034512E+02  0.13036034761E+02  0.25500000000E-02 0.  1.
          1   -1    0    0  501    0  0.00000000000E+00 -0.00000000000E+00 -0.11499398824E+03  0.11499398835E+03  0.50400000000E-02 0. -1.
        -24    2    1    2    0    0  0.35527136788E-14  0.00000000000E+00 -0.10195795373E+03  0.12803002311E+03  0.77435537640E+02 0.  0.
         66    2    3    3    0    0  0.16035137913E+02 -0.17897865709E+02 -0.87438958875E+00  0.24129314029E+02  0.19999983763E+01 0.  0.
         13    1    3    3    0    0 -0.16035137913E+02  0.17897865709E+02 -0.10108356414E+03  0.10390070908E+03  0.10566000000E+00 0. -1.
         13    1    4    4    0    0  0.31655920731E+01 -0.37124647159E+01  0.36819315422E+00  0.48938837005E+01  0.10566000000E+00 0. -1.
        -13    1    4    4    0    0  0.15893058172E+01 -0.17622970353E+01  0.25179363098E+00  0.23887544640E+01  0.10566000000E+00 0.  1.
        -14    1    4    4    0    0  0.11280240023E+02 -0.12423103958E+02 -0.14943763740E+01  0.16846675864E+02  0.00000000000E+00 0.  1.
<mgrwt>
<rscale>  0 0.77435538E+02</rscale>
<asrwt>0</asrwt>
<pdfrwt beam="1">  1        1 0.17691382E-01 0.77435538E+02</pdfrwt>
<pdfrwt beam="2">  1       -2 0.20055439E-02 0.77435538E+02</pdfrwt>
<totfact> 0.16430726E+05</totfact>
</mgrwt>
</event>
<event>
 8    1  0.8577104E-018  0.7799586E+02  0.7818608E-02  0.1334837E+00
          1   -1    0    0  501    0  0.00000000000E+00  0.00000000000E+00  0.88752545475E+01  0.88752559785E+01  0.50400000000E-02 0. -1.
         -2   -1    0    0    0  501 -0.00000000000E+00 -0.00000000000E+00 -0.17135713881E+03  0.17135713883E+03  0.25500000000E-02 0.  1.
        -24    2    1    2    0    0  0.14210854715E-13  0.00000000000E+00 -0.16248188426E+03  0.18023239481E+03  0.77995855175E+02 0.  0.
         66    2    3    3    0    0  0.37889038244E+02 -0.87827869584E+01 -0.87009338659E+02  0.95327548835E+02  0.19999967828E+01 0.  0.
         13    1    3    3    0    0 -0.37889038244E+02  0.87827869584E+01 -0.75472545602E+02  0.84904845972E+02  0.10566000000E+00 0. -1.
         13    1    4    4    0    0  0.36648027552E+01 -0.34227974503E+00 -0.85081388564E+01  0.92707888280E+01  0.10566000000E+00 0. -1.
        -13    1    4    4    0    0  0.11336007610E+02 -0.31975037590E+01 -0.26528346252E+02  0.29025737161E+02  0.10566000000E+00 0.  1.
         14    1    4    4    0    0  0.22888227878E+02 -0.52430034543E+01 -0.51972853551E+02  0.57031022846E+02  0.00000000000E+00 0. -1.
<mgrwt>
<rscale>  0 0.77995855E+02</rscale>
<asrwt>0</asrwt>
<pdfrwt beam="1">  1        1 0.13654240E-02 0.77995855E+02</pdfrwt>
<pdfrwt beam="2">  1       -2 0.26362634E-01 0.77995855E+02</pdfrwt>
<totfact> 0.96365262E+04</totfact>
</mgrwt>
</event>
<event>
 8    1  0.8577104E-018  0.8189801E+02  0.7818608E-02  0.1323750E+00
         -2   -1    0    0    0  501 -0.00000000000E+00  0.00000000000E+00  0.37811233933E+02  0.37811234019E+02  0.25500000000E-02 0.  1.
          1   -1    0    0  501    0  0.00000000000E+00 -0.00000000000E+00 -0.44347167722E+02  0.44347168009E+02  0.50400000000E-02 0. -1.
        -24    2    1    2    0    0  0.00000000000E+00  0.00000000000E+00 -0.65359337895E+01  0.82158402027E+02  0.81898013365E+02 0.  0.
         66    2    3    3    0    0 -0.16327318940E+02 -0.36956649603E+02  0.32654679885E+01  0.40583723020E+02  0.19999998352E+01 0.  0.
         13    1    3    3    0    0  0.16327318940E+02  0.36956649603E+02 -0.98014017780E+01  0.41574679007E+02  0.10566000000E+00 0. -1.
         13    1    4    4    0    0 -0.20877541801E+01 -0.63964081788E+01  0.47662011699E+00  0.67461904716E+01  0.10566000000E+00 0. -1.
        -13    1    4    4    0    0 -0.42929804151E+01 -0.92462143242E+01  0.11593154427E+01  0.10260474478E+02  0.10566000000E+00 0.  1.
         14    1    4    4    0    0 -0.99465843451E+01 -0.21314027100E+02  0.16295324288E+01  0.23577058071E+02  0.00000000000E+00 0. -1.
<mgrwt>
<rscale>  0 0.81898013E+02</rscale>
<asrwt>0</asrwt>
<pdfrwt beam="1">  1        1 0.68226413E-02 0.81898013E+02</pdfrwt>
<pdfrwt beam="2">  1       -2 0.58171129E-02 0.81898013E+02</pdfrwt>
<totfact> 0.12087780E+05</totfact>
</mgrwt>
</event>
<event>
 8    1  0.8577104E-018  0.7942308E+02  0.7818608E-02  0.1330697E+00
         -2   -1    0    0    0  501 -0.00000000000E+00  0.00000000000E+00  0.12940769512E+03  0.12940769514E+03  0.25500000000E-02 0.  1.
          1   -1    0    0  501    0  0.00000000000E+00 -0.00000000000E+00 -0.12186342508E+02  0.12186343550E+02  0.50400000000E-02 0. -1.
        -24    2    1    2    0    0 -0.71054273576E-14 -0.17763568394E-14  0.11722135261E+03  0.14159403869E+03  0.79423084086E+02 0.  0.
         66    2    3    3    0    0 -0.37113474706E+02 -0.12560409966E+02  0.69898734570E+02  0.80156141224E+02  0.19999945278E+01 0.  0.
         13    1    3    3    0    0  0.37113474706E+02  0.12560409966E+02  0.47322618038E+02  0.61437897468E+02  0.10566000000E+00 0. -1.
         13    1    4    4    0    0 -0.69407142018E+01 -0.16915999917E+01  0.12245413904E+02  0.14177318149E+02  0.10566000000E+00 0. -1.
        -13    1    4    4    0    0 -0.25498161877E+02 -0.95104141431E+01  0.48774816193E+02  0.55853362432E+02  0.10566000000E+00 0.  1.
        -14    1    4    4    0    0 -0.46745986271E+01 -0.13583958309E+01  0.88785044726E+01  0.10125460643E+02  0.00000000000E+00 0.  1.
<mgrwt>
<rscale>  0 0.79423084E+02</rscale>
<asrwt>0</asrwt>
<pdfrwt beam="1">  1        1 0.18748219E-02 0.79423084E+02</pdfrwt>
<pdfrwt beam="2">  1       -2 0.19908877E-01 0.79423084E+02</pdfrwt>
<totfact> 0.10082465E+05</totfact>
</mgrwt>
</event>
<event>
 8    1  0.8577104E-018  0.7913935E+02  0.7818608E-02  0.1331512E+00
         -2   -1    0    0    0  501 -0.00000000000E+00  0.00000000000E+00  0.25886599140E+03  0.25886599141E+03  0.25500000000E-02 0.  1.
          1   -1    0    0  501    0  0.00000000000E+00 -0.00000000000E+00 -0.60485310443E+01  0.60485331441E+01  0.50400000000E-02 0. -1.
        -24    2    1    2    0    0  0.88817841970E-15  0.00000000000E+00  0.25281746035E+03  0.26491452456E+03  0.79139352160E+02 0.  0.
         66    2    3    3    0    0  0.70886431762E+01  0.38680080653E+02  0.11254328184E+03  0.11923249470E+03  0.20000008102E+01 0.  0.
         13    1    3    3    0    0 -0.70886431762E+01 -0.38680080653E+02  0.14027417851E+03  0.14568202985E+03  0.10566000000E+00 0. -1.
         13    1    4    4    0    0  0.11353879372E+01  0.54598705590E+01  0.17405446800E+02  0.18277309283E+02  0.10566000000E+00 0. -1.
        -13    1    4    4    0    0  0.30619965213E+01  0.16770160607E+02  0.49994344461E+02  0.52821016193E+02  0.10566000000E+00 0.  1.
         14    1    4    4    0    0  0.28912587176E+01  0.16450049487E+02  0.45143490582E+02  0.48134169226E+02  0.00000000000E+00 0. -1.
<mgrwt>
<rscale>  0 0.79139352E+02</rscale>
<asrwt>0</asrwt>
<pdfrwt beam="1">  1        1 0.93054355E-03 0.79139352E+02</pdfrwt>
<pdfrwt beam="2">  1       -2 0.39825531E-01 0.79139352E+02</pdfrwt>
<totfact> 0.77975457E+04</totfact>
</mgrwt>
</event>
<event>
 8    1  0.8577104E-018  0.7819981E+02  0.7818608E-02  0.1334239E+00
          1   -1    0    0  501    0  0.00000000000E+00  0.00000000000E+00  0.27981889925E+01  0.27981935314E+01  0.50400000000E-02 0. -1.
         -2   -1    0    0    0  501 -0.00000000000E+00 -0.00000000000E+00 -0.54635391464E+03  0.54635391464E+03  0.25500000000E-02 0.  1.
        -24    2    1    2    0    0 -0.17763568394E-14  0.00000000000E+00 -0.54355572565E+03  0.54915210818E+03  0.78199814779E+02 0.  0.
         66    2    3    3    0    0  0.13485009081E+02 -0.17965612293E+02 -0.49647385901E+03  0.49698581614E+03  0.20000167650E+01 0.  0.
         13    1    3    3    0    0 -0.13485009081E+02  0.17965612293E+02 -0.47081866632E+02  0.52166292034E+02  0.10566000000E+00 0. -1.
         13    1    4    4    0    0  0.22769870196E+01 -0.28770927628E+01 -0.93987091414E+02  0.94058741482E+02  0.10566000000E+00 0. -1.
        -13    1    4    4    0    0  0.17539905766E+00 -0.12304016802E+00 -0.52757251159E+01  0.52811308682E+01  0.10566000000E+00 0. -1.
        -14    1    4    4    0    0  0.11032623004E+02 -0.14965479362E+02 -0.39721104248E+03  0.39764594379E+03  0.00000000000E+00 0.  1.
<mgrwt>
<rscale>  0 0.78199815E+02</rscale>
<asrwt>0</asrwt>
<pdfrwt beam="1">  1        1 0.43049140E-03 0.78199815E+02</pdfrwt>
<pdfrwt beam="2">  1       -2 0.84054363E-01 0.78199815E+02</pdfrwt>
<totfact> 0.49829046E+04</totfact>
</mgrwt>
</event>
<event>
 8    1  0.8577104E-018  0.7843106E+02  0.7818608E-02  0.1333564E+00
         -2   -1    0    0    0  501 -0.00000000000E+00  0.00000000000E+00  0.32985545958E+02  0.32985546057E+02  0.25500000000E-02 0.  1.
          1   -1    0    0  501    0  0.00000000000E+00 -0.00000000000E+00 -0.46622168221E+02  0.46622168493E+02  0.50400000000E-02 0. -1.
        -24    2    1    2    0    0  0.00000000000E+00 -0.17763568394E-14 -0.13636622263E+02  0.79607714550E+02  0.78431057300E+02 0.  0.
         66    2    3    3    0    0 -0.13922030697E+01  0.12952567662E+02  0.30693184687E+02  0.33403275513E+02  0.19999975881E+01 0.  0.
         13    1    3    3    0    0  0.13922030697E+01 -0.12952567662E+02 -0.44329806950E+02  0.46204439037E+02  0.10566000000E+00 0. -1.
         13    1    4    4    0    0  0.21139254282E-01  0.38001112781E-01  0.25548392057E+00  0.27986965165E+00  0.10566000000E+00 0. -1.
        -13    1    4    4    0    0 -0.13567580824E+01  0.81673416054E+01  0.20536068406E+02  0.22142437332E+02  0.10566000000E+00 0.  1.
        -14    1    4    4    0    0 -0.56584241515E-01  0.47472249438E+01  0.99016323609E+01  0.10980968530E+02  0.00000000000E+00 0.  1.
<mgrwt>
<rscale>  0 0.78431057E+02</rscale>
<asrwt>0</asrwt>
<pdfrwt beam="1">  1        1 0.71726414E-02 0.78431057E+02</pdfrwt>
<pdfrwt beam="2">  1       -2 0.50746994E-02 0.78431057E+02</pdfrwt>
<totfact> 0.13751332E+05</totfact>
</mgrwt>
</event>
<event>
 8    1  0.8577104E-018  0.8034247E+02  0.7818608E-02  0.1328082E+00
          1   -1    0    0  501    0  0.00000000000E+00  0.00000000000E+00  0.19591133152E+01  0.19591197981E+01  0.50400000000E-02 0. -1.
         -2   -1    0    0    0  501 -0.00000000000E+00 -0.00000000000E+00 -0.82370187174E+03  0.82370187175E+03  0.25500000000E-02 0.  1.
        -24    2    1    2    0    0  0.00000000000E+00  0.00000000000E+00 -0.82174275843E+03  0.82566099154E+03  0.80342466546E+02 0.  0.
         66    2    3    3    0    0  0.93934719360E+01  0.27332674768E+02 -0.69747867057E+03  0.69808008733E+03  0.20000006906E+01 0.  0.
         13    1    3    3    0    0 -0.93934719360E+01 -0.27332674768E+02 -0.12426408786E+03  0.12758090421E+03  0.10566000000E+00 0. -1.
         13    1    4    4    0    0  0.42473715064E+01  0.10268680151E+02 -0.25431231353E+03  0.25455500375E+03  0.10566000000E+00 0. -1.
        -13    1    4    4    0    0  0.44855579982E+01  0.14119334623E+02 -0.36573760243E+03  0.36603754020E+03  0.10566000000E+00 0.  1.
        -14    1    4    4    0    0  0.66054243144E+00  0.29446599932E+01 -0.77428754609E+02  0.77487543380E+02  0.00000000000E+00 0.  1.
<mgrwt>
<rscale>  0 0.80342467E+02</rscale>
<asrwt>0</asrwt>
<pdfrwt beam="1">  1        1 0.30140321E-03 0.80342467E+02</pdfrwt>
<pdfrwt beam="2">  1       -2 0.12672309E+00 0.80342467E+02</pdfrwt>
<totfact> 0.31893866E+04</totfact>
</mgrwt>
</event>
<event>
 8    1  0.8577104E-018  0.8033321E+02  0.7818608E-02  0.1328108E+00
         -2   -1    0    0    0  501 -0.00000000000E+00  0.00000000000E+00  0.19685117512E+02  0.19685117677E+02  0.25500000000E-02 0.  1.
          1   -1    0    0  501    0  0.00000000000E+00 -0.00000000000E+00 -0.81958165876E+02  0.81958166031E+02  0.50400000000E-02 0. -1.
        -24    2    1    2    0    0  0.17763568394E-14  0.00000000000E+00 -0.62273048364E+02  0.10164328371E+03  0.80333209636E+02 0.  0.
         66    2    3    3    0    0  0.10716153071E+02 -0.38684264570E+02 -0.31417887208E+02  0.51013644208E+02  0.19999992032E+01 0.  0.
         13    1    3    3    0    0 -0.10716153071E+02  0.38684264570E+02 -0.30855161155E+02  0.50629639500E+02  0.10566000000E+00 0. -1.
         13    1    4    4    0    0  0.51462021158E+00 -0.25641623289E+01 -0.20777564983E+01  0.33418555494E+01  0.10566000000E+00 0.  1.
        -13    1    4    4    0    0  0.43174446794E+01 -0.17020839510E+02 -0.14642858119E+02  0.22864246415E+02  0.10566000000E+00 0.  1.
        -14    1    4    4    0    0  0.58840881803E+01 -0.19099262730E+02 -0.14697272591E+02  0.24807542244E+02  0.00000000000E+00 0.  1.
<mgrwt>
<rscale>  0 0.80333210E+02</rscale>
<asrwt>0</asrwt>
<pdfrwt beam="1">  1        1 0.12608948E-01 0.80333210E+02</pdfrwt>
<pdfrwt beam="2">  1       -2 0.30284797E-02 0.80333210E+02</pdfrwt>
<totfact> 0.14064779E+05</totfact>
</mgrwt>
</event>
<event>
 8    1  0.8577104E-018  0.7773620E+02  0.7818608E-02  0.1335601E+00
          1   -1    0    0  501    0  0.00000000000E+00  0.00000000000E+00  0.38856482878E+02  0.38856483205E+02  0.50400000000E-02 0. -1.
         -2   -1    0    0    0  501 -0.00000000000E+00 -0.00000000000E+00 -0.38879724615E+02  0.38879724699E+02  0.25500000000E-02 0.  1.
        -24    2    1    2    0    0  0.00000000000E+00  0.22204460493E-15 -0.23241737181E-01  0.77736207904E+02  0.77736204430E+02 0.  0.
         66    2    3    3    0    0 -0.18869169403E+02 -0.97201739025E+00 -0.33948837754E+02  0.38903906905E+02  0.20000039583E+01 0.  0.
         13    1    3    3    0    0  0.18869169403E+02  0.97201739025E+00  0.33925596017E+02  0.38832300999E+02  0.10566000000E+00 0. -1.
         13    1    4    4    0    0 -0.10968495112E+02 -0.13561240442E+01 -0.19777985086E+02  0.22656716787E+02  0.10566000000E+00 0. -1.
        -13    1    4    4    0    0 -0.25780801901E+01 -0.11355011319E+00 -0.41061419080E+01  0.48508717257E+01  0.10566000000E+00 0.  1.
         14    1    4    4    0    0 -0.53225941008E+01  0.49765676715E+00 -0.10064710760E+02  0.11396318392E+02  0.00000000000E+00 0. -1.
<mgrwt>
<rscale>  0 0.77736204E+02</rscale>
<asrwt>0</asrwt>
<pdfrwt beam="1">  1        1 0.59779205E-02 0.77736204E+02</pdfrwt>
<pdfrwt beam="2">  1       -2 0.59814961E-02 0.77736204E+02</pdfrwt>
<totfact> 0.13701191E+05</totfact>
</mgrwt>
</event>
<event>
 8    1  0.8577104E-018  0.7958687E+02  0.7818608E-02  0.1330228E+00
         -2   -1    0    0    0  501 -0.00000000000E+00  0.00000000000E+00  0.31211759029E+02  0.31211759133E+02  0.25500000000E-02 0.  1.
          1   -1    0    0  501    0  0.00000000000E+00 -0.00000000000E+00 -0.50734645375E+02  0.50734645626E+02  0.50400000000E-02 0. -1.
        -24    2    1    2    0    0  0.00000000000E+00  0.00000000000E+00 -0.19522886346E+02  0.81946404759E+02  0.79586871792E+02 0.  0.
         66    2    3    3    0    0  0.32611536846E+02 -0.18996825540E+02  0.31388180803E+01  0.37924186191E+02  0.20000008162E+01 0.  0.
         13    1    3    3    0    0 -0.32611536846E+02  0.18996825540E+02 -0.22661704426E+02  0.44022218568E+02  0.10566000000E+00 0. -1.
         13    1    4    4    0    0  0.16214329520E+02 -0.94902229916E+01  0.58311826639E+00  0.18796808377E+02  0.10566000000E+00 0. -1.
        -13    1    4    4    0    0  0.62065663296E+01 -0.34798608781E+01  0.92005261402E+00  0.71755528137E+01  0.10566000000E+00 0.  1.
         14    1    4    4    0    0  0.10190640997E+02 -0.60267416706E+01  0.16356471999E+01  0.11951825001E+02  0.00000000000E+00 0. -1.
<mgrwt>
<rscale>  0 0.79586872E+02</rscale>
<asrwt>0</asrwt>
<pdfrwt beam="1">  1        1 0.78053301E-02 0.79586872E+02</pdfrwt>
<pdfrwt beam="2">  1       -2 0.48018091E-02 0.79586872E+02</pdfrwt>
<totfact> 0.13378376E+05</totfact>
</mgrwt>
</event>
<event>
 8    1  0.8577104E-018  0.7892036E+02  0.7818608E-02  0.1332144E+00
         -2   -1    0    0    0  501 -0.00000000000E+00  0.00000000000E+00  0.14035404116E+03  0.14035404118E+03  0.25500000000E-02 0.  1.
          1   -1    0    0  501    0  0.00000000000E+00 -0.00000000000E+00 -0.11094127388E+02  0.11094128533E+02  0.50400000000E-02 0. -1.
        -24    2    1    2    0    0 -0.71054273576E-14  0.00000000000E+00  0.12925991377E+03  0.15144816971E+03  0.78920357336E+02 0.  0.
         66    2    3    3    0    0 -0.34322788179E+02  0.10469525980E+02  0.96053658068E+02  0.10255715475E+03  0.19999998138E+01 0.  0.
         13    1    3    3    0    0  0.34322788179E+02 -0.10469525980E+02  0.33206255700E+02  0.48891014965E+02  0.10566000000E+00 0. -1.
         13    1    4    4    0    0 -0.11730182523E+02  0.38209099650E+01  0.35340129578E+02  0.37431703910E+02  0.10566000000E+00 0.  1.
        -13    1    4    4    0    0 -0.55771351387E+01  0.19009561138E+01  0.14675881372E+02  0.15814889459E+02  0.10566000000E+00 0. -1.
        -14    1    4    4    0    0 -0.17015470517E+02  0.47476599016E+01  0.46037647118E+02  0.49310561380E+02  0.00000000000E+00 0.  1.
<mgrwt>
<rscale>  0 0.78920357E+02</rscale>
<asrwt>0</asrwt>
<pdfrwt beam="1">  1        1 0.17067889E-02 0.78920357E+02</pdfrwt>
<pdfrwt beam="2">  1       -2 0.21592930E-01 0.78920357E+02</pdfrwt>
<totfact> 0.99980449E+04</totfact>
</mgrwt>
</event>
<event>
 8    1  0.8577104E-018  0.8066705E+02  0.7818608E-02  0.1327169E+00
          1   -1    0    0  501    0  0.00000000000E+00  0.00000000000E+00  0.76685685980E+01  0.76685702542E+01  0.50400000000E-02 0. -1.
         -2   -1    0    0    0  501 -0.00000000000E+00 -0.00000000000E+00 -0.21213778983E+03  0.21213778984E+03  0.25500000000E-02 0.  1.
        -24    2    1    2    0    0  0.00000000000E+00  0.00000000000E+00 -0.20446922123E+03  0.21980636010E+03  0.80667053429E+02 0.  0.
         66    2    3    3    0    0 -0.31594450415E+02  0.13602218736E+02 -0.15955556092E+03  0.16323359546E+03  0.20000042621E+01 0.  0.
         13    1    3    3    0    0  0.31594450415E+02 -0.13602218736E+02 -0.44913660313E+02  0.56572764634E+02  0.10566000000E+00 0. -1.
         13    1    4    4    0    0 -0.89592396302E+01  0.40759825183E+01 -0.47486004903E+02  0.48495499110E+02  0.10566000000E+00 0.  1.
        -13    1    4    4    0    0 -0.83597980875E+01  0.37976842928E+01 -0.44989008883E+02  0.45916562527E+02  0.10566000000E+00 0. -1.
         14    1    4    4    0    0 -0.14275412697E+02  0.57285519245E+01 -0.67080547129E+02  0.68821533825E+02  0.00000000000E+00 0. -1.
<mgrwt>
<rscale>  0 0.80667053E+02</rscale>
<asrwt>0</asrwt>
<pdfrwt beam="1">  1        1 0.11797801E-02 0.80667053E+02</pdfrwt>
<pdfrwt beam="2">  1       -2 0.32636579E-01 0.80667053E+02</pdfrwt>
<totfact> 0.81263349E+04</totfact>
</mgrwt>
</event>
<event>
 8    1  0.8577104E-018  0.8402163E+02  0.7818608E-02  0.1318011E+00
          1   -1    0    0  501    0  0.00000000000E+00  0.00000000000E+00  0.46941751176E+03  0.46941751179E+03  0.50400000000E-02 0. -1.
         -2   -1    0    0    0  501 -0.00000000000E+00 -0.00000000000E+00 -0.37597835153E+01  0.37597843801E+01  0.25500000000E-02 0.  1.
        -24    2    1    2    0    0 -0.35527136788E-14  0.71054273576E-14  0.46565772825E+03  0.47317729617E+03  0.84021626585E+02 0.  0.
         66    2    3    3    0    0 -0.22748321374E+02  0.35241580497E+02  0.22250274808E+03  0.22643084602E+03  0.20000002992E+01 0.  0.
         13    1    3    3    0    0  0.22748321374E+02 -0.35241580497E+02  0.24315498016E+03  0.24674645015E+03  0.10566000000E+00 0. -1.
         13    1    4    4    0    0 -0.27545558612E+01  0.35880041039E+01  0.26465647498E+02  0.26849637110E+02  0.10566000000E+00 0. -1.
        -13    1    4    4    0    0 -0.17244691841E+02  0.27496977435E+02  0.17093178850E+03  0.17398606453E+03  0.10566000000E+00 0.  1.
        -14    1    4    4    0    0 -0.27490736724E+01  0.41565989586E+01  0.25105312082E+02  0.25595144378E+02  0.00000000000E+00 0.  1.
<mgrwt>
<rscale>  0 0.84021627E+02</rscale>
<asrwt>0</asrwt>
<pdfrwt beam="1">  1        1 0.72218095E-01 0.84021627E+02</pdfrwt>
<pdfrwt beam="2">  1       -2 0.57842817E-03 0.84021627E+02</pdfrwt>
<totfact> 0.17100387E+05</totfact>
</mgrwt>
</event>
<event>
 8    1  0.8577104E-018  0.7836339E+02  0.7818608E-02  0.1333761E+00
         -2   -1    0    0    0  501 -0.00000000000E+00  0.00000000000E+00  0.13114009669E+03  0.13114009672E+03  0.25500000000E-02 0.  1.
          1   -1    0    0  501    0  0.00000000000E+00 -0.00000000000E+00 -0.11706604074E+02  0.11706605159E+02  0.50400000000E-02 0. -1.
        -24    2    1    2    0    0  0.00000000000E+00  0.00000000000E+00  0.11943349262E+03  0.14284670188E+03  0.78363391183E+02 0.  0.
         66    2    3    3    0    0 -0.57664284003E+01  0.23537519160E+02  0.11581996120E+03  0.11834496157E+03  0.20000028472E+01 0.  0.
         13    1    3    3    0    0  0.57664284003E+01 -0.23537519160E+02  0.36135314161E+01  0.24501740306E+02  0.10566000000E+00 0. -1.
         13    1    4    4    0    0 -0.68341570338E+00  0.15583492806E+01  0.74820091156E+01  0.76737952765E+01  0.10566000000E+00 0. -1.
        -13    1    4    4    0    0 -0.51333611563E+01  0.21935469113E+02  0.10778319176E+03  0.11011241434E+03  0.10566000000E+00 0.  1.
         14    1    4    4    0    0  0.50348459351E-01  0.43700766213E-01  0.55476033136E+00  0.55875195712E+00  0.00000000000E+00 0. -1.
<mgrwt>
<rscale>  0 0.78363391E+02</rscale>
<asrwt>0</asrwt>
<pdfrwt beam="1">  1        1 0.18010161E-02 0.78363391E+02</pdfrwt>
<pdfrwt beam="2">  1       -2 0.20175400E-01 0.78363391E+02</pdfrwt>
<totfact> 0.10395105E+05</totfact>
</mgrwt>
</event>
<event>
 8    1  0.1056916E-017  0.8007912E+02  0.7818608E-02  0.1328827E+00
         -2   -1    0    0    0  501 -0.00000000000E+00  0.00000000000E+00  0.60148165019E+01  0.60148170424E+01  0.25500000000E-02 0.  1.
          1   -1    0    0  501    0  0.00000000000E+00 -0.00000000000E+00 -0.26653619230E+03  0.26653619235E+03  0.50400000000E-02 0. -1.
        -24    2    1    2    0    0  0.00000000000E+00  0.00000000000E+00 -0.26052137580E+03  0.27255100939E+03  0.80079120074E+02 0.  0.
         66    2    3    3    0    0  0.74349229088E+01  0.35520494965E+02 -0.72966600645E+02  0.81517534607E+02  0.19999993538E+01 0.  0.
         13    1    3    3    0    0 -0.74349229088E+01 -0.35520494965E+02 -0.18755477515E+03  0.19103347478E+03  0.10566000000E+00 0. -1.
         13    1    4    4    0    0  0.27284469530E+01  0.12251872752E+02 -0.26715710977E+02  0.29517675819E+02  0.10566000000E+00 0. -1.
        -13    1    4    4    0    0  0.31440103099E+01  0.16068650343E+02 -0.32985696147E+02  0.36825991352E+02  0.10566000000E+00 0.  1.
         14    1    4    4    0    0  0.15624656459E+01  0.71999718693E+01 -0.13265193521E+02  0.15173867436E+02  0.00000000000E+00 0. -1.
<mgrwt>
<rscale>  0 0.80079120E+02</rscale>
<asrwt>0</asrwt>
<pdfrwt beam="1">  1        1 0.41005559E-01 0.80079120E+02</pdfrwt>
<pdfrwt beam="2">  1       -2 0.92535664E-03 0.80079120E+02</pdfrwt>
<totfact> 0.17588359E+05</totfact>
</mgrwt>
</event>
<event>
 8    1  0.8577104E-018  0.7880854E+02  0.7818608E-02  0.1332467E+00
         -2   -1    0    0    0  501 -0.00000000000E+00  0.00000000000E+00  0.33154290914E+02  0.33154291012E+02  0.25500000000E-02 0.  1.
          1   -1    0    0  501    0  0.00000000000E+00 -0.00000000000E+00 -0.46832449010E+02  0.46832449281E+02  0.50400000000E-02 0. -1.
        -24    2    1    2    0    0 -0.35527136788E-14 -0.71054273576E-14 -0.13678158096E+02  0.79986740294E+02  0.78808544041E+02 0.  0.
         66    2    3    3    0    0  0.21931763081E+02 -0.31952719095E+02  0.24035862530E+00  0.38807682981E+02  0.19999991521E+01 0.  0.
         13    1    3    3    0    0 -0.21931763081E+02  0.31952719095E+02 -0.13918516721E+02  0.41179057313E+02  0.10566000000E+00 0. -1.
         13    1    4    4    0    0  0.68915249086E+00 -0.14733815972E+01 -0.18585742987E+00  0.16405765774E+01  0.10566000000E+00 0. -1.
        -13    1    4    4    0    0  0.14874072342E+02 -0.20545195648E+02  0.28460570680E+00  0.25366025638E+02  0.10566000000E+00 0.  1.
         14    1    4    4    0    0  0.63685382482E+01 -0.99341418507E+01  0.14161034837E+00  0.11801080765E+02  0.00000000000E+00 0. -1.
<mgrwt>
<rscale>  0 0.78808544E+02</rscale>
<asrwt>0</asrwt>
<pdfrwt beam="1">  1        1 0.72049922E-02 0.78808544E+02</pdfrwt>
<pdfrwt beam="2">  1       -2 0.51006602E-02 0.78808544E+02</pdfrwt>
<totfact> 0.13578294E+05</totfact>
</mgrwt>
</event>
<event>
 8    1  0.8577104E-018  0.7965117E+02  0.7818608E-02  0.1330044E+00
          1   -1    0    0  501    0  0.00000000000E+00  0.00000000000E+00  0.14556386418E+03  0.14556386427E+03  0.50400000000E-02 0. -1.
         -2   -1    0    0    0  501 -0.00000000000E+00 -0.00000000000E+00 -0.10896091980E+02  0.10896092278E+02  0.25500000000E-02 0.  1.
        -24    2    1    2    0    0  0.00000000000E+00  0.00000000000E+00  0.13466777220E+03  0.15645995654E+03  0.79651171573E+02 0.  0.
         66    2    3    3    0    0  0.24476285250E+02  0.24121842117E+02  0.27936984914E+02  0.44333135822E+02  0.19999997480E+01 0.  0.
         13    1    3    3    0    0 -0.24476285250E+02 -0.24121842117E+02  0.10673078729E+03  0.11212682072E+03  0.10566000000E+00 0. -1.
         13    1    4    4    0    0  0.12750319856E+02  0.12074680160E+02  0.14168427164E+02  0.22563777381E+02  0.10566000000E+00 0. -1.
        -13    1    4    4    0    0  0.33411994333E+01  0.38252252424E+01  0.34923145952E+01  0.61646887250E+01  0.10566000000E+00 0.  1.
        -14    1    4    4    0    0  0.83847659613E+01  0.82219367143E+01  0.10276243155E+02  0.15604669716E+02  0.00000000000E+00 0.  1.
<mgrwt>
<rscale>  0 0.79651172E+02</rscale>
<asrwt>0</asrwt>
<pdfrwt beam="1">  1        1 0.22394441E-01 0.79651172E+02</pdfrwt>
<pdfrwt beam="2">  1       -2 0.16763218E-02 0.79651172E+02</pdfrwt>
<totfact> 0.15885997E+05</totfact>
</mgrwt>
</event>
<event>
 8    1  0.8577104E-018  0.8171936E+02  0.7818608E-02  0.1324242E+00
          1   -1    0    0  501    0  0.00000000000E+00  0.00000000000E+00  0.40836186064E+02  0.40836186375E+02  0.50400000000E-02 0. -1.
         -2   -1    0    0    0  501 -0.00000000000E+00 -0.00000000000E+00 -0.40883185677E+02  0.40883185756E+02  0.25500000000E-02 0.  1.
        -24    2    1    2    0    0  0.00000000000E+00  0.00000000000E+00 -0.46999612293E-01  0.81719372132E+02  0.81719358616E+02 0.  0.
         66    2    3    3    0    0  0.63994071134E+01  0.40174017884E+02 -0.35737655810E+01  0.40886133630E+02  0.19999995998E+01 0.  0.
         13    1    3    3    0    0 -0.63994071134E+01 -0.40174017884E+02  0.35267659687E+01  0.40833238502E+02  0.10566000000E+00 0. -1.
         13    1    4    4    0    0  0.26891177994E+01  0.16423180922E+02 -0.19698589100E+01  0.16758392951E+02  0.10566000000E+00 0. -1.
        -13    1    4    4    0    0  0.19847716944E+01  0.15280438429E+02 -0.15087753841E+01  0.15482851302E+02  0.10566000000E+00 0.  1.
         14    1    4    4    0    0  0.17255176196E+01  0.84703985331E+01 -0.95131286766E-01  0.86448893762E+01  0.00000000000E+00 0. -1.
<mgrwt>
<rscale>  0 0.81719359E+02</rscale>
<asrwt>0</asrwt>
<pdfrwt beam="1">  1        1 0.62824902E-02 0.81719359E+02</pdfrwt>
<pdfrwt beam="2">  1       -2 0.62897209E-02 0.81719359E+02</pdfrwt>
<totfact> 0.11998774E+05</totfact>
</mgrwt>
</event>
<event>
 8    1  0.8577104E-018  0.8001644E+02  0.7818608E-02  0.1329005E+00
         -2   -1    0    0    0  501 -0.00000000000E+00  0.00000000000E+00  0.17128483060E+03  0.17128483062E+03  0.25500000000E-02 0.  1.
          1   -1    0    0  501    0  0.00000000000E+00 -0.00000000000E+00 -0.93450056363E+01  0.93450069954E+01  0.50400000000E-02 0. -1.
        -24    2    1    2    0    0 -0.71054273576E-14  0.00000000000E+00  0.16193982496E+03  0.18062983761E+03  0.80016444105E+02 0.  0.
         66    2    3    3    0    0  0.35323247966E+02  0.18725142881E+02  0.79804603708E+02  0.89281227567E+02  0.20000000380E+01 0.  0.
         13    1    3    3    0    0 -0.35323247966E+02 -0.18725142881E+02  0.82135221253E+02  0.91348610044E+02  0.10566000000E+00 0. -1.
         13    1    4    4    0    0  0.11644325466E+02  0.65128625816E+01  0.26382887558E+02  0.29564769820E+02  0.10566000000E+00 0. -1.
        -13    1    4    4    0    0  0.15259023151E+01  0.12166027489E+01  0.40020759030E+01  0.44537934048E+01  0.10566000000E+00 0.  1.
        -14    1    4    4    0    0  0.22153020184E+02  0.10995677550E+02  0.49419640247E+02  0.55262664342E+02  0.00000000000E+00 0.  1.
<mgrwt>
<rscale>  0 0.80016444E+02</rscale>
<asrwt>0</asrwt>
<pdfrwt beam="1">  1        1 0.14376933E-02 0.80016444E+02</pdfrwt>
<pdfrwt beam="2">  1       -2 0.26351512E-01 0.80016444E+02</pdfrwt>
<totfact> 0.90237262E+04</totfact>
</mgrwt>
</event>
<event>
 8    1  0.1469851E-017  0.8173765E+02  0.7818608E-02  0.1324191E+00
          1   -1    0    0  501    0  0.00000000000E+00  0.00000000000E+00  0.11150654992E+03  0.11150655003E+03  0.50400000000E-02 0. -1.
         -2   -1    0    0    0  501 -0.00000000000E+00 -0.00000000000E+00 -0.14979038774E+02  0.14979038991E+02  0.25500000000E-02 0.  1.
        -24    2    1    2    0    0  0.00000000000E+00  0.00000000000E+00  0.96527511143E+02  0.12648558902E+03  0.81737652417E+02 0.  0.
         66    2    3    3    0    0  0.21147273462E+02  0.43900883361E+01 -0.53526004414E+01  0.22341225991E+02  0.19999992073E+01 0.  0.
         13    1    3    3    0    0 -0.21147273462E+02 -0.43900883361E+01  0.10188011158E+03  0.10414436303E+03  0.10566000000E+00 0. -1.
         13    1    4    4    0    0  0.47471239047E+01  0.50268422973E+00 -0.14804533516E+01  0.49990782113E+01  0.10566000000E+00 0. -1.
        -13    1    4    4    0    0  0.97556436948E+01  0.19262527702E+01 -0.28047940763E+01  0.10332524739E+02  0.10566000000E+00 0.  1.
         14    1    4    4    0    0  0.66445058626E+01  0.19611513361E+01 -0.10673530134E+01  0.70096230409E+01  0.00000000000E+00 0. -1.
<mgrwt>
<rscale>  0 0.81737652E+02</rscale>
<asrwt>0</asrwt>
<pdfrwt beam="1">  1        1 0.17154854E-01 0.81737652E+02</pdfrwt>
<pdfrwt beam="2">  1       -2 0.23044676E-02 0.81737652E+02</pdfrwt>
<totfact> 0.14130929E+05</totfact>
</mgrwt>
</event>
<event>
 8    1  0.8577104E-018  0.8005849E+02  0.7818608E-02  0.1328886E+00
         -2   -1    0    0    0  501 -0.00000000000E+00  0.00000000000E+00  0.10949811079E+02  0.10949811376E+02  0.25500000000E-02 0.  1.
          1   -1    0    0  501    0  0.00000000000E+00 -0.00000000000E+00 -0.14633498713E+03  0.14633498721E+03  0.50400000000E-02 0. -1.
        -24    2    1    2    0    0  0.00000000000E+00  0.00000000000E+00 -0.13538517605E+03  0.15728479859E+03  0.80058490955E+02 0.  0.
         66    2    3    3    0    0  0.33566559244E+02 -0.48231273868E+01 -0.26042132407E+02  0.42803844655E+02  0.19999999124E+01 0.  0.
         13    1    3    3    0    0 -0.33566559244E+02  0.48231273868E+01 -0.10934304364E+03  0.11448095393E+03  0.10566000000E+00 0. -1.
         13    1    4    4    0    0  0.47431568941E+01 -0.12382669108E+01 -0.38439744778E+01  0.62304210200E+01  0.10566000000E+00 0. -1.
        -13    1    4    4    0    0  0.19192209217E+02 -0.24819739206E+01 -0.15423821181E+02  0.24746848548E+02  0.10566000000E+00 0.  1.
        -14    1    4    4    0    0  0.96311931328E+01 -0.11028865554E+01 -0.67743367483E+01  0.11826575087E+02  0.00000000000E+00 0.  1.
<mgrwt>
<rscale>  0 0.80058491E+02</rscale>
<asrwt>0</asrwt>
<pdfrwt beam="1">  1        1 0.22513074E-01 0.80058491E+02</pdfrwt>
<pdfrwt beam="2">  1       -2 0.16845865E-02 0.80058491E+02</pdfrwt>
<totfact> 0.15686041E+05</totfact>
</mgrwt>
</event>
<event>
 8    1  0.8577104E-018  0.7599129E+02  0.7818608E-02  0.1340829E+00
         -2   -1    0    0    0  501 -0.00000000000E+00  0.00000000000E+00  0.61419080733E+02  0.61419080786E+02  0.25500000000E-02 0.  1.
          1   -1    0    0  501    0  0.00000000000E+00 -0.00000000000E+00 -0.23505218476E+02  0.23505219016E+02  0.50400000000E-02 0. -1.
        -24    2    1    2    0    0  0.35527136788E-14 -0.17763568394E-14  0.37913862258E+02  0.84924299802E+02  0.75991287301E+02 0.  0.
         66    2    3    3    0    0 -0.25041952865E+02  0.10881461731E+02  0.48456457050E+02  0.55655492487E+02  0.20000003456E+01 0.  0.
         13    1    3    3    0    0  0.25041952865E+02 -0.10881461731E+02 -0.10542594792E+02  0.29268807316E+02  0.10566000000E+00 0. -1.
         13    1    4    4    0    0 -0.20532995643E+01  0.13996579606E+01  0.42749390312E+01  0.49458416133E+01  0.10566000000E+00 0. -1.
        -13    1    4    4    0    0 -0.94745581893E+01  0.41309789815E+01  0.17426562471E+02  0.20261502506E+02  0.10566000000E+00 0.  1.
        -14    1    4    4    0    0 -0.13514095111E+02  0.53508247893E+01  0.26754955548E+02  0.30448148367E+02  0.00000000000E+00 0.  1.
<mgrwt>
<rscale>  0 0.75991287E+02</rscale>
<asrwt>0</asrwt>
<pdfrwt beam="1">  1        1 0.36161876E-02 0.75991287E+02</pdfrwt>
<pdfrwt beam="2">  1       -2 0.94490892E-02 0.75991287E+02</pdfrwt>
<totfact> 0.13424250E+05</totfact>
</mgrwt>
</event>
<event>
 8    1  0.8577104E-018  0.8106439E+02  0.7818608E-02  0.1326058E+00
         -2   -1    0    0    0  501 -0.00000000000E+00  0.00000000000E+00  0.77613012161E+01  0.77613016350E+01  0.25500000000E-02 0.  1.
          1   -1    0    0  501    0  0.00000000000E+00 -0.00000000000E+00 -0.21167312570E+03  0.21167312576E+03  0.50400000000E-02 0. -1.
        -24    2    1    2    0    0  0.35527136788E-14  0.71054273576E-14 -0.20391182448E+03  0.21943442739E+03  0.81064392687E+02 0.  0.
         66    2    3    3    0    0  0.11882689864E+02  0.34737111567E+02 -0.55683767824E+02  0.66727409928E+02  0.19999995435E+01 0.  0.
         13    1    3    3    0    0 -0.11882689864E+02 -0.34737111567E+02 -0.14822805665E+03  0.15270701746E+03  0.10566000000E+00 0. -1.
         13    1    4    4    0    0  0.61829367627E+01  0.15790649196E+02 -0.25988895316E+02  0.31032356546E+02  0.10566000000E+00 0. -1.
        -13    1    4    4    0    0  0.12656425854E+01  0.31314597915E+01 -0.53338477221E+01  0.63141893492E+01  0.10566000000E+00 0.  1.
        -14    1    4    4    0    0  0.44341105162E+01  0.15815002580E+02 -0.24361024787E+02  0.29380864033E+02  0.00000000000E+00 0.  1.
<mgrwt>
<rscale>  0 0.81064393E+02</rscale>
<asrwt>0</asrwt>
<pdfrwt beam="1">  1        1 0.32565092E-01 0.81064393E+02</pdfrwt>
<pdfrwt beam="2">  1       -2 0.11940465E-02 0.81064393E+02</pdfrwt>
<totfact> 0.16277764E+05</totfact>
</mgrwt>
</event>
<event>
 8    1  0.8577104E-018  0.7030246E+02  0.7818608E-02  0.1359068E+00
         -2   -1    0    0    0  501 -0.00000000000E+00  0.00000000000E+00  0.12254863485E+03  0.12254863488E+03  0.25500000000E-02 0.  1.
          1   -1    0    0  501    0  0.00000000000E+00 -0.00000000000E+00 -0.10082599790E+02  0.10082601050E+02  0.50400000000E-02 0. -1.
        -24    2    1    2    0    0  0.00000000000E+00  0.00000000000E+00  0.11246603506E+03  0.13263123593E+03  0.70302458714E+02 0.  0.
         66    2    3    3    0    0 -0.19747436783E+02  0.10089468679E+02  0.10766288954E+03  0.10994114980E+03  0.19999993022E+01 0.  0.
         13    1    3    3    0    0  0.19747436783E+02 -0.10089468679E+02  0.48031455250E+01  0.22690086133E+02  0.10566000000E+00 0. -1.
         13    1    4    4    0    0 -0.15901533920E+02  0.77280620111E+01  0.83039006989E+02  0.84900350819E+02  0.10566000000E+00 0. -1.
        -13    1    4    4    0    0 -0.20102939843E+01  0.90494053459E+00  0.11992564779E+02  0.12193972827E+02  0.10566000000E+00 0.  1.
         14    1    4    4    0    0 -0.18356088793E+01  0.14564661332E+01  0.12631317768E+02  0.12846826150E+02  0.00000000000E+00 0. -1.
<mgrwt>
<rscale>  0 0.70302459E+02</rscale>
<asrwt>0</asrwt>
<pdfrwt beam="1">  1        1 0.15511693E-02 0.70302459E+02</pdfrwt>
<pdfrwt beam="2">  1       -2 0.18853637E-01 0.70302459E+02</pdfrwt>
<totfact> 0.13989488E+05</totfact>
</mgrwt>
</event>
<event>
 8    1  0.8577104E-018  0.8126807E+02  0.7818608E-02  0.1325491E+00
          1   -1    0    0  501    0  0.00000000000E+00  0.00000000000E+00  0.17359763544E+03  0.17359763551E+03  0.50400000000E-02 0. -1.
         -2   -1    0    0    0  501 -0.00000000000E+00 -0.00000000000E+00 -0.95112158648E+01  0.95112162067E+01  0.25500000000E-02 0.  1.
        -24    2    1    2    0    0 -0.35527136788E-14  0.00000000000E+00  0.16408641957E+03  0.18310885172E+03  0.81268065617E+02 0.  0.
         66    2    3    3    0    0 -0.30236390750E+02 -0.59364885623E+01  0.22495507485E+02  0.38203783580E+02  0.20000002010E+01 0.  0.
         13    1    3    3    0    0  0.30236390750E+02  0.59364885623E+01  0.14159091209E+03  0.14490506814E+03  0.10566000000E+00 0. -1.
         13    1    4    4    0    0 -0.25156501499E+01 -0.74616634271E+00  0.14442521598E+01  0.29970465836E+01  0.10566000000E+00 0. -1.
        -13    1    4    4    0    0 -0.88123902609E+01 -0.12583950440E+01  0.69381218726E+01  0.11286739093E+02  0.10566000000E+00 0.  1.
        -14    1    4    4    0    0 -0.18908350339E+02 -0.39319271755E+01  0.14113133452E+02  0.23919997903E+02  0.00000000000E+00 0.  1.
<mgrwt>
<rscale>  0 0.81268066E+02</rscale>
<asrwt>0</asrwt>
<pdfrwt beam="1">  1        1 0.26707328E-01 0.81268066E+02</pdfrwt>
<pdfrwt beam="2">  1       -2 0.14632641E-02 0.81268066E+02</pdfrwt>
<totfact> 0.15559877E+05</totfact>
</mgrwt>
</event>
<event>
 8    1  0.8577104E-018  0.7982575E+02  0.7818608E-02  0.1329547E+00
          1   -1    0    0  501    0  0.00000000000E+00  0.00000000000E+00  0.91529657740E+02  0.91529657879E+02  0.50400000000E-02 0. -1.
         -2   -1    0    0    0  501 -0.00000000000E+00 -0.00000000000E+00 -0.17404605659E+02  0.17404605846E+02  0.25500000000E-02 0.  1.
        -24    2    1    2    0    0  0.35527136788E-14  0.44408920985E-15  0.74125052081E+02  0.10893426373E+03  0.79825750653E+02 0.  0.
         66    2    3    3    0    0 -0.18815364741E+02 -0.23239758633E+01 -0.10805810326E+02  0.21913109014E+02  0.19999989218E+01 0.  0.
         13    1    3    3    0    0  0.18815364741E+02  0.23239758633E+01  0.84930862407E+02  0.87021154712E+02  0.10566000000E+00 0. -1.
         13    1    4    4    0    0 -0.14063449613E+01  0.17461704537E+00 -0.43061867558E+00  0.14848884611E+01  0.10566000000E+00 0. -1.
        -13    1    4    4    0    0 -0.11389869383E+02 -0.17052903548E+01 -0.71005645914E+01  0.13530200342E+02  0.10566000000E+00 0.  1.
         14    1    4    4    0    0 -0.60191503970E+01 -0.79330255390E+00 -0.32746270588E+01  0.68980202100E+01  0.00000000000E+00 0. -1.
<mgrwt>
<rscale>  0 0.79825751E+02</rscale>
<asrwt>0</asrwt>
<pdfrwt beam="1">  1        1 0.14081486E-01 0.79825751E+02</pdfrwt>
<pdfrwt beam="2">  1       -2 0.26776317E-02 0.79825751E+02</pdfrwt>
<totfact> 0.14569760E+05</totfact>
</mgrwt>
</event>
<event>
 8    1  0.8577104E-018  0.7717638E+02  0.7818608E-02  0.1337261E+00
          1   -1    0    0  501    0  0.00000000000E+00  0.00000000000E+00  0.99906150056E+02  0.99906150183E+02  0.50400000000E-02 0. -1.
         -2   -1    0    0    0  501 -0.00000000000E+00 -0.00000000000E+00 -0.14904472748E+02  0.14904472966E+02  0.25500000000E-02 0.  1.
        -24    2    1    2    0    0 -0.35527136788E-14  0.00000000000E+00  0.85001677308E+02  0.11481062315E+03  0.77176382675E+02 0.  0.
         66    2    3    3    0    0 -0.18758007165E+02  0.17559084794E+02 -0.24800847241E+00  0.25772966052E+02  0.19999948259E+01 0.  0.
         13    1    3    3    0    0  0.18758007165E+02 -0.17559084794E+02  0.85249685781E+02  0.89037657097E+02  0.10566000000E+00 0. -1.
         13    1    4    4    0    0 -0.33420515457E+01  0.27275116073E+01 -0.52406962071E+00  0.43467736432E+01  0.10566000000E+00 0. -1.
        -13    1    4    4    0    0 -0.14143519954E+01  0.17701430759E+01 -0.15279750230E+00  0.22733915607E+01  0.10566000000E+00 0.  1.
        -14    1    4    4    0    0 -0.14001603624E+02  0.13061430111E+02  0.42885865060E+00  0.19152800848E+02  0.00000000000E+00 0.  1.
<mgrwt>
<rscale>  0 0.77176383E+02</rscale>
<asrwt>0</asrwt>
<pdfrwt beam="1">  1        1 0.15370176E-01 0.77176383E+02</pdfrwt>
<pdfrwt beam="2">  1       -2 0.22929959E-02 0.77176383E+02</pdfrwt>
<totfact> 0.16191999E+05</totfact>
</mgrwt>
</event>
<event>
 8    1  0.8577104E-018  0.8150580E+02  0.7818608E-02  0.1324832E+00
         -2   -1    0    0    0  501 -0.00000000000E+00  0.00000000000E+00  0.71332595237E+02  0.71332595283E+02  0.25500000000E-02 0.  1.
          1   -1    0    0  501    0  0.00000000000E+00 -0.00000000000E+00 -0.23282468551E+02  0.23282469096E+02  0.50400000000E-02 0. -1.
        -24    2    1    2    0    0  0.00000000000E+00 -0.35527136788E-14  0.48050126687E+02  0.94615064379E+02  0.81505801835E+02 0.  0.
         66    2    3    3    0    0 -0.26422616499E+02 -0.25107479360E+02  0.45135272240E+02  0.58049401211E+02  0.19999995929E+01 0.  0.
         13    1    3    3    0    0  0.26422616499E+02  0.25107479360E+02  0.29148544468E+01  0.36565663168E+02  0.10566000000E+00 0. -1.
         13    1    4    4    0    0 -0.12246963569E+02 -0.12031471872E+02  0.20225646187E+02  0.26529839046E+02  0.10566000000E+00 0. -1.
        -13    1    4    4    0    0 -0.68500993773E+01 -0.68959337746E+01  0.12081121016E+02  0.15506205633E+02  0.10566000000E+00 0.  1.
        -14    1    4    4    0    0 -0.73255535523E+01 -0.61800737126E+01  0.12828505037E+02  0.16013356532E+02  0.00000000000E+00 0.  1.
<mgrwt>
<rscale>  0 0.81505802E+02</rscale>
<asrwt>0</asrwt>
<pdfrwt beam="1">  1        1 0.35819183E-02 0.81505802E+02</pdfrwt>
<pdfrwt beam="2">  1       -2 0.10974245E-01 0.81505802E+02</pdfrwt>
<totfact> 0.10917512E+05</totfact>
</mgrwt>
</event>
<event>
 8    1  0.8577104E-018  0.7964638E+02  0.7818608E-02  0.1330058E+00
          1   -1    0    0  501    0  0.00000000000E+00  0.00000000000E+00  0.10090482875E+01  0.10090608743E+01  0.50400000000E-02 0. -1.
         -2   -1    0    0    0  501 -0.00000000000E+00 -0.00000000000E+00 -0.15716559524E+04  0.15716559524E+04  0.25500000000E-02 0.  1.
        -24    2    1    2    0    0 -0.17763568394E-14 -0.88817841970E-15 -0.15706469041E+04  0.15726650133E+04  0.79646384634E+02 0.  0.
         66    2    3    3    0    0 -0.15338914450E+02 -0.60744817659E+01 -0.15009512689E+04  0.15010432682E+04  0.20000009144E+01 0.  0.
         13    1    3    3    0    0  0.15338914450E+02  0.60744817659E+01 -0.69695635284E+02  0.71621745070E+02  0.10566000000E+00 0. -1.
         13    1    4    4    0    0 -0.87874489928E+00 -0.24144672513E+00 -0.68553701345E+02  0.68559839712E+02  0.10566000000E+00 0.  1.
        -13    1    4    4    0    0 -0.73950411581E+01 -0.38549901430E+01 -0.74094212285E+03  0.74098906076E+03  0.10566000000E+00 0.  1.
        -14    1    4    4    0    0 -0.70651283927E+01 -0.19780448978E+01 -0.69145544466E+03  0.69149436776E+03  0.00000000000E+00 0.  1.
<mgrwt>
<rscale>  0 0.79646385E+02</rscale>
<asrwt>0</asrwt>
<pdfrwt beam="1">  1        1 0.15524042E-03 0.79646385E+02</pdfrwt>
<pdfrwt beam="2">  1       -2 0.24179126E+00 0.79646385E+02</pdfrwt>
<totfact> 0.13847739E+04</totfact>
</mgrwt>
</event>
<event>
 8    1  0.8577104E-018  0.8268741E+02  0.7818608E-02  0.1321593E+00
          1   -1    0    0  501    0  0.00000000000E+00  0.00000000000E+00  0.13141697162E+03  0.13141697172E+03  0.50400000000E-02 0. -1.
         -2   -1    0    0    0  501 -0.00000000000E+00 -0.00000000000E+00 -0.13006707019E+02  0.13006707269E+02  0.25500000000E-02 0.  1.
        -24    2    1    2    0    0  0.71054273576E-14  0.00000000000E+00  0.11841026461E+03  0.14442367899E+03  0.82687413124E+02 0.  0.
         66    2    3    3    0    0 -0.40323237078E+02  0.13892850709E+01  0.74803587870E+02  0.85014530020E+02  0.19999987091E+01 0.  0.
         13    1    3    3    0    0  0.40323237078E+02 -0.13892850709E+01  0.43606676735E+02  0.59409148970E+02  0.10566000000E+00 0. -1.
         13    1    4    4    0    0 -0.21592779073E+02  0.79200904313E+00  0.40618474343E+02  0.46008118940E+02  0.10566000000E+00 0. -1.
        -13    1    4    4    0    0 -0.13059783868E+02  0.98403928096E+00  0.24205054008E+02  0.27521302505E+02  0.10566000000E+00 0.  1.
         14    1    4    4    0    0 -0.56706741368E+01 -0.38676325314E+00  0.99800595184E+01  0.11485108575E+02  0.00000000000E+00 0. -1.
<mgrwt>
<rscale>  0 0.82687413E+02</rscale>
<asrwt>0</asrwt>
<pdfrwt beam="1">  1        1 0.20217997E-01 0.82687413E+02</pdfrwt>
<pdfrwt beam="2">  1       -2 0.20010317E-02 0.82687413E+02</pdfrwt>
<totfact> 0.14103872E+05</totfact>
</mgrwt>
</event>
<event>
 8    1  0.8577104E-018  0.7840837E+02  0.7818608E-02  0.1333630E+00
          1   -1    0    0  501    0  0.00000000000E+00  0.00000000000E+00  0.70265728963E+01  0.70265747038E+01  0.50400000000E-02 0. -1.
         -2   -1    0    0    0  501 -0.00000000000E+00 -0.00000000000E+00 -0.21873649794E+03  0.21873649796E+03  0.25500000000E-02 0.  1.
        -24    2    1    2    0    0  0.88817841970E-15 -0.17763568394E-14 -0.21170992505E+03  0.22576307266E+03  0.78408370818E+02 0.  0.
         66    2    3    3    0    0 -0.46587152124E+01  0.11400277939E+02 -0.21301331937E+03  0.21337840612E+03  0.20000012426E+01 0.  0.
         13    1    3    3    0    0  0.46587152124E+01 -0.11400277939E+02  0.13033943245E+01  0.12384666540E+02  0.10566000000E+00 0. -1.
         13    1    4    4    0    0 -0.21809212314E+00  0.54268922368E+00 -0.57289239652E+01  0.57596709630E+01  0.10566000000E+00 0. -1.
        -13    1    4    4    0    0 -0.87493403986E+00  0.19607379888E+01 -0.31550374471E+02  0.31623524414E+02  0.10566000000E+00 0.  1.
        -14    1    4    4    0    0 -0.35656890494E+01  0.88968507261E+01 -0.17573402093E+03  0.17599521074E+03  0.00000000000E+00 0.  1.
<mgrwt>
<rscale>  0 0.78408371E+02</rscale>
<asrwt>0</asrwt>
<pdfrwt beam="1">  1        1 0.10810115E-02 0.78408371E+02</pdfrwt>
<pdfrwt beam="2">  1       -2 0.33651764E-01 0.78408371E+02</pdfrwt>
<totfact> 0.86301448E+04</totfact>
</mgrwt>
</event>
<event>
 8    1  0.8577104E-018  0.7961857E+02  0.7818608E-02  0.1330137E+00
         -2   -1    0    0    0  501 -0.00000000000E+00  0.00000000000E+00  0.34343229894E+02  0.34343229988E+02  0.25500000000E-02 0.  1.
          1   -1    0    0  501    0  0.00000000000E+00 -0.00000000000E+00 -0.46145318977E+02  0.46145319252E+02  0.50400000000E-02 0. -1.
        -24    2    1    2    0    0  0.71054273576E-14  0.00000000000E+00 -0.11802089084E+02  0.80488549241E+02  0.79618573538E+02 0.  0.
         66    2    3    3    0    0  0.30688084820E+02 -0.20625753912E+02  0.89388039828E+01  0.38093076799E+02  0.20000022496E+01 0.  0.
         13    1    3    3    0    0 -0.30688084820E+02  0.20625753912E+02 -0.20740893066E+02  0.42395472442E+02  0.10566000000E+00 0. -1.
         13    1    4    4    0    0  0.18182441593E+02 -0.12955322342E+02  0.59889448635E+01  0.23115366834E+02  0.10566000000E+00 0. -1.
        -13    1    4    4    0    0  0.41177525974E+01 -0.22033861781E+01  0.10063435344E+01  0.47785655220E+01  0.10566000000E+00 0.  1.
        -14    1    4    4    0    0  0.83878906296E+01 -0.54670453920E+01  0.19435155848E+01  0.10199144443E+02  0.00000000000E+00 0.  1.
<mgrwt>
<rscale>  0 0.79618574E+02</rscale>
<asrwt>0</asrwt>
<pdfrwt beam="1">  1        1 0.70992799E-02 0.79618574E+02</pdfrwt>
<pdfrwt beam="2">  1       -2 0.52835739E-02 0.79618574E+02</pdfrwt>
<totfact> 0.13166136E+05</totfact>
</mgrwt>
</event>
<event>
 8    1  0.8577104E-018  0.8033213E+02  0.7818608E-02  0.1328112E+00
          1   -1    0    0  501    0  0.00000000000E+00  0.00000000000E+00  0.41750753071E+01  0.41750783492E+01  0.50400000000E-02 0. -1.
         -2   -1    0    0    0  501 -0.00000000000E+00 -0.00000000000E+00 -0.38641509784E+03  0.38641509785E+03  0.25500000000E-02 0.  1.
        -24    2    1    2    0    0  0.00000000000E+00  0.17763568394E-14 -0.38224002253E+03  0.39059017620E+03  0.80332128792E+02 0.  0.
         66    2    3    3    0    0 -0.34977673650E+02  0.12255330689E+02 -0.26619745824E+03  0.26877261311E+03  0.20000004600E+01 0.  0.
         13    1    3    3    0    0  0.34977673650E+02 -0.12255330689E+02 -0.11604256429E+03  0.12181756308E+03  0.10566000000E+00 0. -1.
         13    1    4    4    0    0 -0.39388412513E+01  0.20166462242E+01 -0.31690998146E+02  0.31998622781E+02  0.10566000000E+00 0. -1.
        -13    1    4    4    0    0 -0.69163904987E+01  0.25428096879E+01 -0.52942569849E+02  0.53453056086E+02  0.10566000000E+00 0.  1.
         14    1    4    4    0    0 -0.24122441900E+02  0.76958747766E+01 -0.18156389025E+03  0.18332093425E+03  0.00000000000E+00 0. -1.
<mgrwt>
<rscale>  0 0.80332129E+02</rscale>
<asrwt>0</asrwt>
<pdfrwt beam="1">  1        1 0.64231982E-03 0.80332129E+02</pdfrwt>
<pdfrwt beam="2">  1       -2 0.59448449E-01 0.80332129E+02</pdfrwt>
<totfact> 0.59802589E+04</totfact>
</mgrwt>
</event>
<event>
 8    1  0.8577104E-018  0.8032182E+02  0.7818608E-02  0.1328141E+00
         -2   -1    0    0    0  501 -0.00000000000E+00  0.00000000000E+00  0.35509398669E+01  0.35509407825E+01  0.25500000000E-02 0.  1.
          1   -1    0    0  501    0  0.00000000000E+00 -0.00000000000E+00 -0.45421739872E+03  0.45421739874E+03  0.50400000000E-02 0. -1.
        -24    2    1    2    0    0  0.00000000000E+00  0.00000000000E+00 -0.45066645885E+03  0.45776833953E+03  0.80321824812E+02 0.  0.
         66    2    3    3    0    0 -0.36665168837E+02 -0.10964136870E+02 -0.29441775888E+03  0.29690126922E+03  0.20000042439E+01 0.  0.
         13    1    3    3    0    0  0.36665168837E+02  0.10964136870E+02 -0.15624869997E+03  0.16086707031E+03  0.10566000000E+00 0. -1.
         13    1    4    4    0    0 -0.14969366377E+02 -0.42668004219E+01 -0.11528191557E+03  0.11632806513E+03  0.10566000000E+00 0. -1.
        -13    1    4    4    0    0 -0.12918754052E+02 -0.37412235409E+01 -0.10173551124E+03  0.10262074046E+03  0.10566000000E+00 0.  1.
         14    1    4    4    0    0 -0.87770484076E+01 -0.29561129072E+01 -0.77400332068E+02  0.77952463634E+02  0.00000000000E+00 0. -1.
<mgrwt>
<rscale>  0 0.80321825E+02</rscale>
<asrwt>0</asrwt>
<pdfrwt beam="1">  1        1 0.69879554E-01 0.80321825E+02</pdfrwt>
<pdfrwt beam="2">  1       -2 0.54629887E-03 0.80321825E+02</pdfrwt>
<totfact> 0.19162864E+05</totfact>
</mgrwt>
</event>
<event>
 8    1  0.8577104E-018  0.7502381E+02  0.7818608E-02  0.1343797E+00
         -2   -1    0    0    0  501 -0.00000000000E+00  0.00000000000E+00  0.86252942783E+02  0.86252942820E+02  0.25500000000E-02 0.  1.
          1   -1    0    0  501    0  0.00000000000E+00 -0.00000000000E+00 -0.16314143147E+02  0.16314143925E+02  0.50400000000E-02 0. -1.
        -24    2    1    2    0    0  0.00000000000E+00  0.88817841970E-15  0.69938799636E+02  0.10256708675E+03  0.75023806815E+02 0.  0.
         66    2    3    3    0    0 -0.12969833337E+02 -0.46599326466E+01  0.82651978494E+02  0.83816949953E+02  0.20000003382E+01 0.  0.
         13    1    3    3    0    0  0.12969833337E+02  0.46599326466E+01 -0.12713178858E+02  0.18750136793E+02  0.10566000000E+00 0. -1.
         13    1    4    4    0    0 -0.11002098505E+01 -0.84093250710E+00  0.63461578199E+01  0.64963460736E+01  0.10566000000E+00 0. -1.
        -13    1    4    4    0    0 -0.80750446107E+01 -0.27470688332E+01  0.50537985869E+02  0.51252823458E+02  0.10566000000E+00 0.  1.
        -14    1    4    4    0    0 -0.37945788756E+01 -0.10719313063E+01  0.25767834805E+02  0.26067780421E+02  0.00000000000E+00 0.  1.
<mgrwt>
<rscale>  0 0.75023807E+02</rscale>
<asrwt>0</asrwt>
<pdfrwt beam="1">  1        1 0.25098683E-02 0.75023807E+02</pdfrwt>
<pdfrwt beam="2">  1       -2 0.13269683E-01 0.75023807E+02</pdfrwt>
<totfact> 0.12946444E+05</totfact>
</mgrwt>
</event>
<event>
 8    1  0.8577104E-018  0.8013317E+02  0.7818608E-02  0.1328674E+00
          1   -1    0    0  501    0  0.00000000000E+00  0.00000000000E+00  0.13244466380E+03  0.13244466390E+03  0.50400000000E-02 0. -1.
         -2   -1    0    0    0  501 -0.00000000000E+00 -0.00000000000E+00 -0.12120768127E+02  0.12120768396E+02  0.25500000000E-02 0.  1.
        -24    2    1    2    0    0  0.35527136788E-14 -0.44408920985E-15  0.12032389568E+03  0.14456543229E+03  0.80133166317E+02 0.  0.
         66    2    3    3    0    0 -0.30920675412E+02  0.22735779797E+01  0.14485981367E+02  0.34279746033E+02  0.20000017900E+01 0.  0.
         13    1    3    3    0    0  0.30920675412E+02 -0.22735779797E+01  0.10583791431E+03  0.11028568626E+03  0.10566000000E+00 0. -1.
         13    1    4    4    0    0 -0.24768863254E+01  0.65628145759E+00  0.14258684655E+01  0.29342692680E+01  0.10566000000E+00 0. -1.
        -13    1    4    4    0    0 -0.10988113232E+02  0.60171999621E+00  0.47636934270E+01  0.11991857173E+02  0.10566000000E+00 0.  1.
        -14    1    4    4    0    0 -0.17455675855E+02  0.10155765259E+01  0.82964194741E+01  0.19353619592E+02  0.00000000000E+00 0.  1.
<mgrwt>
<rscale>  0 0.80133166E+02</rscale>
<asrwt>0</asrwt>
<pdfrwt beam="1">  1        1 0.20376101E-01 0.80133166E+02</pdfrwt>
<pdfrwt beam="2">  1       -2 0.18647337E-02 0.80133166E+02</pdfrwt>
<totfact> 0.15365889E+05</totfact>
</mgrwt>
</event>
<event>
 8    1  0.8577104E-018  0.7645829E+02  0.7818608E-02  0.1339414E+00
          1   -1    0    0  501    0  0.00000000000E+00  0.00000000000E+00  0.12980588582E+02  0.12980589560E+02  0.50400000000E-02 0. -1.
         -2   -1    0    0    0  501 -0.00000000000E+00 -0.00000000000E+00 -0.11258868050E+03  0.11258868053E+03  0.25500000000E-02 0.  1.
        -24    2    1    2    0    0  0.00000000000E+00  0.00000000000E+00 -0.99608091917E+02  0.12556927009E+03  0.76458286764E+02 0.  0.
         66    2    3    3    0    0 -0.25981536341E+02  0.21088860845E+02 -0.80106829747E+02  0.86838266064E+02  0.19999996425E+01 0.  0.
         13    1    3    3    0    0  0.25981536341E+02 -0.21088860845E+02 -0.19501262170E+02  0.38731004023E+02  0.10566000000E+00 0. -1.
         13    1    4    4    0    0 -0.84596117218E+01  0.63067151417E+01 -0.23920919373E+02  0.26145003998E+02  0.10566000000E+00 0. -1.
        -13    1    4    4    0    0 -0.62530945770E+01  0.45828739670E+01 -0.18967237221E+02  0.20490758342E+02  0.10566000000E+00 0.  1.
         14    1    4    4    0    0 -0.11268830042E+02  0.10199271736E+02 -0.37218673152E+02  0.40202503724E+02  0.00000000000E+00 0. -1.
<mgrwt>
<rscale>  0 0.76458287E+02</rscale>
<asrwt>0</asrwt>
<pdfrwt beam="1">  1        1 0.19970138E-02 0.76458287E+02</pdfrwt>
<pdfrwt beam="2">  1       -2 0.17321335E-01 0.76458287E+02</pdfrwt>
<totfact> 0.11558913E+05</totfact>
</mgrwt>
</event>
<event>
 8    1  0.8577104E-018  0.7839844E+02  0.7818608E-02  0.1333659E+00
          1   -1    0    0  501    0  0.00000000000E+00  0.00000000000E+00  0.21362268985E+03  0.21362268991E+03  0.50400000000E-02 0. -1.
         -2   -1    0    0    0  501 -0.00000000000E+00 -0.00000000000E+00 -0.71929574880E+01  0.71929579400E+01  0.25500000000E-02 0.  1.
        -24    2    1    2    0    0 -0.71054273576E-14 -0.88817841970E-15  0.20642973237E+03  0.22081564785E+03  0.78398443430E+02 0.  0.
         66    2    3    3    0    0  0.33904248674E+02  0.63333727226E+01  0.15559483777E+03  0.15938432555E+03  0.19999999205E+01 0.  0.
         13    1    3    3    0    0 -0.33904248674E+02 -0.63333727226E+01  0.50834894592E+02  0.61431322307E+02  0.10566000000E+00 0. -1.
         13    1    4    4    0    0  0.80449947349E+01  0.15284588776E+01  0.40103222025E+02  0.40930889407E+02  0.10566000000E+00 0. -1.
        -13    1    4    4    0    0  0.11126015216E+02  0.25686976226E+01  0.49400767273E+02  0.50703386408E+02  0.10566000000E+00 0.  1.
         14    1    4    4    0    0  0.14733238724E+02  0.22362162223E+01  0.66090848476E+02  0.67750049731E+02  0.00000000000E+00 0. -1.
<mgrwt>
<rscale>  0 0.78398443E+02</rscale>
<asrwt>0</asrwt>
<pdfrwt beam="1">  1        1 0.32865027E-01 0.78398443E+02</pdfrwt>
<pdfrwt beam="2">  1       -2 0.11066089E-02 0.78398443E+02</pdfrwt>
<totfact> 0.17818356E+05</totfact>
</mgrwt>
</event>
<event>
 8    1  0.8577104E-018  0.7797440E+02  0.7818608E-02  0.1334900E+00
         -2   -1    0    0    0  501 -0.00000000000E+00  0.00000000000E+00  0.17499906886E+03  0.17499906888E+03  0.25500000000E-02 0.  1.
          1   -1    0    0  501    0  0.00000000000E+00 -0.00000000000E+00 -0.86857696461E+01  0.86857711084E+01  0.50400000000E-02 0. -1.
        -24    2    1    2    0    0  0.00000000000E+00  0.00000000000E+00  0.16631329921E+03  0.18368483999E+03  0.77974399296E+02 0.  0.
         66    2    3    3    0    0  0.36068579616E+02  0.13976948080E+02  0.72237732573E+02  0.81966990443E+02  0.20000004410E+01 0.  0.
         13    1    3    3    0    0 -0.36068579616E+02 -0.13976948080E+02  0.94075566640E+02  0.10171784954E+03  0.10566000000E+00 0. -1.
         13    1    4    4    0    0  0.23733744184E+01  0.49678442759E+00  0.50389631127E+01  0.55930326464E+01  0.10566000000E+00 0.  1.
        -13    1    4    4    0    0  0.15044677048E+02  0.58754227732E+01  0.29531497555E+02  0.33659818956E+02  0.10566000000E+00 0.  1.
         14    1    4    4    0    0  0.18650528149E+02  0.76047408791E+01  0.37667271905E+02  0.42714138840E+02  0.00000000000E+00 0. -1.
<mgrwt>
<rscale>  0 0.77974399E+02</rscale>
<asrwt>0</asrwt>
<pdfrwt beam="1">  1        1 0.13362725E-02 0.77974399E+02</pdfrwt>
<pdfrwt beam="2">  1       -2 0.26922932E-01 0.77974399E+02</pdfrwt>
<totfact> 0.95698356E+04</totfact>
</mgrwt>
</event>
<event>
 8    1  0.8577104E-018  0.7917149E+02  0.7818608E-02  0.1331419E+00
          1   -1    0    0  501    0  0.00000000000E+00  0.00000000000E+00  0.15988854969E+02  0.15988855764E+02  0.50400000000E-02 0. -1.
         -2   -1    0    0    0  501 -0.00000000000E+00 -0.00000000000E+00 -0.98007705635E+02  0.98007705668E+02  0.25500000000E-02 0.  1.
        -24    2    1    2    0    0  0.00000000000E+00  0.00000000000E+00 -0.82018850666E+02  0.11399656143E+03  0.79171485737E+02 0.  0.
         66    2    3    3    0    0 -0.22189905863E+02  0.32513269405E+02 -0.46708219146E+02  0.61115974522E+02  0.19999990807E+01 0.  0.
         13    1    3    3    0    0  0.22189905863E+02 -0.32513269405E+02 -0.35310631520E+02  0.52880586910E+02  0.10566000000E+00 0. -1.
         13    1    4    4    0    0 -0.72487323908E+00  0.12686058642E+01 -0.16444645047E+01  0.22023236807E+01  0.10566000000E+00 0.  1.
        -13    1    4    4    0    0 -0.84957222110E+01  0.11203435849E+02 -0.17534040901E+02  0.22475498327E+02  0.10566000000E+00 0.  1.
        -14    1    4    4    0    0 -0.12969310413E+02  0.20041227693E+02 -0.27529713741E+02  0.36438152514E+02  0.00000000000E+00 0.  1.
<mgrwt>
<rscale>  0 0.79171486E+02</rscale>
<asrwt>0</asrwt>
<pdfrwt beam="1">  1        1 0.24598240E-02 0.79171486E+02</pdfrwt>
<pdfrwt beam="2">  1       -2 0.15078108E-01 0.79171486E+02</pdfrwt>
<totfact> 0.10953451E+05</totfact>
</mgrwt>
</event>
<event>
 8    1  0.8577104E-018  0.7994534E+02  0.7818608E-02  0.1329207E+00
         -2   -1    0    0    0  501 -0.00000000000E+00  0.00000000000E+00  0.30049621288E+02  0.30049621396E+02  0.25500000000E-02 0.  1.
          1   -1    0    0  501    0  0.00000000000E+00 -0.00000000000E+00 -0.53172528662E+02  0.53172528901E+02  0.50400000000E-02 0. -1.
        -24    2    1    2    0    0  0.35527136788E-14  0.35527136788E-14 -0.23122907375E+02  0.83222150297E+02  0.79945340418E+02 0.  0.
         66    2    3    3    0    0 -0.31120885386E+02 -0.23186099519E+02 -0.17092044377E+01  0.38897636136E+02  0.19999997723E+01 0.  0.
         13    1    3    3    0    0  0.31120885386E+02  0.23186099519E+02 -0.21413702937E+02  0.44324514161E+02  0.10566000000E+00 0. -1.
         13    1    4    4    0    0 -0.85257713832E+01 -0.60516618468E+01  0.16173984833E+00  0.10456993478E+02  0.10566000000E+00 0. -1.
        -13    1    4    4    0    0 -0.18386642699E+02 -0.14358076712E+02 -0.12728586299E+01  0.23363525627E+02  0.10566000000E+00 0.  1.
         14    1    4    4    0    0 -0.42084713040E+01 -0.27763609596E+01 -0.59808565610E+00  0.50771170310E+01  0.00000000000E+00 0. -1.
<mgrwt>
<rscale>  0 0.79945340E+02</rscale>
<asrwt>0</asrwt>
<pdfrwt beam="1">  1        1 0.81803891E-02 0.79945340E+02</pdfrwt>
<pdfrwt beam="2">  1       -2 0.46230187E-02 0.79945340E+02</pdfrwt>
<totfact> 0.13309984E+05</totfact>
</mgrwt>
</event>
<event>
 8    1  0.8577104E-018  0.7957574E+02  0.7818608E-02  0.1330260E+00
          1   -1    0    0  501    0  0.00000000000E+00  0.00000000000E+00  0.15196785603E+03  0.15196785611E+03  0.50400000000E-02 0. -1.
         -2   -1    0    0    0  501 -0.00000000000E+00 -0.00000000000E+00 -0.10417166208E+02  0.10417166521E+02  0.25500000000E-02 0.  1.
        -24    2    1    2    0    0  0.00000000000E+00  0.00000000000E+00  0.14155068982E+03  0.16238502263E+03  0.79575736169E+02 0.  0.
         66    2    3    3    0    0 -0.11344750431E+01  0.35288347316E+02  0.33497226952E+02  0.48709534986E+02  0.20000237888E+01 0.  0.
         13    1    3    3    0    0  0.11344750431E+01 -0.35288347316E+02  0.10805346287E+03  0.11367548765E+03  0.10566000000E+00 0. -1.
         13    1    4    4    0    0  0.17676190412E-01  0.48701782975E+01  0.46582392209E+01  0.67401265398E+01  0.10566000000E+00 0. -1.
        -13    1    4    4    0    0 -0.32915524795E+00  0.24570484458E+02  0.23736687672E+02  0.34165165818E+02  0.10566000000E+00 0.  1.
        -14    1    4    4    0    0 -0.82299598558E+00  0.58476845599E+01  0.51023000589E+01  0.78042426279E+01  0.00000000000E+00 0.  1.
<mgrwt>
<rscale>  0 0.79575736E+02</rscale>
<asrwt>0</asrwt>
<pdfrwt beam="1">  1        1 0.23379670E-01 0.79575736E+02</pdfrwt>
<pdfrwt beam="2">  1       -2 0.16026410E-02 0.79575736E+02</pdfrwt>
<totfact> 0.16052845E+05</totfact>
</mgrwt>
</event>
<event>
 8    1  0.8577104E-018  0.8033133E+02  0.7818608E-02  0.1328114E+00
         -2   -1    0    0    0  501 -0.00000000000E+00  0.00000000000E+00  0.37920669324E+01  0.37920677898E+01  0.25500000000E-02 0.  1.
          1   -1    0    0  501    0  0.00000000000E+00 -0.00000000000E+00 -0.42543565852E+03  0.42543565855E+03  0.50400000000E-02 0. -1.
        -24    2    1    2    0    0  0.00000000000E+00  0.00000000000E+00 -0.42164359159E+03  0.42922772634E+03  0.80331330948E+02 0.  0.
         66    2    3    3    0    0  0.34249947965E+02  0.20826165677E+02 -0.19963305686E+03  0.20362746746E+03  0.20000001302E+01 0.  0.
         13    1    3    3    0    0 -0.34249947965E+02 -0.20826165677E+02 -0.22201053473E+03  0.22560025888E+03  0.10566000000E+00 0. -1.
         13    1    4    4    0    0  0.17949064694E+02  0.11451536896E+02 -0.10831393149E+03  0.11038670907E+03  0.10566000000E+00 0. -1.
        -13    1    4    4    0    0  0.52882920493E+00  0.29972867763E+00 -0.38286538665E+01  0.38780474563E+01  0.10566000000E+00 0.  1.
         14    1    4    4    0    0  0.15772054067E+02  0.90749001032E+01 -0.87490471506E+02  0.89362710935E+02  0.00000000000E+00 0. -1.
<mgrwt>
<rscale>  0 0.80331331E+02</rscale>
<asrwt>0</asrwt>
<pdfrwt beam="1">  1        1 0.65451602E-01 0.80331331E+02</pdfrwt>
<pdfrwt beam="2">  1       -2 0.58339532E-03 0.80331331E+02</pdfrwt>
<totfact> 0.18973111E+05</totfact>
</mgrwt>
</event>
<event>
 8    1  0.8577104E-018  0.8032273E+02  0.7818608E-02  0.1328138E+00
          1   -1    0    0  501    0  0.00000000000E+00  0.00000000000E+00  0.19992627846E+03  0.19992627852E+03  0.50400000000E-02 0. -1.
         -2   -1    0    0    0  501 -0.00000000000E+00 -0.00000000000E+00 -0.80676502890E+01  0.80676506920E+01  0.25500000000E-02 0.  1.
        -24    2    1    2    0    0  0.00000000000E+00  0.00000000000E+00  0.19185862817E+03  0.20799392921E+03  0.80322732690E+02 0.  0.
         66    2    3    3    0    0  0.30662552857E+02  0.19298822635E+02  0.51265284582E+02  0.62807372922E+02  0.19999968122E+01 0.  0.
         13    1    3    3    0    0 -0.30662552857E+02 -0.19298822635E+02  0.14059334359E+03  0.14518655629E+03  0.10566000000E+00 0. -1.
         13    1    4    4    0    0  0.68157525083E+00  0.44460025325E+00  0.12794231388E+01  0.15199677008E+01  0.10566000000E+00 0.  1.
        -13    1    4    4    0    0  0.22903956002E+02  0.14019368795E+02  0.36665018468E+02  0.45447427268E+02  0.10566000000E+00 0.  1.
        -14    1    4    4    0    0  0.70770216040E+01  0.48348535866E+01  0.13320842975E+02  0.15839977953E+02  0.00000000000E+00 0.  1.
<mgrwt>
<rscale>  0 0.80322733E+02</rscale>
<asrwt>0</asrwt>
<pdfrwt beam="1">  1        1 0.30757889E-01 0.80322733E+02</pdfrwt>
<pdfrwt beam="2">  1       -2 0.12411770E-02 0.80322733E+02</pdfrwt>
<totfact> 0.16495420E+05</totfact>
</mgrwt>
</event>
<event>
 8    1  0.8577104E-018  0.7817121E+02  0.7818608E-02  0.1334323E+00
         -2   -1    0    0    0  501 -0.00000000000E+00  0.00000000000E+00  0.14395361194E+02  0.14395361420E+02  0.25500000000E-02 0.  1.
          1   -1    0    0  501    0  0.00000000000E+00 -0.00000000000E+00 -0.10612338491E+03  0.10612338503E+03  0.50400000000E-02 0. -1.
        -24    2    1    2    0    0  0.00000000000E+00  0.71054273576E-14 -0.91728023719E+02  0.12051874645E+03  0.78171208967E+02 0.  0.
         66    2    3    3    0    0 -0.69275745594E+01  0.34242460920E+02 -0.18962554256E+02  0.39800953314E+02  0.20000004058E+01 0.  0.
         13    1    3    3    0    0  0.69275745594E+01 -0.34242460920E+02 -0.72765469463E+02  0.80717793140E+02  0.10566000000E+00 0. -1.
         13    1    4    4    0    0 -0.19522441800E+01  0.84341681712E+01 -0.52022009276E+01  0.10100520215E+02  0.10566000000E+00 0. -1.
        -13    1    4    4    0    0 -0.32567536930E+00  0.43891810063E+01 -0.22957617429E+01  0.49651445465E+01  0.10566000000E+00 0.  1.
        -14    1    4    4    0    0 -0.46496550101E+01  0.21419111743E+02 -0.11464591585E+02  0.24735288553E+02  0.00000000000E+00 0.  1.
<mgrwt>
<rscale>  0 0.78171209E+02</rscale>
<asrwt>0</asrwt>
<pdfrwt beam="1">  1        1 0.16326674E-01 0.78171209E+02</pdfrwt>
<pdfrwt beam="2">  1       -2 0.22146710E-02 0.78171209E+02</pdfrwt>
<totfact> 0.15802036E+05</totfact>
</mgrwt>
</event>
<event>
 8    1  0.8577104E-018  0.7915880E+02  0.7818608E-02  0.1331456E+00
         -2   -1    0    0    0  501 -0.00000000000E+00  0.00000000000E+00  0.60374092068E+01  0.60374097453E+01  0.25500000000E-02 0.  1.
          1   -1    0    0  501    0  0.00000000000E+00 -0.00000000000E+00 -0.25947037153E+03  0.25947037157E+03  0.50400000000E-02 0. -1.
        -24    2    1    2    0    0  0.35527136788E-14  0.35527136788E-14 -0.25343296232E+03  0.26550778132E+03  0.79158799585E+02 0.  0.
         66    2    3    3    0    0 -0.31317483808E+02 -0.22714001805E+02 -0.99176399513E+02  0.10647379438E+03  0.19999996880E+01 0.  0.
         13    1    3    3    0    0  0.31317483808E+02  0.22714001805E+02 -0.15425656281E+03  0.15903398694E+03  0.10566000000E+00 0. -1.
         13    1    4    4    0    0 -0.42610503383E+00 -0.10785786153E+00 -0.12350909726E+01  0.13152233896E+01  0.10566000000E+00 0. -1.
        -13    1    4    4    0    0 -0.64632587524E+01 -0.48669323197E+01 -0.20014489629E+02  0.21588230661E+02  0.10566000000E+00 0.  1.
         14    1    4    4    0    0 -0.24428120022E+02 -0.17739211624E+02 -0.77926818911E+02  0.83570340327E+02  0.00000000000E+00 0. -1.
<mgrwt>
<rscale>  0 0.79158800E+02</rscale>
<asrwt>0</asrwt>
<pdfrwt beam="1">  1        1 0.39918510E-01 0.79158800E+02</pdfrwt>
<pdfrwt beam="2">  1       -2 0.92883243E-03 0.79158800E+02</pdfrwt>
<totfact> 0.18038565E+05</totfact>
</mgrwt>
</event>
<event>
 8    1  0.8577104E-018  0.8018849E+02  0.7818608E-02  0.1328517E+00
          1   -1    0    0  501    0  0.00000000000E+00  0.00000000000E+00  0.49567861276E+02  0.49567861533E+02  0.50400000000E-02 0. -1.
         -2   -1    0    0    0  501 -0.00000000000E+00 -0.00000000000E+00 -0.32431261919E+02  0.32431262019E+02  0.25500000000E-02 0.  1.
        -24    2    1    2    0    0  0.35527136788E-14  0.22204460493E-15  0.17136599358E+02  0.81999123552E+02  0.80188485618E+02 0.  0.
         66    2    3    3    0    0 -0.29646735051E+02 -0.10041950130E+01 -0.18971693723E+02  0.35268434492E+02  0.20000004909E+01 0.  0.
         13    1    3    3    0    0  0.29646735051E+02  0.10041950130E+01  0.36108293081E+02  0.46730689060E+02  0.10566000000E+00 0. -1.
         13    1    4    4    0    0 -0.98382393166E+00  0.18568108541E+00 -0.49031787410E+00  0.11198047362E+01  0.10566000000E+00 0. -1.
        -13    1    4    4    0    0 -0.12642719932E+02 -0.18712594877E+00 -0.87648588826E+01  0.15385294884E+02  0.10566000000E+00 0.  1.
         14    1    4    4    0    0 -0.16020191187E+02 -0.10027501497E+01 -0.97165169666E+01  0.18763334872E+02  0.00000000000E+00 0. -1.
<mgrwt>
<rscale>  0 0.80188486E+02</rscale>
<asrwt>0</asrwt>
<pdfrwt beam="1">  1        1 0.76258249E-02 0.80188486E+02</pdfrwt>
<pdfrwt beam="2">  1       -2 0.49894249E-02 0.80188486E+02</pdfrwt>
<totfact> 0.13053375E+05</totfact>
</mgrwt>
</event>
<event>
 8    1  0.8577104E-018  0.8105732E+02  0.7818608E-02  0.1326077E+00
          1   -1    0    0  501    0  0.00000000000E+00  0.00000000000E+00  0.19356289481E+02  0.19356290137E+02  0.50400000000E-02 0. -1.
         -2   -1    0    0    0  501 -0.00000000000E+00 -0.00000000000E+00 -0.84859864160E+02  0.84859864198E+02  0.25500000000E-02 0.  1.
        -24    2    1    2    0    0  0.35527136788E-14  0.00000000000E+00 -0.65503574679E+02  0.10421615434E+03  0.81057316319E+02 0.  0.
         66    2    3    3    0    0 -0.19099217172E+02 -0.20487770511E+02 -0.70389127323E+02  0.75783626735E+02  0.19999996781E+01 0.  0.
         13    1    3    3    0    0  0.19099217172E+02  0.20487770511E+02  0.48855526446E+01  0.28432527600E+02  0.10566000000E+00 0. -1.
         13    1    4    4    0    0 -0.31771189475E+01 -0.32324694549E+01 -0.10161708652E+02  0.11127193283E+02  0.10566000000E+00 0. -1.
        -13    1    4    4    0    0 -0.99713320271E+01 -0.10222944081E+02 -0.38054437688E+02  0.40645878510E+02  0.10566000000E+00 0.  1.
        -14    1    4    4    0    0 -0.59507661971E+01 -0.70323569747E+01 -0.22172980983E+02  0.24010554942E+02  0.00000000000E+00 0.  1.
<mgrwt>
<rscale>  0 0.81057316E+02</rscale>
<asrwt>0</asrwt>
<pdfrwt beam="1">  1        1 0.29778908E-02 0.81057316E+02</pdfrwt>
<pdfrwt beam="2">  1       -2 0.13055363E-01 0.81057316E+02</pdfrwt>
<totfact> 0.10668475E+05</totfact>
</mgrwt>
</event>
<event>
 8    1  0.8577104E-018  0.7845501E+02  0.7818608E-02  0.1333494E+00
         -2   -1    0    0    0  501 -0.00000000000E+00  0.00000000000E+00  0.67569067897E+01  0.67569072709E+01  0.25500000000E-02 0.  1.
          1   -1    0    0  501    0  0.00000000000E+00 -0.00000000000E+00 -0.22773688925E+03  0.22773688931E+03  0.50400000000E-02 0. -1.
        -24    2    1    2    0    0  0.00000000000E+00  0.00000000000E+00 -0.22097998246E+03  0.23449379658E+03  0.78455006118E+02 0.  0.
         66    2    3    3    0    0  0.38924275976E+02 -0.29032865589E+01 -0.99676216015E+02  0.10706482322E+03  0.19999997094E+01 0.  0.
         13    1    3    3    0    0 -0.38924275976E+02  0.29032865589E+01 -0.12130376645E+03  0.12742897336E+03  0.10566000000E+00 0. -1.
         13    1    4    4    0    0  0.11290873073E+02 -0.33254371259E+00 -0.27303915829E+02  0.29548424386E+02  0.10566000000E+00 0. -1.
        -13    1    4    4    0    0  0.12900983434E+02 -0.11050767367E+01 -0.32547046727E+02  0.35028245500E+02  0.10566000000E+00 0.  1.
         14    1    4    4    0    0  0.14732419469E+02 -0.14656661097E+01 -0.39825253459E+02  0.42488153333E+02  0.00000000000E+00 0. -1.
<mgrwt>
<rscale>  0 0.78455006E+02</rscale>
<asrwt>0</asrwt>
<pdfrwt beam="1">  1        1 0.35036439E-01 0.78455006E+02</pdfrwt>
<pdfrwt beam="2">  1       -2 0.10395243E-02 0.78455006E+02</pdfrwt>
<totfact> 0.18006744E+05</totfact>
</mgrwt>
</event>
<event>
 8    1  0.8577104E-018  0.7961096E+02  0.7818608E-02  0.1330159E+00
          1   -1    0    0  501    0  0.00000000000E+00  0.00000000000E+00  0.55198787287E+03  0.55198787290E+03  0.50400000000E-02 0. -1.
         -2   -1    0    0    0  501 -0.00000000000E+00 -0.00000000000E+00 -0.28704902949E+01  0.28704914275E+01  0.25500000000E-02 0.  1.
        -24    2    1    2    0    0  0.00000000000E+00  0.00000000000E+00  0.54911738258E+03  0.55485836433E+03  0.79610957853E+02 0.  0.
         66    2    3    3    0    0  0.20457298733E+02 -0.33523635815E+02  0.31888610902E+03  0.32130154957E+03  0.20000000747E+01 0.  0.
         13    1    3    3    0    0 -0.20457298733E+02  0.33523635815E+02  0.23023127356E+03  0.23355681475E+03  0.10566000000E+00 0. -1.
         13    1    4    4    0    0  0.11715575912E+02 -0.20010035223E+02  0.18266693852E+03  0.18413277226E+03  0.10566000000E+00 0. -1.
        -13    1    4    4    0    0  0.79870905224E+01 -0.12176609258E+02  0.12142291795E+03  0.12229308891E+03  0.10566000000E+00 0.  1.
         14    1    4    4    0    0  0.75463229855E+00 -0.13369913334E+01  0.14796252556E+02  0.14875688402E+02  0.00000000000E+00 0. -1.
<mgrwt>
<rscale>  0 0.79610958E+02</rscale>
<asrwt>0</asrwt>
<pdfrwt beam="1">  1        1 0.84921259E-01 0.79610958E+02</pdfrwt>
<pdfrwt beam="2">  1       -2 0.44161373E-03 0.79610958E+02</pdfrwt>
<totfact> 0.20065847E+05</totfact>
</mgrwt>
</event>
<event>
 8    1  0.8577104E-018  0.8661095E+02  0.7818608E-02  0.1311273E+00
         -2   -1    0    0    0  501 -0.00000000000E+00  0.00000000000E+00  0.33267591516E+03  0.33267591517E+03  0.25500000000E-02 0.  1.
          1   -1    0    0  501    0  0.00000000000E+00 -0.00000000000E+00 -0.56372088991E+01  0.56372111521E+01  0.50400000000E-02 0. -1.
        -24    2    1    2    0    0  0.00000000000E+00  0.00000000000E+00  0.32703870626E+03  0.33831312632E+03  0.86610946473E+02 0.  0.
         66    2    3    3    0    0 -0.22831951149E+02  0.34638329424E+02  0.21180336702E+03  0.21583738818E+03  0.19999995543E+01 0.  0.
         13    1    3    3    0    0  0.22831951149E+02 -0.34638329424E+02  0.11523533924E+03  0.12247573814E+03  0.10566000000E+00 0. -1.
         13    1    4    4    0    0 -0.28446317700E-01  0.19444748470E+00  0.10603976258E+01  0.10836171730E+01  0.10566000000E+00 0. -1.
        -13    1    4    4    0    0 -0.14712144993E+02  0.22557845548E+02  0.13784475248E+03  0.14045102547E+03  0.10566000000E+00 0.  1.
         14    1    4    4    0    0 -0.80913598381E+01  0.11886036391E+02  0.72898216913E+02  0.74302745536E+02  0.00000000000E+00 0. -1.
<mgrwt>
<rscale>  0 0.86610946E+02</rscale>
<asrwt>0</asrwt>
<pdfrwt beam="1">  1        1 0.86726321E-03 0.86610946E+02</pdfrwt>
<pdfrwt beam="2">  1       -2 0.51180903E-01 0.86610946E+02</pdfrwt>
<totfact> 0.53960429E+04</totfact>
</mgrwt>
</event>
<event>
 8    1  0.8577104E-018  0.8312368E+02  0.7818608E-02  0.1320414E+00
         -2   -1    0    0    0  501 -0.00000000000E+00  0.00000000000E+00  0.40808371836E+03  0.40808371837E+03  0.25500000000E-02 0.  1.
          1   -1    0    0  501    0  0.00000000000E+00 -0.00000000000E+00 -0.42329202633E+01  0.42329232638E+01  0.50400000000E-02 0. -1.
        -24    2    1    2    0    0  0.00000000000E+00  0.00000000000E+00  0.40385079810E+03  0.41231664163E+03  0.83123677993E+02 0.  0.
         66    2    3    3    0    0  0.32745004624E+02  0.40219380342E+01  0.32723081919E+03  0.32889575908E+03  0.20000005827E+01 0.  0.
         13    1    3    3    0    0 -0.32745004624E+02 -0.40219380342E+01  0.76619978909E+02  0.83420882550E+02  0.10566000000E+00 0. -1.
         13    1    4    4    0    0  0.12312213360E+02  0.16113149011E+01  0.11567544145E+03  0.11634004406E+03  0.10566000000E+00 0. -1.
        -13    1    4    4    0    0  0.17364950826E+02  0.23135571543E+01  0.18222941790E+03  0.18306956595E+03  0.10566000000E+00 0.  1.
        -14    1    4    4    0    0  0.30678404376E+01  0.97065978793E-01  0.29325959834E+02  0.29486149069E+02  0.00000000000E+00 0.  1.
<mgrwt>
<rscale>  0 0.83123678E+02</rscale>
<asrwt>0</asrwt>
<pdfrwt beam="1">  1        1 0.65121871E-03 0.83123678E+02</pdfrwt>
<pdfrwt beam="2">  1       -2 0.62782113E-01 0.83123678E+02</pdfrwt>
<totfact> 0.52807276E+04</totfact>
</mgrwt>
</event>
<event>
 8    1  0.8577104E-018  0.8032984E+02  0.7818608E-02  0.1328118E+00
          1   -1    0    0  501    0  0.00000000000E+00  0.00000000000E+00  0.17224237484E+03  0.17224237491E+03  0.50400000000E-02 0. -1.
         -2   -1    0    0    0  501 -0.00000000000E+00 -0.00000000000E+00 -0.93659923323E+01  0.93659926795E+01  0.25500000000E-02 0.  1.
        -24    2    1    2    0    0  0.35527136788E-14  0.35527136788E-14  0.16287638250E+03  0.18160836759E+03  0.80329840041E+02 0.  0.
         66    2    3    3    0    0 -0.21980875832E+02 -0.29839917388E+02  0.46637525784E+02  0.59604012964E+02  0.19999945107E+01 0.  0.
         13    1    3    3    0    0  0.21980875832E+02  0.29839917388E+02  0.11623885672E+03  0.12200435463E+03  0.10566000000E+00 0. -1.
         13    1    4    4    0    0 -0.79792413391E+01 -0.10319578106E+02  0.17615585157E+02  0.21919899386E+02  0.10566000000E+00 0. -1.
        -13    1    4    4    0    0 -0.63397007343E+00 -0.68153270658E+00  0.10536351041E+01  0.14098637708E+01  0.10566000000E+00 0.  1.
        -14    1    4    4    0    0 -0.13367664419E+02 -0.18838806576E+02  0.27968305523E+02  0.36274249807E+02  0.00000000000E+00 0.  1.
<mgrwt>
<rscale>  0 0.80329840E+02</rscale>
<asrwt>0</asrwt>
<pdfrwt beam="1">  1        1 0.26498825E-01 0.80329840E+02</pdfrwt>
<pdfrwt beam="2">  1       -2 0.14409220E-02 0.80329840E+02</pdfrwt>
<totfact> 0.16025297E+05</totfact>
</mgrwt>
</event>
<event>
 8    1  0.8577104E-018  0.8032061E+02  0.7818608E-02  0.1328144E+00
          1   -1    0    0  501    0  0.00000000000E+00  0.00000000000E+00  0.47257095423E+01  0.47257122299E+01  0.50400000000E-02 0. -1.
         -2   -1    0    0    0  501 -0.00000000000E+00 -0.00000000000E+00 -0.34129256216E+03  0.34129256217E+03  0.25500000000E-02 0.  1.
        -24    2    1    2    0    0  0.00000000000E+00  0.00000000000E+00 -0.33656685261E+03  0.34601827440E+03  0.80320607177E+02 0.  0.
         66    2    3    3    0    0 -0.23246906758E+02  0.14898912559E+02 -0.29387046513E+03  0.29517155437E+03  0.19999907764E+01 0.  0.
         13    1    3    3    0    0  0.23246906758E+02 -0.14898912559E+02 -0.42696387479E+02  0.50846720023E+02  0.10566000000E+00 0. -1.
         13    1    4    4    0    0 -0.40052206146E+01  0.31733637042E+01 -0.49075610980E+02  0.49341045656E+02  0.10566000000E+00 0. -1.
        -13    1    4    4    0    0 -0.46137936884E+01  0.31040490866E+01 -0.60024094679E+02  0.60281218626E+02  0.10566000000E+00 0.  1.
         14    1    4    4    0    0 -0.14627892456E+02  0.86214997677E+01 -0.18477075948E+03  0.18554929009E+03  0.00000000000E+00 0. -1.
<mgrwt>
<rscale>  0 0.80320607E+02</rscale>
<asrwt>0</asrwt>
<pdfrwt beam="1">  1        1 0.72703271E-03 0.80320607E+02</pdfrwt>
<pdfrwt beam="2">  1       -2 0.52506529E-01 0.80320607E+02</pdfrwt>
<totfact> 0.64623731E+04</totfact>
</mgrwt>
</event>
<event>
 8    1  0.8577104E-018  0.8060190E+02  0.7818608E-02  0.1327352E+00
          1   -1    0    0  501    0  0.00000000000E+00  0.00000000000E+00  0.40766437493E+02  0.40766437805E+02  0.50400000000E-02 0. -1.
         -2   -1    0    0    0  501 -0.00000000000E+00 -0.00000000000E+00 -0.39840780096E+02  0.39840780177E+02  0.25500000000E-02 0.  1.
        -24    2    1    2    0    0 -0.71054273576E-14  0.00000000000E+00  0.92565739754E+00  0.80607217982E+02  0.80601902888E+02 0.  0.
         66    2    3    3    0    0  0.30266667666E+02 -0.49724651346E+01 -0.25641580392E+02  0.40028579896E+02  0.19999955901E+01 0.  0.
         13    1    3    3    0    0 -0.30266667666E+02  0.49724651346E+01  0.26567237790E+02  0.40578638086E+02  0.10566000000E+00 0. -1.
         13    1    4    4    0    0  0.98662215618E+01 -0.12663838858E+01 -0.81130654967E+01  0.12836629302E+02  0.10566000000E+00 0.  1.
        -13    1    4    4    0    0  0.14145960138E+02 -0.30822202570E+01 -0.12821114642E+02  0.19339090326E+02  0.10566000000E+00 0. -1.
        -14    1    4    4    0    0  0.62544859659E+01 -0.62386099173E+00 -0.47074002531E+01  0.78528602673E+01  0.00000000000E+00 0.  1.
<mgrwt>
<rscale>  0 0.80601903E+02</rscale>
<asrwt>0</asrwt>
<pdfrwt beam="1">  1        1 0.62717597E-02 0.80601903E+02</pdfrwt>
<pdfrwt beam="2">  1       -2 0.61293508E-02 0.80601903E+02</pdfrwt>
<totfact> 0.12470658E+05</totfact>
</mgrwt>
</event>
<event>
 8    1  0.8577104E-018  0.8094651E+02  0.7818608E-02  0.1326387E+00
          1   -1    0    0  501    0  0.00000000000E+00  0.00000000000E+00  0.23641747667E+02  0.23641748204E+02  0.50400000000E-02 0. -1.
         -2   -1    0    0    0  501 -0.00000000000E+00 -0.00000000000E+00 -0.69287777776E+02  0.69287777823E+02  0.25500000000E-02 0.  1.
        -24    2    1    2    0    0  0.35527136788E-14  0.00000000000E+00 -0.45646030109E+02  0.92929526027E+02  0.80946505440E+02 0.  0.
         66    2    3    3    0    0  0.23037712129E+02  0.32061249464E+02 -0.12735539178E+02  0.41531359964E+02  0.20000012434E+01 0.  0.
         13    1    3    3    0    0 -0.23037712129E+02 -0.32061249464E+02 -0.32910490932E+02  0.51398166064E+02  0.10566000000E+00 0. -1.
         13    1    4    4    0    0  0.12029331396E+02  0.15416169124E+02 -0.66355112118E+01  0.20649558285E+02  0.10566000000E+00 0.  1.
        -13    1    4    4    0    0  0.20764315661E+00  0.30400022708E+00 -0.11230234987E+00  0.39913365172E+00  0.10566000000E+00 0.  1.
        -14    1    4    4    0    0  0.10800737576E+02  0.16341080113E+02 -0.59877256160E+01  0.20482668027E+02  0.00000000000E+00 0.  1.
<mgrwt>
<rscale>  0 0.80946505E+02</rscale>
<asrwt>0</asrwt>
<pdfrwt beam="1">  1        1 0.36371920E-02 0.80946505E+02</pdfrwt>
<pdfrwt beam="2">  1       -2 0.10659658E-01 0.80946505E+02</pdfrwt>
<totfact> 0.11175811E+05</totfact>
</mgrwt>
</event>
<event>
 8    1  0.8577104E-018  0.8245821E+02  0.7818608E-02  0.1322217E+00
          1   -1    0    0  501    0  0.00000000000E+00  0.00000000000E+00  0.15400251650E+02  0.15400252474E+02  0.50400000000E-02 0. -1.
         -2   -1    0    0    0  501 -0.00000000000E+00 -0.00000000000E+00 -0.11037736555E+03  0.11037736558E+03  0.25500000000E-02 0.  1.
        -24    2    1    2    0    0  0.00000000000E+00  0.11102230246E-15 -0.94977113898E+02  0.12577761805E+03  0.82458213892E+02 0.  0.
         66    2    3    3    0    0 -0.38411063531E+02  0.64657679679E+00 -0.70243943437E+02  0.80087698504E+02  0.19999997618E+01 0.  0.
         13    1    3    3    0    0  0.38411063531E+02 -0.64657679679E+00 -0.24733170462E+02  0.45689919547E+02  0.10566000000E+00 0. -1.
         13    1    4    4    0    0 -0.10305655242E+02 -0.45336317479E+00 -0.17854114000E+02  0.20620199293E+02  0.10566000000E+00 0. -1.
        -13    1    4    4    0    0 -0.10418433127E+02  0.52044976569E+00 -0.18725875266E+02  0.21435582224E+02  0.10566000000E+00 0.  1.
         14    1    4    4    0    0 -0.17686975162E+02  0.57949020590E+00 -0.33663954171E+02  0.38031916987E+02  0.00000000000E+00 0. -1.
<mgrwt>
<rscale>  0 0.82458214E+02</rscale>
<asrwt>0</asrwt>
<pdfrwt beam="1">  1        1 0.23692696E-02 0.82458214E+02</pdfrwt>
<pdfrwt beam="2">  1       -2 0.16981133E-01 0.82458214E+02</pdfrwt>
<totfact> 0.95744773E+04</totfact>
</mgrwt>
</event>
<event>
 8    1  0.8577104E-018  0.8172687E+02  0.7818608E-02  0.1324221E+00
          1   -1    0    0  501    0  0.00000000000E+00  0.00000000000E+00  0.25979265066E+03  0.25979265071E+03  0.50400000000E-02 0. -1.
         -2   -1    0    0    0  501 -0.00000000000E+00 -0.00000000000E+00 -0.64275109924E+01  0.64275114983E+01  0.25500000000E-02 0.  1.
        -24    2    1    2    0    0  0.00000000000E+00  0.00000000000E+00  0.25336513967E+03  0.26622016221E+03  0.81726866861E+02 0.  0.
         66    2    3    3    0    0  0.16354007909E+02  0.35670881465E+02  0.89911747169E+02  0.98122309626E+02  0.20000020442E+01 0.  0.
         13    1    3    3    0    0 -0.16354007909E+02 -0.35670881465E+02  0.16345339250E+03  0.16809785258E+03  0.10566000000E+00 0. -1.
         13    1    4    4    0    0  0.42055029812E+01  0.82706067597E+01  0.19549488178E+02  0.21639843889E+02  0.10566000000E+00 0. -1.
        -13    1    4    4    0    0  0.59349781924E+01  0.13600440244E+02  0.35540922664E+02  0.38514468564E+02  0.10566000000E+00 0.  1.
         14    1    4    4    0    0  0.62135267353E+01  0.13799834461E+02  0.34821336328E+02  0.37967997173E+02  0.00000000000E+00 0. -1.
<mgrwt>
<rscale>  0 0.81726867E+02</rscale>
<asrwt>0</asrwt>
<pdfrwt beam="1">  1        1 0.39968103E-01 0.81726867E+02</pdfrwt>
<pdfrwt beam="2">  1       -2 0.98884782E-03 0.81726867E+02</pdfrwt>
<totfact> 0.16582421E+05</totfact>
</mgrwt>
</event>
<event>
 8    1  0.8577104E-018  0.8131861E+02  0.7818608E-02  0.1325351E+00
         -2   -1    0    0    0  501 -0.00000000000E+00  0.00000000000E+00  0.21280373332E+03  0.21280373333E+03  0.25500000000E-02 0.  1.
          1   -1    0    0  501    0  0.00000000000E+00 -0.00000000000E+00 -0.77685623836E+01  0.77685640185E+01  0.50400000000E-02 0. -1.
        -24    2    1    2    0    0  0.00000000000E+00  0.17763568394E-14  0.20503517093E+03  0.22057229735E+03  0.81318614345E+02 0.  0.
         66    2    3    3    0    0  0.69144226617E+01  0.12441275989E+02  0.20581566815E+03  0.20631694997E+03  0.20000003094E+01 0.  0.
         13    1    3    3    0    0 -0.69144226617E+01 -0.12441275989E+02 -0.78049721469E+00  0.14255347380E+02  0.10566000000E+00 0. -1.
         13    1    4    4    0    0  0.88957334472E+00  0.16063263167E+01  0.27544359493E+02  0.27605697399E+02  0.10566000000E+00 0.  1.
        -13    1    4    4    0    0  0.45942710557E+01  0.84638093262E+01  0.14824465050E+03  0.14855716395E+03  0.10566000000E+00 0.  1.
        -14    1    4    4    0    0  0.14305782612E+01  0.23711403459E+01  0.30026658156E+02  0.30154088624E+02  0.00000000000E+00 0.  1.
<mgrwt>
<rscale>  0 0.81318614E+02</rscale>
<asrwt>0</asrwt>
<pdfrwt beam="1">  1        1 0.11951635E-02 0.81318614E+02</pdfrwt>
<pdfrwt beam="2">  1       -2 0.32739037E-01 0.81318614E+02</pdfrwt>
<totfact> 0.79486777E+04</totfact>
</mgrwt>
</event>
<event>
 8    1  0.8577104E-018  0.8022962E+02  0.7818608E-02  0.1328401E+00
          1   -1    0    0  501    0  0.00000000000E+00  0.00000000000E+00  0.64635186516E+02  0.64635186713E+02  0.50400000000E-02 0. -1.
         -2   -1    0    0    0  501 -0.00000000000E+00 -0.00000000000E+00 -0.24896625564E+02  0.24896625695E+02  0.25500000000E-02 0.  1.
        -24    2    1    2    0    0  0.88817841970E-15  0.35527136788E-14  0.39738560952E+02  0.89531812408E+02  0.80229621752E+02 0.  0.
         66    2    3    3    0    0 -0.61407249308E+01 -0.92463205129E+01 -0.23107484951E+02  0.25713009571E+02  0.20000136885E+01 0.  0.
         13    1    3    3    0    0  0.61407249308E+01  0.92463205129E+01  0.62846045903E+02  0.63818802836E+02  0.10566000000E+00 0. -1.
         13    1    4    4    0    0 -0.99709752871E+00 -0.10090504135E+01 -0.40066877774E+01  0.42517169708E+01  0.10566000000E+00 0.  1.
        -13    1    4    4    0    0 -0.48297836340E+00 -0.12398815089E+01 -0.19850290721E+01  0.23920866850E+01  0.10566000000E+00 0. -1.
        -14    1    4    4    0    0 -0.46606490387E+01 -0.69973885904E+01 -0.17115768102E+02  0.19069205916E+02  0.00000000000E+00 0.  1.
<mgrwt>
<rscale>  0 0.80229622E+02</rscale>
<asrwt>0</asrwt>
<pdfrwt beam="1">  1        1 0.99438745E-02 0.80229622E+02</pdfrwt>
<pdfrwt beam="2">  1       -2 0.38302503E-02 0.80229622E+02</pdfrwt>
<totfact> 0.13589900E+05</totfact>
</mgrwt>
</event>
<event>
 8    1  0.8577104E-018  0.8953400E+02  0.7818608E-02  0.1303984E+00
          1   -1    0    0  501    0  0.00000000000E+00  0.00000000000E+00  0.19006607934E+02  0.19006608603E+02  0.50400000000E-02 0. -1.
         -2   -1    0    0    0  501 -0.00000000000E+00 -0.00000000000E+00 -0.10544144983E+03  0.10544144986E+03  0.25500000000E-02 0.  1.
        -24    2    1    2    0    0 -0.44408920985E-15  0.35527136788E-14 -0.86434841892E+02  0.12444805846E+03  0.89534001148E+02 0.  0.
         66    2    3    3    0    0 -0.29508497669E+01  0.28549340495E+02 -0.90951114447E+02  0.95393278494E+02  0.20000014338E+01 0.  0.
         13    1    3    3    0    0  0.29508497669E+01 -0.28549340495E+02  0.45162725542E+01  0.29054779966E+02  0.10566000000E+00 0. -1.
         13    1    4    4    0    0 -0.13599237438E+01  0.83203108509E+01 -0.24924668610E+02  0.26312111937E+02  0.10566000000E+00 0. -1.
        -13    1    4    4    0    0 -0.72139830357E+00  0.92415344307E+01 -0.31818280638E+02  0.33141220873E+02  0.10566000000E+00 0.  1.
         14    1    4    4    0    0 -0.86952771960E+00  0.10987495214E+02 -0.34208165199E+02  0.35939945684E+02  0.00000000000E+00 0. -1.
<mgrwt>
<rscale>  0 0.89534001E+02</rscale>
<asrwt>0</asrwt>
<pdfrwt beam="1">  1        1 0.29240937E-02 0.89534001E+02</pdfrwt>
<pdfrwt beam="2">  1       -2 0.16221761E-01 0.89534001E+02</pdfrwt>
<totfact> 0.78430853E+04</totfact>
</mgrwt>
</event>
<event>
 8    1  0.8577104E-018  0.7831084E+02  0.7818608E-02  0.1333915E+00
          1   -1    0    0  501    0  0.00000000000E+00  0.00000000000E+00  0.33801313212E+02  0.33801313587E+02  0.50400000000E-02 0. -1.
         -2   -1    0    0    0  501 -0.00000000000E+00 -0.00000000000E+00 -0.45357616326E+02  0.45357616398E+02  0.25500000000E-02 0.  1.
        -24    2    1    2    0    0  0.00000000000E+00  0.00000000000E+00 -0.11556303115E+02  0.79158929985E+02  0.78310842511E+02 0.  0.
         66    2    3    3    0    0  0.31345376804E+02  0.23293055806E+02 -0.82667807642E+01  0.39967971626E+02  0.19999989895E+01 0.  0.
         13    1    3    3    0    0 -0.31345376804E+02 -0.23293055806E+02 -0.32895223505E+01  0.39190958359E+02  0.10566000000E+00 0. -1.
         13    1    4    4    0    0  0.37423164207E+01  0.30711262722E+01 -0.70290500925E+00  0.48930551050E+01  0.10566000000E+00 0. -1.
        -13    1    4    4    0    0  0.21549897996E+02  0.16021074214E+02 -0.53425334064E+01  0.27379312443E+02  0.10566000000E+00 0.  1.
        -14    1    4    4    0    0  0.60531623869E+01  0.42008553197E+01 -0.22213423486E+01  0.76956040782E+01  0.00000000000E+00 0.  1.
<mgrwt>
<rscale>  0 0.78310843E+02</rscale>
<asrwt>0</asrwt>
<pdfrwt beam="1">  1        1 0.52002021E-02 0.78310843E+02</pdfrwt>
<pdfrwt beam="2">  1       -2 0.69780949E-02 0.78310843E+02</pdfrwt>
<totfact> 0.13119896E+05</totfact>
</mgrwt>
</event>
<event>
 8    1  0.8577104E-018  0.7710923E+02  0.7818608E-02  0.1337461E+00
         -2   -1    0    0    0  501 -0.00000000000E+00  0.00000000000E+00  0.40444098680E+01  0.40444106719E+01  0.25500000000E-02 0.  1.
          1   -1    0    0  501    0  0.00000000000E+00 -0.00000000000E+00 -0.36753399670E+03  0.36753399674E+03  0.50400000000E-02 0. -1.
        -24    2    1    2    0    0  0.35527136788E-14  0.17763568394E-14 -0.36348958683E+03  0.37157840741E+03  0.77109228471E+02 0.  0.
         66    2    3    3    0    0  0.31567408068E+02  0.15703211442E+02 -0.25673155857E+03  0.25914896347E+03  0.19999998437E+01 0.  0.
         13    1    3    3    0    0 -0.31567408068E+02 -0.15703211442E+02 -0.10675802826E+03  0.11242944394E+03  0.10566000000E+00 0. -1.
         13    1    4    4    0    0  0.12718512064E+02  0.62679021212E+01 -0.10919821826E+03  0.11011498164E+03  0.10566000000E+00 0. -1.
        -13    1    4    4    0    0  0.15144739073E+01  0.65423183932E+00 -0.10325426122E+02  0.10456923025E+02  0.10566000000E+00 0.  1.
         14    1    4    4    0    0  0.17334422097E+02  0.87810774810E+01 -0.13720791419E+03  0.13857705881E+03  0.00000000000E+00 0. -1.
<mgrwt>
<rscale>  0 0.77109228E+02</rscale>
<asrwt>0</asrwt>
<pdfrwt beam="1">  1        1 0.56543666E-01 0.77109228E+02</pdfrwt>
<pdfrwt beam="2">  1       -2 0.62221726E-03 0.77109228E+02</pdfrwt>
<totfact> 0.20621865E+05</totfact>
</mgrwt>
</event>
<event>
 8    1  0.8577104E-018  0.8055912E+02  0.7818608E-02  0.1327472E+00
          1   -1    0    0  501    0  0.00000000000E+00  0.00000000000E+00  0.28407890533E+02  0.28407890980E+02  0.50400000000E-02 0. -1.
         -2   -1    0    0    0  501 -0.00000000000E+00 -0.00000000000E+00 -0.57112405410E+02  0.57112405467E+02  0.25500000000E-02 0.  1.
        -24    2    1    2    0    0  0.00000000000E+00  0.00000000000E+00 -0.28704514877E+02  0.85520296446E+02  0.80559120712E+02 0.  0.
         66    2    3    3    0    0 -0.23891297181E+02 -0.21676344513E+02 -0.39922565148E+02  0.51366031583E+02  0.20000000326E+01 0.  0.
         13    1    3    3    0    0  0.23891297181E+02  0.21676344513E+02  0.11218050271E+02  0.34154264863E+02  0.10566000000E+00 0. -1.
         13    1    4    4    0    0 -0.91421799426E+01 -0.80920793297E+01 -0.15761688538E+02  0.19937482077E+02  0.10566000000E+00 0. -1.
        -13    1    4    4    0    0 -0.11514493586E+01 -0.14928887607E+01 -0.26472251306E+01  0.32516945436E+01  0.10566000000E+00 0.  1.
        -14    1    4    4    0    0 -0.13597667880E+02 -0.12091376423E+02 -0.21513651480E+02  0.28176854962E+02  0.00000000000E+00 0.  1.
<mgrwt>
<rscale>  0 0.80559121E+02</rscale>
<asrwt>0</asrwt>
<pdfrwt beam="1">  1        1 0.43704448E-02 0.80559121E+02</pdfrwt>
<pdfrwt beam="2">  1       -2 0.87865239E-02 0.80559121E+02</pdfrwt>
<totfact> 0.11738771E+05</totfact>
</mgrwt>
</event>
<event>
 8    1  0.8577104E-018  0.7965750E+02  0.7818608E-02  0.1330026E+00
         -2   -1    0    0    0  501 -0.00000000000E+00  0.00000000000E+00  0.35435407440E+02  0.35435407532E+02  0.25500000000E-02 0.  1.
          1   -1    0    0  501    0  0.00000000000E+00 -0.00000000000E+00 -0.44766786331E+02  0.44766786615E+02  0.50400000000E-02 0. -1.
        -24    2    1    2    0    0  0.35527136788E-14  0.00000000000E+00 -0.93313788908E+01  0.80202194147E+02  0.79657500048E+02 0.  0.
         66    2    3    3    0    0 -0.21962239769E+02  0.30667996549E+02  0.81248919342E+01  0.38637803821E+02  0.20000067854E+01 0.  0.
         13    1    3    3    0    0  0.21962239769E+02 -0.30667996549E+02 -0.17456270825E+02  0.41564390326E+02  0.10566000000E+00 0. -1.
         13    1    4    4    0    0 -0.21012710425E+01  0.34933168623E+01  0.79764376440E+00  0.41552379361E+01  0.10566000000E+00 0. -1.
        -13    1    4    4    0    0 -0.10236616708E+02  0.15162592415E+02  0.43539822865E+01  0.18805872917E+02  0.10566000000E+00 0.  1.
        -14    1    4    4    0    0 -0.96243520191E+01  0.12012087271E+02  0.29732658834E+01  0.15676692968E+02  0.00000000000E+00 0.  1.
<mgrwt>
<rscale>  0 0.79657500E+02</rscale>
<asrwt>0</asrwt>
<pdfrwt beam="1">  1        1 0.68871979E-02 0.79657500E+02</pdfrwt>
<pdfrwt beam="2">  1       -2 0.54516012E-02 0.79657500E+02</pdfrwt>
<totfact> 0.13085293E+05</totfact>
</mgrwt>
</event>
<event>
 8    1  0.8577104E-018  0.7924987E+02  0.7818608E-02  0.1331194E+00
         -2   -1    0    0    0  501 -0.00000000000E+00  0.00000000000E+00  0.12296695184E+03  0.12296695187E+03  0.25500000000E-02 0.  1.
          1   -1    0    0  501    0  0.00000000000E+00 -0.00000000000E+00 -0.12768759039E+02  0.12768760033E+02  0.50400000000E-02 0. -1.
        -24    2    1    2    0    0  0.00000000000E+00 -0.71054273576E-14  0.11019819280E+03  0.13573571190E+03  0.79249869327E+02 0.  0.
         66    2    3    3    0    0 -0.16713037480E+02  0.35413010024E+02  0.65226803010E+02  0.76104814166E+02  0.20000019021E+01 0.  0.
         13    1    3    3    0    0  0.16713037480E+02 -0.35413010024E+02  0.44971389792E+02  0.59630897735E+02  0.10566000000E+00 0. -1.
         13    1    4    4    0    0 -0.54636791581E+01  0.10291989024E+02  0.18332594516E+02  0.21722615260E+02  0.10566000000E+00 0. -1.
        -13    1    4    4    0    0 -0.54261760751E+01  0.12551268551E+02  0.24056413866E+02  0.27671283692E+02  0.10566000000E+00 0.  1.
        -14    1    4    4    0    0 -0.58231822470E+01  0.12569752448E+02  0.22837794628E+02  0.26710915214E+02  0.00000000000E+00 0.  1.
<mgrwt>
<rscale>  0 0.79249869E+02</rscale>
<asrwt>0</asrwt>
<pdfrwt beam="1">  1        1 0.19644246E-02 0.79249869E+02</pdfrwt>
<pdfrwt beam="2">  1       -2 0.18917992E-01 0.79249869E+02</pdfrwt>
<totfact> 0.10290761E+05</totfact>
</mgrwt>
</event>
<event>
 8    1  0.8577104E-018  0.7875737E+02  0.7818608E-02  0.1332615E+00
          1   -1    0    0  501    0  0.00000000000E+00  0.00000000000E+00  0.32086086506E+02  0.32086086902E+02  0.50400000000E-02 0. -1.
         -2   -1    0    0    0  501 -0.00000000000E+00 -0.00000000000E+00 -0.48328764089E+02  0.48328764156E+02  0.25500000000E-02 0.  1.
        -24    2    1    2    0    0 -0.44408920985E-15 -0.35527136788E-14 -0.16242677582E+02  0.80414851058E+02  0.78757372326E+02 0.  0.
         66    2    3    3    0    0  0.25153670555E+01  0.23537934752E+02 -0.40225645294E+02  0.46716848920E+02  0.19999974901E+01 0.  0.
         13    1    3    3    0    0 -0.25153670555E+01 -0.23537934752E+02  0.23982967711E+02  0.33698002138E+02  0.10566000000E+00 0. -1.
         13    1    4    4    0    0  0.56118996190E+00  0.74853408639E+01 -0.12278994808E+02  0.14392016521E+02  0.10566000000E+00 0.  1.
        -13    1    4    4    0    0  0.57735860895E-01  0.21425176045E+00 -0.81672591800E+00  0.85290240193E+00  0.10566000000E+00 0. -1.
        -14    1    4    4    0    0  0.18964412327E+01  0.15838342127E+02 -0.27129924568E+02  0.31471929997E+02  0.00000000000E+00 0.  1.
<mgrwt>
<rscale>  0 0.78757372E+02</rscale>
<asrwt>0</asrwt>
<pdfrwt beam="1">  1        1 0.49363211E-02 0.78757372E+02</pdfrwt>
<pdfrwt beam="2">  1       -2 0.74351944E-02 0.78757372E+02</pdfrwt>
<totfact> 0.12797256E+05</totfact>
</mgrwt>
</event>
<event>
 8    1  0.8577104E-018  0.7787408E+02  0.7818608E-02  0.1335195E+00
          1   -1    0    0  501    0  0.00000000000E+00  0.00000000000E+00  0.26214873133E+02  0.26214873618E+02  0.50400000000E-02 0. -1.
         -2   -1    0    0    0  501 -0.00000000000E+00 -0.00000000000E+00 -0.57833315210E+02  0.57833315266E+02  0.25500000000E-02 0.  1.
        -24    2    1    2    0    0 -0.35527136788E-14  0.00000000000E+00 -0.31618442077E+02  0.84048188883E+02  0.77874078969E+02 0.  0.
         66    2    3    3    0    0 -0.30509217273E+02  0.22496376313E+02 -0.25301897235E+02  0.45618913732E+02  0.20000001338E+01 0.  0.
         13    1    3    3    0    0  0.30509217273E+02 -0.22496376313E+02 -0.63165448413E+01  0.38429275151E+02  0.10566000000E+00 0. -1.
         13    1    4    4    0    0 -0.18920265559E+02  0.13780858764E+02 -0.16243302603E+02  0.28491131262E+02  0.10566000000E+00 0. -1.
        -13    1    4    4    0    0 -0.10397482224E+02  0.80959562051E+01 -0.84404001476E+01  0.15649398141E+02  0.10566000000E+00 0.  1.
         14    1    4    4    0    0 -0.11914694900E+01  0.61956134444E+00 -0.61819448479E+00  0.14783843297E+01  0.00000000000E+00 0. -1.
<mgrwt>
<rscale>  0 0.77874079E+02</rscale>
<asrwt>0</asrwt>
<pdfrwt beam="1">  1        1 0.40330575E-02 0.77874079E+02</pdfrwt>
<pdfrwt beam="2">  1       -2 0.88974331E-02 0.77874079E+02</pdfrwt>
<totfact> 0.12758906E+05</totfact>
</mgrwt>
</event>
<event>
 8    1  0.8577104E-018  0.8134003E+02  0.7818608E-02  0.1325291E+00
          1   -1    0    0  501    0  0.00000000000E+00  0.00000000000E+00  0.77535388849E+02  0.77535389013E+02  0.50400000000E-02 0. -1.
         -2   -1    0    0    0  501 -0.00000000000E+00 -0.00000000000E+00 -0.21332840627E+02  0.21332840779E+02  0.25500000000E-02 0.  1.
        -24    2    1    2    0    0  0.35527136788E-14  0.00000000000E+00  0.56202548222E+02  0.98868229793E+02  0.81340029725E+02 0.  0.
         66    2    3    3    0    0 -0.18366682957E+02  0.22906240866E+02 -0.60458759152E+01  0.30043028121E+02  0.20000024114E+01 0.  0.
         13    1    3    3    0    0  0.18366682957E+02 -0.22906240866E+02  0.62248424138E+02  0.68825201671E+02  0.10566000000E+00 0. -1.
         13    1    4    4    0    0 -0.55468051275E+01  0.72262809172E+01 -0.10268873307E+01  0.91679793107E+01  0.10566000000E+00 0. -1.
        -13    1    4    4    0    0 -0.82003757978E+01  0.10325913333E+02 -0.34836692507E+01  0.13638832973E+02  0.10566000000E+00 0.  1.
        -14    1    4    4    0    0 -0.46195020315E+01  0.53540466160E+01 -0.15353193338E+01  0.72362158371E+01  0.00000000000E+00 0.  1.
<mgrwt>
<rscale>  0 0.81340030E+02</rscale>
<asrwt>0</asrwt>
<pdfrwt beam="1">  1        1 0.11928521E-01 0.81340030E+02</pdfrwt>
<pdfrwt beam="2">  1       -2 0.32819755E-02 0.81340030E+02</pdfrwt>
<totfact> 0.13473161E+05</totfact>
</mgrwt>
</event>
<event>
 8    1  0.8577104E-018  0.7876887E+02  0.7818608E-02  0.1332582E+00
         -2   -1    0    0    0  501 -0.00000000000E+00  0.00000000000E+00  0.95492908999E+01  0.95492912404E+01  0.25500000000E-02 0.  1.
          1   -1    0    0  501    0  0.00000000000E+00 -0.00000000000E+00 -0.16243444414E+03  0.16243444422E+03  0.50400000000E-02 0. -1.
        -24    2    1    2    0    0  0.00000000000E+00 -0.22204460493E-15 -0.15288515324E+03  0.17198373546E+03  0.78768871905E+02 0.  0.
         66    2    3    3    0    0  0.39300755409E+02  0.14662985607E+01 -0.79894918215E+02  0.89072427544E+02  0.19999961749E+01 0.  0.
         13    1    3    3    0    0 -0.39300755409E+02 -0.14662985607E+01 -0.72990235027E+02  0.82911307917E+02  0.10566000000E+00 0. -1.
         13    1    4    4    0    0  0.12947053989E+02  0.42903688934E+00 -0.24467343823E+02  0.27685237175E+02  0.10566000000E+00 0.  1.
        -13    1    4    4    0    0  0.80020926442E+01  0.60660245323E+00 -0.16463669451E+02  0.18315704438E+02  0.10566000000E+00 0. -1.
        -14    1    4    4    0    0  0.18351608776E+02  0.43065921816E+00 -0.38963904942E+02  0.43071485931E+02  0.00000000000E+00 0.  1.
<mgrwt>
<rscale>  0 0.78768872E+02</rscale>
<asrwt>0</asrwt>
<pdfrwt beam="1">  1        1 0.24989913E-01 0.78768872E+02</pdfrwt>
<pdfrwt beam="2">  1       -2 0.14691218E-02 0.78768872E+02</pdfrwt>
<totfact> 0.16700093E+05</totfact>
</mgrwt>
</event>
<event>
 8    1  0.8577104E-018  0.7788843E+02  0.7818608E-02  0.1335153E+00
         -2   -1    0    0    0  501 -0.00000000000E+00  0.00000000000E+00  0.58446944801E+02  0.58446944857E+02  0.25500000000E-02 0.  1.
          1   -1    0    0  501    0  0.00000000000E+00 -0.00000000000E+00 -0.25949207330E+02  0.25949207820E+02  0.50400000000E-02 0. -1.
        -24    2    1    2    0    0 -0.35527136788E-14  0.00000000000E+00  0.32497737471E+02  0.84396152677E+02  0.77888430758E+02 0.  0.
         66    2    3    3    0    0  0.19642937948E+02  0.33596324269E+02  0.16582752084E+02  0.42350273693E+02  0.19999998994E+01 0.  0.
         13    1    3    3    0    0 -0.19642937948E+02 -0.33596324269E+02  0.15914985387E+02  0.42045878983E+02  0.10566000000E+00 0. -1.
         13    1    4    4    0    0  0.13371026029E+02  0.21545747543E+02  0.11053414407E+02  0.27662116845E+02  0.10566000000E+00 0. -1.
        -13    1    4    4    0    0  0.56586774009E+01  0.10946649313E+02  0.52494803988E+01  0.13394699310E+02  0.10566000000E+00 0.  1.
         14    1    4    4    0    0  0.61323451789E+00  0.11039274134E+01  0.27985727791E+00  0.12934575385E+01  0.00000000000E+00 0. -1.
<mgrwt>
<rscale>  0 0.77888431E+02</rscale>
<asrwt>0</asrwt>
<pdfrwt beam="1">  1        1 0.39921858E-02 0.77888431E+02</pdfrwt>
<pdfrwt beam="2">  1       -2 0.89918376E-02 0.77888431E+02</pdfrwt>
<totfact> 0.12728511E+05</totfact>
</mgrwt>
</event>
<event>
 8    1  0.8577104E-018  0.7717370E+02  0.7818608E-02  0.1337269E+00
         -2   -1    0    0    0  501 -0.00000000000E+00  0.00000000000E+00  0.26919386909E+01  0.26919398987E+01  0.25500000000E-02 0.  1.
          1   -1    0    0  501    0  0.00000000000E+00 -0.00000000000E+00 -0.55311241726E+03  0.55311241729E+03  0.50400000000E-02 0. -1.
        -24    2    1    2    0    0  0.35527136788E-14  0.00000000000E+00 -0.55042047857E+03  0.55580435718E+03  0.77173701699E+02 0.  0.
         66    2    3    3    0    0 -0.16188230297E+02 -0.28164251298E+02 -0.42502558491E+03  0.42626990473E+03  0.20000004823E+01 0.  0.
         13    1    3    3    0    0  0.16188230297E+02  0.28164251298E+02 -0.12539489367E+03  0.12953445246E+03  0.10566000000E+00 0. -1.
         13    1    4    4    0    0 -0.55783917916E+00 -0.16301064916E+01 -0.26090659543E+02  0.26147698009E+02  0.10566000000E+00 0. -1.
        -13    1    4    4    0    0 -0.14668802302E+02 -0.25154824371E+02 -0.37733751089E+03  0.37845943936E+03  0.10566000000E+00 0.  1.
         14    1    4    4    0    0 -0.96158881601E+00 -0.13793204361E+01 -0.21597414468E+02  0.21662767358E+02  0.00000000000E+00 0. -1.
<mgrwt>
<rscale>  0 0.77173702E+02</rscale>
<asrwt>0</asrwt>
<pdfrwt beam="1">  1        1 0.85094128E-01 0.77173702E+02</pdfrwt>
<pdfrwt beam="2">  1       -2 0.41414495E-03 0.77173702E+02</pdfrwt>
<totfact> 0.21767802E+05</totfact>
</mgrwt>
</event>
<event>
 8    1  0.8577104E-018  0.8095463E+02  0.7818608E-02  0.1326364E+00
         -2   -1    0    0    0  501 -0.00000000000E+00  0.00000000000E+00  0.15839023259E+02  0.15839023464E+02  0.25500000000E-02 0.  1.
          1   -1    0    0  501    0  0.00000000000E+00 -0.00000000000E+00 -0.10344154556E+03  0.10344154568E+03  0.50400000000E-02 0. -1.
        -24    2    1    2    0    0  0.00000000000E+00  0.00000000000E+00 -0.87602522300E+02  0.11928056915E+03  0.80954630890E+02 0.  0.
         66    2    3    3    0    0  0.20223775220E+02  0.24276833597E+02 -0.66099436943E+01  0.32342805850E+02  0.20000002329E+01 0.  0.
         13    1    3    3    0    0 -0.20223775220E+02 -0.24276833597E+02 -0.80992578606E+02  0.86937763296E+02  0.10566000000E+00 0. -1.
         13    1    4    4    0    0  0.28399235122E+01  0.28360765959E+01 -0.12077002642E+01  0.41926363993E+01  0.10566000000E+00 0. -1.
        -13    1    4    4    0    0  0.95441098204E+01  0.11353913301E+02 -0.23829127945E+01  0.15023009583E+02  0.10566000000E+00 0.  1.
         14    1    4    4    0    0  0.78397418878E+01  0.10086843700E+02 -0.30193306356E+01  0.13127159868E+02  0.00000000000E+00 0. -1.
<mgrwt>
<rscale>  0 0.80954631E+02</rscale>
<asrwt>0</asrwt>
<pdfrwt beam="1">  1        1 0.15914084E-01 0.80954631E+02</pdfrwt>
<pdfrwt beam="2">  1       -2 0.24367729E-02 0.80954631E+02</pdfrwt>
<totfact> 0.14317026E+05</totfact>
</mgrwt>
</event>
<event>
 8    1  0.8577104E-018  0.7955984E+02  0.7818608E-02  0.1330305E+00
          1   -1    0    0  501    0  0.00000000000E+00  0.00000000000E+00  0.15091344391E+02  0.15091345232E+02  0.50400000000E-02 0. -1.
         -2   -1    0    0    0  501 -0.00000000000E+00 -0.00000000000E+00 -0.10485758015E+03  0.10485758018E+03  0.25500000000E-02 0.  1.
        -24    2    1    2    0    0  0.00000000000E+00  0.00000000000E+00 -0.89766235758E+02  0.11994892541E+03  0.79559836761E+02 0.  0.
         66    2    3    3    0    0  0.47666804653E+01  0.98997904854E+01 -0.10251316133E+03  0.10311971361E+03  0.19999985841E+01 0.  0.
         13    1    3    3    0    0 -0.47666804653E+01 -0.98997904854E+01  0.12746925573E+02  0.16829211803E+02  0.10566000000E+00 0. -1.
         13    1    4    4    0    0  0.78626192011E+00  0.17372145011E+01 -0.14641715097E+02  0.14765740992E+02  0.10566000000E+00 0.  1.
        -13    1    4    4    0    0  0.38553093924E+01  0.81015740078E+01 -0.83577163402E+02  0.84057434640E+02  0.10566000000E+00 0.  1.
        -14    1    4    4    0    0  0.12510915278E+00  0.61001976544E-01 -0.42942828323E+01  0.42965379766E+01  0.00000000000E+00 0.  1.
<mgrwt>
<rscale>  0 0.79559837E+02</rscale>
<asrwt>0</asrwt>
<pdfrwt beam="1">  1        1 0.23217454E-02 0.79559837E+02</pdfrwt>
<pdfrwt beam="2">  1       -2 0.16131935E-01 0.79559837E+02</pdfrwt>
<totfact> 0.10635850E+05</totfact>
</mgrwt>
</event>
<event>
 8    1  0.8577104E-018  0.7926984E+02  0.7818608E-02  0.1331136E+00
         -2   -1    0    0    0  501 -0.00000000000E+00  0.00000000000E+00  0.25310486186E+02  0.25310486315E+02  0.25500000000E-02 0.  1.
          1   -1    0    0  501    0  0.00000000000E+00 -0.00000000000E+00 -0.62066242014E+02  0.62066242219E+02  0.50400000000E-02 0. -1.
        -24    2    1    2    0    0  0.00000000000E+00 -0.35527136788E-14 -0.36755755828E+02  0.87376728533E+02  0.79269837282E+02 0.  0.
         66    2    3    3    0    0 -0.17738710972E+02  0.27794860086E+02  0.58028425360E+01  0.33539366294E+02  0.19999989392E+01 0.  0.
         13    1    3    3    0    0  0.17738710972E+02 -0.27794860086E+02 -0.42558598364E+02  0.53837362239E+02  0.10566000000E+00 0. -1.
         13    1    4    4    0    0 -0.17150866470E+01  0.37649087103E+01  0.51630755936E+00  0.41705871691E+01  0.10566000000E+00 0. -1.
        -13    1    4    4    0    0 -0.23385729021E+01  0.31736868369E+01  0.68599861287E+00  0.40028701565E+01  0.10566000000E+00 0.  1.
        -14    1    4    4    0    0 -0.13685051423E+02  0.20856264539E+02  0.46005363638E+01  0.25365908969E+02  0.00000000000E+00 0.  1.
<mgrwt>
<rscale>  0 0.79269837E+02</rscale>
<asrwt>0</asrwt>
<pdfrwt beam="1">  1        1 0.95486527E-02 0.79269837E+02</pdfrwt>
<pdfrwt beam="2">  1       -2 0.38939210E-02 0.79269837E+02</pdfrwt>
<totfact> 0.13958024E+05</totfact>
</mgrwt>
</event>
<event>
 8    1  0.8577104E-018  0.8081566E+02  0.7818608E-02  0.1326753E+00
          1   -1    0    0  501    0  0.00000000000E+00  0.00000000000E+00  0.54132920561E+03  0.54132920563E+03  0.50400000000E-02 0. -1.
         -2   -1    0    0    0  501 -0.00000000000E+00 -0.00000000000E+00 -0.30162651236E+01  0.30162662016E+01  0.25500000000E-02 0.  1.
        -24    2    1    2    0    0 -0.88817841970E-15  0.71054273576E-14  0.53831294048E+03  0.54434547183E+03  0.80815659449E+02 0.  0.
         66    2    3    3    0    0  0.69283916855E+01 -0.39534581224E+02  0.29929409510E+03  0.30198003425E+03  0.19999993685E+01 0.  0.
         13    1    3    3    0    0 -0.69283916855E+01  0.39534581224E+02  0.23901884538E+03  0.24236543758E+03  0.10566000000E+00 0. -1.
         13    1    4    4    0    0  0.26561599841E+01 -0.18414566568E+02  0.13741106801E+03  0.13866493509E+03  0.10566000000E+00 0.  1.
        -13    1    4    4    0    0  0.41959028944E+01 -0.19419757217E+02  0.15039565309E+03  0.15170232761E+03  0.10566000000E+00 0. -1.
         14    1    4    4    0    0  0.76328807048E-01 -0.17002574391E+01  0.11487374002E+02  0.11612771543E+02  0.00000000000E+00 0. -1.
<mgrwt>
<rscale>  0 0.80815659E+02</rscale>
<asrwt>0</asrwt>
<pdfrwt beam="1">  1        1 0.83281402E-01 0.80815659E+02</pdfrwt>
<pdfrwt beam="2">  1       -2 0.46404095E-03 0.80815659E+02</pdfrwt>
<totfact> 0.19257146E+05</totfact>
</mgrwt>
</event>
<event>
 8    1  0.8577104E-018  0.7993039E+02  0.7818608E-02  0.1329249E+00
         -2   -1    0    0    0  501 -0.00000000000E+00  0.00000000000E+00  0.37763174331E+02  0.37763174417E+02  0.25500000000E-02 0.  1.
          1   -1    0    0  501    0  0.00000000000E+00 -0.00000000000E+00 -0.42295622530E+02  0.42295622830E+02  0.50400000000E-02 0. -1.
        -24    2    1    2    0    0  0.35527136788E-14 -0.35527136788E-14 -0.45324481987E+01  0.80058797247E+02  0.79930394281E+02 0.  0.
         66    2    3    3    0    0  0.15547881693E+02 -0.23116025082E+02  0.26398693850E+02  0.38431475051E+02  0.19999992333E+01 0.  0.
         13    1    3    3    0    0 -0.15547881693E+02  0.23116025082E+02 -0.30931142048E+02  0.41627322196E+02  0.10566000000E+00 0. -1.
         13    1    4    4    0    0  0.73997789772E+00 -0.80926549428E+00  0.10966661398E+01  0.15544512174E+01  0.10566000000E+00 0. -1.
        -13    1    4    4    0    0  0.59511169269E+01 -0.79166433077E+01  0.85760770070E+01  0.13101499716E+02  0.10566000000E+00 0.  1.
        -14    1    4    4    0    0  0.88567868688E+01 -0.14390116280E+02  0.16725950703E+02  0.23775524118E+02  0.00000000000E+00 0.  1.
<mgrwt>
<rscale>  0 0.79930394E+02</rscale>
<asrwt>0</asrwt>
<pdfrwt beam="1">  1        1 0.65070189E-02 0.79930394E+02</pdfrwt>
<pdfrwt beam="2">  1       -2 0.58097191E-02 0.79930394E+02</pdfrwt>
<totfact> 0.12843774E+05</totfact>
</mgrwt>
</event>
<event>
 8    1  0.8577104E-018  0.7908521E+02  0.7818608E-02  0.1331668E+00
          1   -1    0    0  501    0  0.00000000000E+00  0.00000000000E+00  0.84274055760E+02  0.84274055911E+02  0.50400000000E-02 0. -1.
         -2   -1    0    0    0  501 -0.00000000000E+00 -0.00000000000E+00 -0.18553961945E+02  0.18553962120E+02  0.25500000000E-02 0.  1.
        -24    2    1    2    0    0 -0.11102230246E-15  0.00000000000E+00  0.65720093816E+02  0.10282801803E+03  0.79085210760E+02 0.  0.
         66    2    3    3    0    0 -0.53718417451E+00 -0.20374754931E+02 -0.11138501441E+02  0.23312773994E+02  0.20000029102E+01 0.  0.
         13    1    3    3    0    0  0.53718417451E+00  0.20374754931E+02  0.76858595257E+02  0.79515244036E+02  0.10566000000E+00 0. -1.
         13    1    4    4    0    0  0.25490431629E+00 -0.44225386164E+01 -0.28708718814E+01  0.52798573294E+01  0.10566000000E+00 0. -1.
        -13    1    4    4    0    0 -0.49966706277E-01 -0.10522914440E+02 -0.58877472259E+01  0.12058646542E+02  0.10566000000E+00 0.  1.
        -14    1    4    4    0    0 -0.74212178453E+00 -0.54293018741E+01 -0.23798823336E+01  0.59742701232E+01  0.00000000000E+00 0.  1.
<mgrwt>
<rscale>  0 0.79085211E+02</rscale>
<asrwt>0</asrwt>
<pdfrwt beam="1">  1        1 0.12965239E-01 0.79085211E+02</pdfrwt>
<pdfrwt beam="2">  1       -2 0.28544557E-02 0.79085211E+02</pdfrwt>
<totfact> 0.14742654E+05</totfact>
</mgrwt>
</event>
<event>
 8    1  0.8577104E-018  0.8828900E+02  0.7818608E-02  0.1307049E+00
          1   -1    0    0  501    0  0.00000000000E+00  0.00000000000E+00  0.46067844357E+02  0.46067844633E+02  0.50400000000E-02 0. -1.
         -2   -1    0    0    0  501 -0.00000000000E+00 -0.00000000000E+00 -0.42301456989E+02  0.42301457066E+02  0.25500000000E-02 0.  1.
        -24    2    1    2    0    0 -0.17763568394E-14  0.00000000000E+00  0.37663873676E+01  0.88369301699E+02  0.88289001631E+02 0.  0.
         66    2    3    3    0    0 -0.82839874014E+01  0.19497470174E+02 -0.36854481626E+02  0.42556181828E+02  0.20000013363E+01 0.  0.
         13    1    3    3    0    0  0.82839874014E+01 -0.19497470174E+02  0.40620868994E+02  0.45813119871E+02  0.10566000000E+00 0. -1.
         13    1    4    4    0    0 -0.18949218002E+01  0.33078040163E+01 -0.57769672828E+01  0.69221969823E+01  0.10566000000E+00 0. -1.
        -13    1    4    4    0    0 -0.46177599140E-01  0.39790144225E+00 -0.65174658865E+00  0.77226652124E+00  0.10566000000E+00 0.  1.
        -14    1    4    4    0    0 -0.63428880021E+01  0.15791764716E+02 -0.30425767755E+02  0.34861718324E+02  0.00000000000E+00 0.  1.
<mgrwt>
<rscale>  0 0.88289002E+02</rscale>
<asrwt>0</asrwt>
<pdfrwt beam="1">  1        1 0.70873607E-02 0.88289002E+02</pdfrwt>
<pdfrwt beam="2">  1       -2 0.65079165E-02 0.88289002E+02</pdfrwt>
<totfact> 0.98362683E+04</totfact>
</mgrwt>
</event>
<event>
 8    1  0.8577104E-018  0.7938945E+02  0.7818608E-02  0.1330793E+00
          1   -1    0    0  501    0  0.00000000000E+00  0.00000000000E+00  0.17054273023E+03  0.17054273030E+03  0.50400000000E-02 0. -1.
         -2   -1    0    0    0  501 -0.00000000000E+00 -0.00000000000E+00 -0.92391575260E+01  0.92391578779E+01  0.25500000000E-02 0.  1.
        -24    2    1    2    0    0 -0.17763568394E-14 -0.71054273576E-14  0.16130357270E+03  0.17978188818E+03  0.79389449874E+02 0.  0.
         66    2    3    3    0    0 -0.12756726116E+02 -0.36287489633E+02  0.58729596819E+02  0.70233051320E+02  0.19999975164E+01 0.  0.
         13    1    3    3    0    0  0.12756726116E+02  0.36287489633E+02  0.10257397588E+03  0.10954883686E+03  0.10566000000E+00 0. -1.
         13    1    4    4    0    0 -0.58729532861E+01 -0.17033904458E+02  0.28769189125E+02  0.33945881758E+02  0.10566000000E+00 0. -1.
        -13    1    4    4    0    0 -0.72395383771E+00 -0.30836710882E+01  0.46326810539E+01  0.56130236345E+01  0.10566000000E+00 0.  1.
        -14    1    4    4    0    0 -0.61598189921E+01 -0.16169914087E+02  0.25327726640E+02  0.30674145927E+02  0.00000000000E+00 0.  1.
<mgrwt>
<rscale>  0 0.79389450E+02</rscale>
<asrwt>0</asrwt>
<pdfrwt beam="1">  1        1 0.26237343E-01 0.79389450E+02</pdfrwt>
<pdfrwt beam="2">  1       -2 0.14214089E-02 0.79389450E+02</pdfrwt>
<totfact> 0.16504886E+05</totfact>
</mgrwt>
</event>
<event>
 8    1  0.8577104E-018  0.7911044E+02  0.7818608E-02  0.1331595E+00
         -2   -1    0    0    0  501 -0.00000000000E+00  0.00000000000E+00  0.84575920443E+02  0.84575920481E+02  0.25500000000E-02 0.  1.
          1   -1    0    0  501    0  0.00000000000E+00 -0.00000000000E+00 -0.18499539322E+02  0.18499540008E+02  0.50400000000E-02 0. -1.
        -24    2    1    2    0    0  0.35527136788E-14  0.71054273576E-14  0.66076381121E+02  0.10307546049E+03  0.79110444399E+02 0.  0.
         66    2    3    3    0    0  0.10120260916E+02  0.36012006078E+02  0.16407890409E+02  0.40896248558E+02  0.20000039207E+01 0.  0.
         13    1    3    3    0    0 -0.10120260916E+02 -0.36012006078E+02  0.49668490713E+02  0.62179211932E+02  0.10566000000E+00 0. -1.
         13    1    4    4    0    0  0.12172678806E+01  0.47896568329E+01  0.21101161683E+01  0.53745983989E+01  0.10566000000E+00 0. -1.
        -13    1    4    4    0    0  0.58760456729E+01  0.23383428938E+02  0.10377161226E+02  0.26248986662E+02  0.10566000000E+00 0.  1.
         14    1    4    4    0    0  0.30269473629E+01  0.78389203067E+01  0.39206130140E+01  0.92726634964E+01  0.00000000000E+00 0. -1.
<mgrwt>
<rscale>  0 0.79110444E+02</rscale>
<asrwt>0</asrwt>
<pdfrwt beam="1">  1        1 0.28460831E-02 0.79110444E+02</pdfrwt>
<pdfrwt beam="2">  1       -2 0.13011680E-01 0.79110444E+02</pdfrwt>
<totfact> 0.11359729E+05</totfact>
</mgrwt>
</event>
<event>
 8    1  0.8577104E-018  0.8013284E+02  0.7818608E-02  0.1328675E+00
         -2   -1    0    0    0  501 -0.00000000000E+00  0.00000000000E+00  0.69114847870E+02  0.69114847917E+02  0.25500000000E-02 0.  1.
          1   -1    0    0  501    0  0.00000000000E+00 -0.00000000000E+00 -0.23226816447E+02  0.23226816994E+02  0.50400000000E-02 0. -1.
        -24    2    1    2    0    0  0.35527136788E-14  0.00000000000E+00  0.45888031423E+02  0.92341664911E+02  0.80132837530E+02 0.  0.
         66    2    3    3    0    0  0.22251614902E+02 -0.17194198202E+02  0.55806277592E+02  0.62522919319E+02  0.20000009734E+01 0.  0.
         13    1    3    3    0    0 -0.22251614902E+02  0.17194198202E+02 -0.99182461691E+01  0.29818745592E+02  0.10566000000E+00 0. -1.
         13    1    4    4    0    0  0.25338856212E+01 -0.22119970014E+01  0.74189847202E+01  0.81465333357E+01  0.10566000000E+00 0. -1.
        -13    1    4    4    0    0  0.39026410766E+01 -0.35532671490E+01  0.11147322427E+02  0.12334110269E+02  0.10566000000E+00 0.  1.
        -14    1    4    4    0    0  0.15815088204E+02 -0.11428934052E+02  0.37239970445E+02  0.42042275714E+02  0.00000000000E+00 0.  1.
<mgrwt>
<rscale>  0 0.80132838E+02</rscale>
<asrwt>0</asrwt>
<pdfrwt beam="1">  1        1 0.35733565E-02 0.80132838E+02</pdfrwt>
<pdfrwt beam="2">  1       -2 0.10633053E-01 0.80132838E+02</pdfrwt>
<totfact> 0.11472010E+05</totfact>
</mgrwt>
</event>
<event>
 8    1  0.8577104E-018  0.7828386E+02  0.7818608E-02  0.1333993E+00
          1   -1    0    0  501    0  0.00000000000E+00  0.00000000000E+00  0.98751623758E+01  0.98751636619E+01  0.50400000000E-02 0. -1.
         -2   -1    0    0    0  501 -0.00000000000E+00 -0.00000000000E+00 -0.15514584967E+03  0.15514584969E+03  0.25500000000E-02 0.  1.
        -24    2    1    2    0    0  0.35527136788E-14  0.22204460493E-15 -0.14527068729E+03  0.16502101335E+03  0.78283856963E+02 0.  0.
         66    2    3    3    0    0 -0.16148145033E+02 -0.13982213304E+01 -0.14772704096E+03  0.14862703737E+03  0.19999991390E+01 0.  0.
         13    1    3    3    0    0  0.16148145033E+02  0.13982213304E+01  0.24563536699E+01  0.16393975976E+02  0.10566000000E+00 0. -1.
         13    1    4    4    0    0 -0.93082295154E+00 -0.30453128783E+00 -0.74553440632E+01  0.75201389487E+01  0.10566000000E+00 0.  1.
        -13    1    4    4    0    0 -0.52468964347E+01  0.21267230483E+00 -0.44599023879E+02  0.44907229336E+02  0.10566000000E+00 0.  1.
        -14    1    4    4    0    0 -0.99704256472E+01 -0.13063623474E+01 -0.95672673019E+02  0.96199669089E+02  0.00000000000E+00 0.  1.
<mgrwt>
<rscale>  0 0.78283857E+02</rscale>
<asrwt>0</asrwt>
<pdfrwt beam="1">  1        1 0.15192560E-02 0.78283857E+02</pdfrwt>
<pdfrwt beam="2">  1       -2 0.23868590E-01 0.78283857E+02</pdfrwt>
<totfact> 0.98818567E+04</totfact>
</mgrwt>
</event>
<event>
 8    1  0.8577104E-018  0.8048728E+02  0.7818608E-02  0.1327674E+00
          1   -1    0    0  501    0  0.00000000000E+00  0.00000000000E+00  0.17778335970E+03  0.17778335977E+03  0.50400000000E-02 0. -1.
         -2   -1    0    0    0  501 -0.00000000000E+00 -0.00000000000E+00 -0.91096864437E+01  0.91096868006E+01  0.25500000000E-02 0.  1.
        -24    2    1    2    0    0 -0.35527136788E-14  0.10658141036E-13  0.16867367326E+03  0.18689304657E+03  0.80487283513E+02 0.  0.
         66    2    3    3    0    0  0.18088416635E+02 -0.31047780037E+02  0.42438519419E+02  0.55643358230E+02  0.19999807646E+01 0.  0.
         13    1    3    3    0    0 -0.18088416635E+02  0.31047780037E+02  0.12623515384E+03  0.13124968834E+03  0.10566000000E+00 0. -1.
         13    1    4    4    0    0  0.69440129883E+01 -0.11963151962E+02  0.16398068846E+02  0.21453301545E+02  0.10566000000E+00 0. -1.
        -13    1    4    4    0    0  0.11062436031E+02 -0.18547965579E+02  0.25184001493E+02  0.33176039747E+02  0.10566000000E+00 0.  1.
         14    1    4    4    0    0  0.81967614917E-01 -0.53666249576E+00  0.85644907986E+00  0.10140169380E+01  0.00000000000E+00 0. -1.
<mgrwt>
<rscale>  0 0.80487284E+02</rscale>
<asrwt>0</asrwt>
<pdfrwt beam="1">  1        1 0.27351285E-01 0.80487284E+02</pdfrwt>
<pdfrwt beam="2">  1       -2 0.14014903E-02 0.80487284E+02</pdfrwt>
<totfact> 0.16038260E+05</totfact>
</mgrwt>
</event>
<event>
 8    1  0.8577104E-018  0.7889570E+02  0.7818608E-02  0.1332215E+00
          1   -1    0    0  501    0  0.00000000000E+00  0.00000000000E+00  0.88647250196E+02  0.88647250339E+02  0.50400000000E-02 0. -1.
         -2   -1    0    0    0  501 -0.00000000000E+00 -0.00000000000E+00 -0.17554214920E+02  0.17554215105E+02  0.25500000000E-02 0.  1.
        -24    2    1    2    0    0  0.00000000000E+00  0.00000000000E+00  0.71093035276E+02  0.10620146544E+03  0.78895700756E+02 0.  0.
         66    2    3    3    0    0  0.34966160800E+02  0.57754825164E+00  0.11073168278E+02  0.36736642969E+02  0.19999794664E+01 0.  0.
         13    1    3    3    0    0 -0.34966160800E+02 -0.57754825164E+00  0.60019866998E+02  0.69464822476E+02  0.10566000000E+00 0. -1.
         13    1    4    4    0    0  0.81137623171E+01  0.62188912070E+00  0.21228763842E+01  0.84105679472E+01  0.10566000000E+00 0. -1.
        -13    1    4    4    0    0  0.17955016872E+02  0.25131093699E+00  0.64348089806E+01  0.19075212154E+02  0.10566000000E+00 0.  1.
         14    1    4    4    0    0  0.88973816100E+01 -0.29565180605E+00  0.25154829128E+01  0.92508628673E+01  0.00000000000E+00 0. -1.
<mgrwt>
<rscale>  0 0.78895701E+02</rscale>
<asrwt>0</asrwt>
<pdfrwt beam="1">  1        1 0.13638039E-01 0.78895701E+02</pdfrwt>
<pdfrwt beam="2">  1       -2 0.27006484E-02 0.78895701E+02</pdfrwt>
<totfact> 0.14961074E+05</totfact>
</mgrwt>
</event>
<event>
 8    1  0.8577104E-018  0.8192563E+02  0.7818608E-02  0.1323674E+00
         -2   -1    0    0    0  501 -0.00000000000E+00  0.00000000000E+00  0.36742558610E+02  0.36742558699E+02  0.25500000000E-02 0.  1.
          1   -1    0    0  501    0  0.00000000000E+00 -0.00000000000E+00 -0.45667807879E+02  0.45667808158E+02  0.50400000000E-02 0. -1.
        -24    2    1    2    0    0 -0.35527136788E-14  0.00000000000E+00 -0.89252492694E+01  0.82410366856E+02  0.81925627803E+02 0.  0.
         66    2    3    3    0    0 -0.28268002308E+02 -0.28626566162E+02  0.31549594232E+01  0.40404380964E+02  0.19999968528E+01 0.  0.
         13    1    3    3    0    0  0.28268002308E+02  0.28626566162E+02 -0.12080208693E+02  0.42005985892E+02  0.10566000000E+00 0. -1.
         13    1    4    4    0    0 -0.11123553510E+02 -0.12020927833E+02  0.17281950831E+01  0.16469182461E+02  0.10566000000E+00 0. -1.
        -13    1    4    4    0    0 -0.55482371177E+01 -0.58231929507E+01  0.90664099017E-01  0.80443704086E+01  0.10566000000E+00 0.  1.
        -14    1    4    4    0    0 -0.11596211681E+02 -0.10782445378E+02  0.13361002411E+01  0.15890828094E+02  0.00000000000E+00 0.  1.
<mgrwt>
<rscale>  0 0.81925628E+02</rscale>
<asrwt>0</asrwt>
<pdfrwt beam="1">  1        1 0.70258166E-02 0.81925628E+02</pdfrwt>
<pdfrwt beam="2">  1       -2 0.56527014E-02 0.81925628E+02</pdfrwt>
<totfact> 0.12134158E+05</totfact>
</mgrwt>
</event>
<event>
 8    1  0.8577104E-018  0.7955627E+02  0.7818608E-02  0.1330315E+00
         -2   -1    0    0    0  501 -0.00000000000E+00  0.00000000000E+00  0.13310642589E+02  0.13310642833E+02  0.25500000000E-02 0.  1.
          1   -1    0    0  501    0  0.00000000000E+00 -0.00000000000E+00 -0.11887481434E+03  0.11887481444E+03  0.50400000000E-02 0. -1.
        -24    2    1    2    0    0  0.00000000000E+00  0.00000000000E+00 -0.10556417175E+03  0.13218545728E+03  0.79556274161E+02 0.  0.
         66    2    3    3    0    0  0.28243639826E+02  0.23623035607E+02 -0.27917594804E+02  0.46250871241E+02  0.19999972422E+01 0.  0.
         13    1    3    3    0    0 -0.28243639826E+02 -0.23623035607E+02 -0.77646576943E+02  0.85934586035E+02  0.10566000000E+00 0. -1.
         13    1    4    4    0    0  0.14992810081E+02  0.12414164196E+02 -0.13766476205E+02  0.23841620288E+02  0.10566000000E+00 0. -1.
        -13    1    4    4    0    0  0.31466571004E+01  0.22763814812E+01 -0.29599840855E+01  0.48842638522E+01  0.10566000000E+00 0.  1.
         14    1    4    4    0    0  0.10104172644E+02  0.89324899298E+01 -0.11191134514E+02  0.17524987101E+02  0.00000000000E+00 0. -1.
<mgrwt>
<rscale>  0 0.79556274E+02</rscale>
<asrwt>0</asrwt>
<pdfrwt beam="1">  1        1 0.18288432E-01 0.79556274E+02</pdfrwt>
<pdfrwt beam="2">  1       -2 0.20477913E-02 0.79556274E+02</pdfrwt>
<totfact> 0.15369463E+05</totfact>
</mgrwt>
</event>
<event>
 8    1  0.8577104E-018  0.8005785E+02  0.7818608E-02  0.1328887E+00
         -2   -1    0    0    0  501 -0.00000000000E+00  0.00000000000E+00  0.25406928212E+02  0.25406928339E+02  0.25500000000E-02 0.  1.
          1   -1    0    0  501    0  0.00000000000E+00 -0.00000000000E+00 -0.63066058534E+02  0.63066058735E+02  0.50400000000E-02 0. -1.
        -24    2    1    2    0    0  0.11102230246E-15  0.00000000000E+00 -0.37659130322E+02  0.88472987075E+02  0.80057849992E+02 0.  0.
         66    2    3    3    0    0  0.96132147769E+00  0.12607982915E+02  0.23100994867E+02  0.26411007174E+02  0.19999909740E+01 0.  0.
         13    1    3    3    0    0 -0.96132147769E+00 -0.12607982915E+02 -0.60760125190E+02  0.62061979901E+02  0.10566000000E+00 0. -1.
         13    1    4    4    0    0 -0.53550542432E+00  0.39226076056E+01  0.77398454919E+01  0.86942503277E+01  0.10566000000E+00 0. -1.
        -13    1    4    4    0    0  0.91938263515E+00  0.64685025559E+01  0.11534845989E+02  0.13257097185E+02  0.10566000000E+00 0.  1.
        -14    1    4    4    0    0  0.57744426685E+00  0.22168727534E+01  0.38263033860E+01  0.44596596605E+01  0.00000000000E+00 0.  1.
<mgrwt>
<rscale>  0 0.80057850E+02</rscale>
<asrwt>0</asrwt>
<pdfrwt beam="1">  1        1 0.97024706E-02 0.80057850E+02</pdfrwt>
<pdfrwt beam="2">  1       -2 0.39087582E-02 0.80057850E+02</pdfrwt>
<totfact> 0.13617503E+05</totfact>
</mgrwt>
</event>
<event>
 8    1  0.8577104E-018  0.8220861E+02  0.7818608E-02  0.1322898E+00
          1   -1    0    0  501    0  0.00000000000E+00  0.00000000000E+00  0.91480699553E+02  0.91480699692E+02  0.50400000000E-02 0. -1.
         -2   -1    0    0    0  501 -0.00000000000E+00 -0.00000000000E+00 -0.18469074424E+02  0.18469074601E+02  0.25500000000E-02 0.  1.
        -24    2    1    2    0    0 -0.35527136788E-14  0.00000000000E+00  0.73011625128E+02  0.10994977429E+03  0.82208609422E+02 0.  0.
         66    2    3    3    0    0  0.30127836669E+02 -0.20299788211E+02  0.10877939169E+02  0.37974958984E+02  0.20000013730E+01 0.  0.
         13    1    3    3    0    0 -0.30127836669E+02  0.20299788211E+02  0.62133685959E+02  0.71974815308E+02  0.10566000000E+00 0. -1.
         13    1    4    4    0    0  0.21129265601E+01 -0.16500494032E+01  0.12129364967E+01  0.29444015796E+01  0.10566000000E+00 0. -1.
        -13    1    4    4    0    0  0.22855453216E+02 -0.14788873534E+02  0.76087544112E+01  0.28266355086E+02  0.10566000000E+00 0.  1.
        -14    1    4    4    0    0  0.51594568928E+01 -0.38608652741E+01  0.20562482611E+01  0.67642023185E+01  0.00000000000E+00 0.  1.
<mgrwt>
<rscale>  0 0.82208609E+02</rscale>
<asrwt>0</asrwt>
<pdfrwt beam="1">  1        1 0.14073954E-01 0.82208609E+02</pdfrwt>
<pdfrwt beam="2">  1       -2 0.28413960E-02 0.82208609E+02</pdfrwt>
<totfact> 0.13450238E+05</totfact>
</mgrwt>
</event>
<event>
 8    1  0.8577104E-018  0.7980439E+02  0.7818608E-02  0.1329607E+00
          1   -1    0    0  501    0  0.00000000000E+00  0.00000000000E+00  0.34000327171E+02  0.34000327544E+02  0.50400000000E-02 0. -1.
         -2   -1    0    0    0  501 -0.00000000000E+00 -0.00000000000E+00 -0.46828520693E+02  0.46828520763E+02  0.25500000000E-02 0.  1.
        -24    2    1    2    0    0  0.00000000000E+00  0.00000000000E+00 -0.12828193523E+02  0.80828848307E+02  0.79804386907E+02 0.  0.
         66    2    3    3    0    0  0.99426369642E+01  0.35494561505E+02  0.89910027896E+01  0.37994184564E+02  0.20000008306E+01 0.  0.
         13    1    3    3    0    0 -0.99426369642E+01 -0.35494561505E+02 -0.21819196312E+02  0.42834663743E+02  0.10566000000E+00 0. -1.
         13    1    4    4    0    0  0.36768970187E+00  0.17428918332E+01  0.81505044214E+00  0.19617183584E+01  0.10566000000E+00 0. -1.
        -13    1    4    4    0    0  0.11261383587E+01  0.37265029700E+01  0.11351663879E+01  0.40564490324E+01  0.10566000000E+00 0.  1.
        -14    1    4    4    0    0  0.84488089036E+01  0.30025166702E+02  0.70407859596E+01  0.31976017174E+02  0.00000000000E+00 0.  1.
<mgrwt>
<rscale>  0 0.79804387E+02</rscale>
<asrwt>0</asrwt>
<pdfrwt beam="1">  1        1 0.52308196E-02 0.79804387E+02</pdfrwt>
<pdfrwt beam="2">  1       -2 0.72043878E-02 0.79804387E+02</pdfrwt>
<totfact> 0.12446332E+05</totfact>
</mgrwt>
</event>
<event>
 8    1  0.8577104E-018  0.8122807E+02  0.7818608E-02  0.1325602E+00
         -2   -1    0    0    0  501 -0.00000000000E+00  0.00000000000E+00  0.82275167591E+02  0.82275167630E+02  0.25500000000E-02 0.  1.
          1   -1    0    0  501    0  0.00000000000E+00 -0.00000000000E+00 -0.20048571774E+02  0.20048572408E+02  0.50400000000E-02 0. -1.
        -24    2    1    2    0    0  0.00000000000E+00 -0.17763568394E-14  0.62226595816E+02  0.10232374004E+03  0.81228065030E+02 0.  0.
         66    2    3    3    0    0 -0.13728585140E+02 -0.15958998852E+02  0.74848390060E+02  0.77778179375E+02  0.19999995097E+01 0.  0.
         13    1    3    3    0    0  0.13728585140E+02  0.15958998852E+02 -0.12621794244E+02  0.24545560663E+02  0.10566000000E+00 0. -1.
         13    1    4    4    0    0 -0.25937998625E+01 -0.34689483730E+01  0.17090217272E+02  0.17630884578E+02  0.10566000000E+00 0.  1.
        -13    1    4    4    0    0 -0.48756278925E+01 -0.57426330458E+01  0.28231898834E+02  0.29219870935E+02  0.10566000000E+00 0.  1.
         14    1    4    4    0    0 -0.62591573845E+01 -0.67474174327E+01  0.29526273954E+02  0.30927423863E+02  0.00000000000E+00 0. -1.
<mgrwt>
<rscale>  0 0.81228065E+02</rscale>
<asrwt>0</asrwt>
<pdfrwt beam="1">  1        1 0.30843956E-02 0.81228065E+02</pdfrwt>
<pdfrwt beam="2">  1       -2 0.12657718E-01 0.81228065E+02</pdfrwt>
<totfact> 0.10684644E+05</totfact>
</mgrwt>
</event>
<event>
 8    1  0.8577104E-018  0.8263565E+02  0.7818608E-02  0.1321734E+00
          1   -1    0    0  501    0  0.00000000000E+00  0.00000000000E+00  0.12350263593E+03  0.12350263603E+03  0.50400000000E-02 0. -1.
         -2   -1    0    0    0  501 -0.00000000000E+00 -0.00000000000E+00 -0.13822885749E+02  0.13822885985E+02  0.25500000000E-02 0.  1.
        -24    2    1    2    0    0  0.00000000000E+00  0.00000000000E+00  0.10967975018E+03  0.13732552202E+03  0.82635654518E+02 0.  0.
         66    2    3    3    0    0 -0.40715971464E+02 -0.59256235401E+01  0.49054477373E+02  0.64056577616E+02  0.20000097339E+01 0.  0.
         13    1    3    3    0    0  0.40715971464E+02  0.59256235401E+01  0.60625272806E+02  0.73268944399E+02  0.10566000000E+00 0. -1.
         13    1    4    4    0    0 -0.24080949924E+01 -0.21415979433E+00  0.30293968228E+01  0.38772664411E+01  0.10566000000E+00 0.  1.
        -13    1    4    4    0    0 -0.16445174733E+02 -0.15718992101E+01  0.19568056350E+02  0.25609268488E+02  0.10566000000E+00 0.  1.
         14    1    4    4    0    0 -0.21862701738E+02 -0.41395645357E+01  0.26457024200E+02  0.34570042687E+02  0.00000000000E+00 0. -1.
<mgrwt>
<rscale>  0 0.82635655E+02</rscale>
<asrwt>0</asrwt>
<pdfrwt beam="1">  1        1 0.19000406E-01 0.82635655E+02</pdfrwt>
<pdfrwt beam="2">  1       -2 0.21265978E-02 0.82635655E+02</pdfrwt>
<totfact> 0.13970028E+05</totfact>
</mgrwt>
</event>
<event>
 8    1  0.8577104E-018  0.8011705E+02  0.7818608E-02  0.1328720E+00
         -2   -1    0    0    0  501 -0.00000000000E+00  0.00000000000E+00  0.28943768394E+01  0.28943779627E+01  0.25500000000E-02 0.  1.
          1   -1    0    0  501    0  0.00000000000E+00 -0.00000000000E+00 -0.55441466035E+03  0.55441466037E+03  0.50400000000E-02 0. -1.
        -24    2    1    2    0    0 -0.35527136788E-14  0.00000000000E+00 -0.55152028351E+03  0.55730903833E+03  0.80117046169E+02 0.  0.
         66    2    3    3    0    0  0.30454612703E+02 -0.25299043608E+02 -0.31717604217E+03  0.31964381232E+03  0.19999967547E+01 0.  0.
         13    1    3    3    0    0 -0.30454612703E+02  0.25299043608E+02 -0.23434424134E+03  0.23766522601E+03  0.10566000000E+00 0. -1.
         13    1    4    4    0    0  0.22897881810E+01 -0.19304024245E+01 -0.22187349058E+02  0.22388818765E+02  0.10566000000E+00 0. -1.
        -13    1    4    4    0    0  0.24142052810E+02 -0.19817989264E+02 -0.24688632872E+03  0.24885429851E+03  0.10566000000E+00 0.  1.
        -14    1    4    4    0    0  0.40227717114E+01 -0.35506519197E+01 -0.48102364391E+02  0.48400695050E+02  0.00000000000E+00 0.  1.
<mgrwt>
<rscale>  0 0.80117046E+02</rscale>
<asrwt>0</asrwt>
<pdfrwt beam="1">  1        1 0.85294479E-01 0.80117046E+02</pdfrwt>
<pdfrwt beam="2">  1       -2 0.44528927E-03 0.80117046E+02</pdfrwt>
<totfact> 0.19743418E+05</totfact>
</mgrwt>
</event>
<event>
 8    1  0.8577104E-018  0.7723927E+02  0.7818608E-02  0.1337074E+00
          1   -1    0    0  501    0  0.00000000000E+00  0.00000000000E+00  0.55735956087E+02  0.55735956315E+02  0.50400000000E-02 0. -1.
         -2   -1    0    0    0  501 -0.00000000000E+00 -0.00000000000E+00 -0.26759676856E+02  0.26759676977E+02  0.25500000000E-02 0.  1.
        -24    2    1    2    0    0  0.00000000000E+00  0.35527136788E-14  0.28976279231E+02  0.82495633292E+02  0.77239269508E+02 0.  0.
         66    2    3    3    0    0  0.18126567608E+02 -0.23708686150E+02 -0.11637782169E+02  0.32095361471E+02  0.20000004764E+01 0.  0.
         13    1    3    3    0    0 -0.18126567608E+02  0.23708686150E+02  0.40614061400E+02  0.50400271822E+02  0.10566000000E+00 0. -1.
         13    1    4    4    0    0  0.21375269543E+01 -0.33441763828E+01 -0.14375887423E+01  0.42226014005E+01  0.10566000000E+00 0. -1.
        -13    1    4    4    0    0  0.55320548591E+01 -0.62161944327E+01 -0.38387083175E+01  0.91646903805E+01  0.10566000000E+00 0.  1.
         14    1    4    4    0    0  0.10456985795E+02 -0.14148315335E+02 -0.63614851090E+01  0.18708069690E+02  0.00000000000E+00 0. -1.
<mgrwt>
<rscale>  0 0.77239270E+02</rscale>
<asrwt>0</asrwt>
<pdfrwt beam="1">  1        1 0.85747625E-02 0.77239270E+02</pdfrwt>
<pdfrwt beam="2">  1       -2 0.41168734E-02 0.77239270E+02</pdfrwt>
<totfact> 0.14744430E+05</totfact>
</mgrwt>
</event>
<event>
 8    1  0.8577104E-018  0.8071458E+02  0.7818608E-02  0.1327036E+00
          1   -1    0    0  501    0  0.00000000000E+00  0.00000000000E+00  0.18918422838E+01  0.18918489973E+01  0.50400000000E-02 0. -1.
         -2   -1    0    0    0  501 -0.00000000000E+00 -0.00000000000E+00 -0.86091105653E+03  0.86091105653E+03  0.25500000000E-02 0.  1.
        -24    2    1    2    0    0 -0.71054273576E-14  0.00000000000E+00 -0.85901921424E+03  0.86280290553E+03  0.80714579530E+02 0.  0.
         66    2    3    3    0    0  0.32777789736E+02  0.96200860915E+01 -0.65898223616E+03  0.65987007594E+03  0.20000004622E+01 0.  0.
         13    1    3    3    0    0 -0.32777789736E+02 -0.96200860915E+01 -0.20003697809E+03  0.20293282958E+03  0.10566000000E+00 0. -1.
         13    1    4    4    0    0  0.22823427110E+01  0.35987974369E+00 -0.42023652828E+02  0.42087256536E+02  0.10566000000E+00 0.  1.
        -13    1    4    4    0    0  0.27669781489E+01  0.12119212280E+01 -0.54987270401E+02  0.55070282288E+02  0.10566000000E+00 0.  1.
        -14    1    4    4    0    0  0.27728468876E+02  0.80482851198E+01 -0.56197131293E+03  0.56271253712E+03  0.00000000000E+00 0.  1.
<mgrwt>
<rscale>  0 0.80714580E+02</rscale>
<asrwt>0</asrwt>
<pdfrwt beam="1">  1        1 0.29105386E-03 0.80714580E+02</pdfrwt>
<pdfrwt beam="2">  1       -2 0.13244754E+00 0.80714580E+02</pdfrwt>
<totfact> 0.30095595E+04</totfact>
</mgrwt>
</event>
<event>
 8    1  0.8577104E-018  0.8330784E+02  0.7818608E-02  0.1319918E+00
          1   -1    0    0  501    0  0.00000000000E+00  0.00000000000E+00  0.13237675764E+03  0.13237675774E+03  0.50400000000E-02 0. -1.
         -2   -1    0    0    0  501 -0.00000000000E+00 -0.00000000000E+00 -0.13106902284E+02  0.13106902532E+02  0.25500000000E-02 0.  1.
        -24    2    1    2    0    0  0.35527136788E-14  0.00000000000E+00  0.11926985536E+03  0.14548366027E+03  0.83307844818E+02 0.  0.
         66    2    3    3    0    0  0.21526754751E+02 -0.23161493113E+02  0.12382820556E+02  0.34017498112E+02  0.19999998883E+01 0.  0.
         13    1    3    3    0    0 -0.21526754751E+02  0.23161493113E+02  0.10688703480E+03  0.11146616216E+03  0.10566000000E+00 0. -1.
         13    1    4    4    0    0  0.88366304252E+01 -0.99847376897E+01  0.58814620166E+01  0.14573392999E+02  0.10566000000E+00 0. -1.
        -13    1    4    4    0    0  0.12304690012E+02 -0.12562310955E+02  0.63919829048E+01  0.18710576216E+02  0.10566000000E+00 0.  1.
        -14    1    4    4    0    0  0.38543431351E+00 -0.61444446857E+00  0.10937563484E+00  0.73352889819E+00  0.00000000000E+00 0.  1.
<mgrwt>
<rscale>  0 0.83307845E+02</rscale>
<asrwt>0</asrwt>
<pdfrwt beam="1">  1        1 0.20365655E-01 0.83307845E+02</pdfrwt>
<pdfrwt beam="2">  1       -2 0.20164466E-02 0.83307845E+02</pdfrwt>
<totfact> 0.13841129E+05</totfact>
</mgrwt>
</event>
<event>
 8    1  0.8577104E-018  0.8011257E+02  0.7818608E-02  0.1328732E+00
         -2   -1    0    0    0  501 -0.00000000000E+00  0.00000000000E+00  0.40802835396E+02  0.40802835476E+02  0.25500000000E-02 0.  1.
          1   -1    0    0  501    0  0.00000000000E+00 -0.00000000000E+00 -0.39323391369E+02  0.39323391692E+02  0.50400000000E-02 0. -1.
        -24    2    1    2    0    0  0.71054273576E-14 -0.88817841970E-15  0.14794440276E+01  0.80126227168E+02  0.80112567837E+02 0.  0.
         66    2    3    3    0    0  0.28476098561E+02 -0.48870076526E+01  0.28452845004E+02  0.40599697376E+02  0.20000012956E+01 0.  0.
         13    1    3    3    0    0 -0.28476098561E+02  0.48870076526E+01 -0.26973400976E+02  0.39526529791E+02  0.10566000000E+00 0. -1.
         13    1    4    4    0    0  0.11876312472E+02 -0.20963578625E+01  0.12873321698E+02  0.17640155605E+02  0.10566000000E+00 0.  1.
        -13    1    4    4    0    0  0.96376074934E+01 -0.16608458279E+01  0.83578417319E+01  0.12864935659E+02  0.10566000000E+00 0. -1.
         14    1    4    4    0    0  0.69621785959E+01 -0.11298039621E+01  0.72216815745E+01  0.10094606112E+02  0.00000000000E+00 0. -1.
<mgrwt>
<rscale>  0 0.80112568E+02</rscale>
<asrwt>0</asrwt>
<pdfrwt beam="1">  1        1 0.60497525E-02 0.80112568E+02</pdfrwt>
<pdfrwt beam="2">  1       -2 0.62773593E-02 0.80112568E+02</pdfrwt>
<totfact> 0.12612208E+05</totfact>
</mgrwt>
</event>
<event>
 8    1  0.8577104E-018  0.7676453E+02  0.7818608E-02  0.1338492E+00
          1   -1    0    0  501    0  0.00000000000E+00  0.00000000000E+00  0.13807580035E+03  0.13807580044E+03  0.50400000000E-02 0. -1.
         -2   -1    0    0    0  501 -0.00000000000E+00 -0.00000000000E+00 -0.10669490153E+02  0.10669490458E+02  0.25500000000E-02 0.  1.
        -24    2    1    2    0    0  0.00000000000E+00  0.00000000000E+00  0.12740631020E+03  0.14874529090E+03  0.76764534045E+02 0.  0.
         66    2    3    3    0    0 -0.33873640352E+02 -0.27020258261E+01  0.29275723438E+02  0.44897577031E+02  0.19999965538E+01 0.  0.
         13    1    3    3    0    0  0.33873640352E+02  0.27020258261E+01  0.98130586760E+02  0.10384771387E+03  0.10566000000E+00 0. -1.
         13    1    4    4    0    0 -0.11990283094E+02 -0.14547779249E+01  0.10730192468E+02  0.16156468114E+02  0.10566000000E+00 0.  1.
        -13    1    4    4    0    0 -0.16417367446E+02 -0.76806670375E+00  0.13191356348E+02  0.21074698732E+02  0.10566000000E+00 0. -1.
        -14    1    4    4    0    0 -0.54659898123E+01 -0.47918119742E+00  0.53541746216E+01  0.76664101851E+01  0.00000000000E+00 0.  1.
<mgrwt>
<rscale>  0 0.76764534E+02</rscale>
<asrwt>0</asrwt>
<pdfrwt beam="1">  1        1 0.21242430E-01 0.76764534E+02</pdfrwt>
<pdfrwt beam="2">  1       -2 0.16414601E-02 0.76764534E+02</pdfrwt>
<totfact> 0.17363853E+05</totfact>
</mgrwt>
</event>
<event>
 8    1  0.8577104E-018  0.8035651E+02  0.7818608E-02  0.1328043E+00
         -2   -1    0    0    0  501 -0.00000000000E+00  0.00000000000E+00  0.15788479164E+03  0.15788479166E+03  0.25500000000E-02 0.  1.
          1   -1    0    0  501    0  0.00000000000E+00 -0.00000000000E+00 -0.10224494696E+02  0.10224495938E+02  0.50400000000E-02 0. -1.
        -24    2    1    2    0    0  0.44408920985E-15  0.00000000000E+00  0.14766029694E+03  0.16810928759E+03  0.80356513632E+02 0.  0.
         66    2    3    3    0    0 -0.27424118357E+01  0.33074827193E+02  0.12115881467E+03  0.12563806506E+03  0.20000012740E+01 0.  0.
         13    1    3    3    0    0  0.27424118357E+01 -0.33074827193E+02  0.26501482274E+02  0.42471222531E+02  0.10566000000E+00 0. -1.
         13    1    4    4    0    0 -0.18041208119E+01  0.14642038057E+02  0.56221568346E+02  0.58125037993E+02  0.10566000000E+00 0. -1.
        -13    1    4    4    0    0 -0.10617404268E+00  0.30807643244E+01  0.11772057602E+02  0.12169424225E+02  0.10566000000E+00 0.  1.
        -14    1    4    4    0    0 -0.83211698113E+00  0.15352024812E+02  0.53165188718E+02  0.55343602845E+02  0.00000000000E+00 0.  1.
<mgrwt>
<rscale>  0 0.80356514E+02</rscale>
<asrwt>0</asrwt>
<pdfrwt beam="1">  1        1 0.15729994E-02 0.80356514E+02</pdfrwt>
<pdfrwt beam="2">  1       -2 0.24289966E-01 0.80356514E+02</pdfrwt>
<totfact> 0.91845932E+04</totfact>
</mgrwt>
</event>
<event>
 8    1  0.8577104E-018  0.7971641E+02  0.7818608E-02  0.1329858E+00
         -2   -1    0    0    0  501 -0.00000000000E+00  0.00000000000E+00  0.30726143607E+02  0.30726143712E+02  0.25500000000E-02 0.  1.
          1   -1    0    0  501    0  0.00000000000E+00 -0.00000000000E+00 -0.51704384349E+02  0.51704384594E+02  0.50400000000E-02 0. -1.
        -24    2    1    2    0    0  0.00000000000E+00  0.00000000000E+00 -0.20978240742E+02  0.82430528307E+02  0.79716406168E+02 0.  0.
         66    2    3    3    0    0  0.22991457396E+02 -0.82727734810E+01  0.22033677569E+02  0.32962536887E+02  0.19999991454E+01 0.  0.
         13    1    3    3    0    0 -0.22991457396E+02  0.82727734810E+01 -0.43011918311E+02  0.49467991419E+02  0.10566000000E+00 0. -1.
         13    1    4    4    0    0  0.40071680239E+01 -0.18201308539E+01  0.31913949951E+01  0.54375029147E+01  0.10566000000E+00 0. -1.
        -13    1    4    4    0    0  0.12471554385E+02 -0.42710491347E+01  0.11907927270E+02  0.17764893059E+02  0.10566000000E+00 0.  1.
         14    1    4    4    0    0  0.65127349869E+01 -0.21815934924E+01  0.69343553037E+01  0.97601409136E+01  0.00000000000E+00 0. -1.
<mgrwt>
<rscale>  0 0.79716406E+02</rscale>
<asrwt>0</asrwt>
<pdfrwt beam="1">  1        1 0.79545207E-02 0.79716406E+02</pdfrwt>
<pdfrwt beam="2">  1       -2 0.47270990E-02 0.79716406E+02</pdfrwt>
<totfact> 0.13357608E+05</totfact>
</mgrwt>
</event>
<event>
 8    1  0.8577104E-018  0.8878976E+02  0.7818608E-02  0.1305809E+00
          1   -1    0    0  501    0  0.00000000000E+00  0.00000000000E+00  0.16623653073E+03  0.16623653081E+03  0.50400000000E-02 0. -1.
         -2   -1    0    0    0  501 -0.00000000000E+00 -0.00000000000E+00 -0.11856031450E+02  0.11856031725E+02  0.25500000000E-02 0.  1.
        -24    2    1    2    0    0  0.00000000000E+00  0.00000000000E+00  0.15438049928E+03  0.17809256253E+03  0.88789764450E+02 0.  0.
         66    2    3    3    0    0  0.39315718477E+02 -0.10853858431E+01  0.36025491612E+02  0.53373587288E+02  0.19999980618E+01 0.  0.
         13    1    3    3    0    0 -0.39315718477E+02  0.10853858431E+01  0.11835500767E+03  0.12471897525E+03  0.10566000000E+00 0. -1.
         13    1    4    4    0    0  0.70969197889E+01 -0.78529774630E+00  0.64977835342E+01  0.96548080216E+01  0.10566000000E+00 0. -1.
        -13    1    4    4    0    0  0.15835541688E+02 -0.48780299516E+00  0.13902728647E+02  0.21078409812E+02  0.10566000000E+00 0.  1.
        -14    1    4    4    0    0  0.16383257000E+02  0.18771489839E+00  0.15624979431E+02  0.22640369454E+02  0.00000000000E+00 0.  1.
<mgrwt>
<rscale>  0 0.88789764E+02</rscale>
<asrwt>0</asrwt>
<pdfrwt beam="1">  1        1 0.25574849E-01 0.88789764E+02</pdfrwt>
<pdfrwt beam="2">  1       -2 0.18240050E-02 0.88789764E+02</pdfrwt>
<totfact> 0.12168579E+05</totfact>
</mgrwt>
</event>
<event>
 8    1  0.8577104E-018  0.8088640E+02  0.7818608E-02  0.1326555E+00
         -2   -1    0    0    0  501 -0.00000000000E+00  0.00000000000E+00  0.36269313645E+02  0.36269313735E+02  0.25500000000E-02 0.  1.
          1   -1    0    0  501    0  0.00000000000E+00 -0.00000000000E+00 -0.45097413831E+02  0.45097414112E+02  0.50400000000E-02 0. -1.
        -24    2    1    2    0    0 -0.17763568394E-14  0.71054273576E-14 -0.88281001853E+01  0.81366727847E+02  0.80886395937E+02 0.  0.
         66    2    3    3    0    0 -0.12238615604E+02  0.36818692397E+02  0.69751484418E+01  0.39472173870E+02  0.19999981267E+01 0.  0.
         13    1    3    3    0    0  0.12238615604E+02 -0.36818692397E+02 -0.15803248627E+02  0.41894553977E+02  0.10566000000E+00 0. -1.
         13    1    4    4    0    0 -0.49535286294E+01  0.12674123653E+02  0.24108474051E+01  0.13820065322E+02  0.10566000000E+00 0. -1.
        -13    1    4    4    0    0 -0.24417496448E+01  0.65050607722E+01  0.13768321430E+01  0.70841222296E+01  0.10566000000E+00 0.  1.
         14    1    4    4    0    0 -0.48433373299E+01  0.17639507972E+02  0.31874688937E+01  0.18567986318E+02  0.00000000000E+00 0. -1.
<mgrwt>
<rscale>  0 0.80886396E+02</rscale>
<asrwt>0</asrwt>
<pdfrwt beam="1">  1        1 0.69380638E-02 0.80886396E+02</pdfrwt>
<pdfrwt beam="2">  1       -2 0.55798944E-02 0.80886396E+02</pdfrwt>
<totfact> 0.12551041E+05</totfact>
</mgrwt>
</event>
<event>
 8    1  0.8577104E-018  0.7960466E+02  0.7818608E-02  0.1330177E+00
          1   -1    0    0  501    0  0.00000000000E+00  0.00000000000E+00  0.20076537649E+02  0.20076538282E+02  0.50400000000E-02 0. -1.
         -2   -1    0    0    0  501 -0.00000000000E+00 -0.00000000000E+00 -0.78909302689E+02  0.78909302730E+02  0.25500000000E-02 0.  1.
        -24    2    1    2    0    0 -0.71054273576E-14  0.35527136788E-14 -0.58832765040E+02  0.98985841012E+02  0.79604663673E+02 0.  0.
         66    2    3    3    0    0  0.32622422076E+02 -0.22539707247E+02 -0.33359185850E+02  0.51856495317E+02  0.20000002808E+01 0.  0.
         13    1    3    3    0    0 -0.32622422076E+02  0.22539707247E+02 -0.25473579190E+02  0.47129345695E+02  0.10566000000E+00 0. -1.
         13    1    4    4    0    0  0.15918221908E+01 -0.14886072723E+01 -0.20186251236E+01  0.29725176069E+01  0.10566000000E+00 0. -1.
        -13    1    4    4    0    0  0.21343818437E+02 -0.14912515130E+02 -0.21236210978E+02  0.33599546332E+02  0.10566000000E+00 0.  1.
        -14    1    4    4    0    0  0.96867814473E+01 -0.61385848448E+01 -0.10104349749E+02  0.15284431378E+02  0.00000000000E+00 0.  1.
<mgrwt>
<rscale>  0 0.79604664E+02</rscale>
<asrwt>0</asrwt>
<pdfrwt beam="1">  1        1 0.30886982E-02 0.79604664E+02</pdfrwt>
<pdfrwt beam="2">  1       -2 0.12139893E-01 0.79604664E+02</pdfrwt>
<totfact> 0.11351426E+05</totfact>
</mgrwt>
</event>
<event>
 8    1  0.8577104E-018  0.8322123E+02  0.7818608E-02  0.1320151E+00
         -2   -1    0    0    0  501 -0.00000000000E+00  0.00000000000E+00  0.21044527621E+03  0.21044527623E+03  0.25500000000E-02 0.  1.
          1   -1    0    0  501    0  0.00000000000E+00 -0.00000000000E+00 -0.82275211718E+01  0.82275227155E+01  0.50400000000E-02 0. -1.
        -24    2    1    2    0    0  0.35527136788E-14  0.00000000000E+00  0.20221775504E+03  0.21867279895E+03  0.83221226524E+02 0.  0.
         66    2    3    3    0    0  0.16454139622E+02 -0.19303459512E+02  0.18776169497E+03  0.18947774634E+03  0.19999999425E+01 0.  0.
         13    1    3    3    0    0 -0.16454139622E+02  0.19303459512E+02  0.14456060073E+02  0.29195052607E+02  0.10566000000E+00 0. -1.
         13    1    4    4    0    0  0.31332066315E+01 -0.41606224037E+01  0.41898917485E+02  0.42221537313E+02  0.10566000000E+00 0. -1.
        -13    1    4    4    0    0  0.28530420492E+01 -0.38268884517E+01  0.31770578284E+02  0.32127336222E+02  0.10566000000E+00 0.  1.
        -14    1    4    4    0    0  0.10467890942E+02 -0.11315948657E+02  0.11409219920E+03  0.11512887280E+03  0.00000000000E+00 0.  1.
<mgrwt>
<rscale>  0 0.83221227E+02</rscale>
<asrwt>0</asrwt>
<pdfrwt beam="1">  1        1 0.12657726E-02 0.83221227E+02</pdfrwt>
<pdfrwt beam="2">  1       -2 0.32376196E-01 0.83221227E+02</pdfrwt>
<totfact> 0.75228000E+04</totfact>
</mgrwt>
</event>
<event>
 8    1  0.8577104E-018  0.8086205E+02  0.7818608E-02  0.1326623E+00
         -2   -1    0    0    0  501 -0.00000000000E+00  0.00000000000E+00  0.70600353863E+01  0.70600358468E+01  0.25500000000E-02 0.  1.
          1   -1    0    0  501    0  0.00000000000E+00 -0.00000000000E+00 -0.23153815077E+03  0.23153815082E+03  0.50400000000E-02 0. -1.
        -24    2    1    2    0    0  0.35527136788E-14  0.00000000000E+00 -0.22447811538E+03  0.23859818667E+03  0.80862045465E+02 0.  0.
         66    2    3    3    0    0 -0.21975340558E+02 -0.24377554142E+02 -0.42763895412E+02  0.53943780706E+02  0.19999968569E+01 0.  0.
         13    1    3    3    0    0  0.21975340558E+02  0.24377554142E+02 -0.18171421997E+03  0.18465440597E+03  0.10566000000E+00 0. -1.
         13    1    4    4    0    0 -0.12055594322E+01 -0.14350691227E+01 -0.27581676608E+01  0.33363827436E+01  0.10566000000E+00 0. -1.
        -13    1    4    4    0    0 -0.18005885088E+02 -0.19821241242E+02 -0.33625284351E+02  0.42985630319E+02  0.10566000000E+00 0.  1.
        -14    1    4    4    0    0 -0.27638960382E+01 -0.31212437774E+01 -0.63804434009E+01  0.76217676440E+01  0.00000000000E+00 0.  1.
<mgrwt>
<rscale>  0 0.80862045E+02</rscale>
<asrwt>0</asrwt>
<pdfrwt beam="1">  1        1 0.35621248E-01 0.80862045E+02</pdfrwt>
<pdfrwt beam="2">  1       -2 0.10861595E-02 0.80862045E+02</pdfrwt>
<totfact> 0.16676315E+05</totfact>
</mgrwt>
</event>
<event>
 8    1  0.8577104E-018  0.7999654E+02  0.7818608E-02  0.1329061E+00
          1   -1    0    0  501    0  0.00000000000E+00  0.00000000000E+00  0.45099352918E+02  0.45099353200E+02  0.50400000000E-02 0. -1.
         -2   -1    0    0    0  501 -0.00000000000E+00 -0.00000000000E+00 -0.35474154041E+02  0.35474154133E+02  0.25500000000E-02 0.  1.
        -24    2    1    2    0    0  0.00000000000E+00  0.00000000000E+00  0.96251988771E+01  0.80573507332E+02  0.79996535115E+02 0.  0.
         66    2    3    3    0    0 -0.16669180692E+02  0.43803040681E+01 -0.31511243907E+02  0.35972310739E+02  0.19999996656E+01 0.  0.
         13    1    3    3    0    0  0.16669180692E+02 -0.43803040681E+01  0.41136442784E+02  0.44601196594E+02  0.10566000000E+00 0. -1.
         13    1    4    4    0    0 -0.33336592391E+01  0.13183312337E+01 -0.73140859946E+01  0.81460603445E+01  0.10566000000E+00 0. -1.
        -13    1    4    4    0    0 -0.10052665752E+01 -0.67109075335E-01 -0.15746768929E+01  0.18723877451E+01  0.10566000000E+00 0.  1.
         14    1    4    4    0    0 -0.12330254877E+02  0.31290819098E+01 -0.22622481019E+02  0.25953862649E+02  0.00000000000E+00 0. -1.
<mgrwt>
<rscale>  0 0.79996535E+02</rscale>
<asrwt>0</asrwt>
<pdfrwt beam="1">  1        1 0.69383620E-02 0.79996535E+02</pdfrwt>
<pdfrwt beam="2">  1       -2 0.54575622E-02 0.79996535E+02</pdfrwt>
<totfact> 0.12945977E+05</totfact>
</mgrwt>
</event>
<event>
 8    1  0.8577104E-018  0.7932874E+02  0.7818608E-02  0.1330967E+00
          1   -1    0    0  501    0  0.00000000000E+00  0.00000000000E+00  0.93743561671E+02  0.93743561806E+02  0.50400000000E-02 0. -1.
         -2   -1    0    0    0  501 -0.00000000000E+00 -0.00000000000E+00 -0.16782616773E+02  0.16782616967E+02  0.25500000000E-02 0.  1.
        -24    2    1    2    0    0 -0.44408920985E-15  0.35527136788E-14  0.76960944897E+02  0.11052617877E+03  0.79328741039E+02 0.  0.
         66    2    3    3    0    0 -0.39228087136E+01  0.28082914477E+02  0.77096590608E+02  0.82170084587E+02  0.20000009959E+01 0.  0.
         13    1    3    3    0    0  0.39228087136E+01 -0.28082914477E+02 -0.13564571086E+00  0.28356094186E+02  0.10566000000E+00 0. -1.
         13    1    4    4    0    0 -0.18906345651E+01  0.11432784429E+02  0.33026428973E+02  0.35000560476E+02  0.10566000000E+00 0. -1.
        -13    1    4    4    0    0  0.72714581075E-01  0.15668962369E+01  0.35801838565E+01  0.39101575045E+01  0.10566000000E+00 0.  1.
        -14    1    4    4    0    0 -0.21048887296E+01  0.15083233811E+02  0.40489977778E+02  0.43259366607E+02  0.00000000000E+00 0.  1.
<mgrwt>
<rscale>  0 0.79328741E+02</rscale>
<asrwt>0</asrwt>
<pdfrwt beam="1">  1        1 0.14422087E-01 0.79328741E+02</pdfrwt>
<pdfrwt beam="2">  1       -2 0.25819410E-02 0.79328741E+02</pdfrwt>
<totfact> 0.14876794E+05</totfact>
</mgrwt>
</event>
<event>
 8    1  0.8577104E-018  0.7379700E+02  0.7818608E-02  0.1347637E+00
          1   -1    0    0  501    0  0.00000000000E+00  0.00000000000E+00  0.35882732256E+03  0.35882732259E+03  0.50400000000E-02 0. -1.
         -2   -1    0    0    0  501 -0.00000000000E+00 -0.00000000000E+00 -0.37943021765E+01  0.37943030334E+01  0.25500000000E-02 0.  1.
        -24    2    1    2    0    0  0.00000000000E+00  0.00000000000E+00  0.35503302038E+03  0.36262162563E+03  0.73797004079E+02 0.  0.
         66    2    3    3    0    0 -0.27763484415E+02  0.24203263674E+02  0.16929953843E+03  0.17327129814E+03  0.20000013705E+01 0.  0.
         13    1    3    3    0    0  0.27763484415E+02 -0.24203263674E+02  0.18573348195E+03  0.18935032749E+03  0.10566000000E+00 0. -1.
         13    1    4    4    0    0 -0.20735518136E+02  0.18319756609E+02  0.12738075377E+03  0.13035122857E+03  0.10566000000E+00 0.  1.
        -13    1    4    4    0    0 -0.66103002321E+01  0.53257726209E+01  0.37690998993E+02  0.38635249350E+02  0.10566000000E+00 0. -1.
         14    1    4    4    0    0 -0.41766604682E+00  0.55773444411E+00  0.42277856691E+01  0.42848202180E+01  0.00000000000E+00 0. -1.
<mgrwt>
<rscale>  0 0.73797004E+02</rscale>
<asrwt>0</asrwt>
<pdfrwt beam="1">  1        1 0.55204213E-01 0.73797004E+02</pdfrwt>
<pdfrwt beam="2">  1       -2 0.58373876E-03 0.73797004E+02</pdfrwt>
<totfact> 0.23032281E+05</totfact>
</mgrwt>
</event>
<event>
 8    1  0.8577104E-018  0.8403834E+02  0.7818608E-02  0.1317967E+00
          1   -1    0    0  501    0  0.00000000000E+00  0.00000000000E+00  0.14078182377E+02  0.14078183279E+02  0.50400000000E-02 0. -1.
         -2   -1    0    0    0  501 -0.00000000000E+00 -0.00000000000E+00 -0.12541467646E+03  0.12541467648E+03  0.25500000000E-02 0.  1.
        -24    2    1    2    0    0  0.00000000000E+00  0.00000000000E+00 -0.11133649408E+03  0.13949285976E+03  0.84038342503E+02 0.  0.
         66    2    3    3    0    0  0.12907776660E+02  0.23054430669E+02 -0.10988091513E+03  0.11303067267E+03  0.19999953756E+01 0.  0.
         13    1    3    3    0    0 -0.12907776660E+02 -0.23054430669E+02 -0.14555789478E+01  0.26462187095E+02  0.10566000000E+00 0. -1.
         13    1    4    4    0    0  0.70935681656E+01  0.11445946251E+02 -0.57735474621E+02  0.59285112707E+02  0.10566000000E+00 0. -1.
        -13    1    4    4    0    0  0.13904785205E+01  0.20426965267E+01 -0.10470438535E+02  0.10758591300E+02  0.10566000000E+00 0.  1.
        -14    1    4    4    0    0  0.44237299736E+01  0.95657878909E+01 -0.41675001977E+02  0.42986968661E+02  0.00000000000E+00 0.  1.
<mgrwt>
<rscale>  0 0.84038343E+02</rscale>
<asrwt>0</asrwt>
<pdfrwt beam="1">  1        1 0.21658744E-02 0.84038343E+02</pdfrwt>
<pdfrwt beam="2">  1       -2 0.19294565E-01 0.84038343E+02</pdfrwt>
<totfact> 0.88001004E+04</totfact>
</mgrwt>
</event>
<event>
 8    1  0.8577104E-018  0.7856294E+02  0.7818608E-02  0.1333180E+00
          1   -1    0    0  501    0  0.00000000000E+00  0.00000000000E+00  0.97447592201E+01  0.97447605234E+01  0.50400000000E-02 0. -1.
         -2   -1    0    0    0  501 -0.00000000000E+00 -0.00000000000E+00 -0.15834498329E+03  0.15834498331E+03  0.25500000000E-02 0.  1.
        -24    2    1    2    0    0  0.00000000000E+00 -0.71054273576E-14 -0.14860022407E+03  0.16808974383E+03  0.78562939026E+02 0.  0.
         66    2    3    3    0    0  0.20849603266E+02 -0.32184989283E+02 -0.92306304698E+02  0.99975163795E+02  0.19999993820E+01 0.  0.
         13    1    3    3    0    0 -0.20849603266E+02  0.32184989283E+02 -0.56293919371E+02  0.68114580037E+02  0.10566000000E+00 0. -1.
         13    1    4    4    0    0  0.20093009198E+01 -0.27297761214E+01 -0.83849281463E+01  0.90447306159E+01  0.10566000000E+00 0. -1.
        -13    1    4    4    0    0  0.95701768507E+01 -0.13386171465E+02 -0.39769191943E+02  0.43039257234E+02  0.10566000000E+00 0.  1.
         14    1    4    4    0    0  0.92701254952E+01 -0.16069041697E+02 -0.44152184608E+02  0.47891175945E+02  0.00000000000E+00 0. -1.
<mgrwt>
<rscale>  0 0.78562939E+02</rscale>
<asrwt>0</asrwt>
<pdfrwt beam="1">  1        1 0.14991939E-02 0.78562939E+02</pdfrwt>
<pdfrwt beam="2">  1       -2 0.24360765E-01 0.78562939E+02</pdfrwt>
<totfact> 0.97243955E+04</totfact>
</mgrwt>
</event>
<event>
 8    1  0.8577104E-018  0.8013000E+02  0.7818608E-02  0.1328683E+00
          1   -1    0    0  501    0  0.00000000000E+00  0.00000000000E+00  0.83002525232E+02  0.83002525385E+02  0.50400000000E-02 0. -1.
         -2   -1    0    0    0  501 -0.00000000000E+00 -0.00000000000E+00 -0.19339220352E+02  0.19339220520E+02  0.25500000000E-02 0.  1.
        -24    2    1    2    0    0 -0.35527136788E-14  0.00000000000E+00  0.63663304880E+02  0.10234174591E+03  0.80129997921E+02 0.  0.
         66    2    3    3    0    0 -0.20532012267E+02  0.18937765893E+02 -0.47886793972E+01  0.28410103016E+02  0.19999995719E+01 0.  0.
         13    1    3    3    0    0  0.20532012267E+02 -0.18937765893E+02  0.68451984277E+02  0.73931642889E+02  0.10566000000E+00 0. -1.
         13    1    4    4    0    0 -0.87391457610E+01  0.83750931190E+01 -0.15411593222E+01  0.12202507508E+02  0.10566000000E+00 0. -1.
        -13    1    4    4    0    0 -0.11071603513E+02  0.10000872772E+02 -0.27660490643E+01  0.15174322127E+02  0.10566000000E+00 0.  1.
         14    1    4    4    0    0 -0.72126299279E+00  0.56180000172E+00 -0.48147101071E+00  0.10332733815E+01  0.00000000000E+00 0. -1.
<mgrwt>
<rscale>  0 0.80129998E+02</rscale>
<asrwt>0</asrwt>
<pdfrwt beam="1">  1        1 0.12769619E-01 0.80129998E+02</pdfrwt>
<pdfrwt beam="2">  1       -2 0.29752647E-02 0.80129998E+02</pdfrwt>
<totfact> 0.14191197E+05</totfact>
</mgrwt>
</event>
<event>
 8    1  0.8577104E-018  0.7776775E+02  0.7818608E-02  0.1335508E+00
          1   -1    0    0  501    0  0.00000000000E+00  0.00000000000E+00  0.40768071593E+02  0.40768071905E+02  0.50400000000E-02 0. -1.
         -2   -1    0    0    0  501 -0.00000000000E+00 -0.00000000000E+00 -0.37086762844E+02  0.37086762932E+02  0.25500000000E-02 0.  1.
        -24    2    1    2    0    0  0.11102230246E-15  0.35527136788E-14  0.36813087486E+01  0.77854834837E+02  0.77767752143E+02 0.  0.
         66    2    3    3    0    0  0.45388234218E+00  0.29492349071E+02 -0.23483617464E+02  0.37755594905E+02  0.19999986413E+01 0.  0.
         13    1    3    3    0    0 -0.45388234218E+00 -0.29492349071E+02  0.27164926213E+02  0.40099239931E+02  0.10566000000E+00 0. -1.
         13    1    4    4    0    0  0.86913993107E+00  0.15029901842E+02 -0.12613513222E+02  0.19640907144E+02  0.10566000000E+00 0. -1.
        -13    1    4    4    0    0 -0.37854712135E+00  0.73030279237E+01 -0.50456137959E+01  0.88852066599E+01  0.10566000000E+00 0.  1.
         14    1    4    4    0    0 -0.36710467538E-01  0.71594193049E+01 -0.58244904458E+01  0.92294811011E+01  0.00000000000E+00 0. -1.
<mgrwt>
<rscale>  0 0.77767752E+02</rscale>
<asrwt>0</asrwt>
<pdfrwt beam="1">  1        1 0.62720111E-02 0.77767752E+02</pdfrwt>
<pdfrwt beam="2">  1       -2 0.57056558E-02 0.77767752E+02</pdfrwt>
<totfact> 0.13789579E+05</totfact>
</mgrwt>
</event>
<event>
 8    1  0.8577104E-018  0.8017747E+02  0.7818608E-02  0.1328549E+00
         -2   -1    0    0    0  501 -0.00000000000E+00  0.00000000000E+00  0.35235032607E+02  0.35235032700E+02  0.25500000000E-02 0.  1.
          1   -1    0    0  501    0  0.00000000000E+00 -0.00000000000E+00 -0.45611046530E+02  0.45611046808E+02  0.50400000000E-02 0. -1.
        -24    2    1    2    0    0  0.00000000000E+00 -0.14210854715E-13 -0.10376013922E+02  0.80846079508E+02  0.80177471317E+02 0.  0.
         66    2    3    3    0    0  0.12582632165E+01 -0.40006891097E+02 -0.34543029106E+01  0.40225200530E+02  0.19999968627E+01 0.  0.
         13    1    3    3    0    0 -0.12582632165E+01  0.40006891097E+02 -0.69217110118E+01  0.40620878978E+02  0.10566000000E+00 0. -1.
         13    1    4    4    0    0  0.42453138309E+00 -0.21468910929E+02 -0.13543482868E+01  0.21516035571E+02  0.10566000000E+00 0.  1.
        -13    1    4    4    0    0  0.50963139774E+00 -0.27683128714E+01 -0.24438754903E+00  0.28273962625E+01  0.10566000000E+00 0. -1.
        -14    1    4    4    0    0  0.32410043563E+00 -0.15769667297E+02 -0.18555670748E+01  0.15881768696E+02  0.00000000000E+00 0.  1.
<mgrwt>
<rscale>  0 0.80177471E+02</rscale>
<asrwt>0</asrwt>
<pdfrwt beam="1">  1        1 0.70170841E-02 0.80177471E+02</pdfrwt>
<pdfrwt beam="2">  1       -2 0.54207743E-02 0.80177471E+02</pdfrwt>
<totfact> 0.12887524E+05</totfact>
</mgrwt>
</event>
<event>
 8    1  0.8577104E-018  0.7459778E+02  0.7818608E-02  0.1345121E+00
          1   -1    0    0  501    0  0.00000000000E+00  0.00000000000E+00  0.13718461085E+03  0.13718461094E+03  0.50400000000E-02 0. -1.
         -2   -1    0    0    0  501 -0.00000000000E+00 -0.00000000000E+00 -0.10141131129E+02  0.10141131449E+02  0.25500000000E-02 0.  1.
        -24    2    1    2    0    0  0.00000000000E+00  0.00000000000E+00  0.12704347972E+03  0.14732574239E+03  0.74597778999E+02 0.  0.
         66    2    3    3    0    0  0.33642611743E+02 -0.13822523613E+02  0.47484607778E+02  0.59847100697E+02  0.20000005089E+01 0.  0.
         13    1    3    3    0    0 -0.33642611743E+02  0.13822523613E+02  0.79558871942E+02  0.87478641694E+02  0.10566000000E+00 0. -1.
         13    1    4    4    0    0  0.46521619668E+01 -0.13825564956E+01  0.68509556211E+01  0.83964772605E+01  0.10566000000E+00 0. -1.
        -13    1    4    4    0    0  0.14953109539E+02 -0.61252376692E+01  0.20197683357E+02  0.25866418353E+02  0.10566000000E+00 0.  1.
        -14    1    4    4    0    0  0.14037340237E+02 -0.63147294487E+01  0.20435968800E+02  0.25584205083E+02  0.00000000000E+00 0.  1.
<mgrwt>
<rscale>  0 0.74597779E+02</rscale>
<asrwt>0</asrwt>
<pdfrwt beam="1">  1        1 0.21105324E-01 0.74597779E+02</pdfrwt>
<pdfrwt beam="2">  1       -2 0.15601741E-02 0.74597779E+02</pdfrwt>
<totfact> 0.18715383E+05</totfact>
</mgrwt>
</event>
<event>
 8    1  0.8577104E-018  0.7754806E+02  0.7818608E-02  0.1336157E+00
          1   -1    0    0  501    0  0.00000000000E+00  0.00000000000E+00  0.14517737460E+02  0.14517738335E+02  0.50400000000E-02 0. -1.
         -2   -1    0    0    0  501 -0.00000000000E+00 -0.00000000000E+00 -0.10355782502E+03  0.10355782505E+03  0.25500000000E-02 0.  1.
        -24    2    1    2    0    0  0.00000000000E+00  0.00000000000E+00 -0.89040087557E+02  0.11807556338E+03  0.77548059138E+02 0.  0.
         66    2    3    3    0    0  0.18628990483E+01  0.38575318010E+02 -0.39760022990E+02  0.55465169037E+02  0.19999989258E+01 0.  0.
         13    1    3    3    0    0 -0.18628990483E+01 -0.38575318010E+02 -0.49280064567E+02  0.62610394346E+02  0.10566000000E+00 0. -1.
         13    1    4    4    0    0 -0.28012565153E-01  0.56380599105E+01 -0.49768726515E+01  0.75212319259E+01  0.10566000000E+00 0. -1.
        -13    1    4    4    0    0  0.74864338014E+00  0.92753622811E+01 -0.99500387854E+01  0.13623775109E+02  0.10566000000E+00 0.  1.
         14    1    4    4    0    0  0.11422682333E+01  0.23661895818E+02 -0.24833111553E+02  0.34320162002E+02  0.00000000000E+00 0. -1.
<mgrwt>
<rscale>  0 0.77548059E+02</rscale>
<asrwt>0</asrwt>
<pdfrwt beam="1">  1        1 0.22334982E-02 0.77548059E+02</pdfrwt>
<pdfrwt beam="2">  1       -2 0.15931973E-01 0.77548059E+02</pdfrwt>
<totfact> 0.11392446E+05</totfact>
</mgrwt>
</event>
<event>
 8    1  0.8577104E-018  0.7771894E+02  0.7818608E-02  0.1335652E+00
         -2   -1    0    0    0  501 -0.00000000000E+00  0.00000000000E+00  0.43727880057E+01  0.43727887492E+01  0.25500000000E-02 0.  1.
          1   -1    0    0  501    0  0.00000000000E+00 -0.00000000000E+00 -0.34533081042E+03  0.34533081046E+03  0.50400000000E-02 0. -1.
        -24    2    1    2    0    0  0.71054273576E-14  0.00000000000E+00 -0.34095802242E+03  0.34970359921E+03  0.77718943952E+02 0.  0.
         66    2    3    3    0    0 -0.33612565716E+02  0.19413843957E+02 -0.17582299154E+03  0.18006783795E+03  0.19999996196E+01 0.  0.
         13    1    3    3    0    0  0.33612565716E+02 -0.19413843957E+02 -0.16513503087E+03  0.16963576126E+03  0.10566000000E+00 0. -1.
         13    1    4    4    0    0 -0.19245958725E+02  0.10991575256E+02 -0.10199819231E+03  0.10437846546E+03  0.10566000000E+00 0.  1.
        -13    1    4    4    0    0 -0.36541670720E+01  0.24459569201E+01 -0.21599154171E+02  0.22042465089E+02  0.10566000000E+00 0. -1.
         14    1    4    4    0    0 -0.10712439919E+02  0.59763117813E+01 -0.52225645065E+02  0.53646907404E+02  0.00000000000E+00 0. -1.
<mgrwt>
<rscale>  0 0.77718944E+02</rscale>
<asrwt>0</asrwt>
<pdfrwt beam="1">  1        1 0.53127796E-01 0.77718944E+02</pdfrwt>
<pdfrwt beam="2">  1       -2 0.67273694E-03 0.77718944E+02</pdfrwt>
<totfact> 0.19981052E+05</totfact>
</mgrwt>
</event>
<event>
 8    1  0.8577104E-018  0.7889895E+02  0.7818608E-02  0.1332205E+00
         -2   -1    0    0    0  501 -0.00000000000E+00  0.00000000000E+00  0.73117755864E+03  0.73117755865E+03  0.25500000000E-02 0.  1.
          1   -1    0    0  501    0  0.00000000000E+00 -0.00000000000E+00 -0.21284279924E+01  0.21284339596E+01  0.50400000000E-02 0. -1.
        -24    2    1    2    0    0 -0.17763568394E-14  0.00000000000E+00  0.72904913065E+03  0.73330599261E+03  0.78898947338E+02 0.  0.
         66    2    3    3    0    0  0.12665917668E+02 -0.10009848328E+02  0.69904526838E+03  0.69923451701E+03  0.20000012612E+01 0.  0.
         13    1    3    3    0    0 -0.12665917668E+02  0.10009848328E+02  0.30003862273E+02  0.34071475595E+02  0.10566000000E+00 0. -1.
         13    1    4    4    0    0  0.85213029867E+01 -0.77598724478E+01  0.49023077838E+03  0.49036624624E+03  0.10566000000E+00 0. -1.
        -13    1    4    4    0    0  0.37817662229E+01 -0.21813233732E+01  0.19034843580E+03  0.19039852442E+03  0.10566000000E+00 0.  1.
         14    1    4    4    0    0  0.36284845871E+00 -0.68652507291E-01  0.18466054203E+02  0.18469746344E+02  0.00000000000E+00 0. -1.
<mgrwt>
<rscale>  0 0.78898947E+02</rscale>
<asrwt>0</asrwt>
<pdfrwt beam="1">  1        1 0.32745061E-03 0.78898947E+02</pdfrwt>
<pdfrwt beam="2">  1       -2 0.11248896E+00 0.78898947E+02</pdfrwt>
<totfact> 0.37630768E+04</totfact>
</mgrwt>
</event>
<event>
 8    1  0.8577104E-018  0.8120582E+02  0.7818608E-02  0.1325664E+00
         -2   -1    0    0    0  501 -0.00000000000E+00  0.00000000000E+00  0.46812476237E+02  0.46812476307E+02  0.25500000000E-02 0.  1.
          1   -1    0    0  501    0  0.00000000000E+00 -0.00000000000E+00 -0.35217025831E+02  0.35217026192E+02  0.50400000000E-02 0. -1.
        -24    2    1    2    0    0  0.44408920985E-15  0.00000000000E+00  0.11595450406E+02  0.82029502499E+02  0.81205817588E+02 0.  0.
         66    2    3    3    0    0  0.30279661805E+01  0.39325492735E+02  0.15433585030E+02  0.42401161637E+02  0.20000008122E+01 0.  0.
         13    1    3    3    0    0 -0.30279661805E+01 -0.39325492735E+02 -0.38381346240E+01  0.39628340862E+02  0.10566000000E+00 0. -1.
         13    1    4    4    0    0  0.23132570953E+01  0.22239519980E+02  0.80396175842E+01  0.23761187308E+02  0.10566000000E+00 0. -1.
        -13    1    4    4    0    0  0.25634676939E+00  0.22996913769E+01  0.10710923117E+01  0.25519986032E+01  0.10566000000E+00 0.  1.
        -14    1    4    4    0    0  0.45836231583E+00  0.14786281378E+02  0.63228751344E+01  0.16087975726E+02  0.00000000000E+00 0.  1.
<mgrwt>
<rscale>  0 0.81205818E+02</rscale>
<asrwt>0</asrwt>
<pdfrwt beam="1">  1        1 0.54180040E-02 0.81205818E+02</pdfrwt>
<pdfrwt beam="2">  1       -2 0.72019194E-02 0.81205818E+02</pdfrwt>
<totfact> 0.11915244E+05</totfact>
</mgrwt>
</event>
<event>
 8    1  0.8577104E-018  0.7955908E+02  0.7818608E-02  0.1330307E+00
          1   -1    0    0  501    0  0.00000000000E+00  0.00000000000E+00  0.67946844398E+02  0.67946844585E+02  0.50400000000E-02 0. -1.
         -2   -1    0    0    0  501 -0.00000000000E+00 -0.00000000000E+00 -0.23288965296E+02  0.23288965435E+02  0.25500000000E-02 0.  1.
        -24    2    1    2    0    0  0.00000000000E+00 -0.35527136788E-14  0.44657879102E+02  0.91235810020E+02  0.79559077824E+02 0.  0.
         66    2    3    3    0    0 -0.29680260953E+02 -0.21123583031E+02  0.40923453093E+01  0.36713361926E+02  0.20000008605E+01 0.  0.
         13    1    3    3    0    0  0.29680260953E+02  0.21123583031E+02  0.40565533793E+02  0.54522448094E+02  0.10566000000E+00 0. -1.
         13    1    4    4    0    0 -0.97100094991E+01 -0.63634986211E+01  0.61079867156E+00  0.11625946767E+02  0.10566000000E+00 0. -1.
        -13    1    4    4    0    0 -0.78565421060E+01 -0.54592475024E+01  0.15754244651E+01  0.96964820134E+01  0.10566000000E+00 0.  1.
         14    1    4    4    0    0 -0.12113709348E+02 -0.93008369077E+01  0.19061221727E+01  0.15390933145E+02  0.00000000000E+00 0. -1.
<mgrwt>
<rscale>  0 0.79559078E+02</rscale>
<asrwt>0</asrwt>
<pdfrwt beam="1">  1        1 0.10453361E-01 0.79559078E+02</pdfrwt>
<pdfrwt beam="2">  1       -2 0.35829178E-02 0.79559078E+02</pdfrwt>
<totfact> 0.14016213E+05</totfact>
</mgrwt>
</event>
<event>
 8    1  0.8577104E-018  0.8168408E+02  0.7818608E-02  0.1324339E+00
          1   -1    0    0  501    0  0.00000000000E+00  0.00000000000E+00  0.12117270606E+03  0.12117270617E+03  0.50400000000E-02 0. -1.
         -2   -1    0    0    0  501 -0.00000000000E+00 -0.00000000000E+00 -0.13766072839E+02  0.13766073075E+02  0.25500000000E-02 0.  1.
        -24    2    1    2    0    0  0.00000000000E+00  0.71054273576E-14  0.10740663322E+03  0.13493877924E+03  0.81684082188E+02 0.  0.
         66    2    3    3    0    0 -0.11177415066E+02  0.36342536540E+02  0.29213269031E+02  0.47990933164E+02  0.20000022087E+01 0.  0.
         13    1    3    3    0    0  0.11177415066E+02 -0.36342536540E+02  0.78193364192E+02  0.86947846077E+02  0.10566000000E+00 0. -1.
         13    1    4    4    0    0 -0.22645694520E+01  0.69666746809E+01  0.51426536033E+01  0.89510268143E+01  0.10566000000E+00 0. -1.
        -13    1    4    4    0    0 -0.75729158897E+01  0.24255784103E+02  0.20589104724E+02  0.32704961625E+02  0.10566000000E+00 0.  1.
        -14    1    4    4    0    0 -0.13399297241E+01  0.51200777555E+01  0.34815107036E+01  0.63349447249E+01  0.00000000000E+00 0.  1.
<mgrwt>
<rscale>  0 0.81684082E+02</rscale>
<asrwt>0</asrwt>
<pdfrwt beam="1">  1        1 0.18641955E-01 0.81684082E+02</pdfrwt>
<pdfrwt beam="2">  1       -2 0.21178573E-02 0.81684082E+02</pdfrwt>
<totfact> 0.14364133E+05</totfact>
</mgrwt>
</event>
<event>
 8    1  0.8577104E-018  0.8088124E+02  0.7818608E-02  0.1326569E+00
         -2   -1    0    0    0  501 -0.00000000000E+00  0.00000000000E+00  0.16745968248E+03  0.16745968250E+03  0.25500000000E-02 0.  1.
          1   -1    0    0  501    0  0.00000000000E+00 -0.00000000000E+00 -0.97661929442E+01  0.97661942446E+01  0.50400000000E-02 0. -1.
        -24    2    1    2    0    0  0.00000000000E+00  0.88817841970E-15  0.15769348954E+03  0.17722587674E+03  0.80881238527E+02 0.  0.
         66    2    3    3    0    0 -0.17435112300E+02  0.72629787286E+01  0.15718811638E+03  0.15833141811E+03  0.20000069537E+01 0.  0.
         13    1    3    3    0    0  0.17435112300E+02 -0.72629787286E+01  0.50537315071E+00  0.18894458632E+02  0.10566000000E+00 0. -1.
         13    1    4    4    0    0 -0.69418036738E+01  0.27432079888E+01  0.68905933100E+02  0.69309109133E+02  0.10566000000E+00 0. -1.
        -13    1    4    4    0    0 -0.24117667299E+01  0.10292826676E+01  0.17771814495E+02  0.17964537178E+02  0.10566000000E+00 0.  1.
         14    1    4    4    0    0 -0.80815418965E+01  0.34904880721E+01  0.70510368790E+02  0.71057771801E+02  0.00000000000E+00 0. -1.
<mgrwt>
<rscale>  0 0.80881239E+02</rscale>
<asrwt>0</asrwt>
<pdfrwt beam="1">  1        1 0.15024914E-02 0.80881239E+02</pdfrwt>
<pdfrwt beam="2">  1       -2 0.25763028E-01 0.80881239E+02</pdfrwt>
<totfact> 0.88485126E+04</totfact>
</mgrwt>
</event>
<event>
 8    1  0.8577104E-018  0.8010692E+02  0.7818608E-02  0.1328748E+00
          1   -1    0    0  501    0  0.00000000000E+00  0.00000000000E+00  0.18694676724E+02  0.18694677403E+02  0.50400000000E-02 0. -1.
         -2   -1    0    0    0  501 -0.00000000000E+00 -0.00000000000E+00 -0.85814790990E+02  0.85814791028E+02  0.25500000000E-02 0.  1.
        -24    2    1    2    0    0  0.00000000000E+00  0.00000000000E+00 -0.67120114266E+02  0.10450946843E+03  0.80106923875E+02 0.  0.
         66    2    3    3    0    0 -0.32992852327E+02 -0.22556629721E+02 -0.36482057460E+02  0.54150442052E+02  0.20000022143E+01 0.  0.
         13    1    3    3    0    0  0.32992852327E+02  0.22556629721E+02 -0.30638056806E+02  0.50359026379E+02  0.10566000000E+00 0. -1.
         13    1    4    4    0    0 -0.74737758890E+01 -0.47046631418E+01 -0.85927913984E+01  0.12322272898E+02  0.10566000000E+00 0. -1.
        -13    1    4    4    0    0 -0.17966876099E+02 -0.11991323179E+02 -0.19882284895E+02  0.29358421024E+02  0.10566000000E+00 0.  1.
         14    1    4    4    0    0 -0.75522003380E+01 -0.58606434004E+01 -0.80069811672E+01  0.12469748130E+02  0.00000000000E+00 0. -1.
<mgrwt>
<rscale>  0 0.80106924E+02</rscale>
<asrwt>0</asrwt>
<pdfrwt beam="1">  1        1 0.28761042E-02 0.80106924E+02</pdfrwt>
<pdfrwt beam="2">  1       -2 0.13202275E-01 0.80106924E+02</pdfrwt>
<totfact> 0.10966820E+05</totfact>
</mgrwt>
</event>
<event>
 8    1  0.8781050E-018  0.8086378E+02  0.7818608E-02  0.1326618E+00
         -2   -1    0    0    0  501 -0.00000000000E+00  0.00000000000E+00  0.26087006380E+03  0.26087006381E+03  0.25500000000E-02 0.  1.
          1   -1    0    0  501    0  0.00000000000E+00 -0.00000000000E+00 -0.62664823777E+01  0.62664844044E+01  0.50400000000E-02 0. -1.
        -24    2    1    2    0    0  0.17763568394E-14  0.00000000000E+00  0.25460358142E+03  0.26713654822E+03  0.80863784973E+02 0.  0.
         66    2    3    3    0    0 -0.14478415104E+02  0.12452072708E+02  0.24501759371E+03  0.24576879347E+03  0.19999992673E+01 0.  0.
         13    1    3    3    0    0  0.14478415104E+02 -0.12452072708E+02  0.95859877173E+01  0.21367754753E+02  0.10566000000E+00 0. -1.
         13    1    4    4    0    0 -0.58650125602E+01  0.49282598353E+01  0.97908665519E+02  0.98207963349E+02  0.10566000000E+00 0. -1.
        -13    1    4    4    0    0 -0.84400499754E+01  0.69304061981E+01  0.13919372539E+03  0.13962152172E+03  0.10566000000E+00 0.  1.
         14    1    4    4    0    0 -0.17335256820E+00  0.59340667417E+00  0.79152027936E+01  0.79393083992E+01  0.00000000000E+00 0. -1.
<mgrwt>
<rscale>  0 0.80863785E+02</rscale>
<asrwt>0</asrwt>
<pdfrwt beam="1">  1        1 0.96407423E-03 0.80863785E+02</pdfrwt>
<pdfrwt beam="2">  1       -2 0.40133862E-01 0.80863785E+02</pdfrwt>
<totfact> 0.73474441E+04</totfact>
</mgrwt>
</event>
<event>
 8    1  0.8577104E-018  0.7680636E+02  0.7818608E-02  0.1338367E+00
          1   -1    0    0  501    0  0.00000000000E+00  0.00000000000E+00  0.15766439582E+03  0.15766439590E+03  0.50400000000E-02 0. -1.
         -2   -1    0    0    0  501 -0.00000000000E+00 -0.00000000000E+00 -0.93540721067E+01  0.93540724543E+01  0.25500000000E-02 0.  1.
        -24    2    1    2    0    0  0.00000000000E+00 -0.88817841970E-15  0.14831032371E+03  0.16701846835E+03  0.76806358145E+02 0.  0.
         66    2    3    3    0    0  0.37779520134E+02 -0.50240533655E+01  0.64416007863E+02  0.74872927769E+02  0.19999974885E+01 0.  0.
         13    1    3    3    0    0 -0.37779520134E+02  0.50240533655E+01  0.83894315848E+02  0.92145540584E+02  0.10566000000E+00 0. -1.
         13    1    4    4    0    0  0.17306334336E+02 -0.18188747870E+01  0.28520053046E+02  0.33409910258E+02  0.10566000000E+00 0.  1.
        -13    1    4    4    0    0  0.48298520612E+01 -0.11750576380E+01  0.81812129698E+01  0.95734863597E+01  0.10566000000E+00 0. -1.
         14    1    4    4    0    0  0.15643333737E+02 -0.20301209405E+01  0.27714741847E+02  0.31889531151E+02  0.00000000000E+00 0. -1.
<mgrwt>
<rscale>  0 0.76806358E+02</rscale>
<asrwt>0</asrwt>
<pdfrwt beam="1">  1        1 0.24256060E-01 0.76806358E+02</pdfrwt>
<pdfrwt beam="2">  1       -2 0.14390881E-02 0.76806358E+02</pdfrwt>
<totfact> 0.17760753E+05</totfact>
</mgrwt>
</event>
<event>
 8    1  0.8577104E-018  0.7789086E+02  0.7818608E-02  0.1335146E+00
          1   -1    0    0  501    0  0.00000000000E+00  0.00000000000E+00  0.15159147151E+02  0.15159147989E+02  0.50400000000E-02 0. -1.
         -2   -1    0    0    0  501 -0.00000000000E+00 -0.00000000000E+00 -0.10005485806E+03  0.10005485809E+03  0.25500000000E-02 0.  1.
        -24    2    1    2    0    0  0.00000000000E+00 -0.44408920985E-15 -0.84895710904E+02  0.11521400608E+03  0.77890856115E+02 0.  0.
         66    2    3    3    0    0  0.17006961492E+02 -0.38767781162E+01 -0.93938960782E+02  0.95565655506E+02  0.20000029276E+01 0.  0.
         13    1    3    3    0    0 -0.17006961492E+02  0.38767781162E+01  0.90432498777E+01  0.19648350571E+02  0.10566000000E+00 0. -1.
         13    1    4    4    0    0  0.19371512522E+01 -0.18855755312E+00 -0.85656318553E+01  0.87846071080E+01  0.10566000000E+00 0. -1.
        -13    1    4    4    0    0  0.14921191691E+02 -0.37599875518E+01 -0.83999907474E+02  0.85397746384E+02  0.10566000000E+00 0.  1.
        -14    1    4    4    0    0  0.14861854888E+00  0.71766988733E-01 -0.13734214526E+01  0.13833020133E+01  0.00000000000E+00 0.  1.
<mgrwt>
<rscale>  0 0.77890856E+02</rscale>
<asrwt>0</asrwt>
<pdfrwt beam="1">  1        1 0.23321766E-02 0.77890856E+02</pdfrwt>
<pdfrwt beam="2">  1       -2 0.15393055E-01 0.77890856E+02</pdfrwt>
<totfact> 0.11361969E+05</totfact>
</mgrwt>
</event>
<event>
 8    1  0.8577104E-018  0.7957767E+02  0.7818608E-02  0.1330254E+00
         -2   -1    0    0    0  501 -0.00000000000E+00  0.00000000000E+00  0.36236958698E+01  0.36236967670E+01  0.25500000000E-02 0.  1.
          1   -1    0    0  501    0  0.00000000000E+00 -0.00000000000E+00 -0.43688853614E+03  0.43688853617E+03  0.50400000000E-02 0. -1.
        -24    2    1    2    0    0  0.00000000000E+00  0.35527136788E-14 -0.43326484028E+03  0.44051223294E+03  0.79577669934E+02 0.  0.
         66    2    3    3    0    0 -0.35584096624E+02 -0.17585584923E+02 -0.22994517940E+03  0.23335437914E+03  0.20000010465E+01 0.  0.
         13    1    3    3    0    0  0.35584096624E+02  0.17585584923E+02 -0.20331966088E+03  0.20715785380E+03  0.10566000000E+00 0. -1.
         13    1    4    4    0    0 -0.73701027847E+00 -0.34569424257E+00 -0.40190077889E+01  0.41019844347E+01  0.10566000000E+00 0. -1.
        -13    1    4    4    0    0 -0.35620639113E+01 -0.12673385830E+01 -0.21344843569E+02  0.21677360481E+02  0.10566000000E+00 0.  1.
        -14    1    4    4    0    0 -0.31285022435E+02 -0.15972552097E+02 -0.20458132804E+03  0.20757503422E+03  0.00000000000E+00 0.  1.
<mgrwt>
<rscale>  0 0.79577670E+02</rscale>
<asrwt>0</asrwt>
<pdfrwt beam="1">  1        1 0.67213580E-01 0.79577670E+02</pdfrwt>
<pdfrwt beam="2">  1       -2 0.55749209E-03 0.79577670E+02</pdfrwt>
<totfact> 0.19526365E+05</totfact>
</mgrwt>
</event>
<event>
 8    1  0.8577104E-018  0.8045958E+02  0.7818608E-02  0.1327752E+00
          1   -1    0    0  501    0  0.00000000000E+00  0.00000000000E+00  0.83439281426E+01  0.83439296647E+01  0.50400000000E-02 0. -1.
         -2   -1    0    0    0  501 -0.00000000000E+00 -0.00000000000E+00 -0.19396570337E+03  0.19396570339E+03  0.25500000000E-02 0.  1.
        -24    2    1    2    0    0  0.35527136788E-14 -0.71054273576E-14 -0.18562177523E+03  0.20230963305E+03  0.80459581076E+02 0.  0.
         66    2    3    3    0    0  0.29141274312E+02 -0.18880458599E+02 -0.14382757856E+03  0.14797316625E+03  0.19999975556E+01 0.  0.
         13    1    3    3    0    0 -0.29141274312E+02  0.18880458599E+02 -0.41794196673E+02  0.54336466807E+02  0.10566000000E+00 0. -1.
         13    1    4    4    0    0  0.23697879641E+00 -0.74303325754E-01 -0.15787410014E+01  0.16016451290E+01  0.10566000000E+00 0. -1.
        -13    1    4    4    0    0  0.12671982442E+02 -0.79390035147E+01 -0.63119737612E+02  0.64866935769E+02  0.10566000000E+00 0.  1.
         14    1    4    4    0    0  0.16232313073E+02 -0.10867151759E+02 -0.79129099943E+02  0.81504585348E+02  0.00000000000E+00 0. -1.
<mgrwt>
<rscale>  0 0.80459581E+02</rscale>
<asrwt>0</asrwt>
<pdfrwt beam="1">  1        1 0.12836815E-02 0.80459581E+02</pdfrwt>
<pdfrwt beam="2">  1       -2 0.29840874E-01 0.80459581E+02</pdfrwt>
<totfact> 0.84864919E+04</totfact>
</mgrwt>
</event>
<event>
 8    1  0.8577104E-018  0.8182646E+02  0.7818608E-02  0.1323947E+00
         -2   -1    0    0    0  501 -0.00000000000E+00  0.00000000000E+00  0.52828347316E+02  0.52828347377E+02  0.25500000000E-02 0.  1.
          1   -1    0    0  501    0  0.00000000000E+00 -0.00000000000E+00 -0.31685499025E+02  0.31685499426E+02  0.50400000000E-02 0. -1.
        -24    2    1    2    0    0  0.00000000000E+00  0.00000000000E+00  0.21142848291E+02  0.84513846803E+02  0.81826464347E+02 0.  0.
         66    2    3    3    0    0  0.14679913010E+02  0.18128965414E+02  0.45262293396E+02  0.50959144760E+02  0.19999995402E+01 0.  0.
         13    1    3    3    0    0 -0.14679913010E+02 -0.18128965414E+02 -0.24119445105E+02  0.33554702043E+02  0.10566000000E+00 0. -1.
         13    1    4    4    0    0  0.66618877472E+00  0.12086929632E+01  0.23506545764E+01  0.27279089310E+01  0.10566000000E+00 0. -1.
        -13    1    4    4    0    0  0.75601538659E+01  0.10213227835E+02  0.25228154530E+02  0.28247776803E+02  0.10566000000E+00 0.  1.
        -14    1    4    4    0    0  0.64535703699E+01  0.67070446163E+01  0.17683484290E+02  0.19983459026E+02  0.00000000000E+00 0.  1.
<mgrwt>
<rscale>  0 0.81826464E+02</rscale>
<asrwt>0</asrwt>
<pdfrwt beam="1">  1        1 0.48746922E-02 0.81826464E+02</pdfrwt>
<pdfrwt beam="2">  1       -2 0.81274380E-02 0.81826464E+02</pdfrwt>
<totfact> 0.11445387E+05</totfact>
</mgrwt>
</event>
<event>
 8    1  0.8577104E-018  0.8184770E+02  0.7818608E-02  0.1323888E+00
         -2   -1    0    0    0  501 -0.00000000000E+00  0.00000000000E+00  0.23532181125E+02  0.23532181263E+02  0.25500000000E-02 0.  1.
          1   -1    0    0  501    0  0.00000000000E+00 -0.00000000000E+00 -0.71168993048E+02  0.71168993226E+02  0.50400000000E-02 0. -1.
        -24    2    1    2    0    0  0.00000000000E+00  0.00000000000E+00 -0.47636811923E+02  0.94701174489E+02  0.81847703690E+02 0.  0.
         66    2    3    3    0    0  0.37140694436E+02  0.15073727735E+02 -0.14425037735E+02  0.42646572773E+02  0.20000011405E+01 0.  0.
         13    1    3    3    0    0 -0.37140694436E+02 -0.15073727735E+02 -0.33211774188E+02  0.52054601716E+02  0.10566000000E+00 0. -1.
         13    1    4    4    0    0  0.21223987171E+02  0.82972679774E+01 -0.87737972577E+01  0.24419110747E+02  0.10566000000E+00 0. -1.
        -13    1    4    4    0    0  0.61866980874E+01  0.22394452760E+01 -0.24922820410E+01  0.70365461824E+01  0.10566000000E+00 0.  1.
        -14    1    4    4    0    0  0.97300091777E+01  0.45370144820E+01 -0.31589584362E+01  0.11190915843E+02  0.00000000000E+00 0.  1.
<mgrwt>
<rscale>  0 0.81847704E+02</rscale>
<asrwt>0</asrwt>
<pdfrwt beam="1">  1        1 0.10949076E-01 0.81847704E+02</pdfrwt>
<pdfrwt beam="2">  1       -2 0.36203356E-02 0.81847704E+02</pdfrwt>
<totfact> 0.13063376E+05</totfact>
</mgrwt>
</event>
<event>
 8    1  0.8577104E-018  0.7973281E+02  0.7818608E-02  0.1329811E+00
         -2   -1    0    0    0  501 -0.00000000000E+00  0.00000000000E+00  0.97451827809E+01  0.97451831145E+01  0.25500000000E-02 0.  1.
          1   -1    0    0  501    0  0.00000000000E+00 -0.00000000000E+00 -0.16308878701E+03  0.16308878709E+03  0.50400000000E-02 0. -1.
        -24    2    1    2    0    0  0.00000000000E+00 -0.17763568394E-14 -0.15334360423E+03  0.17283397020E+03  0.79732805658E+02 0.  0.
         66    2    3    3    0    0 -0.25875966104E+02  0.11651372356E+02 -0.16102575237E+02  0.32689647084E+02  0.19999994047E+01 0.  0.
         13    1    3    3    0    0  0.25875966104E+02 -0.11651372356E+02 -0.13724102899E+03  0.14014432312E+03  0.10566000000E+00 0. -1.
         13    1    4    4    0    0 -0.76716559220E+01  0.29932816566E+01 -0.51722697092E+01  0.97251003924E+01  0.10566000000E+00 0. -1.
        -13    1    4    4    0    0 -0.73812483552E+00  0.30959695979E+00 -0.70117104800E+00  0.10693378439E+01  0.10566000000E+00 0.  1.
        -14    1    4    4    0    0 -0.17466185346E+02  0.83484937397E+01 -0.10229134480E+02  0.21895208848E+02  0.00000000000E+00 0.  1.
<mgrwt>
<rscale>  0 0.79732806E+02</rscale>
<asrwt>0</asrwt>
<pdfrwt beam="1">  1        1 0.25090581E-01 0.79732806E+02</pdfrwt>
<pdfrwt beam="2">  1       -2 0.14992590E-02 0.79732806E+02</pdfrwt>
<totfact> 0.16179776E+05</totfact>
</mgrwt>
</event>
<event>
 8    1  0.8577104E-018  0.8196617E+02  0.7818608E-02  0.1323563E+00
          1   -1    0    0  501    0  0.00000000000E+00  0.00000000000E+00  0.40456797213E+03  0.40456797217E+03  0.50400000000E-02 0. -1.
         -2   -1    0    0    0  501 -0.00000000000E+00 -0.00000000000E+00 -0.41516219613E+01  0.41516227444E+01  0.25500000000E-02 0.  1.
        -24    2    1    2    0    0 -0.88817841970E-15  0.00000000000E+00  0.40041635017E+03  0.40871959491E+03  0.81966174594E+02 0.  0.
         66    2    3    3    0    0  0.37706797145E+01  0.35678111504E+02  0.29885979448E+03  0.30101216325E+03  0.20000008478E+01 0.  0.
         13    1    3    3    0    0 -0.37706797145E+01 -0.35678111504E+02  0.10155655569E+03  0.10770743166E+03  0.10566000000E+00 0. -1.
         13    1    4    4    0    0  0.64793898657E+00  0.30435738782E+01  0.29155089377E+02  0.29320872557E+02  0.10566000000E+00 0. -1.
        -13    1    4    4    0    0  0.11105215480E+01  0.15431554116E+02  0.12914002654E+03  0.13006353731E+03  0.10566000000E+00 0.  1.
         14    1    4    4    0    0  0.20122191799E+01  0.17202983510E+02  0.14056467857E+03  0.14162775338E+03  0.00000000000E+00 0. -1.
<mgrwt>
<rscale>  0 0.81966175E+02</rscale>
<asrwt>0</asrwt>
<pdfrwt beam="1">  1        1 0.62241232E-01 0.81966175E+02</pdfrwt>
<pdfrwt beam="2">  1       -2 0.63871107E-03 0.81966175E+02</pdfrwt>
<totfact> 0.17851832E+05</totfact>
</mgrwt>
</event>
<event>
 8    1  0.8577104E-018  0.8206689E+02  0.7818608E-02  0.1323286E+00
         -2   -1    0    0    0  501 -0.00000000000E+00  0.00000000000E+00  0.58635395717E+02  0.58635395772E+02  0.25500000000E-02 0.  1.
          1   -1    0    0  501    0  0.00000000000E+00 -0.00000000000E+00 -0.28715478949E+02  0.28715479391E+02  0.50400000000E-02 0. -1.
        -24    2    1    2    0    0  0.00000000000E+00  0.35527136788E-14  0.29919916768E+02  0.87350875163E+02  0.82066887186E+02 0.  0.
         66    2    3    3    0    0 -0.15633467736E+02 -0.22310993775E+02  0.47594521880E+02  0.54876445428E+02  0.19999982853E+01 0.  0.
         13    1    3    3    0    0  0.15633467736E+02  0.22310993775E+02 -0.17674605113E+02  0.32474429735E+02  0.10566000000E+00 0. -1.
         13    1    4    4    0    0 -0.54714673544E+01 -0.87213105014E+01  0.18912410796E+02  0.21533431172E+02  0.10566000000E+00 0.  1.
        -13    1    4    4    0    0 -0.22062957136E+00 -0.50241158166E+00  0.76329351213E+00  0.94597876636E+00  0.10566000000E+00 0.  1.
        -14    1    4    4    0    0 -0.99413708100E+01 -0.13087271692E+02  0.27918817572E+02  0.32397035490E+02  0.00000000000E+00 0.  1.
<mgrwt>
<rscale>  0 0.82066887E+02</rscale>
<asrwt>0</asrwt>
<pdfrwt beam="1">  1        1 0.44177661E-02 0.82066887E+02</pdfrwt>
<pdfrwt beam="2">  1       -2 0.90208300E-02 0.82066887E+02</pdfrwt>
<totfact> 0.11147109E+05</totfact>
</mgrwt>
</event>
<event>
 8    1  0.8577104E-018  0.7917416E+02  0.7818608E-02  0.1331412E+00
          1   -1    0    0  501    0  0.00000000000E+00  0.00000000000E+00  0.13848400153E+03  0.13848400162E+03  0.50400000000E-02 0. -1.
         -2   -1    0    0    0  501 -0.00000000000E+00 -0.00000000000E+00 -0.11316374273E+02  0.11316374561E+02  0.25500000000E-02 0.  1.
        -24    2    1    2    0    0 -0.17763568394E-14  0.35527136788E-14  0.12716762725E+03  0.14980037618E+03  0.79174157918E+02 0.  0.
         66    2    3    3    0    0 -0.15730129282E+02  0.19785811272E+02  0.60424086671E+01  0.26065801235E+02  0.19999991450E+01 0.  0.
         13    1    3    3    0    0  0.15730129282E+02 -0.19785811272E+02  0.12112521859E+03  0.12373457494E+03  0.10566000000E+00 0. -1.
         13    1    4    4    0    0 -0.26377030261E+01  0.22433898521E+01  0.86184047317E+00  0.35699031246E+01  0.10566000000E+00 0. -1.
        -13    1    4    4    0    0 -0.10097702996E+02  0.13566540457E+02  0.38953153158E+01  0.17355093524E+02  0.10566000000E+00 0.  1.
         14    1    4    4    0    0 -0.29947232605E+01  0.39758809627E+01  0.12852528781E+01  0.51408045865E+01  0.00000000000E+00 0. -1.
<mgrwt>
<rscale>  0 0.79174158E+02</rscale>
<asrwt>0</asrwt>
<pdfrwt beam="1">  1        1 0.21305231E-01 0.79174158E+02</pdfrwt>
<pdfrwt beam="2">  1       -2 0.17409807E-02 0.79174158E+02</pdfrwt>
<totfact> 0.15997376E+05</totfact>
</mgrwt>
</event>
<event>
 8    1  0.8577104E-018  0.7984611E+02  0.7818608E-02  0.1329489E+00
          1   -1    0    0  501    0  0.00000000000E+00  0.00000000000E+00  0.65864862041E+02  0.65864862234E+02  0.50400000000E-02 0. -1.
         -2   -1    0    0    0  501 -0.00000000000E+00 -0.00000000000E+00 -0.24198794353E+02  0.24198794487E+02  0.25500000000E-02 0.  1.
        -24    2    1    2    0    0  0.00000000000E+00  0.00000000000E+00  0.41666067689E+02  0.90063656721E+02  0.79846108642E+02 0.  0.
         66    2    3    3    0    0  0.20802262038E+02  0.14404528197E+02 -0.13949808060E+02  0.28962418290E+02  0.19999974629E+01 0.  0.
         13    1    3    3    0    0 -0.20802262038E+02 -0.14404528197E+02  0.55615875749E+02  0.61101238431E+02  0.10566000000E+00 0. -1.
         13    1    4    4    0    0  0.12660759664E+02  0.97897521685E+01 -0.85197493146E+01  0.18130950753E+02  0.10566000000E+00 0. -1.
        -13    1    4    4    0    0  0.52457578370E+01  0.32239335618E+01 -0.36584866888E+01  0.71629192221E+01  0.10566000000E+00 0.  1.
        -14    1    4    4    0    0  0.28957445368E+01  0.13908424668E+01 -0.17715720564E+01  0.36685483152E+01  0.00000000000E+00 0.  1.
<mgrwt>
<rscale>  0 0.79846109E+02</rscale>
<asrwt>0</asrwt>
<pdfrwt beam="1">  1        1 0.10133056E-01 0.79846109E+02</pdfrwt>
<pdfrwt beam="2">  1       -2 0.37228915E-02 0.79846109E+02</pdfrwt>
<totfact> 0.13810802E+05</totfact>
</mgrwt>
</event>
<event>
 8    1  0.8577104E-018  0.8035815E+02  0.7818608E-02  0.1328038E+00
          1   -1    0    0  501    0  0.00000000000E+00  0.00000000000E+00  0.18889054201E+02  0.18889054873E+02  0.50400000000E-02 0. -1.
         -2   -1    0    0    0  501 -0.00000000000E+00 -0.00000000000E+00 -0.85465258083E+02  0.85465258121E+02  0.25500000000E-02 0.  1.
        -24    2    1    2    0    0  0.00000000000E+00  0.00000000000E+00 -0.66576203883E+02  0.10435431299E+03  0.80358146551E+02 0.  0.
         66    2    3    3    0    0 -0.23206781882E+02 -0.27585152763E+02 -0.56278285771E+02  0.66863598680E+02  0.20000002201E+01 0.  0.
         13    1    3    3    0    0  0.23206781882E+02  0.27585152763E+02 -0.10297918112E+02  0.37490714314E+02  0.10566000000E+00 0. -1.
         13    1    4    4    0    0 -0.26224242112E+01 -0.29811920658E+01 -0.70622073217E+01  0.81025027718E+01  0.10566000000E+00 0. -1.
        -13    1    4    4    0    0 -0.16904284106E+02 -0.20019596919E+02 -0.41032652832E+02  0.48684996092E+02  0.10566000000E+00 0.  1.
        -14    1    4    4    0    0 -0.36800735653E+01 -0.45843637783E+01 -0.81834256168E+01  0.10076099817E+02  0.00000000000E+00 0.  1.
<mgrwt>
<rscale>  0 0.80358147E+02</rscale>
<asrwt>0</asrwt>
<pdfrwt beam="1">  1        1 0.29060085E-02 0.80358147E+02</pdfrwt>
<pdfrwt beam="2">  1       -2 0.13148501E-01 0.80358147E+02</pdfrwt>
<totfact> 0.10889562E+05</totfact>
</mgrwt>
</event>
<event>
 8    1  0.8577104E-018  0.7999681E+02  0.7818608E-02  0.1329060E+00
         -2   -1    0    0    0  501 -0.00000000000E+00  0.00000000000E+00  0.84191386802E+01  0.84191390664E+01  0.25500000000E-02 0.  1.
          1   -1    0    0  501    0  0.00000000000E+00 -0.00000000000E+00 -0.19002801783E+03  0.19002801789E+03  0.50400000000E-02 0. -1.
        -24    2    1    2    0    0  0.00000000000E+00  0.00000000000E+00 -0.18160887914E+03  0.19844715696E+03  0.79996806940E+02 0.  0.
         66    2    3    3    0    0  0.37287083638E+02  0.10341084674E+01 -0.55215751424E+02  0.66664647171E+02  0.19999976569E+01 0.  0.
         13    1    3    3    0    0 -0.37287083638E+02 -0.10341084674E+01 -0.12639312772E+03  0.13178250979E+03  0.10566000000E+00 0. -1.
         13    1    4    4    0    0  0.55500203429E+01  0.31376364438E+00 -0.76835556193E+01  0.94841638757E+01  0.10566000000E+00 0. -1.
        -13    1    4    4    0    0  0.21604203442E+02  0.12270124953E+01 -0.32491863486E+02  0.39038180322E+02  0.10566000000E+00 0.  1.
         14    1    4    4    0    0  0.10132859853E+02 -0.50666767219E+00 -0.15040332318E+02  0.18142302974E+02  0.00000000000E+00 0. -1.
<mgrwt>
<rscale>  0 0.79996807E+02</rscale>
<asrwt>0</asrwt>
<pdfrwt beam="1">  1        1 0.29235077E-01 0.79996807E+02</pdfrwt>
<pdfrwt beam="2">  1       -2 0.12952523E-02 0.79996807E+02</pdfrwt>
<totfact> 0.16511414E+05</totfact>
</mgrwt>
</event>
<event>
 8    1  0.8577104E-018  0.7957734E+02  0.7818608E-02  0.1330255E+00
         -2   -1    0    0    0  501 -0.00000000000E+00  0.00000000000E+00  0.11864443111E+02  0.11864443385E+02  0.25500000000E-02 0.  1.
          1   -1    0    0  501    0  0.00000000000E+00 -0.00000000000E+00 -0.13343552823E+03  0.13343552833E+03  0.50400000000E-02 0. -1.
        -24    2    1    2    0    0  0.00000000000E+00  0.00000000000E+00 -0.12157108512E+03  0.14529997171E+03  0.79577340003E+02 0.  0.
         66    2    3    3    0    0  0.13586560320E+02  0.34541693407E+02 -0.34782548471E+02  0.50907257678E+02  0.20000003599E+01 0.  0.
         13    1    3    3    0    0 -0.13586560320E+02 -0.34541693407E+02 -0.86788536653E+02  0.94392714036E+02  0.10566000000E+00 0. -1.
         13    1    4    4    0    0  0.12690170694E+00  0.95105931213E+00 -0.97530261315E+00  0.13722234079E+01  0.10566000000E+00 0.  1.
        -13    1    4    4    0    0  0.42627209834E+01  0.10928948571E+02 -0.10260823699E+02  0.15585518088E+02  0.10566000000E+00 0.  1.
        -14    1    4    4    0    0  0.91969376295E+01  0.22661685523E+02 -0.23546422159E+02  0.33949516182E+02  0.00000000000E+00 0.  1.
<mgrwt>
<rscale>  0 0.79577340E+02</rscale>
<asrwt>0</asrwt>
<pdfrwt beam="1">  1        1 0.20528542E-01 0.79577340E+02</pdfrwt>
<pdfrwt beam="2">  1       -2 0.18252991E-02 0.79577340E+02</pdfrwt>
<totfact> 0.15676150E+05</totfact>
</mgrwt>
</event>
<event>
 8    1  0.8577104E-018  0.8062935E+02  0.7818608E-02  0.1327275E+00
         -2   -1    0    0    0  501 -0.00000000000E+00  0.00000000000E+00  0.27703980437E+02  0.27703980555E+02  0.25500000000E-02 0.  1.
          1   -1    0    0  501    0  0.00000000000E+00 -0.00000000000E+00 -0.58665690206E+02  0.58665690423E+02  0.50400000000E-02 0. -1.
        -24    2    1    2    0    0  0.00000000000E+00  0.00000000000E+00 -0.30961709769E+02  0.86369670978E+02  0.80629353172E+02 0.  0.
         66    2    3    3    0    0  0.32444304089E+02 -0.17871290811E+02  0.14890761205E+01  0.37124563891E+02  0.19999983360E+01 0.  0.
         13    1    3    3    0    0 -0.32444304089E+02  0.17871290811E+02 -0.32450785889E+02  0.49245107086E+02  0.10566000000E+00 0. -1.
         13    1    4    4    0    0  0.94342738942E+01 -0.57580313072E+01  0.11794198120E+01  0.11115873496E+02  0.10566000000E+00 0. -1.
        -13    1    4    4    0    0  0.94503890546E+01 -0.50564208570E+01  0.29459986882E+00  0.10722648847E+02  0.10566000000E+00 0.  1.
         14    1    4    4    0    0  0.13559641140E+02 -0.70568386467E+01  0.15056439597E-01  0.15286041549E+02  0.00000000000E+00 0. -1.
<mgrwt>
<rscale>  0 0.80629353E+02</rscale>
<asrwt>0</asrwt>
<pdfrwt beam="1">  1        1 0.90254908E-02 0.80629353E+02</pdfrwt>
<pdfrwt beam="2">  1       -2 0.42621509E-02 0.80629353E+02</pdfrwt>
<totfact> 0.13202130E+05</totfact>
</mgrwt>
</event>
<event>
 8    1  0.8577104E-018  0.8040078E+02  0.7818608E-02  0.1327918E+00
         -2   -1    0    0    0  501 -0.00000000000E+00  0.00000000000E+00  0.49124332971E+02  0.49124333037E+02  0.25500000000E-02 0.  1.
          1   -1    0    0  501    0  0.00000000000E+00 -0.00000000000E+00 -0.32897574614E+02  0.32897575000E+02  0.50400000000E-02 0. -1.
        -24    2    1    2    0    0  0.00000000000E+00 -0.35527136788E-14  0.16226758357E+02  0.82021908037E+02  0.80400781782E+02 0.  0.
         66    2    3    3    0    0 -0.13537360407E+02  0.31608960567E+02  0.29314220766E+02  0.45229526336E+02  0.19999996276E+01 0.  0.
         13    1    3    3    0    0  0.13537360407E+02 -0.31608960567E+02 -0.13087462409E+02  0.36792381701E+02  0.10566000000E+00 0. -1.
         13    1    4    4    0    0 -0.27162710962E+01  0.48497606984E+01  0.50769823292E+01  0.75289588328E+01  0.10566000000E+00 0. -1.
        -13    1    4    4    0    0 -0.72921957494E+01  0.18991442347E+02  0.17265304848E+02  0.26682445855E+02  0.10566000000E+00 0.  1.
        -14    1    4    4    0    0 -0.35288935613E+01  0.77677575209E+01  0.69719335895E+01  0.11018121648E+02  0.00000000000E+00 0.  1.
<mgrwt>
<rscale>  0 0.80400782E+02</rscale>
<asrwt>0</asrwt>
<pdfrwt beam="1">  1        1 0.50611654E-02 0.80400782E+02</pdfrwt>
<pdfrwt beam="2">  1       -2 0.75575897E-02 0.80400782E+02</pdfrwt>
<totfact> 0.12116411E+05</totfact>
</mgrwt>
</event>
<event>
 8    1  0.8577104E-018  0.8047890E+02  0.7818608E-02  0.1327698E+00
         -2   -1    0    0    0  501 -0.00000000000E+00  0.00000000000E+00  0.80434311799E+01  0.80434315841E+01  0.25500000000E-02 0.  1.
          1   -1    0    0  501    0  0.00000000000E+00 -0.00000000000E+00 -0.20130877835E+03  0.20130877842E+03  0.50400000000E-02 0. -1.
        -24    2    1    2    0    0  0.00000000000E+00  0.00000000000E+00 -0.19326534717E+03  0.20935221000E+03  0.80478900427E+02 0.  0.
         66    2    3    3    0    0  0.18951657721E+02  0.35282882647E+02 -0.10612940601E+03  0.11345262426E+03  0.19999984356E+01 0.  0.
         13    1    3    3    0    0 -0.18951657721E+02 -0.35282882647E+02 -0.87135941165E+02  0.95899585740E+02  0.10566000000E+00 0. -1.
         13    1    4    4    0    0  0.40382028063E+01  0.77061127052E+01 -0.21586057922E+02  0.23273596962E+02  0.10566000000E+00 0. -1.
        -13    1    4    4    0    0  0.85838632648E+01  0.14707439078E+02 -0.44847809971E+02  0.47972165847E+02  0.10566000000E+00 0.  1.
        -14    1    4    4    0    0  0.63295916499E+01  0.12869330864E+02 -0.39695538115E+02  0.42206861452E+02  0.00000000000E+00 0.  1.
<mgrwt>
<rscale>  0 0.80478900E+02</rscale>
<asrwt>0</asrwt>
<pdfrwt beam="1">  1        1 0.30970577E-01 0.80478900E+02</pdfrwt>
<pdfrwt beam="2">  1       -2 0.12374511E-02 0.80478900E+02</pdfrwt>
<totfact> 0.16432527E+05</totfact>
</mgrwt>
</event>
<event>
 8    1  0.8577104E-018  0.8127585E+02  0.7818608E-02  0.1325469E+00
          1   -1    0    0  501    0  0.00000000000E+00  0.00000000000E+00  0.26193546368E+02  0.26193546853E+02  0.50400000000E-02 0. -1.
         -2   -1    0    0    0  501 -0.00000000000E+00 -0.00000000000E+00 -0.63047620662E+02  0.63047620713E+02  0.25500000000E-02 0.  1.
        -24    2    1    2    0    0  0.38163916471E-16  0.71054273576E-14 -0.36854074293E+02  0.89241167567E+02  0.81275846330E+02 0.  0.
         66    2    3    3    0    0  0.25819731451E-01 -0.40578106255E+02 -0.16583724782E+02  0.43881696590E+02  0.19999985109E+01 0.  0.
         13    1    3    3    0    0 -0.25819731451E-01  0.40578106255E+02 -0.20270349511E+02  0.45359470976E+02  0.10566000000E+00 0. -1.
         13    1    4    4    0    0 -0.25335322024E+00 -0.71964364696E+01 -0.31179616379E+01  0.78476579007E+01  0.10566000000E+00 0. -1.
        -13    1    4    4    0    0  0.66046673474E+00 -0.21101273968E+02 -0.91845447807E+01  0.23023184103E+02  0.10566000000E+00 0.  1.
        -14    1    4    4    0    0 -0.38129378306E+00 -0.12280395818E+02 -0.42812183637E+01  0.13010854586E+02  0.00000000000E+00 0.  1.
<mgrwt>
<rscale>  0 0.81275846E+02</rscale>
<asrwt>0</asrwt>
<pdfrwt beam="1">  1        1 0.40297764E-02 0.81275846E+02</pdfrwt>
<pdfrwt beam="2">  1       -2 0.96996339E-02 0.81275846E+02</pdfrwt>
<totfact> 0.11268010E+05</totfact>
</mgrwt>
</event>
<event>
 8    1  0.8577104E-018  0.8059111E+02  0.7818608E-02  0.1327382E+00
         -2   -1    0    0    0  501 -0.00000000000E+00  0.00000000000E+00  0.11737866379E+02  0.11737866656E+02  0.25500000000E-02 0.  1.
          1   -1    0    0  501    0  0.00000000000E+00 -0.00000000000E+00 -0.13833276777E+03  0.13833276786E+03  0.50400000000E-02 0. -1.
        -24    2    1    2    0    0  0.00000000000E+00  0.00000000000E+00 -0.12659490139E+03  0.15007063452E+03  0.80591105504E+02 0.  0.
         66    2    3    3    0    0 -0.32313007293E+02  0.82037232459E+01 -0.21271479016E+02  0.39596809652E+02  0.19999999339E+01 0.  0.
         13    1    3    3    0    0  0.32313007293E+02 -0.82037232459E+01 -0.10532342238E+03  0.11047382487E+03  0.10566000000E+00 0. -1.
         13    1    4    4    0    0 -0.20659491220E+01  0.84024275314E+00 -0.11112970724E+01  0.24940527014E+01  0.10566000000E+00 0. -1.
        -13    1    4    4    0    0 -0.14877082057E+02  0.41479274274E+01 -0.99428248569E+01  0.18368554724E+02  0.10566000000E+00 0.  1.
         14    1    4    4    0    0 -0.15369976113E+02  0.32155530653E+01 -0.10217357086E+02  0.18734202227E+02  0.00000000000E+00 0. -1.
<mgrwt>
<rscale>  0 0.80591106E+02</rscale>
<asrwt>0</asrwt>
<pdfrwt beam="1">  1        1 0.21281963E-01 0.80591106E+02</pdfrwt>
<pdfrwt beam="2">  1       -2 0.18058257E-02 0.80591106E+02</pdfrwt>
<totfact> 0.15252492E+05</totfact>
</mgrwt>
</event>
<event>
 8    1  0.8577104E-018  0.7595677E+02  0.7818608E-02  0.1340934E+00
         -2   -1    0    0    0  501 -0.00000000000E+00  0.00000000000E+00  0.14055909998E+02  0.14055910229E+02  0.25500000000E-02 0.  1.
          1   -1    0    0  501    0  0.00000000000E+00 -0.00000000000E+00 -0.10261574541E+03  0.10261574553E+03  0.50400000000E-02 0. -1.
        -24    2    1    2    0    0  0.00000000000E+00  0.00000000000E+00 -0.88559835408E+02  0.11667165576E+03  0.75956769350E+02 0.  0.
         66    2    3    3    0    0 -0.25357288116E+02  0.39588882309E+01 -0.13652371662E+01  0.25778454786E+02  0.20000004978E+01 0.  0.
         13    1    3    3    0    0  0.25357288116E+02 -0.39588882309E+01 -0.87194598242E+02  0.90893200974E+02  0.10566000000E+00 0. -1.
         13    1    4    4    0    0 -0.10152531778E+02  0.12785986359E+01 -0.10341209939E+01  0.10285391886E+02  0.10566000000E+00 0.  1.
        -13    1    4    4    0    0 -0.32328032231E+01  0.61936687582E+00 -0.57213804032E+00  0.33426244149E+01  0.10566000000E+00 0. -1.
        -14    1    4    4    0    0 -0.11971953115E+02  0.20609227191E+01  0.24102186806E+00  0.12150438485E+02  0.00000000000E+00 0.  1.
<mgrwt>
<rscale>  0 0.75956769E+02</rscale>
<asrwt>0</asrwt>
<pdfrwt beam="1">  1        1 0.15787037E-01 0.75956769E+02</pdfrwt>
<pdfrwt beam="2">  1       -2 0.21624478E-02 0.75956769E+02</pdfrwt>
<totfact> 0.16974654E+05</totfact>
</mgrwt>
</event>
<event>
 8    1  0.8577104E-018  0.7847149E+02  0.7818608E-02  0.1333446E+00
          1   -1    0    0  501    0  0.00000000000E+00  0.00000000000E+00  0.10281213619E+03  0.10281213632E+03  0.50400000000E-02 0. -1.
         -2   -1    0    0    0  501 -0.00000000000E+00 -0.00000000000E+00 -0.14973366620E+02  0.14973366837E+02  0.25500000000E-02 0.  1.
        -24    2    1    2    0    0 -0.88817841970E-15  0.35527136788E-14  0.87838769575E+02  0.11778550315E+03  0.78471493633E+02 0.  0.
         66    2    3    3    0    0 -0.66402672101E+01  0.30296195937E+02  0.79399675650E+01  0.32077963443E+02  0.20000042127E+01 0.  0.
         13    1    3    3    0    0  0.66402672101E+01 -0.30296195937E+02  0.79898802010E+02  0.85707539712E+02  0.10566000000E+00 0. -1.
         13    1    4    4    0    0 -0.18039778764E+01  0.81024398480E+01  0.25828020312E+01  0.86940150699E+01  0.10566000000E+00 0. -1.
        -13    1    4    4    0    0 -0.36828704275E+01  0.14073268392E+02  0.30532871413E+01  0.14864526371E+02  0.10566000000E+00 0.  1.
         14    1    4    4    0    0 -0.11534189061E+01  0.81204876963E+01  0.23038783926E+01  0.85194220019E+01  0.00000000000E+00 0. -1.
<mgrwt>
<rscale>  0 0.78471494E+02</rscale>
<asrwt>0</asrwt>
<pdfrwt beam="1">  1        1 0.15817252E-01 0.78471494E+02</pdfrwt>
<pdfrwt beam="2">  1       -2 0.23035949E-02 0.78471494E+02</pdfrwt>
<totfact> 0.15556709E+05</totfact>
</mgrwt>
</event>
<event>
 8    1  0.8577104E-018  0.8477754E+02  0.7818608E-02  0.1316015E+00
         -2   -1    0    0    0  501 -0.00000000000E+00  0.00000000000E+00  0.69024841396E+01  0.69024846106E+01  0.25500000000E-02 0.  1.
          1   -1    0    0  501    0  0.00000000000E+00 -0.00000000000E+00 -0.26031319043E+03  0.26031319048E+03  0.50400000000E-02 0. -1.
        -24    2    1    2    0    0  0.00000000000E+00 -0.88817841970E-15 -0.25341070629E+03  0.26721567509E+03  0.84777538009E+02 0.  0.
         66    2    3    3    0    0  0.41219295104E+02 -0.67855398255E+01 -0.10454843875E+03  0.11260306338E+03  0.19999992297E+01 0.  0.
         13    1    3    3    0    0 -0.41219295104E+02  0.67855398255E+01 -0.14886226754E+03  0.15461261171E+03  0.10566000000E+00 0. -1.
         13    1    4    4    0    0  0.25781610518E+01 -0.71657849208E+00 -0.64618297291E+01  0.69947699482E+01  0.10566000000E+00 0. -1.
        -13    1    4    4    0    0  0.79485996941E+01 -0.70818775905E+00 -0.19365772615E+02  0.20945789076E+02  0.10566000000E+00 0.  1.
        -14    1    4    4    0    0  0.30692534358E+02 -0.53607735743E+01 -0.78720836408E+02  0.84662504353E+02  0.00000000000E+00 0.  1.
<mgrwt>
<rscale>  0 0.84777538E+02</rscale>
<asrwt>0</asrwt>
<pdfrwt beam="1">  1        1 0.40048176E-01 0.84777538E+02</pdfrwt>
<pdfrwt beam="2">  1       -2 0.10619209E-02 0.84777538E+02</pdfrwt>
<totfact> 0.15051653E+05</totfact>
</mgrwt>
</event>
<event>
 8    1  0.8577104E-018  0.7954625E+02  0.7818608E-02  0.1330344E+00
         -2   -1    0    0    0  501 -0.00000000000E+00  0.00000000000E+00  0.62336420561E+02  0.62336420613E+02  0.25500000000E-02 0.  1.
          1   -1    0    0  501    0  0.00000000000E+00 -0.00000000000E+00 -0.25376842610E+02  0.25376843111E+02  0.50400000000E-02 0. -1.
        -24    2    1    2    0    0  0.17763568394E-14  0.00000000000E+00  0.36959577951E+02  0.87713263724E+02  0.79546252148E+02 0.  0.
         66    2    3    3    0    0 -0.89990989513E+01 -0.13050378519E+02  0.58683727844E+02  0.60820030113E+02  0.19999969619E+01 0.  0.
         13    1    3    3    0    0  0.89990989513E+01  0.13050378519E+02 -0.21724149893E+02  0.26893233611E+02  0.10566000000E+00 0. -1.
         13    1    4    4    0    0 -0.37920463506E+01 -0.53601510955E+01  0.22517723429E+02  0.23455700112E+02  0.10566000000E+00 0. -1.
        -13    1    4    4    0    0 -0.39436839196E+01 -0.53201987028E+01  0.23426295855E+02  0.24344602248E+02  0.10566000000E+00 0.  1.
         14    1    4    4    0    0 -0.12633686810E+01 -0.23700287209E+01  0.12739708560E+02  0.13019727752E+02  0.00000000000E+00 0. -1.
<mgrwt>
<rscale>  0 0.79546252E+02</rscale>
<asrwt>0</asrwt>
<pdfrwt beam="1">  1        1 0.39041298E-02 0.79546252E+02</pdfrwt>
<pdfrwt beam="2">  1       -2 0.95902184E-02 0.79546252E+02</pdfrwt>
<totfact> 0.11924662E+05</totfact>
</mgrwt>
</event>
<event>
 8    1  0.8577104E-018  0.7941241E+02  0.7818608E-02  0.1330727E+00
         -2   -1    0    0    0  501 -0.00000000000E+00  0.00000000000E+00  0.78600094022E+01  0.78600098159E+01  0.25500000000E-02 0.  1.
          1   -1    0    0  501    0  0.00000000000E+00 -0.00000000000E+00 -0.20058278246E+03  0.20058278252E+03  0.50400000000E-02 0. -1.
        -24    2    1    2    0    0  0.14210854715E-13 -0.55511151231E-16 -0.19272277305E+03  0.20844279233E+03  0.79412407236E+02 0.  0.
         66    2    3    3    0    0  0.39285552351E+02  0.22137599201E+00 -0.11107764398E+03  0.11783737364E+03  0.20000010213E+01 0.  0.
         13    1    3    3    0    0 -0.39285552351E+02 -0.22137599201E+00 -0.81645129071E+02  0.90605418690E+02  0.10566000000E+00 0. -1.
         13    1    4    4    0    0  0.13305415474E+02  0.38833557956E+00 -0.38396043383E+02  0.40638063401E+02  0.10566000000E+00 0. -1.
        -13    1    4    4    0    0  0.26304285494E+01 -0.27328254473E-01 -0.61774744330E+01  0.67150767377E+01  0.10566000000E+00 0.  1.
        -14    1    4    4    0    0  0.23349708328E+02 -0.13963133307E+00 -0.66504126166E+02  0.70484233506E+02  0.00000000000E+00 0.  1.
<mgrwt>
<rscale>  0 0.79412407E+02</rscale>
<asrwt>0</asrwt>
<pdfrwt beam="1">  1        1 0.30858886E-01 0.79412407E+02</pdfrwt>
<pdfrwt beam="2">  1       -2 0.12092324E-02 0.79412407E+02</pdfrwt>
<totfact> 0.17012943E+05</totfact>
</mgrwt>
</event>
<event>
 8    1  0.8577104E-018  0.8055480E+02  0.7818608E-02  0.1327484E+00
         -2   -1    0    0    0  501 -0.00000000000E+00  0.00000000000E+00  0.13226328698E+03  0.13226328701E+03  0.25500000000E-02 0.  1.
          1   -1    0    0  501    0  0.00000000000E+00 -0.00000000000E+00 -0.12265451509E+02  0.12265452545E+02  0.50400000000E-02 0. -1.
        -24    2    1    2    0    0  0.27755575616E-16  0.00000000000E+00  0.11999783548E+03  0.14452873955E+03  0.80554801460E+02 0.  0.
         66    2    3    3    0    0  0.22372509405E+00  0.39976989399E+02  0.68461566886E+02  0.79304450531E+02  0.19999998205E+01 0.  0.
         13    1    3    3    0    0 -0.22372509405E+00 -0.39976989399E+02  0.51536268589E+02  0.65224289022E+02  0.10566000000E+00 0. -1.
         13    1    4    4    0    0 -0.49492350278E+00  0.10897751283E+02  0.17892565334E+02  0.20956168317E+02  0.10566000000E+00 0. -1.
        -13    1    4    4    0    0 -0.26563747936E-01  0.18703452435E+02  0.32830869649E+02  0.37784877988E+02  0.10566000000E+00 0.  1.
        -14    1    4    4    0    0  0.74521234477E+00  0.10375785681E+02  0.17738131903E+02  0.20563404226E+02  0.00000000000E+00 0.  1.
<mgrwt>
<rscale>  0 0.80554801E+02</rscale>
<asrwt>0</asrwt>
<pdfrwt beam="1">  1        1 0.18869926E-02 0.80554801E+02</pdfrwt>
<pdfrwt beam="2">  1       -2 0.20348199E-01 0.80554801E+02</pdfrwt>
<totfact> 0.96593647E+04</totfact>
</mgrwt>
</event>
<event>
 8    1  0.8577104E-018  0.8067504E+02  0.7818608E-02  0.1327147E+00
         -2   -1    0    0    0  501 -0.00000000000E+00  0.00000000000E+00  0.96233226308E+03  0.96233226309E+03  0.25500000000E-02 0.  1.
          1   -1    0    0  501    0  0.00000000000E+00 -0.00000000000E+00 -0.16908005848E+01  0.16908080965E+01  0.50400000000E-02 0. -1.
        -24    2    1    2    0    0  0.00000000000E+00  0.00000000000E+00  0.96064146250E+03  0.96402307118E+03  0.80675041384E+02 0.  0.
         66    2    3    3    0    0 -0.99715833812E+01  0.18977858284E+02  0.88856602248E+03  0.88882684922E+03  0.20000004065E+01 0.  0.
         13    1    3    3    0    0  0.99715833812E+01 -0.18977858284E+02  0.72075440015E+02  0.75196221964E+02  0.10566000000E+00 0. -1.
         13    1    4    4    0    0 -0.20276007140E+01  0.44608482260E+01  0.21319575870E+03  0.21325208797E+03  0.10566000000E+00 0. -1.
        -13    1    4    4    0    0 -0.65368331032E+01  0.12563895219E+02  0.59446766888E+03  0.59463636128E+03  0.10566000000E+00 0.  1.
         14    1    4    4    0    0 -0.14071495641E+01  0.19531148390E+01  0.80902594903E+02  0.80938399969E+02  0.00000000000E+00 0. -1.
<mgrwt>
<rscale>  0 0.80675041E+02</rscale>
<asrwt>0</asrwt>
<pdfrwt beam="1">  1        1 0.26012299E-03 0.80675041E+02</pdfrwt>
<pdfrwt beam="2">  1       -2 0.14805155E+00 0.80675041E+02</pdfrwt>
<totfact> 0.26668606E+04</totfact>
</mgrwt>
</event>
<event>
 8    1  0.8577104E-018  0.7840307E+02  0.7818608E-02  0.1333645E+00
         -2   -1    0    0    0  501 -0.00000000000E+00  0.00000000000E+00  0.20076273018E+02  0.20076273180E+02  0.25500000000E-02 0.  1.
          1   -1    0    0  501    0  0.00000000000E+00 -0.00000000000E+00 -0.76546096748E+02  0.76546096914E+02  0.50400000000E-02 0. -1.
        -24    2    1    2    0    0 -0.17763568394E-14  0.35527136788E-14 -0.56469823730E+02  0.96622370094E+02  0.78403070160E+02 0.  0.
         66    2    3    3    0    0  0.97289895518E+01 -0.19405854377E+02  0.11936620102E+02  0.24854040424E+02  0.20000010294E+01 0.  0.
         13    1    3    3    0    0 -0.97289895518E+01  0.19405854377E+02 -0.68406443832E+02  0.71768329670E+02  0.10566000000E+00 0. -1.
         13    1    4    4    0    0  0.65837430432E+00 -0.16137574040E+01  0.93585430383E+00  0.19810747076E+01  0.10566000000E+00 0. -1.
        -13    1    4    4    0    0  0.70555815912E+01 -0.13367194507E+02  0.74451450576E+01  0.16849464963E+02  0.10566000000E+00 0.  1.
        -14    1    4    4    0    0  0.20150336563E+01 -0.44249024666E+01  0.35556207407E+01  0.60235007535E+01  0.00000000000E+00 0.  1.
<mgrwt>
<rscale>  0 0.78403070E+02</rscale>
<asrwt>0</asrwt>
<pdfrwt beam="1">  1        1 0.11776322E-01 0.78403070E+02</pdfrwt>
<pdfrwt beam="2">  1       -2 0.30886574E-02 0.78403070E+02</pdfrwt>
<totfact> 0.14863850E+05</totfact>
</mgrwt>
</event>
<event>
 8    1  0.8577104E-018  0.8231965E+02  0.7818608E-02  0.1322595E+00
          1   -1    0    0  501    0  0.00000000000E+00  0.00000000000E+00  0.52284626257E+02  0.52284626500E+02  0.50400000000E-02 0. -1.
         -2   -1    0    0    0  501 -0.00000000000E+00 -0.00000000000E+00 -0.32402086922E+02  0.32402087023E+02  0.25500000000E-02 0.  1.
        -24    2    1    2    0    0  0.00000000000E+00  0.00000000000E+00  0.19882539335E+02  0.84686713523E+02  0.82319645753E+02 0.  0.
         66    2    3    3    0    0 -0.13547320851E+02  0.25239128705E+02 -0.20424364138E+02  0.35237738289E+02  0.20000073101E+01 0.  0.
         13    1    3    3    0    0  0.13547320851E+02 -0.25239128705E+02  0.40306903473E+02  0.49448975234E+02  0.10566000000E+00 0. -1.
         13    1    4    4    0    0 -0.72608759774E+01  0.13957596080E+02 -0.12233413249E+02  0.19929936579E+02  0.10566000000E+00 0. -1.
        -13    1    4    4    0    0 -0.45321738089E+01  0.80322071160E+01 -0.61903693016E+01  0.11108050536E+02  0.10566000000E+00 0.  1.
         14    1    4    4    0    0 -0.17542710647E+01  0.32493255093E+01 -0.20005815879E+01  0.41997511740E+01  0.00000000000E+00 0. -1.
<mgrwt>
<rscale>  0 0.82319646E+02</rscale>
<asrwt>0</asrwt>
<pdfrwt beam="1">  1        1 0.80437887E-02 0.82319646E+02</pdfrwt>
<pdfrwt beam="2">  1       -2 0.49849365E-02 0.82319646E+02</pdfrwt>
<totfact> 0.12236970E+05</totfact>
</mgrwt>
</event>
<event>
 8    1  0.8577104E-018  0.7839585E+02  0.7818608E-02  0.1333666E+00
         -2   -1    0    0    0  501 -0.00000000000E+00  0.00000000000E+00  0.16276219684E+03  0.16276219686E+03  0.25500000000E-02 0.  1.
          1   -1    0    0  501    0  0.00000000000E+00 -0.00000000000E+00 -0.94400115428E+01  0.94400128883E+01  0.50400000000E-02 0. -1.
        -24    2    1    2    0    0  0.00000000000E+00  0.00000000000E+00  0.15332218530E+03  0.17220220975E+03  0.78395845158E+02 0.  0.
         66    2    3    3    0    0 -0.28227426973E+02 -0.25287214197E+02  0.98482573590E+02  0.10554168911E+03  0.20000010743E+01 0.  0.
         13    1    3    3    0    0  0.28227426973E+02  0.25287214197E+02  0.54839611712E+02  0.66660520641E+02  0.10566000000E+00 0. -1.
         13    1    4    4    0    0 -0.95200887256E+00 -0.11002472354E+01  0.37170223259E+01  0.39930294112E+01  0.10566000000E+00 0. -1.
        -13    1    4    4    0    0 -0.13622562435E+02 -0.12801130044E+02  0.50261717433E+02  0.53625502712E+02  0.10566000000E+00 0.  1.
         14    1    4    4    0    0 -0.13652855666E+02 -0.11385836917E+02  0.44503833831E+02  0.47923156989E+02  0.00000000000E+00 0. -1.
<mgrwt>
<rscale>  0 0.78395845E+02</rscale>
<asrwt>0</asrwt>
<pdfrwt beam="1">  1        1 0.14523098E-02 0.78395845E+02</pdfrwt>
<pdfrwt beam="2">  1       -2 0.25040335E-01 0.78395845E+02</pdfrwt>
<totfact> 0.96855727E+04</totfact>
</mgrwt>
</event>
<event>
 8    1  0.8577104E-018  0.7712013E+02  0.7818608E-02  0.1337429E+00
         -2   -1    0    0    0  501 -0.00000000000E+00  0.00000000000E+00  0.24411157451E+02  0.24411157584E+02  0.25500000000E-02 0.  1.
          1   -1    0    0  501    0  0.00000000000E+00 -0.00000000000E+00 -0.60909793859E+02  0.60909794068E+02  0.50400000000E-02 0. -1.
        -24    2    1    2    0    0  0.00000000000E+00  0.00000000000E+00 -0.36498636408E+02  0.85320951652E+02  0.77120129222E+02 0.  0.
         66    2    3    3    0    0 -0.11035935741E+02  0.13807903088E+02  0.19620208600E+02  0.26484007523E+02  0.20000009049E+01 0.  0.
         13    1    3    3    0    0  0.11035935741E+02 -0.13807903088E+02 -0.56118845008E+02  0.58836944129E+02  0.10566000000E+00 0. -1.
         13    1    4    4    0    0 -0.61382635966E+00  0.66542452390E+00  0.49619307095E+00  0.10377592187E+01  0.10566000000E+00 0. -1.
        -13    1    4    4    0    0 -0.81859427965E+01  0.98827620490E+01  0.14680403784E+02  0.19498822131E+02  0.10566000000E+00 0.  1.
         14    1    4    4    0    0 -0.22361665853E+01  0.32597165149E+01  0.44436117447E+01  0.59474261737E+01  0.00000000000E+00 0. -1.
<mgrwt>
<rscale>  0 0.77120129E+02</rscale>
<asrwt>0</asrwt>
<pdfrwt beam="1">  1        1 0.93707375E-02 0.77120129E+02</pdfrwt>
<pdfrwt beam="2">  1       -2 0.37555627E-02 0.77120129E+02</pdfrwt>
<totfact> 0.15008069E+05</totfact>
</mgrwt>
</event>
<event>
 8    1  0.8577104E-018  0.8190475E+02  0.7818608E-02  0.1323731E+00
          1   -1    0    0  501    0  0.00000000000E+00  0.00000000000E+00  0.11470246973E+02  0.11470248080E+02  0.50400000000E-02 0. -1.
         -2   -1    0    0    0  501 -0.00000000000E+00 -0.00000000000E+00 -0.14621278305E+03  0.14621278307E+03  0.25500000000E-02 0.  1.
        -24    2    1    2    0    0  0.17763568394E-14  0.00000000000E+00 -0.13474253608E+03  0.15768303115E+03  0.81904745191E+02 0.  0.
         66    2    3    3    0    0 -0.12855901682E+02  0.17071754032E+02 -0.13461082091E+03  0.13631137921E+03  0.20000003842E+01 0.  0.
         13    1    3    3    0    0  0.12855901682E+02 -0.17071754032E+02 -0.13171516374E+00  0.21371651942E+02  0.10566000000E+00 0. -1.
         13    1    4    4    0    0 -0.75719472505E+01  0.96940069468E+01 -0.76245341772E+02  0.77231285512E+02  0.10566000000E+00 0. -1.
        -13    1    4    4    0    0 -0.23731075130E+01  0.42637557689E+01 -0.29312126466E+02  0.29715705856E+02  0.10566000000E+00 0.  1.
        -14    1    4    4    0    0 -0.29108469183E+01  0.31139913167E+01 -0.29053352673E+02  0.29364387841E+02  0.00000000000E+00 0.  1.
<mgrwt>
<rscale>  0 0.81904745E+02</rscale>
<asrwt>0</asrwt>
<pdfrwt beam="1">  1        1 0.17646536E-02 0.81904745E+02</pdfrwt>
<pdfrwt beam="2">  1       -2 0.22494273E-01 0.81904745E+02</pdfrwt>
<totfact> 0.89698814E+04</totfact>
</mgrwt>
</event>
<event>
 8    1  0.8577104E-018  0.7757696E+02  0.7818608E-02  0.1336072E+00
         -2   -1    0    0    0  501 -0.00000000000E+00  0.00000000000E+00  0.19159801727E+02  0.19159801897E+02  0.25500000000E-02 0.  1.
          1   -1    0    0  501    0  0.00000000000E+00 -0.00000000000E+00 -0.78526189221E+02  0.78526189383E+02  0.50400000000E-02 0. -1.
        -24    2    1    2    0    0  0.00000000000E+00  0.00000000000E+00 -0.59366387494E+02  0.97685991280E+02  0.77576961323E+02 0.  0.
         66    2    3    3    0    0  0.13959441484E+02  0.85017129612E+01  0.14556240028E+02  0.21977925965E+02  0.19999940298E+01 0.  0.
         13    1    3    3    0    0 -0.13959441484E+02 -0.85017129612E+01 -0.73922627523E+02  0.75708065315E+02  0.10566000000E+00 0. -1.
         13    1    4    4    0    0  0.60198920273E+00  0.46249383190E+00  0.38092777074E+00  0.85589809375E+00  0.10566000000E+00 0. -1.
        -13    1    4    4    0    0  0.48037668747E+01  0.36079632758E+01  0.59246450671E+01  0.84383741557E+01  0.10566000000E+00 0.  1.
        -14    1    4    4    0    0  0.85536854069E+01  0.44312558536E+01  0.82506671907E+01  0.12683653715E+02  0.00000000000E+00 0.  1.
<mgrwt>
<rscale>  0 0.77576961E+02</rscale>
<asrwt>0</asrwt>
<pdfrwt beam="1">  1        1 0.12080952E-01 0.77576961E+02</pdfrwt>
<pdfrwt beam="2">  1       -2 0.29476619E-02 0.77576961E+02</pdfrwt>
<totfact> 0.15359628E+05</totfact>
</mgrwt>
</event>
<event>
 8    1  0.8577104E-018  0.7950941E+02  0.7818608E-02  0.1330449E+00
         -2   -1    0    0    0  501 -0.00000000000E+00  0.00000000000E+00  0.19764860819E+03  0.19764860821E+03  0.25500000000E-02 0.  1.
          1   -1    0    0  501    0  0.00000000000E+00 -0.00000000000E+00 -0.79961934580E+01  0.79961950463E+01  0.50400000000E-02 0. -1.
        -24    2    1    2    0    0  0.00000000000E+00  0.00000000000E+00  0.18965241474E+03  0.20564480326E+03  0.79509412596E+02 0.  0.
         66    2    3    3    0    0 -0.17207450250E+02 -0.10447108054E+02  0.18347589331E+03  0.18458776187E+03  0.19999995610E+01 0.  0.
         13    1    3    3    0    0  0.17207450250E+02  0.10447108054E+02  0.61765214299E+01  0.21057041383E+02  0.10566000000E+00 0. -1.
         13    1    4    4    0    0 -0.60914889731E+01 -0.32214820935E+01  0.69888920448E+02  0.70227890116E+02  0.10566000000E+00 0. -1.
        -13    1    4    4    0    0 -0.47404589700E+01 -0.31384730802E+01  0.51322978123E+02  0.51637013973E+02  0.10566000000E+00 0.  1.
         14    1    4    4    0    0 -0.63755023069E+01 -0.40871528804E+01  0.62263994736E+02  0.62722857785E+02  0.00000000000E+00 0. -1.
<mgrwt>
<rscale>  0 0.79509413E+02</rscale>
<asrwt>0</asrwt>
<pdfrwt beam="1">  1        1 0.12301837E-02 0.79509413E+02</pdfrwt>
<pdfrwt beam="2">  1       -2 0.30407478E-01 0.79509413E+02</pdfrwt>
<totfact> 0.86850321E+04</totfact>
</mgrwt>
</event>
<event>
 8    1  0.8577104E-018  0.7967016E+02  0.7818608E-02  0.1329990E+00
         -2   -1    0    0    0  501 -0.00000000000E+00  0.00000000000E+00  0.97077257283E+02  0.97077257317E+02  0.25500000000E-02 0.  1.
          1   -1    0    0  501    0  0.00000000000E+00 -0.00000000000E+00 -0.16346089955E+02  0.16346090732E+02  0.50400000000E-02 0. -1.
        -24    2    1    2    0    0  0.00000000000E+00  0.00000000000E+00  0.80731167329E+02  0.11342334805E+03  0.79670160689E+02 0.  0.
         66    2    3    3    0    0  0.51465809104E+01  0.29185010789E+02  0.78234021193E+02  0.83682819259E+02  0.20000043242E+01 0.  0.
         13    1    3    3    0    0 -0.51465809104E+01 -0.29185010789E+02  0.24971461354E+01  0.29740528789E+02  0.10566000000E+00 0. -1.
         13    1    4    4    0    0  0.25588385305E+00  0.51613514950E+01  0.14277551482E+02  0.15184355968E+02  0.10566000000E+00 0. -1.
        -13    1    4    4    0    0  0.19107172126E+01  0.98966539779E+01  0.25342612327E+02  0.27273682623E+02  0.10566000000E+00 0.  1.
         14    1    4    4    0    0  0.29799798447E+01  0.14127005316E+02  0.38613857384E+02  0.41224780669E+02  0.00000000000E+00 0. -1.
<mgrwt>
<rscale>  0 0.79670161E+02</rscale>
<asrwt>0</asrwt>
<pdfrwt beam="1">  1        1 0.25147831E-02 0.79670161E+02</pdfrwt>
<pdfrwt beam="2">  1       -2 0.14934963E-01 0.79670161E+02</pdfrwt>
<totfact> 0.10804078E+05</totfact>
</mgrwt>
</event>
<event>
 8    1  0.8577104E-018  0.8053122E+02  0.7818608E-02  0.1327551E+00
          1   -1    0    0  501    0  0.00000000000E+00  0.00000000000E+00  0.47469665864E+03  0.47469665866E+03  0.50400000000E-02 0. -1.
         -2   -1    0    0    0  501 -0.00000000000E+00 -0.00000000000E+00 -0.34154843133E+01  0.34154852652E+01  0.25500000000E-02 0.  1.
        -24    2    1    2    0    0  0.00000000000E+00  0.00000000000E+00  0.47128117432E+03  0.47811214393E+03  0.80531216931E+02 0.  0.
         66    2    3    3    0    0  0.18608954572E+02 -0.19335852899E+02  0.41381035335E+03  0.41468443055E+03  0.19999998758E+01 0.  0.
         13    1    3    3    0    0 -0.18608954572E+02  0.19335852899E+02  0.57470820972E+02  0.63427713382E+02  0.10566000000E+00 0. -1.
         13    1    4    4    0    0  0.57581869956E+01 -0.68121855699E+01  0.14413364714E+03  0.14440942487E+03  0.10566000000E+00 0. -1.
        -13    1    4    4    0    0  0.53519576822E+01 -0.53753265876E+01  0.12144522577E+03  0.12168192805E+03  0.10566000000E+00 0.  1.
         14    1    4    4    0    0  0.74988098942E+01 -0.71483407420E+01  0.14823148044E+03  0.14859307763E+03  0.00000000000E+00 0. -1.
<mgrwt>
<rscale>  0 0.80531217E+02</rscale>
<asrwt>0</asrwt>
<pdfrwt beam="1">  1        1 0.73030290E-01 0.80531217E+02</pdfrwt>
<pdfrwt beam="2">  1       -2 0.52545895E-03 0.80531217E+02</pdfrwt>
<totfact> 0.19146871E+05</totfact>
</mgrwt>
</event>
<event>
 8    1  0.8577104E-018  0.7524428E+02  0.7818608E-02  0.1343116E+00
          1   -1    0    0  501    0  0.00000000000E+00  0.00000000000E+00  0.58208000940E+01  0.58208022760E+01  0.50400000000E-02 0. -1.
         -2   -1    0    0    0  501 -0.00000000000E+00 -0.00000000000E+00 -0.24316676171E+03  0.24316676173E+03  0.25500000000E-02 0.  1.
        -24    2    1    2    0    0  0.00000000000E+00  0.00000000000E+00 -0.23734596162E+03  0.24898756400E+03  0.75244279058E+02 0.  0.
         66    2    3    3    0    0 -0.24249161156E+01  0.37046786367E+02 -0.99158715716E+02  0.10589993109E+03  0.19999760064E+01 0.  0.
         13    1    3    3    0    0  0.24249161156E+01 -0.37046786367E+02 -0.13818724590E+03  0.14308763291E+03  0.10566000000E+00 0. -1.
         13    1    4    4    0    0  0.27510396170E-01  0.55652252112E+00 -0.10328779092E+01  0.11783356692E+01  0.10566000000E+00 0. -1.
        -13    1    4    4    0    0 -0.14270592454E+01  0.25269502961E+02 -0.67716284567E+02  0.72291705179E+02  0.10566000000E+00 0.  1.
        -14    1    4    4    0    0 -0.10253672664E+01  0.11220760885E+02 -0.30409553239E+02  0.32429890242E+02  0.00000000000E+00 0.  1.
<mgrwt>
<rscale>  0 0.75244279E+02</rscale>
<asrwt>0</asrwt>
<pdfrwt beam="1">  1        1 0.89550807E-03 0.75244279E+02</pdfrwt>
<pdfrwt beam="2">  1       -2 0.37410263E-01 0.75244279E+02</pdfrwt>
<totfact> 0.91495257E+04</totfact>
</mgrwt>
</event>
<event>
 8    1  0.8577104E-018  0.7779955E+02  0.7818608E-02  0.1335415E+00
          1   -1    0    0  501    0  0.00000000000E+00  0.00000000000E+00  0.34214204910E+01  0.34214242032E+01  0.50400000000E-02 0. -1.
         -2   -1    0    0    0  501 -0.00000000000E+00 -0.00000000000E+00 -0.44226997567E+03  0.44226997568E+03  0.25500000000E-02 0.  1.
        -24    2    1    2    0    0 -0.88817841970E-15  0.00000000000E+00 -0.43884855518E+03  0.44569139988E+03  0.77799547202E+02 0.  0.
         66    2    3    3    0    0  0.76616524595E+01  0.22714210474E+02 -0.39488544167E+03  0.39561742671E+03  0.19999991325E+01 0.  0.
         13    1    3    3    0    0 -0.76616524595E+01 -0.22714210474E+02 -0.43963113513E+02  0.50073973176E+02  0.10566000000E+00 0. -1.
         13    1    4    4    0    0  0.77458877120E+00  0.12307407073E+01 -0.26938088847E+02  0.26977518515E+02  0.10566000000E+00 0. -1.
        -13    1    4    4    0    0  0.43457218265E+01  0.15138103605E+02 -0.25518756603E+03  0.25567313605E+03  0.10566000000E+00 0.  1.
        -14    1    4    4    0    0  0.25413418618E+01  0.63453661620E+01 -0.11275978679E+03  0.11296677214E+03  0.00000000000E+00 0.  1.
<mgrwt>
<rscale>  0 0.77799547E+02</rscale>
<asrwt>0</asrwt>
<pdfrwt beam="1">  1        1 0.52637302E-03 0.77799547E+02</pdfrwt>
<pdfrwt beam="2">  1       -2 0.68041490E-01 0.77799547E+02</pdfrwt>
<totfact> 0.59278151E+04</totfact>
</mgrwt>
</event>
<event>
 8    1  0.8577104E-018  0.7755131E+02  0.7818608E-02  0.1336148E+00
          1   -1    0    0  501    0  0.00000000000E+00  0.00000000000E+00  0.65369631613E+01  0.65369651042E+01  0.50400000000E-02 0. -1.
         -2   -1    0    0    0  501 -0.00000000000E+00 -0.00000000000E+00 -0.23000757643E+03  0.23000757645E+03  0.25500000000E-02 0.  1.
        -24    2    1    2    0    0 -0.26645352591E-14  0.00000000000E+00 -0.22347061327E+03  0.23654454155E+03  0.77551306512E+02 0.  0.
         66    2    3    3    0    0  0.68465732676E+01 -0.11648518701E+02 -0.22258482705E+03  0.22300351741E+03  0.19999984796E+01 0.  0.
         13    1    3    3    0    0 -0.68465732676E+01  0.11648518701E+02 -0.88578622527E+00  0.13541024138E+02  0.10566000000E+00 0. -1.
         13    1    4    4    0    0  0.10337421275E+01 -0.27334025882E+01 -0.44889299413E+02  0.44984447072E+02  0.10566000000E+00 0. -1.
        -13    1    4    4    0    0  0.99150981855E+00 -0.97515269914E+00 -0.29195367218E+02  0.29228661371E+02  0.10566000000E+00 0.  1.
        -14    1    4    4    0    0  0.48213213216E+01 -0.79399634138E+01 -0.14850016042E+03  0.14879040897E+03  0.00000000000E+00 0.  1.
<mgrwt>
<rscale>  0 0.77551307E+02</rscale>
<asrwt>0</asrwt>
<pdfrwt beam="1">  1        1 0.10056870E-02 0.77551307E+02</pdfrwt>
<pdfrwt beam="2">  1       -2 0.35385775E-01 0.77551307E+02</pdfrwt>
<totfact> 0.86837216E+04</totfact>
</mgrwt>
</event>
<event>
 8    1  0.8577104E-018  0.8022575E+02  0.7818608E-02  0.1328412E+00
         -2   -1    0    0    0  501 -0.00000000000E+00  0.00000000000E+00  0.16750569348E+03  0.16750569350E+03  0.25500000000E-02 0.  1.
          1   -1    0    0  501    0  0.00000000000E+00 -0.00000000000E+00 -0.96058976259E+01  0.96058989481E+01  0.50400000000E-02 0. -1.
        -24    2    1    2    0    0  0.00000000000E+00  0.00000000000E+00  0.15789979585E+03  0.17711159245E+03  0.80225748039E+02 0.  0.
         66    2    3    3    0    0 -0.38721847205E+02  0.61295975583E+01  0.97480594448E+02  0.10508767642E+03  0.20000061084E+01 0.  0.
         13    1    3    3    0    0  0.38721847205E+02 -0.61295975583E+01  0.60419201405E+02  0.72023916025E+02  0.10566000000E+00 0. -1.
         13    1    4    4    0    0 -0.19050331541E+01  0.44596140400E+00  0.40444434617E+01  0.44940760833E+01  0.10566000000E+00 0. -1.
        -13    1    4    4    0    0 -0.52981510793E+00  0.10650715461E+00  0.15216893180E+01  0.16182553070E+01  0.10566000000E+00 0.  1.
         14    1    4    4    0    0 -0.36286998943E+02  0.55771289997E+01  0.91914461668E+02  0.98975345030E+02  0.00000000000E+00 0. -1.
<mgrwt>
<rscale>  0 0.80225748E+02</rscale>
<asrwt>0</asrwt>
<pdfrwt beam="1">  1        1 0.14778307E-02 0.80225748E+02</pdfrwt>
<pdfrwt beam="2">  1       -2 0.25770103E-01 0.80225748E+02</pdfrwt>
<totfact> 0.90351680E+04</totfact>
</mgrwt>
</event>
<event>
 8    1  0.1253736E-017  0.8075916E+02  0.7818608E-02  0.1326911E+00
          1   -1    0    0  501    0  0.00000000000E+00  0.00000000000E+00  0.12627760751E+03  0.12627760761E+03  0.50400000000E-02 0. -1.
         -2   -1    0    0    0  501 -0.00000000000E+00 -0.00000000000E+00 -0.12912111811E+02  0.12912112063E+02  0.25500000000E-02 0.  1.
        -24    2    1    2    0    0  0.00000000000E+00  0.00000000000E+00  0.11336549570E+03  0.13918971968E+03  0.80759163243E+02 0.  0.
         66    2    3    3    0    0  0.21425825905E+02 -0.10197067487E+02  0.45947658453E+00  0.23817164369E+02  0.19999997029E+01 0.  0.
         13    1    3    3    0    0 -0.21425825905E+02  0.10197067487E+02  0.11290601912E+03  0.11537255531E+03  0.10566000000E+00 0. -1.
         13    1    4    4    0    0  0.10234057980E+02 -0.45561812410E+01  0.11692240788E+00  0.11203551451E+02  0.10566000000E+00 0. -1.
        -13    1    4    4    0    0  0.10355257387E+02 -0.47783404299E+01  0.38153856021E+00  0.11411425350E+02  0.10566000000E+00 0.  1.
         14    1    4    4    0    0  0.83651053749E+00 -0.86254581636E+00 -0.38984383561E-01  0.12021875672E+01  0.00000000000E+00 0. -1.
<mgrwt>
<rscale>  0 0.80759163E+02</rscale>
<asrwt>0</asrwt>
<pdfrwt beam="1">  1        1 0.19427324E-01 0.80759163E+02</pdfrwt>
<pdfrwt beam="2">  1       -2 0.19864788E-02 0.80759163E+02</pdfrwt>
<totfact> 0.14920323E+05</totfact>
</mgrwt>
</event>
<event>
 8    1  0.8577104E-018  0.7973743E+02  0.7818608E-02  0.1329798E+00
          1   -1    0    0  501    0  0.00000000000E+00  0.00000000000E+00  0.18197987890E+01  0.18198057682E+01  0.50400000000E-02 0. -1.
         -2   -1    0    0    0  501 -0.00000000000E+00 -0.00000000000E+00 -0.87345453398E+03  0.87345453399E+03  0.25500000000E-02 0.  1.
        -24    2    1    2    0    0  0.00000000000E+00  0.00000000000E+00 -0.87163473519E+03  0.87527433976E+03  0.79737433096E+02 0.  0.
         66    2    3    3    0    0 -0.23214631032E+02 -0.13006545540E+02 -0.76161266454E+03  0.76208000900E+03  0.20000008608E+01 0.  0.
         13    1    3    3    0    0  0.23214631032E+02  0.13006545540E+02 -0.11002207065E+03  0.11319433076E+03  0.10566000000E+00 0. -1.
         13    1    4    4    0    0 -0.25197297268E+01 -0.12928045397E+01 -0.74903478061E+02  0.74957071522E+02  0.10566000000E+00 0. -1.
        -13    1    4    4    0    0 -0.42079813459E+01 -0.16433920302E+01 -0.13501070141E+03  0.13508630020E+03  0.10566000000E+00 0.  1.
        -14    1    4    4    0    0 -0.16486919959E+02 -0.10070348970E+02 -0.55169848507E+03  0.55203663727E+03  0.00000000000E+00 0.  1.
<mgrwt>
<rscale>  0 0.79737433E+02</rscale>
<asrwt>0</asrwt>
<pdfrwt beam="1">  1        1 0.27997028E-03 0.79737433E+02</pdfrwt>
<pdfrwt beam="2">  1       -2 0.13437729E+00 0.79737433E+02</pdfrwt>
<totfact> 0.30584826E+04</totfact>
</mgrwt>
</event>
<event>
 8    1  0.8577104E-018  0.8013301E+02  0.7818608E-02  0.1328674E+00
         -2   -1    0    0    0  501 -0.00000000000E+00  0.00000000000E+00  0.36004717831E+02  0.36004717921E+02  0.25500000000E-02 0.  1.
          1   -1    0    0  501    0  0.00000000000E+00 -0.00000000000E+00 -0.44586511050E+02  0.44586511335E+02  0.50400000000E-02 0. -1.
        -24    2    1    2    0    0 -0.35527136788E-14  0.35527136788E-14 -0.85817932186E+01  0.80591229256E+02  0.80133008543E+02 0.  0.
         66    2    3    3    0    0  0.31895161309E+02 -0.24151329673E+02 -0.26313065433E+01  0.40143639765E+02  0.19999998935E+01 0.  0.
         13    1    3    3    0    0 -0.31895161309E+02  0.24151329673E+02 -0.59504866754E+01  0.40447589491E+02  0.10566000000E+00 0. -1.
         13    1    4    4    0    0  0.12117463084E+02 -0.92185431661E+01 -0.70743931131E+00  0.15242246689E+02  0.10566000000E+00 0. -1.
        -13    1    4    4    0    0  0.14116025168E+02 -0.99708079053E+01 -0.92900060919E+00  0.17307610551E+02  0.10566000000E+00 0.  1.
         14    1    4    4    0    0  0.56616730574E+01 -0.49619786016E+01 -0.99486662276E+00  0.75937825258E+01  0.00000000000E+00 0. -1.
<mgrwt>
<rscale>  0 0.80133009E+02</rscale>
<asrwt>0</asrwt>
<pdfrwt beam="1">  1        1 0.68594633E-02 0.80133009E+02</pdfrwt>
<pdfrwt beam="2">  1       -2 0.55391874E-02 0.80133009E+02</pdfrwt>
<totfact> 0.12860936E+05</totfact>
</mgrwt>
</event>
<event>
 8    1  0.8577104E-018  0.7974739E+02  0.7818608E-02  0.1329770E+00
         -2   -1    0    0    0  501 -0.00000000000E+00  0.00000000000E+00  0.37800730943E+03  0.37800730943E+03  0.25500000000E-02 0.  1.
          1   -1    0    0  501    0  0.00000000000E+00 -0.00000000000E+00 -0.42060327383E+01  0.42060357579E+01  0.50400000000E-02 0. -1.
        -24    2    1    2    0    0  0.17763568394E-14  0.00000000000E+00  0.37380127669E+03  0.38221334519E+03  0.79747393624E+02 0.  0.
         66    2    3    3    0    0  0.96083398045E+01 -0.38631200195E+02  0.19561412182E+03  0.19963360057E+03  0.19999997711E+01 0.  0.
         13    1    3    3    0    0 -0.96083398045E+01  0.38631200195E+02  0.17818715487E+03  0.18257974463E+03  0.10566000000E+00 0. -1.
         13    1    4    4    0    0  0.14023209642E+01 -0.54737106527E+01  0.25063096696E+02  0.25692372261E+02  0.10566000000E+00 0. -1.
        -13    1    4    4    0    0  0.58804490648E+01 -0.25620766284E+02  0.13126153274E+03  0.13386786205E+03  0.10566000000E+00 0.  1.
         14    1    4    4    0    0  0.23255697756E+01 -0.75367232583E+01  0.39289492377E+02  0.40073366261E+02  0.00000000000E+00 0. -1.
<mgrwt>
<rscale>  0 0.79747394E+02</rscale>
<asrwt>0</asrwt>
<pdfrwt beam="1">  1        1 0.64708195E-03 0.79747394E+02</pdfrwt>
<pdfrwt beam="2">  1       -2 0.58154993E-01 0.79747394E+02</pdfrwt>
<totfact> 0.61810020E+04</totfact>
</mgrwt>
</event>
<event>
 8    1  0.8577104E-018  0.8114558E+02  0.7818608E-02  0.1325832E+00
          1   -1    0    0  501    0  0.00000000000E+00  0.00000000000E+00  0.41618285038E+03  0.41618285041E+03  0.50400000000E-02 0. -1.
         -2   -1    0    0    0  501 -0.00000000000E+00 -0.00000000000E+00 -0.39553558834E+01  0.39553567053E+01  0.25500000000E-02 0.  1.
        -24    2    1    2    0    0 -0.71054273576E-14  0.00000000000E+00  0.41222749449E+03  0.42013820711E+03  0.81145584350E+02 0.  0.
         66    2    3    3    0    0 -0.39943908086E+02 -0.30485002050E+01  0.17376505698E+03  0.17833424847E+03  0.20000008034E+01 0.  0.
         13    1    3    3    0    0  0.39943908086E+02  0.30485002050E+01  0.23846243752E+03  0.24180395865E+03  0.10566000000E+00 0. -1.
         13    1    4    4    0    0 -0.10821358502E+02 -0.10368563997E+01  0.49582359890E+02  0.50760205351E+02  0.10566000000E+00 0. -1.
        -13    1    4    4    0    0 -0.25798505413E+02 -0.13836504599E+01  0.11015772260E+03  0.11314686201E+03  0.10566000000E+00 0.  1.
        -14    1    4    4    0    0 -0.33240441713E+01 -0.62799334543E+00  0.14024974486E+02  0.14427181105E+02  0.00000000000E+00 0.  1.
<mgrwt>
<rscale>  0 0.81145584E+02</rscale>
<asrwt>0</asrwt>
<pdfrwt beam="1">  1        1 0.64028160E-01 0.81145584E+02</pdfrwt>
<pdfrwt beam="2">  1       -2 0.60851608E-03 0.81145584E+02</pdfrwt>
<totfact> 0.18413908E+05</totfact>
</mgrwt>
</event>
<event>
 8    1  0.8577104E-018  0.7695374E+02  0.7818608E-02  0.1337925E+00
         -2   -1    0    0    0  501 -0.00000000000E+00  0.00000000000E+00  0.43271131689E+03  0.43271131690E+03  0.25500000000E-02 0.  1.
          1   -1    0    0  501    0  0.00000000000E+00 -0.00000000000E+00 -0.34213774174E+01  0.34213811296E+01  0.50400000000E-02 0. -1.
        -24    2    1    2    0    0  0.00000000000E+00  0.00000000000E+00  0.42928993947E+03  0.43613269803E+03  0.76953740364E+02 0.  0.
         66    2    3    3    0    0  0.18013676039E+02  0.17610585959E+02  0.37942327473E+03  0.38026391713E+03  0.20000006735E+01 0.  0.
         13    1    3    3    0    0 -0.18013676039E+02 -0.17610585959E+02  0.49866664744E+02  0.55868780897E+02  0.10566000000E+00 0. -1.
         13    1    4    4    0    0  0.12316410695E+01  0.13280405040E+01  0.26866653383E+02  0.26927845427E+02  0.10566000000E+00 0. -1.
        -13    1    4    4    0    0  0.15768306667E+02  0.14593838802E+02  0.32189837206E+03  0.32261461952E+03  0.10566000000E+00 0.  1.
         14    1    4    4    0    0  0.10137283021E+01  0.16887066528E+01  0.30658249283E+02  0.30721452184E+02  0.00000000000E+00 0. -1.
<mgrwt>
<rscale>  0 0.76953740E+02</rscale>
<asrwt>0</asrwt>
<pdfrwt beam="1">  1        1 0.52636599E-03 0.76953740E+02</pdfrwt>
<pdfrwt beam="2">  1       -2 0.66570979E-01 0.76953740E+02</pdfrwt>
<totfact> 0.61916395E+04</totfact>
</mgrwt>
</event>
<event>
 8    1  0.8577104E-018  0.7946242E+02  0.7818608E-02  0.1330584E+00
         -2   -1    0    0    0  501 -0.00000000000E+00  0.00000000000E+00  0.13513305863E+02  0.13513306103E+02  0.25500000000E-02 0.  1.
          1   -1    0    0  501    0  0.00000000000E+00 -0.00000000000E+00 -0.11681588836E+03  0.11681588847E+03  0.50400000000E-02 0. -1.
        -24    2    1    2    0    0  0.71054273576E-14  0.00000000000E+00 -0.10330258250E+03  0.13032919458E+03  0.79462415061E+02 0.  0.
         66    2    3    3    0    0  0.32313420471E+02 -0.22628153403E+02 -0.59086993521E+02  0.71073646803E+02  0.19999993938E+01 0.  0.
         13    1    3    3    0    0 -0.32313420471E+02  0.22628153403E+02 -0.44215588981E+02  0.59255547773E+02  0.10566000000E+00 0. -1.
         13    1    4    4    0    0  0.21663099470E+01 -0.14745550380E+01 -0.33482989722E+01  0.42531730966E+01  0.10566000000E+00 0. -1.
        -13    1    4    4    0    0  0.14487318203E+02 -0.10873091197E+02 -0.26769996556E+02  0.32322598604E+02  0.10566000000E+00 0.  1.
        -14    1    4    4    0    0  0.15659792321E+02 -0.10280507168E+02 -0.28968697993E+02  0.34497875103E+02  0.00000000000E+00 0.  1.
<mgrwt>
<rscale>  0 0.79462415E+02</rscale>
<asrwt>0</asrwt>
<pdfrwt beam="1">  1        1 0.17971675E-01 0.79462415E+02</pdfrwt>
<pdfrwt beam="2">  1       -2 0.20789702E-02 0.79462415E+02</pdfrwt>
<totfact> 0.15371485E+05</totfact>
</mgrwt>
</event>
<event>
 8    1  0.8577104E-018  0.8101206E+02  0.7818608E-02  0.1326204E+00
         -2   -1    0    0    0  501 -0.00000000000E+00  0.00000000000E+00  0.14197140050E+02  0.14197140279E+02  0.25500000000E-02 0.  1.
          1   -1    0    0  501    0  0.00000000000E+00 -0.00000000000E+00 -0.11556824815E+03  0.11556824826E+03  0.50400000000E-02 0. -1.
        -24    2    1    2    0    0  0.71054273576E-14 -0.55511151231E-16 -0.10137110810E+03  0.12976538854E+03  0.81012063949E+02 0.  0.
         66    2    3    3    0    0  0.40406797226E+02 -0.14285567134E+00 -0.46791458877E+02  0.61856044976E+02  0.20000016217E+01 0.  0.
         13    1    3    3    0    0 -0.40406797226E+02  0.14285567134E+00 -0.54579649222E+02  0.67909343562E+02  0.10566000000E+00 0. -1.
         13    1    4    4    0    0  0.28540767289E+01  0.18445123988E+00 -0.30658162543E+01  0.41940636113E+01  0.10566000000E+00 0. -1.
        -13    1    4    4    0    0  0.23544907158E+02 -0.12034878734E+00 -0.28602608542E+02  0.37047233585E+02  0.10566000000E+00 0.  1.
         14    1    4    4    0    0  0.14007813339E+02 -0.20695812388E+00 -0.15123034080E+02  0.20614747779E+02  0.00000000000E+00 0. -1.
<mgrwt>
<rscale>  0 0.81012064E+02</rscale>
<asrwt>0</asrwt>
<pdfrwt beam="1">  1        1 0.17779730E-01 0.81012064E+02</pdfrwt>
<pdfrwt beam="2">  1       -2 0.21841755E-02 0.81012064E+02</pdfrwt>
<totfact> 0.14565597E+05</totfact>
</mgrwt>
</event>
<event>
 8    1  0.8577104E-018  0.7956073E+02  0.7818608E-02  0.1330303E+00
          1   -1    0    0  501    0  0.00000000000E+00  0.00000000000E+00  0.25807359582E+02  0.25807360074E+02  0.50400000000E-02 0. -1.
         -2   -1    0    0    0  501 -0.00000000000E+00 -0.00000000000E+00 -0.61318845979E+02  0.61318846032E+02  0.25500000000E-02 0.  1.
        -24    2    1    2    0    0  0.17763568394E-14  0.00000000000E+00 -0.35511486398E+02  0.87126206106E+02  0.79560732301E+02 0.  0.
         66    2    3    3    0    0 -0.95034534825E+01  0.37290450818E+01 -0.59842516814E+02  0.60740004968E+02  0.19999948863E+01 0.  0.
         13    1    3    3    0    0  0.95034534825E+01 -0.37290450818E+01  0.24331030417E+02  0.26386201138E+02  0.10566000000E+00 0. -1.
         13    1    4    4    0    0 -0.30630915786E+01  0.18336360254E+01 -0.24279804171E+02  0.24541084037E+02  0.10566000000E+00 0. -1.
        -13    1    4    4    0    0 -0.42199261526E+01  0.87107945948E+00 -0.23037836837E+02  0.23437569122E+02  0.10566000000E+00 0.  1.
         14    1    4    4    0    0 -0.22204357512E+01  0.10243295969E+01 -0.12524875807E+02  0.12761351810E+02  0.00000000000E+00 0. -1.
<mgrwt>
<rscale>  0 0.79560732E+02</rscale>
<asrwt>0</asrwt>
<pdfrwt beam="1">  1        1 0.39703631E-02 0.79560732E+02</pdfrwt>
<pdfrwt beam="2">  1       -2 0.94336686E-02 0.79560732E+02</pdfrwt>
<totfact> 0.11956237E+05</totfact>
</mgrwt>
</event>
<event>
 8    1  0.8577104E-018  0.7764957E+02  0.7818608E-02  0.1335857E+00
         -2   -1    0    0    0  501 -0.00000000000E+00  0.00000000000E+00  0.11667646792E+03  0.11667646794E+03  0.25500000000E-02 0.  1.
          1   -1    0    0  501    0  0.00000000000E+00 -0.00000000000E+00 -0.12919177806E+02  0.12919178789E+02  0.50400000000E-02 0. -1.
        -24    2    1    2    0    0  0.35527136788E-14  0.00000000000E+00  0.10375729011E+03  0.12959564673E+03  0.77649574378E+02 0.  0.
         66    2    3    3    0    0  0.18400715999E+02 -0.34125984491E+02  0.49443094089E+02  0.62863254147E+02  0.20000005065E+01 0.  0.
         13    1    3    3    0    0 -0.18400715999E+02  0.34125984491E+02  0.54314196020E+02  0.66732392585E+02  0.10566000000E+00 0. -1.
         13    1    4    4    0    0  0.25482244096E+01 -0.48658498654E+01  0.74062989415E+01  0.92214082765E+01  0.10566000000E+00 0. -1.
        -13    1    4    4    0    0  0.77433069238E+01 -0.13938220773E+02  0.18806103744E+02  0.24655901981E+02  0.10566000000E+00 0.  1.
        -14    1    4    4    0    0  0.81091846659E+01 -0.15321913853E+02  0.23230691404E+02  0.28985943890E+02  0.00000000000E+00 0.  1.
<mgrwt>
<rscale>  0 0.77649574E+02</rscale>
<asrwt>0</asrwt>
<pdfrwt beam="1">  1        1 0.19875659E-02 0.77649574E+02</pdfrwt>
<pdfrwt beam="2">  1       -2 0.17950226E-01 0.77649574E+02</pdfrwt>
<totfact> 0.11003668E+05</totfact>
</mgrwt>
</event>
<event>
 8    1  0.8577104E-018  0.8052429E+02  0.7818608E-02  0.1327570E+00
         -2   -1    0    0    0  501 -0.00000000000E+00  0.00000000000E+00  0.31678787631E+03  0.31678787632E+03  0.25500000000E-02 0.  1.
          1   -1    0    0  501    0  0.00000000000E+00 -0.00000000000E+00 -0.51171149467E+01  0.51171174287E+01  0.50400000000E-02 0. -1.
        -24    2    1    2    0    0  0.17763568394E-14  0.71054273576E-14  0.31167076136E+03  0.32190499375E+03  0.80524291438E+02 0.  0.
         66    2    3    3    0    0 -0.87063468492E+01 -0.35861421257E+02  0.22004197396E+03  0.22312398416E+03  0.19999984445E+01 0.  0.
         13    1    3    3    0    0  0.87063468492E+01  0.35861421257E+02  0.91628787397E+02  0.98781009581E+02  0.10566000000E+00 0. -1.
         13    1    4    4    0    0 -0.27299888793E+01 -0.13775017877E+02  0.82258676681E+02  0.83448816709E+02  0.10566000000E+00 0. -1.
        -13    1    4    4    0    0 -0.30514934234E+01 -0.94420703383E+01  0.57733997057E+02  0.58580627212E+02  0.10566000000E+00 0.  1.
         14    1    4    4    0    0 -0.29248645465E+01 -0.12644333042E+02  0.80049300226E+02  0.81094540243E+02  0.00000000000E+00 0. -1.
<mgrwt>
<rscale>  0 0.80524291E+02</rscale>
<asrwt>0</asrwt>
<pdfrwt beam="1">  1        1 0.78724829E-03 0.80524291E+02</pdfrwt>
<pdfrwt beam="2">  1       -2 0.48736618E-01 0.80524291E+02</pdfrwt>
<totfact> 0.67038496E+04</totfact>
</mgrwt>
</event>
<event>
 8    1  0.8577104E-018  0.8011412E+02  0.7818608E-02  0.1328728E+00
          1   -1    0    0  501    0  0.00000000000E+00  0.00000000000E+00  0.53732187989E+01  0.53732211627E+01  0.50400000000E-02 0. -1.
         -2   -1    0    0    0  501 -0.00000000000E+00 -0.00000000000E+00 -0.29862314950E+03  0.29862314951E+03  0.25500000000E-02 0.  1.
        -24    2    1    2    0    0 -0.35527136788E-14  0.00000000000E+00 -0.29324993070E+03  0.30399637067E+03  0.80114115651E+02 0.  0.
         66    2    3    3    0    0 -0.19302447917E+02 -0.34079601448E+02 -0.17813507810E+03  0.18240095882E+03  0.19999995743E+01 0.  0.
         13    1    3    3    0    0  0.19302447917E+02  0.34079601448E+02 -0.11511485260E+03  0.12159541185E+03  0.10566000000E+00 0. -1.
         13    1    4    4    0    0 -0.45368218842E+01 -0.72352022872E+01 -0.40921071153E+02  0.41802824465E+02  0.10566000000E+00 0. -1.
        -13    1    4    4    0    0 -0.12901284028E+02 -0.22708308905E+02 -0.11799308606E+03  0.12084903783E+03  0.10566000000E+00 0.  1.
        -14    1    4    4    0    0 -0.18643420045E+01 -0.41360902554E+01 -0.19220920892E+02  0.19749096528E+02  0.00000000000E+00 0.  1.
<mgrwt>
<rscale>  0 0.80114116E+02</rscale>
<asrwt>0</asrwt>
<pdfrwt beam="1">  1        1 0.82664947E-03 0.80114116E+02</pdfrwt>
<pdfrwt beam="2">  1       -2 0.45942010E-01 0.80114116E+02</pdfrwt>
<totfact> 0.70186497E+04</totfact>
</mgrwt>
</event>
<event>
 8    1  0.8577104E-018  0.8436023E+02  0.7818608E-02  0.1317114E+00
          1   -1    0    0  501    0  0.00000000000E+00  0.00000000000E+00  0.59773359087E+01  0.59773380336E+01  0.50400000000E-02 0. -1.
         -2   -1    0    0    0  501 -0.00000000000E+00 -0.00000000000E+00 -0.29765128813E+03  0.29765128814E+03  0.25500000000E-02 0.  1.
        -24    2    1    2    0    0 -0.71054273576E-14  0.00000000000E+00 -0.29167395222E+03  0.30362862618E+03  0.84360228949E+02 0.  0.
         66    2    3    3    0    0 -0.30766903128E+02  0.20282036911E+02 -0.21960935729E+03  0.22268864622E+03  0.19999984808E+01 0.  0.
         13    1    3    3    0    0  0.30766903128E+02 -0.20282036911E+02 -0.72064594932E+02  0.80939979961E+02  0.10566000000E+00 0. -1.
         13    1    4    4    0    0 -0.23642442908E+01  0.16144307492E+01 -0.20317288724E+02  0.20518270465E+02  0.10566000000E+00 0.  1.
        -13    1    4    4    0    0 -0.23364136128E+02  0.15096185341E+02 -0.16332213945E+03  0.16567410802E+03  0.10566000000E+00 0.  1.
         14    1    4    4    0    0 -0.50385227092E+01  0.35714208213E+01 -0.35969929116E+02  0.36496267732E+02  0.00000000000E+00 0. -1.
<mgrwt>
<rscale>  0 0.84360229E+02</rscale>
<asrwt>0</asrwt>
<pdfrwt beam="1">  1        1 0.91959054E-03 0.84360229E+02</pdfrwt>
<pdfrwt beam="2">  1       -2 0.45792494E-01 0.84360229E+02</pdfrwt>
<totfact> 0.61512402E+04</totfact>
</mgrwt>
</event>
<event>
 8    1  0.8577104E-018  0.8125768E+02  0.7818608E-02  0.1325520E+00
          1   -1    0    0  501    0  0.00000000000E+00  0.00000000000E+00  0.16385141750E+01  0.16385219264E+01  0.50400000000E-02 0. -1.
         -2   -1    0    0    0  501 -0.00000000000E+00 -0.00000000000E+00 -0.10074364026E+04  0.10074364026E+04  0.25500000000E-02 0.  1.
        -24    2    1    2    0    0  0.00000000000E+00  0.00000000000E+00 -0.10057978884E+04  0.10090749245E+04  0.81257682432E+02 0.  0.
         66    2    3    3    0    0  0.24755753745E+02  0.25633492640E+01 -0.90160857417E+03  0.90195423338E+03  0.19999987024E+01 0.  0.
         13    1    3    3    0    0 -0.24755753745E+02 -0.25633492640E+01 -0.10418931423E+03  0.10712069112E+03  0.10566000000E+00 0. -1.
         13    1    4    4    0    0  0.10783210548E+01 -0.32000405475E-01 -0.48593718048E+02  0.48605806218E+02  0.10566000000E+00 0. -1.
        -13    1    4    4    0    0  0.24362191884E+01 -0.77861802980E-01 -0.94736409818E+02  0.94767820148E+02  0.10566000000E+00 0.  1.
        -14    1    4    4    0    0  0.21241213502E+02  0.26732114725E+01 -0.75827844630E+03  0.75858060701E+03  0.00000000000E+00 0.  1.
<mgrwt>
<rscale>  0 0.81257682E+02</rscale>
<asrwt>0</asrwt>
<pdfrwt beam="1">  1        1 0.25208051E-03 0.81257682E+02</pdfrwt>
<pdfrwt beam="2">  1       -2 0.15498972E+00 0.81257682E+02</pdfrwt>
<totfact> 0.24833723E+04</totfact>
</mgrwt>
</event>
<event>
 8    1  0.8577104E-018  0.7947445E+02  0.7818608E-02  0.1330550E+00
         -2   -1    0    0    0  501 -0.00000000000E+00  0.00000000000E+00  0.17878398167E+03  0.17878398169E+03  0.25500000000E-02 0.  1.
          1   -1    0    0  501    0  0.00000000000E+00 -0.00000000000E+00 -0.88321506242E+01  0.88321520623E+01  0.50400000000E-02 0. -1.
        -24    2    1    2    0    0 -0.17763568394E-14  0.00000000000E+00  0.16995183105E+03  0.18761613375E+03  0.79474453554E+02 0.  0.
         66    2    3    3    0    0  0.12771967213E+02  0.81735579197E+01  0.17167477653E+03  0.17235474782E+03  0.20000006725E+01 0.  0.
         13    1    3    3    0    0 -0.12771967213E+02 -0.81735579197E+01 -0.17229454808E+01  0.15261385937E+02  0.10566000000E+00 0. -1.
         13    1    4    4    0    0  0.66025829575E+01  0.45748912143E+01  0.89980090577E+02  0.90337985341E+02  0.10566000000E+00 0. -1.
        -13    1    4    4    0    0  0.48034833737E+01  0.30574855278E+01  0.69738419368E+02  0.69970565028E+02  0.10566000000E+00 0.  1.
         14    1    4    4    0    0  0.13659008821E+01  0.54118117762E+00  0.11956266585E+02  0.12046197447E+02  0.00000000000E+00 0. -1.
<mgrwt>
<rscale>  0 0.79474454E+02</rscale>
<asrwt>0</asrwt>
<pdfrwt beam="1">  1        1 0.13587925E-02 0.79474454E+02</pdfrwt>
<pdfrwt beam="2">  1       -2 0.27505227E-01 0.79474454E+02</pdfrwt>
<totfact> 0.90397487E+04</totfact>
</mgrwt>
</event>
<event>
 8    1  0.8577104E-018  0.7840824E+02  0.7818608E-02  0.1333630E+00
         -2   -1    0    0    0  501 -0.00000000000E+00  0.00000000000E+00  0.66503571061E+02  0.66503571110E+02  0.25500000000E-02 0.  1.
          1   -1    0    0  501    0  0.00000000000E+00 -0.00000000000E+00 -0.23110981728E+02  0.23110982278E+02  0.50400000000E-02 0. -1.
        -24    2    1    2    0    0  0.00000000000E+00  0.71054273576E-14  0.43392589333E+02  0.89614553388E+02  0.78408235345E+02 0.  0.
         66    2    3    3    0    0 -0.17618661227E+02 -0.32272310866E+02  0.37173175435E+02  0.52323649064E+02  0.20000018579E+01 0.  0.
         13    1    3    3    0    0  0.17618661227E+02  0.32272310866E+02  0.62194138977E+01  0.37290904324E+02  0.10566000000E+00 0. -1.
         13    1    4    4    0    0 -0.77044997754E+01 -0.13281443205E+02  0.15501034087E+02  0.21818553394E+02  0.10566000000E+00 0. -1.
        -13    1    4    4    0    0 -0.65344159577E+01 -0.12983220436E+02  0.13819255380E+02  0.20056061131E+02  0.10566000000E+00 0.  1.
         14    1    4    4    0    0 -0.33797454937E+01 -0.60076472253E+01  0.78528859678E+01  0.10449034540E+02  0.00000000000E+00 0. -1.
<mgrwt>
<rscale>  0 0.78408235E+02</rscale>
<asrwt>0</asrwt>
<pdfrwt beam="1">  1        1 0.35555357E-02 0.78408235E+02</pdfrwt>
<pdfrwt beam="2">  1       -2 0.10231319E-01 0.78408235E+02</pdfrwt>
<totfact> 0.12215505E+05</totfact>
</mgrwt>
</event>
<event>
 8    1  0.8577104E-018  0.7695901E+02  0.7818608E-02  0.1337910E+00
         -2   -1    0    0    0  501 -0.00000000000E+00  0.00000000000E+00  0.26563361196E+02  0.26563361318E+02  0.25500000000E-02 0.  1.
          1   -1    0    0  501    0  0.00000000000E+00 -0.00000000000E+00 -0.55741142609E+02  0.55741142837E+02  0.50400000000E-02 0. -1.
        -24    2    1    2    0    0  0.00000000000E+00  0.00000000000E+00 -0.29177781414E+02  0.82304504155E+02  0.76959005165E+02 0.  0.
         66    2    3    3    0    0  0.26767070979E+02  0.14208712863E+02  0.10716163393E+02  0.32205585940E+02  0.19999994769E+01 0.  0.
         13    1    3    3    0    0 -0.26767070979E+02 -0.14208712863E+02 -0.39893944807E+02  0.50098918215E+02  0.10566000000E+00 0. -1.
         13    1    4    4    0    0  0.65326902195E+01  0.25528093782E+01  0.24240985130E+01  0.74216099913E+01  0.10566000000E+00 0. -1.
        -13    1    4    4    0    0  0.15819557937E+02  0.92949576382E+01  0.65954632737E+01  0.19497844769E+02  0.10566000000E+00 0.  1.
        -14    1    4    4    0    0  0.44148228220E+01  0.23609458467E+01  0.16966016063E+01  0.52861311799E+01  0.00000000000E+00 0.  1.
<mgrwt>
<rscale>  0 0.76959005E+02</rscale>
<asrwt>0</asrwt>
<pdfrwt beam="1">  1        1 0.85755604E-02 0.76959005E+02</pdfrwt>
<pdfrwt beam="2">  1       -2 0.40866710E-02 0.76959005E+02</pdfrwt>
<totfact> 0.14892745E+05</totfact>
</mgrwt>
</event>
<event>
 8    1  0.8577104E-018  0.8144212E+02  0.7818608E-02  0.1325008E+00
          1   -1    0    0  501    0  0.00000000000E+00  0.00000000000E+00  0.46858261201E+02  0.46858261472E+02  0.50400000000E-02 0. -1.
         -2   -1    0    0    0  501 -0.00000000000E+00 -0.00000000000E+00 -0.35387666776E+02  0.35387666868E+02  0.25500000000E-02 0.  1.
        -24    2    1    2    0    0  0.00000000000E+00  0.17763568394E-14  0.11470594424E+02  0.82245928340E+02  0.81442115592E+02 0.  0.
         66    2    3    3    0    0  0.13903943818E+02 -0.81057927189E+01 -0.32008991054E+02  0.35883130250E+02  0.19999997290E+01 0.  0.
         13    1    3    3    0    0 -0.13903943818E+02  0.81057927189E+01  0.43479585479E+02  0.46362798090E+02  0.10566000000E+00 0. -1.
         13    1    4    4    0    0  0.77827561235E+01 -0.42225170715E+01 -0.15664333520E+02  0.17993983771E+02  0.10566000000E+00 0. -1.
        -13    1    4    4    0    0  0.47400953399E+00 -0.17819351969E+00 -0.11654777355E+01  0.12751236632E+01  0.10566000000E+00 0.  1.
        -14    1    4    4    0    0  0.56471781607E+01 -0.37050821277E+01 -0.15179179798E+02  0.16614022815E+02  0.00000000000E+00 0.  1.
<mgrwt>
<rscale>  0 0.81442116E+02</rscale>
<asrwt>0</asrwt>
<pdfrwt beam="1">  1        1 0.72089633E-02 0.81442116E+02</pdfrwt>
<pdfrwt beam="2">  1       -2 0.54442564E-02 0.81442116E+02</pdfrwt>
<totfact> 0.12388658E+05</totfact>
</mgrwt>
</event>
<event>
 8    1  0.8577104E-018  0.7957524E+02  0.7818608E-02  0.1330261E+00
         -2   -1    0    0    0  501 -0.00000000000E+00  0.00000000000E+00  0.10036271497E+02  0.10036271821E+02  0.25500000000E-02 0.  1.
          1   -1    0    0  501    0  0.00000000000E+00 -0.00000000000E+00 -0.15773332711E+03  0.15773332719E+03  0.50400000000E-02 0. -1.
        -24    2    1    2    0    0  0.00000000000E+00 -0.35527136788E-14 -0.14769705561E+03  0.16776959901E+03  0.79575235566E+02 0.  0.
         66    2    3    3    0    0 -0.25596833110E+02 -0.30242095096E+02 -0.80972012093E+02  0.90167892986E+02  0.20000005371E+01 0.  0.
         13    1    3    3    0    0  0.25596833110E+02  0.30242095096E+02 -0.66725043516E+02  0.77601706021E+02  0.10566000000E+00 0. -1.
         13    1    4    4    0    0 -0.36906663809E+01 -0.53465374747E+01 -0.12872169372E+02  0.14419098088E+02  0.10566000000E+00 0. -1.
        -13    1    4    4    0    0 -0.12400794494E+02 -0.14076607924E+02 -0.37644516476E+02  0.42060092481E+02  0.10566000000E+00 0.  1.
         14    1    4    4    0    0 -0.95053722346E+01 -0.10818949698E+02 -0.30455326245E+02  0.33688702417E+02  0.00000000000E+00 0. -1.
<mgrwt>
<rscale>  0 0.79575236E+02</rscale>
<asrwt>0</asrwt>
<pdfrwt beam="1">  1        1 0.24266664E-01 0.79575236E+02</pdfrwt>
<pdfrwt beam="2">  1       -2 0.15440419E-02 0.79575236E+02</pdfrwt>
<totfact> 0.16164290E+05</totfact>
</mgrwt>
</event>
<event>
 8    1  0.9415704E-018  0.8020058E+02  0.7818608E-02  0.1328483E+00
          1   -1    0    0  501    0  0.00000000000E+00  0.00000000000E+00  0.11740740950E+03  0.11740740961E+03  0.50400000000E-02 0. -1.
         -2   -1    0    0    0  501 -0.00000000000E+00 -0.00000000000E+00 -0.13696181462E+02  0.13696181700E+02  0.25500000000E-02 0.  1.
        -24    2    1    2    0    0 -0.35527136788E-14 -0.17763568394E-14  0.10371122804E+03  0.13110359131E+03  0.80200578755E+02 0.  0.
         66    2    3    3    0    0 -0.16999294979E+02  0.15678519399E+02 -0.16154231140E+01  0.23268037768E+02  0.19999973528E+01 0.  0.
         13    1    3    3    0    0  0.16999294979E+02 -0.15678519399E+02  0.10532665115E+03  0.10783555354E+03  0.10566000000E+00 0. -1.
         13    1    4    4    0    0 -0.54500748861E+01  0.50693103631E+01  0.33002589891E+00  0.74512619704E+01  0.10566000000E+00 0. -1.
        -13    1    4    4    0    0 -0.71106925548E+01  0.65875102733E+01 -0.88453134320E+00  0.97340022572E+01  0.10566000000E+00 0.  1.
         14    1    4    4    0    0 -0.44385275385E+01  0.40216987623E+01 -0.10609176697E+01  0.60827735406E+01  0.00000000000E+00 0. -1.
<mgrwt>
<rscale>  0 0.80200579E+02</rscale>
<asrwt>0</asrwt>
<pdfrwt beam="1">  1        1 0.18062679E-01 0.80200579E+02</pdfrwt>
<pdfrwt beam="2">  1       -2 0.21071048E-02 0.80200579E+02</pdfrwt>
<totfact> 0.15007179E+05</totfact>
</mgrwt>
</event>
<event>
 8    1  0.8577104E-018  0.8300660E+02  0.7818608E-02  0.1320729E+00
         -2   -1    0    0    0  501 -0.00000000000E+00  0.00000000000E+00  0.14494578226E+03  0.14494578228E+03  0.25500000000E-02 0.  1.
          1   -1    0    0  501    0  0.00000000000E+00 -0.00000000000E+00 -0.11883918261E+02  0.11883919330E+02  0.50400000000E-02 0. -1.
        -24    2    1    2    0    0  0.00000000000E+00  0.88817841970E-15  0.13306186400E+03  0.15682970161E+03  0.83006600080E+02 0.  0.
         66    2    3    3    0    0 -0.38334135253E+02 -0.72463158346E+01  0.93188967294E+02  0.10104552756E+03  0.19999990523E+01 0.  0.
         13    1    3    3    0    0  0.38334135253E+02  0.72463158346E+01  0.39872896704E+02  0.55784174049E+02  0.10566000000E+00 0. -1.
         13    1    4    4    0    0 -0.17909491140E+02 -0.42160266166E+01  0.44567585156E+02  0.48216237556E+02  0.10566000000E+00 0.  1.
        -13    1    4    4    0    0 -0.77718388061E+01 -0.10098730105E+01  0.19275014195E+02  0.20807658642E+02  0.10566000000E+00 0. -1.
        -14    1    4    4    0    0 -0.12652805306E+02 -0.20204162075E+01  0.29346367942E+02  0.32021631363E+02  0.00000000000E+00 0.  1.
<mgrwt>
<rscale>  0 0.83006600E+02</rscale>
<asrwt>0</asrwt>
<pdfrwt beam="1">  1        1 0.18282953E-02 0.83006600E+02</pdfrwt>
<pdfrwt beam="2">  1       -2 0.22299350E-01 0.83006600E+02</pdfrwt>
<totfact> 0.86906379E+04</totfact>
</mgrwt>
</event>
<event>
 8    1  0.8577104E-018  0.8005752E+02  0.7818608E-02  0.1328888E+00
         -2   -1    0    0    0  501 -0.00000000000E+00  0.00000000000E+00  0.27301697136E+02  0.27301697255E+02  0.25500000000E-02 0.  1.
          1   -1    0    0  501    0  0.00000000000E+00 -0.00000000000E+00 -0.58688721304E+02  0.58688721521E+02  0.50400000000E-02 0. -1.
        -24    2    1    2    0    0  0.35527136788E-14 -0.35527136788E-14 -0.31387024168E+02  0.85990418776E+02  0.80057522039E+02 0.  0.
         66    2    3    3    0    0  0.27691438816E+02 -0.13664408105E+02  0.11612975157E+02  0.33051369497E+02  0.20000002657E+01 0.  0.
         13    1    3    3    0    0 -0.27691438816E+02  0.13664408105E+02 -0.42999999325E+02  0.52939049279E+02  0.10566000000E+00 0. -1.
         13    1    4    4    0    0  0.62248580104E+01 -0.23520531075E+01  0.22843126740E+01  0.70363527128E+01  0.10566000000E+00 0. -1.
        -13    1    4    4    0    0  0.17367136238E+02 -0.87907516910E+01  0.77181902246E+01  0.20939827143E+02  0.10566000000E+00 0.  1.
         14    1    4    4    0    0  0.40994445677E+01 -0.25216033062E+01  0.16104722587E+01  0.50751896411E+01  0.00000000000E+00 0. -1.
<mgrwt>
<rscale>  0 0.80057522E+02</rscale>
<asrwt>0</asrwt>
<pdfrwt beam="1">  1        1 0.90290341E-02 0.80057522E+02</pdfrwt>
<pdfrwt beam="2">  1       -2 0.42002611E-02 0.80057522E+02</pdfrwt>
<totfact> 0.13464998E+05</totfact>
</mgrwt>
</event>
<event>
 8    1  0.8577104E-018  0.8046232E+02  0.7818608E-02  0.1327745E+00
         -2   -1    0    0    0  501 -0.00000000000E+00  0.00000000000E+00  0.40656372551E+02  0.40656372631E+02  0.25500000000E-02 0.  1.
          1   -1    0    0  501    0  0.00000000000E+00 -0.00000000000E+00 -0.39810390552E+02  0.39810390871E+02  0.50400000000E-02 0. -1.
        -24    2    1    2    0    0  0.17763568394E-14  0.35527136788E-14  0.84598199865E+00  0.80466763502E+02  0.80462316291E+02 0.  0.
         66    2    3    3    0    0  0.95097552081E+01  0.20287800863E+02  0.33809386658E+02  0.40609173023E+02  0.19999998613E+01 0.  0.
         13    1    3    3    0    0 -0.95097552081E+01 -0.20287800863E+02 -0.32963404660E+02  0.39857590479E+02  0.10566000000E+00 0. -1.
         13    1    4    4    0    0  0.45456502823E+01  0.11231885357E+02  0.18809206544E+02  0.22374440775E+02  0.10566000000E+00 0.  1.
        -13    1    4    4    0    0  0.27052807909E+01  0.54487452051E+01  0.81612415180E+01  0.10179606850E+02  0.10566000000E+00 0. -1.
        -14    1    4    4    0    0  0.22588241349E+01  0.36071703008E+01  0.68389385968E+01  0.80551253983E+01  0.00000000000E+00 0.  1.
<mgrwt>
<rscale>  0 0.80462316E+02</rscale>
<asrwt>0</asrwt>
<pdfrwt beam="1">  1        1 0.61246755E-02 0.80462316E+02</pdfrwt>
<pdfrwt beam="2">  1       -2 0.62548266E-02 0.80462316E+02</pdfrwt>
<totfact> 0.12483248E+05</totfact>
</mgrwt>
</event>
<event>
 8    1  0.8577104E-018  0.7898239E+02  0.7818608E-02  0.1331964E+00
          1   -1    0    0  501    0  0.00000000000E+00  0.00000000000E+00  0.75266097407E+01  0.75266114281E+01  0.50400000000E-02 0. -1.
         -2   -1    0    0    0  501 -0.00000000000E+00 -0.00000000000E+00 -0.20720542739E+03  0.20720542741E+03  0.25500000000E-02 0.  1.
        -24    2    1    2    0    0  0.00000000000E+00  0.00000000000E+00 -0.19967881765E+03  0.21473203883E+03  0.78982392240E+02 0.  0.
         66    2    3    3    0    0  0.36273825549E+02 -0.60585248608E+00 -0.14214365889E+03  0.14671392996E+03  0.20000011237E+01 0.  0.
         13    1    3    3    0    0 -0.36273825549E+02  0.60585248608E+00 -0.57535158757E+02  0.68018108871E+02  0.10566000000E+00 0. -1.
         13    1    4    4    0    0  0.38739650848E+01  0.10235423354E+00 -0.14205005011E+02  0.14724517421E+02  0.10566000000E+00 0. -1.
        -13    1    4    4    0    0  0.97514401432E+01  0.38680569767E+00 -0.40294476810E+02  0.41459573429E+02  0.10566000000E+00 0.  1.
        -14    1    4    4    0    0  0.22648420321E+02 -0.10950124173E+01 -0.87644177072E+02  0.90529839113E+02  0.00000000000E+00 0.  1.
<mgrwt>
<rscale>  0 0.78982392E+02</rscale>
<asrwt>0</asrwt>
<pdfrwt beam="1">  1        1 0.11579402E-02 0.78982392E+02</pdfrwt>
<pdfrwt beam="2">  1       -2 0.31877754E-01 0.78982392E+02</pdfrwt>
<totfact> 0.86662330E+04</totfact>
</mgrwt>
</event>
<event>
 8    1  0.8577104E-018  0.7938413E+02  0.7818608E-02  0.1330808E+00
         -2   -1    0    0    0  501 -0.00000000000E+00  0.00000000000E+00  0.32345580940E+01  0.32345590991E+01  0.25500000000E-02 0.  1.
          1   -1    0    0  501    0  0.00000000000E+00 -0.00000000000E+00 -0.48707112119E+03  0.48707112121E+03  0.50400000000E-02 0. -1.
        -24    2    1    2    0    0  0.00000000000E+00 -0.35527136788E-14 -0.48383656309E+03  0.49030568031E+03  0.79384131668E+02 0.  0.
         66    2    3    3    0    0 -0.32405615860E+02 -0.22869950802E+02 -0.24543483017E+03  0.24862705897E+03  0.20000006754E+01 0.  0.
         13    1    3    3    0    0  0.32405615860E+02  0.22869950802E+02 -0.23840173292E+03  0.24167862134E+03  0.10566000000E+00 0. -1.
         13    1    4    4    0    0 -0.29716312280E+01 -0.18013108699E+01 -0.19546709409E+02  0.19853471378E+02  0.10566000000E+00 0. -1.
        -13    1    4    4    0    0 -0.22780414411E+01 -0.17533841889E+01 -0.20064698073E+02  0.20269856973E+02  0.10566000000E+00 0.  1.
        -14    1    4    4    0    0 -0.27155943191E+02 -0.19315255743E+02 -0.20582342269E+03  0.20850373062E+03  0.00000000000E+00 0.  1.
<mgrwt>
<rscale>  0 0.79384132E+02</rscale>
<asrwt>0</asrwt>
<pdfrwt beam="1">  1        1 0.74933961E-01 0.79384132E+02</pdfrwt>
<pdfrwt beam="2">  1       -2 0.49762479E-03 0.79384132E+02</pdfrwt>
<totfact> 0.19946041E+05</totfact>
</mgrwt>
</event>
<event>
 8    1  0.8577104E-018  0.8040798E+02  0.7818608E-02  0.1327898E+00
         -2   -1    0    0    0  501 -0.00000000000E+00  0.00000000000E+00  0.16343581688E+02  0.16343581887E+02  0.25500000000E-02 0.  1.
          1   -1    0    0  501    0  0.00000000000E+00 -0.00000000000E+00 -0.98898811372E+02  0.98898811500E+02  0.50400000000E-02 0. -1.
        -24    2    1    2    0    0  0.00000000000E+00  0.00000000000E+00 -0.82555229683E+02  0.11524239339E+03  0.80407980235E+02 0.  0.
         66    2    3    3    0    0  0.25037396085E+02  0.14822402180E+02 -0.15901620705E+01  0.29207934321E+02  0.20000007053E+01 0.  0.
         13    1    3    3    0    0 -0.25037396085E+02 -0.14822402180E+02 -0.80965067613E+02  0.86034459066E+02  0.10566000000E+00 0. -1.
         13    1    4    4    0    0  0.10115752285E+02  0.55072841361E+01 -0.41367460650E+00  0.11525663259E+02  0.10566000000E+00 0.  1.
        -13    1    4    4    0    0  0.85427692704E+01  0.60502292714E+01 -0.96707715809E+00  0.10513352620E+02  0.10566000000E+00 0. -1.
         14    1    4    4    0    0  0.63788745290E+01  0.32648887728E+01 -0.20941030586E+00  0.71689184423E+01  0.00000000000E+00 0. -1.
<mgrwt>
<rscale>  0 0.80407980E+02</rscale>
<asrwt>0</asrwt>
<pdfrwt beam="1">  1        1 0.15215201E-01 0.80407980E+02</pdfrwt>
<pdfrwt beam="2">  1       -2 0.25143973E-02 0.80407980E+02</pdfrwt>
<totfact> 0.14471342E+05</totfact>
</mgrwt>
</event>
<event>
 8    1  0.8577104E-018  0.8157230E+02  0.7818608E-02  0.1324648E+00
         -2   -1    0    0    0  501 -0.00000000000E+00  0.00000000000E+00  0.90262408409E+02  0.90262408445E+02  0.25500000000E-02 0.  1.
          1   -1    0    0  501    0  0.00000000000E+00 -0.00000000000E+00 -0.18429709254E+02  0.18429709943E+02  0.50400000000E-02 0. -1.
        -24    2    1    2    0    0 -0.35527136788E-14  0.00000000000E+00  0.71832699155E+02  0.10869211839E+03  0.81572298803E+02 0.  0.
         66    2    3    3    0    0  0.19012412755E+02 -0.29154872667E+02  0.64204535363E+02  0.73059570264E+02  0.20000017349E+01 0.  0.
         13    1    3    3    0    0 -0.19012412755E+02  0.29154872667E+02  0.76281637918E+01  0.35632548125E+02  0.10566000000E+00 0. -1.
         13    1    4    4    0    0  0.47563921757E+00 -0.95447044017E+00  0.14858119216E+01  0.18319518521E+01  0.10566000000E+00 0. -1.
        -13    1    4    4    0    0  0.10444029259E+02 -0.16092754626E+02  0.36579751625E+02  0.41305494690E+02  0.10566000000E+00 0.  1.
         14    1    4    4    0    0  0.80927442782E+01 -0.12107647601E+02  0.26138971816E+02  0.29922123722E+02  0.00000000000E+00 0. -1.
<mgrwt>
<rscale>  0 0.81572299E+02</rscale>
<asrwt>0</asrwt>
<pdfrwt beam="1">  1        1 0.28353399E-02 0.81572299E+02</pdfrwt>
<pdfrwt beam="2">  1       -2 0.13886525E-01 0.81572299E+02</pdfrwt>
<totfact> 0.10349704E+05</totfact>
</mgrwt>
</event>
<event>
 8    1  0.8577104E-018  0.7891921E+02  0.7818608E-02  0.1332147E+00
         -2   -1    0    0    0  501 -0.00000000000E+00  0.00000000000E+00  0.11301132357E+02  0.11301132645E+02  0.25500000000E-02 0.  1.
          1   -1    0    0  501    0  0.00000000000E+00 -0.00000000000E+00 -0.13777915279E+03  0.13777915288E+03  0.50400000000E-02 0. -1.
        -24    2    1    2    0    0  0.00000000000E+00  0.35527136788E-14 -0.12647802043E+03  0.14908028553E+03  0.78919211098E+02 0.  0.
         66    2    3    3    0    0 -0.32990067302E+02  0.14532090826E+02 -0.33082924621E+02  0.48969440510E+02  0.19999994944E+01 0.  0.
         13    1    3    3    0    0  0.32990067302E+02 -0.14532090826E+02 -0.93395095813E+02  0.10011084502E+03  0.10566000000E+00 0. -1.
         13    1    4    4    0    0 -0.57099554989E+01  0.32077031156E+01 -0.61100617890E+01  0.89575091504E+01  0.10566000000E+00 0. -1.
        -13    1    4    4    0    0 -0.25656327887E+02  0.10842885001E+02 -0.25228904345E+02  0.37580900658E+02  0.10566000000E+00 0.  1.
         14    1    4    4    0    0 -0.16237839165E+01  0.48150270882E+00 -0.17439584868E+01  0.24310307011E+01  0.00000000000E+00 0. -1.
<mgrwt>
<rscale>  0 0.78919211E+02</rscale>
<asrwt>0</asrwt>
<pdfrwt beam="1">  1        1 0.21196792E-01 0.78919211E+02</pdfrwt>
<pdfrwt beam="2">  1       -2 0.17386359E-02 0.78919211E+02</pdfrwt>
<totfact> 0.16121064E+05</totfact>
</mgrwt>
</event>
<event>
 8    1  0.8577104E-018  0.8035998E+02  0.7818608E-02  0.1328033E+00
         -2   -1    0    0    0  501 -0.00000000000E+00  0.00000000000E+00  0.19593313021E+03  0.19593313022E+03  0.25500000000E-02 0.  1.
          1   -1    0    0  501    0  0.00000000000E+00 -0.00000000000E+00 -0.82397069031E+01  0.82397084445E+01  0.50400000000E-02 0. -1.
        -24    2    1    2    0    0  0.00000000000E+00  0.00000000000E+00  0.18769342330E+03  0.20417283867E+03  0.80359983189E+02 0.  0.
         66    2    3    3    0    0 -0.81717588856E+01 -0.65014856348E+01  0.19241743889E+03  0.19271096945E+03  0.19999996041E+01 0.  0.
         13    1    3    3    0    0  0.81717588856E+01  0.65014856348E+01 -0.47240155845E+01  0.11461869220E+02  0.10566000000E+00 0. -1.
         13    1    4    4    0    0 -0.26914901204E+01 -0.32842891656E+01  0.73513182725E+02  0.73635792063E+02  0.10566000000E+00 0. -1.
        -13    1    4    4    0    0 -0.27541280792E+01 -0.18779208552E+01  0.64647269799E+02  0.64733240802E+02  0.10566000000E+00 0.  1.
         14    1    4    4    0    0 -0.27261406860E+01 -0.13392756140E+01  0.54256986364E+02  0.54341936582E+02  0.00000000000E+00 0. -1.
<mgrwt>
<rscale>  0 0.80359983E+02</rscale>
<asrwt>0</asrwt>
<pdfrwt beam="1">  1        1 0.12676475E-02 0.80359983E+02</pdfrwt>
<pdfrwt beam="2">  1       -2 0.30143555E-01 0.80359983E+02</pdfrwt>
<totfact> 0.84795028E+04</totfact>
</mgrwt>
</event>
<event>
 8    1  0.8577104E-018  0.8009239E+02  0.7818608E-02  0.1328789E+00
          1   -1    0    0  501    0  0.00000000000E+00  0.00000000000E+00  0.57608524166E+02  0.57608524387E+02  0.50400000000E-02 0. -1.
         -2   -1    0    0    0  501 -0.00000000000E+00 -0.00000000000E+00 -0.27837851784E+02  0.27837851900E+02  0.25500000000E-02 0.  1.
        -24    2    1    2    0    0  0.00000000000E+00  0.00000000000E+00  0.29770672383E+02  0.85446376287E+02  0.80092385946E+02 0.  0.
         66    2    3    3    0    0  0.34156726402E+02  0.19436646182E+02  0.68240173014E+01  0.39937857120E+02  0.20000114798E+01 0.  0.
         13    1    3    3    0    0 -0.34156726402E+02 -0.19436646182E+02  0.22946655081E+02  0.45508519167E+02  0.10566000000E+00 0. -1.
         13    1    4    4    0    0  0.10573217764E+02  0.61259480889E+01  0.27577974696E+01  0.12527441271E+02  0.10566000000E+00 0. -1.
        -13    1    4    4    0    0  0.72134587979E+00  0.42618051713E+00 -0.53329877492E-01  0.84615472751E+00  0.10566000000E+00 0.  1.
        -14    1    4    4    0    0  0.22862162758E+02  0.12884517576E+02  0.41195497093E+01  0.26564261122E+02  0.00000000000E+00 0.  1.
<mgrwt>
<rscale>  0 0.80092386E+02</rscale>
<asrwt>0</asrwt>
<pdfrwt beam="1">  1        1 0.88628497E-02 0.80092386E+02</pdfrwt>
<pdfrwt beam="2">  1       -2 0.42827465E-02 0.80092386E+02</pdfrwt>
<totfact> 0.13409733E+05</totfact>
</mgrwt>
</event>
<event>
 8    1  0.8577104E-018  0.7947375E+02  0.7818608E-02  0.1330552E+00
         -2   -1    0    0    0  501 -0.00000000000E+00  0.00000000000E+00  0.17719914672E+02  0.17719914855E+02  0.25500000000E-02 0.  1.
          1   -1    0    0  501    0  0.00000000000E+00 -0.00000000000E+00 -0.89109872523E+02  0.89109872666E+02  0.50400000000E-02 0. -1.
        -24    2    1    2    0    0  0.00000000000E+00 -0.88817841970E-15 -0.71389957852E+02  0.10682978752E+03  0.79473753024E+02 0.  0.
         66    2    3    3    0    0  0.37414293089E+02 -0.70967537413E+01 -0.20579661074E+02  0.43332617004E+02  0.20000013712E+01 0.  0.
         13    1    3    3    0    0 -0.37414293089E+02  0.70967537413E+01 -0.50810296777E+02  0.63497170517E+02  0.10566000000E+00 0. -1.
         13    1    4    4    0    0  0.13696630201E+02 -0.30245991496E+01 -0.72961621814E+01  0.15811104500E+02  0.10566000000E+00 0. -1.
        -13    1    4    4    0    0  0.22672242397E+02 -0.41726619694E+01 -0.12690874231E+02  0.26315606321E+02  0.10566000000E+00 0.  1.
         14    1    4    4    0    0  0.10454204900E+01  0.10050737775E+00 -0.59262466175E+00  0.12059061836E+01  0.00000000000E+00 0. -1.
<mgrwt>
<rscale>  0 0.79473753E+02</rscale>
<asrwt>0</asrwt>
<pdfrwt beam="1">  1        1 0.13709211E-01 0.79473753E+02</pdfrwt>
<pdfrwt beam="2">  1       -2 0.27261408E-02 0.79473753E+02</pdfrwt>
<totfact> 0.14680540E+05</totfact>
</mgrwt>
</event>
<event>
 8    1  0.8577104E-018  0.7991048E+02  0.7818608E-02  0.1329306E+00
         -2   -1    0    0    0  501 -0.00000000000E+00  0.00000000000E+00  0.26317267900E+03  0.26317267902E+03  0.25500000000E-02 0.  1.
          1   -1    0    0  501    0  0.00000000000E+00 -0.00000000000E+00 -0.60660591171E+01  0.60660612109E+01  0.50400000000E-02 0. -1.
        -24    2    1    2    0    0 -0.71054273576E-14  0.00000000000E+00  0.25710661989E+03  0.26923874023E+03  0.79910482726E+02 0.  0.
         66    2    3    3    0    0 -0.38848450357E+02  0.88340939923E+01  0.13765732878E+03  0.14332056195E+03  0.19999994443E+01 0.  0.
         13    1    3    3    0    0  0.38848450357E+02 -0.88340939923E+01  0.11944929110E+03  0.12591817828E+03  0.10566000000E+00 0. -1.
         13    1    4    4    0    0 -0.10971512188E+02  0.22575055739E+01  0.37713541405E+02  0.39341997667E+02  0.10566000000E+00 0. -1.
        -13    1    4    4    0    0 -0.15892973105E+02  0.45110952868E+01  0.56907075546E+02  0.59256754772E+02  0.10566000000E+00 0.  1.
         14    1    4    4    0    0 -0.11983965064E+02  0.20654931315E+01  0.43036711833E+02  0.44721809511E+02  0.00000000000E+00 0. -1.
<mgrwt>
<rscale>  0 0.79910483E+02</rscale>
<asrwt>0</asrwt>
<pdfrwt beam="1">  1        1 0.93324007E-03 0.79910483E+02</pdfrwt>
<pdfrwt beam="2">  1       -2 0.40488103E-01 0.79910483E+02</pdfrwt>
<totfact> 0.75432503E+04</totfact>
</mgrwt>
</event>
<event>
 8    1  0.8577104E-018  0.8064200E+02  0.7818608E-02  0.1327239E+00
          1   -1    0    0  501    0  0.00000000000E+00  0.00000000000E+00  0.52059462255E+02  0.52059462499E+02  0.50400000000E-02 0. -1.
         -2   -1    0    0    0  501 -0.00000000000E+00 -0.00000000000E+00 -0.31229345464E+02  0.31229345568E+02  0.25500000000E-02 0.  1.
        -24    2    1    2    0    0  0.00000000000E+00  0.00000000000E+00  0.20830116791E+02  0.83288808067E+02  0.80641997642E+02 0.  0.
         66    2    3    3    0    0  0.38965579311E+02 -0.99838381376E+01  0.79373909807E+01  0.41048697533E+02  0.19999996443E+01 0.  0.
         13    1    3    3    0    0 -0.38965579311E+02  0.99838381376E+01  0.12892725810E+02  0.42240110533E+02  0.10566000000E+00 0. -1.
         13    1    4    4    0    0  0.16006449899E+02 -0.44413535404E+01  0.25636321002E+01  0.16808195419E+02  0.10566000000E+00 0. -1.
        -13    1    4    4    0    0  0.12979257010E+02 -0.26787659370E+01  0.28771025874E+01  0.13561924009E+02  0.10566000000E+00 0.  1.
         14    1    4    4    0    0  0.99798724016E+01 -0.28637186602E+01  0.24966562931E+01  0.10678578106E+02  0.00000000000E+00 0. -1.
<mgrwt>
<rscale>  0 0.80641998E+02</rscale>
<asrwt>0</asrwt>
<pdfrwt beam="1">  1        1 0.80091480E-02 0.80641998E+02</pdfrwt>
<pdfrwt beam="2">  1       -2 0.48045147E-02 0.80641998E+02</pdfrwt>
<totfact> 0.12950052E+05</totfact>
</mgrwt>
</event>
<event>
 8    1  0.8577104E-018  0.8136875E+02  0.7818608E-02  0.1325211E+00
         -2   -1    0    0    0  501 -0.00000000000E+00  0.00000000000E+00  0.34718312347E+02  0.34718312440E+02  0.25500000000E-02 0.  1.
          1   -1    0    0  501    0  0.00000000000E+00 -0.00000000000E+00 -0.47675660507E+02  0.47675660773E+02  0.50400000000E-02 0. -1.
        -24    2    1    2    0    0  0.00000000000E+00  0.00000000000E+00 -0.12957348160E+02  0.82393973213E+02  0.81368752913E+02 0.  0.
         66    2    3    3    0    0  0.34102118934E+01 -0.33325387376E+02  0.16851255226E+02  0.37552307446E+02  0.20000007447E+01 0.  0.
         13    1    3    3    0    0 -0.34102118934E+01  0.33325387376E+02 -0.29808603386E+02  0.44841665767E+02  0.10566000000E+00 0. -1.
         13    1    4    4    0    0  0.70202092697E+00 -0.37524294236E+01  0.18316781268E+01  0.42355364190E+01  0.10566000000E+00 0. -1.
        -13    1    4    4    0    0  0.15775870500E+01 -0.18764823341E+02  0.86780841572E+01  0.20734697600E+02  0.10566000000E+00 0.  1.
        -14    1    4    4    0    0  0.11306039164E+01 -0.10808134611E+02  0.63414929417E+01  0.12582073427E+02  0.00000000000E+00 0.  1.
<mgrwt>
<rscale>  0 0.81368753E+02</rscale>
<asrwt>0</asrwt>
<pdfrwt beam="1">  1        1 0.73347171E-02 0.81368753E+02</pdfrwt>
<pdfrwt beam="2">  1       -2 0.53412788E-02 0.81368753E+02</pdfrwt>
<totfact> 0.12454511E+05</totfact>
</mgrwt>
</event>
<event>
 8    1  0.8577104E-018  0.8243146E+02  0.7818608E-02  0.1322290E+00
         -2   -1    0    0    0  501 -0.00000000000E+00  0.00000000000E+00  0.71391398666E+01  0.71391403220E+01  0.25500000000E-02 0.  1.
          1   -1    0    0  501    0  0.00000000000E+00 -0.00000000000E+00 -0.23794689312E+03  0.23794689318E+03  0.50400000000E-02 0. -1.
        -24    2    1    2    0    0  0.71054273576E-14 -0.17763568394E-14 -0.23080775326E+03  0.24508603350E+03  0.82431455481E+02 0.  0.
         66    2    3    3    0    0  0.33213180403E+02 -0.11871496323E+02 -0.17873070597E+03  0.18218867429E+03  0.20000013497E+01 0.  0.
         13    1    3    3    0    0 -0.33213180403E+02  0.11871496323E+02 -0.52077047287E+02  0.62897359210E+02  0.10566000000E+00 0. -1.
         13    1    4    4    0    0  0.73423998518E+01 -0.33433033541E+01 -0.43287151441E+02  0.44032682826E+02  0.10566000000E+00 0. -1.
        -13    1    4    4    0    0  0.40307459342E+01 -0.13476668936E+01 -0.21400192556E+02  0.21818398757E+02  0.10566000000E+00 0.  1.
         14    1    4    4    0    0  0.21840034617E+02 -0.71805260750E+01 -0.11404336197E+03  0.11633759271E+03  0.00000000000E+00 0. -1.
<mgrwt>
<rscale>  0 0.82431455E+02</rscale>
<asrwt>0</asrwt>
<pdfrwt beam="1">  1        1 0.36607208E-01 0.82431455E+02</pdfrwt>
<pdfrwt beam="2">  1       -2 0.10983294E-02 0.82431455E+02</pdfrwt>
<totfact> 0.15932326E+05</totfact>
</mgrwt>
</event>
<event>
 8    1  0.8577104E-018  0.8231633E+02  0.7818608E-02  0.1322604E+00
          1   -1    0    0  501    0  0.00000000000E+00  0.00000000000E+00  0.22362460182E+03  0.22362460188E+03  0.50400000000E-02 0. -1.
         -2   -1    0    0    0  501 -0.00000000000E+00 -0.00000000000E+00 -0.75751700039E+01  0.75751704331E+01  0.25500000000E-02 0.  1.
        -24    2    1    2    0    0  0.00000000000E+00  0.00000000000E+00  0.21604943181E+03  0.23119977231E+03  0.82316327227E+02 0.  0.
         66    2    3    3    0    0 -0.14729679938E+01  0.37096627413E+02  0.58345417788E+02  0.69184660037E+02  0.20000018699E+01 0.  0.
         13    1    3    3    0    0  0.14729679938E+01 -0.37096627413E+02  0.15770401403E+03  0.16201511227E+03  0.10566000000E+00 0. -1.
         13    1    4    4    0    0 -0.27424484090E+00  0.15590724713E+02  0.22862931108E+02  0.27674368831E+02  0.10566000000E+00 0. -1.
        -13    1    4    4    0    0 -0.44953115298E+00  0.90584525855E+01  0.14615584267E+02  0.17201282191E+02  0.10566000000E+00 0.  1.
         14    1    4    4    0    0 -0.74919199990E+00  0.12447450115E+02  0.20866902413E+02  0.24309009015E+02  0.00000000000E+00 0. -1.
<mgrwt>
<rscale>  0 0.82316327E+02</rscale>
<asrwt>0</asrwt>
<pdfrwt beam="1">  1        1 0.34403785E-01 0.82316327E+02</pdfrwt>
<pdfrwt beam="2">  1       -2 0.11654108E-02 0.82316327E+02</pdfrwt>
<totfact> 0.15797548E+05</totfact>
</mgrwt>
</event>
<event>
 8    1  0.8577104E-018  0.7853680E+02  0.7818608E-02  0.1333256E+00
          1   -1    0    0  501    0  0.00000000000E+00  0.00000000000E+00  0.71099585593E+02  0.71099585772E+02  0.50400000000E-02 0. -1.
         -2   -1    0    0    0  501 -0.00000000000E+00 -0.00000000000E+00 -0.21687993257E+02  0.21687993407E+02  0.25500000000E-02 0.  1.
        -24    2    1    2    0    0  0.00000000000E+00  0.00000000000E+00  0.49411592336E+02  0.92787579178E+02  0.78536802791E+02 0.  0.
         66    2    3    3    0    0  0.20445797899E+02  0.30421569013E+02  0.81603450644E+01  0.37604437927E+02  0.20000018177E+01 0.  0.
         13    1    3    3    0    0 -0.20445797899E+02 -0.30421569013E+02  0.41251247272E+02  0.55183141252E+02  0.10566000000E+00 0. -1.
         13    1    4    4    0    0  0.42927967165E+01  0.76753114207E+01  0.23041197284E+01  0.90916797575E+01  0.10566000000E+00 0. -1.
        -13    1    4    4    0    0  0.11921550027E+02  0.17120026789E+02  0.45553547571E+01  0.21353713806E+02  0.10566000000E+00 0.  1.
        -14    1    4    4    0    0  0.42314511558E+01  0.56262308032E+01  0.13008705789E+01  0.71590443635E+01  0.00000000000E+00 0.  1.
<mgrwt>
<rscale>  0 0.78536803E+02</rscale>
<asrwt>0</asrwt>
<pdfrwt beam="1">  1        1 0.10938398E-01 0.78536803E+02</pdfrwt>
<pdfrwt beam="2">  1       -2 0.33366144E-02 0.78536803E+02</pdfrwt>
<totfact> 0.14624301E+05</totfact>
</mgrwt>
</event>
<event>
 8    1  0.8577104E-018  0.7920857E+02  0.7818608E-02  0.1331313E+00
         -2   -1    0    0    0  501 -0.00000000000E+00  0.00000000000E+00  0.59213135297E+02  0.59213135352E+02  0.25500000000E-02 0.  1.
          1   -1    0    0  501    0  0.00000000000E+00 -0.00000000000E+00 -0.26489041315E+02  0.26489041795E+02  0.50400000000E-02 0. -1.
        -24    2    1    2    0    0  0.35527136788E-14 -0.35527136788E-14  0.32724093982E+02  0.85702177147E+02  0.79208565451E+02 0.  0.
         66    2    3    3    0    0  0.20876113751E+02  0.26781377508E+02  0.38372614146E+02  0.51278765773E+02  0.19999990369E+01 0.  0.
         13    1    3    3    0    0 -0.20876113751E+02 -0.26781377508E+02 -0.56485201644E+01  0.34423411375E+02  0.10566000000E+00 0. -1.
         13    1    4    4    0    0  0.10746718078E+01  0.15542638633E+01  0.15662333824E+01  0.24566047088E+01  0.10566000000E+00 0. -1.
        -13    1    4    4    0    0  0.27731374879E+01  0.36959188869E+01  0.50505941383E+01  0.68461502416E+01  0.10566000000E+00 0.  1.
        -14    1    4    4    0    0  0.17028304455E+02  0.21531194758E+02  0.31755786626E+02  0.41976010822E+02  0.00000000000E+00 0.  1.
<mgrwt>
<rscale>  0 0.79208565E+02</rscale>
<asrwt>0</asrwt>
<pdfrwt beam="1">  1        1 0.40752372E-02 0.79208565E+02</pdfrwt>
<pdfrwt beam="2">  1       -2 0.91097132E-02 0.79208565E+02</pdfrwt>
<totfact> 0.12170113E+05</totfact>
</mgrwt>
</event>
<event>
 8    1  0.8577104E-018  0.7942577E+02  0.7818608E-02  0.1330689E+00
         -2   -1    0    0    0  501 -0.00000000000E+00  0.00000000000E+00  0.22772094028E+03  0.22772094030E+03  0.25500000000E-02 0.  1.
          1   -1    0    0  501    0  0.00000000000E+00 -0.00000000000E+00 -0.69256393130E+01  0.69256411469E+01  0.50400000000E-02 0. -1.
        -24    2    1    2    0    0  0.44408920985E-15 -0.35527136788E-14  0.22079530097E+03  0.23464658144E+03  0.79425771970E+02 0.  0.
         66    2    3    3    0    0  0.32976054066E+01 -0.20133553043E+02  0.21103803024E+03  0.21203132872E+03  0.19999981100E+01 0.  0.
         13    1    3    3    0    0 -0.32976054066E+01  0.20133553043E+02  0.97572707303E+01  0.22615252723E+02  0.10566000000E+00 0. -1.
         13    1    4    4    0    0  0.32639306820E+00 -0.13759832397E+01  0.19001439566E+02  0.19054283821E+02  0.10566000000E+00 0. -1.
        -13    1    4    4    0    0  0.20804637656E+01 -0.11582671842E+02  0.12415322483E+03  0.12470974708E+03  0.10566000000E+00 0.  1.
         14    1    4    4    0    0  0.89074857271E+00 -0.71748979611E+01  0.67883365840E+02  0.68267297820E+02  0.00000000000E+00 0. -1.
<mgrwt>
<rscale>  0 0.79425772E+02</rscale>
<asrwt>0</asrwt>
<pdfrwt beam="1">  1        1 0.10654830E-02 0.79425772E+02</pdfrwt>
<pdfrwt beam="2">  1       -2 0.35033994E-01 0.79425772E+02</pdfrwt>
<totfact> 0.82016906E+04</totfact>
</mgrwt>
</event>
<event>
 8    1  0.8577104E-018  0.8076270E+02  0.7818608E-02  0.1326901E+00
         -2   -1    0    0    0  501 -0.00000000000E+00  0.00000000000E+00  0.64615270033E+02  0.64615270083E+02  0.25500000000E-02 0.  1.
          1   -1    0    0  501    0  0.00000000000E+00 -0.00000000000E+00 -0.25236347889E+02  0.25236348392E+02  0.50400000000E-02 0. -1.
        -24    2    1    2    0    0 -0.88817841970E-15  0.00000000000E+00  0.39378922144E+02  0.89851618475E+02  0.80762700756E+02 0.  0.
         66    2    3    3    0    0  0.79753178908E+01 -0.39559549701E+02  0.20025520769E+02  0.45095289573E+02  0.19999978938E+01 0.  0.
         13    1    3    3    0    0 -0.79753178908E+01  0.39559549701E+02  0.19353401375E+02  0.44756328902E+02  0.10566000000E+00 0. -1.
         13    1    4    4    0    0  0.63715491030E+01 -0.34432493854E+02  0.17055479090E+02  0.38949888344E+02  0.10566000000E+00 0.  1.
        -13    1    4    4    0    0  0.32514939533E+00 -0.99890474626E+00  0.66012269253E+00  0.12451742152E+01  0.10566000000E+00 0.  1.
        -14    1    4    4    0    0  0.12786193925E+01 -0.41281511007E+01  0.23099189862E+01  0.49002270135E+01  0.00000000000E+00 0.  1.
<mgrwt>
<rscale>  0 0.80762701E+02</rscale>
<asrwt>0</asrwt>
<pdfrwt beam="1">  1        1 0.38825151E-02 0.80762701E+02</pdfrwt>
<pdfrwt beam="2">  1       -2 0.99408107E-02 0.80762701E+02</pdfrwt>
<totfact> 0.11396232E+05</totfact>
</mgrwt>
</event>
<event>
 8    1  0.8577104E-018  0.7982185E+02  0.7818608E-02  0.1329558E+00
         -2   -1    0    0    0  501 -0.00000000000E+00  0.00000000000E+00  0.17352357214E+03  0.17352357216E+03  0.25500000000E-02 0.  1.
          1   -1    0    0  501    0  0.00000000000E+00 -0.00000000000E+00 -0.91796276357E+01  0.91796290192E+01  0.50400000000E-02 0. -1.
        -24    2    1    2    0    0  0.00000000000E+00 -0.71054273576E-14  0.16434394450E+03  0.18270320118E+03  0.79821849299E+02 0.  0.
         66    2    3    3    0    0  0.20711387693E+02 -0.33807588411E+02  0.92190549914E+02  0.10037435976E+03  0.19999973253E+01 0.  0.
         13    1    3    3    0    0 -0.20711387693E+02  0.33807588411E+02  0.72153394590E+02  0.82328841418E+02  0.10566000000E+00 0. -1.
         13    1    4    4    0    0  0.30424813122E+01 -0.40653690004E+01  0.12567189417E+02  0.13554679322E+02  0.10566000000E+00 0. -1.
        -13    1    4    4    0    0  0.13389113872E+02 -0.22995779806E+02  0.62087671513E+02  0.67549717817E+02  0.10566000000E+00 0.  1.
        -14    1    4    4    0    0  0.42797925092E+01 -0.67464396047E+01  0.17535688984E+02  0.19269962621E+02  0.00000000000E+00 0.  1.
<mgrwt>
<rscale>  0 0.79821849E+02</rscale>
<asrwt>0</asrwt>
<pdfrwt beam="1">  1        1 0.14122507E-02 0.79821849E+02</pdfrwt>
<pdfrwt beam="2">  1       -2 0.26695931E-01 0.79821849E+02</pdfrwt>
<totfact> 0.90378120E+04</totfact>
</mgrwt>
</event>
<event>
 8    1  0.8577104E-018  0.7767112E+02  0.7818608E-02  0.1335793E+00
          1   -1    0    0  501    0  0.00000000000E+00  0.00000000000E+00  0.98608186067E+01  0.98608198947E+01  0.50400000000E-02 0. -1.
         -2   -1    0    0    0  501 -0.00000000000E+00 -0.00000000000E+00 -0.15294883420E+03  0.15294883422E+03  0.25500000000E-02 0.  1.
        -24    2    1    2    0    0  0.00000000000E+00  0.00000000000E+00 -0.14308801559E+03  0.16280965412E+03  0.77671122478E+02 0.  0.
         66    2    3    3    0    0 -0.31604270994E+02  0.15622205283E+02 -0.10560521239E+03  0.11135234226E+03  0.20000002675E+01 0.  0.
         13    1    3    3    0    0  0.31604270994E+02 -0.15622205283E+02 -0.37482803206E+02  0.51457311854E+02  0.10566000000E+00 0. -1.
         13    1    4    4    0    0 -0.52018776945E+01  0.27753253856E+01 -0.16555119862E+02  0.17573989878E+02  0.10566000000E+00 0. -1.
        -13    1    4    4    0    0 -0.16096838642E+02  0.70628647988E+01 -0.52361168529E+02  0.55233100648E+02  0.10566000000E+00 0.  1.
        -14    1    4    4    0    0 -0.10305554657E+02  0.57840150986E+01 -0.36688923996E+02  0.38545251736E+02  0.00000000000E+00 0.  1.
<mgrwt>
<rscale>  0 0.77671122E+02</rscale>
<asrwt>0</asrwt>
<pdfrwt beam="1">  1        1 0.15170492E-02 0.77671122E+02</pdfrwt>
<pdfrwt beam="2">  1       -2 0.23530588E-01 0.77671122E+02</pdfrwt>
<totfact> 0.10131681E+05</totfact>
</mgrwt>
</event>
<event>
 8    1  0.8577104E-018  0.7965197E+02  0.7818608E-02  0.1330042E+00
          1   -1    0    0  501    0  0.00000000000E+00  0.00000000000E+00  0.27905589105E+01  0.27905634619E+01  0.50400000000E-02 0. -1.
         -2   -1    0    0    0  501 -0.00000000000E+00 -0.00000000000E+00 -0.56838352508E+03  0.56838352508E+03  0.25500000000E-02 0.  1.
        -24    2    1    2    0    0  0.44408920985E-15 -0.35527136788E-14 -0.56559296617E+03  0.57117408855E+03  0.79651968260E+02 0.  0.
         66    2    3    3    0    0  0.36186409740E+01 -0.23017345175E+02 -0.51436259699E+03  0.51489394434E+03  0.19999992739E+01 0.  0.
         13    1    3    3    0    0 -0.36186409740E+01  0.23017345175E+02 -0.51230369179E+02  0.56280144204E+02  0.10566000000E+00 0. -1.
         13    1    4    4    0    0  0.25053498417E+01 -0.14254860356E+02 -0.30159514594E+03  0.30194224785E+03  0.10566000000E+00 0.  1.
        -13    1    4    4    0    0  0.29360399437E+00 -0.14923970757E+01 -0.32154681425E+02  0.32190808532E+02  0.10566000000E+00 0. -1.
        -14    1    4    4    0    0  0.81968713791E+00 -0.72700877440E+01 -0.18061276963E+03  0.18076088796E+03  0.00000000000E+00 0.  1.
<mgrwt>
<rscale>  0 0.79651968E+02</rscale>
<asrwt>0</asrwt>
<pdfrwt beam="1">  1        1 0.42931756E-03 0.79651968E+02</pdfrwt>
<pdfrwt beam="2">  1       -2 0.87443528E-01 0.79651968E+02</pdfrwt>
<totfact> 0.46007904E+04</totfact>
</mgrwt>
</event>
<event>
 8    1  0.1009653E-017  0.8031099E+02  0.7818608E-02  0.1328171E+00
         -2   -1    0    0    0  501 -0.00000000000E+00  0.00000000000E+00  0.12981616098E+02  0.12981616348E+02  0.25500000000E-02 0.  1.
          1   -1    0    0  501    0  0.00000000000E+00 -0.00000000000E+00 -0.12421132042E+03  0.12421132052E+03  0.50400000000E-02 0. -1.
        -24    2    1    2    0    0  0.00000000000E+00  0.00000000000E+00 -0.11122970432E+03  0.13719293687E+03  0.80310988063E+02 0.  0.
         66    2    3    3    0    0 -0.38493831307E+02 -0.23611545560E+01 -0.36695239185E+02  0.53271856344E+02  0.19999999756E+01 0.  0.
         13    1    3    3    0    0  0.38493831307E+02  0.23611545560E+01 -0.74534465139E+02  0.83921080529E+02  0.10566000000E+00 0. -1.
         13    1    4    4    0    0 -0.12817760783E+02 -0.95861015678E+00 -0.11756171666E+02  0.17419318620E+02  0.10566000000E+00 0. -1.
        -13    1    4    4    0    0 -0.23558507314E+02 -0.13446822917E+01 -0.22285709696E+02  0.32457286670E+02  0.10566000000E+00 0.  1.
         14    1    4    4    0    0 -0.21175632102E+01 -0.57862107491E-01 -0.26533578235E+01  0.33952510529E+01  0.00000000000E+00 0. -1.
<mgrwt>
<rscale>  0 0.80310988E+02</rscale>
<asrwt>0</asrwt>
<pdfrwt beam="1">  1        1 0.19109433E-01 0.80310988E+02</pdfrwt>
<pdfrwt beam="2">  1       -2 0.19971718E-02 0.80310988E+02</pdfrwt>
<totfact> 0.15100690E+05</totfact>
</mgrwt>
</event>
<event>
 8    1  0.8577104E-018  0.8011520E+02  0.7818608E-02  0.1328725E+00
         -2   -1    0    0    0  501 -0.00000000000E+00  0.00000000000E+00  0.95436289425E+01  0.95436292832E+01  0.25500000000E-02 0.  1.
          1   -1    0    0  501    0  0.00000000000E+00 -0.00000000000E+00 -0.16813428386E+03  0.16813428393E+03  0.50400000000E-02 0. -1.
        -24    2    1    2    0    0  0.00000000000E+00  0.00000000000E+00 -0.15859065492E+03  0.17767791322E+03  0.80115198424E+02 0.  0.
         66    2    3    3    0    0  0.18727457723E+02  0.34109563211E+02 -0.58489649353E+02  0.70279577783E+02  0.19999991903E+01 0.  0.
         13    1    3    3    0    0 -0.18727457723E+02 -0.34109563211E+02 -0.10010100556E+03  0.10739833543E+03  0.10566000000E+00 0. -1.
         13    1    4    4    0    0  0.37723397095E+01  0.58338799677E+01 -0.11054179446E+02  0.13056444754E+02  0.10566000000E+00 0. -1.
        -13    1    4    4    0    0  0.57935632263E+01  0.11352480452E+02 -0.18020476800E+02  0.22072447427E+02  0.10566000000E+00 0.  1.
        -14    1    4    4    0    0  0.91615547870E+01  0.16923202791E+02 -0.29414993107E+02  0.35150685602E+02  0.00000000000E+00 0.  1.
<mgrwt>
<rscale>  0 0.80115198E+02</rscale>
<asrwt>0</asrwt>
<pdfrwt beam="1">  1        1 0.25866811E-01 0.80115198E+02</pdfrwt>
<pdfrwt beam="2">  1       -2 0.14682508E-02 0.80115198E+02</pdfrwt>
<totfact> 0.16066481E+05</totfact>
</mgrwt>
</event>
<event>
 8    1  0.8577104E-018  0.7927955E+02  0.7818608E-02  0.1331108E+00
         -2   -1    0    0    0  501 -0.00000000000E+00  0.00000000000E+00  0.59420188367E+02  0.59420188422E+02  0.25500000000E-02 0.  1.
          1   -1    0    0  501    0  0.00000000000E+00 -0.00000000000E+00 -0.26444075178E+02  0.26444075658E+02  0.50400000000E-02 0. -1.
        -24    2    1    2    0    0  0.88817841970E-15  0.00000000000E+00  0.32976113190E+02  0.85864264080E+02  0.79279554772E+02 0.  0.
         66    2    3    3    0    0  0.57404956397E+01  0.36517523402E+02  0.31923021162E+02  0.48883147649E+02  0.20000096133E+01 0.  0.
         13    1    3    3    0    0 -0.57404956397E+01 -0.36517523402E+02  0.10530920280E+01  0.36981116430E+02  0.10566000000E+00 0. -1.
         13    1    4    4    0    0  0.67001445204E-01  0.66049028974E+00  0.50793965246E+00  0.84255761978E+00  0.10566000000E+00 0.  1.
        -13    1    4    4    0    0  0.16356106557E+01  0.14274885820E+02  0.11648185447E+02  0.18496999098E+02  0.10566000000E+00 0.  1.
        -14    1    4    4    0    0  0.40378835388E+01  0.21582147292E+02  0.19766896062E+02  0.29543590932E+02  0.00000000000E+00 0.  1.
<mgrwt>
<rscale>  0 0.79279555E+02</rscale>
<asrwt>0</asrwt>
<pdfrwt beam="1">  1        1 0.40683193E-02 0.79279555E+02</pdfrwt>
<pdfrwt beam="2">  1       -2 0.91415674E-02 0.79279555E+02</pdfrwt>
<totfact> 0.12134751E+05</totfact>
</mgrwt>
</event>
<event>
 8    1  0.8577104E-018  0.8068284E+02  0.7818608E-02  0.1327125E+00
         -2   -1    0    0    0  501 -0.00000000000E+00  0.00000000000E+00  0.10882339860E+02  0.10882340159E+02  0.25500000000E-02 0.  1.
          1   -1    0    0  501    0  0.00000000000E+00 -0.00000000000E+00 -0.14954780868E+03  0.14954780877E+03  0.50400000000E-02 0. -1.
        -24    2    1    2    0    0  0.88817841970E-15  0.71054273576E-14 -0.13866546882E+03  0.16043014893E+03  0.80682838578E+02 0.  0.
         66    2    3    3    0    0 -0.79609570932E+01 -0.34330731694E+02 -0.30438556206E+02  0.46609888187E+02  0.19999990867E+01 0.  0.
         13    1    3    3    0    0  0.79609570932E+01  0.34330731694E+02 -0.10822691262E+03  0.11382026074E+03  0.10566000000E+00 0. -1.
         13    1    4    4    0    0 -0.48811359668E-01 -0.55506687378E+00 -0.75652623194E+00  0.94550397060E+00  0.10566000000E+00 0. -1.
        -13    1    4    4    0    0 -0.40814020470E+01 -0.15626119428E+02 -0.14039272522E+02  0.21399667942E+02  0.10566000000E+00 0.  1.
         14    1    4    4    0    0 -0.38307436865E+01 -0.18149545392E+02 -0.15642757452E+02  0.24264716274E+02  0.00000000000E+00 0. -1.
<mgrwt>
<rscale>  0 0.80682839E+02</rscale>
<asrwt>0</asrwt>
<pdfrwt beam="1">  1        1 0.23007354E-01 0.80682839E+02</pdfrwt>
<pdfrwt beam="2">  1       -2 0.16742063E-02 0.80682839E+02</pdfrwt>
<totfact> 0.15425126E+05</totfact>
</mgrwt>
</event>
<event>
 8    1  0.8577104E-018  0.7684169E+02  0.7818608E-02  0.1338261E+00
         -2   -1    0    0    0  501 -0.00000000000E+00  0.00000000000E+00  0.10244098193E+02  0.10244098511E+02  0.25500000000E-02 0.  1.
          1   -1    0    0  501    0  0.00000000000E+00 -0.00000000000E+00 -0.14409868854E+03  0.14409868863E+03  0.50400000000E-02 0. -1.
        -24    2    1    2    0    0  0.17763568394E-14  0.00000000000E+00 -0.13385459035E+03  0.15434278714E+03  0.76841685205E+02 0.  0.
         66    2    3    3    0    0 -0.15750135049E+02 -0.34169486581E+02 -0.51605130028E+02  0.63896087619E+02  0.20000001340E+01 0.  0.
         13    1    3    3    0    0  0.15750135049E+02  0.34169486581E+02 -0.82249460322E+02  0.90446699523E+02  0.10566000000E+00 0. -1.
         13    1    4    4    0    0 -0.53735478813E+01 -0.12287485393E+02 -0.19847727408E+02  0.23954138712E+02  0.10566000000E+00 0. -1.
        -13    1    4    4    0    0 -0.62671691225E+01 -0.13741559808E+02 -0.20050419572E+02  0.25102556918E+02  0.10566000000E+00 0.  1.
         14    1    4    4    0    0 -0.41094180453E+01 -0.81404413802E+01 -0.11706983047E+02  0.14839391989E+02  0.00000000000E+00 0. -1.
<mgrwt>
<rscale>  0 0.76841685E+02</rscale>
<asrwt>0</asrwt>
<pdfrwt beam="1">  1        1 0.22169028E-01 0.76841685E+02</pdfrwt>
<pdfrwt beam="2">  1       -2 0.15760152E-02 0.76841685E+02</pdfrwt>
<totfact> 0.17450700E+05</totfact>
</mgrwt>
</event>
<event>
 8    1  0.8577104E-018  0.8039056E+02  0.7818608E-02  0.1327947E+00
         -2   -1    0    0    0  501 -0.00000000000E+00  0.00000000000E+00  0.30684128261E+03  0.30684128262E+03  0.25500000000E-02 0.  1.
          1   -1    0    0  501    0  0.00000000000E+00 -0.00000000000E+00 -0.52654594888E+01  0.52654619009E+01  0.50400000000E-02 0. -1.
        -24    2    1    2    0    0  0.00000000000E+00  0.00000000000E+00  0.30157582312E+03  0.31210674452E+03  0.80390564649E+02 0.  0.
         66    2    3    3    0    0 -0.36973511450E+02  0.40051822879E+01  0.20983358203E+03  0.21311314878E+03  0.19999999061E+01 0.  0.
         13    1    3    3    0    0  0.36973511450E+02 -0.40051822879E+01  0.91742241089E+02  0.98993595743E+02  0.10566000000E+00 0. -1.
         13    1    4    4    0    0 -0.12619945149E+02  0.13417572758E+01  0.67570731443E+02  0.68752296252E+02  0.10566000000E+00 0. -1.
        -13    1    4    4    0    0 -0.20654357564E+02  0.23361013381E+01  0.12281321751E+03  0.12455985475E+03  0.10566000000E+00 0.  1.
         14    1    4    4    0    0 -0.36992087370E+01  0.32732367405E+00  0.19449633080E+02  0.19800997778E+02  0.00000000000E+00 0. -1.
<mgrwt>
<rscale>  0 0.80390565E+02</rscale>
<asrwt>0</asrwt>
<pdfrwt beam="1">  1        1 0.81007091E-03 0.80390565E+02</pdfrwt>
<pdfrwt beam="2">  1       -2 0.47206350E-01 0.80390565E+02</pdfrwt>
<totfact> 0.68538384E+04</totfact>
</mgrwt>
</event>
<event>
 8    1  0.8577104E-018  0.7946732E+02  0.7818608E-02  0.1330570E+00
          1   -1    0    0  501    0  0.00000000000E+00  0.00000000000E+00  0.41131627109E+02  0.41131627418E+02  0.50400000000E-02 0. -1.
         -2   -1    0    0    0  501 -0.00000000000E+00 -0.00000000000E+00 -0.38383209073E+02  0.38383209157E+02  0.25500000000E-02 0.  1.
        -24    2    1    2    0    0 -0.71054273576E-14 -0.17763568394E-14  0.27484180364E+01  0.79514836575E+02  0.79467323057E+02 0.  0.
         66    2    3    3    0    0  0.32261995786E+02  0.12771043178E+02 -0.17945092523E+02  0.39114731881E+02  0.19999971195E+01 0.  0.
         13    1    3    3    0    0 -0.32261995786E+02 -0.12771043178E+02  0.20693510560E+02  0.40400104694E+02  0.10566000000E+00 0. -1.
         13    1    4    4    0    0  0.60957091114E+01  0.17212124645E+01 -0.35476378942E+01  0.72606570352E+01  0.10566000000E+00 0. -1.
        -13    1    4    4    0    0  0.25449489713E+02  0.10871796931E+02 -0.13969937581E+02  0.31000690560E+02  0.10566000000E+00 0.  1.
        -14    1    4    4    0    0  0.71679696201E+00  0.17803378250E+00 -0.42751704782E+00  0.85338428544E+00  0.00000000000E+00 0.  1.
<mgrwt>
<rscale>  0 0.79467323E+02</rscale>
<asrwt>0</asrwt>
<pdfrwt beam="1">  1        1 0.63279427E-02 0.79467323E+02</pdfrwt>
<pdfrwt beam="2">  1       -2 0.59051091E-02 0.79467323E+02</pdfrwt>
<totfact> 0.12996784E+05</totfact>
</mgrwt>
</event>
<event>
 8    1  0.8577104E-018  0.8030836E+02  0.7818608E-02  0.1328179E+00
         -2   -1    0    0    0  501 -0.00000000000E+00  0.00000000000E+00  0.90727284103E+01  0.90727287687E+01  0.25500000000E-02 0.  1.
          1   -1    0    0  501    0  0.00000000000E+00 -0.00000000000E+00 -0.17771479179E+03  0.17771479186E+03  0.50400000000E-02 0. -1.
        -24    2    1    2    0    0  0.00000000000E+00  0.00000000000E+00 -0.16864206338E+03  0.18678752063E+03  0.80308357735E+02 0.  0.
         66    2    3    3    0    0  0.10430144905E+01 -0.38832879523E+02 -0.10777951212E+03  0.11458404619E+03  0.19999992747E+01 0.  0.
         13    1    3    3    0    0 -0.10430144905E+01  0.38832879523E+02 -0.60862551253E+02  0.72203474434E+02  0.10566000000E+00 0. -1.
         13    1    4    4    0    0  0.92317618686E+00 -0.34254589002E+02 -0.93773126575E+02  0.99838066657E+02  0.10566000000E+00 0. -1.
        -13    1    4    4    0    0 -0.27818971348E-01 -0.27876247597E+01 -0.77559266389E+01  0.82424018199E+01  0.10566000000E+00 0.  1.
         14    1    4    4    0    0  0.14765727497E+00 -0.17906657612E+01 -0.62504589082E+01  0.65035777155E+01  0.00000000000E+00 0. -1.
<mgrwt>
<rscale>  0 0.80308358E+02</rscale>
<asrwt>0</asrwt>
<pdfrwt beam="1">  1        1 0.27340735E-01 0.80308358E+02</pdfrwt>
<pdfrwt beam="2">  1       -2 0.13958045E-02 0.80308358E+02</pdfrwt>
<totfact> 0.16132409E+05</totfact>
</mgrwt>
</event>
<event>
 8    1  0.8577104E-018  0.8106449E+02  0.7818608E-02  0.1326057E+00
          1   -1    0    0  501    0  0.00000000000E+00  0.00000000000E+00  0.19035517096E+01  0.19035583818E+01  0.50400000000E-02 0. -1.
         -2   -1    0    0    0  501 -0.00000000000E+00 -0.00000000000E+00 -0.86304977009E+03  0.86304977010E+03  0.25500000000E-02 0.  1.
        -24    2    1    2    0    0  0.00000000000E+00 -0.17763568394E-14 -0.86114621838E+03  0.86495332848E+03  0.81064486738E+02 0.  0.
         66    2    3    3    0    0  0.25238957353E+02 -0.84568888933E+01 -0.75663197481E+03  0.75710268077E+03  0.19999954482E+01 0.  0.
         13    1    3    3    0    0 -0.25238957353E+02  0.84568888933E+01 -0.10451424357E+03  0.10785064771E+03  0.10566000000E+00 0. -1.
         13    1    4    4    0    0  0.56275830236E+01 -0.11297780220E+01 -0.15381327307E+03  0.15392036975E+03  0.10566000000E+00 0. -1.
        -13    1    4    4    0    0  0.59884140890E+01 -0.20501782757E+01 -0.17967991556E+03  0.17979140011E+03  0.10566000000E+00 0.  1.
        -14    1    4    4    0    0  0.13622960240E+02 -0.52769325956E+01 -0.42313878618E+03  0.42339091090E+03  0.00000000000E+00 0.  1.
<mgrwt>
<rscale>  0 0.81064487E+02</rscale>
<asrwt>0</asrwt>
<pdfrwt beam="1">  1        1 0.29285531E-03 0.81064487E+02</pdfrwt>
<pdfrwt beam="2">  1       -2 0.13277658E+00 0.81064487E+02</pdfrwt>
<totfact> 0.29683374E+04</totfact>
</mgrwt>
</event>
<event>
 8    1  0.8577104E-018  0.7900392E+02  0.7818608E-02  0.1331902E+00
         -2   -1    0    0    0  501 -0.00000000000E+00  0.00000000000E+00  0.67512948016E+01  0.67512952832E+01  0.25500000000E-02 0.  1.
          1   -1    0    0  501    0  0.00000000000E+00 -0.00000000000E+00 -0.23112674969E+03  0.23112674974E+03  0.50400000000E-02 0. -1.
        -24    2    1    2    0    0  0.00000000000E+00  0.00000000000E+00 -0.22437545489E+03  0.23787804503E+03  0.79003921105E+02 0.  0.
         66    2    3    3    0    0 -0.16915375852E+02  0.29886135916E+02 -0.53635316639E+02  0.63718586389E+02  0.20000000389E+01 0.  0.
         13    1    3    3    0    0  0.16915375852E+02 -0.29886135916E+02 -0.17074013825E+03  0.17415945864E+03  0.10566000000E+00 0. -1.
         13    1    4    4    0    0 -0.10435928315E+02  0.16513815382E+02 -0.30329255410E+02  0.36076163821E+02  0.10566000000E+00 0. -1.
        -13    1    4    4    0    0 -0.50162883557E+01  0.10062203528E+02 -0.17761497868E+02  0.21021252561E+02  0.10566000000E+00 0.  1.
         14    1    4    4    0    0 -0.14631591811E+01  0.33101170057E+01 -0.55445633617E+01  0.66211700064E+01  0.00000000000E+00 0. -1.
<mgrwt>
<rscale>  0 0.79003921E+02</rscale>
<asrwt>0</asrwt>
<pdfrwt beam="1">  1        1 0.35557956E-01 0.79003921E+02</pdfrwt>
<pdfrwt beam="2">  1       -2 0.10386610E-02 0.79003921E+02</pdfrwt>
<totfact> 0.17728774E+05</totfact>
</mgrwt>
</event>
<event>
 8    1  0.8577104E-018  0.8033280E+02  0.7818608E-02  0.1328110E+00
          1   -1    0    0  501    0  0.00000000000E+00  0.00000000000E+00  0.73960292422E+02  0.73960292594E+02  0.50400000000E-02 0. -1.
         -2   -1    0    0    0  501 -0.00000000000E+00 -0.00000000000E+00 -0.21813594637E+02  0.21813594786E+02  0.25500000000E-02 0.  1.
        -24    2    1    2    0    0  0.00000000000E+00  0.00000000000E+00  0.52146697785E+02  0.95773887380E+02  0.80332804097E+02 0.  0.
         66    2    3    3    0    0 -0.16041964979E+02 -0.35735092441E+02  0.15628277960E+02  0.42220665044E+02  0.20000031535E+01 0.  0.
         13    1    3    3    0    0  0.16041964979E+02  0.35735092441E+02  0.36518419825E+02  0.53553222337E+02  0.10566000000E+00 0. -1.
         13    1    4    4    0    0 -0.81318953591E+01 -0.16656635943E+02  0.77566297567E+01  0.20093474370E+02  0.10566000000E+00 0.  1.
        -13    1    4    4    0    0 -0.39873823287E+01 -0.10858948406E+02  0.46134872165E+01  0.12454372993E+02  0.10566000000E+00 0. -1.
        -14    1    4    4    0    0 -0.39226872909E+01 -0.82195080921E+01  0.32581609870E+01  0.96728176802E+01  0.00000000000E+00 0.  1.
<mgrwt>
<rscale>  0 0.80332804E+02</rscale>
<asrwt>0</asrwt>
<pdfrwt beam="1">  1        1 0.11378507E-01 0.80332804E+02</pdfrwt>
<pdfrwt beam="2">  1       -2 0.33559377E-02 0.80332804E+02</pdfrwt>
<totfact> 0.13834501E+05</totfact>
</mgrwt>
</event>
<event>
 8    1  0.8577104E-018  0.7899264E+02  0.7818608E-02  0.1331935E+00
          1   -1    0    0  501    0  0.00000000000E+00  0.00000000000E+00  0.21542792280E+03  0.21542792286E+03  0.50400000000E-02 0. -1.
         -2   -1    0    0    0  501 -0.00000000000E+00 -0.00000000000E+00 -0.72412123119E+01  0.72412127609E+01  0.25500000000E-02 0.  1.
        -24    2    1    2    0    0  0.00000000000E+00 -0.35527136788E-14  0.20818671049E+03  0.22266913562E+03  0.78992642276E+02 0.  0.
         66    2    3    3    0    0  0.36037444761E+02  0.12122856622E+02  0.13403094239E+03  0.13933396787E+03  0.20000017423E+01 0.  0.
         13    1    3    3    0    0 -0.36037444761E+02 -0.12122856622E+02  0.74155768098E+02  0.83335167749E+02  0.10566000000E+00 0. -1.
         13    1    4    4    0    0  0.75471832589E+01  0.24552935277E+01  0.27395364675E+02  0.28522019760E+02  0.10566000000E+00 0. -1.
        -13    1    4    4    0    0  0.26416123578E+02  0.88640228639E+01  0.96981284382E+02  0.10090472323E+03  0.10566000000E+00 0.  1.
         14    1    4    4    0    0  0.20741379239E+01  0.80354023063E+00  0.96542933302E+01  0.99072248756E+01  0.00000000000E+00 0. -1.
<mgrwt>
<rscale>  0 0.78992642E+02</rscale>
<asrwt>0</asrwt>
<pdfrwt beam="1">  1        1 0.33142754E-01 0.78992642E+02</pdfrwt>
<pdfrwt beam="2">  1       -2 0.11140328E-02 0.78992642E+02</pdfrwt>
<totfact> 0.17494372E+05</totfact>
</mgrwt>
</event>
<event>
 8    1  0.8577104E-018  0.8576447E+02  0.7818608E-02  0.1313445E+00
          1   -1    0    0  501    0  0.00000000000E+00  0.00000000000E+00  0.58476845809E+02  0.58476846026E+02  0.50400000000E-02 0. -1.
         -2   -1    0    0    0  501 -0.00000000000E+00 -0.00000000000E+00 -0.31446393874E+02  0.31446393977E+02  0.25500000000E-02 0.  1.
        -24    2    1    2    0    0  0.17763568394E-14  0.00000000000E+00  0.27030451935E+02  0.89923240003E+02  0.85764466773E+02 0.  0.
         66    2    3    3    0    0 -0.13491605441E+02 -0.29893117935E+02 -0.15406268243E+02  0.36290150396E+02  0.19999993398E+01 0.  0.
         13    1    3    3    0    0  0.13491605441E+02  0.29893117935E+02  0.42436720178E+02  0.53633089606E+02  0.10566000000E+00 0. -1.
         13    1    4    4    0    0 -0.62869060563E+01 -0.16002594138E+02 -0.81029926518E+01  0.19007310721E+02  0.10566000000E+00 0. -1.
        -13    1    4    4    0    0 -0.44685390523E+01 -0.91218442606E+01 -0.49999819743E+01  0.11321963953E+02  0.10566000000E+00 0.  1.
        -14    1    4    4    0    0 -0.27361603327E+01 -0.47686795364E+01 -0.23032936166E+01  0.59608757219E+01  0.00000000000E+00 0.  1.
<mgrwt>
<rscale>  0 0.85764467E+02</rscale>
<asrwt>0</asrwt>
<pdfrwt beam="1">  1        1 0.89964379E-02 0.85764467E+02</pdfrwt>
<pdfrwt beam="2">  1       -2 0.48379067E-02 0.85764467E+02</pdfrwt>
<totfact> 0.11115848E+05</totfact>
</mgrwt>
</event>
<event>
 8    1  0.8577104E-018  0.7682167E+02  0.7818608E-02  0.1338321E+00
         -2   -1    0    0    0  501 -0.00000000000E+00  0.00000000000E+00  0.29203560053E+02  0.29203560165E+02  0.25500000000E-02 0.  1.
          1   -1    0    0  501    0  0.00000000000E+00 -0.00000000000E+00 -0.50520975188E+02  0.50520975439E+02  0.50400000000E-02 0. -1.
        -24    2    1    2    0    0  0.00000000000E+00  0.00000000000E+00 -0.21317415134E+02  0.79724535604E+02  0.76821672653E+02 0.  0.
         66    2    3    3    0    0  0.89426042101E+01 -0.21618069919E+02  0.20915506489E+02  0.31444705965E+02  0.20000011179E+01 0.  0.
         13    1    3    3    0    0 -0.89426042101E+01  0.21618069919E+02 -0.42232921623E+02  0.48279829639E+02  0.10566000000E+00 0. -1.
         13    1    4    4    0    0  0.69105121505E+01 -0.17284755448E+02  0.15675430830E+02  0.24336150986E+02  0.10566000000E+00 0. -1.
        -13    1    4    4    0    0  0.66735362049E+00 -0.10712690697E+01  0.14424682092E+01  0.19195980946E+01  0.10566000000E+00 0.  1.
         14    1    4    4    0    0  0.13647384390E+01 -0.32620454013E+01  0.37976074498E+01  0.51889568845E+01  0.00000000000E+00 0. -1.
<mgrwt>
<rscale>  0 0.76821673E+02</rscale>
<asrwt>0</asrwt>
<pdfrwt beam="1">  1        1 0.77724578E-02 0.76821673E+02</pdfrwt>
<pdfrwt beam="2">  1       -2 0.44928554E-02 0.76821673E+02</pdfrwt>
<totfact> 0.14745115E+05</totfact>
</mgrwt>
</event>
<event>
 8    1  0.8577104E-018  0.8935962E+02  0.7818608E-02  0.1304410E+00
         -2   -1    0    0    0  501 -0.00000000000E+00  0.00000000000E+00  0.32085681165E+02  0.32085681266E+02  0.25500000000E-02 0.  1.
          1   -1    0    0  501    0  0.00000000000E+00 -0.00000000000E+00 -0.62217331124E+02  0.62217331328E+02  0.50400000000E-02 0. -1.
        -24    2    1    2    0    0  0.00000000000E+00  0.44408920985E-15 -0.30131649959E+02  0.94303012594E+02  0.89359620942E+02 0.  0.
         66    2    3    3    0    0 -0.26957371756E+02  0.32492381956E+01  0.22342519147E+02  0.35219960639E+02  0.20000061938E+01 0.  0.
         13    1    3    3    0    0  0.26957371756E+02 -0.32492381956E+01 -0.52474169106E+02  0.59083051954E+02  0.10566000000E+00 0. -1.
         13    1    4    4    0    0 -0.17535786431E+01  0.34912307543E+00  0.18503524435E+01  0.25752462368E+01  0.10566000000E+00 0. -1.
        -13    1    4    4    0    0 -0.10622053350E+02  0.18563903495E+01  0.91287488598E+01  0.14128673762E+02  0.10566000000E+00 0.  1.
        -14    1    4    4    0    0 -0.14581739763E+02  0.10437247707E+01  0.11363417844E+02  0.18516040640E+02  0.00000000000E+00 0.  1.
<mgrwt>
<rscale>  0 0.89359621E+02</rscale>
<asrwt>0</asrwt>
<pdfrwt beam="1">  1        1 0.95718971E-02 0.89359621E+02</pdfrwt>
<pdfrwt beam="2">  1       -2 0.49362587E-02 0.89359621E+02</pdfrwt>
<totfact> 0.10014046E+05</totfact>
</mgrwt>
</event>
<event>
 8    1  0.8577104E-018  0.8086296E+02  0.7818608E-02  0.1326620E+00
         -2   -1    0    0    0  501 -0.00000000000E+00  0.00000000000E+00  0.18602897548E+02  0.18602897722E+02  0.25500000000E-02 0.  1.
          1   -1    0    0  501    0  0.00000000000E+00 -0.00000000000E+00 -0.87873657648E+02  0.87873657793E+02  0.50400000000E-02 0. -1.
        -24    2    1    2    0    0 -0.35527136788E-14  0.35527136788E-14 -0.69270760101E+02  0.10647655552E+03  0.80862962285E+02 0.  0.
         66    2    3    3    0    0  0.25379871898E+02 -0.29852158980E+02 -0.21660589266E+02  0.44815961744E+02  0.20000015868E+01 0.  0.
         13    1    3    3    0    0 -0.25379871898E+02  0.29852158980E+02 -0.47610170835E+02  0.61660593772E+02  0.10566000000E+00 0. -1.
         13    1    4    4    0    0  0.70994604974E+01 -0.80239822570E+01 -0.50818056106E+01  0.11858437625E+02  0.10566000000E+00 0. -1.
        -13    1    4    4    0    0  0.17044839669E+02 -0.20365231500E+02 -0.15217261051E+02  0.30607930530E+02  0.10566000000E+00 0.  1.
        -14    1    4    4    0    0  0.12355717319E+01 -0.14629452227E+01 -0.13615226042E+01  0.23495935885E+01  0.00000000000E+00 0.  1.
<mgrwt>
<rscale>  0 0.80862962E+02</rscale>
<asrwt>0</asrwt>
<pdfrwt beam="1">  1        1 0.13519024E-01 0.80862962E+02</pdfrwt>
<pdfrwt beam="2">  1       -2 0.28619843E-02 0.80862962E+02</pdfrwt>
<totfact> 0.13973892E+05</totfact>
</mgrwt>
</event>
<event>
 8    1  0.8577104E-018  0.7894549E+02  0.7818608E-02  0.1332071E+00
          1   -1    0    0  501    0  0.00000000000E+00  0.00000000000E+00  0.24106456113E+02  0.24106456640E+02  0.50400000000E-02 0. -1.
         -2   -1    0    0    0  501 -0.00000000000E+00 -0.00000000000E+00 -0.64634040015E+02  0.64634040065E+02  0.25500000000E-02 0.  1.
        -24    2    1    2    0    0  0.00000000000E+00 -0.48572257327E-16 -0.40527583902E+02  0.88740496704E+02  0.78945491945E+02 0.  0.
         66    2    3    3    0    0 -0.15886198843E+02  0.99529434111E-02 -0.60863756592E+02  0.62934635036E+02  0.20000019478E+01 0.  0.
         13    1    3    3    0    0  0.15886198843E+02 -0.99529434111E-02  0.20336172691E+02  0.25805861669E+02  0.10566000000E+00 0. -1.
         13    1    4    4    0    0 -0.35052944046E+01 -0.73213601977E+00 -0.13291606750E+02  0.13765939345E+02  0.10566000000E+00 0. -1.
        -13    1    4    4    0    0 -0.25246667754E+01 -0.10380912231E+00 -0.90665329735E+01  0.94126459009E+01  0.10566000000E+00 0. -1.
        -14    1    4    4    0    0 -0.98562376630E+01  0.84589808549E+00 -0.38505616869E+02  0.39756049790E+02  0.00000000000E+00 0.  1.
<mgrwt>
<rscale>  0 0.78945492E+02</rscale>
<asrwt>0</asrwt>
<pdfrwt beam="1">  1        1 0.37086856E-02 0.78945492E+02</pdfrwt>
<pdfrwt beam="2">  1       -2 0.99436984E-02 0.78945492E+02</pdfrwt>
<totfact> 0.12072221E+05</totfact>
</mgrwt>
</event>
<event>
 8    1  0.8577104E-018  0.8108268E+02  0.7818608E-02  0.1326007E+00
          1   -1    0    0  501    0  0.00000000000E+00  0.00000000000E+00  0.25155225191E+02  0.25155225696E+02  0.50400000000E-02 0. -1.
         -2   -1    0    0    0  501 -0.00000000000E+00 -0.00000000000E+00 -0.65338324534E+02  0.65338324583E+02  0.25500000000E-02 0.  1.
        -24    2    1    2    0    0 -0.71054273576E-14  0.00000000000E+00 -0.40183099342E+02  0.90493550279E+02  0.81082681070E+02 0.  0.
         66    2    3    3    0    0 -0.37897806754E+02  0.45088206860E+01 -0.49227070657E+01  0.38533184150E+02  0.20000037908E+01 0.  0.
         13    1    3    3    0    0  0.37897806754E+02 -0.45088206860E+01 -0.35260392277E+02  0.51960366129E+02  0.10566000000E+00 0. -1.
         13    1    4    4    0    0 -0.15479677713E+02  0.21561898363E+01 -0.13138437306E+01  0.15684607935E+02  0.10566000000E+00 0. -1.
        -13    1    4    4    0    0 -0.98502538220E+01  0.12256233786E+01 -0.11530771298E+01  0.99935180956E+01  0.10566000000E+00 0.  1.
         14    1    4    4    0    0 -0.12567875219E+02  0.11270074711E+01 -0.24557862052E+01  0.12855058119E+02  0.00000000000E+00 0. -1.
<mgrwt>
<rscale>  0 0.81082681E+02</rscale>
<asrwt>0</asrwt>
<pdfrwt beam="1">  1        1 0.38700347E-02 0.81082681E+02</pdfrwt>
<pdfrwt beam="2">  1       -2 0.10052050E-01 0.81082681E+02</pdfrwt>
<totfact> 0.11258168E+05</totfact>
</mgrwt>
</event>
<event>
 8    1  0.8577104E-018  0.8260795E+02  0.7818608E-02  0.1321809E+00
         -2   -1    0    0    0  501 -0.00000000000E+00  0.00000000000E+00  0.25776408585E+03  0.25776408586E+03  0.25500000000E-02 0.  1.
          1   -1    0    0  501    0  0.00000000000E+00 -0.00000000000E+00 -0.66185244077E+01  0.66185263267E+01  0.50400000000E-02 0. -1.
        -24    2    1    2    0    0  0.00000000000E+00  0.00000000000E+00  0.25114556144E+03  0.26438261219E+03  0.82607945113E+02 0.  0.
         66    2    3    3    0    0 -0.66713652914E+01  0.33518960722E+02  0.19974094395E+03  0.20265357764E+03  0.19999993351E+01 0.  0.
         13    1    3    3    0    0  0.66713652914E+01 -0.33518960722E+02  0.51404617485E+02  0.61729034543E+02  0.10566000000E+00 0. -1.
         13    1    4    4    0    0 -0.92179664835E+00  0.81590068993E+01  0.45655746115E+02  0.46388332800E+02  0.10566000000E+00 0. -1.
        -13    1    4    4    0    0 -0.36769029953E+01  0.16469151385E+02  0.98250936442E+02  0.99689569357E+02  0.10566000000E+00 0.  1.
        -14    1    4    4    0    0 -0.20726656477E+01  0.88908024377E+01  0.55834261398E+02  0.56575675486E+02  0.00000000000E+00 0.  1.
<mgrwt>
<rscale>  0 0.82607945E+02</rscale>
<asrwt>0</asrwt>
<pdfrwt beam="1">  1        1 0.10182348E-02 0.82607945E+02</pdfrwt>
<pdfrwt beam="2">  1       -2 0.39656010E-01 0.82607945E+02</pdfrwt>
<totfact> 0.69938128E+04</totfact>
</mgrwt>
</event>
<event>
 8    1  0.8577104E-018  0.7515394E+02  0.7818608E-02  0.1343395E+00
         -2   -1    0    0    0  501 -0.00000000000E+00  0.00000000000E+00  0.11041145868E+02  0.11041146163E+02  0.25500000000E-02 0.  1.
          1   -1    0    0  501    0  0.00000000000E+00 -0.00000000000E+00 -0.12788787429E+03  0.12788787439E+03  0.50400000000E-02 0. -1.
        -24    2    1    2    0    0 -0.71054273576E-14  0.00000000000E+00 -0.11684672842E+03  0.13892902055E+03  0.75153940740E+02 0.  0.
         66    2    3    3    0    0  0.32766387489E+02 -0.90399868412E+01 -0.28964287004E+02  0.44702208100E+02  0.19999940711E+01 0.  0.
         13    1    3    3    0    0 -0.32766387489E+02  0.90399868412E+01 -0.87882441420E+02  0.94226812454E+02  0.10566000000E+00 0. -1.
         13    1    4    4    0    0  0.65424105032E+01 -0.13136666844E+01 -0.62502744235E+01  0.91436289161E+01  0.10566000000E+00 0. -1.
        -13    1    4    4    0    0  0.21430104576E+02 -0.67126761594E+01 -0.18500872435E+02  0.29096440474E+02  0.10566000000E+00 0.  1.
        -14    1    4    4    0    0  0.47938724089E+01 -0.10136439974E+01 -0.42131401447E+01  0.64621387098E+01  0.00000000000E+00 0.  1.
<mgrwt>
<rscale>  0 0.75153941E+02</rscale>
<asrwt>0</asrwt>
<pdfrwt beam="1">  1        1 0.19675057E-01 0.75153941E+02</pdfrwt>
<pdfrwt beam="2">  1       -2 0.16986379E-02 0.75153941E+02</pdfrwt>
<totfact> 0.18125768E+05</totfact>
</mgrwt>
</event>
<event>
 8    1  0.8577104E-018  0.8039028E+02  0.7818608E-02  0.1327948E+00
         -2   -1    0    0    0  501 -0.00000000000E+00  0.00000000000E+00  0.44007117584E+02  0.44007117658E+02  0.25500000000E-02 0.  1.
          1   -1    0    0  501    0  0.00000000000E+00 -0.00000000000E+00 -0.36713358851E+02  0.36713359197E+02  0.50400000000E-02 0. -1.
        -24    2    1    2    0    0  0.00000000000E+00 -0.35527136788E-14  0.72937587330E+01  0.80720476855E+02  0.80390275950E+02 0.  0.
         66    2    3    3    0    0  0.16788504733E+02 -0.24641381360E+02  0.30677953775E+02  0.42827425932E+02  0.19999994049E+01 0.  0.
         13    1    3    3    0    0 -0.16788504733E+02  0.24641381360E+02 -0.23384195042E+02  0.37893050923E+02  0.10566000000E+00 0. -1.
         13    1    4    4    0    0  0.25624536026E+01 -0.29601959963E+01  0.47199269976E+01  0.61333354466E+01  0.10566000000E+00 0. -1.
        -13    1    4    4    0    0  0.81032432250E+01 -0.12273624660E+02  0.14445008193E+02  0.20614893616E+02  0.10566000000E+00 0.  1.
         14    1    4    4    0    0  0.61228079050E+01 -0.94075607032E+01  0.11513018585E+02  0.16079196869E+02  0.00000000000E+00 0. -1.
<mgrwt>
<rscale>  0 0.80390276E+02</rscale>
<asrwt>0</asrwt>
<pdfrwt beam="1">  1        1 0.56482091E-02 0.80390276E+02</pdfrwt>
<pdfrwt beam="2">  1       -2 0.67703258E-02 0.80390276E+02</pdfrwt>
<totfact> 0.12348528E+05</totfact>
</mgrwt>
</event>
<event>
 8    1  0.8577104E-018  0.8177391E+02  0.7818608E-02  0.1324091E+00
         -2   -1    0    0    0  501 -0.00000000000E+00  0.00000000000E+00  0.71456783685E+01  0.71456788235E+01  0.25500000000E-02 0.  1.
          1   -1    0    0  501    0  0.00000000000E+00 -0.00000000000E+00 -0.23395162660E+03  0.23395162666E+03  0.50400000000E-02 0. -1.
        -24    2    1    2    0    0  0.00000000000E+00 -0.71054273576E-14 -0.22680594824E+03  0.24109730548E+03  0.81773911216E+02 0.  0.
         66    2    3    3    0    0  0.28034379140E+02  0.29628859153E+02 -0.10628341482E+03  0.11385938687E+03  0.20000008625E+01 0.  0.
         13    1    3    3    0    0 -0.28034379140E+02 -0.29628859153E+02 -0.12052253341E+03  0.12723791861E+03  0.10566000000E+00 0. -1.
         13    1    4    4    0    0  0.10071878281E+02  0.11327210975E+02 -0.38033757786E+02  0.40942964425E+02  0.10566000000E+00 0. -1.
        -13    1    4    4    0    0  0.12929709578E+02  0.12971438642E+02 -0.47387149573E+02  0.50803432157E+02  0.10566000000E+00 0.  1.
         14    1    4    4    0    0  0.50327912809E+01  0.53302095362E+01 -0.20862507465E+02  0.22112990289E+02  0.00000000000E+00 0. -1.
<mgrwt>
<rscale>  0 0.81773911E+02</rscale>
<asrwt>0</asrwt>
<pdfrwt beam="1">  1        1 0.35992552E-01 0.81773911E+02</pdfrwt>
<pdfrwt beam="2">  1       -2 0.10993353E-02 0.81773911E+02</pdfrwt>
<totfact> 0.16220593E+05</totfact>
</mgrwt>
</event>
<event>
 8    1  0.8577104E-018  0.8025268E+02  0.7818608E-02  0.1328336E+00
          1   -1    0    0  501    0  0.00000000000E+00  0.00000000000E+00  0.69369862220E+01  0.69369880529E+01  0.50400000000E-02 0. -1.
         -2   -1    0    0    0  501 -0.00000000000E+00 -0.00000000000E+00 -0.23210700185E+03  0.23210700186E+03  0.25500000000E-02 0.  1.
        -24    2    1    2    0    0  0.00000000000E+00  0.00000000000E+00 -0.22517001563E+03  0.23904398992E+03  0.80252683304E+02 0.  0.
         66    2    3    3    0    0 -0.33750039858E+02  0.21637155745E+02 -0.11545945970E+03  0.12223795863E+03  0.19999990846E+01 0.  0.
         13    1    3    3    0    0  0.33750039858E+02 -0.21637155745E+02 -0.10971055592E+03  0.11680603128E+03  0.10566000000E+00 0. -1.
         13    1    4    4    0    0 -0.18012878749E+02  0.10816915242E+02 -0.62511356937E+02  0.65948088421E+02  0.10566000000E+00 0. -1.
        -13    1    4    4    0    0 -0.33435511629E+01  0.24981863410E+01 -0.11185295122E+02  0.11939106347E+02  0.10566000000E+00 0.  1.
         14    1    4    4    0    0 -0.12393609946E+02  0.83220541623E+01 -0.41762807643E+02  0.44350763862E+02  0.00000000000E+00 0. -1.
<mgrwt>
<rscale>  0 0.80252683E+02</rscale>
<asrwt>0</asrwt>
<pdfrwt beam="1">  1        1 0.10672290E-02 0.80252683E+02</pdfrwt>
<pdfrwt beam="2">  1       -2 0.35708764E-01 0.80252683E+02</pdfrwt>
<totfact> 0.79172611E+04</totfact>
</mgrwt>
</event>
<event>
 8    1  0.8577104E-018  0.8118248E+02  0.7818608E-02  0.1325729E+00
         -2   -1    0    0    0  501 -0.00000000000E+00  0.00000000000E+00  0.20763178206E+02  0.20763178363E+02  0.25500000000E-02 0.  1.
          1   -1    0    0  501    0  0.00000000000E+00 -0.00000000000E+00 -0.79354361140E+02  0.79354361300E+02  0.50400000000E-02 0. -1.
        -24    2    1    2    0    0  0.00000000000E+00  0.88817841970E-15 -0.58591182933E+02  0.10011753966E+03  0.81182479825E+02 0.  0.
         66    2    3    3    0    0  0.34787348352E+02 -0.72171074431E+01 -0.51658032974E+01  0.35957360435E+02  0.20000001362E+01 0.  0.
         13    1    3    3    0    0 -0.34787348352E+02  0.72171074431E+01 -0.53425379636E+02  0.64160179227E+02  0.10566000000E+00 0. -1.
         13    1    4    4    0    0  0.16621457461E+02 -0.30572734022E+01 -0.28115026549E+01  0.17132877167E+02  0.10566000000E+00 0. -1.
        -13    1    4    4    0    0  0.14033391864E+02 -0.37273296616E+01 -0.19218113478E+01  0.14646965437E+02  0.10566000000E+00 0.  1.
        -14    1    4    4    0    0  0.41324990270E+01 -0.43250437933E+00 -0.43248929477E+00  0.41775178319E+01  0.00000000000E+00 0.  1.
<mgrwt>
<rscale>  0 0.81182480E+02</rscale>
<asrwt>0</asrwt>
<pdfrwt beam="1">  1        1 0.12208363E-01 0.81182480E+02</pdfrwt>
<pdfrwt beam="2">  1       -2 0.31943352E-02 0.81182480E+02</pdfrwt>
<totfact> 0.13595775E+05</totfact>
</mgrwt>
</event>
<event>
 8    1  0.8577104E-018  0.7949996E+02  0.7818608E-02  0.1330476E+00
          1   -1    0    0  501    0  0.00000000000E+00  0.00000000000E+00  0.13707658803E+02  0.13707659729E+02  0.50400000000E-02 0. -1.
         -2   -1    0    0    0  501 -0.00000000000E+00 -0.00000000000E+00 -0.11526846916E+03  0.11526846919E+03  0.25500000000E-02 0.  1.
        -24    2    1    2    0    0  0.00000000000E+00  0.00000000000E+00 -0.10156081036E+03  0.12897612892E+03  0.79499959939E+02 0.  0.
         66    2    3    3    0    0  0.16792147331E+02 -0.33846516824E+02 -0.70714633295E+02  0.80200512915E+02  0.19999991679E+01 0.  0.
         13    1    3    3    0    0 -0.16792147331E+02  0.33846516824E+02 -0.30846177063E+02  0.48775616004E+02  0.10566000000E+00 0. -1.
         13    1    4    4    0    0  0.56786341925E+01 -0.10409832814E+02 -0.22968897936E+02  0.25849428271E+02  0.10566000000E+00 0. -1.
        -13    1    4    4    0    0  0.10648604401E+02 -0.22902808039E+02 -0.46582859761E+02  0.52989672384E+02  0.10566000000E+00 0.  1.
        -14    1    4    4    0    0  0.46490873731E+00 -0.53387597107E+00 -0.11628755982E+01  0.13614122606E+01  0.00000000000E+00 0.  1.
<mgrwt>
<rscale>  0 0.79499960E+02</rscale>
<asrwt>0</asrwt>
<pdfrwt beam="1">  1        1 0.21088707E-02 0.79499960E+02</pdfrwt>
<pdfrwt beam="2">  1       -2 0.17733610E-01 0.79499960E+02</pdfrwt>
<totfact> 0.10393434E+05</totfact>
</mgrwt>
</event>
<event>
 8    1  0.8577104E-018  0.8212642E+02  0.7818608E-02  0.1323123E+00
          1   -1    0    0  501    0  0.00000000000E+00  0.00000000000E+00  0.22448331908E+01  0.22448388486E+01  0.50400000000E-02 0. -1.
         -2   -1    0    0    0  501 -0.00000000000E+00 -0.00000000000E+00 -0.75114048792E+03  0.75114048792E+03  0.25500000000E-02 0.  1.
        -24    2    1    2    0    0  0.17763568394E-14  0.00000000000E+00 -0.74889565472E+03  0.75338532677E+03  0.82126420380E+02 0.  0.
         66    2    3    3    0    0 -0.14294676055E+02  0.13195999956E+02 -0.70614951099E+03  0.70642027438E+03  0.19999984004E+01 0.  0.
         13    1    3    3    0    0  0.14294676055E+02 -0.13195999956E+02 -0.42746143731E+02  0.46965052393E+02  0.10566000000E+00 0. -1.
         13    1    4    4    0    0 -0.53816982531E+01  0.43720366266E+01 -0.28218496422E+03  0.28227015885E+03  0.10566000000E+00 0. -1.
        -13    1    4    4    0    0 -0.15918388696E+01  0.15897465737E+01 -0.74429147230E+02  0.74463214856E+02  0.10566000000E+00 0.  1.
         14    1    4    4    0    0 -0.73211389324E+01  0.72342167562E+01 -0.34953539955E+03  0.34968690067E+03  0.00000000000E+00 0. -1.
<mgrwt>
<rscale>  0 0.82126420E+02</rscale>
<asrwt>0</asrwt>
<pdfrwt beam="1">  1        1 0.34535999E-03 0.82126420E+02</pdfrwt>
<pdfrwt beam="2">  1       -2 0.11555987E+00 0.82126420E+02</pdfrwt>
<totfact> 0.33059809E+04</totfact>
</mgrwt>
</event>
<event>
 8    1  0.8577104E-018  0.8151380E+02  0.7818608E-02  0.1324810E+00
         -2   -1    0    0    0  501 -0.00000000000E+00  0.00000000000E+00  0.16935540166E+02  0.16935540358E+02  0.25500000000E-02 0.  1.
          1   -1    0    0  501    0  0.00000000000E+00 -0.00000000000E+00 -0.98085153264E+02  0.98085153393E+02  0.50400000000E-02 0. -1.
        -24    2    1    2    0    0  0.35527136788E-14  0.00000000000E+00 -0.81149613098E+02  0.11502069375E+03  0.81513804261E+02 0.  0.
         66    2    3    3    0    0  0.21286362336E+02 -0.28770865389E+02 -0.13156059812E+02  0.38183161456E+02  0.19999980754E+01 0.  0.
         13    1    3    3    0    0 -0.21286362336E+02  0.28770865389E+02 -0.67993553286E+02  0.76837532295E+02  0.10566000000E+00 0. -1.
         13    1    4    4    0    0  0.86710281580E+01 -0.13057302422E+02 -0.51787147693E+01  0.16507880741E+02  0.10566000000E+00 0. -1.
        -13    1    4    4    0    0  0.10728048895E+02 -0.13541719650E+02 -0.68241277524E+01  0.18575496973E+02  0.10566000000E+00 0.  1.
         14    1    4    4    0    0  0.18872852829E+01 -0.21718433168E+01 -0.11532172901E+01  0.30997837425E+01  0.00000000000E+00 0. -1.
<mgrwt>
<rscale>  0 0.81513804E+02</rscale>
<asrwt>0</asrwt>
<pdfrwt beam="1">  1        1 0.15090023E-01 0.81513804E+02</pdfrwt>
<pdfrwt beam="2">  1       -2 0.26054678E-02 0.81513804E+02</pdfrwt>
<totfact> 0.13926385E+05</totfact>
</mgrwt>
</event>
<event>
 8    1  0.8577104E-018  0.8053278E+02  0.7818608E-02  0.1327546E+00
         -2   -1    0    0    0  501 -0.00000000000E+00  0.00000000000E+00  0.56943697833E+02  0.56943697890E+02  0.25500000000E-02 0.  1.
          1   -1    0    0  501    0  0.00000000000E+00 -0.00000000000E+00 -0.28473425135E+02  0.28473425581E+02  0.50400000000E-02 0. -1.
        -24    2    1    2    0    0 -0.17763568394E-14 -0.35527136788E-14  0.28470272698E+02  0.85417123471E+02  0.80532779379E+02 0.  0.
         66    2    3    3    0    0  0.11618363566E+02  0.23006063696E+02  0.47023168450E+02  0.53660447897E+02  0.19999896769E+01 0.  0.
         13    1    3    3    0    0 -0.11618363566E+02 -0.23006063696E+02 -0.18552895752E+02  0.31756675574E+02  0.10566000000E+00 0. -1.
         13    1    4    4    0    0  0.44599219661E+01  0.10419338997E+02  0.19468468485E+02  0.22527448996E+02  0.10566000000E+00 0. -1.
        -13    1    4    4    0    0  0.28946399528E+01  0.45670616248E+01  0.10144993496E+02  0.11496479870E+02  0.10566000000E+00 0.  1.
         14    1    4    4    0    0  0.42638016466E+01  0.80196630737E+01  0.17409706468E+02  0.19636519030E+02  0.00000000000E+00 0. -1.
<mgrwt>
<rscale>  0 0.80532779E+02</rscale>
<asrwt>0</asrwt>
<pdfrwt beam="1">  1        1 0.43805270E-02 0.80532779E+02</pdfrwt>
<pdfrwt beam="2">  1       -2 0.87605689E-02 0.80532779E+02</pdfrwt>
<totfact> 0.11754814E+05</totfact>
</mgrwt>
</event>
<event>
 8    1  0.8577104E-018  0.7912737E+02  0.7818608E-02  0.1331546E+00
          1   -1    0    0  501    0  0.00000000000E+00  0.00000000000E+00  0.10474935827E+03  0.10474935840E+03  0.50400000000E-02 0. -1.
         -2   -1    0    0    0  501 -0.00000000000E+00 -0.00000000000E+00 -0.14943147432E+02  0.14943147649E+02  0.25500000000E-02 0.  1.
        -24    2    1    2    0    0  0.35527136788E-14 -0.35527136788E-14  0.89806210842E+02  0.11969250604E+03  0.79127368827E+02 0.  0.
         66    2    3    3    0    0 -0.17430476650E+02  0.18262877894E+02 -0.10969511893E+01  0.25348718456E+02  0.20000000659E+01 0.  0.
         13    1    3    3    0    0  0.17430476650E+02 -0.18262877894E+02  0.90903162032E+02  0.94343787589E+02  0.10566000000E+00 0. -1.
         13    1    4    4    0    0 -0.87973916442E+01  0.93353599971E+01  0.16476797227E+00  0.12828926632E+02  0.10566000000E+00 0.  1.
        -13    1    4    4    0    0 -0.29927567605E+01  0.24752770603E+01 -0.32517461983E+00  0.38987808507E+01  0.10566000000E+00 0. -1.
        -14    1    4    4    0    0 -0.56403282448E+01  0.64522408363E+01 -0.93654454176E+00  0.86210109731E+01  0.00000000000E+00 0.  1.
<mgrwt>
<rscale>  0 0.79127369E+02</rscale>
<asrwt>0</asrwt>
<pdfrwt beam="1">  1        1 0.16115286E-01 0.79127369E+02</pdfrwt>
<pdfrwt beam="2">  1       -2 0.22989458E-02 0.79127369E+02</pdfrwt>
<totfact> 0.15259604E+05</totfact>
</mgrwt>
</event>
<event>
 8    1  0.8577104E-018  0.7940186E+02  0.7818608E-02  0.1330757E+00
         -2   -1    0    0    0  501 -0.00000000000E+00  0.00000000000E+00  0.93922191510E+01  0.93922194972E+01  0.25500000000E-02 0.  1.
          1   -1    0    0  501    0  0.00000000000E+00 -0.00000000000E+00 -0.16781591148E+03  0.16781591156E+03  0.50400000000E-02 0. -1.
        -24    2    1    2    0    0  0.00000000000E+00  0.22204460493E-15 -0.15842369233E+03  0.17720813105E+03  0.79401860306E+02 0.  0.
         66    2    3    3    0    0 -0.39207320763E+02 -0.14701917094E+01 -0.92424487451E+02  0.10042739341E+03  0.20000001462E+01 0.  0.
         13    1    3    3    0    0  0.39207320763E+02  0.14701917094E+01 -0.65999204878E+02  0.76780737647E+02  0.10566000000E+00 0. -1.
         13    1    4    4    0    0 -0.68084865791E+00  0.89603866775E-01 -0.20239985154E+01  0.21399340583E+01  0.10566000000E+00 0. -1.
        -13    1    4    4    0    0 -0.38382099211E+02 -0.15008233016E+01 -0.90152597715E+02  0.97994591939E+02  0.10566000000E+00 0.  1.
        -14    1    4    4    0    0 -0.14437289476E+00 -0.58972274642E-01 -0.24789122004E+00  0.29286740838E+00  0.00000000000E+00 0.  1.
<mgrwt>
<rscale>  0 0.79401860E+02</rscale>
<asrwt>0</asrwt>
<pdfrwt beam="1">  1        1 0.25817830E-01 0.79401860E+02</pdfrwt>
<pdfrwt beam="2">  1       -2 0.14449569E-02 0.79401860E+02</pdfrwt>
<totfact> 0.16448030E+05</totfact>
</mgrwt>
</event>
<event>
 8    1  0.8577104E-018  0.8867742E+02  0.7818608E-02  0.1306086E+00
         -2   -1    0    0    0  501 -0.00000000000E+00  0.00000000000E+00  0.15391270320E+02  0.15391270531E+02  0.25500000000E-02 0.  1.
          1   -1    0    0  501    0  0.00000000000E+00 -0.00000000000E+00 -0.12772961747E+03  0.12772961757E+03  0.50400000000E-02 0. -1.
        -24    2    1    2    0    0  0.00000000000E+00  0.00000000000E+00 -0.11233834715E+03  0.14312088810E+03  0.88677417475E+02 0.  0.
         66    2    3    3    0    0 -0.37113595483E+02  0.17880564080E+02 -0.29836255400E+02  0.50905163580E+02  0.20000003451E+01 0.  0.
         13    1    3    3    0    0  0.37113595483E+02 -0.17880564080E+02 -0.82502091747E+02  0.92215724517E+02  0.10566000000E+00 0. -1.
         13    1    4    4    0    0 -0.18156693358E+02  0.88961048387E+01 -0.13683759294E+02  0.24414393858E+02  0.10566000000E+00 0. -1.
        -13    1    4    4    0    0 -0.25166163981E+01  0.11418779365E+01 -0.17885337326E+01  0.32935179163E+01  0.10566000000E+00 0.  1.
        -14    1    4    4    0    0 -0.16440285727E+02  0.78425813045E+01 -0.14363962373E+02  0.23197251806E+02  0.00000000000E+00 0.  1.
<mgrwt>
<rscale>  0 0.88677417E+02</rscale>
<asrwt>0</asrwt>
<pdfrwt beam="1">  1        1 0.19650710E-01 0.88677417E+02</pdfrwt>
<pdfrwt beam="2">  1       -2 0.23678878E-02 0.88677417E+02</pdfrwt>
<totfact> 0.11611803E+05</totfact>
</mgrwt>
</event>
<event>
 8    1  0.8577104E-018  0.8193549E+02  0.7818608E-02  0.1323647E+00
          1   -1    0    0  501    0  0.00000000000E+00  0.00000000000E+00  0.11430411736E+02  0.11430412847E+02  0.50400000000E-02 0. -1.
         -2   -1    0    0    0  501 -0.00000000000E+00 -0.00000000000E+00 -0.14683251440E+03  0.14683251442E+03  0.25500000000E-02 0.  1.
        -24    2    1    2    0    0  0.00000000000E+00  0.00000000000E+00 -0.13540210267E+03  0.15826292727E+03  0.81935491345E+02 0.  0.
         66    2    3    3    0    0  0.28480595367E+02  0.13527810998E+02 -0.11819168068E+03  0.12234140487E+03  0.19999949802E+01 0.  0.
         13    1    3    3    0    0 -0.28480595367E+02 -0.13527810998E+02 -0.17210421986E+02  0.35921522404E+02  0.10566000000E+00 0. -1.
         13    1    4    4    0    0  0.13024491860E+02  0.62659719244E+01 -0.56173786322E+02  0.58003493224E+02  0.10566000000E+00 0.  1.
        -13    1    4    4    0    0  0.11479756224E+02  0.55880294561E+01 -0.44390831832E+02  0.46190561709E+02  0.10566000000E+00 0. -1.
         14    1    4    4    0    0  0.39763472832E+01  0.16738096178E+01 -0.17627062525E+02  0.18147349934E+02  0.00000000000E+00 0. -1.
<mgrwt>
<rscale>  0 0.81935491E+02</rscale>
<asrwt>0</asrwt>
<pdfrwt beam="1">  1        1 0.17585251E-02 0.81935491E+02</pdfrwt>
<pdfrwt beam="2">  1       -2 0.22589616E-01 0.81935491E+02</pdfrwt>
<totfact> 0.89489459E+04</totfact>
</mgrwt>
</event>
<event>
 8    1  0.8577104E-018  0.8084663E+02  0.7818608E-02  0.1326666E+00
         -2   -1    0    0    0  501 -0.00000000000E+00  0.00000000000E+00  0.10944294396E+02  0.10944294693E+02  0.25500000000E-02 0.  1.
          1   -1    0    0  501    0  0.00000000000E+00 -0.00000000000E+00 -0.14930560268E+03  0.14930560277E+03  0.50400000000E-02 0. -1.
        -24    2    1    2    0    0 -0.88817841970E-15  0.00000000000E+00 -0.13836130828E+03  0.16024989746E+03  0.80846632616E+02 0.  0.
         66    2    3    3    0    0  0.70719512840E+01  0.33143483643E+02 -0.25636526527E+02  0.42540974308E+02  0.19999999477E+01 0.  0.
         13    1    3    3    0    0 -0.70719512840E+01 -0.33143483643E+02 -0.11272478176E+03  0.11770892315E+03  0.10566000000E+00 0. -1.
         13    1    4    4    0    0  0.92514257280E+00  0.54047457710E+01 -0.35188270175E+01  0.65161701362E+01  0.10566000000E+00 0. -1.
        -13    1    4    4    0    0  0.55036625241E+01  0.23254860644E+02 -0.18265835340E+02  0.30078742485E+02  0.10566000000E+00 0.  1.
         14    1    4    4    0    0  0.64314618706E+00  0.44838772275E+01 -0.38518641696E+01  0.59460616874E+01  0.00000000000E+00 0. -1.
<mgrwt>
<rscale>  0 0.80846633E+02</rscale>
<asrwt>0</asrwt>
<pdfrwt beam="1">  1        1 0.22970091E-01 0.80846633E+02</pdfrwt>
<pdfrwt beam="2">  1       -2 0.16837377E-02 0.80846633E+02</pdfrwt>
<totfact> 0.15337061E+05</totfact>
</mgrwt>
</event>
<event>
 8    1  0.8577104E-018  0.8014258E+02  0.7818608E-02  0.1328647E+00
         -2   -1    0    0    0  501 -0.00000000000E+00  0.00000000000E+00  0.19739489977E+03  0.19739489979E+03  0.25500000000E-02 0.  1.
          1   -1    0    0  501    0  0.00000000000E+00 -0.00000000000E+00 -0.81344971535E+01  0.81344987148E+01  0.50400000000E-02 0. -1.
        -24    2    1    2    0    0  0.71054273576E-14  0.00000000000E+00  0.18926040262E+03  0.20552939850E+03  0.80142583249E+02 0.  0.
         66    2    3    3    0    0  0.34869217878E+02  0.18364530127E+02  0.11292885304E+03  0.11962459685E+03  0.19999999718E+01 0.  0.
         13    1    3    3    0    0 -0.34869217878E+02 -0.18364530127E+02  0.76331549572E+02  0.85904801649E+02  0.10566000000E+00 0. -1.
         13    1    4    4    0    0  0.17330758509E+02  0.83084516313E+01  0.55582434241E+02  0.58811595108E+02  0.10566000000E+00 0. -1.
        -13    1    4    4    0    0  0.11407699917E+02  0.69458436639E+01  0.37047519536E+02  0.39381597599E+02  0.10566000000E+00 0.  1.
        -14    1    4    4    0    0  0.61307594530E+01  0.31102348320E+01  0.20298899267E+02  0.21431404145E+02  0.00000000000E+00 0.  1.
<mgrwt>
<rscale>  0 0.80142583E+02</rscale>
<asrwt>0</asrwt>
<pdfrwt beam="1">  1        1 0.12514613E-02 0.80142583E+02</pdfrwt>
<pdfrwt beam="2">  1       -2 0.30368445E-01 0.80142583E+02</pdfrwt>
<totfact> 0.85135694E+04</totfact>
</mgrwt>
</event>
<event>
 8    1  0.8577104E-018  0.8441020E+02  0.7818608E-02  0.1316982E+00
          1   -1    0    0  501    0  0.00000000000E+00  0.00000000000E+00  0.32745349046E+03  0.32745349050E+03  0.50400000000E-02 0. -1.
         -2   -1    0    0    0  501 -0.00000000000E+00 -0.00000000000E+00 -0.54397657012E+01  0.54397662989E+01  0.25500000000E-02 0.  1.
        -24    2    1    2    0    0  0.00000000000E+00  0.00000000000E+00  0.32201372476E+03  0.33289325680E+03  0.84410197775E+02 0.  0.
         66    2    3    3    0    0  0.11256102809E+02  0.36918429804E+02  0.22820984015E+03  0.23145928694E+03  0.20000148368E+01 0.  0.
         13    1    3    3    0    0 -0.11256102809E+02 -0.36918429804E+02  0.93803884611E+02  0.10143396986E+03  0.10566000000E+00 0. -1.
         13    1    4    4    0    0  0.46381165435E+01  0.13395056065E+02  0.79819186968E+02  0.81068202301E+02  0.10566000000E+00 0. -1.
        -13    1    4    4    0    0  0.34343264684E+01  0.11015146308E+02  0.71031569921E+02  0.71962650979E+02  0.10566000000E+00 0.  1.
         14    1    4    4    0    0  0.31836597966E+01  0.12508227431E+02  0.77359083259E+02  0.78428433657E+02  0.00000000000E+00 0. -1.
<mgrwt>
<rscale>  0 0.84410198E+02</rscale>
<asrwt>0</asrwt>
<pdfrwt beam="1">  1        1 0.50377460E-01 0.84410198E+02</pdfrwt>
<pdfrwt beam="2">  1       -2 0.83688709E-03 0.84410198E+02</pdfrwt>
<totfact> 0.15917432E+05</totfact>
</mgrwt>
</event>
<event>
 8    1  0.8577104E-018  0.7683573E+02  0.7818608E-02  0.1338279E+00
          1   -1    0    0  501    0  0.00000000000E+00  0.00000000000E+00  0.44081835564E+01  0.44081864376E+01  0.50400000000E-02 0. -1.
         -2   -1    0    0    0  501 -0.00000000000E+00 -0.00000000000E+00 -0.33481633953E+03  0.33481633954E+03  0.25500000000E-02 0.  1.
        -24    2    1    2    0    0  0.00000000000E+00  0.00000000000E+00 -0.33040815597E+03  0.33922452597E+03  0.76835730559E+02 0.  0.
         66    2    3    3    0    0  0.16613918502E+02  0.31208577316E+02 -0.23138200644E+03  0.23407612113E+03  0.19999983915E+01 0.  0.
         13    1    3    3    0    0 -0.16613918502E+02 -0.31208577316E+02 -0.99026149528E+02  0.10514840484E+03  0.10566000000E+00 0. -1.
         13    1    4    4    0    0  0.71979584745E+01  0.14201329729E+02 -0.10988761756E+03  0.11103507567E+03  0.10566000000E+00 0. -1.
        -13    1    4    4    0    0  0.61256910842E+01  0.11053299331E+02 -0.80586975960E+02  0.81571878584E+02  0.10566000000E+00 0.  1.
         14    1    4    4    0    0  0.32902689432E+01  0.59539482572E+01 -0.40907412921E+02  0.41469166876E+02  0.00000000000E+00 0. -1.
<mgrwt>
<rscale>  0 0.76835731E+02</rscale>
<asrwt>0</asrwt>
<pdfrwt beam="1">  1        1 0.67818257E-03 0.76835731E+02</pdfrwt>
<pdfrwt beam="2">  1       -2 0.51510186E-01 0.76835731E+02</pdfrwt>
<totfact> 0.73286761E+04</totfact>
</mgrwt>
</event>
<event>
 8    1  0.8577104E-018  0.8589188E+02  0.7818608E-02  0.1313117E+00
          1   -1    0    0  501    0  0.00000000000E+00  0.00000000000E+00  0.54148806963E+02  0.54148807198E+02  0.50400000000E-02 0. -1.
         -2   -1    0    0    0  501 -0.00000000000E+00 -0.00000000000E+00 -0.34060838795E+02  0.34060838890E+02  0.25500000000E-02 0.  1.
        -24    2    1    2    0    0  0.00000000000E+00  0.00000000000E+00  0.20087968168E+02  0.88209646088E+02  0.85891880861E+02 0.  0.
         66    2    3    3    0    0 -0.83691839507E+01 -0.37313434649E+02 -0.99705477731E+01  0.39569526948E+02  0.19999986772E+01 0.  0.
         13    1    3    3    0    0  0.83691839507E+01  0.37313434649E+02  0.30058515941E+02  0.48640119140E+02  0.10566000000E+00 0. -1.
         13    1    4    4    0    0 -0.11782860967E+01 -0.80400967292E+01 -0.23286716106E+01  0.84537204263E+01  0.10566000000E+00 0. -1.
        -13    1    4    4    0    0 -0.34673084535E+01 -0.12010460358E+02 -0.33218427466E+01  0.12935191888E+02  0.10566000000E+00 0.  1.
        -14    1    4    4    0    0 -0.37235894005E+01 -0.17262877562E+02 -0.43200334160E+01  0.18180614634E+02  0.00000000000E+00 0.  1.
<mgrwt>
<rscale>  0 0.85891881E+02</rscale>
<asrwt>0</asrwt>
<pdfrwt beam="1">  1        1 0.83305857E-02 0.85891881E+02</pdfrwt>
<pdfrwt beam="2">  1       -2 0.52401291E-02 0.85891881E+02</pdfrwt>
<totfact> 0.10928966E+05</totfact>
</mgrwt>
</event>
<event>
 8    1  0.8577104E-018  0.7346422E+02  0.7818608E-02  0.1348694E+00
         -2   -1    0    0    0  501 -0.00000000000E+00  0.00000000000E+00  0.27015318366E+02  0.27015318486E+02  0.25500000000E-02 0.  1.
          1   -1    0    0  501    0  0.00000000000E+00 -0.00000000000E+00 -0.49943806917E+02  0.49943807171E+02  0.50400000000E-02 0. -1.
        -24    2    1    2    0    0  0.00000000000E+00  0.00000000000E+00 -0.22928488551E+02  0.76959125657E+02  0.73464218737E+02 0.  0.
         66    2    3    3    0    0  0.17902580227E+02 -0.31803237957E+02 -0.73758249516E+01  0.37287412405E+02  0.20000016954E+01 0.  0.
         13    1    3    3    0    0 -0.17902580227E+02  0.31803237957E+02 -0.15552663599E+02  0.39671713253E+02  0.10566000000E+00 0. -1.
         13    1    4    4    0    0  0.42887152444E+01 -0.78293254546E+01 -0.24884346612E+01  0.92679494290E+01  0.10566000000E+00 0. -1.
        -13    1    4    4    0    0  0.98137319155E+01 -0.17252577320E+02 -0.39957331295E+01  0.20246920891E+02  0.10566000000E+00 0.  1.
         14    1    4    4    0    0  0.38001330671E+01 -0.67213351825E+01 -0.89165716092E+00  0.77725420846E+01  0.00000000000E+00 0. -1.
<mgrwt>
<rscale>  0 0.73464219E+02</rscale>
<asrwt>0</asrwt>
<pdfrwt beam="1">  1        1 0.76836626E-02 0.73464219E+02</pdfrwt>
<pdfrwt beam="2">  1       -2 0.41562029E-02 0.73464219E+02</pdfrwt>
<totfact> 0.16643327E+05</totfact>
</mgrwt>
</event>
<event>
 8    1  0.8577104E-018  0.8733592E+02  0.7818608E-02  0.1309434E+00
         -2   -1    0    0    0  501 -0.00000000000E+00  0.00000000000E+00  0.31847242710E+02  0.31847242812E+02  0.25500000000E-02 0.  1.
          1   -1    0    0  501    0  0.00000000000E+00 -0.00000000000E+00 -0.59876158786E+02  0.59876158998E+02  0.50400000000E-02 0. -1.
        -24    2    1    2    0    0  0.00000000000E+00  0.00000000000E+00 -0.28028916076E+02  0.91723401811E+02  0.87335916457E+02 0.  0.
         66    2    3    3    0    0  0.24124235728E+02  0.35935604810E+02 -0.81236917698E+01  0.44083339246E+02  0.19999971474E+01 0.  0.
         13    1    3    3    0    0 -0.24124235728E+02 -0.35935604810E+02 -0.19905224307E+02  0.47640062565E+02  0.10566000000E+00 0. -1.
         13    1    4    4    0    0  0.59027704619E+01  0.86900732254E+01 -0.17576559140E+01  0.10651788119E+02  0.10566000000E+00 0. -1.
        -13    1    4    4    0    0  0.16799951735E+02  0.24358615618E+02 -0.60035553501E+01  0.30193283591E+02  0.10566000000E+00 0.  1.
         14    1    4    4    0    0  0.14215135308E+01  0.28869159660E+01 -0.36248050565E+00  0.32382675353E+01  0.00000000000E+00 0. -1.
<mgrwt>
<rscale>  0 0.87335916E+02</rscale>
<asrwt>0</asrwt>
<pdfrwt beam="1">  1        1 0.92117168E-02 0.87335916E+02</pdfrwt>
<pdfrwt beam="2">  1       -2 0.48995758E-02 0.87335916E+02</pdfrwt>
<totfact> 0.10607815E+05</totfact>
</mgrwt>
</event>
<event>
 8    1  0.8577104E-018  0.8081982E+02  0.7818608E-02  0.1326741E+00
          1   -1    0    0  501    0  0.00000000000E+00  0.00000000000E+00  0.74192863197E+02  0.74192863368E+02  0.50400000000E-02 0. -1.
         -2   -1    0    0    0  501 -0.00000000000E+00 -0.00000000000E+00 -0.22009674345E+02  0.22009674493E+02  0.25500000000E-02 0.  1.
        -24    2    1    2    0    0  0.00000000000E+00  0.00000000000E+00  0.52183188852E+02  0.96202537861E+02  0.80819818684E+02 0.  0.
         66    2    3    3    0    0 -0.60713667021E+01 -0.39823153354E+02  0.29518360320E+02  0.49980782668E+02  0.20000008548E+01 0.  0.
         13    1    3    3    0    0  0.60713667021E+01  0.39823153354E+02  0.22664828532E+02  0.46221755193E+02  0.10566000000E+00 0. -1.
         13    1    4    4    0    0 -0.11766120243E+01 -0.57834760316E+01  0.49469060048E+01  0.77016916271E+01  0.10566000000E+00 0. -1.
        -13    1    4    4    0    0 -0.33657910139E+01 -0.20468183522E+02  0.14456069229E+02  0.25283674326E+02  0.10566000000E+00 0.  1.
        -14    1    4    4    0    0 -0.15289636640E+01 -0.13571493801E+02  0.10115385086E+02  0.16995416714E+02  0.00000000000E+00 0.  1.
<mgrwt>
<rscale>  0 0.80819819E+02</rscale>
<asrwt>0</asrwt>
<pdfrwt beam="1">  1        1 0.11414287E-01 0.80819819E+02</pdfrwt>
<pdfrwt beam="2">  1       -2 0.33861038E-02 0.80819819E+02</pdfrwt>
<totfact> 0.13614548E+05</totfact>
</mgrwt>
</event>
<event>
 8    1  0.8577104E-018  0.7197015E+02  0.7818608E-02  0.1353519E+00
          1   -1    0    0  501    0  0.00000000000E+00  0.00000000000E+00  0.72758283826E+02  0.72758284001E+02  0.50400000000E-02 0. -1.
         -2   -1    0    0    0  501 -0.00000000000E+00 -0.00000000000E+00 -0.17797639058E+02  0.17797639241E+02  0.25500000000E-02 0.  1.
        -24    2    1    2    0    0  0.35527136788E-14  0.00000000000E+00  0.54960644768E+02  0.90555923241E+02  0.71970151874E+02 0.  0.
         66    2    3    3    0    0  0.23854854970E+02 -0.13922229350E+02  0.56469454392E+02  0.62894212407E+02  0.20000248092E+01 0.  0.
         13    1    3    3    0    0 -0.23854854970E+02  0.13922229350E+02 -0.15088096243E+01  0.27661710834E+02  0.10566000000E+00 0. -1.
         13    1    4    4    0    0  0.10129000569E+02 -0.53479206824E+01  0.23678100383E+02  0.26303241434E+02  0.10566000000E+00 0. -1.
        -13    1    4    4    0    0  0.79139387283E+01 -0.42248124170E+01  0.17643066189E+02  0.19793140598E+02  0.10566000000E+00 0.  1.
        -14    1    4    4    0    0  0.58119156736E+01 -0.43494962508E+01  0.15148287820E+02  0.16797830375E+02  0.00000000000E+00 0.  1.
<mgrwt>
<rscale>  0 0.71970152E+02</rscale>
<asrwt>0</asrwt>
<pdfrwt beam="1">  1        1 0.11193582E-01 0.71970152E+02</pdfrwt>
<pdfrwt beam="2">  1       -2 0.27380983E-02 0.71970152E+02</pdfrwt>
<totfact> 0.18589164E+05</totfact>
</mgrwt>
</event>
<event>
 8    1  0.8577104E-018  0.8054586E+02  0.7818608E-02  0.1327509E+00
         -2   -1    0    0    0  501 -0.00000000000E+00  0.00000000000E+00  0.47087298585E+01  0.47087305490E+01  0.25500000000E-02 0.  1.
          1   -1    0    0  501    0  0.00000000000E+00 -0.00000000000E+00 -0.34444719019E+03  0.34444719023E+03  0.50400000000E-02 0. -1.
        -24    2    1    2    0    0 -0.17763568394E-14  0.00000000000E+00 -0.33973846033E+03  0.34915592078E+03  0.80545860132E+02 0.  0.
         66    2    3    3    0    0  0.10330876374E+02 -0.36729178474E+02 -0.22551153734E+03  0.22872519106E+03  0.19999993173E+01 0.  0.
         13    1    3    3    0    0 -0.10330876374E+02  0.36729178474E+02 -0.11422692299E+03  0.12043072971E+03  0.10566000000E+00 0. -1.
         13    1    4    4    0    0  0.32002540257E+01 -0.12232718285E+02 -0.70663566508E+02  0.71786014085E+02  0.10566000000E+00 0. -1.
        -13    1    4    4    0    0  0.41289147115E+01 -0.14941101404E+02 -0.96866322138E+02  0.98098827599E+02  0.10566000000E+00 0.  1.
        -14    1    4    4    0    0  0.30017076368E+01 -0.95553587855E+01 -0.57981648692E+02  0.58840349381E+02  0.00000000000E+00 0.  1.
<mgrwt>
<rscale>  0 0.80545860E+02</rscale>
<asrwt>0</asrwt>
<pdfrwt beam="1">  1        1 0.52991856E-01 0.80545860E+02</pdfrwt>
<pdfrwt beam="2">  1       -2 0.72442030E-03 0.80545860E+02</pdfrwt>
<totfact> 0.18181860E+05</totfact>
</mgrwt>
</event>
<event>
 8    1  0.8577104E-018  0.7803831E+02  0.7818608E-02  0.1334712E+00
         -2   -1    0    0    0  501 -0.00000000000E+00  0.00000000000E+00  0.25919439803E+02  0.25919439929E+02  0.25500000000E-02 0.  1.
          1   -1    0    0  501    0  0.00000000000E+00 -0.00000000000E+00 -0.58739486437E+02  0.58739486653E+02  0.50400000000E-02 0. -1.
        -24    2    1    2    0    0 -0.71054273576E-14 -0.17763568394E-14 -0.32820046633E+02  0.84658926582E+02  0.78038313596E+02 0.  0.
         66    2    3    3    0    0 -0.33302598243E+02 -0.10742241845E+02  0.22444595059E+01  0.35121167605E+02  0.20000014814E+01 0.  0.
         13    1    3    3    0    0  0.33302598243E+02  0.10742241845E+02 -0.35064506139E+02  0.49537758976E+02  0.10566000000E+00 0. -1.
         13    1    4    4    0    0 -0.10437002472E+02 -0.26414265837E+01  0.33878378393E+00  0.10771912249E+02  0.10566000000E+00 0. -1.
        -13    1    4    4    0    0 -0.20546268759E+02 -0.69904562917E+01  0.17018523550E+01  0.21769775023E+02  0.10566000000E+00 0.  1.
         14    1    4    4    0    0 -0.23193270116E+01 -0.11103589696E+01  0.20382336698E+00  0.25794803339E+01  0.00000000000E+00 0. -1.
<mgrwt>
<rscale>  0 0.78038314E+02</rscale>
<asrwt>0</asrwt>
<pdfrwt beam="1">  1        1 0.90368441E-02 0.78038314E+02</pdfrwt>
<pdfrwt beam="2">  1       -2 0.39876062E-02 0.78038314E+02</pdfrwt>
<totfact> 0.14448289E+05</totfact>
</mgrwt>
</event>
<event>
 8    1  0.8577104E-018  0.7722322E+02  0.7818608E-02  0.1337121E+00
         -2   -1    0    0    0  501 -0.00000000000E+00  0.00000000000E+00  0.80348174348E+02  0.80348174388E+02  0.25500000000E-02 0.  1.
          1   -1    0    0  501    0  0.00000000000E+00 -0.00000000000E+00 -0.18554951160E+02  0.18554951845E+02  0.50400000000E-02 0. -1.
        -24    2    1    2    0    0  0.00000000000E+00  0.00000000000E+00  0.61793223188E+02  0.98903126233E+02  0.77223221551E+02 0.  0.
         66    2    3    3    0    0  0.28804685940E+02  0.24285908047E+02  0.41581826271E+02  0.56147693934E+02  0.19999990635E+01 0.  0.
         13    1    3    3    0    0 -0.28804685940E+02 -0.24285908047E+02  0.20211396916E+02  0.42755432299E+02  0.10566000000E+00 0. -1.
         13    1    4    4    0    0  0.20982111924E+02  0.17769902234E+02  0.29637383321E+02  0.40427763979E+02  0.10566000000E+00 0. -1.
        -13    1    4    4    0    0  0.77984917908E+01  0.63880886602E+01  0.11710561558E+02  0.15452267373E+02  0.10566000000E+00 0.  1.
         14    1    4    4    0    0  0.24082224693E-01  0.12791715264E+00  0.23388139311E+00  0.26766258149E+00  0.00000000000E+00 0. -1.
<mgrwt>
<rscale>  0 0.77223222E+02</rscale>
<asrwt>0</asrwt>
<pdfrwt beam="1">  1        1 0.28546079E-02 0.77223222E+02</pdfrwt>
<pdfrwt beam="2">  1       -2 0.12361258E-01 0.77223222E+02</pdfrwt>
<totfact> 0.12216797E+05</totfact>
</mgrwt>
</event>
<event>
 8    1  0.8577104E-018  0.7960468E+02  0.7818608E-02  0.1330177E+00
          1   -1    0    0  501    0  0.00000000000E+00  0.00000000000E+00  0.29662763753E+02  0.29662764181E+02  0.50400000000E-02 0. -1.
         -2   -1    0    0    0  501 -0.00000000000E+00 -0.00000000000E+00 -0.53407904535E+02  0.53407904596E+02  0.25500000000E-02 0.  1.
        -24    2    1    2    0    0  0.00000000000E+00  0.00000000000E+00 -0.23745140782E+02  0.83070668776E+02  0.79604675115E+02 0.  0.
         66    2    3    3    0    0  0.10034372295E+02 -0.33868526902E+02 -0.30964431217E+02  0.47016611304E+02  0.19999990213E+01 0.  0.
         13    1    3    3    0    0 -0.10034372295E+02  0.33868526902E+02  0.72192904344E+01  0.36054057473E+02  0.10566000000E+00 0. -1.
         13    1    4    4    0    0  0.24485100262E+01 -0.63713195337E+01 -0.63678522432E+01  0.93353960910E+01  0.10566000000E+00 0. -1.
        -13    1    4    4    0    0  0.16053274080E+01 -0.48247920945E+01 -0.48138751028E+01  0.70028745800E+01  0.10566000000E+00 0.  1.
        -14    1    4    4    0    0  0.59805348603E+01 -0.22672415273E+02 -0.19782703871E+02  0.30678340633E+02  0.00000000000E+00 0.  1.
<mgrwt>
<rscale>  0 0.79604675E+02</rscale>
<asrwt>0</asrwt>
<pdfrwt beam="1">  1        1 0.45635022E-02 0.79604675E+02</pdfrwt>
<pdfrwt beam="2">  1       -2 0.82166007E-02 0.79604675E+02</pdfrwt>
<totfact> 0.12243712E+05</totfact>
</mgrwt>
</event>
<event>
 8    1  0.8577104E-018  0.8031680E+02  0.7818608E-02  0.1328155E+00
         -2   -1    0    0    0  501 -0.00000000000E+00  0.00000000000E+00  0.81106558355E+01  0.81106562363E+01  0.25500000000E-02 0.  1.
          1   -1    0    0  501    0  0.00000000000E+00 -0.00000000000E+00 -0.19883684650E+03  0.19883684656E+03  0.50400000000E-02 0. -1.
        -24    2    1    2    0    0  0.44408920985E-15  0.00000000000E+00 -0.19072619066E+03  0.20694750280E+03  0.80316804654E+02 0.  0.
         66    2    3    3    0    0 -0.25668929517E+01  0.39883255665E+02 -0.10486441736E+03  0.11223996191E+03  0.20000000096E+01 0.  0.
         13    1    3    3    0    0  0.25668929517E+01 -0.39883255665E+02 -0.85861773302E+02  0.94707540885E+02  0.10566000000E+00 0. -1.
         13    1    4    4    0    0 -0.11384512967E+01  0.11000939535E+02 -0.27573144159E+02  0.29708688710E+02  0.10566000000E+00 0. -1.
        -13    1    4    4    0    0 -0.12935041493E+01  0.22076983886E+02 -0.60287511458E+02  0.64215742402E+02  0.10566000000E+00 0.  1.
         14    1    4    4    0    0 -0.13493750565E+00  0.68053322446E+01 -0.17003761745E+02  0.18315530803E+02  0.00000000000E+00 0. -1.
<mgrwt>
<rscale>  0 0.80316805E+02</rscale>
<asrwt>0</asrwt>
<pdfrwt beam="1">  1        1 0.30590281E-01 0.80316805E+02</pdfrwt>
<pdfrwt beam="2">  1       -2 0.12477934E-02 0.80316805E+02</pdfrwt>
<totfact> 0.16481155E+05</totfact>
</mgrwt>
</event>
<event>
 8    1  0.1184076E-017  0.8120632E+02  0.7818608E-02  0.1325663E+00
         -2   -1    0    0    0  501 -0.00000000000E+00  0.00000000000E+00  0.12168520078E+02  0.12168520346E+02  0.25500000000E-02 0.  1.
          1   -1    0    0  501    0  0.00000000000E+00 -0.00000000000E+00 -0.13548207688E+03  0.13548207697E+03  0.50400000000E-02 0. -1.
        -24    2    1    2    0    0  0.35527136788E-14 -0.17763568394E-14 -0.12331355680E+03  0.14765059732E+03  0.81206315010E+02 0.  0.
         66    2    3    3    0    0 -0.16493976854E+02 -0.12647898932E+02  0.16725259092E+01  0.20947982290E+02  0.19999998120E+01 0.  0.
         13    1    3    3    0    0  0.16493976854E+02  0.12647898932E+02 -0.12498608271E+03  0.12670261503E+03  0.10566000000E+00 0. -1.
         13    1    4    4    0    0 -0.37353990702E+01 -0.23083172059E+01  0.22960463788E+00  0.43983425131E+01  0.10566000000E+00 0. -1.
        -13    1    4    4    0    0 -0.11241795423E+02 -0.85863277944E+01  0.15370288945E+01  0.14229427648E+02  0.10566000000E+00 0.  1.
         14    1    4    4    0    0 -0.15167823606E+01 -0.17532539318E+01 -0.94107623207E-01  0.23202121290E+01  0.00000000000E+00 0. -1.
<mgrwt>
<rscale>  0 0.81206315E+02</rscale>
<asrwt>0</asrwt>
<pdfrwt beam="1">  1        1 0.20843395E-01 0.81206315E+02</pdfrwt>
<pdfrwt beam="2">  1       -2 0.18720801E-02 0.81206315E+02</pdfrwt>
<totfact> 0.14888126E+05</totfact>
</mgrwt>
</event>
<event>
 8    1  0.8577104E-018  0.7920594E+02  0.7818608E-02  0.1331320E+00
         -2   -1    0    0    0  501 -0.00000000000E+00  0.00000000000E+00  0.17678570284E+02  0.17678570468E+02  0.25500000000E-02 0.  1.
          1   -1    0    0  501    0  0.00000000000E+00 -0.00000000000E+00 -0.88717304508E+02  0.88717304651E+02  0.50400000000E-02 0. -1.
        -24    2    1    2    0    0 -0.71054273576E-14 -0.11102230246E-15 -0.71038734224E+02  0.10639587512E+03  0.79205937165E+02 0.  0.
         66    2    3    3    0    0  0.39084590540E+02  0.40577331195E+00 -0.43889805755E+02  0.58805483749E+02  0.20000000206E+01 0.  0.
         13    1    3    3    0    0 -0.39084590540E+02 -0.40577331195E+00 -0.27148928469E+02  0.47590391370E+02  0.10566000000E+00 0. -1.
         13    1    4    4    0    0  0.63048363787E+01  0.27893667418E+00 -0.67223134198E+01  0.92211403405E+01  0.10566000000E+00 0. -1.
        -13    1    4    4    0    0  0.30933431930E+02  0.26916949980E+00 -0.34512064941E+02  0.46346989694E+02  0.10566000000E+00 0.  1.
        -14    1    4    4    0    0  0.18463222315E+01 -0.14233286203E+00 -0.26554273942E+01  0.32373537144E+01  0.00000000000E+00 0.  1.
<mgrwt>
<rscale>  0 0.79205937E+02</rscale>
<asrwt>0</asrwt>
<pdfrwt beam="1">  1        1 0.13648816E-01 0.79205937E+02</pdfrwt>
<pdfrwt beam="2">  1       -2 0.27197801E-02 0.79205937E+02</pdfrwt>
<totfact> 0.14804766E+05</totfact>
</mgrwt>
</event>
<event>
 8    1  0.8577104E-018  0.7776563E+02  0.7818608E-02  0.1335515E+00
          1   -1    0    0  501    0  0.00000000000E+00  0.00000000000E+00  0.10584668708E+03  0.10584668720E+03  0.50400000000E-02 0. -1.
         -2   -1    0    0    0  501 -0.00000000000E+00 -0.00000000000E+00 -0.14283613650E+02  0.14283613877E+02  0.25500000000E-02 0.  1.
        -24    2    1    2    0    0  0.00000000000E+00  0.00000000000E+00  0.91563073431E+02  0.12013030108E+03  0.77765627503E+02 0.  0.
         66    2    3    3    0    0 -0.17189020002E+02 -0.18377715474E+02  0.73242825356E-01  0.25242983153E+02  0.19999998210E+01 0.  0.
         13    1    3    3    0    0  0.17189020002E+02  0.18377715474E+02  0.91489830605E+02  0.94887317924E+02  0.10566000000E+00 0. -1.
         13    1    4    4    0    0 -0.75904495691E+01 -0.88217616218E+01  0.69048374750E+00  0.11658744985E+02  0.10566000000E+00 0. -1.
        -13    1    4    4    0    0 -0.35375644682E+01 -0.37611394409E+01  0.12527864974E+00  0.51659840337E+01  0.10566000000E+00 0.  1.
        -14    1    4    4    0    0 -0.60610059645E+01 -0.57948144116E+01 -0.74251957188E+00  0.84182541350E+01  0.00000000000E+00 0.  1.
<mgrwt>
<rscale>  0 0.77765628E+02</rscale>
<asrwt>0</asrwt>
<pdfrwt beam="1">  1        1 0.16284106E-01 0.77765628E+02</pdfrwt>
<pdfrwt beam="2">  1       -2 0.21974790E-02 0.77765628E+02</pdfrwt>
<totfact> 0.16017570E+05</totfact>
</mgrwt>
</event>
<event>
 8    1  0.8577104E-018  0.7965705E+02  0.7818608E-02  0.1330028E+00
          1   -1    0    0  501    0  0.00000000000E+00  0.00000000000E+00  0.28499002348E+02  0.28499002794E+02  0.50400000000E-02 0. -1.
         -2   -1    0    0    0  501 -0.00000000000E+00 -0.00000000000E+00 -0.55661994805E+02  0.55661994863E+02  0.25500000000E-02 0.  1.
        -24    2    1    2    0    0  0.88817841970E-15 -0.35527136788E-14 -0.27162992457E+02  0.84160997657E+02  0.79657048448E+02 0.  0.
         66    2    3    3    0    0  0.76912050821E+01 -0.31443915223E+02 -0.38060598184E+02  0.50004835478E+02  0.19999992112E+01 0.  0.
         13    1    3    3    0    0 -0.76912050821E+01  0.31443915223E+02  0.10897605728E+02  0.34156162179E+02  0.10566000000E+00 0. -1.
         13    1    4    4    0    0  0.57678916157E+00 -0.21400950079E+01 -0.33793564598E+01  0.40427597626E+01  0.10566000000E+00 0. -1.
        -13    1    4    4    0    0  0.11797630135E+01 -0.47069931278E+01 -0.52711971100E+01  0.71654942663E+01  0.10566000000E+00 0.  1.
        -14    1    4    4    0    0  0.59346529071E+01 -0.24596827087E+02 -0.29410044614E+02  0.38796581449E+02  0.00000000000E+00 0.  1.
<mgrwt>
<rscale>  0 0.79657048E+02</rscale>
<asrwt>0</asrwt>
<pdfrwt beam="1">  1        1 0.43844620E-02 0.79657048E+02</pdfrwt>
<pdfrwt beam="2">  1       -2 0.85633838E-02 0.79657048E+02</pdfrwt>
<totfact> 0.12133690E+05</totfact>
</mgrwt>
</event>
<event>
 8    1  0.8577104E-018  0.8119880E+02  0.7818608E-02  0.1325683E+00
         -2   -1    0    0    0  501 -0.00000000000E+00  0.00000000000E+00  0.12066136105E+02  0.12066136374E+02  0.25500000000E-02 0.  1.
          1   -1    0    0  501    0  0.00000000000E+00 -0.00000000000E+00 -0.13660637530E+03  0.13660637540E+03  0.50400000000E-02 0. -1.
        -24    2    1    2    0    0  0.00000000000E+00 -0.17763568394E-14 -0.12454023920E+03  0.14867251177E+03  0.81198796645E+02 0.  0.
         66    2    3    3    0    0  0.30571802672E+02  0.11275494791E+02 -0.18040182390E+02  0.37299062665E+02  0.19999984179E+01 0.  0.
         13    1    3    3    0    0 -0.30571802672E+02 -0.11275494791E+02 -0.10650005681E+03  0.11137344911E+03  0.10566000000E+00 0. -1.
         13    1    4    4    0    0  0.48237289996E+01  0.13578520360E+01 -0.28451967866E+01  0.57635433895E+01  0.10566000000E+00 0. -1.
        -13    1    4    4    0    0  0.10844397745E+02  0.47745101303E+01 -0.70814747301E+01  0.13804178998E+02  0.10566000000E+00 0.  1.
         14    1    4    4    0    0  0.14903675927E+02  0.51431326244E+01 -0.81135108735E+01  0.17731340278E+02  0.00000000000E+00 0. -1.
<mgrwt>
<rscale>  0 0.81198797E+02</rscale>
<asrwt>0</asrwt>
<pdfrwt beam="1">  1        1 0.21016364E-01 0.81198797E+02</pdfrwt>
<pdfrwt beam="2">  1       -2 0.18563288E-02 0.81198797E+02</pdfrwt>
<totfact> 0.14914215E+05</totfact>
</mgrwt>
</event>
<event>
 8    1  0.8577104E-018  0.7806022E+02  0.7818608E-02  0.1334648E+00
          1   -1    0    0  501    0  0.00000000000E+00  0.00000000000E+00  0.39214330958E+02  0.39214331282E+02  0.50400000000E-02 0. -1.
         -2   -1    0    0    0  501 -0.00000000000E+00 -0.00000000000E+00 -0.38846752617E+02  0.38846752701E+02  0.25500000000E-02 0.  1.
        -24    2    1    2    0    0  0.00000000000E+00  0.00000000000E+00  0.36757834047E+00  0.78061083982E+02  0.78060218541E+02 0.  0.
         66    2    3    3    0    0 -0.21923551487E+01  0.30381166300E+02 -0.24178684264E+02  0.38941372088E+02  0.20000001430E+01 0.  0.
         13    1    3    3    0    0  0.21923551487E+01 -0.30381166300E+02  0.24546262604E+02  0.39119711894E+02  0.10566000000E+00 0. -1.
         13    1    4    4    0    0 -0.60023256793E+00  0.62224716892E+01 -0.42678917020E+01  0.75700394103E+01  0.10566000000E+00 0. -1.
        -13    1    4    4    0    0 -0.88729888839E+00  0.20076792030E+02 -0.16291987132E+02  0.25870927433E+02  0.10566000000E+00 0.  1.
         14    1    4    4    0    0 -0.70482369243E+00  0.40819025807E+01 -0.36188054298E+01  0.55004052446E+01  0.00000000000E+00 0. -1.
<mgrwt>
<rscale>  0 0.78060219E+02</rscale>
<asrwt>0</asrwt>
<pdfrwt beam="1">  1        1 0.60329741E-02 0.78060219E+02</pdfrwt>
<pdfrwt beam="2">  1       -2 0.59764235E-02 0.78060219E+02</pdfrwt>
<totfact> 0.13561836E+05</totfact>
</mgrwt>
</event>
<event>
 8    1  0.8577104E-018  0.8055261E+02  0.7818608E-02  0.1327490E+00
          1   -1    0    0  501    0  0.00000000000E+00  0.00000000000E+00  0.25075108815E+02  0.25075109322E+02  0.50400000000E-02 0. -1.
         -2   -1    0    0    0  501 -0.00000000000E+00 -0.00000000000E+00 -0.64692873759E+02  0.64692873809E+02  0.25500000000E-02 0.  1.
        -24    2    1    2    0    0  0.00000000000E+00  0.22204460493E-15 -0.39617764944E+02  0.89767983131E+02  0.80552613218E+02 0.  0.
         66    2    3    3    0    0 -0.39228652847E+02  0.10495497073E+01 -0.98418944552E+01  0.40507427042E+02  0.20000000702E+01 0.  0.
         13    1    3    3    0    0  0.39228652847E+02 -0.10495497073E+01 -0.29775870488E+02  0.49260556089E+02  0.10566000000E+00 0. -1.
         13    1    4    4    0    0 -0.68990172235E+01 -0.26997903506E+00 -0.19205216307E+01  0.71672096871E+01  0.10566000000E+00 0. -1.
        -13    1    4    4    0    0 -0.96158600617E+01  0.78008836006E+00 -0.18642288805E+01  0.98264854312E+01  0.10566000000E+00 0.  1.
        -14    1    4    4    0    0 -0.22713775562E+02  0.53944038228E+00 -0.60571439440E+01  0.23513731924E+02  0.00000000000E+00 0.  1.
<mgrwt>
<rscale>  0 0.80552613E+02</rscale>
<asrwt>0</asrwt>
<pdfrwt beam="1">  1        1 0.38577091E-02 0.80552613E+02</pdfrwt>
<pdfrwt beam="2">  1       -2 0.99527498E-02 0.80552613E+02</pdfrwt>
<totfact> 0.11469064E+05</totfact>
</mgrwt>
</event>
<event>
 8    1  0.8577104E-018  0.7861480E+02  0.7818608E-02  0.1333029E+00
         -2   -1    0    0    0  501 -0.00000000000E+00  0.00000000000E+00  0.18024798869E+03  0.18024798871E+03  0.25500000000E-02 0.  1.
          1   -1    0    0  501    0  0.00000000000E+00 -0.00000000000E+00 -0.85719210721E+01  0.85719225537E+01  0.50400000000E-02 0. -1.
        -24    2    1    2    0    0  0.00000000000E+00  0.00000000000E+00  0.17167606762E+03  0.18881991126E+03  0.78614799472E+02 0.  0.
         66    2    3    3    0    0  0.34813695467E+02 -0.16315999343E+02  0.10523702208E+03  0.11205818146E+03  0.19999970778E+01 0.  0.
         13    1    3    3    0    0 -0.34813695467E+02  0.16315999343E+02  0.66439045535E+02  0.76761729803E+02  0.10566000000E+00 0. -1.
         13    1    4    4    0    0  0.44066476337E+01 -0.23671271296E+01  0.13264765893E+02  0.14176988835E+02  0.10566000000E+00 0. -1.
        -13    1    4    4    0    0  0.20468015521E+02 -0.90415892296E+01  0.59431924985E+02  0.63504762551E+02  0.10566000000E+00 0.  1.
        -14    1    4    4    0    0  0.99390323124E+01 -0.49072829843E+01  0.32540331203E+02  0.34376430071E+02  0.00000000000E+00 0.  1.
<mgrwt>
<rscale>  0 0.78614799E+02</rscale>
<asrwt>0</asrwt>
<pdfrwt beam="1">  1        1 0.13187572E-02 0.78614799E+02</pdfrwt>
<pdfrwt beam="2">  1       -2 0.27730461E-01 0.78614799E+02</pdfrwt>
<totfact> 0.92681811E+04</totfact>
</mgrwt>
</event>
<event>
 8    1  0.8577104E-018  0.7953293E+02  0.7818608E-02  0.1330382E+00
         -2   -1    0    0    0  501 -0.00000000000E+00  0.00000000000E+00  0.16056515704E+03  0.16056515706E+03  0.25500000000E-02 0.  1.
          1   -1    0    0  501    0  0.00000000000E+00 -0.00000000000E+00 -0.98487837144E+01  0.98487850040E+01  0.50400000000E-02 0. -1.
        -24    2    1    2    0    0  0.00000000000E+00  0.00000000000E+00  0.15071637333E+03  0.17041394207E+03  0.79532926902E+02 0.  0.
         66    2    3    3    0    0  0.21442465779E+02 -0.33045589131E+02  0.86657627429E+02  0.95212051201E+02  0.20000006231E+01 0.  0.
         13    1    3    3    0    0 -0.21442465779E+02  0.33045589131E+02  0.64058745900E+02  0.75201890867E+02  0.10566000000E+00 0. -1.
         13    1    4    4    0    0  0.22078249099E+01 -0.30624561723E+01  0.75269124981E+01  0.84213243870E+01  0.10566000000E+00 0. -1.
        -13    1    4    4    0    0  0.19029220088E+02 -0.29732940377E+02  0.78037259766E+02  0.85650359231E+02  0.10566000000E+00 0.  1.
        -14    1    4    4    0    0  0.20542078122E+00 -0.25019258157E+00  0.10934551651E+01  0.11403675826E+01  0.00000000000E+00 0.  1.
<mgrwt>
<rscale>  0 0.79532927E+02</rscale>
<asrwt>0</asrwt>
<pdfrwt beam="1">  1        1 0.15151977E-02 0.79532927E+02</pdfrwt>
<pdfrwt beam="2">  1       -2 0.24702331E-01 0.79532927E+02</pdfrwt>
<totfact> 0.93772242E+04</totfact>
</mgrwt>
</event>
<event>
 8    1  0.8577104E-018  0.8026203E+02  0.7818608E-02  0.1328309E+00
          1   -1    0    0  501    0  0.00000000000E+00  0.00000000000E+00  0.39266284717E+03  0.39266284720E+03  0.50400000000E-02 0. -1.
         -2   -1    0    0    0  501 -0.00000000000E+00 -0.00000000000E+00 -0.41014788877E+01  0.41014796804E+01  0.25500000000E-02 0.  1.
        -24    2    1    2    0    0  0.17763568394E-14  0.00000000000E+00  0.38856136828E+03  0.39676432688E+03  0.80262034395E+02 0.  0.
         66    2    3    3    0    0  0.57367628201E+01  0.37780001777E+02  0.25459128444E+03  0.25745089066E+03  0.20000024109E+01 0.  0.
         13    1    3    3    0    0 -0.57367628201E+01 -0.37780001777E+02  0.13397008384E+03  0.13931343622E+03  0.10566000000E+00 0. -1.
         13    1    4    4    0    0  0.45555917165E+00  0.62913179043E+01  0.45449512189E+02  0.45885264926E+02  0.10566000000E+00 0. -1.
        -13    1    4    4    0    0  0.40164621055E+01  0.25101871820E+02  0.16718162717E+03  0.16910335172E+03  0.10566000000E+00 0.  1.
         14    1    4    4    0    0  0.12647415430E+01  0.63868120525E+01  0.41960145081E+02  0.42462274015E+02  0.00000000000E+00 0. -1.
<mgrwt>
<rscale>  0 0.80262034E+02</rscale>
<asrwt>0</asrwt>
<pdfrwt beam="1">  1        1 0.60409705E-01 0.80262034E+02</pdfrwt>
<pdfrwt beam="2">  1       -2 0.63099644E-03 0.80262034E+02</pdfrwt>
<totfact> 0.18773627E+05</totfact>
</mgrwt>
</event>
<event>
 8    1  0.8577104E-018  0.7966598E+02  0.7818608E-02  0.1330002E+00
         -2   -1    0    0    0  501 -0.00000000000E+00  0.00000000000E+00  0.19029161144E+02  0.19029161315E+02  0.25500000000E-02 0.  1.
          1   -1    0    0  501    0  0.00000000000E+00 -0.00000000000E+00 -0.83380817394E+02  0.83380817546E+02  0.50400000000E-02 0. -1.
        -24    2    1    2    0    0  0.35527136788E-14  0.35527136788E-14 -0.64351656250E+02  0.10240997886E+03  0.79665978361E+02 0.  0.
         66    2    3    3    0    0 -0.27865832065E+02  0.28427637396E+02 -0.31985198275E+02  0.51104677668E+02  0.20000015634E+01 0.  0.
         13    1    3    3    0    0  0.27865832065E+02 -0.28427637396E+02 -0.32366457975E+02  0.51305301193E+02  0.10566000000E+00 0. -1.
         13    1    4    4    0    0 -0.21135040186E+01  0.23270026301E+01 -0.21817702851E+01  0.38279401889E+01  0.10566000000E+00 0. -1.
        -13    1    4    4    0    0 -0.20780959276E+02  0.21555303470E+02 -0.23686323116E+02  0.38177643234E+02  0.10566000000E+00 0.  1.
         14    1    4    4    0    0 -0.49713687705E+01  0.45453312966E+01 -0.61171048741E+01  0.90990942455E+01  0.00000000000E+00 0. -1.
<mgrwt>
<rscale>  0 0.79665978E+02</rscale>
<asrwt>0</asrwt>
<pdfrwt beam="1">  1        1 0.12827818E-01 0.79665978E+02</pdfrwt>
<pdfrwt beam="2">  1       -2 0.29275633E-02 0.79665978E+02</pdfrwt>
<totfact> 0.14427733E+05</totfact>
</mgrwt>
</event>
<event>
 8    1  0.8577104E-018  0.7774856E+02  0.7818608E-02  0.1335565E+00
         -2   -1    0    0    0  501 -0.00000000000E+00  0.00000000000E+00  0.11967705899E+03  0.11967705902E+03  0.25500000000E-02 0.  1.
          1   -1    0    0  501    0  0.00000000000E+00 -0.00000000000E+00 -0.12627395181E+02  0.12627396187E+02  0.50400000000E-02 0. -1.
        -24    2    1    2    0    0  0.00000000000E+00  0.00000000000E+00  0.10704966381E+03  0.13230445520E+03  0.77748558477E+02 0.  0.
         66    2    3    3    0    0 -0.10368586070E+02  0.10293040468E+02  0.11481532865E+03  0.11575842928E+03  0.19999993902E+01 0.  0.
         13    1    3    3    0    0  0.10368586070E+02 -0.10293040468E+02 -0.77656648455E+01  0.16546025918E+02  0.10566000000E+00 0. -1.
         13    1    4    4    0    0 -0.26926993100E+01  0.29562494387E+01  0.38013397129E+02  0.38223285647E+02  0.10566000000E+00 0. -1.
        -13    1    4    4    0    0 -0.36149299359E+01  0.34124483133E+01  0.38229238665E+02  0.38551243493E+02  0.10566000000E+00 0.  1.
        -14    1    4    4    0    0 -0.40609568236E+01  0.39243427161E+01  0.38572692859E+02  0.38983900144E+02  0.00000000000E+00 0.  1.
<mgrwt>
<rscale>  0 0.77748558E+02</rscale>
<asrwt>0</asrwt>
<pdfrwt beam="1">  1        1 0.19426763E-02 0.77748558E+02</pdfrwt>
<pdfrwt beam="2">  1       -2 0.18411855E-01 0.77748558E+02</pdfrwt>
<totfact> 0.10891109E+05</totfact>
</mgrwt>
</event>
<event>
 8    1  0.8577104E-018  0.8131122E+02  0.7818608E-02  0.1325371E+00
          1   -1    0    0  501    0  0.00000000000E+00  0.00000000000E+00  0.54408601485E+02  0.54408601719E+02  0.50400000000E-02 0. -1.
         -2   -1    0    0    0  501 -0.00000000000E+00 -0.00000000000E+00 -0.30378995979E+02  0.30378996086E+02  0.25500000000E-02 0.  1.
        -24    2    1    2    0    0  0.00000000000E+00  0.44408920985E-15  0.24029605507E+02  0.84787597804E+02  0.81311221861E+02 0.  0.
         66    2    3    3    0    0 -0.12434499577E+02  0.28908701619E+01 -0.28200413965E+02  0.31019949463E+02  0.20000017110E+01 0.  0.
         13    1    3    3    0    0  0.12434499577E+02 -0.28908701619E+01  0.52230019472E+02  0.53767648341E+02  0.10566000000E+00 0. -1.
         13    1    4    4    0    0 -0.10498344062E+01  0.60729718385E+00 -0.30358463369E+01  0.32708545010E+01  0.10566000000E+00 0. -1.
        -13    1    4    4    0    0 -0.99913386448E+01  0.20863005756E+01 -0.23051113059E+02  0.25210007444E+02  0.10566000000E+00 0.  1.
        -14    1    4    4    0    0 -0.13933265263E+01  0.19727240249E+00 -0.21134545691E+01  0.25390875182E+01  0.00000000000E+00 0.  1.
<mgrwt>
<rscale>  0 0.81311222E+02</rscale>
<asrwt>0</asrwt>
<pdfrwt beam="1">  1        1 0.83705541E-02 0.81311222E+02</pdfrwt>
<pdfrwt beam="2">  1       -2 0.46736917E-02 0.81311222E+02</pdfrwt>
<totfact> 0.12744896E+05</totfact>
</mgrwt>
</event>
<event>
 8    1  0.8577104E-018  0.7255918E+02  0.7818608E-02  0.1351601E+00
          1   -1    0    0  501    0  0.00000000000E+00  0.00000000000E+00  0.45438156277E+01  0.45438184229E+01  0.50400000000E-02 0. -1.
         -2   -1    0    0    0  501 -0.00000000000E+00 -0.00000000000E+00 -0.28967023188E+03  0.28967023189E+03  0.25500000000E-02 0.  1.
        -24    2    1    2    0    0  0.00000000000E+00 -0.35527136788E-14 -0.28512641625E+03  0.29421405031E+03  0.72559176933E+02 0.  0.
         66    2    3    3    0    0  0.27945284685E+02  0.21628268500E+02 -0.10985907771E+03  0.11541983324E+03  0.20000040246E+01 0.  0.
         13    1    3    3    0    0 -0.27945284685E+02 -0.21628268500E+02 -0.17526733854E+03  0.17879421707E+03  0.10566000000E+00 0. -1.
         13    1    4    4    0    0  0.47470136209E+01  0.33127356900E+01 -0.19391552612E+02  0.20237387006E+02  0.10566000000E+00 0.  1.
        -13    1    4    4    0    0  0.45663500280E+01  0.30078512535E+01 -0.17268753554E+02  0.18114075607E+02  0.10566000000E+00 0.  1.
         14    1    4    4    0    0  0.18631921036E+02  0.15307681556E+02 -0.73198771546E+02  0.77068370632E+02  0.00000000000E+00 0. -1.
<mgrwt>
<rscale>  0 0.72559177E+02</rscale>
<asrwt>0</asrwt>
<pdfrwt beam="1">  1        1 0.69904900E-03 0.72559177E+02</pdfrwt>
<pdfrwt beam="2">  1       -2 0.44564637E-01 0.72559177E+02</pdfrwt>
<totfact> 0.92048734E+04</totfact>
</mgrwt>
</event>
<event>
 8    1  0.8577104E-018  0.7951812E+02  0.7818608E-02  0.1330425E+00
         -2   -1    0    0    0  501 -0.00000000000E+00  0.00000000000E+00  0.58981870453E+02  0.58981870508E+02  0.25500000000E-02 0.  1.
          1   -1    0    0  501    0  0.00000000000E+00 -0.00000000000E+00 -0.26801163964E+02  0.26801164438E+02  0.50400000000E-02 0. -1.
        -24    2    1    2    0    0  0.17763568394E-14  0.00000000000E+00  0.32180706489E+02  0.85783034946E+02  0.79518118781E+02 0.  0.
         66    2    3    3    0    0 -0.14416544330E+02 -0.49507855419E+01  0.55685201268E+02  0.57768405433E+02  0.19999995277E+01 0.  0.
         13    1    3    3    0    0  0.14416544330E+02  0.49507855419E+01 -0.23504494779E+02  0.28014629513E+02  0.10566000000E+00 0. -1.
         13    1    4    4    0    0 -0.31596261852E+00 -0.29576940853E-01  0.82029122547E+00  0.88586054316E+00  0.10566000000E+00 0. -1.
        -13    1    4    4    0    0 -0.56309489444E+01 -0.23661206682E+01  0.19951524880E+02  0.20865776336E+02  0.10566000000E+00 0.  1.
        -14    1    4    4    0    0 -0.84696327674E+01 -0.25550879328E+01  0.34913385162E+02  0.36016768553E+02  0.00000000000E+00 0.  1.
<mgrwt>
<rscale>  0 0.79518119E+02</rscale>
<asrwt>0</asrwt>
<pdfrwt beam="1">  1        1 0.41232561E-02 0.79518119E+02</pdfrwt>
<pdfrwt beam="2">  1       -2 0.90741339E-02 0.79518119E+02</pdfrwt>
<totfact> 0.12059425E+05</totfact>
</mgrwt>
</event>
<event>
 8    1  0.8577104E-018  0.7937906E+02  0.7818608E-02  0.1330823E+00
         -2   -1    0    0    0  501 -0.00000000000E+00  0.00000000000E+00  0.18174707714E+03  0.18174707716E+03  0.25500000000E-02 0.  1.
          1   -1    0    0  501    0  0.00000000000E+00 -0.00000000000E+00 -0.86673129151E+01  0.86673143805E+01  0.50400000000E-02 0. -1.
        -24    2    1    2    0    0  0.00000000000E+00 -0.88817841970E-15  0.17307976422E+03  0.19041439154E+03  0.79379063491E+02 0.  0.
         66    2    3    3    0    0 -0.26046035349E+02  0.71315705707E+01  0.15628373990E+03  0.15861230272E+03  0.19999898946E+01 0.  0.
         13    1    3    3    0    0  0.26046035349E+02 -0.71315705707E+01  0.16796024321E+02  0.31802088818E+02  0.10566000000E+00 0. -1.
         13    1    4    4    0    0 -0.13101911096E+02  0.37118348954E+01  0.83494892978E+02  0.84598144838E+02  0.10566000000E+00 0. -1.
        -13    1    4    4    0    0 -0.48675808721E+01  0.16701890210E+01  0.27542378359E+02  0.28019219201E+02  0.10566000000E+00 0.  1.
        -14    1    4    4    0    0 -0.80765433806E+01  0.17495466543E+01  0.45246468568E+02  0.45994938682E+02  0.00000000000E+00 0.  1.
<mgrwt>
<rscale>  0 0.79379063E+02</rscale>
<asrwt>0</asrwt>
<pdfrwt beam="1">  1        1 0.13334330E-02 0.79379063E+02</pdfrwt>
<pdfrwt beam="2">  1       -2 0.27961086E-01 0.79379063E+02</pdfrwt>
<totfact> 0.90118927E+04</totfact>
</mgrwt>
</event>
<event>
 8    1  0.8577104E-018  0.8143960E+02  0.7818608E-02  0.1325015E+00
          1   -1    0    0  501    0  0.00000000000E+00  0.00000000000E+00  0.81624398716E+02  0.81624398872E+02  0.50400000000E-02 0. -1.
         -2   -1    0    0    0  501 -0.00000000000E+00 -0.00000000000E+00 -0.20313802788E+02  0.20313802948E+02  0.25500000000E-02 0.  1.
        -24    2    1    2    0    0 -0.35527136788E-14  0.00000000000E+00  0.61310595929E+02  0.10193820182E+03  0.81439596126E+02 0.  0.
         66    2    3    3    0    0 -0.24214954980E+02  0.11332965771E+01 -0.10240852043E+02  0.26391730846E+02  0.20000001615E+01 0.  0.
         13    1    3    3    0    0  0.24214954980E+02 -0.11332965771E+01  0.71551447971E+02  0.75546470974E+02  0.10566000000E+00 0. -1.
         13    1    4    4    0    0 -0.21200955867E+02  0.73919021287E+00 -0.90947478430E+01  0.23081432673E+02  0.10566000000E+00 0. -1.
        -13    1    4    4    0    0 -0.28548045496E+01  0.50858752244E+00 -0.11286018320E+01  0.31134348259E+01  0.10566000000E+00 0.  1.
         14    1    4    4    0    0 -0.15919456318E+00 -0.11448115822E+00 -0.17502367728E-01  0.19686334704E+00  0.00000000000E+00 0. -1.
<mgrwt>
<rscale>  0 0.81439596E+02</rscale>
<asrwt>0</asrwt>
<pdfrwt beam="1">  1        1 0.12557600E-01 0.81439596E+02</pdfrwt>
<pdfrwt beam="2">  1       -2 0.31252005E-02 0.81439596E+02</pdfrwt>
<totfact> 0.13541020E+05</totfact>
</mgrwt>
</event>
<event>
 8    1  0.8577104E-018  0.8001393E+02  0.7818608E-02  0.1329012E+00
          1   -1    0    0  501    0  0.00000000000E+00  0.00000000000E+00  0.30875615905E+03  0.30875615909E+03  0.50400000000E-02 0. -1.
         -2   -1    0    0    0  501 -0.00000000000E+00 -0.00000000000E+00 -0.51838870774E+01  0.51838877046E+01  0.25500000000E-02 0.  1.
        -24    2    1    2    0    0 -0.71054273576E-14  0.88817841970E-15  0.30357227197E+03  0.31394004679E+03  0.80013927984E+02 0.  0.
         66    2    3    3    0    0 -0.39454815835E+02  0.51815706201E+01  0.13667413978E+03  0.14236344915E+03  0.20000005765E+01 0.  0.
         13    1    3    3    0    0  0.39454815835E+02 -0.51815706201E+01  0.16689813219E+03  0.17157659765E+03  0.10566000000E+00 0. -1.
         13    1    4    4    0    0 -0.46949876850E+01  0.40448952801E-01  0.15695488896E+02  0.16383042489E+02  0.10566000000E+00 0. -1.
        -13    1    4    4    0    0 -0.14812293985E+02  0.24918680358E+01  0.52426181058E+02  0.54535576313E+02  0.10566000000E+00 0.  1.
        -14    1    4    4    0    0 -0.19947534165E+02  0.26492536315E+01  0.68552469823E+02  0.71444830344E+02  0.00000000000E+00 0.  1.
<mgrwt>
<rscale>  0 0.80013928E+02</rscale>
<asrwt>0</asrwt>
<pdfrwt beam="1">  1        1 0.47500942E-01 0.80013928E+02</pdfrwt>
<pdfrwt beam="2">  1       -2 0.79752123E-03 0.80013928E+02</pdfrwt>
<totfact> 0.18131927E+05</totfact>
</mgrwt>
</event>
<event>
 8    1  0.8577104E-018  0.8080164E+02  0.7818608E-02  0.1326792E+00
          1   -1    0    0  501    0  0.00000000000E+00  0.00000000000E+00  0.44996550265E+01  0.44996578492E+01  0.50400000000E-02 0. -1.
         -2   -1    0    0    0  501 -0.00000000000E+00 -0.00000000000E+00 -0.36274463588E+03  0.36274463589E+03  0.25500000000E-02 0.  1.
        -24    2    1    2    0    0  0.00000000000E+00  0.00000000000E+00 -0.35824498085E+03  0.36724429374E+03  0.80801639690E+02 0.  0.
         66    2    3    3    0    0 -0.18418315373E+01 -0.19213811413E+02 -0.34041380949E+03  0.34096645653E+03  0.19999724439E+01 0.  0.
         13    1    3    3    0    0  0.18418315373E+01  0.19213811413E+02 -0.17831171359E+02  0.26277837211E+02  0.10566000000E+00 0. -1.
         13    1    4    4    0    0 -0.69847376158E+00 -0.71412948332E+01 -0.12851913637E+03  0.12871932852E+03  0.10566000000E+00 0.  1.
        -13    1    4    4    0    0 -0.12743507562E+01 -0.95289310137E+01 -0.17580199083E+03  0.17606469163E+03  0.10566000000E+00 0.  1.
        -14    1    4    4    0    0  0.13099298049E+00 -0.25435855658E+01 -0.36092682300E+02  0.36182436379E+02  0.00000000000E+00 0.  1.
<mgrwt>
<rscale>  0 0.80801640E+02</rscale>
<asrwt>0</asrwt>
<pdfrwt beam="1">  1        1 0.69225513E-03 0.80801640E+02</pdfrwt>
<pdfrwt beam="2">  1       -2 0.55806844E-01 0.80801640E+02</pdfrwt>
<totfact> 0.61317541E+04</totfact>
</mgrwt>
</event>
<event>
 8    1  0.8577104E-018  0.8012788E+02  0.7818608E-02  0.1328689E+00
          1   -1    0    0  501    0  0.00000000000E+00  0.00000000000E+00  0.16398983267E+03  0.16398983275E+03  0.50400000000E-02 0. -1.
         -2   -1    0    0    0  501 -0.00000000000E+00 -0.00000000000E+00 -0.97879187193E+01  0.97879190515E+01  0.25500000000E-02 0.  1.
        -24    2    1    2    0    0  0.00000000000E+00 -0.35527136788E-14  0.15420191395E+03  0.17377775180E+03  0.80127877510E+02 0.  0.
         66    2    3    3    0    0 -0.52348273920E+01 -0.24201053119E+02  0.89098842429E+01  0.26390915716E+02  0.20000013070E+01 0.  0.
         13    1    3    3    0    0  0.52348273920E+01  0.24201053119E+02  0.14529202971E+03  0.14738683608E+03  0.10566000000E+00 0. -1.
         13    1    4    4    0    0  0.50659073394E-01 -0.51741508748E+00  0.29938399209E+00  0.60916297064E+00  0.10566000000E+00 0. -1.
        -13    1    4    4    0    0 -0.39316042696E+01 -0.15789267143E+02  0.62598995919E+01  0.17434333253E+02  0.10566000000E+00 0.  1.
        -14    1    4    4    0    0 -0.13538821958E+01 -0.78943708886E+01  0.23506006589E+01  0.83474194925E+01  0.00000000000E+00 0.  1.
<mgrwt>
<rscale>  0 0.80127878E+02</rscale>
<asrwt>0</asrwt>
<pdfrwt beam="1">  1        1 0.25229207E-01 0.80127878E+02</pdfrwt>
<pdfrwt beam="2">  1       -2 0.15058336E-02 0.80127878E+02</pdfrwt>
<totfact> 0.15984446E+05</totfact>
</mgrwt>
</event>
<event>
 8    1  0.8577104E-018  0.8009853E+02  0.7818608E-02  0.1328772E+00
          1   -1    0    0  501    0  0.00000000000E+00  0.00000000000E+00  0.16833903593E+03  0.16833903600E+03  0.50400000000E-02 0. -1.
         -2   -1    0    0    0  501 -0.00000000000E+00 -0.00000000000E+00 -0.95280552866E+01  0.95280556278E+01  0.25500000000E-02 0.  1.
        -24    2    1    2    0    0  0.00000000000E+00  0.71054273576E-14  0.15881098064E+03  0.17786709163E+03  0.80098531279E+02 0.  0.
         66    2    3    3    0    0 -0.22394316950E+02 -0.32127367663E+02  0.61107574057E+02  0.72607222703E+02  0.19999992249E+01 0.  0.
         13    1    3    3    0    0  0.22394316950E+02  0.32127367663E+02  0.97703406585E+02  0.10525986893E+03  0.10566000000E+00 0. -1.
         13    1    4    4    0    0 -0.30276384748E+01 -0.36858740838E+01  0.76936344489E+01  0.90529242549E+01  0.10566000000E+00 0. -1.
        -13    1    4    4    0    0 -0.32313624305E+01 -0.40760878215E+01  0.74485978073E+01  0.90856462850E+01  0.10566000000E+00 0. -1.
        -14    1    4    4    0    0 -0.16135316045E+02 -0.24365405758E+02  0.45965341801E+02  0.54468652163E+02  0.00000000000E+00 0.  1.
<mgrwt>
<rscale>  0 0.80098531E+02</rscale>
<asrwt>0</asrwt>
<pdfrwt beam="1">  1        1 0.25898312E-01 0.80098531E+02</pdfrwt>
<pdfrwt beam="2">  1       -2 0.14658548E-02 0.80098531E+02</pdfrwt>
<totfact> 0.16079084E+05</totfact>
</mgrwt>
</event>
<event>
 8    1  0.8577104E-018  0.8029766E+02  0.7818608E-02  0.1328209E+00
          1   -1    0    0  501    0  0.00000000000E+00  0.00000000000E+00  0.38613668726E+02  0.38613669055E+02  0.50400000000E-02 0. -1.
         -2   -1    0    0    0  501 -0.00000000000E+00 -0.00000000000E+00 -0.41745026738E+02  0.41745026816E+02  0.25500000000E-02 0.  1.
        -24    2    1    2    0    0  0.00000000000E+00  0.00000000000E+00 -0.31313580117E+01  0.80358695870E+02  0.80297662475E+02 0.  0.
         66    2    3    3    0    0  0.36059071187E+02  0.11818068716E+02 -0.14614975024E+02  0.40712662188E+02  0.20000011215E+01 0.  0.
         13    1    3    3    0    0 -0.36059071187E+02 -0.11818068716E+02  0.11483617013E+02  0.39646033682E+02  0.10566000000E+00 0. -1.
         13    1    4    4    0    0  0.43795533455E+01  0.16658553867E+01 -0.22036327735E+01  0.51790658532E+01  0.10566000000E+00 0. -1.
        -13    1    4    4    0    0  0.10919334648E+02  0.36071804107E+01 -0.49853313547E+01  0.12534285477E+02  0.10566000000E+00 0.  1.
        -14    1    4    4    0    0  0.20760183193E+02  0.65450329182E+01 -0.74260108961E+01  0.22999310858E+02  0.00000000000E+00 0.  1.
<mgrwt>
<rscale>  0 0.80297662E+02</rscale>
<asrwt>0</asrwt>
<pdfrwt beam="1">  1        1 0.59405645E-02 0.80297662E+02</pdfrwt>
<pdfrwt beam="2">  1       -2 0.64223118E-02 0.80297662E+02</pdfrwt>
<totfact> 0.12492914E+05</totfact>
</mgrwt>
</event>
<event>
 8    1  0.8577104E-018  0.8541650E+02  0.7818608E-02  0.1314347E+00
          1   -1    0    0  501    0  0.00000000000E+00  0.00000000000E+00  0.40513922039E+02  0.40513922352E+02  0.50400000000E-02 0. -1.
         -2   -1    0    0    0  501 -0.00000000000E+00 -0.00000000000E+00 -0.45021431021E+02  0.45021431093E+02  0.25500000000E-02 0.  1.
        -24    2    1    2    0    0  0.35527136788E-14  0.00000000000E+00 -0.45075089822E+01  0.85535353445E+02  0.85416503393E+02 0.  0.
         66    2    3    3    0    0 -0.27521252298E+02  0.23558468670E+02 -0.24860030005E+02  0.43982290380E+02  0.20000002610E+01 0.  0.
         13    1    3    3    0    0  0.27521252298E+02 -0.23558468670E+02  0.20352521023E+02  0.41553063066E+02  0.10566000000E+00 0. -1.
         13    1    4    4    0    0 -0.84163331072E+01  0.77970979408E+01 -0.75155273205E+01  0.13715819852E+02  0.10566000000E+00 0. -1.
        -13    1    4    4    0    0 -0.93949343057E+01  0.79510959217E+01 -0.78255494095E+01  0.14585441528E+02  0.10566000000E+00 0.  1.
         14    1    4    4    0    0 -0.97099848851E+01  0.78102748076E+01 -0.95189532751E+01  0.15681029000E+02  0.00000000000E+00 0. -1.
<mgrwt>
<rscale>  0 0.85416503E+02</rscale>
<asrwt>0</asrwt>
<pdfrwt beam="1">  1        1 0.62329111E-02 0.85416503E+02</pdfrwt>
<pdfrwt beam="2">  1       -2 0.69263740E-02 0.85416503E+02</pdfrwt>
<totfact> 0.10568330E+05</totfact>
</mgrwt>
</event>
<event>
 8    1  0.8577104E-018  0.8013896E+02  0.7818608E-02  0.1328658E+00
          1   -1    0    0  501    0  0.00000000000E+00  0.00000000000E+00  0.36126969391E+02  0.36126969743E+02  0.50400000000E-02 0. -1.
         -2   -1    0    0    0  501 -0.00000000000E+00 -0.00000000000E+00 -0.44442231690E+02  0.44442231763E+02  0.25500000000E-02 0.  1.
        -24    2    1    2    0    0  0.00000000000E+00  0.00000000000E+00 -0.83152622985E+01  0.80569201506E+02  0.80138958343E+02 0.  0.
         66    2    3    3    0    0  0.12371605502E+02 -0.27023147015E+02 -0.31141790725E+02  0.43094294417E+02  0.19999961153E+01 0.  0.
         13    1    3    3    0    0 -0.12371605502E+02  0.27023147015E+02  0.22826528426E+02  0.37474907089E+02  0.10566000000E+00 0. -1.
         13    1    4    4    0    0  0.67415020123E+01 -0.13638228170E+02 -0.15652338171E+02  0.21827871432E+02  0.10566000000E+00 0. -1.
        -13    1    4    4    0    0  0.46681939815E+01 -0.98660613576E+01 -0.11921704256E+02  0.16163829935E+02  0.10566000000E+00 0.  1.
         14    1    4    4    0    0  0.96190950809E+00 -0.35188574870E+01 -0.35677482985E+01  0.51025930503E+01  0.00000000000E+00 0. -1.
<mgrwt>
<rscale>  0 0.80138958E+02</rscale>
<asrwt>0</asrwt>
<pdfrwt beam="1">  1        1 0.55579953E-02 0.80138958E+02</pdfrwt>
<pdfrwt beam="2">  1       -2 0.68372664E-02 0.80138958E+02</pdfrwt>
<totfact> 0.12425254E+05</totfact>
</mgrwt>
</event>
<event>
 8    1  0.8577104E-018  0.8185216E+02  0.7818608E-02  0.1323876E+00
          1   -1    0    0  501    0  0.00000000000E+00  0.00000000000E+00  0.50301846172E+02  0.50301846424E+02  0.50400000000E-02 0. -1.
         -2   -1    0    0    0  501 -0.00000000000E+00 -0.00000000000E+00 -0.33297866796E+02  0.33297866894E+02  0.25500000000E-02 0.  1.
        -24    2    1    2    0    0  0.00000000000E+00  0.00000000000E+00  0.17003979375E+02  0.83599713318E+02  0.81852164004E+02 0.  0.
         66    2    3    3    0    0 -0.27185451298E+02  0.30176953339E+02  0.13430967950E+02  0.42826255655E+02  0.19999995706E+01 0.  0.
         13    1    3    3    0    0  0.27185451298E+02 -0.30176953339E+02  0.35730114259E+01  0.40773457663E+02  0.10566000000E+00 0. -1.
         13    1    4    4    0    0 -0.20805890291E+01  0.19255908116E+01  0.77860256467E+00  0.29417914051E+01  0.10566000000E+00 0. -1.
        -13    1    4    4    0    0 -0.21832505266E+02  0.23914057003E+02  0.11150829438E+02  0.34247519176E+02  0.10566000000E+00 0.  1.
        -14    1    4    4    0    0 -0.32723570028E+01  0.43373055247E+01  0.15015359470E+01  0.56369450741E+01  0.00000000000E+00 0.  1.
<mgrwt>
<rscale>  0 0.81852164E+02</rscale>
<asrwt>0</asrwt>
<pdfrwt beam="1">  1        1 0.77387456E-02 0.81852164E+02</pdfrwt>
<pdfrwt beam="2">  1       -2 0.51227487E-02 0.81852164E+02</pdfrwt>
<totfact> 0.12355946E+05</totfact>
</mgrwt>
</event>
<event>
 8    1  0.8577104E-018  0.8108756E+02  0.7818608E-02  0.1325993E+00
          1   -1    0    0  501    0  0.00000000000E+00  0.00000000000E+00  0.10796112851E+03  0.10796112863E+03  0.50400000000E-02 0. -1.
         -2   -1    0    0    0  501 -0.00000000000E+00 -0.00000000000E+00 -0.15225831659E+02  0.15225831872E+02  0.25500000000E-02 0.  1.
        -24    2    1    2    0    0  0.00000000000E+00  0.00000000000E+00  0.92735296850E+02  0.12318696050E+03  0.81087557338E+02 0.  0.
         66    2    3    3    0    0  0.16397173769E+02  0.33001819096E+02  0.20802787355E+02  0.42364411309E+02  0.20000031303E+01 0.  0.
         13    1    3    3    0    0 -0.16397173769E+02 -0.33001819096E+02  0.71932509495E+02  0.80822549190E+02  0.10566000000E+00 0. -1.
         13    1    4    4    0    0  0.23762454288E+01  0.51681788471E+01  0.38720887118E+01  0.68819219671E+01  0.10566000000E+00 0. -1.
        -13    1    4    4    0    0  0.82859050623E+01  0.16824982524E+02  0.10721247910E+02  0.21603068773E+02  0.10566000000E+00 0.  1.
        -14    1    4    4    0    0  0.57350232779E+01  0.11008657725E+02  0.62094507333E+01  0.13879420568E+02  0.00000000000E+00 0.  1.
<mgrwt>
<rscale>  0 0.81087557E+02</rscale>
<asrwt>0</asrwt>
<pdfrwt beam="1">  1        1 0.16609404E-01 0.81087557E+02</pdfrwt>
<pdfrwt beam="2">  1       -2 0.23424357E-02 0.81087557E+02</pdfrwt>
<totfact> 0.14358484E+05</totfact>
</mgrwt>
</event>
<event>
 8    1  0.8577104E-018  0.8061884E+02  0.7818608E-02  0.1327304E+00
         -2   -1    0    0    0  501 -0.00000000000E+00  0.00000000000E+00  0.15997358289E+03  0.15997358291E+03  0.25500000000E-02 0.  1.
          1   -1    0    0  501    0  0.00000000000E+00 -0.00000000000E+00 -0.10156984408E+02  0.10156985659E+02  0.50400000000E-02 0. -1.
        -24    2    1    2    0    0  0.00000000000E+00  0.17763568394E-14  0.14981659848E+03  0.17013056856E+03  0.80618838869E+02 0.  0.
         66    2    3    3    0    0 -0.54256730202E+01  0.12128322154E+02  0.15521009272E+03  0.15579058704E+03  0.19999999320E+01 0.  0.
         13    1    3    3    0    0  0.54256730202E+01 -0.12128322154E+02 -0.53934942469E+01  0.14339981528E+02  0.10566000000E+00 0. -1.
         13    1    4    4    0    0 -0.45091250799E+01  0.87152749607E+01  0.11024794078E+03  0.11068381922E+03  0.10566000000E+00 0. -1.
        -13    1    4    4    0    0 -0.88347317189E+00  0.23815306404E+01  0.28964216386E+02  0.29075577516E+02  0.10566000000E+00 0.  1.
         14    1    4    4    0    0 -0.33074768471E-01  0.10315165527E+01  0.15997935554E+02  0.16031190297E+02  0.00000000000E+00 0. -1.
<mgrwt>
<rscale>  0 0.80618839E+02</rscale>
<asrwt>0</asrwt>
<pdfrwt beam="1">  1        1 0.15626130E-02 0.80618839E+02</pdfrwt>
<pdfrwt beam="2">  1       -2 0.24611321E-01 0.80618839E+02</pdfrwt>
<totfact> 0.90668901E+04</totfact>
</mgrwt>
</event>
<event>
 8    1  0.8577104E-018  0.7869820E+02  0.7818608E-02  0.1332787E+00
         -2   -1    0    0    0  501 -0.00000000000E+00  0.00000000000E+00  0.12674785728E+02  0.12674785985E+02  0.25500000000E-02 0.  1.
          1   -1    0    0  501    0  0.00000000000E+00 -0.00000000000E+00 -0.12215998781E+03  0.12215998791E+03  0.50400000000E-02 0. -1.
        -24    2    1    2    0    0  0.00000000000E+00  0.17763568394E-14 -0.10948520208E+03  0.13483477390E+03  0.78698200599E+02 0.  0.
         66    2    3    3    0    0  0.34461363615E+02 -0.94193231360E+01 -0.82932445086E+02  0.90322199286E+02  0.20000013156E+01 0.  0.
         13    1    3    3    0    0 -0.34461363615E+02  0.94193231360E+01 -0.26552756995E+02  0.44512574613E+02  0.10566000000E+00 0. -1.
         13    1    4    4    0    0  0.72775421885E+01 -0.19255584192E+01 -0.18236025190E+02  0.19729018584E+02  0.10566000000E+00 0. -1.
        -13    1    4    4    0    0  0.24990622505E+02 -0.70501628099E+01 -0.60515316129E+02  0.65850973107E+02  0.10566000000E+00 0.  1.
        -14    1    4    4    0    0  0.21931989217E+01 -0.44360190692E+00 -0.41811037671E+01  0.47422075949E+01  0.00000000000E+00 0.  1.
<mgrwt>
<rscale>  0 0.78698201E+02</rscale>
<asrwt>0</asrwt>
<pdfrwt beam="1">  1        1 0.18793844E-01 0.78698201E+02</pdfrwt>
<pdfrwt beam="2">  1       -2 0.19499671E-02 0.78698201E+02</pdfrwt>
<totfact> 0.15898810E+05</totfact>
</mgrwt>
</event>
<event>
 8    1  0.8577104E-018  0.8037620E+02  0.7818608E-02  0.1327987E+00
          1   -1    0    0  501    0  0.00000000000E+00  0.00000000000E+00  0.30438344235E+02  0.30438344652E+02  0.50400000000E-02 0. -1.
         -2   -1    0    0    0  501 -0.00000000000E+00 -0.00000000000E+00 -0.53060813291E+02  0.53060813352E+02  0.25500000000E-02 0.  1.
        -24    2    1    2    0    0  0.00000000000E+00  0.00000000000E+00 -0.22622469056E+02  0.83499158005E+02  0.80376198475E+02 0.  0.
         66    2    3    3    0    0  0.38446767457E+02 -0.11358095096E+02 -0.87909818099E+01  0.41090651127E+02  0.19999991887E+01 0.  0.
         13    1    3    3    0    0 -0.38446767457E+02  0.11358095096E+02 -0.13831487246E+02  0.42408506878E+02  0.10566000000E+00 0. -1.
         13    1    4    4    0    0  0.17586682374E+02 -0.60708802721E+01 -0.36066812695E+01  0.18951683250E+02  0.10566000000E+00 0. -1.
        -13    1    4    4    0    0  0.18627063469E+02 -0.47283300598E+01 -0.45075547141E+01  0.19739650761E+02  0.10566000000E+00 0.  1.
        -14    1    4    4    0    0  0.22330216144E+01 -0.55888476369E+00 -0.67674582626E+00  0.23993171159E+01  0.00000000000E+00 0.  1.
<mgrwt>
<rscale>  0 0.80376198E+02</rscale>
<asrwt>0</asrwt>
<pdfrwt beam="1">  1        1 0.46828222E-02 0.80376198E+02</pdfrwt>
<pdfrwt beam="2">  1       -2 0.81632021E-02 0.80376198E+02</pdfrwt>
<totfact> 0.11963522E+05</totfact>
</mgrwt>
</event>
<event>
 8    1  0.8577104E-018  0.7992799E+02  0.7818608E-02  0.1329256E+00
         -2   -1    0    0    0  501 -0.00000000000E+00  0.00000000000E+00  0.24638082737E+02  0.24638082869E+02  0.25500000000E-02 0.  1.
          1   -1    0    0  501    0  0.00000000000E+00 -0.00000000000E+00 -0.64823269251E+02  0.64823269447E+02  0.50400000000E-02 0. -1.
        -24    2    1    2    0    0  0.00000000000E+00  0.88817841970E-15 -0.40185186514E+02  0.89461352316E+02  0.79927994739E+02 0.  0.
         66    2    3    3    0    0  0.33099885966E+02  0.70769159464E+01  0.36232377924E+01  0.34100044578E+02  0.19999994636E+01 0.  0.
         13    1    3    3    0    0 -0.33099885966E+02 -0.70769159464E+01 -0.43808424306E+02  0.55361307738E+02  0.10566000000E+00 0. -1.
         13    1    4    4    0    0  0.86654986481E+01  0.17203430083E+01  0.90335412942E+00  0.88813095659E+01  0.10566000000E+00 0. -1.
        -13    1    4    4    0    0  0.21966097568E+01  0.82592317781E+00 -0.89873194595E-01  0.23508476654E+01  0.10566000000E+00 0.  1.
        -14    1    4    4    0    0  0.22237777561E+02  0.45306497603E+01  0.28097568576E+01  0.22867887346E+02  0.00000000000E+00 0.  1.
<mgrwt>
<rscale>  0 0.79927995E+02</rscale>
<asrwt>0</asrwt>
<pdfrwt beam="1">  1        1 0.99728107E-02 0.79927995E+02</pdfrwt>
<pdfrwt beam="2">  1       -2 0.37904743E-02 0.79927995E+02</pdfrwt>
<totfact> 0.13737547E+05</totfact>
</mgrwt>
</event>
<event>
 8    1  0.8577104E-018  0.8072158E+02  0.7818608E-02  0.1327016E+00
          1   -1    0    0  501    0  0.00000000000E+00  0.00000000000E+00  0.61470274993E+01  0.61470295655E+01  0.50400000000E-02 0. -1.
         -2   -1    0    0    0  501 -0.00000000000E+00 -0.00000000000E+00 -0.26500499609E+03  0.26500499610E+03  0.25500000000E-02 0.  1.
        -24    2    1    2    0    0 -0.71054273576E-14  0.00000000000E+00 -0.25885796859E+03  0.27115202566E+03  0.80721577789E+02 0.  0.
         66    2    3    3    0    0 -0.37882451785E+02 -0.10930970230E+02 -0.15809455924E+03  0.16294924339E+03  0.19999996400E+01 0.  0.
         13    1    3    3    0    0  0.37882451785E+02  0.10930970230E+02 -0.10076340935E+03  0.10820278227E+03  0.10566000000E+00 0. -1.
         13    1    4    4    0    0 -0.11681013535E+02 -0.42934953716E+01 -0.49390297201E+02  0.50934200704E+02  0.10566000000E+00 0.  1.
        -13    1    4    4    0    0 -0.60431202332E+01 -0.16283109080E+01 -0.24671119671E+02  0.25452819263E+02  0.10566000000E+00 0.  1.
         14    1    4    4    0    0 -0.20158318016E+02 -0.50091639500E+01 -0.84033142364E+02  0.86562223425E+02  0.00000000000E+00 0. -1.
<mgrwt>
<rscale>  0 0.80721578E+02</rscale>
<asrwt>0</asrwt>
<pdfrwt beam="1">  1        1 0.94569691E-03 0.80721578E+02</pdfrwt>
<pdfrwt beam="2">  1       -2 0.40769990E-01 0.80721578E+02</pdfrwt>
<totfact> 0.73237180E+04</totfact>
</mgrwt>
</event>
<event>
 8    1  0.8577104E-018  0.7896165E+02  0.7818608E-02  0.1332024E+00
         -2   -1    0    0    0  501 -0.00000000000E+00  0.00000000000E+00  0.19278476861E+03  0.19278476863E+03  0.25500000000E-02 0.  1.
          1   -1    0    0  501    0  0.00000000000E+00 -0.00000000000E+00 -0.80853656469E+01  0.80853672177E+01  0.50400000000E-02 0. -1.
        -24    2    1    2    0    0 -0.17763568394E-14  0.00000000000E+00  0.18469940297E+03  0.20087013585E+03  0.78961649041E+02 0.  0.
         66    2    3    3    0    0 -0.13828039487E+02 -0.36931681303E+02  0.89224538953E+02  0.97571420550E+02  0.19999991888E+01 0.  0.
         13    1    3    3    0    0  0.13828039487E+02  0.36931681303E+02  0.95474864012E+02  0.10329871530E+03  0.10566000000E+00 0. -1.
         13    1    4    4    0    0 -0.24345499317E+01 -0.60934975145E+01  0.15869791012E+02  0.17173211003E+02  0.10566000000E+00 0. -1.
        -13    1    4    4    0    0 -0.90641534700E+01 -0.22698898530E+02  0.54617993362E+02  0.59837573777E+02  0.10566000000E+00 0.  1.
         14    1    4    4    0    0 -0.23293360850E+01 -0.81392852584E+01  0.18736754579E+02  0.20560635770E+02  0.00000000000E+00 0. -1.
<mgrwt>
<rscale>  0 0.78961649E+02</rscale>
<asrwt>0</asrwt>
<pdfrwt beam="1">  1        1 0.12439025E-02 0.78961649E+02</pdfrwt>
<pdfrwt beam="2">  1       -2 0.29659196E-01 0.78961649E+02</pdfrwt>
<totfact> 0.89293792E+04</totfact>
</mgrwt>
</event>
<event>
 8    1  0.8577104E-018  0.7908666E+02  0.7818608E-02  0.1331664E+00
         -2   -1    0    0    0  501 -0.00000000000E+00  0.00000000000E+00  0.57638442823E+03  0.57638442823E+03  0.25500000000E-02 0.  1.
          1   -1    0    0  501    0  0.00000000000E+00 -0.00000000000E+00 -0.27129005786E+01  0.27129052602E+01  0.50400000000E-02 0. -1.
        -24    2    1    2    0    0  0.00000000000E+00  0.00000000000E+00  0.57367152765E+03  0.57909733350E+03  0.79086661480E+02 0.  0.
         66    2    3    3    0    0 -0.21289569644E+02 -0.13858681469E+02  0.50867580362E+03  0.50931363817E+03  0.20000009812E+01 0.  0.
         13    1    3    3    0    0  0.21289569644E+02  0.13858681469E+02  0.64995724026E+02  0.69783695326E+02  0.10566000000E+00 0. -1.
         13    1    4    4    0    0 -0.85766257187E+01 -0.60067837158E+01  0.22255581943E+03  0.22280202846E+03  0.10566000000E+00 0. -1.
        -13    1    4    4    0    0 -0.75604705933E+01 -0.48829993779E+01  0.18071408756E+03  0.18093810269E+03  0.10566000000E+00 0.  1.
        -14    1    4    4    0    0 -0.51524733322E+01 -0.29688983751E+01  0.10540589664E+03  0.10557350703E+03  0.00000000000E+00 0.  1.
<mgrwt>
<rscale>  0 0.79086661E+02</rscale>
<asrwt>0</asrwt>
<pdfrwt beam="1">  1        1 0.41736946E-03 0.79086661E+02</pdfrwt>
<pdfrwt beam="2">  1       -2 0.88674575E-01 0.79086661E+02</pdfrwt>
<totfact> 0.46320093E+04</totfact>
</mgrwt>
</event>
<event>
 8    1  0.8577104E-018  0.8238784E+02  0.7818608E-02  0.1322408E+00
          1   -1    0    0  501    0  0.00000000000E+00  0.00000000000E+00  0.10529556899E+03  0.10529556911E+03  0.50400000000E-02 0. -1.
         -2   -1    0    0    0  501 -0.00000000000E+00 -0.00000000000E+00 -0.16115958248E+02  0.16115958450E+02  0.25500000000E-02 0.  1.
        -24    2    1    2    0    0  0.00000000000E+00  0.00000000000E+00  0.89179610740E+02  0.12141152756E+03  0.82387839227E+02 0.  0.
         66    2    3    3    0    0  0.34569974633E+02 -0.16573421491E+02  0.22502658109E+02  0.44498663730E+02  0.20000014430E+01 0.  0.
         13    1    3    3    0    0 -0.34569974633E+02  0.16573421491E+02  0.66676952632E+02  0.76912863829E+02  0.10566000000E+00 0. -1.
         13    1    4    4    0    0  0.10940864564E+02 -0.51232328495E+01  0.64864844398E+01  0.13712610133E+02  0.10566000000E+00 0. -1.
        -13    1    4    4    0    0  0.46318240930E+01 -0.18760800428E+01  0.25838166351E+01  0.56267879998E+01  0.10566000000E+00 0.  1.
        -14    1    4    4    0    0  0.18997285976E+02 -0.95741085987E+01  0.13432357034E+02  0.25159265598E+02  0.00000000000E+00 0.  1.
<mgrwt>
<rscale>  0 0.82387839E+02</rscale>
<asrwt>0</asrwt>
<pdfrwt beam="1">  1        1 0.16199319E-01 0.82387839E+02</pdfrwt>
<pdfrwt beam="2">  1       -2 0.24793782E-02 0.82387839E+02</pdfrwt>
<totfact> 0.13694623E+05</totfact>
</mgrwt>
</event>
<event>
 8    1  0.8577104E-018  0.7961526E+02  0.7818608E-02  0.1330147E+00
         -2   -1    0    0    0  501 -0.00000000000E+00  0.00000000000E+00  0.23289848637E+03  0.23289848639E+03  0.25500000000E-02 0.  1.
          1   -1    0    0  501    0  0.00000000000E+00 -0.00000000000E+00 -0.68040258853E+01  0.68040277520E+01  0.50400000000E-02 0. -1.
        -24    2    1    2    0    0  0.35527136788E-14  0.00000000000E+00  0.22609446049E+03  0.23970251414E+03  0.79615263746E+02 0.  0.
         66    2    3    3    0    0 -0.28277568786E+02 -0.19336277949E+02  0.17401691932E+03  0.17736798118E+03  0.19999989437E+01 0.  0.
         13    1    3    3    0    0  0.28277568786E+02  0.19336277949E+02  0.52077541161E+02  0.62334532956E+02  0.10566000000E+00 0. -1.
         13    1    4    4    0    0 -0.10557204392E+02 -0.71019091189E+01  0.63984248707E+02  0.65237159076E+02  0.10566000000E+00 0. -1.
        -13    1    4    4    0    0 -0.17142092110E+02 -0.11453930032E+02  0.10538256478E+03  0.10738035183E+03  0.10566000000E+00 0.  1.
         14    1    4    4    0    0 -0.57827228459E+00 -0.78043879819E+00  0.46501058372E+01  0.47504702767E+01  0.00000000000E+00 0. -1.
<mgrwt>
<rscale>  0 0.79615264E+02</rscale>
<asrwt>0</asrwt>
<pdfrwt beam="1">  1        1 0.10467736E-02 0.79615264E+02</pdfrwt>
<pdfrwt beam="2">  1       -2 0.35830530E-01 0.79615264E+02</pdfrwt>
<totfact> 0.80695002E+04</totfact>
</mgrwt>
</event>
<event>
 8    1  0.8577104E-018  0.7814476E+02  0.7818608E-02  0.1334400E+00
          1   -1    0    0  501    0  0.00000000000E+00  0.00000000000E+00  0.58424497385E+02  0.58424497602E+02  0.50400000000E-02 0. -1.
         -2   -1    0    0    0  501 -0.00000000000E+00 -0.00000000000E+00 -0.26130318176E+02  0.26130318301E+02  0.25500000000E-02 0.  1.
        -24    2    1    2    0    0  0.00000000000E+00  0.88817841970E-15  0.32294179209E+02  0.84554815903E+02  0.78144755945E+02 0.  0.
         66    2    3    3    0    0 -0.24227868928E+02 -0.75937088258E+01 -0.15940350941E+02  0.30045778952E+02  0.19999995406E+01 0.  0.
         13    1    3    3    0    0  0.24227868928E+02  0.75937088258E+01  0.48234530150E+02  0.54509036951E+02  0.10566000000E+00 0. -1.
         13    1    4    4    0    0 -0.45703851324E+01 -0.15202565485E+01 -0.25796198825E+01  0.54649064955E+01  0.10566000000E+00 0. -1.
        -13    1    4    4    0    0 -0.37207337139E+01 -0.53235709515E+00 -0.24579940244E+01  0.44922335320E+01  0.10566000000E+00 0.  1.
        -14    1    4    4    0    0 -0.15936750082E+02 -0.55410951821E+01 -0.10902737034E+02  0.20088638924E+02  0.00000000000E+00 0.  1.
<mgrwt>
<rscale>  0 0.78144756E+02</rscale>
<asrwt>0</asrwt>
<pdfrwt beam="1">  1        1 0.89883841E-02 0.78144756E+02</pdfrwt>
<pdfrwt beam="2">  1       -2 0.40200490E-02 0.78144756E+02</pdfrwt>
<totfact> 0.14382388E+05</totfact>
</mgrwt>
</event>
<event>
 8    1  0.8577104E-018  0.8245469E+02  0.7818608E-02  0.1322226E+00
          1   -1    0    0  501    0  0.00000000000E+00  0.00000000000E+00  0.73415655723E+02  0.73415655896E+02  0.50400000000E-02 0. -1.
         -2   -1    0    0    0  501 -0.00000000000E+00 -0.00000000000E+00 -0.23151653505E+02  0.23151653645E+02  0.25500000000E-02 0.  1.
        -24    2    1    2    0    0  0.00000000000E+00  0.00000000000E+00  0.50264002218E+02  0.96567309541E+02  0.82454686665E+02 0.  0.
         66    2    3    3    0    0  0.34350397741E+02 -0.28282673162E+01 -0.12949379767E+01  0.34548889705E+02  0.19999986296E+01 0.  0.
         13    1    3    3    0    0 -0.34350397741E+02  0.28282673162E+01  0.51558940194E+02  0.62018419836E+02  0.10566000000E+00 0. -1.
         13    1    4    4    0    0  0.23515771604E+01 -0.51473800412E-03 -0.42437856518E+00  0.23918981183E+01  0.10566000000E+00 0. -1.
        -13    1    4    4    0    0  0.10362596951E+02 -0.12024549696E+01 -0.74826537279E+00  0.10459463592E+02  0.10566000000E+00 0.  1.
        -14    1    4    4    0    0  0.21636223629E+02 -0.16252976087E+01 -0.12229403873E+00  0.21697527995E+02  0.00000000000E+00 0.  1.
<mgrwt>
<rscale>  0 0.82454687E+02</rscale>
<asrwt>0</asrwt>
<pdfrwt beam="1">  1        1 0.11294716E-01 0.82454687E+02</pdfrwt>
<pdfrwt beam="2">  1       -2 0.35617929E-02 0.82454687E+02</pdfrwt>
<totfact> 0.12865597E+05</totfact>
</mgrwt>
</event>
<event>
 8    1  0.8577104E-018  0.8032422E+02  0.7818608E-02  0.1328134E+00
         -2   -1    0    0    0  501 -0.00000000000E+00  0.00000000000E+00  0.10894681754E+03  0.10894681757E+03  0.25500000000E-02 0.  1.
          1   -1    0    0  501    0  0.00000000000E+00 -0.00000000000E+00 -0.14805342595E+02  0.14805343453E+02  0.50400000000E-02 0. -1.
        -24    2    1    2    0    0  0.35527136788E-14 -0.35527136788E-14  0.94141474946E+02  0.12375216102E+03  0.80324218347E+02 0.  0.
         66    2    3    3    0    0 -0.22968147117E+02  0.29380013293E+02  0.24234213557E+02  0.44519861284E+02  0.19999947368E+01 0.  0.
         13    1    3    3    0    0  0.22968147117E+02 -0.29380013293E+02  0.69907261389E+02  0.79232299740E+02  0.10566000000E+00 0. -1.
         13    1    4    4    0    0 -0.72645440276E+01  0.88068490908E+01  0.80866693628E+01  0.13990696060E+02  0.10566000000E+00 0. -1.
        -13    1    4    4    0    0 -0.40462503594E+01  0.47415785293E+01  0.43291340122E+01  0.75899456027E+01  0.10566000000E+00 0.  1.
        -14    1    4    4    0    0 -0.11657352730E+02  0.15831585673E+02  0.11818410182E+02  0.22939219621E+02  0.00000000000E+00 0.  1.
<mgrwt>
<rscale>  0 0.80324218E+02</rscale>
<asrwt>0</asrwt>
<pdfrwt beam="1">  1        1 0.22777451E-02 0.80324218E+02</pdfrwt>
<pdfrwt beam="2">  1       -2 0.16761049E-01 0.80324218E+02</pdfrwt>
<totfact> 0.10276018E+05</totfact>
</mgrwt>
</event>
<event>
 8    1  0.8577104E-018  0.7928462E+02  0.7818608E-02  0.1331094E+00
          1   -1    0    0  501    0  0.00000000000E+00  0.00000000000E+00  0.34626958820E+02  0.34626959187E+02  0.50400000000E-02 0. -1.
         -2   -1    0    0    0  501 -0.00000000000E+00 -0.00000000000E+00 -0.45384077961E+02  0.45384078033E+02  0.25500000000E-02 0.  1.
        -24    2    1    2    0    0  0.35527136788E-14  0.00000000000E+00 -0.10757119141E+02  0.80011037220E+02  0.79284616823E+02 0.  0.
         66    2    3    3    0    0  0.29511654246E+02  0.25077991010E+02 -0.13804959086E+02  0.41163336364E+02  0.19999989499E+01 0.  0.
         13    1    3    3    0    0 -0.29511654246E+02 -0.25077991010E+02  0.30478399451E+01  0.38847700856E+02  0.10566000000E+00 0. -1.
         13    1    4    4    0    0  0.10611658287E+02  0.82002713790E+01 -0.44831850761E+01  0.14140786921E+02  0.10566000000E+00 0. -1.
        -13    1    4    4    0    0  0.87671826084E+01  0.82285605931E+01 -0.39246484563E+01  0.12648586082E+02  0.10566000000E+00 0.  1.
        -14    1    4    4    0    0  0.10132813351E+02  0.86491590379E+01 -0.53971255533E+01  0.14373963361E+02  0.00000000000E+00 0.  1.
<mgrwt>
<rscale>  0 0.79284617E+02</rscale>
<asrwt>0</asrwt>
<pdfrwt beam="1">  1        1 0.53272245E-02 0.79284617E+02</pdfrwt>
<pdfrwt beam="2">  1       -2 0.69821658E-02 0.79284617E+02</pdfrwt>
<totfact> 0.12718674E+05</totfact>
</mgrwt>
</event>
<event>
 8    1  0.8577104E-018  0.8572958E+02  0.7818608E-02  0.1313536E+00
          1   -1    0    0  501    0  0.00000000000E+00  0.00000000000E+00  0.53807661488E+02  0.53807661724E+02  0.50400000000E-02 0. -1.
         -2   -1    0    0    0  501 -0.00000000000E+00 -0.00000000000E+00 -0.34147375011E+02  0.34147375106E+02  0.25500000000E-02 0.  1.
        -24    2    1    2    0    0  0.00000000000E+00  0.88817841970E-15  0.19660286478E+02  0.87955036830E+02  0.85729584388E+02 0.  0.
         66    2    3    3    0    0  0.38508404384E+02 -0.62104556238E+01 -0.83421987344E+01  0.39938192814E+02  0.19999995659E+01 0.  0.
         13    1    3    3    0    0 -0.38508404384E+02  0.62104556238E+01  0.28002485212E+02  0.48016844017E+02  0.10566000000E+00 0. -1.
         13    1    4    4    0    0  0.85277336850E+01 -0.81356348910E+00 -0.16211547215E+01  0.87191418167E+01  0.10566000000E+00 0. -1.
        -13    1    4    4    0    0  0.18373578718E+02 -0.28631670943E+01 -0.45084843212E+01  0.19134359556E+02  0.10566000000E+00 0.  1.
         14    1    4    4    0    0  0.11607091981E+02 -0.25337250404E+01 -0.22125596917E+01  0.12084691441E+02  0.00000000000E+00 0. -1.
<mgrwt>
<rscale>  0 0.85729584E+02</rscale>
<asrwt>0</asrwt>
<pdfrwt beam="1">  1        1 0.82781018E-02 0.85729584E+02</pdfrwt>
<pdfrwt beam="2">  1       -2 0.52534423E-02 0.85729584E+02</pdfrwt>
<totfact> 0.10975501E+05</totfact>
</mgrwt>
</event>
<event>
 8    1  0.8577104E-018  0.7966476E+02  0.7818608E-02  0.1330005E+00
          1   -1    0    0  501    0  0.00000000000E+00  0.00000000000E+00  0.83687273385E+02  0.83687273537E+02  0.50400000000E-02 0. -1.
         -2   -1    0    0    0  501 -0.00000000000E+00 -0.00000000000E+00 -0.18958899344E+02  0.18958899516E+02  0.25500000000E-02 0.  1.
        -24    2    1    2    0    0  0.35527136788E-14  0.00000000000E+00  0.64728374041E+02  0.10264617305E+03  0.79664762827E+02 0.  0.
         66    2    3    3    0    0 -0.26157280774E+02 -0.17784430901E+02  0.12437728119E+01  0.31718075114E+02  0.19999995401E+01 0.  0.
         13    1    3    3    0    0  0.26157280774E+02  0.17784430901E+02  0.63484601229E+02  0.70928097939E+02  0.10566000000E+00 0. -1.
         13    1    4    4    0    0 -0.18435030958E+01 -0.17122362416E+01  0.39598161245E+00  0.25491610549E+01  0.10566000000E+00 0. -1.
        -13    1    4    4    0    0 -0.22816133303E+02 -0.15227133725E+02  0.93838114149E+00  0.27446917197E+02  0.10566000000E+00 0.  1.
        -14    1    4    4    0    0 -0.14976443744E+01 -0.84506093505E+00 -0.90589942020E-01  0.17219968623E+01  0.00000000000E+00 0.  1.
<mgrwt>
<rscale>  0 0.79664763E+02</rscale>
<asrwt>0</asrwt>
<pdfrwt beam="1">  1        1 0.12874965E-01 0.79664763E+02</pdfrwt>
<pdfrwt beam="2">  1       -2 0.29167538E-02 0.79664763E+02</pdfrwt>
<totfact> 0.14436902E+05</totfact>
</mgrwt>
</event>
<event>
 8    1  0.8577104E-018  0.7870916E+02  0.7818608E-02  0.1332755E+00
         -2   -1    0    0    0  501 -0.00000000000E+00  0.00000000000E+00  0.72921101359E+01  0.72921105818E+01  0.25500000000E-02 0.  1.
          1   -1    0    0  501    0  0.00000000000E+00 -0.00000000000E+00 -0.21239161276E+03  0.21239161281E+03  0.50400000000E-02 0. -1.
        -24    2    1    2    0    0  0.17763568394E-14  0.00000000000E+00 -0.20509950262E+03  0.21968372340E+03  0.78709163068E+02 0.  0.
         66    2    3    3    0    0 -0.12258419635E+02 -0.36954815653E+02 -0.87113110415E+02  0.95439097110E+02  0.19999997572E+01 0.  0.
         13    1    3    3    0    0  0.12258419635E+02  0.36954815653E+02 -0.11798639220E+03  0.12424462629E+03  0.10566000000E+00 0. -1.
         13    1    4    4    0    0 -0.38292386366E+01 -0.12059307913E+02 -0.28058521681E+02  0.30779567554E+02  0.10566000000E+00 0. -1.
        -13    1    4    4    0    0 -0.84605405163E+01 -0.24434440874E+02 -0.57726088661E+02  0.63252945566E+02  0.10566000000E+00 0.  1.
         14    1    4    4    0    0  0.31359517935E-01 -0.46106686480E+00 -0.13285000736E+01  0.14065839892E+01  0.00000000000E+00 0. -1.
<mgrwt>
<rscale>  0 0.78709163E+02</rscale>
<asrwt>0</asrwt>
<pdfrwt beam="1">  1        1 0.32675628E-01 0.78709163E+02</pdfrwt>
<pdfrwt beam="2">  1       -2 0.11218633E-02 0.78709163E+02</pdfrwt>
<totfact> 0.17613043E+05</totfact>
</mgrwt>
</event>
<event>
 8    1  0.8577104E-018  0.7863645E+02  0.7818608E-02  0.1332966E+00
          1   -1    0    0  501    0  0.00000000000E+00  0.00000000000E+00  0.12189782967E+03  0.12189782978E+03  0.50400000000E-02 0. -1.
         -2   -1    0    0    0  501 -0.00000000000E+00 -0.00000000000E+00 -0.12682118521E+02  0.12682118778E+02  0.25500000000E-02 0.  1.
        -24    2    1    2    0    0  0.00000000000E+00  0.00000000000E+00  0.10921571115E+03  0.13457994856E+03  0.78636448233E+02 0.  0.
         66    2    3    3    0    0 -0.33958261986E+02  0.41627508104E+01  0.21571222607E+02  0.40494563996E+02  0.20000042544E+01 0.  0.
         13    1    3    3    0    0  0.33958261986E+02 -0.41627508104E+01  0.87644488545E+02  0.94085384560E+02  0.10566000000E+00 0. -1.
         13    1    4    4    0    0 -0.16602935802E+02  0.21206847910E+01  0.11103512753E+02  0.20086162916E+02  0.10566000000E+00 0. -1.
        -13    1    4    4    0    0 -0.70792661021E+01  0.48444841225E+00  0.48306125153E+01  0.85846770537E+01  0.10566000000E+00 0.  1.
        -14    1    4    4    0    0 -0.10276060082E+02  0.15576176071E+01  0.56370973393E+01  0.11823724026E+02  0.00000000000E+00 0.  1.
<mgrwt>
<rscale>  0 0.78636448E+02</rscale>
<asrwt>0</asrwt>
<pdfrwt beam="1">  1        1 0.18753512E-01 0.78636448E+02</pdfrwt>
<pdfrwt beam="2">  1       -2 0.19510952E-02 0.78636448E+02</pdfrwt>
<totfact> 0.15926309E+05</totfact>
</mgrwt>
</event>
<event>
 8    1  0.8577104E-018  0.7742665E+02  0.7818608E-02  0.1336517E+00
          1   -1    0    0  501    0  0.00000000000E+00  0.00000000000E+00  0.46403438619E+01  0.46403465989E+01  0.50400000000E-02 0. -1.
         -2   -1    0    0    0  501 -0.00000000000E+00 -0.00000000000E+00 -0.32297633946E+03  0.32297633947E+03  0.25500000000E-02 0.  1.
        -24    2    1    2    0    0 -0.17763568394E-14  0.00000000000E+00 -0.31833599560E+03  0.32761668607E+03  0.77426654954E+02 0.  0.
         66    2    3    3    0    0 -0.14783612429E+02  0.11616385705E+02 -0.30234129220E+03  0.30293192732E+03  0.20000030233E+01 0.  0.
         13    1    3    3    0    0  0.14783612429E+02 -0.11616385705E+02 -0.15994703400E+02  0.24684758743E+02  0.10566000000E+00 0. -1.
         13    1    4    4    0    0 -0.46541849979E+01  0.42501489902E+01 -0.10551989130E+03  0.10570801213E+03  0.10566000000E+00 0. -1.
        -13    1    4    4    0    0 -0.21354910105E+01  0.14732270257E+01 -0.33189249116E+02  0.33290661463E+02  0.10566000000E+00 0. -1.
        -14    1    4    4    0    0 -0.79939364208E+01  0.58930096892E+01 -0.16363215178E+03  0.16393325373E+03  0.00000000000E+00 0.  1.
<mgrwt>
<rscale>  0 0.77426655E+02</rscale>
<asrwt>0</asrwt>
<pdfrwt beam="1">  1        1 0.71389952E-03 0.77426655E+02</pdfrwt>
<pdfrwt beam="2">  1       -2 0.49688650E-01 0.77426655E+02</pdfrwt>
<totfact> 0.73370639E+04</totfact>
</mgrwt>
</event>
<event>
 8    1  0.8577104E-018  0.8002179E+02  0.7818608E-02  0.1328990E+00
          1   -1    0    0  501    0  0.00000000000E+00  0.00000000000E+00  0.71434879876E+01  0.71434897656E+01  0.50400000000E-02 0. -1.
         -2   -1    0    0    0  501 -0.00000000000E+00 -0.00000000000E+00 -0.22410220756E+03  0.22410220758E+03  0.25500000000E-02 0.  1.
        -24    2    1    2    0    0  0.00000000000E+00  0.00000000000E+00 -0.21695871957E+03  0.23124569734E+03  0.80021787907E+02 0.  0.
         66    2    3    3    0    0 -0.22778202108E+01  0.39808892354E+02 -0.11718265227E+03  0.12379705312E+03  0.19999979396E+01 0.  0.
         13    1    3    3    0    0  0.22778202108E+01 -0.39808892354E+02 -0.99776067302E+02  0.10744864422E+03  0.10566000000E+00 0. -1.
         13    1    4    4    0    0 -0.14743747700E+01  0.15819261409E+02 -0.45973261758E+02  0.48641286714E+02  0.10566000000E+00 0. -1.
        -13    1    4    4    0    0 -0.86258337243E+00  0.89756671119E+01 -0.27172056258E+02  0.28629328590E+02  0.10566000000E+00 0.  1.
         14    1    4    4    0    0  0.59137931716E-01  0.15013963833E+02 -0.44037334256E+02  0.46526437814E+02  0.00000000000E+00 0. -1.
<mgrwt>
<rscale>  0 0.80021788E+02</rscale>
<asrwt>0</asrwt>
<pdfrwt beam="1">  1        1 0.10989985E-02 0.80021788E+02</pdfrwt>
<pdfrwt beam="2">  1       -2 0.34477257E-01 0.80021788E+02</pdfrwt>
<totfact> 0.81022646E+04</totfact>
</mgrwt>
</event>
<event>
 8    1  0.8577104E-018  0.8335734E+02  0.7818608E-02  0.1319785E+00
          1   -1    0    0  501    0  0.00000000000E+00  0.00000000000E+00  0.11635799027E+02  0.11635800119E+02  0.50400000000E-02 0. -1.
         -2   -1    0    0    0  501 -0.00000000000E+00 -0.00000000000E+00 -0.14929027301E+03  0.14929027303E+03  0.25500000000E-02 0.  1.
        -24    2    1    2    0    0  0.00000000000E+00  0.35527136788E-14 -0.13765447398E+03  0.16092607315E+03  0.83357344079E+02 0.  0.
         66    2    3    3    0    0  0.12470952112E+02 -0.24219511710E+02 -0.12970217762E+03  0.13254721525E+03  0.19999992249E+01 0.  0.
         13    1    3    3    0    0 -0.12470952112E+02  0.24219511710E+02 -0.79522963564E+01  0.28378857895E+02  0.10566000000E+00 0. -1.
         13    1    4    4    0    0  0.67455365134E+00 -0.10138843073E+01 -0.76308036364E+01  0.77280859332E+01  0.10566000000E+00 0. -1.
        -13    1    4    4    0    0  0.33127187097E+01 -0.61742126831E+01 -0.31269285052E+02  0.32044880390E+02  0.10566000000E+00 0.  1.
         14    1    4    4    0    0  0.84836797511E+01 -0.17031414719E+02 -0.90802088935E+02  0.92774248929E+02  0.00000000000E+00 0. -1.
<mgrwt>
<rscale>  0 0.83357344E+02</rscale>
<asrwt>0</asrwt>
<pdfrwt beam="1">  1        1 0.17901231E-02 0.83357344E+02</pdfrwt>
<pdfrwt beam="2">  1       -2 0.22967733E-01 0.83357344E+02</pdfrwt>
<totfact> 0.85144928E+04</totfact>
</mgrwt>
</event>
<event>
 8    1  0.8577104E-018  0.8043223E+02  0.7818608E-02  0.1327829E+00
         -2   -1    0    0    0  501 -0.00000000000E+00  0.00000000000E+00  0.11500495649E+03  0.11500495652E+03  0.25500000000E-02 0.  1.
          1   -1    0    0  501    0  0.00000000000E+00 -0.00000000000E+00 -0.14063183088E+02  0.14063183991E+02  0.50400000000E-02 0. -1.
        -24    2    1    2    0    0  0.00000000000E+00  0.35527136788E-14  0.10094177340E+03  0.12906814051E+03  0.80432227850E+02 0.  0.
         66    2    3    3    0    0 -0.15095705014E+02  0.16956402725E+02  0.10372161305E+03  0.10619591771E+03  0.20000056167E+01 0.  0.
         13    1    3    3    0    0  0.15095705014E+02 -0.16956402725E+02 -0.27798396435E+01  0.22872222798E+02  0.10566000000E+00 0. -1.
         13    1    4    4    0    0 -0.10904091984E+01  0.89203065474E+00  0.56636265331E+01  0.58371688729E+01  0.10566000000E+00 0. -1.
        -13    1    4    4    0    0 -0.55441759915E+01  0.54013708736E+01  0.37241435177E+02  0.38037459863E+02  0.10566000000E+00 0.  1.
        -14    1    4    4    0    0 -0.84611198241E+01  0.10663001196E+02  0.60816551338E+02  0.62321288978E+02  0.00000000000E+00 0.  1.
<mgrwt>
<rscale>  0 0.80432228E+02</rscale>
<asrwt>0</asrwt>
<pdfrwt beam="1">  1        1 0.21635668E-02 0.80432228E+02</pdfrwt>
<pdfrwt beam="2">  1       -2 0.17693070E-01 0.80432228E+02</pdfrwt>
<totfact> 0.10093485E+05</totfact>
</mgrwt>
</event>
<event>
 8    1  0.8577104E-018  0.7870362E+02  0.7818608E-02  0.1332771E+00
          1   -1    0    0  501    0  0.00000000000E+00  0.00000000000E+00  0.14481080859E+03  0.14481080868E+03  0.50400000000E-02 0. -1.
         -2   -1    0    0    0  501 -0.00000000000E+00 -0.00000000000E+00 -0.10693710454E+02  0.10693710758E+02  0.25500000000E-02 0.  1.
        -24    2    1    2    0    0  0.00000000000E+00 -0.35527136788E-14  0.13411709814E+03  0.15550451944E+03  0.78703618421E+02 0.  0.
         66    2    3    3    0    0 -0.34205738409E+02  0.19206310940E+02  0.72564815089E+02  0.82514043124E+02  0.20000009116E+01 0.  0.
         13    1    3    3    0    0  0.34205738409E+02 -0.19206310940E+02  0.61552283046E+02  0.72990476312E+02  0.10566000000E+00 0. -1.
         13    1    4    4    0    0 -0.61022096409E+00  0.24800712267E+00  0.16960376704E+01  0.18225215973E+01  0.10566000000E+00 0.  1.
        -13    1    4    4    0    0 -0.94211778958E+01  0.52787608541E+01  0.19109439027E+02  0.21950073646E+02  0.10566000000E+00 0. -1.
        -14    1    4    4    0    0 -0.24174339549E+02  0.13679542963E+02  0.51759338392E+02  0.58741447880E+02  0.00000000000E+00 0.  1.
<mgrwt>
<rscale>  0 0.78703618E+02</rscale>
<asrwt>0</asrwt>
<pdfrwt beam="1">  1        1 0.22278584E-01 0.78703618E+02</pdfrwt>
<pdfrwt beam="2">  1       -2 0.16451864E-02 0.78703618E+02</pdfrwt>
<totfact> 0.16386456E+05</totfact>
</mgrwt>
</event>
<event>
 8    1  0.8577104E-018  0.7966210E+02  0.7818608E-02  0.1330013E+00
          1   -1    0    0  501    0  0.00000000000E+00  0.00000000000E+00  0.19024824366E+02  0.19024825034E+02  0.50400000000E-02 0. -1.
         -2   -1    0    0    0  501 -0.00000000000E+00 -0.00000000000E+00 -0.83391694747E+02  0.83391694786E+02  0.25500000000E-02 0.  1.
        -24    2    1    2    0    0 -0.71054273576E-14 -0.17763568394E-14 -0.64366870381E+02  0.10241651982E+03  0.79662095939E+02 0.  0.
         66    2    3    3    0    0  0.35340379404E+02  0.10609513320E+02 -0.51402455258E+02  0.63306528605E+02  0.19999920373E+01 0.  0.
         13    1    3    3    0    0 -0.35340379404E+02 -0.10609513320E+02 -0.12964415123E+02  0.39109991215E+02  0.10566000000E+00 0. -1.
         13    1    4    4    0    0  0.10513457501E+02  0.40058255690E+01 -0.15136366305E+02  0.18860015273E+02  0.10566000000E+00 0. -1.
        -13    1    4    4    0    0  0.58625130486E+01  0.17604230776E+01 -0.87543615268E+01  0.10682610095E+02  0.10566000000E+00 0.  1.
        -14    1    4    4    0    0  0.18964408854E+02  0.48432646738E+01 -0.27511727425E+02  0.33763903237E+02  0.00000000000E+00 0.  1.
<mgrwt>
<rscale>  0 0.79662096E+02</rscale>
<asrwt>0</asrwt>
<pdfrwt beam="1">  1        1 0.29268962E-02 0.79662096E+02</pdfrwt>
<pdfrwt beam="2">  1       -2 0.12829491E-01 0.79662096E+02</pdfrwt>
<totfact> 0.11195224E+05</totfact>
</mgrwt>
</event>
<event>
 8    1  0.8577104E-018  0.7766111E+02  0.7818608E-02  0.1335823E+00
          1   -1    0    0  501    0  0.00000000000E+00  0.00000000000E+00  0.58571234446E+02  0.58571234663E+02  0.50400000000E-02 0. -1.
         -2   -1    0    0    0  501 -0.00000000000E+00 -0.00000000000E+00 -0.25743213707E+02  0.25743213833E+02  0.25500000000E-02 0.  1.
        -24    2    1    2    0    0  0.00000000000E+00  0.71054273576E-14  0.32828020739E+02  0.84314448496E+02  0.77661105320E+02 0.  0.
         66    2    3    3    0    0 -0.52089945743E+01 -0.36499474609E+02  0.32859252162E+01  0.37069429254E+02  0.20000023639E+01 0.  0.
         13    1    3    3    0    0  0.52089945743E+01  0.36499474609E+02  0.29542095523E+02  0.47245019242E+02  0.10566000000E+00 0. -1.
         13    1    4    4    0    0 -0.90903869412E+00 -0.89390520342E+01  0.15218768479E+01  0.91137410427E+01  0.10566000000E+00 0. -1.
        -13    1    4    4    0    0 -0.26290511422E+01 -0.17024531180E+02  0.81344054789E+00  0.17245852294E+02  0.10566000000E+00 0.  1.
         14    1    4    4    0    0 -0.16709047380E+01 -0.10535891395E+02  0.95060782044E+00  0.10709835917E+02  0.00000000000E+00 0. -1.
<mgrwt>
<rscale>  0 0.77661105E+02</rscale>
<asrwt>0</asrwt>
<pdfrwt beam="1">  1        1 0.90109591E-02 0.77661105E+02</pdfrwt>
<pdfrwt beam="2">  1       -2 0.39604945E-02 0.77661105E+02</pdfrwt>
<totfact> 0.14635483E+05</totfact>
</mgrwt>
</event>
<event>
 8    1  0.8577104E-018  0.7942258E+02  0.7818608E-02  0.1330698E+00
          1   -1    0    0  501    0  0.00000000000E+00  0.00000000000E+00  0.15743429891E+02  0.15743430698E+02  0.50400000000E-02 0. -1.
         -2   -1    0    0    0  501 -0.00000000000E+00 -0.00000000000E+00 -0.10016791239E+03  0.10016791242E+03  0.25500000000E-02 0.  1.
        -24    2    1    2    0    0  0.17763568394E-14  0.00000000000E+00 -0.84424482494E+02  0.11591134312E+03  0.79422580029E+02 0.  0.
         66    2    3    3    0    0  0.13954165826E+02  0.78275117128E+01 -0.95242267095E+02  0.96597505817E+02  0.20000013052E+01 0.  0.
         13    1    3    3    0    0 -0.13954165826E+02 -0.78275117128E+01  0.10817784600E+02  0.19313837299E+02  0.10566000000E+00 0. -1.
         13    1    4    4    0    0  0.10910801839E+02  0.65981991249E+01 -0.76374889499E+02  0.77432013654E+02  0.10566000000E+00 0. -1.
        -13    1    4    4    0    0  0.30793752760E+01  0.12074696887E+01 -0.18320319749E+02  0.18616815380E+02  0.10566000000E+00 0.  1.
        -14    1    4    4    0    0 -0.36011289068E-01  0.21842899181E-01 -0.54705784617E+00  0.54867678304E+00  0.00000000000E+00 0.  1.
<mgrwt>
<rscale>  0 0.79422580E+02</rscale>
<asrwt>0</asrwt>
<pdfrwt beam="1">  1        1 0.24220663E-02 0.79422580E+02</pdfrwt>
<pdfrwt beam="2">  1       -2 0.15410448E-01 0.79422580E+02</pdfrwt>
<totfact> 0.10806856E+05</totfact>
</mgrwt>
</event>
<event>
 8    1  0.8577104E-018  0.7973191E+02  0.7818608E-02  0.1329814E+00
          1   -1    0    0  501    0  0.00000000000E+00  0.00000000000E+00  0.14587969823E+02  0.14587970693E+02  0.50400000000E-02 0. -1.
         -2   -1    0    0    0  501 -0.00000000000E+00 -0.00000000000E+00 -0.10894554612E+03  0.10894554615E+03  0.25500000000E-02 0.  1.
        -24    2    1    2    0    0  0.71054273576E-14  0.00000000000E+00 -0.94357576297E+02  0.12353351684E+03  0.79731910669E+02 0.  0.
         66    2    3    3    0    0 -0.35885162519E+02  0.24813445853E+01 -0.73746710384E+02  0.82076057711E+02  0.19999992063E+01 0.  0.
         13    1    3    3    0    0  0.35885162519E+02 -0.24813445853E+01 -0.20610865912E+02  0.41457459132E+02  0.10566000000E+00 0. -1.
         13    1    4    4    0    0 -0.15092225049E+02  0.14688362147E+01 -0.31091318960E+02  0.34592109151E+02  0.10566000000E+00 0. -1.
        -13    1    4    4    0    0 -0.94590955803E+01  0.66955693482E+00 -0.20899717068E+02  0.22950645596E+02  0.10566000000E+00 0.  1.
         14    1    4    4    0    0 -0.11333841890E+02  0.34295143586E+00 -0.21755674355E+02  0.24533302964E+02  0.00000000000E+00 0. -1.
<mgrwt>
<rscale>  0 0.79731911E+02</rscale>
<asrwt>0</asrwt>
<pdfrwt beam="1">  1        1 0.22443032E-02 0.79731911E+02</pdfrwt>
<pdfrwt beam="2">  1       -2 0.16760853E-01 0.79731911E+02</pdfrwt>
<totfact> 0.10472859E+05</totfact>
</mgrwt>
</event>
<event>
 8    1  0.8577104E-018  0.8749815E+02  0.7818608E-02  0.1309026E+00
          1   -1    0    0  501    0  0.00000000000E+00  0.00000000000E+00  0.10165563805E+02  0.10165565054E+02  0.50400000000E-02 0. -1.
         -2   -1    0    0    0  501 -0.00000000000E+00 -0.00000000000E+00 -0.18828090486E+03  0.18828090488E+03  0.25500000000E-02 0.  1.
        -24    2    1    2    0    0  0.00000000000E+00  0.00000000000E+00 -0.17811534106E+03  0.19844646993E+03  0.87498152605E+02 0.  0.
         66    2    3    3    0    0  0.37749080401E+02 -0.53439620827E+01 -0.40544042318E+02  0.55689948532E+02  0.19999995522E+01 0.  0.
         13    1    3    3    0    0 -0.37749080401E+02  0.53439620827E+01 -0.13757129874E+03  0.14275652140E+03  0.10566000000E+00 0. -1.
         13    1    4    4    0    0  0.15411452348E+02 -0.24899486311E+01 -0.17886646982E+02  0.23741440814E+02  0.10566000000E+00 0.  1.
        -13    1    4    4    0    0  0.79829147416E+01 -0.12378450378E+01 -0.81140899604E+01  0.11450275457E+02  0.10566000000E+00 0. -1.
        -14    1    4    4    0    0  0.14354713311E+02 -0.16161684138E+01 -0.14543305376E+02  0.20498232261E+02  0.00000000000E+00 0.  1.
<mgrwt>
<rscale>  0 0.87498153E+02</rscale>
<asrwt>0</asrwt>
<pdfrwt beam="1">  1        1 0.15639331E-02 0.87498153E+02</pdfrwt>
<pdfrwt beam="2">  1       -2 0.28966291E-01 0.87498153E+02</pdfrwt>
<totfact> 0.69122945E+04</totfact>
</mgrwt>
</event>
<event>
 8    1  0.8577104E-018  0.7649803E+02  0.7818608E-02  0.1339294E+00
          1   -1    0    0  501    0  0.00000000000E+00  0.00000000000E+00  0.96334289392E+02  0.96334289524E+02  0.50400000000E-02 0. -1.
         -2   -1    0    0    0  501 -0.00000000000E+00 -0.00000000000E+00 -0.15186567175E+02  0.15186567389E+02  0.25500000000E-02 0.  1.
        -24    2    1    2    0    0 -0.55511151231E-16  0.00000000000E+00  0.81147722217E+02  0.11152085691E+03  0.76498030731E+02 0.  0.
         66    2    3    3    0    0 -0.11731451444E+00 -0.17091950226E+02 -0.92389624804E+01  0.19532202940E+02  0.19999996923E+01 0.  0.
         13    1    3    3    0    0  0.11731451444E+00  0.17091950226E+02  0.90386684697E+02  0.91988653973E+02  0.10566000000E+00 0. -1.
         13    1    4    4    0    0 -0.34685000562E+00 -0.14352513763E+01 -0.60521193832E+00  0.15992801397E+01  0.10566000000E+00 0. -1.
        -13    1    4    4    0    0 -0.36279901430E+00 -0.14641705577E+01 -0.77986615146E+00  0.17014034785E+01  0.10566000000E+00 0.  1.
        -14    1    4    4    0    0  0.59233450548E+00 -0.14192528292E+02 -0.78538843906E+01  0.16231519322E+02  0.00000000000E+00 0.  1.
<mgrwt>
<rscale>  0 0.76498031E+02</rscale>
<asrwt>0</asrwt>
<pdfrwt beam="1">  1        1 0.14820660E-01 0.76498031E+02</pdfrwt>
<pdfrwt beam="2">  1       -2 0.23363950E-02 0.76498031E+02</pdfrwt>
<totfact> 0.16482363E+05</totfact>
</mgrwt>
</event>
<event>
 8    1  0.8577104E-018  0.7761870E+02  0.7818608E-02  0.1335948E+00
          1   -1    0    0  501    0  0.00000000000E+00  0.00000000000E+00  0.13215749055E+02  0.13215750016E+02  0.50400000000E-02 0. -1.
         -2   -1    0    0    0  501 -0.00000000000E+00 -0.00000000000E+00 -0.11396747174E+03  0.11396747177E+03  0.25500000000E-02 0.  1.
        -24    2    1    2    0    0  0.00000000000E+00 -0.17763568394E-14 -0.10075172269E+03  0.12718322179E+03  0.77618698004E+02 0.  0.
         66    2    3    3    0    0  0.18272443163E+02  0.78924078491E+01 -0.10495121567E+03  0.10684067558E+03  0.20000015349E+01 0.  0.
         13    1    3    3    0    0 -0.18272443163E+02 -0.78924078491E+01  0.41994929875E+01  0.20342546207E+02  0.10566000000E+00 0. -1.
         13    1    4    4    0    0  0.31300391782E+01  0.66146793143E+00 -0.17981597292E+02  0.18264273604E+02  0.10566000000E+00 0. -1.
        -13    1    4    4    0    0  0.10583528948E+02  0.47028748700E+01 -0.60022697613E+02  0.61129890478E+02  0.10566000000E+00 0.  1.
         14    1    4    4    0    0  0.45588750364E+01  0.25280650477E+01 -0.26946920769E+02  0.27446511498E+02  0.00000000000E+00 0. -1.
<mgrwt>
<rscale>  0 0.77618698E+02</rscale>
<asrwt>0</asrwt>
<pdfrwt beam="1">  1        1 0.20331923E-02 0.77618698E+02</pdfrwt>
<pdfrwt beam="2">  1       -2 0.17533457E-01 0.77618698E+02</pdfrwt>
<totfact> 0.11085407E+05</totfact>
</mgrwt>
</event>
<event>
 8    1  0.8577104E-018  0.7967643E+02  0.7818608E-02  0.1329972E+00
          1   -1    0    0  501    0  0.00000000000E+00  0.00000000000E+00  0.19346567380E+03  0.19346567387E+03  0.50400000000E-02 0. -1.
         -2   -1    0    0    0  501 -0.00000000000E+00 -0.00000000000E+00 -0.82034363984E+01  0.82034367947E+01  0.25500000000E-02 0.  1.
        -24    2    1    2    0    0  0.00000000000E+00  0.00000000000E+00  0.18526223740E+03  0.20166911066E+03  0.79676430565E+02 0.  0.
         66    2    3    3    0    0  0.36903105048E+02 -0.25181115874E+01  0.55412601066E+02  0.66653854972E+02  0.19999943856E+01 0.  0.
         13    1    3    3    0    0 -0.36903105048E+02  0.25181115874E+01  0.12984963634E+03  0.13501525569E+03  0.10566000000E+00 0. -1.
         13    1    4    4    0    0  0.25888518034E+01 -0.53694098875E+00  0.37568514113E+01  0.45951665746E+01  0.10566000000E+00 0. -1.
        -13    1    4    4    0    0  0.12912170131E+02 -0.13454127400E+01  0.19390724311E+02  0.23335501414E+02  0.10566000000E+00 0.  1.
        -14    1    4    4    0    0  0.21402083114E+02 -0.63575785871E+00  0.32265025344E+02  0.38723186983E+02  0.00000000000E+00 0.  1.
<mgrwt>
<rscale>  0 0.79676431E+02</rscale>
<asrwt>0</asrwt>
<pdfrwt beam="1">  1        1 0.29763949E-01 0.79676431E+02</pdfrwt>
<pdfrwt beam="2">  1       -2 0.12620672E-02 0.79676431E+02</pdfrwt>
<totfact> 0.16746262E+05</totfact>
</mgrwt>
</event>
<event>
 8    1  0.8577104E-018  0.8127394E+02  0.7818608E-02  0.1325475E+00
          1   -1    0    0  501    0  0.00000000000E+00  0.00000000000E+00  0.38386472166E+02  0.38386472497E+02  0.50400000000E-02 0. -1.
         -2   -1    0    0    0  501 -0.00000000000E+00 -0.00000000000E+00 -0.43019403936E+02  0.43019404012E+02  0.25500000000E-02 0.  1.
        -24    2    1    2    0    0  0.00000000000E+00  0.00000000000E+00 -0.46329317700E+01  0.81405876509E+02  0.81273936002E+02 0.  0.
         66    2    3    3    0    0 -0.11361275208E+02  0.30806572903E+02 -0.26257181219E+02  0.42089940342E+02  0.20000009929E+01 0.  0.
         13    1    3    3    0    0  0.11361275208E+02 -0.30806572903E+02  0.21624249449E+02  0.39315936167E+02  0.10566000000E+00 0. -1.
         13    1    4    4    0    0 -0.10222076959E+01  0.19845402302E+01 -0.20924832490E+01  0.30615288145E+01  0.10566000000E+00 0. -1.
        -13    1    4    4    0    0 -0.98025679761E+01  0.27976094314E+02 -0.23292362029E+02  0.37700099270E+02  0.10566000000E+00 0.  1.
        -14    1    4    4    0    0 -0.53649953597E+00  0.84593835877E+00 -0.87233594103E+00  0.13283122573E+01  0.00000000000E+00 0.  1.
<mgrwt>
<rscale>  0 0.81273936E+02</rscale>
<asrwt>0</asrwt>
<pdfrwt beam="1">  1        1 0.59056112E-02 0.81273936E+02</pdfrwt>
<pdfrwt beam="2">  1       -2 0.66183698E-02 0.81273936E+02</pdfrwt>
<totfact> 0.12061084E+05</totfact>
</mgrwt>
</event>
<event>
 8    1  0.8577104E-018  0.7497286E+02  0.7818608E-02  0.1343955E+00
          1   -1    0    0  501    0  0.00000000000E+00  0.00000000000E+00  0.10378067516E+02  0.10378068740E+02  0.50400000000E-02 0. -1.
         -2   -1    0    0    0  501 -0.00000000000E+00 -0.00000000000E+00 -0.13540404878E+03  0.13540404880E+03  0.25500000000E-02 0.  1.
        -24    2    1    2    0    0  0.35527136788E-14  0.35527136788E-14 -0.12502598126E+03  0.14578211754E+03  0.74972860454E+02 0.  0.
         66    2    3    3    0    0 -0.25278545080E+02 -0.23101896821E+02 -0.92080271483E+02  0.98262296047E+02  0.19999874892E+01 0.  0.
         13    1    3    3    0    0  0.25278545080E+02  0.23101896821E+02 -0.32945709781E+02  0.47519821497E+02  0.10566000000E+00 0. -1.
         13    1    4    4    0    0 -0.39186057222E+00 -0.42070468534E+00 -0.19786233976E+01  0.20631678859E+01  0.10566000000E+00 0. -1.
        -13    1    4    4    0    0 -0.49715189572E+01 -0.52442444810E+01 -0.20145481617E+02  0.21402562803E+02  0.10566000000E+00 0.  1.
        -14    1    4    4    0    0 -0.19915165551E+02 -0.17436947655E+02 -0.69956166468E+02  0.74796565358E+02  0.00000000000E+00 0.  1.
<mgrwt>
<rscale>  0 0.74972860E+02</rscale>
<asrwt>0</asrwt>
<pdfrwt beam="1">  1        1 0.15966260E-02 0.74972860E+02</pdfrwt>
<pdfrwt beam="2">  1       -2 0.20831391E-01 0.74972860E+02</pdfrwt>
<totfact> 0.11531641E+05</totfact>
</mgrwt>
</event>
<event>
 8    1  0.8577104E-018  0.7697983E+02  0.7818608E-02  0.1337847E+00
          1   -1    0    0  501    0  0.00000000000E+00  0.00000000000E+00  0.28031741237E+02  0.28031741690E+02  0.50400000000E-02 0. -1.
         -2   -1    0    0    0  501 -0.00000000000E+00 -0.00000000000E+00 -0.52849856573E+02  0.52849856635E+02  0.25500000000E-02 0.  1.
        -24    2    1    2    0    0  0.00000000000E+00  0.71054273576E-14 -0.24818115336E+02  0.80881598325E+02  0.76979829168E+02 0.  0.
         66    2    3    3    0    0 -0.43372895020E+01  0.37459789555E+02 -0.44556880795E+01  0.38025005815E+02  0.19999993095E+01 0.  0.
         13    1    3    3    0    0  0.43372895020E+01 -0.37459789555E+02 -0.20362427257E+02  0.42856592510E+02  0.10566000000E+00 0. -1.
         13    1    4    4    0    0 -0.52454851716E+00  0.32464168808E+01 -0.36418074562E+00  0.33103119735E+01  0.10566000000E+00 0.  1.
        -13    1    4    4    0    0 -0.36013920007E+01  0.32882024647E+02 -0.42762056050E+01  0.33354080225E+02  0.10566000000E+00 0.  1.
        -14    1    4    4    0    0 -0.21134898408E+00  0.13313480272E+01  0.18469827110E+00  0.13606136167E+01  0.00000000000E+00 0.  1.
<mgrwt>
<rscale>  0 0.76979829E+02</rscale>
<asrwt>0</asrwt>
<pdfrwt beam="1">  1        1 0.43125756E-02 0.76979829E+02</pdfrwt>
<pdfrwt beam="2">  1       -2 0.81307472E-02 0.76979829E+02</pdfrwt>
<totfact> 0.13347329E+05</totfact>
</mgrwt>
</event>
<event>
 8    1  0.8577104E-018  0.8018432E+02  0.7818608E-02  0.1328529E+00
          1   -1    0    0  501    0  0.00000000000E+00  0.00000000000E+00  0.47239942316E+02  0.47239942585E+02  0.50400000000E-02 0. -1.
         -2   -1    0    0    0  501 -0.00000000000E+00 -0.00000000000E+00 -0.34025889966E+02  0.34025890061E+02  0.25500000000E-02 0.  1.
        -24    2    1    2    0    0  0.00000000000E+00  0.00000000000E+00  0.13214052351E+02  0.81265832646E+02  0.80184315026E+02 0.  0.
         66    2    3    3    0    0 -0.34490756028E+02 -0.70642345469E+01 -0.12774343880E+02  0.37505993024E+02  0.19999975209E+01 0.  0.
         13    1    3    3    0    0  0.34490756028E+02  0.70642345469E+01  0.25988396230E+02  0.43759839622E+02  0.10566000000E+00 0. -1.
         13    1    4    4    0    0 -0.10765153522E+01 -0.10935994891E+00 -0.94039735315E-01  0.10912618427E+01  0.10566000000E+00 0. -1.
        -13    1    4    4    0    0 -0.15179501835E+02 -0.34544536087E+01 -0.57884257897E+01  0.16609261358E+02  0.10566000000E+00 0.  1.
        -14    1    4    4    0    0 -0.18234738841E+02 -0.35004209893E+01 -0.68918783547E+01  0.19805469824E+02  0.00000000000E+00 0.  1.
<mgrwt>
<rscale>  0 0.80184315E+02</rscale>
<asrwt>0</asrwt>
<pdfrwt beam="1">  1        1 0.72676835E-02 0.80184315E+02</pdfrwt>
<pdfrwt beam="2">  1       -2 0.52347523E-02 0.80184315E+02</pdfrwt>
<totfact> 0.12956403E+05</totfact>
</mgrwt>
</event>
<event>
 8    1  0.8577104E-018  0.8206271E+02  0.7818608E-02  0.1323298E+00
         -2   -1    0    0    0  501 -0.00000000000E+00  0.00000000000E+00  0.17986123556E+02  0.17986123737E+02  0.25500000000E-02 0.  1.
          1   -1    0    0  501    0  0.00000000000E+00 -0.00000000000E+00 -0.93603941907E+02  0.93603942043E+02  0.50400000000E-02 0. -1.
        -24    2    1    2    0    0  0.00000000000E+00  0.00000000000E+00 -0.75617818351E+02  0.11159006578E+03  0.82062709732E+02 0.  0.
         66    2    3    3    0    0 -0.10857034776E+02 -0.33099693409E+02 -0.84108066172E+01  0.35891594870E+02  0.20000016186E+01 0.  0.
         13    1    3    3    0    0  0.10857034776E+02  0.33099693409E+02 -0.67207011734E+02  0.75698470910E+02  0.10566000000E+00 0. -1.
         13    1    4    4    0    0 -0.71336333873E+01 -0.21249916899E+02 -0.51350947418E+01  0.22996261774E+02  0.10566000000E+00 0. -1.
        -13    1    4    4    0    0 -0.34804859694E+01 -0.11094325567E+02 -0.27666684448E+01  0.11952550384E+02  0.10566000000E+00 0.  1.
         14    1    4    4    0    0 -0.24291541950E+00 -0.75545094280E+00 -0.50904343062E+00  0.94278271212E+00  0.00000000000E+00 0. -1.
<mgrwt>
<rscale>  0 0.82062710E+02</rscale>
<asrwt>0</asrwt>
<pdfrwt beam="1">  1        1 0.14400606E-01 0.82062710E+02</pdfrwt>
<pdfrwt beam="2">  1       -2 0.27670960E-02 0.82062710E+02</pdfrwt>
<totfact> 0.13567541E+05</totfact>
</mgrwt>
</event>
<event>
 8    1  0.8577104E-018  0.8012073E+02  0.7818608E-02  0.1328709E+00
         -2   -1    0    0    0  501 -0.00000000000E+00  0.00000000000E+00  0.22026915088E+02  0.22026915236E+02  0.25500000000E-02 0.  1.
          1   -1    0    0  501    0  0.00000000000E+00 -0.00000000000E+00 -0.72857807389E+02  0.72857807563E+02  0.50400000000E-02 0. -1.
        -24    2    1    2    0    0 -0.22204460493E-15  0.00000000000E+00 -0.50830892301E+02  0.94884722799E+02  0.80120727708E+02 0.  0.
         66    2    3    3    0    0  0.15473485717E+01  0.26681066124E+02  0.98702786062E+01  0.28560391738E+02  0.19999998323E+01 0.  0.
         13    1    3    3    0    0 -0.15473485717E+01 -0.26681066124E+02 -0.60701170907E+02  0.66324331061E+02  0.10566000000E+00 0. -1.
         13    1    4    4    0    0 -0.20295245918E+00  0.64256215073E+01  0.22270667557E+01  0.68044685190E+01  0.10566000000E+00 0.  1.
        -13    1    4    4    0    0 -0.14983791586E+00  0.37424205022E+01  0.14464515998E+01  0.40164099496E+01  0.10566000000E+00 0. -1.
        -14    1    4    4    0    0  0.19001389468E+01  0.16513024115E+02  0.61967602506E+01  0.17739513269E+02  0.00000000000E+00 0.  1.
<mgrwt>
<rscale>  0 0.80120728E+02</rscale>
<asrwt>0</asrwt>
<pdfrwt beam="1">  1        1 0.11208893E-01 0.80120728E+02</pdfrwt>
<pdfrwt beam="2">  1       -2 0.33887562E-02 0.80120728E+02</pdfrwt>
<totfact> 0.13901518E+05</totfact>
</mgrwt>
</event>
<event>
 8    1  0.8577104E-018  0.8051523E+02  0.7818608E-02  0.1327596E+00
         -2   -1    0    0    0  501 -0.00000000000E+00  0.00000000000E+00  0.23134409545E+02  0.23134409685E+02  0.25500000000E-02 0.  1.
          1   -1    0    0  501    0  0.00000000000E+00 -0.00000000000E+00 -0.70054754314E+02  0.70054754496E+02  0.50400000000E-02 0. -1.
        -24    2    1    2    0    0  0.00000000000E+00  0.00000000000E+00 -0.46920344770E+02  0.93189164181E+02  0.80515225687E+02 0.  0.
         66    2    3    3    0    0  0.16150156720E+02  0.20642388559E+00  0.19174047950E+02  0.25149836686E+02  0.19999994112E+01 0.  0.
         13    1    3    3    0    0 -0.16150156720E+02 -0.20642388559E+00 -0.66094392720E+02  0.68039327495E+02  0.10566000000E+00 0. -1.
         13    1    4    4    0    0 -0.21307865706E-02 -0.28850900914E-01  0.80817683705E-01  0.13613393528E+00  0.10566000000E+00 0. -1.
        -13    1    4    4    0    0  0.12827594953E+02  0.24175278149E+00  0.15402742362E+02  0.20046477820E+02  0.10566000000E+00 0.  1.
         14    1    4    4    0    0  0.33246925538E+01 -0.64779949844E-02  0.36904879045E+01  0.49672249310E+01  0.00000000000E+00 0. -1.
<mgrwt>
<rscale>  0 0.80515226E+02</rscale>
<asrwt>0</asrwt>
<pdfrwt beam="1">  1        1 0.10777654E-01 0.80515226E+02</pdfrwt>
<pdfrwt beam="2">  1       -2 0.35591400E-02 0.80515226E+02</pdfrwt>
<totfact> 0.13630530E+05</totfact>
</mgrwt>
</event>
<event>
 8    1  0.8577104E-018  0.8071401E+02  0.7818608E-02  0.1327037E+00
         -2   -1    0    0    0  501 -0.00000000000E+00  0.00000000000E+00  0.20673187162E+02  0.20673187319E+02  0.25500000000E-02 0.  1.
          1   -1    0    0  501    0  0.00000000000E+00 -0.00000000000E+00 -0.78782624674E+02  0.78782624835E+02  0.50400000000E-02 0. -1.
        -24    2    1    2    0    0  0.00000000000E+00  0.35527136788E-14 -0.58109437512E+02  0.99455812154E+02  0.80714012682E+02 0.  0.
         66    2    3    3    0    0  0.25071282265E+02  0.20739637009E+02  0.29372392433E+00  0.32600429667E+02  0.20000007703E+01 0.  0.
         13    1    3    3    0    0 -0.25071282265E+02 -0.20739637009E+02 -0.58403161436E+02  0.66855382487E+02  0.10566000000E+00 0. -1.
         13    1    4    4    0    0  0.10750328585E+01  0.59633406717E+00 -0.23470037721E+00  0.12560088651E+01  0.10566000000E+00 0. -1.
        -13    1    4    4    0    0  0.77645195538E+01  0.61380830982E+01 -0.37862952627E-01  0.98983041811E+01  0.10566000000E+00 0.  1.
         14    1    4    4    0    0  0.16231729852E+02  0.14005219844E+02  0.56628725416E+00  0.21446116621E+02  0.00000000000E+00 0. -1.
<mgrwt>
<rscale>  0 0.80714013E+02</rscale>
<asrwt>0</asrwt>
<pdfrwt beam="1">  1        1 0.12120404E-01 0.80714013E+02</pdfrwt>
<pdfrwt beam="2">  1       -2 0.31804904E-02 0.80714013E+02</pdfrwt>
<totfact> 0.13796082E+05</totfact>
</mgrwt>
</event>
<event>
 8    1  0.8577104E-018  0.7801764E+02  0.7818608E-02  0.1334773E+00
          1   -1    0    0  501    0  0.00000000000E+00  0.00000000000E+00  0.20360376446E+03  0.20360376452E+03  0.50400000000E-02 0. -1.
         -2   -1    0    0    0  501 -0.00000000000E+00 -0.00000000000E+00 -0.74737712801E+01  0.74737717151E+01  0.25500000000E-02 0.  1.
        -24    2    1    2    0    0  0.00000000000E+00  0.00000000000E+00  0.19612999318E+03  0.21107753624E+03  0.78017639539E+02 0.  0.
         66    2    3    3    0    0  0.28563635911E+02  0.26327574189E+02  0.10696292131E+03  0.11381603137E+03  0.20000006457E+01 0.  0.
         13    1    3    3    0    0 -0.28563635911E+02 -0.26327574189E+02  0.89167071872E+02  0.97261504869E+02  0.10566000000E+00 0. -1.
         13    1    4    4    0    0  0.11146085534E+02  0.94508285748E+01  0.38382034513E+02  0.41070002689E+02  0.10566000000E+00 0. -1.
        -13    1    4    4    0    0  0.55033061943E+01  0.50315334212E+01  0.20476154782E+02  0.21791897263E+02  0.10566000000E+00 0.  1.
        -14    1    4    4    0    0  0.11914244183E+02  0.11845212193E+02  0.48104732012E+02  0.50954131415E+02  0.00000000000E+00 0.  1.
<mgrwt>
<rscale>  0 0.78017640E+02</rscale>
<asrwt>0</asrwt>
<pdfrwt beam="1">  1        1 0.31323657E-01 0.78017640E+02</pdfrwt>
<pdfrwt beam="2">  1       -2 0.11498110E-02 0.78017640E+02</pdfrwt>
<totfact> 0.17882408E+05</totfact>
</mgrwt>
</event>
<event>
 8    1  0.8577104E-018  0.7882020E+02  0.7818608E-02  0.1332433E+00
          1   -1    0    0  501    0  0.00000000000E+00  0.00000000000E+00  0.14682791951E+03  0.14682791960E+03  0.50400000000E-02 0. -1.
         -2   -1    0    0    0  501 -0.00000000000E+00 -0.00000000000E+00 -0.10578069555E+02  0.10578069863E+02  0.25500000000E-02 0.  1.
        -24    2    1    2    0    0  0.00000000000E+00  0.00000000000E+00  0.13624984996E+03  0.15740598946E+03  0.78820199854E+02 0.  0.
         66    2    3    3    0    0  0.31889489892E+02  0.45445506966E+01  0.22912401410E+02  0.39579927345E+02  0.20000009147E+01 0.  0.
         13    1    3    3    0    0 -0.31889489892E+02 -0.45445506966E+01  0.11333744855E+03  0.11782606212E+03  0.10566000000E+00 0. -1.
         13    1    4    4    0    0  0.23164016261E+02  0.39137188910E+01  0.16148652895E+02  0.28507525309E+02  0.10566000000E+00 0.  1.
        -13    1    4    4    0    0  0.71713418861E+01  0.66885061027E+00  0.53717636706E+01  0.89856838668E+01  0.10566000000E+00 0. -1.
         14    1    4    4    0    0  0.15541317458E+01 -0.38018804712E-01  0.13919848440E+01  0.20867181695E+01  0.00000000000E+00 0. -1.
<mgrwt>
<rscale>  0 0.78820200E+02</rscale>
<asrwt>0</asrwt>
<pdfrwt beam="1">  1        1 0.22588910E-01 0.78820200E+02</pdfrwt>
<pdfrwt beam="2">  1       -2 0.16273954E-02 0.78820200E+02</pdfrwt>
<totfact> 0.16363094E+05</totfact>
</mgrwt>
</event>
<event>
 8    1  0.8577104E-018  0.8020531E+02  0.7818608E-02  0.1328470E+00
          1   -1    0    0  501    0  0.00000000000E+00  0.00000000000E+00  0.23624915418E+03  0.23624915423E+03  0.50400000000E-02 0. -1.
         -2   -1    0    0    0  501 -0.00000000000E+00 -0.00000000000E+00 -0.68073169689E+01  0.68073174465E+01  0.25500000000E-02 0.  1.
        -24    2    1    2    0    0  0.00000000000E+00  0.71054273576E-14  0.22944183721E+03  0.24305647168E+03  0.80205310066E+02 0.  0.
         66    2    3    3    0    0  0.81496560967E+01 -0.39231570633E+02  0.11228406843E+03  0.11923608976E+03  0.20000123451E+01 0.  0.
         13    1    3    3    0    0 -0.81496560967E+01  0.39231570633E+02  0.11715776878E+03  0.12382038191E+03  0.10566000000E+00 0. -1.
         13    1    4    4    0    0  0.11417039842E+01 -0.51266584567E+01  0.16160841065E+02  0.16993235798E+02  0.10566000000E+00 0. -1.
        -13    1    4    4    0    0  0.38204342472E+01 -0.16477169931E+02  0.48091757534E+02  0.50979615078E+02  0.10566000000E+00 0.  1.
         14    1    4    4    0    0  0.31875178654E+01 -0.17627742246E+02  0.48031469833E+02  0.51263238887E+02  0.00000000000E+00 0. -1.
<mgrwt>
<rscale>  0 0.80205310E+02</rscale>
<asrwt>0</asrwt>
<pdfrwt beam="1">  1        1 0.36346019E-01 0.80205310E+02</pdfrwt>
<pdfrwt beam="2">  1       -2 0.10472797E-02 0.80205310E+02</pdfrwt>
<totfact> 0.17107751E+05</totfact>
</mgrwt>
</event>
<event>
 8    1  0.8926183E-018  0.7841453E+02  0.7818608E-02  0.1333612E+00
         -2   -1    0    0    0  501 -0.00000000000E+00  0.00000000000E+00  0.46480259176E+01  0.46480266171E+01  0.25500000000E-02 0.  1.
          1   -1    0    0  501    0  0.00000000000E+00 -0.00000000000E+00 -0.33072311150E+03  0.33072311154E+03  0.50400000000E-02 0. -1.
        -24    2    1    2    0    0  0.00000000000E+00  0.71054273576E-14 -0.32607508558E+03  0.33537113815E+03  0.78414532264E+02 0.  0.
         66    2    3    3    0    0 -0.11277863135E+02  0.35772486861E+02 -0.11469077062E+03  0.12068485357E+03  0.20000006457E+01 0.  0.
         13    1    3    3    0    0  0.11277863135E+02 -0.35772486861E+02 -0.21138431496E+03  0.21468628459E+03  0.10566000000E+00 0. -1.
         13    1    4    4    0    0 -0.28326809363E+01  0.11053961819E+02 -0.34492563750E+02  0.36331285021E+02  0.10566000000E+00 0. -1.
        -13    1    4    4    0    0 -0.69866243229E+01  0.21687096630E+02 -0.69852298811E+02  0.73474471028E+02  0.10566000000E+00 0.  1.
         14    1    4    4    0    0 -0.14585578758E+01  0.30314284129E+01 -0.10345908059E+02  0.10879097520E+02  0.00000000000E+00 0. -1.
<mgrwt>
<rscale>  0 0.78414532E+02</rscale>
<asrwt>0</asrwt>
<pdfrwt beam="1">  1        1 0.50880461E-01 0.78414532E+02</pdfrwt>
<pdfrwt beam="2">  1       -2 0.71508122E-03 0.78414532E+02</pdfrwt>
<totfact> 0.19367132E+05</totfact>
</mgrwt>
</event>
<event>
 8    1  0.8577104E-018  0.8019773E+02  0.7818608E-02  0.1328491E+00
          1   -1    0    0  501    0  0.00000000000E+00  0.00000000000E+00  0.54608436145E+02  0.54608436378E+02  0.50400000000E-02 0. -1.
         -2   -1    0    0    0  501 -0.00000000000E+00 -0.00000000000E+00 -0.29444516979E+02  0.29444517089E+02  0.25500000000E-02 0.  1.
        -24    2    1    2    0    0 -0.35527136788E-14  0.17763568394E-14  0.25163919166E+02  0.84052953467E+02  0.80197731631E+02 0.  0.
         66    2    3    3    0    0 -0.21796971957E+02  0.10341350813E+02 -0.20946272954E+02  0.32012464379E+02  0.20000004545E+01 0.  0.
         13    1    3    3    0    0  0.21796971957E+02 -0.10341350813E+02  0.46110192120E+02  0.52040489088E+02  0.10566000000E+00 0. -1.
         13    1    4    4    0    0 -0.96732086732E+01  0.42389186773E+01 -0.86307460965E+01  0.13639660546E+02  0.10566000000E+00 0. -1.
        -13    1    4    4    0    0 -0.91928121617E+01  0.48524159474E+01 -0.10083243959E+02  0.14482289485E+02  0.10566000000E+00 0.  1.
         14    1    4    4    0    0 -0.29309511218E+01  0.12500161882E+01 -0.22322828989E+01  0.38905143477E+01  0.00000000000E+00 0. -1.
<mgrwt>
<rscale>  0 0.80197732E+02</rscale>
<asrwt>0</asrwt>
<pdfrwt beam="1">  1        1 0.84012979E-02 0.80197732E+02</pdfrwt>
<pdfrwt beam="2">  1       -2 0.45299257E-02 0.80197732E+02</pdfrwt>
<totfact> 0.13249462E+05</totfact>
</mgrwt>
</event>
<event>
 8    1  0.8577104E-018  0.7925951E+02  0.7818608E-02  0.1331166E+00
         -2   -1    0    0    0  501 -0.00000000000E+00  0.00000000000E+00  0.70485917007E+01  0.70485921620E+01  0.25500000000E-02 0.  1.
          1   -1    0    0  501    0  0.00000000000E+00 -0.00000000000E+00 -0.22281296324E+03  0.22281296330E+03  0.50400000000E-02 0. -1.
        -24    2    1    2    0    0  0.44408920985E-15  0.00000000000E+00 -0.21576437154E+03  0.22986155546E+03  0.79259514586E+02 0.  0.
         66    2    3    3    0    0 -0.21474835688E+01 -0.38081902708E+02 -0.77030839753E+02  0.85980191115E+02  0.19999979115E+01 0.  0.
         13    1    3    3    0    0  0.21474835688E+01  0.38081902708E+02 -0.13873353179E+03  0.14388136434E+03  0.10566000000E+00 0. -1.
         13    1    4    4    0    0 -0.27950404971E-01 -0.49774300887E+01 -0.11222003921E+02  0.12276812598E+02  0.10566000000E+00 0. -1.
        -13    1    4    4    0    0 -0.12475329114E+01 -0.16754124084E+02 -0.34347174808E+02  0.38236064043E+02  0.10566000000E+00 0.  1.
        -14    1    4    4    0    0 -0.87200025242E+00 -0.16350348535E+02 -0.31461661024E+02  0.35467314474E+02  0.00000000000E+00 0.  1.
<mgrwt>
<rscale>  0 0.79259515E+02</rscale>
<asrwt>0</asrwt>
<pdfrwt beam="1">  1        1 0.34278912E-01 0.79259515E+02</pdfrwt>
<pdfrwt beam="2">  1       -2 0.10843989E-02 0.79259515E+02</pdfrwt>
<totfact> 0.17452973E+05</totfact>
</mgrwt>
</event>
<event>
 8    1  0.8577104E-018  0.7918851E+02  0.7818608E-02  0.1331370E+00
          1   -1    0    0  501    0  0.00000000000E+00  0.00000000000E+00  0.93754474870E+01  0.93754488416E+01  0.50400000000E-02 0. -1.
         -2   -1    0    0    0  501 -0.00000000000E+00 -0.00000000000E+00 -0.16721386301E+03  0.16721386303E+03  0.25500000000E-02 0.  1.
        -24    2    1    2    0    0  0.00000000000E+00  0.00000000000E+00 -0.15783841553E+03  0.17658931187E+03  0.79188507073E+02 0.  0.
         66    2    3    3    0    0 -0.46375680034E+01 -0.29101954528E+02 -0.13785411113E+03  0.14098293070E+03  0.19999993977E+01 0.  0.
         13    1    3    3    0    0  0.46375680034E+01  0.29101954528E+02 -0.19984304393E+02  0.35606381176E+02  0.10566000000E+00 0. -1.
         13    1    4    4    0    0 -0.36986113057E+01 -0.20229054304E+02 -0.92647475314E+02  0.94902371992E+02  0.10566000000E+00 0. -1.
        -13    1    4    4    0    0 -0.83074093494E+00 -0.72404669765E+01 -0.36185793207E+02  0.36912562720E+02  0.10566000000E+00 0.  1.
         14    1    4    4    0    0 -0.10821576277E+00 -0.16324332479E+01 -0.90208426133E+01  0.91679959868E+01  0.00000000000E+00 0. -1.
<mgrwt>
<rscale>  0 0.79188507E+02</rscale>
<asrwt>0</asrwt>
<pdfrwt beam="1">  1        1 0.14423768E-02 0.79188507E+02</pdfrwt>
<pdfrwt beam="2">  1       -2 0.25725208E-01 0.79188507E+02</pdfrwt>
<totfact> 0.93489441E+04</totfact>
</mgrwt>
</event>
<event>
 8    1  0.8577104E-018  0.7965187E+02  0.7818608E-02  0.1330042E+00
          1   -1    0    0  501    0  0.00000000000E+00  0.00000000000E+00  0.43290425651E+02  0.43290425944E+02  0.50400000000E-02 0. -1.
         -2   -1    0    0    0  501 -0.00000000000E+00 -0.00000000000E+00 -0.36638699832E+02  0.36638699921E+02  0.25500000000E-02 0.  1.
        -24    2    1    2    0    0  0.00000000000E+00  0.00000000000E+00  0.66517258185E+01  0.79929125865E+02  0.79651865673E+02 0.  0.
         66    2    3    3    0    0 -0.16656152367E+02  0.27708257955E+02  0.26623520470E+02  0.41928353291E+02  0.19999992225E+01 0.  0.
         13    1    3    3    0    0  0.16656152367E+02 -0.27708257955E+02 -0.19971794652E+02  0.38000772574E+02  0.10566000000E+00 0. -1.
         13    1    4    4    0    0 -0.61233868553E+01  0.11478919876E+02  0.10625709700E+02  0.16798164744E+02  0.10566000000E+00 0.  1.
        -13    1    4    4    0    0 -0.82858386377E+01  0.12843602479E+02  0.12033708643E+02  0.19453394416E+02  0.10566000000E+00 0. -1.
        -14    1    4    4    0    0 -0.22469268739E+01  0.33857356005E+01  0.39641021275E+01  0.56767941314E+01  0.00000000000E+00 0.  1.
<mgrwt>
<rscale>  0 0.79651866E+02</rscale>
<asrwt>0</asrwt>
<pdfrwt beam="1">  1        1 0.66600655E-02 0.79651866E+02</pdfrwt>
<pdfrwt beam="2">  1       -2 0.56367231E-02 0.79651866E+02</pdfrwt>
<totfact> 0.13018383E+05</totfact>
</mgrwt>
</event>
<event>
 8    1  0.8577104E-018  0.7856620E+02  0.7818608E-02  0.1333170E+00
         -2   -1    0    0    0  501 -0.00000000000E+00  0.00000000000E+00  0.10339288025E+03  0.10339288028E+03  0.25500000000E-02 0.  1.
          1   -1    0    0  501    0  0.00000000000E+00 -0.00000000000E+00 -0.14925222396E+02  0.14925223247E+02  0.50400000000E-02 0. -1.
        -24    2    1    2    0    0  0.00000000000E+00  0.17763568394E-14  0.88467657850E+02  0.11831810352E+03  0.78566195887E+02 0.  0.
         66    2    3    3    0    0  0.99940822219E+00  0.15787882126E+02  0.98370466809E+02  0.99654426819E+02  0.20000014151E+01 0.  0.
         13    1    3    3    0    0 -0.99940822219E+00 -0.15787882126E+02 -0.99028089588E+01  0.18663676705E+02  0.10566000000E+00 0. -1.
         13    1    4    4    0    0  0.14488466882E+00  0.11451480419E+02  0.68851843487E+02  0.69797886150E+02  0.10566000000E+00 0. -1.
        -13    1    4    4    0    0  0.28290316653E+00  0.29262178103E+01  0.18230896345E+02  0.18466714122E+02  0.10566000000E+00 0.  1.
         14    1    4    4    0    0  0.57162038685E+00  0.14101838970E+01  0.11287726976E+02  0.11389826547E+02  0.00000000000E+00 0. -1.
<mgrwt>
<rscale>  0 0.78566196E+02</rscale>
<asrwt>0</asrwt>
<pdfrwt beam="1">  1        1 0.22961882E-02 0.78566196E+02</pdfrwt>
<pdfrwt beam="2">  1       -2 0.15906597E-01 0.78566196E+02</pdfrwt>
<totfact> 0.11022986E+05</totfact>
</mgrwt>
</event>
<event>
 8    1  0.8577104E-018  0.7875498E+02  0.7818608E-02  0.1332622E+00
          1   -1    0    0  501    0  0.00000000000E+00  0.00000000000E+00  0.84205726947E+02  0.84205727098E+02  0.50400000000E-02 0. -1.
         -2   -1    0    0    0  501 -0.00000000000E+00 -0.00000000000E+00 -0.18414268195E+02  0.18414268372E+02  0.25500000000E-02 0.  1.
        -24    2    1    2    0    0 -0.71054273576E-14  0.35527136788E-14  0.65791458752E+02  0.10261999547E+03  0.78754983497E+02 0.  0.
         66    2    3    3    0    0  0.30884556232E+02 -0.24108464554E+02  0.28127827477E+02  0.48272648141E+02  0.20000008060E+01 0.  0.
         13    1    3    3    0    0 -0.30884556232E+02  0.24108464554E+02  0.37663631275E+02  0.54347347329E+02  0.10566000000E+00 0. -1.
         13    1    4    4    0    0  0.14564669550E+02 -0.11767893695E+02  0.12647521301E+02  0.22596103209E+02  0.10566000000E+00 0.  1.
        -13    1    4    4    0    0  0.47190493737E+01 -0.34949646755E+01  0.50069655931E+01  0.77178412500E+01  0.10566000000E+00 0. -1.
         14    1    4    4    0    0  0.11600837308E+02 -0.88456061833E+01  0.10473340583E+02  0.17958703683E+02  0.00000000000E+00 0. -1.
<mgrwt>
<rscale>  0 0.78754983E+02</rscale>
<asrwt>0</asrwt>
<pdfrwt beam="1">  1        1 0.12954727E-01 0.78754983E+02</pdfrwt>
<pdfrwt beam="2">  1       -2 0.28329644E-02 0.78754983E+02</pdfrwt>
<totfact> 0.14909027E+05</totfact>
</mgrwt>
</event>
<event>
 8    1  0.8577104E-018  0.7691771E+02  0.7818608E-02  0.1338033E+00
          1   -1    0    0  501    0  0.00000000000E+00  0.00000000000E+00  0.91599356939E+02  0.91599357077E+02  0.50400000000E-02 0. -1.
         -2   -1    0    0    0  501 -0.00000000000E+00 -0.00000000000E+00 -0.16147313086E+02  0.16147313288E+02  0.25500000000E-02 0.  1.
        -24    2    1    2    0    0 -0.35527136788E-14  0.00000000000E+00  0.75452043852E+02  0.10774667037E+03  0.76917709620E+02 0.  0.
         66    2    3    3    0    0  0.22947200396E+02 -0.17055128065E+02  0.17743044649E+01  0.28715841921E+02  0.20000053923E+01 0.  0.
         13    1    3    3    0    0 -0.22947200396E+02  0.17055128065E+02  0.73677739388E+02  0.79030828444E+02  0.10566000000E+00 0. -1.
         13    1    4    4    0    0  0.10850135183E+02 -0.89210416638E+01  0.76593954133E+00  0.14067986539E+02  0.10566000000E+00 0.  1.
        -13    1    4    4    0    0  0.28617970931E+01 -0.21619807574E+01  0.63178968074E+00  0.36434002846E+01  0.10566000000E+00 0. -1.
         14    1    4    4    0    0  0.92352681202E+01 -0.59721056435E+01  0.37657524280E+00  0.11004455097E+02  0.00000000000E+00 0. -1.
<mgrwt>
<rscale>  0 0.76917710E+02</rscale>
<asrwt>0</asrwt>
<pdfrwt beam="1">  1        1 0.14092209E-01 0.76917710E+02</pdfrwt>
<pdfrwt beam="2">  1       -2 0.24842020E-02 0.76917710E+02</pdfrwt>
<totfact> 0.16108948E+05</totfact>
</mgrwt>
</event>
<event>
 8    1  0.8577104E-018  0.8610968E+02  0.7818608E-02  0.1312556E+00
         -2   -1    0    0    0  501 -0.00000000000E+00  0.00000000000E+00  0.23663828182E+02  0.23663828320E+02  0.25500000000E-02 0.  1.
          1   -1    0    0  501    0  0.00000000000E+00 -0.00000000000E+00 -0.78335559102E+02  0.78335559264E+02  0.50400000000E-02 0. -1.
        -24    2    1    2    0    0  0.00000000000E+00  0.00000000000E+00 -0.54671730919E+02  0.10199938758E+03  0.86109679512E+02 0.  0.
         66    2    3    3    0    0  0.17751205749E+02  0.47875082133E+01  0.18734882868E+02  0.26325299204E+02  0.20000004179E+01 0.  0.
         13    1    3    3    0    0 -0.17751205749E+02 -0.47875082133E+01 -0.73406613787E+02  0.75674088380E+02  0.10566000000E+00 0. -1.
         13    1    4    4    0    0  0.45617700988E+01  0.63214292198E+00  0.54234480060E+01  0.71157784829E+01  0.10566000000E+00 0. -1.
        -13    1    4    4    0    0  0.41172528346E+01  0.94175548196E+00  0.41021346932E+01  0.58887475212E+01  0.10566000000E+00 0.  1.
        -14    1    4    4    0    0  0.90721828152E+01  0.32136098094E+01  0.92093001685E+01  0.13320773200E+02  0.00000000000E+00 0.  1.
<mgrwt>
<rscale>  0 0.86109680E+02</rscale>
<asrwt>0</asrwt>
<pdfrwt beam="1">  1        1 0.12051624E-01 0.86109680E+02</pdfrwt>
<pdfrwt beam="2">  1       -2 0.36405890E-02 0.86109680E+02</pdfrwt>
<totfact> 0.11542142E+05</totfact>
</mgrwt>
</event>
<event>
 8    1  0.8577104E-018  0.7544176E+02  0.7818608E-02  0.1342508E+00
          1   -1    0    0  501    0  0.00000000000E+00  0.00000000000E+00  0.17258946755E+03  0.17258946762E+03  0.50400000000E-02 0. -1.
         -2   -1    0    0    0  501 -0.00000000000E+00 -0.00000000000E+00 -0.82442163939E+01  0.82442167882E+01  0.25500000000E-02 0.  1.
        -24    2    1    2    0    0 -0.17763568394E-14  0.00000000000E+00  0.16434525116E+03  0.18083368441E+03  0.75441764563E+02 0.  0.
         66    2    3    3    0    0  0.13872604880E+02  0.27557942005E+02  0.30321490432E+02  0.43304527735E+02  0.20000016579E+01 0.  0.
         13    1    3    3    0    0 -0.13872604880E+02 -0.27557942005E+02  0.13402376072E+03  0.13752915668E+03  0.10566000000E+00 0. -1.
         13    1    4    4    0    0  0.15117469032E+01  0.22466508984E+01  0.25701819339E+01  0.37349455374E+01  0.10566000000E+00 0. -1.
        -13    1    4    4    0    0  0.10476569958E+02  0.21243735014E+02  0.22567839600E+02  0.32716560694E+02  0.10566000000E+00 0.  1.
        -14    1    4    4    0    0  0.18842880188E+01  0.40675560923E+01  0.51834688987E+01  0.68530215034E+01  0.00000000000E+00 0.  1.
<mgrwt>
<rscale>  0 0.75441765E+02</rscale>
<asrwt>0</asrwt>
<pdfrwt beam="1">  1        1 0.26552224E-01 0.75441765E+02</pdfrwt>
<pdfrwt beam="2">  1       -2 0.12683411E-02 0.75441765E+02</pdfrwt>
<totfact> 0.18939131E+05</totfact>
</mgrwt>
</event>
<event>
 8    1  0.8577104E-018  0.7912626E+02  0.7818608E-02  0.1331549E+00
         -2   -1    0    0    0  501 -0.00000000000E+00  0.00000000000E+00  0.94170037450E+02  0.94170037485E+02  0.25500000000E-02 0.  1.
          1   -1    0    0  501    0  0.00000000000E+00 -0.00000000000E+00 -0.16621436988E+02  0.16621437752E+02  0.50400000000E-02 0. -1.
        -24    2    1    2    0    0  0.71054273576E-14  0.17763568394E-14  0.77548600463E+02  0.11079147524E+03  0.79126263348E+02 0.  0.
         66    2    3    3    0    0  0.35801050660E+02  0.11910209648E+02  0.55346574837E+02  0.67013519275E+02  0.20000243194E+01 0.  0.
         13    1    3    3    0    0 -0.35801050660E+02 -0.11910209648E+02  0.22202025626E+02  0.43777955961E+02  0.10566000000E+00 0. -1.
         13    1    4    4    0    0  0.17838093165E+02  0.64668321238E+01  0.28690682679E+02  0.34397440633E+02  0.10566000000E+00 0. -1.
        -13    1    4    4    0    0  0.94237782935E+01  0.30064277634E+01  0.14852532406E+02  0.17845309976E+02  0.10566000000E+00 0.  1.
         14    1    4    4    0    0  0.85391792015E+01  0.24369497610E+01  0.11803359752E+02  0.14770768667E+02  0.00000000000E+00 0. -1.
<mgrwt>
<rscale>  0 0.79126263E+02</rscale>
<asrwt>0</asrwt>
<pdfrwt beam="1">  1        1 0.25571443E-02 0.79126263E+02</pdfrwt>
<pdfrwt beam="2">  1       -2 0.14487698E-01 0.79126263E+02</pdfrwt>
<totfact> 0.11075831E+05</totfact>
</mgrwt>
</event>
<event>
 8    1  0.8577104E-018  0.8572177E+02  0.7818608E-02  0.1313556E+00
         -2   -1    0    0    0  501 -0.00000000000E+00  0.00000000000E+00  0.42926256980E+01  0.42926264554E+01  0.25500000000E-02 0.  1.
          1   -1    0    0  501    0  0.00000000000E+00 -0.00000000000E+00 -0.42795604814E+03  0.42795604817E+03  0.50400000000E-02 0. -1.
        -24    2    1    2    0    0  0.17763568394E-14  0.71054273576E-14 -0.42366342244E+03  0.43224867462E+03  0.85721766197E+02 0.  0.
         66    2    3    3    0    0  0.10238119152E+02  0.40206854014E+02 -0.26570039231E+03  0.26892770155E+03  0.19999985080E+01 0.  0.
         13    1    3    3    0    0 -0.10238119152E+02 -0.40206854014E+02 -0.15796303013E+03  0.16332097307E+03  0.10566000000E+00 0. -1.
         13    1    4    4    0    0  0.17323223196E+01  0.94118343706E+01 -0.63297932922E+02  0.64017365168E+02  0.10566000000E+00 0. -1.
        -13    1    4    4    0    0  0.56349475483E+01  0.20149278473E+02 -0.13520373736E+03  0.13681303964E+03  0.10566000000E+00 0.  1.
        -14    1    4    4    0    0  0.28708492843E+01  0.10645741171E+02 -0.67198722028E+02  0.68097296737E+02  0.00000000000E+00 0.  1.
<mgrwt>
<rscale>  0 0.85721766E+02</rscale>
<asrwt>0</asrwt>
<pdfrwt beam="1">  1        1 0.65839359E-01 0.85721766E+02</pdfrwt>
<pdfrwt beam="2">  1       -2 0.66040435E-03 0.85721766E+02</pdfrwt>
<totfact> 0.16004143E+05</totfact>
</mgrwt>
</event>
<event>
 8    1  0.8577104E-018  0.8227343E+02  0.7818608E-02  0.1322721E+00
         -2   -1    0    0    0  501 -0.00000000000E+00  0.00000000000E+00  0.11093214155E+02  0.11093214448E+02  0.25500000000E-02 0.  1.
          1   -1    0    0  501    0  0.00000000000E+00 -0.00000000000E+00 -0.15254634607E+03  0.15254634616E+03  0.50400000000E-02 0. -1.
        -24    2    1    2    0    0 -0.35527136788E-14  0.00000000000E+00 -0.14145313192E+03  0.16363956061E+03  0.82273429889E+02 0.  0.
         66    2    3    3    0    0  0.18369265320E+02 -0.32075660509E+02 -0.34969706448E+02  0.50923062393E+02  0.20000022272E+01 0.  0.
         13    1    3    3    0    0 -0.18369265320E+02  0.32075660509E+02 -0.10648342547E+03  0.11271649821E+03  0.10566000000E+00 0. -1.
         13    1    4    4    0    0  0.40312026096E+01 -0.80064265801E+01 -0.81536672751E+01  0.12118040895E+02  0.10566000000E+00 0. -1.
        -13    1    4    4    0    0  0.41049743535E+01 -0.68641728816E+01 -0.68346046034E+01  0.10520963260E+02  0.10566000000E+00 0.  1.
        -14    1    4    4    0    0  0.10233088357E+02 -0.17205061047E+02 -0.19981434570E+02  0.28284058238E+02  0.00000000000E+00 0.  1.
<mgrwt>
<rscale>  0 0.82273430E+02</rscale>
<asrwt>0</asrwt>
<pdfrwt beam="1">  1        1 0.23468667E-01 0.82273430E+02</pdfrwt>
<pdfrwt beam="2">  1       -2 0.17066485E-02 0.82273430E+02</pdfrwt>
<totfact> 0.14693722E+05</totfact>
</mgrwt>
</event>
<event>
 8    1  0.8577104E-018  0.8042744E+02  0.7818608E-02  0.1327843E+00
          1   -1    0    0  501    0  0.00000000000E+00  0.00000000000E+00  0.15561935281E+02  0.15561936098E+02  0.50400000000E-02 0. -1.
         -2   -1    0    0    0  501 -0.00000000000E+00 -0.00000000000E+00 -0.10391658552E+03  0.10391658555E+03  0.25500000000E-02 0.  1.
        -24    2    1    2    0    0  0.88817841970E-15  0.00000000000E+00 -0.88354650239E+02  0.11947852165E+03  0.80427438829E+02 0.  0.
         66    2    3    3    0    0 -0.67058834326E+01  0.26048553863E+02 -0.88563482135E+02  0.92579621937E+02  0.19999997468E+01 0.  0.
         13    1    3    3    0    0  0.67058834326E+01 -0.26048553863E+02  0.20883189639E+00  0.26898899713E+02  0.10566000000E+00 0. -1.
         13    1    4    4    0    0 -0.13227070716E+01  0.81388205864E+01 -0.25596232662E+02  0.26891787688E+02  0.10566000000E+00 0. -1.
        -13    1    4    4    0    0 -0.30793551341E+01  0.11035868085E+02 -0.38921002699E+02  0.40572508273E+02  0.10566000000E+00 0.  1.
         14    1    4    4    0    0 -0.23038212269E+01  0.68738651921E+01 -0.24046246774E+02  0.25115325976E+02  0.00000000000E+00 0. -1.
<mgrwt>
<rscale>  0 0.80427439E+02</rscale>
<asrwt>0</asrwt>
<pdfrwt beam="1">  1        1 0.23941440E-02 0.80427439E+02</pdfrwt>
<pdfrwt beam="2">  1       -2 0.15987167E-01 0.80427439E+02</pdfrwt>
<totfact> 0.10368278E+05</totfact>
</mgrwt>
</event>
<event>
 8    1  0.8577104E-018  0.7938571E+02  0.7818608E-02  0.1330804E+00
         -2   -1    0    0    0  501 -0.00000000000E+00  0.00000000000E+00  0.37963681098E+02  0.37963681184E+02  0.25500000000E-02 0.  1.
          1   -1    0    0  501    0  0.00000000000E+00 -0.00000000000E+00 -0.41500787642E+02  0.41500787948E+02  0.50400000000E-02 0. -1.
        -24    2    1    2    0    0  0.00000000000E+00  0.00000000000E+00 -0.35371065434E+01  0.79464469132E+02  0.79385708611E+02 0.  0.
         66    2    3    3    0    0  0.34216242619E+02  0.19728520685E+02  0.19152762120E+01  0.39593358925E+02  0.20000001453E+01 0.  0.
         13    1    3    3    0    0 -0.34216242619E+02 -0.19728520685E+02 -0.54523827555E+01  0.39871110207E+02  0.10566000000E+00 0. -1.
         13    1    4    4    0    0  0.54041137871E+01  0.32490723078E+01 -0.33716055901E+00  0.63155172364E+01  0.10566000000E+00 0. -1.
        -13    1    4    4    0    0  0.38482162500E+01  0.19576126081E+01  0.16267745930E+00  0.43218796167E+01  0.10566000000E+00 0.  1.
         14    1    4    4    0    0  0.24963912582E+02  0.14521835769E+02  0.20897593118E+01  0.28955962072E+02  0.00000000000E+00 0. -1.
<mgrwt>
<rscale>  0 0.79385709E+02</rscale>
<asrwt>0</asrwt>
<pdfrwt beam="1">  1        1 0.63847366E-02 0.79385709E+02</pdfrwt>
<pdfrwt beam="2">  1       -2 0.58405663E-02 0.79385709E+02</pdfrwt>
<totfact> 0.13052980E+05</totfact>
</mgrwt>
</event>
<event>
 8    1  0.8577104E-018  0.7992326E+02  0.7818608E-02  0.1329269E+00
          1   -1    0    0  501    0  0.00000000000E+00  0.00000000000E+00  0.71206066307E+02  0.71206066485E+02  0.50400000000E-02 0. -1.
         -2   -1    0    0    0  501 -0.00000000000E+00 -0.00000000000E+00 -0.22426907424E+02  0.22426907569E+02  0.25500000000E-02 0.  1.
        -24    2    1    2    0    0  0.00000000000E+00  0.00000000000E+00  0.48779158883E+02  0.93632974054E+02  0.79923259999E+02 0.  0.
         66    2    3    3    0    0  0.19408664333E+02  0.27369760295E+02 -0.96988313540E+00  0.33626487941E+02  0.19999970511E+01 0.  0.
         13    1    3    3    0    0 -0.19408664333E+02 -0.27369760295E+02  0.49749042019E+02  0.60006486113E+02  0.10566000000E+00 0. -1.
         13    1    4    4    0    0  0.30332803540E+01  0.37607589615E+01  0.43954064547E+00  0.48526753123E+01  0.10566000000E+00 0. -1.
        -13    1    4    4    0    0  0.11317092505E+02  0.16708817791E+02 -0.81103802124E+00  0.20197280050E+02  0.10566000000E+00 0.  1.
        -14    1    4    4    0    0  0.50582914742E+01  0.69001835424E+01 -0.59838575963E+00  0.85765325787E+01  0.00000000000E+00 0.  1.
<mgrwt>
<rscale>  0 0.79923260E+02</rscale>
<asrwt>0</asrwt>
<pdfrwt beam="1">  1        1 0.10954779E-01 0.79923260E+02</pdfrwt>
<pdfrwt beam="2">  1       -2 0.34502935E-02 0.79923260E+02</pdfrwt>
<totfact> 0.13944784E+05</totfact>
</mgrwt>
</event>
<event>
 8    1  0.8577104E-018  0.7999502E+02  0.7818608E-02  0.1329066E+00
          1   -1    0    0  501    0  0.00000000000E+00  0.00000000000E+00  0.19224856383E+03  0.19224856390E+03  0.50400000000E-02 0. -1.
         -2   -1    0    0    0  501 -0.00000000000E+00 -0.00000000000E+00 -0.83215228293E+01  0.83215232200E+01  0.25500000000E-02 0.  1.
        -24    2    1    2    0    0 -0.55511151231E-16  0.00000000000E+00  0.18392704100E+03  0.20057008712E+03  0.79995021310E+02 0.  0.
         66    2    3    3    0    0  0.49100304587E+00 -0.38183244117E+02  0.62397257404E+02  0.73182094431E+02  0.19999995977E+01 0.  0.
         13    1    3    3    0    0 -0.49100304587E+00  0.38183244117E+02  0.12152978360E+03  0.12738799268E+03  0.10566000000E+00 0. -1.
         13    1    4    4    0    0 -0.23245134203E+00 -0.38133349732E+01  0.53098936123E+01  0.65423001653E+01  0.10566000000E+00 0. -1.
        -13    1    4    4    0    0  0.46336640428E+00 -0.18222330340E+02  0.30090180824E+02  0.35180934858E+02  0.10566000000E+00 0.  1.
         14    1    4    4    0    0  0.26008798361E+00 -0.16147578804E+02  0.26997182968E+02  0.31458859407E+02  0.00000000000E+00 0. -1.
<mgrwt>
<rscale>  0 0.79995021E+02</rscale>
<asrwt>0</asrwt>
<pdfrwt beam="1">  1        1 0.29576703E-01 0.79995021E+02</pdfrwt>
<pdfrwt beam="2">  1       -2 0.12802343E-02 0.79995021E+02</pdfrwt>
<totfact> 0.16549489E+05</totfact>
</mgrwt>
</event>
