<event>
 8    1  0.7667702E-014  0.8670065E+02  0.7818608E-02  0.1311044E+00
          2   -1    0    0  501    0  0.00000000000E+00  0.00000000000E+00  0.45426828261E+02  0.45426828333E+02  0.25500000000E-02 0. -1.
         -1   -1    0    0    0  501 -0.00000000000E+00 -0.00000000000E+00 -0.41368739379E+02  0.41368739686E+02  0.50400000000E-02 0.  1.
         24    2    1    2    0    0  0.35527136788E-14  0.35527136788E-14  0.40580888825E+01  0.86795568019E+02  0.86700649030E+02 0.  0.
         66    2    3    3    0    0  0.17428384504E+02  0.24789884980E+02  0.33031080277E+02  0.44870248961E+02  0.19999984585E+01 0.  0.
        -13    1    3    3    0    0 -0.17428384504E+02 -0.24789884980E+02 -0.28972991394E+02  0.41925319058E+02  0.10566000000E+00 0.  1.
         13    1    4    4    0    0  0.54636147855E+01  0.88180296879E+01  0.11331035974E+02  0.15362690987E+02  0.10566000000E+00 0. -1.
        -13    1    4    4    0    0  0.44005059963E+00  0.43020146499E+00  0.94519050633E+00  0.11328137356E+01  0.10566000000E+00 0.  1.
         14    1    4    4    0    0  0.11524719119E+02  0.15541653827E+02  0.20754853797E+02  0.28374744238E+02  0.00000000000E+00 0. -1.
<mgrwt>
<rscale>  0 0.86700649E+02</rscale>
<asrwt>0</asrwt>
<pdfrwt beam="1">  1        2 0.69887428E-02 0.86700649E+02</pdfrwt>
<pdfrwt beam="2">  1       -1 0.63644215E-02 0.86700649E+02</pdfrwt>
<totfact> 0.11718262E+05</totfact>
</mgrwt>
</event>
<event>
 8    1  0.7667702E-014  0.8122677E+02  0.7818608E-02  0.1325606E+00
         -1   -1    0    0    0  501 -0.00000000000E+00  0.00000000000E+00  0.14914377197E+02  0.14914378048E+02  0.50400000000E-02 0.  1.
          2   -1    0    0  501    0  0.00000000000E+00 -0.00000000000E+00 -0.11059442083E+03  0.11059442086E+03  0.25500000000E-02 0. -1.
         24    2    1    2    0    0  0.00000000000E+00  0.35527136788E-14 -0.95680043637E+02  0.12550879891E+03  0.81226768087E+02 0.  0.
         66    2    3    3    0    0 -0.17553489228E+02 -0.25226205623E+02 -0.88836394509E+02  0.94023355741E+02  0.20000003311E+01 0.  0.
        -13    1    3    3    0    0  0.17553489228E+02  0.25226205623E+02 -0.68436491286E+01  0.31485443171E+02  0.10566000000E+00 0.  1.
         13    1    4    4    0    0 -0.20686674097E+01 -0.35291323331E+01 -0.10684185461E+02  0.11441028926E+02  0.10566000000E+00 0. -1.
        -13    1    4    4    0    0 -0.12947542657E+02 -0.18690764601E+02 -0.65674120979E+02  0.69498812023E+02  0.10566000000E+00 0.  1.
        -14    1    4    4    0    0 -0.25372791612E+01 -0.30063086895E+01 -0.12478088069E+02  0.13083514792E+02  0.00000000000E+00 0.  1.
<mgrwt>
<rscale>  0 0.81226768E+02</rscale>
<asrwt>0</asrwt>
<pdfrwt beam="1">  1        2 0.17014526E-01 0.81226768E+02</pdfrwt>
<pdfrwt beam="2">  1       -1 0.22945197E-02 0.81226768E+02</pdfrwt>
<totfact> 0.17514726E+05</totfact>
</mgrwt>
</event>
<event>
 8    1  0.7667702E-014  0.7704840E+02  0.7818608E-02  0.1337643E+00
         -1   -1    0    0    0  501 -0.00000000000E+00  0.00000000000E+00  0.22429673623E+02  0.22429674189E+02  0.50400000000E-02 0.  1.
          2   -1    0    0  501    0  0.00000000000E+00 -0.00000000000E+00 -0.66167442718E+02  0.66167442767E+02  0.25500000000E-02 0. -1.
         24    2    1    2    0    0  0.35527136788E-14  0.00000000000E+00 -0.43737769095E+02  0.88597116956E+02  0.77048404835E+02 0.  0.
         66    2    3    3    0    0  0.18483488417E+02 -0.16800477183E+02 -0.55569909940E+02  0.60958265702E+02  0.19999722553E+01 0.  0.
        -13    1    3    3    0    0 -0.18483488417E+02  0.16800477183E+02  0.11832140845E+02  0.27638851254E+02  0.10566000000E+00 0.  1.
         13    1    4    4    0    0  0.59996985597E+01 -0.63021094145E+01 -0.20528024309E+02  0.22296275741E+02  0.10566000000E+00 0. -1.
        -13    1    4    4    0    0  0.80998946182E+01 -0.70048168608E+01 -0.22088456867E+02  0.24547644345E+02  0.10566000000E+00 0.  1.
        -14    1    4    4    0    0  0.43838952393E+01 -0.34935509074E+01 -0.12953428764E+02  0.14114345616E+02  0.00000000000E+00 0.  1.
<mgrwt>
<rscale>  0 0.77048405E+02</rscale>
<asrwt>0</asrwt>
<pdfrwt beam="1">  1        2 0.10179606E-01 0.77048405E+02</pdfrwt>
<pdfrwt beam="2">  1       -1 0.34507191E-02 0.77048405E+02</pdfrwt>
<totfact> 0.17633273E+05</totfact>
</mgrwt>
</event>
<event>
 8    1  0.7667702E-014  0.7881348E+02  0.7818608E-02  0.1332453E+00
         -1   -1    0    0    0  501 -0.00000000000E+00  0.00000000000E+00  0.35639912517E+01  0.35639948153E+01  0.50400000000E-02 0.  1.
          2   -1    0    0  501    0  0.00000000000E+00 -0.00000000000E+00 -0.43571663726E+03  0.43571663727E+03  0.25500000000E-02 0. -1.
         24    2    1    2    0    0  0.00000000000E+00  0.00000000000E+00 -0.43215264601E+03  0.43928063209E+03  0.78813477725E+02 0.  0.
         66    2    3    3    0    0 -0.34491214635E+02 -0.78900285693E+01 -0.31259125043E+03  0.31459368443E+03  0.20000003346E+01 0.  0.
        -13    1    3    3    0    0  0.34491214635E+02  0.78900285693E+01 -0.11956139558E+03  0.12468694766E+03  0.10566000000E+00 0.  1.
         13    1    4    4    0    0 -0.32029928527E+01 -0.93130000832E+00 -0.31447130357E+02  0.31623719810E+02  0.10566000000E+00 0. -1.
        -13    1    4    4    0    0 -0.63273823851E+01 -0.80151549230E+00 -0.53825300640E+02  0.54201958894E+02  0.10566000000E+00 0.  1.
        -14    1    4    4    0    0 -0.24960839397E+02 -0.61572130686E+01 -0.22731881943E+03  0.22876800573E+03  0.00000000000E+00 0.  1.
<mgrwt>
<rscale>  0 0.78813478E+02</rscale>
<asrwt>0</asrwt>
<pdfrwt beam="1">  1        2 0.67033287E-01 0.78813478E+02</pdfrwt>
<pdfrwt beam="2">  1       -1 0.54830697E-03 0.78813478E+02</pdfrwt>
<totfact> 0.30256006E+05</totfact>
</mgrwt>
</event>
<event>
 8    1  0.7667702E-014  0.7049092E+02  0.7818608E-02  0.1358432E+00
         -1   -1    0    0    0  501 -0.00000000000E+00  0.00000000000E+00  0.19146771959E+01  0.19146838292E+01  0.50400000000E-02 0.  1.
          2   -1    0    0  501    0  0.00000000000E+00 -0.00000000000E+00 -0.64879882967E+03  0.64879882967E+03  0.25500000000E-02 0. -1.
         24    2    1    2    0    0 -0.88817841970E-15  0.00000000000E+00 -0.64688415247E+03  0.65071351350E+03  0.70490920939E+02 0.  0.
         66    2    3    3    0    0 -0.59142965303E+01 -0.22831588889E+02 -0.56512408458E+03  0.56561956412E+03  0.19999988878E+01 0.  0.
        -13    1    3    3    0    0  0.59142965303E+01  0.22831588889E+02 -0.81760067896E+02  0.85093949379E+02  0.10566000000E+00 0.  1.
         13    1    4    4    0    0 -0.42490089063E+01 -0.15371236937E+02 -0.39001259207E+03  0.39033852249E+03  0.10566000000E+00 0. -1.
        -13    1    4    4    0    0 -0.10249227651E+01 -0.60358087117E+01 -0.14463833368E+03  0.14476788382E+03  0.10566000000E+00 0.  1.
        -14    1    4    4    0    0 -0.64036485894E+00 -0.14245432403E+01 -0.30473158828E+02  0.30513157811E+02  0.00000000000E+00 0.  1.
<mgrwt>
<rscale>  0 0.70490921E+02</rscale>
<asrwt>0</asrwt>
<pdfrwt beam="1">  1        2 0.99815029E-01 0.70490921E+02</pdfrwt>
<pdfrwt beam="2">  1       -1 0.29456675E-03 0.70490921E+02</pdfrwt>
<totfact> 0.45541748E+05</totfact>
</mgrwt>
</event>
<event>
 8    1  0.7667702E-014  0.8446891E+02  0.7818608E-02  0.1316827E+00
          2   -1    0    0  501    0  0.00000000000E+00  0.00000000000E+00  0.64129779238E+02  0.64129779288E+02  0.25500000000E-02 0. -1.
         -1   -1    0    0    0  501 -0.00000000000E+00 -0.00000000000E+00 -0.27814675856E+02  0.27814676313E+02  0.50400000000E-02 0.  1.
         24    2    1    2    0    0  0.00000000000E+00  0.00000000000E+00  0.36315103381E+02  0.91944455601E+02  0.84468906600E+02 0.  0.
         66    2    3    3    0    0 -0.26337874402E+02 -0.32254775143E+01  0.53900653880E+02  0.60111295476E+02  0.20000054790E+01 0.  0.
        -13    1    3    3    0    0  0.26337874402E+02  0.32254775143E+01 -0.17585550499E+02  0.31833160125E+02  0.10566000000E+00 0.  1.
         13    1    4    4    0    0 -0.11195236918E+02 -0.83338420981E+00  0.21540138329E+02  0.24290256939E+02  0.10566000000E+00 0. -1.
        -13    1    4    4    0    0 -0.94147434629E+01 -0.15687542289E+01  0.19073240989E+02  0.21328339602E+02  0.10566000000E+00 0.  1.
         14    1    4    4    0    0 -0.57278940206E+01 -0.82333907560E+00  0.13287274561E+02  0.14492698935E+02  0.00000000000E+00 0. -1.
<mgrwt>
<rscale>  0 0.84468907E+02</rscale>
<asrwt>0</asrwt>
<pdfrwt beam="1">  1        2 0.98661199E-02 0.84468907E+02</pdfrwt>
<pdfrwt beam="2">  1       -1 0.42791810E-02 0.84468907E+02</pdfrwt>
<totfact> 0.13633926E+05</totfact>
</mgrwt>
</event>
<event>
 8    1  0.7667702E-014  0.9022950E+02  0.7818608E-02  0.1302297E+00
          2   -1    0    0  501    0  0.00000000000E+00  0.00000000000E+00  0.55534804613E+03  0.55534804614E+03  0.25500000000E-02 0. -1.
         -1   -1    0    0    0  501 -0.00000000000E+00 -0.00000000000E+00 -0.36649807691E+01  0.36649842346E+01  0.50400000000E-02 0.  1.
         24    2    1    2    0    0  0.00000000000E+00  0.00000000000E+00  0.55168306537E+03  0.55901303038E+03  0.90229504698E+02 0.  0.
         66    2    3    3    0    0  0.23885168282E+02  0.23736012947E+02  0.46178217046E+03  0.46301260515E+03  0.19999998168E+01 0.  0.
        -13    1    3    3    0    0 -0.23885168282E+02 -0.23736012947E+02  0.89900894910E+02  0.96000425229E+02  0.10566000000E+00 0.  1.
         13    1    4    4    0    0  0.76893579308E+01  0.75072254262E+01  0.14710227006E+03  0.14749431745E+03  0.10566000000E+00 0. -1.
        -13    1    4    4    0    0  0.90886699565E+01  0.84062228759E+01  0.17854901144E+03  0.17897773368E+03  0.10566000000E+00 0.  1.
        -14    1    4    4    0    0  0.71071403945E+01  0.78225646449E+01  0.13613088896E+03  0.13654055401E+03  0.00000000000E+00 0.  1.
<mgrwt>
<rscale>  0 0.90229505E+02</rscale>
<asrwt>0</asrwt>
<pdfrwt beam="1">  1        2 0.85438098E-01 0.90229505E+02</pdfrwt>
<pdfrwt beam="2">  1       -1 0.56384388E-03 0.90229505E+02</pdfrwt>
<totfact> 0.22951201E+05</totfact>
</mgrwt>
</event>
<event>
 8    1  0.7667702E-014  0.8022543E+02  0.7818608E-02  0.1328413E+00
         -1   -1    0    0    0  501 -0.00000000000E+00  0.00000000000E+00  0.28084406399E+01  0.28084451622E+01  0.50400000000E-02 0.  1.
          2   -1    0    0  501    0  0.00000000000E+00 -0.00000000000E+00 -0.57292590727E+03  0.57292590728E+03  0.25500000000E-02 0. -1.
         24    2    1    2    0    0  0.00000000000E+00  0.35527136788E-14 -0.57011746663E+03  0.57573435244E+03  0.80225425025E+02 0.  0.
         66    2    3    3    0    0  0.91564890754E+01  0.23913968602E+02 -0.50658061326E+03  0.50723134457E+03  0.19999997595E+01 0.  0.
        -13    1    3    3    0    0 -0.91564890754E+01 -0.23913968602E+02 -0.63536853372E+02  0.68503007868E+02  0.10566000000E+00 0.  1.
         13    1    4    4    0    0  0.23998925695E+01  0.52382194245E+01 -0.12176304074E+03  0.12189933421E+03  0.10566000000E+00 0.  1.
        -13    1    4    4    0    0  0.59306541922E+01  0.14882762775E+02 -0.31162218237E+03  0.31203375618E+03  0.10566000000E+00 0. -1.
         14    1    4    4    0    0  0.82594231372E+00  0.37929864027E+01 -0.73195390159E+02  0.73298254189E+02  0.00000000000E+00 0. -1.
<mgrwt>
<rscale>  0 0.80225425E+02</rscale>
<asrwt>0</asrwt>
<pdfrwt beam="1">  1        2 0.88142354E-01 0.80225425E+02</pdfrwt>
<pdfrwt beam="2">  1       -1 0.43206860E-03 0.80225425E+02</pdfrwt>
<totfact> 0.31512093E+05</totfact>
</mgrwt>
</event>
<event>
 8    1  0.7667702E-014  0.7952848E+02  0.7818608E-02  0.1330395E+00
          2   -1    0    0  501    0  0.00000000000E+00  0.00000000000E+00  0.10724315677E+03  0.10724315680E+03  0.25500000000E-02 0. -1.
         -1   -1    0    0    0  501 -0.00000000000E+00 -0.00000000000E+00 -0.14744016376E+02  0.14744017238E+02  0.50400000000E-02 0.  1.
         24    2    1    2    0    0  0.00000000000E+00  0.00000000000E+00  0.92499140391E+02  0.12198717404E+03  0.79528483300E+02 0.  0.
         66    2    3    3    0    0 -0.74068075935E+01 -0.28810800061E+02  0.86694867923E+02  0.91678367695E+02  0.19999950185E+01 0.  0.
        -13    1    3    3    0    0  0.74068075935E+01  0.28810800061E+02  0.58042724679E+01  0.30308806340E+02  0.10566000000E+00 0.  1.
         13    1    4    4    0    0 -0.66185320622E+01 -0.25329349092E+02  0.75434356555E+02  0.79848194751E+02  0.10566000000E+00 0. -1.
        -13    1    4    4    0    0 -0.22778100793E+00 -0.37487904782E+00  0.10505028826E+01  0.11433017231E+01  0.10566000000E+00 0. -1.
        -14    1    4    4    0    0 -0.56049452328E+00 -0.31065719208E+01  0.10210008486E+02  0.10686871221E+02  0.00000000000E+00 0.  1.
<mgrwt>
<rscale>  0 0.79528483E+02</rscale>
<asrwt>0</asrwt>
<pdfrwt beam="1">  1        2 0.16498947E-01 0.79528483E+02</pdfrwt>
<pdfrwt beam="2">  1       -1 0.22683103E-02 0.79528483E+02</pdfrwt>
<totfact> 0.18368844E+05</totfact>
</mgrwt>
</event>
<event>
 8    1  0.7667702E-014  0.8203464E+02  0.7818608E-02  0.1323375E+00
          2   -1    0    0  501    0  0.00000000000E+00  0.00000000000E+00  0.21843853610E+03  0.21843853612E+03  0.25500000000E-02 0. -1.
         -1   -1    0    0    0  501 -0.00000000000E+00 -0.00000000000E+00 -0.77020305414E+01  0.77020321904E+01  0.50400000000E-02 0.  1.
         24    2    1    2    0    0  0.00000000000E+00  0.00000000000E+00  0.21073650556E+03  0.22614056831E+03  0.82034638163E+02 0.  0.
         66    2    3    3    0    0 -0.12178137479E+02 -0.30584583489E+02  0.17276808603E+03  0.17588784873E+03  0.19999997198E+01 0.  0.
        -13    1    3    3    0    0  0.12178137479E+02  0.30584583489E+02  0.37968419527E+02  0.50252719579E+02  0.10566000000E+00 0.  1.
         13    1    4    4    0    0 -0.11586074538E+01 -0.30737539905E+01  0.15213101873E+02  0.15564060121E+02  0.10566000000E+00 0.  1.
        -13    1    4    4    0    0 -0.42413288642E+01 -0.93986106788E+01  0.52281519949E+02  0.53288753461E+02  0.10566000000E+00 0. -1.
        -14    1    4    4    0    0 -0.67782011613E+01 -0.18112218820E+02  0.10527346421E+03  0.10703503515E+03  0.00000000000E+00 0.  1.
<mgrwt>
<rscale>  0 0.82034638E+02</rscale>
<asrwt>0</asrwt>
<pdfrwt beam="1">  1        2 0.33605924E-01 0.82034638E+02</pdfrwt>
<pdfrwt beam="2">  1       -1 0.11849281E-02 0.82034638E+02</pdfrwt>
<totfact> 0.21291532E+05</totfact>
</mgrwt>
</event>
<event>
 8    1  0.7667702E-014  0.7962118E+02  0.7818608E-02  0.1330130E+00
          2   -1    0    0  501    0  0.00000000000E+00  0.00000000000E+00  0.17793159821E+02  0.17793160004E+02  0.25500000000E-02 0. -1.
         -1   -1    0    0    0  501 -0.00000000000E+00 -0.00000000000E+00 -0.89072612841E+02  0.89072612983E+02  0.50400000000E-02 0.  1.
         24    2    1    2    0    0  0.00000000000E+00  0.00000000000E+00 -0.71279453019E+02  0.10686577299E+03  0.79621184451E+02 0.  0.
         66    2    3    3    0    0 -0.11869193257E+02  0.14689996222E+02  0.11337156706E+02  0.22117975942E+02  0.20000000005E+01 0.  0.
        -13    1    3    3    0    0  0.11869193257E+02 -0.14689996222E+02 -0.82616609725E+02  0.84747797046E+02  0.10566000000E+00 0.  1.
         13    1    4    4    0    0 -0.51588931742E+01  0.68727027443E+01  0.48754006777E+01  0.98807346690E+01  0.10566000000E+00 0. -1.
        -13    1    4    4    0    0 -0.48335614993E+01  0.47784343236E+01  0.46166424025E+01  0.82171346868E+01  0.10566000000E+00 0.  1.
        -14    1    4    4    0    0 -0.18767385835E+01  0.30388591544E+01  0.18451136256E+01  0.40201065859E+01  0.00000000000E+00 0.  1.
<mgrwt>
<rscale>  0 0.79621184E+02</rscale>
<asrwt>0</asrwt>
<pdfrwt beam="1">  1        2 0.27374093E-02 0.79621184E+02</pdfrwt>
<pdfrwt beam="2">  1       -1 0.13703479E-01 0.79621184E+02</pdfrwt>
<totfact> 0.12289400E+05</totfact>
</mgrwt>
</event>
<event>
 8    1  0.7667702E-014  0.7903691E+02  0.7818608E-02  0.1331807E+00
          2   -1    0    0  501    0  0.00000000000E+00  0.00000000000E+00  0.21116937203E+02  0.21116937357E+02  0.25500000000E-02 0. -1.
         -1   -1    0    0    0  501 -0.00000000000E+00 -0.00000000000E+00 -0.73955251647E+02  0.73955251819E+02  0.50400000000E-02 0.  1.
         24    2    1    2    0    0  0.00000000000E+00  0.00000000000E+00 -0.52838314444E+02  0.95072189177E+02  0.79036913411E+02 0.  0.
         66    2    3    3    0    0 -0.26344549881E+02 -0.99909038117E+01  0.68525618635E+01  0.29065633852E+02  0.19999999399E+01 0.  0.
        -13    1    3    3    0    0  0.26344549881E+02  0.99909038117E+01 -0.59690876307E+02  0.66006555324E+02  0.10566000000E+00 0.  1.
         13    1    4    4    0    0 -0.62403432947E+01 -0.25521621986E+01  0.17290639697E+01  0.69610518293E+01  0.10566000000E+00 0. -1.
        -13    1    4    4    0    0 -0.12967723638E+02 -0.56127272292E+01  0.36058600970E+01  0.14583482244E+02  0.10566000000E+00 0.  1.
        -14    1    4    4    0    0 -0.71364829481E+01 -0.18260143839E+01  0.15176377968E+01  0.75210997787E+01  0.00000000000E+00 0.  1.
<mgrwt>
<rscale>  0 0.79036913E+02</rscale>
<asrwt>0</asrwt>
<pdfrwt beam="1">  1        2 0.32487596E-02 0.79036913E+02</pdfrwt>
<pdfrwt beam="2">  1       -1 0.11377731E-01 0.79036913E+02</pdfrwt>
<totfact> 0.12994502E+05</totfact>
</mgrwt>
</event>
<event>
 8    1  0.7667702E-014  0.7973135E+02  0.7818608E-02  0.1329816E+00
         -1   -1    0    0    0  501 -0.00000000000E+00  0.00000000000E+00  0.37830676834E+01  0.37830710407E+01  0.50400000000E-02 0.  1.
          2   -1    0    0  501    0  0.00000000000E+00 -0.00000000000E+00 -0.42010119168E+03  0.42010119169E+03  0.25500000000E-02 0. -1.
         24    2    1    2    0    0 -0.35527136788E-14  0.35527136788E-14 -0.41631812399E+03  0.42388426273E+03  0.79731347792E+02 0.  0.
         66    2    3    3    0    0 -0.22227480504E+02  0.26191912277E+02 -0.31556915267E+03  0.31743970652E+03  0.20000006135E+01 0.  0.
        -13    1    3    3    0    0  0.22227480504E+02 -0.26191912277E+02 -0.10074897133E+03  0.10644455620E+03  0.10566000000E+00 0.  1.
         13    1    4    4    0    0 -0.38502690257E+01  0.53579725250E+01 -0.64236251984E+02  0.64574295770E+02  0.10566000000E+00 0. -1.
        -13    1    4    4    0    0 -0.45512709367E+01  0.56937619150E+01 -0.64037242949E+02  0.64450854459E+02  0.10566000000E+00 0.  1.
        -14    1    4    4    0    0 -0.13825940542E+02  0.15140177837E+02 -0.18729565774E+03  0.18841455629E+03  0.00000000000E+00 0.  1.
<mgrwt>
<rscale>  0 0.79731348E+02</rscale>
<asrwt>0</asrwt>
<pdfrwt beam="1">  1        2 0.64630916E-01 0.79731348E+02</pdfrwt>
<pdfrwt beam="2">  1       -1 0.58201101E-03 0.79731348E+02</pdfrwt>
<totfact> 0.28991927E+05</totfact>
</mgrwt>
</event>
<event>
 8    1  0.7667702E-014  0.8004075E+02  0.7818608E-02  0.1328936E+00
         -1   -1    0    0    0  501 -0.00000000000E+00  0.00000000000E+00  0.40087106397E+01  0.40087138080E+01  0.50400000000E-02 0.  1.
          2   -1    0    0  501    0  0.00000000000E+00 -0.00000000000E+00 -0.39953736320E+03  0.39953736321E+03  0.25500000000E-02 0. -1.
         24    2    1    2    0    0 -0.17763568394E-14  0.00000000000E+00 -0.39552865256E+03  0.40354607702E+03  0.80040747616E+02 0.  0.
         66    2    3    3    0    0 -0.11854703580E+02 -0.24063228395E+02 -0.34745462271E+03  0.34849431530E+03  0.19999993329E+01 0.  0.
        -13    1    3    3    0    0  0.11854703580E+02  0.24063228395E+02 -0.48074029851E+02  0.55051761715E+02  0.10566000000E+00 0.  1.
         13    1    4    4    0    0 -0.62758282124E+01 -0.11390382613E+02 -0.16811291156E+03  0.16861520997E+03  0.10566000000E+00 0. -1.
        -13    1    4    4    0    0 -0.20045055892E+01 -0.57635696738E+01 -0.75184446412E+02  0.75431750108E+02  0.10566000000E+00 0.  1.
        -14    1    4    4    0    0 -0.35743697787E+01 -0.69092761080E+01 -0.10415726474E+03  0.10444735522E+03  0.00000000000E+00 0.  1.
<mgrwt>
<rscale>  0 0.80040748E+02</rscale>
<asrwt>0</asrwt>
<pdfrwt beam="1">  1        2 0.61467255E-01 0.80040748E+02</pdfrwt>
<pdfrwt beam="2">  1       -1 0.61672528E-03 0.80040748E+02</pdfrwt>
<totfact> 0.28204638E+05</totfact>
</mgrwt>
</event>
<event>
 8    1  0.7667702E-014  0.8341524E+02  0.7818608E-02  0.1319630E+00
         -1   -1    0    0    0  501 -0.00000000000E+00  0.00000000000E+00  0.90262386774E+01  0.90262400845E+01  0.50400000000E-02 0.  1.
          2   -1    0    0  501    0  0.00000000000E+00 -0.00000000000E+00 -0.19271877094E+03  0.19271877096E+03  0.25500000000E-02 0. -1.
         24    2    1    2    0    0  0.00000000000E+00  0.00000000000E+00 -0.18369253226E+03  0.20174501104E+03  0.83415244836E+02 0.  0.
         66    2    3    3    0    0 -0.16036960791E+02  0.16427148666E+02 -0.17604563191E+03  0.17754745799E+03  0.19999995063E+01 0.  0.
        -13    1    3    3    0    0  0.16036960791E+02 -0.16427148666E+02 -0.76469003492E+01  0.24197553052E+02  0.10566000000E+00 0.  1.
         13    1    4    4    0    0 -0.42753505882E+01  0.52266694372E+01 -0.55086784364E+02  0.55499204243E+02  0.10566000000E+00 0.  1.
        -13    1    4    4    0    0 -0.28050723066E+01  0.26709040642E+01 -0.25926378256E+02  0.26214316941E+02  0.10566000000E+00 0. -1.
         14    1    4    4    0    0 -0.89565378960E+01  0.85295751650E+01 -0.95032469293E+02  0.95833936805E+02  0.00000000000E+00 0. -1.
<mgrwt>
<rscale>  0 0.83415245E+02</rscale>
<asrwt>0</asrwt>
<pdfrwt beam="1">  1        2 0.29649039E-01 0.83415245E+02</pdfrwt>
<pdfrwt beam="2">  1       -1 0.13886524E-02 0.83415245E+02</pdfrwt>
<totfact> 0.19496731E+05</totfact>
</mgrwt>
</event>
<event>
 8    1  0.7667702E-014  0.7479837E+02  0.7818608E-02  0.1344497E+00
          2   -1    0    0  501    0  0.00000000000E+00  0.00000000000E+00  0.15492920468E+04  0.15492920468E+04  0.25500000000E-02 0. -1.
         -1   -1    0    0    0  501 -0.00000000000E+00 -0.00000000000E+00 -0.90279185870E+00  0.90280592695E+00  0.50400000000E-02 0.  1.
         24    2    1    2    0    0  0.35527136788E-14  0.00000000000E+00  0.15483892549E+04  0.15501948527E+04  0.74798373044E+02 0.  0.
         66    2    3    3    0    0 -0.17919257326E+02  0.77111389105E+01  0.14353934630E+04  0.14355274135E+04  0.19999994835E+01 0.  0.
        -13    1    3    3    0    0  0.17919257326E+02 -0.77111389105E+01  0.11299579198E+03  0.11466743921E+03  0.10566000000E+00 0.  1.
         13    1    4    4    0    0 -0.51756002620E+00  0.50640707243E-01  0.40179063850E+02  0.40182567971E+02  0.10566000000E+00 0. -1.
        -13    1    4    4    0    0 -0.24405625860E+01  0.15910110453E+01  0.23651952085E+03  0.23653748661E+03  0.10566000000E+00 0.  1.
        -14    1    4    4    0    0 -0.14961134714E+02  0.60694871580E+01  0.11586948783E+04  0.11588073589E+04  0.00000000000E+00 0.  1.
<mgrwt>
<rscale>  0 0.74798373E+02</rscale>
<asrwt>0</asrwt>
<pdfrwt beam="1">  1        2 0.23835284E+00 0.74798373E+02</pdfrwt>
<pdfrwt beam="2">  1       -1 0.13889201E-03 0.74798373E+02</pdfrwt>
<totfact> 0.39069791E+05</totfact>
</mgrwt>
</event>
<event>
 8    1  0.7667702E-014  0.7775491E+02  0.7818608E-02  0.1335546E+00
         -1   -1    0    0    0  501 -0.00000000000E+00  0.00000000000E+00  0.66788647201E+01  0.66788666217E+01  0.50400000000E-02 0.  1.
          2   -1    0    0  501    0  0.00000000000E+00 -0.00000000000E+00 -0.22630435426E+03  0.22630435428E+03  0.25500000000E-02 0. -1.
         24    2    1    2    0    0  0.17763568394E-14  0.00000000000E+00 -0.21962548954E+03  0.23298322090E+03  0.77754907006E+02 0.  0.
         66    2    3    3    0    0  0.13087338412E+02 -0.29229824478E+02 -0.17579127239E+03  0.17869592198E+03  0.20000052183E+01 0.  0.
        -13    1    3    3    0    0 -0.13087338412E+02  0.29229824478E+02 -0.43834217158E+02  0.54287298916E+02  0.10566000000E+00 0.  1.
         13    1    4    4    0    0  0.64892748906E+01 -0.12912288713E+02 -0.78953474763E+02  0.80265186910E+02  0.10566000000E+00 0. -1.
        -13    1    4    4    0    0  0.26248222375E+01 -0.55903551464E+01 -0.31726297618E+02  0.32321987671E+02  0.10566000000E+00 0.  1.
        -14    1    4    4    0    0  0.39732412835E+01 -0.10727180618E+02 -0.65111500004E+02  0.66108747402E+02  0.00000000000E+00 0.  1.
<mgrwt>
<rscale>  0 0.77754907E+02</rscale>
<asrwt>0</asrwt>
<pdfrwt beam="1">  1        2 0.34816049E-01 0.77754907E+02</pdfrwt>
<pdfrwt beam="2">  1       -1 0.10275180E-02 0.77754907E+02</pdfrwt>
<totfact> 0.24826487E+05</totfact>
</mgrwt>
</event>
<event>
 8    1  0.7667702E-014  0.8080526E+02  0.7818608E-02  0.1326782E+00
          2   -1    0    0  501    0  0.00000000000E+00  0.00000000000E+00  0.19816047660E+03  0.19816047662E+03  0.25500000000E-02 0. -1.
         -1   -1    0    0    0  501 -0.00000000000E+00 -0.00000000000E+00 -0.82376288935E+01  0.82376304353E+01  0.50400000000E-02 0.  1.
         24    2    1    2    0    0 -0.71054273576E-14  0.71054273576E-14  0.18992284771E+03  0.20639810705E+03  0.80805262908E+02 0.  0.
         66    2    3    3    0    0  0.24593797280E+02 -0.30620507069E+02  0.71072281047E+02  0.81226470180E+02  0.20000017247E+01 0.  0.
        -13    1    3    3    0    0 -0.24593797280E+02  0.30620507069E+02  0.11885056666E+03  0.12517163688E+03  0.10566000000E+00 0.  1.
         13    1    4    4    0    0  0.11498071578E+02 -0.15490934873E+02  0.34212902029E+02  0.39277328608E+02  0.10566000000E+00 0. -1.
        -13    1    4    4    0    0  0.75711932251E+01 -0.93448504307E+01  0.21889500372E+02  0.24976200412E+02  0.10566000000E+00 0.  1.
        -14    1    4    4    0    0  0.55245324762E+01 -0.57847217656E+01  0.14969878645E+02  0.16972941161E+02  0.00000000000E+00 0.  1.
<mgrwt>
<rscale>  0 0.80805263E+02</rscale>
<asrwt>0</asrwt>
<pdfrwt beam="1">  1        2 0.30486225E-01 0.80805263E+02</pdfrwt>
<pdfrwt beam="2">  1       -1 0.12673277E-02 0.80805263E+02</pdfrwt>
<totfact> 0.21414091E+05</totfact>
</mgrwt>
</event>
<event>
 8    1  0.7667702E-014  0.8071552E+02  0.7818608E-02  0.1327033E+00
         -1   -1    0    0    0  501 -0.00000000000E+00  0.00000000000E+00  0.12279029506E+02  0.12279030540E+02  0.50400000000E-02 0.  1.
          2   -1    0    0  501    0  0.00000000000E+00 -0.00000000000E+00 -0.13264474211E+03  0.13264474213E+03  0.25500000000E-02 0. -1.
         24    2    1    2    0    0  0.00000000000E+00 -0.88817841970E-15 -0.12036571260E+03  0.14492377267E+03  0.80715519670E+02 0.  0.
         66    2    3    3    0    0  0.11726116224E+02  0.52980311290E+01 -0.12885276700E+03  0.12950909811E+03  0.19999980631E+01 0.  0.
        -13    1    3    3    0    0 -0.11726116224E+02 -0.52980311290E+01  0.84870544015E+01  0.15414674567E+02  0.10566000000E+00 0.  1.
         13    1    4    4    0    0  0.42657446856E+01  0.14967208460E+01 -0.46523321838E+02  0.46742565076E+02  0.10566000000E+00 0. -1.
        -13    1    4    4    0    0  0.89526246391E+00  0.63379445603E+00 -0.15960301535E+02  0.15998299266E+02  0.10566000000E+00 0.  1.
        -14    1    4    4    0    0  0.65651090747E+01  0.31675158270E+01 -0.66369143631E+02  0.66768233765E+02  0.00000000000E+00 0.  1.
<mgrwt>
<rscale>  0 0.80715520E+02</rscale>
<asrwt>0</asrwt>
<pdfrwt beam="1">  1        2 0.20406882E-01 0.80715520E+02</pdfrwt>
<pdfrwt beam="2">  1       -1 0.18890816E-02 0.80715520E+02</pdfrwt>
<totfact> 0.18814844E+05</totfact>
</mgrwt>
</event>
<event>
 8    1  0.7667702E-014  0.7999458E+02  0.7818608E-02  0.1329067E+00
         -1   -1    0    0    0  501 -0.00000000000E+00  0.00000000000E+00  0.14972729992E+02  0.14972730840E+02  0.50400000000E-02 0.  1.
          2   -1    0    0  501    0  0.00000000000E+00 -0.00000000000E+00 -0.10684644867E+03  0.10684644870E+03  0.25500000000E-02 0. -1.
         24    2    1    2    0    0  0.35527136788E-14  0.00000000000E+00 -0.91873718681E+02  0.12181917954E+03  0.79994576820E+02 0.  0.
         66    2    3    3    0    0  0.17059838060E+02 -0.36078487956E+02 -0.42532248884E+02  0.58358268949E+02  0.19999979424E+01 0.  0.
        -13    1    3    3    0    0 -0.17059838060E+02  0.36078487956E+02 -0.49341469797E+02  0.63460910595E+02  0.10566000000E+00 0.  1.
         13    1    4    4    0    0  0.71578033205E+01 -0.15805591746E+02 -0.19306688310E+02  0.25957855388E+02  0.10566000000E+00 0. -1.
        -13    1    4    4    0    0  0.74143359226E+01 -0.16238717685E+02 -0.18368148108E+02  0.25613831384E+02  0.10566000000E+00 0.  1.
        -14    1    4    4    0    0  0.24876988174E+01 -0.40341785252E+01 -0.48574124662E+01  0.67865821770E+01  0.00000000000E+00 0.  1.
<mgrwt>
<rscale>  0 0.79994577E+02</rscale>
<asrwt>0</asrwt>
<pdfrwt beam="1">  1        2 0.16437915E-01 0.79994577E+02</pdfrwt>
<pdfrwt beam="2">  1       -1 0.23034971E-02 0.79994577E+02</pdfrwt>
<totfact> 0.18064904E+05</totfact>
</mgrwt>
</event>
<event>
 8    1  0.7667702E-014  0.8013715E+02  0.7818608E-02  0.1328663E+00
          2   -1    0    0  501    0  0.00000000000E+00  0.00000000000E+00  0.56624402182E+03  0.56624402182E+03  0.25500000000E-02 0. -1.
         -1   -1    0    0    0  501 -0.00000000000E+00 -0.00000000000E+00 -0.28353310765E+01  0.28353355560E+01  0.50400000000E-02 0.  1.
         24    2    1    2    0    0  0.00000000000E+00  0.00000000000E+00  0.56340869074E+03  0.56907935738E+03  0.80137146147E+02 0.  0.
         66    2    3    3    0    0  0.36269750611E+02  0.10864758081E+02  0.37445496192E+03  0.37636957408E+03  0.20000033920E+01 0.  0.
        -13    1    3    3    0    0 -0.36269750611E+02 -0.10864758081E+02  0.18895372882E+03  0.19270978329E+03  0.10566000000E+00 0.  1.
         13    1    4    4    0    0  0.34332390520E+02  0.10080424596E+02  0.35185275927E+03  0.35366750398E+03  0.10566000000E+00 0. -1.
        -13    1    4    4    0    0  0.73315439829E+00  0.11678699074E+00  0.81629971988E+01  0.81973679847E+01  0.10566000000E+00 0. -1.
         14    1    4    4    0    0  0.12042056924E+01  0.66754649460E+00  0.14439205447E+02  0.14504702121E+02  0.00000000000E+00 0. -1.
<mgrwt>
<rscale>  0 0.80137146E+02</rscale>
<asrwt>0</asrwt>
<pdfrwt beam="1">  1        2 0.87114482E-01 0.80137146E+02</pdfrwt>
<pdfrwt beam="2">  1       -1 0.43620504E-03 0.80137146E+02</pdfrwt>
<totfact> 0.31494505E+05</totfact>
</mgrwt>
</event>
<event>
 8    1  0.7667702E-014  0.8478067E+02  0.7818608E-02  0.1316007E+00
         -1   -1    0    0    0  501 -0.00000000000E+00  0.00000000000E+00  0.95934348657E+02  0.95934348789E+02  0.50400000000E-02 0.  1.
          2   -1    0    0  501    0  0.00000000000E+00 -0.00000000000E+00 -0.18730939256E+02  0.18730939429E+02  0.25500000000E-02 0. -1.
         24    2    1    2    0    0  0.00000000000E+00 -0.35527136788E-14  0.77203409401E+02  0.11466528822E+03  0.84780669372E+02 0.  0.
         66    2    3    3    0    0  0.35778192696E+02 -0.21558305044E+02  0.29050386820E+02  0.50919195502E+02  0.19999768118E+01 0.  0.
        -13    1    3    3    0    0 -0.35778192696E+02  0.21558305044E+02  0.48153022581E+02  0.63746092717E+02  0.10566000000E+00 0.  1.
         13    1    4    4    0    0  0.17089892364E+02 -0.10766316889E+02  0.14718960656E+02  0.24992738289E+02  0.10566000000E+00 0. -1.
        -13    1    4    4    0    0  0.84791242162E+01 -0.44135659463E+01  0.66904454121E+01  0.11668261896E+02  0.10566000000E+00 0.  1.
         14    1    4    4    0    0  0.10209176115E+02 -0.63784222084E+01  0.76409807520E+01  0.14258195316E+02  0.00000000000E+00 0. -1.
<mgrwt>
<rscale>  0 0.84780669E+02</rscale>
<asrwt>0</asrwt>
<pdfrwt beam="1">  1        2 0.28816830E-02 0.84780669E+02</pdfrwt>
<pdfrwt beam="2">  1       -1 0.14759130E-01 0.84780669E+02</pdfrwt>
<totfact> 0.10350690E+05</totfact>
</mgrwt>
</event>
<event>
 8    1  0.7667702E-014  0.7617768E+02  0.7818608E-02  0.1340262E+00
          2   -1    0    0  501    0  0.00000000000E+00  0.00000000000E+00  0.39711070361E+03  0.39711070362E+03  0.25500000000E-02 0. -1.
         -1   -1    0    0    0  501 -0.00000000000E+00 -0.00000000000E+00 -0.36532861501E+01  0.36532896266E+01  0.50400000000E-02 0.  1.
         24    2    1    2    0    0 -0.17763568394E-14  0.44408920985E-15  0.39345741746E+03  0.40076399324E+03  0.76177679981E+02 0.  0.
         66    2    3    3    0    0 -0.14679964973E+02 -0.32791786785E+01  0.38080786685E+03  0.38111007051E+03  0.19999997734E+01 0.  0.
        -13    1    3    3    0    0  0.14679964973E+02  0.32791786785E+01  0.12649550604E+02  0.19653922737E+02  0.10566000000E+00 0.  1.
         13    1    4    4    0    0 -0.99111381291E+01 -0.24036213733E+01  0.25614834901E+03  0.25635131347E+03  0.10566000000E+00 0. -1.
        -13    1    4    4    0    0 -0.23652199081E+01 -0.88622742989E+00  0.72103206629E+02  0.72147510245E+02  0.10566000000E+00 0.  1.
         14    1    4    4    0    0 -0.24036069359E+01  0.10670124684E-01  0.52556311214E+02  0.52611246788E+02  0.00000000000E+00 0. -1.
<mgrwt>
<rscale>  0 0.76177680E+02</rscale>
<asrwt>0</asrwt>
<pdfrwt beam="1">  1        2 0.61093953E-01 0.76177680E+02</pdfrwt>
<pdfrwt beam="2">  1       -1 0.56204430E-03 0.76177680E+02</pdfrwt>
<totfact> 0.32017262E+05</totfact>
</mgrwt>
</event>
<event>
 8    1  0.7667702E-014  0.7847111E+02  0.7818608E-02  0.1333447E+00
         -1   -1    0    0    0  501 -0.00000000000E+00  0.00000000000E+00  0.79536659781E+01  0.79536675749E+01  0.50400000000E-02 0.  1.
          2   -1    0    0  501    0  0.00000000000E+00 -0.00000000000E+00 -0.19354957087E+03  0.19354957089E+03  0.25500000000E-02 0. -1.
         24    2    1    2    0    0  0.00000000000E+00  0.35527136788E-14 -0.18559590489E+03  0.20150323846E+03  0.78471110595E+02 0.  0.
         66    2    3    3    0    0  0.26473519612E+01 -0.18374280175E+02 -0.18154431022E+03  0.18250194304E+03  0.19999992711E+01 0.  0.
        -13    1    3    3    0    0 -0.26473519612E+01  0.18374280175E+02 -0.40515946789E+01  0.19001295425E+02  0.10566000000E+00 0.  1.
         13    1    4    4    0    0  0.29498824819E+00 -0.53822088828E+01 -0.49521934937E+02  0.49814539991E+02  0.10566000000E+00 0. -1.
        -13    1    4    4    0    0  0.12159654702E+01 -0.44089576695E+01 -0.41156140640E+02  0.41409619126E+02  0.10566000000E+00 0.  1.
        -14    1    4    4    0    0  0.11363982428E+01 -0.85831136227E+01 -0.90866234638E+02  0.91277783922E+02  0.00000000000E+00 0.  1.
<mgrwt>
<rscale>  0 0.78471111E+02</rscale>
<asrwt>0</asrwt>
<pdfrwt beam="1">  1        2 0.29776854E-01 0.78471111E+02</pdfrwt>
<pdfrwt beam="2">  1       -1 0.12236412E-02 0.78471111E+02</pdfrwt>
<totfact> 0.22948362E+05</totfact>
</mgrwt>
</event>
<event>
 8    1  0.7667702E-014  0.7981422E+02  0.7818608E-02  0.1329579E+00
         -1   -1    0    0    0  501 -0.00000000000E+00  0.00000000000E+00  0.19479673841E+03  0.19479673847E+03  0.50400000000E-02 0.  1.
          2   -1    0    0  501    0  0.00000000000E+00 -0.00000000000E+00 -0.81755847832E+01  0.81755851809E+01  0.25500000000E-02 0. -1.
         24    2    1    2    0    0  0.35527136788E-14  0.00000000000E+00  0.18662115362E+03  0.20297232365E+03  0.79814216712E+02 0.  0.
         66    2    3    3    0    0  0.26316238672E+02  0.16155073062E+02  0.29182984763E+02  0.42534426067E+02  0.19999994304E+01 0.  0.
        -13    1    3    3    0    0 -0.26316238672E+02 -0.16155073062E+02  0.15743816886E+03  0.16043789759E+03  0.10566000000E+00 0.  1.
         13    1    4    4    0    0  0.21115433625E+02  0.12792080371E+02  0.23802812814E+02  0.34294079945E+02  0.10566000000E+00 0. -1.
        -13    1    4    4    0    0  0.35001252628E+01  0.26358039466E+01  0.35774066593E+01  0.56575031367E+01  0.10566000000E+00 0. -1.
         14    1    4    4    0    0  0.17006797838E+01  0.72718874483E+00  0.18027652892E+01  0.25828429851E+01  0.00000000000E+00 0. -1.
<mgrwt>
<rscale>  0 0.79814217E+02</rscale>
<asrwt>0</asrwt>
<pdfrwt beam="1">  1        2 0.12577824E-02 0.79814217E+02</pdfrwt>
<pdfrwt beam="2">  1       -1 0.29968728E-01 0.79814217E+02</pdfrwt>
<totfact> 0.10099032E+05</totfact>
</mgrwt>
</event>
<event>
 8    1  0.7667702E-014  0.8152785E+02  0.7818608E-02  0.1324771E+00
         -1   -1    0    0    0  501 -0.00000000000E+00  0.00000000000E+00  0.45883834285E+02  0.45883834562E+02  0.50400000000E-02 0.  1.
          2   -1    0    0  501    0  0.00000000000E+00 -0.00000000000E+00 -0.36215320219E+02  0.36215320308E+02  0.25500000000E-02 0. -1.
         24    2    1    2    0    0  0.35527136788E-14  0.00000000000E+00  0.96685140664E+01  0.82099154870E+02  0.81527854541E+02 0.  0.
         66    2    3    3    0    0  0.24234768034E+02  0.27980030910E+02 -0.12296375963E+02  0.39056458981E+02  0.20000037368E+01 0.  0.
        -13    1    3    3    0    0 -0.24234768034E+02 -0.27980030910E+02  0.21964890029E+02  0.43042695889E+02  0.10566000000E+00 0.  1.
         13    1    4    4    0    0  0.26318414006E+01  0.37775535710E+01 -0.15217653177E+01  0.48500962730E+01  0.10566000000E+00 0. -1.
        -13    1    4    4    0    0  0.68051106533E+01  0.72143416447E+01 -0.38161722421E+01  0.10626880586E+02  0.10566000000E+00 0.  1.
        -14    1    4    4    0    0  0.14797815980E+02  0.16988135694E+02 -0.69584384033E+01  0.23579482122E+02  0.00000000000E+00 0.  1.
<mgrwt>
<rscale>  0 0.81527855E+02</rscale>
<asrwt>0</asrwt>
<pdfrwt beam="1">  1        2 0.55715877E-02 0.81527855E+02</pdfrwt>
<pdfrwt beam="2">  1       -1 0.70590515E-02 0.81527855E+02</pdfrwt>
<totfact> 0.13253605E+05</totfact>
</mgrwt>
</event>
<event>
 8    1  0.7667702E-014  0.7818031E+02  0.7818608E-02  0.1334296E+00
          2   -1    0    0  501    0  0.00000000000E+00  0.00000000000E+00  0.17865077953E+02  0.17865078135E+02  0.25500000000E-02 0. -1.
         -1   -1    0    0    0  501 -0.00000000000E+00 -0.00000000000E+00 -0.85532240739E+02  0.85532240888E+02  0.50400000000E-02 0.  1.
         24    2    1    2    0    0 -0.35527136788E-14  0.00000000000E+00 -0.67667162787E+02  0.10339731902E+03  0.78180308655E+02 0.  0.
         66    2    3    3    0    0  0.13410796791E+02 -0.78612042334E+01  0.13542324472E+02  0.20713342416E+02  0.19999998419E+01 0.  0.
        -13    1    3    3    0    0 -0.13410796791E+02  0.78612042334E+01 -0.81209487259E+02  0.82683976606E+02  0.10566000000E+00 0.  1.
         13    1    4    4    0    0  0.54186835207E+01 -0.24163759408E+01  0.42453575135E+01  0.72962475450E+01  0.10566000000E+00 0. -1.
        -13    1    4    4    0    0  0.65636431238E+01 -0.43713845054E+01  0.75395646302E+01  0.10910848381E+02  0.10566000000E+00 0.  1.
         14    1    4    4    0    0  0.14284701468E+01 -0.10734437872E+01  0.17574023284E+01  0.25062464899E+01  0.00000000000E+00 0. -1.
<mgrwt>
<rscale>  0 0.78180309E+02</rscale>
<asrwt>0</asrwt>
<pdfrwt beam="1">  1        2 0.27484736E-02 0.78180309E+02</pdfrwt>
<pdfrwt beam="2">  1       -1 0.13158806E-01 0.78180309E+02</pdfrwt>
<totfact> 0.12965651E+05</totfact>
</mgrwt>
</event>
<event>
 8    1  0.7667702E-014  0.7946198E+02  0.7818608E-02  0.1330585E+00
          2   -1    0    0  501    0  0.00000000000E+00  0.00000000000E+00  0.73986064376E+02  0.73986064420E+02  0.25500000000E-02 0. -1.
         -1   -1    0    0    0  501 -0.00000000000E+00 -0.00000000000E+00 -0.21335795198E+02  0.21335795793E+02  0.50400000000E-02 0.  1.
         24    2    1    2    0    0 -0.35527136788E-14 -0.35527136788E-14  0.52650269178E+02  0.95321860213E+02  0.79461979524E+02 0.  0.
         66    2    3    3    0    0 -0.30694454558E+02 -0.17300027644E+02  0.48301358354E+02  0.59820244947E+02  0.19999973975E+01 0.  0.
        -13    1    3    3    0    0  0.30694454558E+02  0.17300027644E+02  0.43489108240E+01  0.35501615266E+02  0.10566000000E+00 0.  1.
         13    1    4    4    0    0 -0.21057120355E+02 -0.11765738669E+02  0.34571013075E+02  0.42154490071E+02  0.10566000000E+00 0. -1.
        -13    1    4    4    0    0 -0.59037396806E+01 -0.34475708196E+01  0.83332986571E+01  0.10779374625E+02  0.10566000000E+00 0.  1.
         14    1    4    4    0    0 -0.37335945222E+01 -0.20867181550E+01  0.53970466215E+01  0.68863802501E+01  0.00000000000E+00 0. -1.
<mgrwt>
<rscale>  0 0.79461980E+02</rscale>
<asrwt>0</asrwt>
<pdfrwt beam="1">  1        2 0.11382472E-01 0.79461980E+02</pdfrwt>
<pdfrwt beam="2">  1       -1 0.32824301E-02 0.79461980E+02</pdfrwt>
<totfact> 0.16669761E+05</totfact>
</mgrwt>
</event>
<event>
 8    1  0.7667702E-014  0.7934555E+02  0.7818608E-02  0.1330919E+00
         -1   -1    0    0    0  501 -0.00000000000E+00  0.00000000000E+00  0.47624355159E+01  0.47624381827E+01  0.50400000000E-02 0.  1.
          2   -1    0    0  501    0  0.00000000000E+00 -0.00000000000E+00 -0.33048820585E+03  0.33048820586E+03  0.25500000000E-02 0. -1.
         24    2    1    2    0    0  0.00000000000E+00  0.22204460493E-15 -0.32572577033E+03  0.33525064404E+03  0.79345553569E+02 0.  0.
         66    2    3    3    0    0  0.39615522860E+02  0.10172928108E+01 -0.15779175427E+03  0.16270421709E+03  0.20000023675E+01 0.  0.
        -13    1    3    3    0    0 -0.39615522860E+02 -0.10172928108E+01 -0.16793401607E+03  0.17254642695E+03  0.10566000000E+00 0.  1.
         13    1    4    4    0    0  0.14877445198E+02 -0.98247903234E-01 -0.60295975789E+02  0.62104459491E+02  0.10566000000E+00 0. -1.
        -13    1    4    4    0    0  0.13215145275E+01  0.11886788049E+00 -0.42542365492E+01  0.44576028167E+01  0.10566000000E+00 0.  1.
        -14    1    4    4    0    0  0.23416563134E+02  0.99667283355E+00 -0.93241541929E+02  0.96142154787E+02  0.00000000000E+00 0.  1.
<mgrwt>
<rscale>  0 0.79345554E+02</rscale>
<asrwt>0</asrwt>
<pdfrwt beam="1">  1        2 0.50844321E-01 0.79345554E+02</pdfrwt>
<pdfrwt beam="2">  1       -1 0.73268286E-03 0.79345554E+02</pdfrwt>
<totfact> 0.26974912E+05</totfact>
</mgrwt>
</event>
<event>
 8    1  0.7667702E-014  0.7811005E+02  0.7818608E-02  0.1334502E+00
          2   -1    0    0  501    0  0.00000000000E+00  0.00000000000E+00  0.15957186742E+03  0.15957186744E+03  0.25500000000E-02 0. -1.
         -1   -1    0    0    0  501 -0.00000000000E+00 -0.00000000000E+00 -0.95586694080E+01  0.95586707367E+01  0.50400000000E-02 0.  1.
         24    2    1    2    0    0  0.00000000000E+00  0.00000000000E+00  0.15001319801E+03  0.16913053817E+03  0.78110046513E+02 0.  0.
         66    2    3    3    0    0 -0.22391511588E+02  0.29336386888E+02  0.10255446419E+03  0.10901110731E+03  0.20000016103E+01 0.  0.
        -13    1    3    3    0    0  0.22391511588E+02 -0.29336386888E+02  0.47458733823E+02  0.60119430861E+02  0.10566000000E+00 0.  1.
         13    1    4    4    0    0 -0.72796675735E+01  0.96335147727E+01  0.35148263069E+02  0.37164630063E+02  0.10566000000E+00 0. -1.
        -13    1    4    4    0    0 -0.13014044623E+02  0.16317997102E+02  0.57386991426E+02  0.61064886276E+02  0.10566000000E+00 0.  1.
        -14    1    4    4    0    0 -0.20977993920E+01  0.33848750133E+01  0.10019209691E+02  0.10781590976E+02  0.00000000000E+00 0.  1.
<mgrwt>
<rscale>  0 0.78110047E+02</rscale>
<asrwt>0</asrwt>
<pdfrwt beam="1">  1        2 0.24549518E-01 0.78110047E+02</pdfrwt>
<pdfrwt beam="2">  1       -1 0.14705646E-02 0.78110047E+02</pdfrwt>
<totfact> 0.21771906E+05</totfact>
</mgrwt>
</event>
<event>
 8    1  0.7667702E-014  0.8145798E+02  0.7818608E-02  0.1324964E+00
         -1   -1    0    0    0  501 -0.00000000000E+00  0.00000000000E+00  0.86796912040E+02  0.86796912187E+02  0.50400000000E-02 0.  1.
          2   -1    0    0  501    0  0.00000000000E+00 -0.00000000000E+00 -0.19111859720E+02  0.19111859890E+02  0.25500000000E-02 0. -1.
         24    2    1    2    0    0  0.00000000000E+00  0.00000000000E+00  0.67685052321E+02  0.10590877208E+03  0.81457975025E+02 0.  0.
         66    2    3    3    0    0  0.23591223485E+02  0.26824619202E+02  0.84933506809E+01  0.36772857185E+02  0.19999997353E+01 0.  0.
        -13    1    3    3    0    0 -0.23591223485E+02 -0.26824619202E+02  0.59191701640E+02  0.69135914891E+02  0.10566000000E+00 0.  1.
         13    1    4    4    0    0  0.11142676543E+02  0.12334765843E+02  0.38932039792E+01  0.17072606426E+02  0.10566000000E+00 0. -1.
        -13    1    4    4    0    0  0.91039775856E+01  0.10975414335E+02  0.28466460965E+01  0.14541550321E+02  0.10566000000E+00 0.  1.
        -14    1    4    4    0    0  0.33445693562E+01  0.35144390238E+01  0.17535006052E+01  0.51587004374E+01  0.00000000000E+00 0.  1.
<mgrwt>
<rscale>  0 0.81457975E+02</rscale>
<asrwt>0</asrwt>
<pdfrwt beam="1">  1        2 0.29402862E-02 0.81457975E+02</pdfrwt>
<pdfrwt beam="2">  1       -1 0.13353371E-01 0.81457975E+02</pdfrwt>
<totfact> 0.11676611E+05</totfact>
</mgrwt>
</event>
<event>
 8    1  0.7667702E-014  0.7837501E+02  0.7818608E-02  0.1333727E+00
          2   -1    0    0  501    0  0.00000000000E+00  0.00000000000E+00  0.64418869698E+03  0.64418869699E+03  0.25500000000E-02 0. -1.
         -1   -1    0    0    0  501 -0.00000000000E+00 -0.00000000000E+00 -0.23838650657E+01  0.23838703936E+01  0.50400000000E-02 0.  1.
         24    2    1    2    0    0  0.00000000000E+00  0.00000000000E+00  0.64180483192E+03  0.64657256738E+03  0.78375012715E+02 0.  0.
         66    2    3    3    0    0 -0.96657404669E+01  0.60214458000E+01  0.63022487184E+03  0.63033092376E+03  0.20000015011E+01 0.  0.
        -13    1    3    3    0    0  0.96657404669E+01 -0.60214458000E+01  0.11579960075E+02  0.16241643626E+02  0.10566000000E+00 0.  1.
         13    1    4    4    0    0 -0.57118988537E+01  0.46157591992E+01  0.38435047600E+03  0.38442064277E+03  0.10566000000E+00 0. -1.
        -13    1    4    4    0    0 -0.13840898458E+01  0.45271192164E+00  0.86210497044E+02  0.86222860179E+02  0.10566000000E+00 0.  1.
         14    1    4    4    0    0 -0.25697517674E+01  0.95297467916E+00  0.15966389880E+03  0.15968742081E+03  0.00000000000E+00 0. -1.
<mgrwt>
<rscale>  0 0.78375013E+02</rscale>
<asrwt>0</asrwt>
<pdfrwt beam="1">  1        2 0.99106127E-01 0.78375013E+02</pdfrwt>
<pdfrwt beam="2">  1       -1 0.36674824E-03 0.78375013E+02</pdfrwt>
<totfact> 0.34577290E+05</totfact>
</mgrwt>
</event>
<event>
 8    1  0.7667702E-014  0.7937608E+02  0.7818608E-02  0.1330831E+00
         -1   -1    0    0    0  501 -0.00000000000E+00  0.00000000000E+00  0.49309144089E+01  0.49309169846E+01  0.50400000000E-02 0.  1.
          2   -1    0    0  501    0  0.00000000000E+00 -0.00000000000E+00 -0.31944180963E+03  0.31944180964E+03  0.25500000000E-02 0. -1.
         24    2    1    2    0    0  0.00000000000E+00 -0.17763568394E-14 -0.31451089522E+03  0.32437272662E+03  0.79376083080E+02 0.  0.
         66    2    3    3    0    0  0.23661570061E+02 -0.10635733824E+02 -0.27996090670E+03  0.28116738433E+03  0.20000001580E+01 0.  0.
        -13    1    3    3    0    0 -0.23661570061E+02  0.10635733824E+02 -0.34549988523E+02  0.43205342294E+02  0.10566000000E+00 0.  1.
         13    1    4    4    0    0  0.44074589015E+01 -0.16938001946E+01 -0.52349716687E+02  0.52562331135E+02  0.10566000000E+00 0. -1.
        -13    1    4    4    0    0  0.63134565533E+01 -0.29885847491E+01 -0.83406492449E+02  0.83698539528E+02  0.10566000000E+00 0.  1.
         14    1    4    4    0    0  0.12940654607E+02 -0.59533488802E+01 -0.14420469756E+03  0.14490651367E+03  0.00000000000E+00 0. -1.
<mgrwt>
<rscale>  0 0.79376083E+02</rscale>
<asrwt>0</asrwt>
<pdfrwt beam="1">  1        2 0.49144878E-01 0.79376083E+02</pdfrwt>
<pdfrwt beam="2">  1       -1 0.75860266E-03 0.79376083E+02</pdfrwt>
<totfact> 0.26620018E+05</totfact>
</mgrwt>
</event>
<event>
 8    1  0.7667702E-014  0.7977585E+02  0.7818608E-02  0.1329689E+00
          2   -1    0    0  501    0  0.00000000000E+00  0.00000000000E+00  0.17512485549E+03  0.17512485551E+03  0.25500000000E-02 0. -1.
         -1   -1    0    0    0  501 -0.00000000000E+00 -0.00000000000E+00 -0.90852109109E+01  0.90852123088E+01  0.50400000000E-02 0.  1.
         24    2    1    2    0    0  0.00000000000E+00  0.00000000000E+00  0.16603964458E+03  0.18421006782E+03  0.79775845426E+02 0.  0.
         66    2    3    3    0    0  0.19872606217E+02 -0.10702900875E+02  0.15894133835E+03  0.16054850235E+03  0.20000015296E+01 0.  0.
        -13    1    3    3    0    0 -0.19872606217E+02  0.10702900875E+02  0.70983062323E+01  0.23661565468E+02  0.10566000000E+00 0.  1.
         13    1    4    4    0    0  0.14846553894E+02 -0.88125368906E+01  0.12166142509E+03  0.12288040726E+03  0.10566000000E+00 0. -1.
        -13    1    4    4    0    0  0.38287285020E+01 -0.13160611692E+01  0.26770651987E+02  0.27075268250E+02  0.10566000000E+00 0.  1.
         14    1    4    4    0    0  0.11973238213E+01 -0.57430281483E+00  0.10509261272E+02  0.10592826843E+02  0.00000000000E+00 0. -1.
<mgrwt>
<rscale>  0 0.79775845E+02</rscale>
<asrwt>0</asrwt>
<pdfrwt beam="1">  1        2 0.26942282E-01 0.79775845E+02</pdfrwt>
<pdfrwt beam="2">  1       -1 0.13977250E-02 0.79775845E+02</pdfrwt>
<totfact> 0.21234891E+05</totfact>
</mgrwt>
</event>
<event>
 8    1  0.7667702E-014  0.8120002E+02  0.7818608E-02  0.1325680E+00
          2   -1    0    0  501    0  0.00000000000E+00  0.00000000000E+00  0.74237917314E+03  0.74237917314E+03  0.25500000000E-02 0. -1.
         -1   -1    0    0    0  501 -0.00000000000E+00 -0.00000000000E+00 -0.22203729278E+01  0.22203786479E+01  0.50400000000E-02 0.  1.
         24    2    1    2    0    0  0.88817841970E-15 -0.35527136788E-14  0.74015880021E+03  0.74459955179E+03  0.81200018458E+02 0.  0.
         66    2    3    3    0    0  0.58670374777E+01 -0.29428133858E+02  0.62074828124E+03  0.62147635984E+03  0.19999967802E+01 0.  0.
        -13    1    3    3    0    0 -0.58670374777E+01  0.29428133858E+02  0.11941051897E+03  0.12312319195E+03  0.10566000000E+00 0.  1.
         13    1    4    4    0    0  0.76752556390E+00 -0.56124059128E+01  0.11047142224E+03  0.11061661038E+03  0.10566000000E+00 0. -1.
        -13    1    4    4    0    0  0.17372103494E+01 -0.56959043207E+01  0.11789348391E+03  0.11804383058E+03  0.10566000000E+00 0.  1.
         14    1    4    4    0    0  0.33623015644E+01 -0.18119823625E+02  0.39238337508E+03  0.39281591888E+03  0.00000000000E+00 0. -1.
<mgrwt>
<rscale>  0 0.81200018E+02</rscale>
<asrwt>0</asrwt>
<pdfrwt beam="1">  1        2 0.11421229E+00 0.81200018E+02</pdfrwt>
<pdfrwt beam="2">  1       -1 0.34159595E-03 0.81200018E+02</pdfrwt>
<totfact> 0.32595360E+05</totfact>
</mgrwt>
</event>
<event>
 8    1  0.7667702E-014  0.8030631E+02  0.7818608E-02  0.1328184E+00
          2   -1    0    0  501    0  0.00000000000E+00  0.00000000000E+00  0.35364061874E+03  0.35364061875E+03  0.25500000000E-02 0. -1.
         -1   -1    0    0    0  501 -0.00000000000E+00 -0.00000000000E+00 -0.45590784399E+01  0.45590812257E+01  0.50400000000E-02 0.  1.
         24    2    1    2    0    0  0.00000000000E+00  0.00000000000E+00  0.34908154030E+03  0.35819969998E+03  0.80306309116E+02 0.  0.
         66    2    3    3    0    0 -0.32308723352E+02  0.16804528502E+01  0.28053958596E+03  0.28240597863E+03  0.19999874237E+01 0.  0.
        -13    1    3    3    0    0  0.32308723352E+02 -0.16804528502E+01  0.68541954347E+02  0.75793721350E+02  0.10566000000E+00 0.  1.
         13    1    4    4    0    0 -0.10301578888E+02  0.11100185455E+01  0.90097435195E+02  0.90691309735E+02  0.10566000000E+00 0. -1.
        -13    1    4    4    0    0 -0.18355424385E+02  0.95293784559E+00  0.15851955236E+03  0.15958160714E+03  0.10566000000E+00 0.  1.
        -14    1    4    4    0    0 -0.36517200788E+01 -0.38250354093E+00  0.31922598406E+02  0.32133061750E+02  0.00000000000E+00 0.  1.
<mgrwt>
<rscale>  0 0.80306309E+02</rscale>
<asrwt>0</asrwt>
<pdfrwt beam="1">  1        2 0.54406246E-01 0.80306309E+02</pdfrwt>
<pdfrwt beam="2">  1       -1 0.70139693E-03 0.80306309E+02</pdfrwt>
<totfact> 0.26780133E+05</totfact>
</mgrwt>
</event>
<event>
 8    1  0.7667702E-014  0.7942634E+02  0.7818608E-02  0.1330687E+00
         -1   -1    0    0    0  501 -0.00000000000E+00  0.00000000000E+00  0.13246703947E+02  0.13246704906E+02  0.50400000000E-02 0.  1.
          2   -1    0    0  501    0  0.00000000000E+00 -0.00000000000E+00 -0.11905874469E+03  0.11905874472E+03  0.25500000000E-02 0. -1.
         24    2    1    2    0    0 -0.35527136788E-14  0.88817841970E-15 -0.10581204074E+03  0.13230544962E+03  0.79426343449E+02 0.  0.
         66    2    3    3    0    0 -0.19122608115E+02  0.79718712837E+01 -0.10932760273E+03  0.11129128266E+03  0.20000014064E+01 0.  0.
        -13    1    3    3    0    0  0.19122608115E+02 -0.79718712837E+01  0.35155619853E+01  0.21014166959E+02  0.10566000000E+00 0.  1.
         13    1    4    4    0    0 -0.24784004873E+01  0.11947765920E+01 -0.11638204595E+02  0.11959470319E+02  0.10566000000E+00 0. -1.
        -13    1    4    4    0    0 -0.12444210520E+02  0.48102395125E+01 -0.73837252564E+02  0.75032978149E+02  0.10566000000E+00 0.  1.
        -14    1    4    4    0    0 -0.41999971081E+01  0.19668551792E+01 -0.23852145569E+02  0.24298834195E+02  0.00000000000E+00 0.  1.
<mgrwt>
<rscale>  0 0.79426343E+02</rscale>
<asrwt>0</asrwt>
<pdfrwt beam="1">  1        2 0.18316729E-01 0.79426343E+02</pdfrwt>
<pdfrwt beam="2">  1       -1 0.20379546E-02 0.79426343E+02</pdfrwt>
<totfact> 0.19003819E+05</totfact>
</mgrwt>
</event>
<event>
 8    1  0.7667702E-014  0.7767423E+02  0.7818608E-02  0.1335784E+00
         -1   -1    0    0    0  501 -0.00000000000E+00  0.00000000000E+00  0.49031483247E+02  0.49031483506E+02  0.50400000000E-02 0.  1.
          2   -1    0    0  501    0  0.00000000000E+00 -0.00000000000E+00 -0.30762309700E+02  0.30762309806E+02  0.25500000000E-02 0. -1.
         24    2    1    2    0    0  0.00000000000E+00 -0.88817841970E-15  0.18269173546E+02  0.79793793312E+02  0.77674234782E+02 0.  0.
         66    2    3    3    0    0 -0.26444246603E+02 -0.51579674143E+01 -0.19557572963E+02  0.33352683056E+02  0.20000001550E+01 0.  0.
        -13    1    3    3    0    0  0.26444246603E+02  0.51579674143E+01  0.37826746509E+02  0.46441110255E+02  0.10566000000E+00 0.  1.
         13    1    4    4    0    0 -0.12632426737E+02 -0.21824470543E+01 -0.93435952681E+01  0.15863644505E+02  0.10566000000E+00 0. -1.
        -13    1    4    4    0    0 -0.29220965385E+01 -0.52117721517E+00 -0.14979915978E+01  0.33264721151E+01  0.10566000000E+00 0.  1.
        -14    1    4    4    0    0 -0.10889723327E+02 -0.24543431449E+01 -0.87159860971E+01  0.14162566436E+02  0.00000000000E+00 0.  1.
<mgrwt>
<rscale>  0 0.77674235E+02</rscale>
<asrwt>0</asrwt>
<pdfrwt beam="1">  1        2 0.47326631E-02 0.77674235E+02</pdfrwt>
<pdfrwt beam="2">  1       -1 0.75433051E-02 0.77674235E+02</pdfrwt>
<totfact> 0.14683230E+05</totfact>
</mgrwt>
</event>
<event>
 8    1  0.7667702E-014  0.7769176E+02  0.7818608E-02  0.1335733E+00
         -1   -1    0    0    0  501 -0.00000000000E+00  0.00000000000E+00  0.29883358428E+02  0.29883358853E+02  0.50400000000E-02 0.  1.
          2   -1    0    0  501    0  0.00000000000E+00 -0.00000000000E+00 -0.50496406755E+02  0.50496406820E+02  0.25500000000E-02 0. -1.
         24    2    1    2    0    0  0.35527136788E-14  0.00000000000E+00 -0.20613048328E+02  0.80379765672E+02  0.77691756115E+02 0.  0.
         66    2    3    3    0    0 -0.27881556188E+02 -0.21226372495E+02 -0.27596308341E+02  0.44648586722E+02  0.19999993691E+01 0.  0.
        -13    1    3    3    0    0  0.27881556188E+02  0.21226372495E+02  0.69832600132E+01  0.35731178950E+02  0.10566000000E+00 0.  1.
         13    1    4    4    0    0 -0.21215667750E+02 -0.15644386056E+02 -0.20416334540E+02  0.33342004338E+02  0.10566000000E+00 0. -1.
        -13    1    4    4    0    0 -0.36009175200E+01 -0.34134886486E+01 -0.37377497846E+01  0.62129259796E+01  0.10566000000E+00 0.  1.
         14    1    4    4    0    0 -0.30649709174E+01 -0.21684977899E+01 -0.34422240165E+01  0.50936564047E+01  0.00000000000E+00 0. -1.
<mgrwt>
<rscale>  0 0.77691756E+02</rscale>
<asrwt>0</asrwt>
<pdfrwt beam="1">  1        2 0.77686780E-02 0.77691756E+02</pdfrwt>
<pdfrwt beam="2">  1       -1 0.45974398E-02 0.77691756E+02</pdfrwt>
<totfact> 0.16222492E+05</totfact>
</mgrwt>
</event>
<event>
 8    1  0.7667702E-014  0.8894481E+02  0.7818608E-02  0.1305427E+00
         -1   -1    0    0    0  501 -0.00000000000E+00  0.00000000000E+00  0.98912353989E+01  0.98912366829E+01  0.50400000000E-02 0.  1.
          2   -1    0    0  501    0  0.00000000000E+00 -0.00000000000E+00 -0.19995428254E+03  0.19995428256E+03  0.25500000000E-02 0. -1.
         24    2    1    2    0    0  0.71054273576E-14  0.00000000000E+00 -0.19006304714E+03  0.20984551924E+03  0.88944814668E+02 0.  0.
         66    2    3    3    0    0  0.39772635473E+02 -0.75039613728E+01 -0.13842971156E+03  0.14423923542E+03  0.20000061418E+01 0.  0.
        -13    1    3    3    0    0 -0.39772635473E+02  0.75039613728E+01 -0.51633335585E+02  0.65606283818E+02  0.10566000000E+00 0.  1.
         13    1    4    4    0    0  0.28045915468E+02 -0.52914609878E+01 -0.97461141591E+02  0.10155421320E+03  0.10566000000E+00 0. -1.
        -13    1    4    4    0    0  0.89296921222E+01 -0.21132181738E+01 -0.32001493619E+02  0.33291317943E+02  0.10566000000E+00 0.  1.
         14    1    4    4    0    0  0.27970278825E+01 -0.99282211158E-01 -0.89670763474E+01  0.93937042828E+01  0.00000000000E+00 0. -1.
<mgrwt>
<rscale>  0 0.88944815E+02</rscale>
<asrwt>0</asrwt>
<pdfrwt beam="1">  1        2 0.30762194E-01 0.88944815E+02</pdfrwt>
<pdfrwt beam="2">  1       -1 0.15217288E-02 0.88944815E+02</pdfrwt>
<totfact> 0.16649687E+05</totfact>
</mgrwt>
</event>
<event>
 8    1  0.7667702E-014  0.8175658E+02  0.7818608E-02  0.1324139E+00
          2   -1    0    0  501    0  0.00000000000E+00  0.00000000000E+00  0.66752333376E+02  0.66752333425E+02  0.25500000000E-02 0. -1.
         -1   -1    0    0    0  501 -0.00000000000E+00 -0.00000000000E+00 -0.25033353019E+02  0.25033353526E+02  0.50400000000E-02 0.  1.
         24    2    1    2    0    0  0.00000000000E+00  0.00000000000E+00  0.41718980357E+02  0.91785686951E+02  0.81756583876E+02 0.  0.
         66    2    3    3    0    0 -0.33244279195E+02 -0.41215244746E+01  0.47125642287E+02  0.57853221370E+02  0.19999996832E+01 0.  0.
        -13    1    3    3    0    0  0.33244279195E+02  0.41215244746E+01 -0.54066619297E+01  0.33932465581E+02  0.10566000000E+00 0.  1.
         13    1    4    4    0    0 -0.20885558693E+02 -0.22426128267E+01  0.28455590824E+02  0.35369021578E+02  0.10566000000E+00 0. -1.
        -13    1    4    4    0    0 -0.69774799249E+01 -0.74325093968E+00  0.10936449796E+02  0.12994412116E+02  0.10566000000E+00 0.  1.
        -14    1    4    4    0    0 -0.53812405766E+01 -0.11356607082E+01  0.77336016674E+01  0.94897876761E+01  0.00000000000E+00 0.  1.
<mgrwt>
<rscale>  0 0.81756584E+02</rscale>
<asrwt>0</asrwt>
<pdfrwt beam="1">  1        2 0.10269590E-01 0.81756584E+02</pdfrwt>
<pdfrwt beam="2">  1       -1 0.38512852E-02 0.81756584E+02</pdfrwt>
<totfact> 0.15047889E+05</totfact>
</mgrwt>
</event>
<event>
 8    1  0.7667702E-014  0.7992541E+02  0.7818608E-02  0.1329263E+00
          2   -1    0    0  501    0  0.00000000000E+00  0.00000000000E+00  0.16045660750E+03  0.16045660752E+03  0.25500000000E-02 0. -1.
         -1   -1    0    0    0  501 -0.00000000000E+00 -0.00000000000E+00 -0.99529559398E+01  0.99529572158E+01  0.50400000000E-02 0.  1.
         24    2    1    2    0    0  0.00000000000E+00  0.00000000000E+00  0.15050365156E+03  0.17040956474E+03  0.79925406602E+02 0.  0.
         66    2    3    3    0    0  0.33453928347E+01 -0.36299749092E+02  0.11008219117E+03  0.11597824047E+03  0.20000030304E+01 0.  0.
        -13    1    3    3    0    0 -0.33453928347E+01  0.36299749092E+02  0.40421460390E+02  0.54431324267E+02  0.10566000000E+00 0.  1.
         13    1    4    4    0    0  0.34050387029E+00 -0.33720928747E+01  0.11010101044E+02  0.11520435854E+02  0.10566000000E+00 0. -1.
        -13    1    4    4    0    0  0.30448534314E+01 -0.27108273227E+02  0.82599090444E+02  0.86987070970E+02  0.10566000000E+00 0.  1.
        -14    1    4    4    0    0 -0.39964467034E-01 -0.58193829901E+01  0.16472999683E+02  0.17470733645E+02  0.00000000000E+00 0.  1.
<mgrwt>
<rscale>  0 0.79925407E+02</rscale>
<asrwt>0</asrwt>
<pdfrwt beam="1">  1        2 0.24685631E-01 0.79925407E+02</pdfrwt>
<pdfrwt beam="2">  1       -1 0.15312241E-02 0.79925407E+02</pdfrwt>
<totfact> 0.20524687E+05</totfact>
</mgrwt>
</event>
<event>
 8    1  0.7667702E-014  0.7822456E+02  0.7818608E-02  0.1334167E+00
         -1   -1    0    0    0  501 -0.00000000000E+00  0.00000000000E+00  0.45515602123E+01  0.45515630027E+01  0.50400000000E-02 0.  1.
          2   -1    0    0  501    0  0.00000000000E+00 -0.00000000000E+00 -0.33609792311E+03  0.33609792312E+03  0.25500000000E-02 0. -1.
         24    2    1    2    0    0  0.00000000000E+00  0.69388939039E-16 -0.33154636290E+03  0.34064948612E+03  0.78224559089E+02 0.  0.
         66    2    3    3    0    0  0.30363991266E+02 -0.11399386001E+00 -0.27306334442E+03  0.27475366248E+03  0.20000039424E+01 0.  0.
        -13    1    3    3    0    0 -0.30363991266E+02  0.11399386001E+00 -0.58483018473E+02  0.65895823646E+02  0.10566000000E+00 0.  1.
         13    1    4    4    0    0  0.84981140686E+00  0.11837007273E+00 -0.84305308692E+01  0.84747392688E+01  0.10566000000E+00 0. -1.
        -13    1    4    4    0    0  0.12565081388E+02 -0.92215707344E+00 -0.11289936366E+03  0.11360021621E+03  0.10566000000E+00 0.  1.
         14    1    4    4    0    0  0.16949098471E+02  0.68979314069E+00 -0.15173344990E+03  0.15267870700E+03  0.00000000000E+00 0. -1.
<mgrwt>
<rscale>  0 0.78224559E+02</rscale>
<asrwt>0</asrwt>
<pdfrwt beam="1">  1        2 0.51707353E-01 0.78224559E+02</pdfrwt>
<pdfrwt beam="2">  1       -1 0.70024051E-03 0.78224559E+02</pdfrwt>
<totfact> 0.28166760E+05</totfact>
</mgrwt>
</event>
<event>
 8    1  0.7667702E-014  0.8054924E+02  0.7818608E-02  0.1327500E+00
         -1   -1    0    0    0  501 -0.00000000000E+00  0.00000000000E+00  0.22511171994E+03  0.22511172000E+03  0.50400000000E-02 0.  1.
          2   -1    0    0  501    0  0.00000000000E+00 -0.00000000000E+00 -0.72055116854E+01  0.72055121366E+01  0.25500000000E-02 0. -1.
         24    2    1    2    0    0  0.00000000000E+00  0.00000000000E+00  0.21790620826E+03  0.23231723214E+03  0.80549244256E+02 0.  0.
         66    2    3    3    0    0 -0.95731551967E+01  0.39036978934E+02  0.10289560392E+03  0.11048545755E+03  0.19999998040E+01 0.  0.
        -13    1    3    3    0    0  0.95731551967E+01 -0.39036978934E+02  0.11501060433E+03  0.12183177458E+03  0.10566000000E+00 0.  1.
         13    1    4    4    0    0 -0.57272368506E+01  0.21809548052E+02  0.58383300200E+02  0.62586568323E+02  0.10566000000E+00 0. -1.
        -13    1    4    4    0    0 -0.15879616751E+01  0.86988207222E+01  0.21009967439E+02  0.22795196864E+02  0.10566000000E+00 0.  1.
         14    1    4    4    0    0 -0.22579566710E+01  0.85286101600E+01  0.23502336285E+02  0.25103692366E+02  0.00000000000E+00 0. -1.
<mgrwt>
<rscale>  0 0.80549244E+02</rscale>
<asrwt>0</asrwt>
<pdfrwt beam="1">  1        2 0.11085405E-02 0.80549244E+02</pdfrwt>
<pdfrwt beam="2">  1       -1 0.34632566E-01 0.80549244E+02</pdfrwt>
<totfact> 0.94303857E+04</totfact>
</mgrwt>
</event>
<event>
 8    1  0.7667702E-014  0.7993284E+02  0.7818608E-02  0.1329242E+00
          2   -1    0    0  501    0  0.00000000000E+00  0.00000000000E+00  0.18723616327E+04  0.18723616327E+04  0.25500000000E-02 0. -1.
         -1   -1    0    0    0  501 -0.00000000000E+00 -0.00000000000E+00 -0.85309424311E+00  0.85310913090E+00  0.50400000000E-02 0.  1.
         24    2    1    2    0    0  0.00000000000E+00  0.00000000000E+00  0.18715085385E+04  0.18732147419E+04  0.79932843701E+02 0.  0.
         66    2    3    3    0    0  0.18776123995E+02  0.42266457824E+01  0.17565258221E+04  0.17566323950E+04  0.20000280531E+01 0.  0.
        -13    1    3    3    0    0 -0.18776123995E+02 -0.42266457824E+01  0.11498271636E+03  0.11658234683E+03  0.10566000000E+00 0.  1.
         13    1    4    4    0    0  0.12038292440E+02  0.35172763030E+01  0.11204040439E+04  0.11204742409E+04  0.10566000000E+00 0. -1.
        -13    1    4    4    0    0  0.91363964289E+00 -0.90012005250E-01  0.85581064263E+02  0.85586053560E+02  0.10566000000E+00 0.  1.
         14    1    4    4    0    0  0.58241919121E+01  0.79938148468E+00  0.55054071398E+03  0.55057210061E+03  0.00000000000E+00 0. -1.
<mgrwt>
<rscale>  0 0.79932844E+02</rscale>
<asrwt>0</asrwt>
<pdfrwt beam="1">  1        2 0.28805614E+00 0.79932844E+02</pdfrwt>
<pdfrwt beam="2">  1       -1 0.13124619E-03 0.79932844E+02</pdfrwt>
<totfact> 0.29424224E+05</totfact>
</mgrwt>
</event>
<event>
 8    1  0.7667702E-014  0.8015579E+02  0.7818608E-02  0.1328610E+00
          2   -1    0    0  501    0  0.00000000000E+00  0.00000000000E+00  0.82427954610E+02  0.82427954650E+02  0.25500000000E-02 0. -1.
         -1   -1    0    0    0  501 -0.00000000000E+00 -0.00000000000E+00 -0.19486563861E+02  0.19486564513E+02  0.50400000000E-02 0.  1.
         24    2    1    2    0    0  0.00000000000E+00 -0.17763568394E-14  0.62941390749E+02  0.10191451916E+03  0.80155789228E+02 0.  0.
         66    2    3    3    0    0 -0.33099042782E+02 -0.13627164164E+02  0.54340607436E+02  0.65101058664E+02  0.19999966232E+01 0.  0.
        -13    1    3    3    0    0  0.33099042782E+02  0.13627164164E+02  0.86007833133E+01  0.36813460498E+02  0.10566000000E+00 0.  1.
         13    1    4    4    0    0 -0.23402936474E+02 -0.92394767888E+01  0.36856491846E+02  0.44625973628E+02  0.10566000000E+00 0. -1.
        -13    1    4    4    0    0 -0.81303486220E+01 -0.35244817794E+01  0.14301718736E+02  0.16824828777E+02  0.10566000000E+00 0.  1.
         14    1    4    4    0    0 -0.15657576855E+01 -0.86320559601E+00  0.31823968536E+01  0.36502562601E+01  0.00000000000E+00 0. -1.
<mgrwt>
<rscale>  0 0.80155789E+02</rscale>
<asrwt>0</asrwt>
<pdfrwt beam="1">  1        2 0.12681224E-01 0.80155789E+02</pdfrwt>
<pdfrwt beam="2">  1       -1 0.29979329E-02 0.80155789E+02</pdfrwt>
<totfact> 0.16737166E+05</totfact>
</mgrwt>
</event>
<event>
 8    1  0.7667702E-014  0.7946485E+02  0.7818608E-02  0.1330577E+00
         -1   -1    0    0    0  501 -0.00000000000E+00  0.00000000000E+00  0.34154595359E+02  0.34154595731E+02  0.50400000000E-02 0.  1.
          2   -1    0    0  501    0  0.00000000000E+00 -0.00000000000E+00 -0.46221173461E+02  0.46221173532E+02  0.25500000000E-02 0. -1.
         24    2    1    2    0    0  0.17763568394E-14 -0.17763568394E-14 -0.12066578102E+02  0.80375769262E+02  0.79464847432E+02 0.  0.
         66    2    3    3    0    0  0.95214183280E+01  0.12159576706E+02 -0.43037135208E+02  0.45767977016E+02  0.20000001438E+01 0.  0.
        -13    1    3    3    0    0 -0.95214183280E+01 -0.12159576706E+02  0.30970557106E+02  0.34607792246E+02  0.10566000000E+00 0.  1.
         13    1    4    4    0    0  0.54578578397E+01  0.62617018501E+01 -0.24505770043E+02  0.25875491332E+02  0.10566000000E+00 0. -1.
        -13    1    4    4    0    0  0.16400437560E+01  0.17872975191E+01 -0.71600082564E+01  0.75604932518E+01  0.10566000000E+00 0.  1.
        -14    1    4    4    0    0  0.24235167322E+01  0.41105773369E+01 -0.11371356909E+02  0.12331992432E+02  0.00000000000E+00 0.  1.
<mgrwt>
<rscale>  0 0.79464847E+02</rscale>
<asrwt>0</asrwt>
<pdfrwt beam="1">  1        2 0.71109498E-02 0.79464847E+02</pdfrwt>
<pdfrwt beam="2">  1       -1 0.52545532E-02 0.79464847E+02</pdfrwt>
<totfact> 0.14965755E+05</totfact>
</mgrwt>
</event>
<event>
 8    1  0.7667702E-014  0.7951116E+02  0.7818608E-02  0.1330444E+00
         -1   -1    0    0    0  501 -0.00000000000E+00  0.00000000000E+00  0.49926270980E+01  0.49926296419E+01  0.50400000000E-02 0.  1.
          2   -1    0    0  501    0  0.00000000000E+00 -0.00000000000E+00 -0.31656797063E+03  0.31656797064E+03  0.25500000000E-02 0. -1.
         24    2    1    2    0    0  0.00000000000E+00  0.35527136788E-14 -0.31157534354E+03  0.32156060029E+03  0.79511162467E+02 0.  0.
         66    2    3    3    0    0 -0.28651911545E+02 -0.24604068657E+02 -0.20578072984E+03  0.20922715166E+03  0.19999969054E+01 0.  0.
        -13    1    3    3    0    0  0.28651911545E+02  0.24604068657E+02 -0.10579461370E+03  0.11233344863E+03  0.10566000000E+00 0.  1.
         13    1    4    4    0    0 -0.15088833175E+01 -0.98947243158E+00 -0.83506722913E+01  0.85440433234E+01  0.10566000000E+00 0. -1.
        -13    1    4    4    0    0 -0.56228408829E+00 -0.47655729812E+00 -0.43954163935E+01  0.44580398789E+01  0.10566000000E+00 0.  1.
         14    1    4    4    0    0 -0.26580744139E+02 -0.23138038928E+02 -0.19303464116E+03  0.19622506846E+03  0.00000000000E+00 0. -1.
<mgrwt>
<rscale>  0 0.79511162E+02</rscale>
<asrwt>0</asrwt>
<pdfrwt beam="1">  1        2 0.48702749E-01 0.79511162E+02</pdfrwt>
<pdfrwt beam="2">  1       -1 0.76809692E-03 0.79511162E+02</pdfrwt>
<totfact> 0.26415551E+05</totfact>
</mgrwt>
</event>
<event>
 8    1  0.7667702E-014  0.7762360E+02  0.7818608E-02  0.1335934E+00
          2   -1    0    0  501    0  0.00000000000E+00  0.00000000000E+00  0.60044713904E+02  0.60044713958E+02  0.25500000000E-02 0. -1.
         -1   -1    0    0    0  501 -0.00000000000E+00 -0.00000000000E+00 -0.25087234294E+02  0.25087234800E+02  0.50400000000E-02 0.  1.
         24    2    1    2    0    0  0.22204460493E-15 -0.71054273576E-14  0.34957479610E+02  0.85131948758E+02  0.77623600269E+02 0.  0.
         66    2    3    3    0    0  0.18990543264E+01 -0.37033367562E+02  0.29959973254E+02  0.47714533640E+02  0.20000006905E+01 0.  0.
        -13    1    3    3    0    0 -0.18990543264E+01  0.37033367562E+02  0.49975063565E+01  0.37417415118E+02  0.10566000000E+00 0.  1.
         13    1    4    4    0    0  0.21301042462E+01 -0.32468674508E+02  0.26083498515E+02  0.41702664510E+02  0.10566000000E+00 0. -1.
        -13    1    4    4    0    0  0.48416023181E-01 -0.23027803066E+01  0.17479075430E+01  0.28933520468E+01  0.10566000000E+00 0.  1.
        -14    1    4    4    0    0 -0.27946594300E+00 -0.22619127477E+01  0.21285671959E+01  0.31185170833E+01  0.00000000000E+00 0.  1.
<mgrwt>
<rscale>  0 0.77623600E+02</rscale>
<asrwt>0</asrwt>
<pdfrwt beam="1">  1        2 0.92376483E-02 0.77623600E+02</pdfrwt>
<pdfrwt beam="2">  1       -1 0.38595746E-02 0.77623600E+02</pdfrwt>
<totfact> 0.16897186E+05</totfact>
</mgrwt>
</event>
<event>
 8    1  0.7667702E-014  0.8262815E+02  0.7818608E-02  0.1321754E+00
         -1   -1    0    0    0  501 -0.00000000000E+00  0.00000000000E+00  0.94395730611E+01  0.94395744066E+01  0.50400000000E-02 0.  1.
          2   -1    0    0  501    0  0.00000000000E+00 -0.00000000000E+00 -0.18081885293E+03  0.18081885294E+03  0.25500000000E-02 0. -1.
         24    2    1    2    0    0  0.00000000000E+00  0.00000000000E+00 -0.17137927986E+03  0.19025842735E+03  0.82628152653E+02 0.  0.
         66    2    3    3    0    0 -0.37742475491E+02 -0.95521823824E+01 -0.11740417541E+03  0.12370723120E+03  0.20000006230E+01 0.  0.
        -13    1    3    3    0    0  0.37742475491E+02  0.95521823824E+01 -0.53975104455E+02  0.66551196153E+02  0.10566000000E+00 0.  1.
         13    1    4    4    0    0 -0.36041359395E+01 -0.12353231089E+01 -0.12317561093E+02  0.12893769595E+02  0.10566000000E+00 0. -1.
        -13    1    4    4    0    0 -0.22765732217E+02 -0.54187936046E+01 -0.67999789594E+02  0.71914007234E+02  0.10566000000E+00 0.  1.
        -14    1    4    4    0    0 -0.11372607334E+02 -0.28980656689E+01 -0.37086824723E+02  0.38899454369E+02  0.00000000000E+00 0.  1.
<mgrwt>
<rscale>  0 0.82628153E+02</rscale>
<asrwt>0</asrwt>
<pdfrwt beam="1">  1        2 0.27818283E-01 0.82628153E+02</pdfrwt>
<pdfrwt beam="2">  1       -1 0.14522423E-02 0.82628153E+02</pdfrwt>
<totfact> 0.19559250E+05</totfact>
</mgrwt>
</event>
<event>
 8    1  0.7667702E-014  0.8070216E+02  0.7818608E-02  0.1327071E+00
         -1   -1    0    0    0  501 -0.00000000000E+00  0.00000000000E+00  0.13642242115E+03  0.13642242124E+03  0.50400000000E-02 0.  1.
          2   -1    0    0  501    0  0.00000000000E+00 -0.00000000000E+00 -0.11935057584E+02  0.11935057857E+02  0.25500000000E-02 0. -1.
         24    2    1    2    0    0 -0.17763568394E-14  0.00000000000E+00  0.12448736356E+03  0.14835747910E+03  0.80702155591E+02 0.  0.
         66    2    3    3    0    0 -0.86761253204E+01  0.39338322106E+02  0.58879261320E+02  0.71369083992E+02  0.19999999147E+01 0.  0.
        -13    1    3    3    0    0  0.86761253204E+01 -0.39338322106E+02  0.65608102244E+02  0.76988395105E+02  0.10566000000E+00 0.  1.
         13    1    4    4    0    0 -0.34762237555E+00  0.32666994185E+01  0.45406556836E+01  0.56054334782E+01  0.10566000000E+00 0. -1.
        -13    1    4    4    0    0 -0.12211046160E+00  0.13840135338E+01  0.18585851678E+01  0.23229092294E+01  0.10566000000E+00 0.  1.
        -14    1    4    4    0    0 -0.82063924832E+01  0.34687609154E+02  0.52480020468E+02  0.63440741285E+02  0.00000000000E+00 0.  1.
<mgrwt>
<rscale>  0 0.80702156E+02</rscale>
<asrwt>0</asrwt>
<pdfrwt beam="1">  1        2 0.18361627E-02 0.80702156E+02</pdfrwt>
<pdfrwt beam="2">  1       -1 0.20988065E-01 0.80702156E+02</pdfrwt>
<totfact> 0.10804391E+05</totfact>
</mgrwt>
</event>
<event>
 8    1  0.7667702E-014  0.7713511E+02  0.7818608E-02  0.1337384E+00
         -1   -1    0    0    0  501 -0.00000000000E+00  0.00000000000E+00  0.51208542759E+02  0.51208543007E+02  0.50400000000E-02 0.  1.
          2   -1    0    0  501    0  0.00000000000E+00 -0.00000000000E+00 -0.29047030830E+02  0.29047030942E+02  0.25500000000E-02 0. -1.
         24    2    1    2    0    0  0.71054273576E-14  0.11102230246E-15  0.22161511928E+02  0.80255573949E+02  0.77135105749E+02 0.  0.
         66    2    3    3    0    0 -0.32308909320E+02 -0.78523364082E+00  0.32936962999E+02  0.46187939409E+02  0.20000004901E+01 0.  0.
        -13    1    3    3    0    0  0.32308909320E+02  0.78523364082E+00 -0.10775451070E+02  0.34067634540E+02  0.10566000000E+00 0.  1.
         13    1    4    4    0    0 -0.14961893410E+02 -0.62403184693E+00  0.14948199868E+02  0.21159100016E+02  0.10566000000E+00 0. -1.
        -13    1    4    4    0    0 -0.56658584978E+01 -0.34826757304E+00  0.50796150625E+01  0.76181950643E+01  0.10566000000E+00 0.  1.
        -14    1    4    4    0    0 -0.11681157412E+02  0.18706577915E+00  0.12909148069E+02  0.17410644329E+02  0.00000000000E+00 0.  1.
<mgrwt>
<rscale>  0 0.77135106E+02</rscale>
<asrwt>0</asrwt>
<pdfrwt beam="1">  1        2 0.44687740E-02 0.77135106E+02</pdfrwt>
<pdfrwt beam="2">  1       -1 0.78782373E-02 0.77135106E+02</pdfrwt>
<totfact> 0.14806555E+05</totfact>
</mgrwt>
</event>
<event>
 8    1  0.7667702E-014  0.8234787E+02  0.7818608E-02  0.1322518E+00
          2   -1    0    0  501    0  0.00000000000E+00  0.00000000000E+00  0.24333798880E+02  0.24333799014E+02  0.25500000000E-02 0. -1.
         -1   -1    0    0    0  501 -0.00000000000E+00 -0.00000000000E+00 -0.69668232549E+02  0.69668232731E+02  0.50400000000E-02 0.  1.
         24    2    1    2    0    0  0.00000000000E+00  0.00000000000E+00 -0.45334433669E+02  0.94002031745E+02  0.82347866373E+02 0.  0.
         66    2    3    3    0    0  0.30968552465E+02  0.26132350983E+02 -0.14501572424E+02  0.43084181179E+02  0.20000138517E+01 0.  0.
        -13    1    3    3    0    0 -0.30968552465E+02 -0.26132350983E+02 -0.30832861244E+02  0.50917850566E+02  0.10566000000E+00 0.  1.
         13    1    4    4    0    0  0.16728653433E+02  0.13827721865E+02 -0.75392464612E+01  0.22976186344E+02  0.10566000000E+00 0. -1.
        -13    1    4    4    0    0  0.70016671449E+01  0.60659422874E+01 -0.41132128257E+01  0.10136502475E+02  0.10566000000E+00 0.  1.
         14    1    4    4    0    0  0.72382318875E+01  0.62386868304E+01 -0.28491131376E+01  0.99714923605E+01  0.00000000000E+00 0. -1.
<mgrwt>
<rscale>  0 0.82347866E+02</rscale>
<asrwt>0</asrwt>
<pdfrwt beam="1">  1        2 0.37436614E-02 0.82347866E+02</pdfrwt>
<pdfrwt beam="2">  1       -1 0.10718190E-01 0.82347866E+02</pdfrwt>
<totfact> 0.11891707E+05</totfact>
</mgrwt>
</event>
<event>
 8    1  0.7667702E-014  0.7806145E+02  0.7818608E-02  0.1334645E+00
          2   -1    0    0  501    0  0.00000000000E+00  0.00000000000E+00  0.92288264111E+01  0.92288267634E+01  0.25500000000E-02 0. -1.
         -1   -1    0    0    0  501 -0.00000000000E+00 -0.00000000000E+00 -0.16506945878E+03  0.16506945886E+03  0.50400000000E-02 0.  1.
         24    2    1    2    0    0  0.00000000000E+00  0.00000000000E+00 -0.15584063237E+03  0.17429828562E+03  0.78061448059E+02 0.  0.
         66    2    3    3    0    0  0.17582128692E+02  0.34816690662E+02 -0.78515003440E+02  0.87692297079E+02  0.20000009301E+01 0.  0.
        -13    1    3    3    0    0 -0.17582128692E+02 -0.34816690662E+02 -0.77325628928E+02  0.86605988541E+02  0.10566000000E+00 0.  1.
         13    1    4    4    0    0  0.51725185534E+01  0.10544533782E+02 -0.21851107845E+02  0.24807745141E+02  0.10566000000E+00 0. -1.
        -13    1    4    4    0    0  0.40300470880E+01  0.83777090264E+01 -0.18752170933E+02  0.20930417263E+02  0.10566000000E+00 0.  1.
         14    1    4    4    0    0  0.83795630503E+01  0.15894447853E+02 -0.37911724662E+02  0.41954134675E+02  0.00000000000E+00 0. -1.
<mgrwt>
<rscale>  0 0.78061448E+02</rscale>
<asrwt>0</asrwt>
<pdfrwt beam="1">  1        2 0.14198196E-02 0.78061448E+02</pdfrwt>
<pdfrwt beam="2">  1       -1 0.25395299E-01 0.78061448E+02</pdfrwt>
<totfact> 0.11194952E+05</totfact>
</mgrwt>
</event>
<event>
 8    1  0.7667702E-014  0.8078765E+02  0.7818608E-02  0.1326831E+00
          2   -1    0    0  501    0  0.00000000000E+00  0.00000000000E+00  0.68242334739E+03  0.68242334740E+03  0.25500000000E-02 0. -1.
         -1   -1    0    0    0  501 -0.00000000000E+00 -0.00000000000E+00 -0.23909783462E+01  0.23909836581E+01  0.50400000000E-02 0.  1.
         24    2    1    2    0    0 -0.35527136788E-14  0.35527136788E-14  0.68003236905E+03  0.68481433106E+03  0.80787654181E+02 0.  0.
         66    2    3    3    0    0 -0.23200442345E+02  0.16003700882E+02  0.58521107373E+03  0.58589280571E+03  0.20000002608E+01 0.  0.
        -13    1    3    3    0    0  0.23200442345E+02 -0.16003700882E+02  0.94821295315E+02  0.98921525343E+02  0.10566000000E+00 0.  1.
         13    1    4    4    0    0 -0.51698807641E+01  0.32004955711E+01  0.13139993946E+03  0.13154058724E+03  0.10566000000E+00 0. -1.
        -13    1    4    4    0    0 -0.12717835217E+02  0.86314274738E+01  0.30207358843E+03  0.30246439272E+03  0.10566000000E+00 0.  1.
        -14    1    4    4    0    0 -0.53127263631E+01  0.41717778372E+01  0.15173754585E+03  0.15188782575E+03  0.00000000000E+00 0.  1.
<mgrwt>
<rscale>  0 0.80787654E+02</rscale>
<asrwt>0</asrwt>
<pdfrwt beam="1">  1        2 0.10498809E+00 0.80787654E+02</pdfrwt>
<pdfrwt beam="2">  1       -1 0.36784366E-03 0.80787654E+02</pdfrwt>
<totfact> 0.32416920E+05</totfact>
</mgrwt>
</event>
<event>
 8    1  0.7667702E-014  0.7933906E+02  0.7818608E-02  0.1330938E+00
          2   -1    0    0  501    0  0.00000000000E+00  0.00000000000E+00  0.34028027094E+02  0.34028027190E+02  0.25500000000E-02 0. -1.
         -1   -1    0    0    0  501 -0.00000000000E+00 -0.00000000000E+00 -0.46246339437E+02  0.46246339711E+02  0.50400000000E-02 0.  1.
         24    2    1    2    0    0  0.00000000000E+00 -0.17763568394E-14 -0.12218312343E+02  0.80274366901E+02  0.79339062415E+02 0.  0.
         66    2    3    3    0    0 -0.26925807796E+02 -0.13950283719E+02  0.19723412603E+02  0.36230133477E+02  0.20000064363E+01 0.  0.
        -13    1    3    3    0    0  0.26925807796E+02  0.13950283719E+02 -0.31941724945E+02  0.44044233423E+02  0.10566000000E+00 0.  1.
         13    1    4    4    0    0 -0.21035799161E+02 -0.11531022851E+02  0.15529632188E+02  0.28577088275E+02  0.10566000000E+00 0. -1.
        -13    1    4    4    0    0 -0.29738695771E+01 -0.14552855122E+01  0.24605241133E+01  0.41263905694E+01  0.10566000000E+00 0.  1.
        -14    1    4    4    0    0 -0.29161390585E+01 -0.96397535583E+00  0.17332563018E+01  0.35266546334E+01  0.00000000000E+00 0.  1.
<mgrwt>
<rscale>  0 0.79339062E+02</rscale>
<asrwt>0</asrwt>
<pdfrwt beam="1">  1        2 0.52350811E-02 0.79339062E+02</pdfrwt>
<pdfrwt beam="2">  1       -1 0.71148215E-02 0.79339062E+02</pdfrwt>
<totfact> 0.14118230E+05</totfact>
</mgrwt>
</event>
<event>
 8    1  0.7667702E-014  0.7934152E+02  0.7818608E-02  0.1330931E+00
         -1   -1    0    0    0  501 -0.00000000000E+00  0.00000000000E+00  0.17364399648E+03  0.17364399656E+03  0.50400000000E-02 0.  1.
          2   -1    0    0  501    0  0.00000000000E+00 -0.00000000000E+00 -0.90631945108E+01  0.90631948695E+01  0.25500000000E-02 0. -1.
         24    2    1    2    0    0  0.00000000000E+00 -0.35527136788E-14  0.16458080197E+03  0.18270719143E+03  0.79341523938E+02 0.  0.
         66    2    3    3    0    0 -0.17840257045E+02 -0.27962201896E+02  0.32333994377E+02  0.46364282591E+02  0.20000003738E+01 0.  0.
        -13    1    3    3    0    0  0.17840257045E+02  0.27962201896E+02  0.13224680760E+03  0.13634290884E+03  0.10566000000E+00 0.  1.
         13    1    4    4    0    0 -0.54339949853E+01 -0.90557080500E+01  0.10207152880E+02  0.14687793699E+02  0.10566000000E+00 0. -1.
        -13    1    4    4    0    0 -0.88065123711E+01 -0.14572742683E+02  0.16939970796E+02  0.24018602458E+02  0.10566000000E+00 0.  1.
         14    1    4    4    0    0 -0.35997496890E+01 -0.43337511631E+01  0.51868707008E+01  0.76578864338E+01  0.00000000000E+00 0. -1.
<mgrwt>
<rscale>  0 0.79341524E+02</rscale>
<asrwt>0</asrwt>
<pdfrwt beam="1">  1        2 0.13943377E-02 0.79341524E+02</pdfrwt>
<pdfrwt beam="2">  1       -1 0.26714459E-01 0.79341524E+02</pdfrwt>
<totfact> 0.10596146E+05</totfact>
</mgrwt>
</event>
<event>
 8    1  0.7667702E-014  0.7910584E+02  0.7818608E-02  0.1331608E+00
         -1   -1    0    0    0  501 -0.00000000000E+00  0.00000000000E+00  0.40527046708E+02  0.40527047021E+02  0.50400000000E-02 0.  1.
          2   -1    0    0  501    0  0.00000000000E+00 -0.00000000000E+00 -0.38602209200E+02  0.38602209284E+02  0.25500000000E-02 0. -1.
         24    2    1    2    0    0  0.35527136788E-14 -0.71054273576E-14  0.19248375080E+01  0.79129256305E+02  0.79105841781E+02 0.  0.
         66    2    3    3    0    0  0.23087314847E+02 -0.32083073602E+02  0.12475205357E+01  0.39596767882E+02  0.20000001469E+01 0.  0.
        -13    1    3    3    0    0 -0.23087314847E+02  0.32083073602E+02  0.67731697226E+00  0.39532488423E+02  0.10566000000E+00 0.  1.
         13    1    4    4    0    0  0.96832713683E+01 -0.12622415765E+02  0.38766054240E+00  0.15913911174E+02  0.10566000000E+00 0. -1.
        -13    1    4    4    0    0  0.66337965291E+01 -0.10297427337E+02  0.98383654706E+00  0.12289156380E+02  0.10566000000E+00 0.  1.
        -14    1    4    4    0    0  0.67702469498E+01 -0.91632305002E+01 -0.12397655374E+00  0.11393700327E+02  0.00000000000E+00 0.  1.
<mgrwt>
<rscale>  0 0.79105842E+02</rscale>
<asrwt>0</asrwt>
<pdfrwt beam="1">  1        2 0.59388014E-02 0.79105842E+02</pdfrwt>
<pdfrwt beam="2">  1       -1 0.62349303E-02 0.79105842E+02</pdfrwt>
<totfact> 0.14598732E+05</totfact>
</mgrwt>
</event>
<event>
 8    1  0.7667702E-014  0.7784515E+02  0.7818608E-02  0.1335280E+00
         -1   -1    0    0    0  501 -0.00000000000E+00  0.00000000000E+00  0.44933811038E+01  0.44933839303E+01  0.50400000000E-02 0.  1.
          2   -1    0    0  501    0  0.00000000000E+00 -0.00000000000E+00 -0.33715507950E+03  0.33715507951E+03  0.25500000000E-02 0. -1.
         24    2    1    2    0    0  0.00000000000E+00 -0.35527136788E-14 -0.33266169840E+03  0.34164846344E+03  0.77845147512E+02 0.  0.
         66    2    3    3    0    0 -0.89589335462E+01 -0.25413379867E+02 -0.28955123581E+03  0.29080925107E+03  0.19999947483E+01 0.  0.
        -13    1    3    3    0    0  0.89589335462E+01  0.25413379867E+02 -0.43110462587E+02  0.50839212376E+02  0.10566000000E+00 0.  1.
         13    1    4    4    0    0 -0.56685844186E+01 -0.16896114314E+02 -0.19461687784E+03  0.19543119462E+03  0.10566000000E+00 0. -1.
        -13    1    4    4    0    0 -0.22348423989E+01 -0.45857315547E+01 -0.55584518876E+02  0.55818217072E+02  0.10566000000E+00 0.  1.
        -14    1    4    4    0    0 -0.10555067287E+01 -0.39315339986E+01 -0.39349839097E+02  0.39559839371E+02  0.00000000000E+00 0.  1.
<mgrwt>
<rscale>  0 0.77845148E+02</rscale>
<asrwt>0</asrwt>
<pdfrwt beam="1">  1        2 0.51869992E-01 0.77845148E+02</pdfrwt>
<pdfrwt beam="2">  1       -1 0.69128989E-03 0.77845148E+02</pdfrwt>
<totfact> 0.28558758E+05</totfact>
</mgrwt>
</event>
<event>
 8    1  0.7667702E-014  0.7927451E+02  0.7818608E-02  0.1331123E+00
         -1   -1    0    0    0  501 -0.00000000000E+00  0.00000000000E+00  0.73971558390E+01  0.73971575560E+01  0.50400000000E-02 0.  1.
          2   -1    0    0  501    0  0.00000000000E+00 -0.00000000000E+00 -0.21239406027E+03  0.21239406029E+03  0.25500000000E-02 0. -1.
         24    2    1    2    0    0  0.88817841970E-15 -0.35527136788E-14 -0.20499690443E+03  0.21979121784E+03  0.79274514278E+02 0.  0.
         66    2    3    3    0    0 -0.79086219558E+01 -0.24964529074E+02 -0.18496575010E+03  0.18682104464E+03  0.19999993749E+01 0.  0.
        -13    1    3    3    0    0  0.79086219558E+01  0.24964529074E+02 -0.20031154335E+02  0.32970173205E+02  0.10566000000E+00 0.  1.
         13    1    4    4    0    0 -0.13132132524E+01 -0.49114721584E+01 -0.31560117551E+02  0.31967159268E+02  0.10566000000E+00 0. -1.
        -13    1    4    4    0    0 -0.42433454505E+00 -0.81145979582E+00 -0.65189709377E+01  0.65838190231E+01  0.10566000000E+00 0.  1.
         14    1    4    4    0    0 -0.61710741583E+01 -0.19241597120E+02 -0.14688666161E+03  0.14827006635E+03  0.00000000000E+00 0. -1.
<mgrwt>
<rscale>  0 0.79274514E+02</rscale>
<asrwt>0</asrwt>
<pdfrwt beam="1">  1        2 0.32676005E-01 0.79274514E+02</pdfrwt>
<pdfrwt beam="2">  1       -1 0.11380243E-02 0.79274514E+02</pdfrwt>
<totfact> 0.23073770E+05</totfact>
</mgrwt>
</event>
<event>
 8    1  0.7667702E-014  0.7985759E+02  0.7818608E-02  0.1329456E+00
         -1   -1    0    0    0  501 -0.00000000000E+00  0.00000000000E+00  0.93997632630E+01  0.93997646142E+01  0.50400000000E-02 0.  1.
          2   -1    0    0  501    0  0.00000000000E+00 -0.00000000000E+00 -0.16961155238E+03  0.16961155240E+03  0.25500000000E-02 0. -1.
         24    2    1    2    0    0  0.00000000000E+00  0.00000000000E+00 -0.16021178912E+03  0.17901131702E+03  0.79857587285E+02 0.  0.
         66    2    3    3    0    0 -0.31171387647E+02  0.20018886274E+02 -0.11339664151E+03  0.11931139721E+03  0.19999955078E+01 0.  0.
        -13    1    3    3    0    0  0.31171387647E+02 -0.20018886274E+02 -0.46815147607E+02  0.59699919807E+02  0.10566000000E+00 0.  1.
         13    1    4    4    0    0 -0.11636579949E+02  0.84998676417E+01 -0.44130114174E+02  0.46423441104E+02  0.10566000000E+00 0. -1.
        -13    1    4    4    0    0 -0.57556715110E+01  0.33577523745E+01 -0.21363114857E+02  0.22378473942E+02  0.10566000000E+00 0.  1.
         14    1    4    4    0    0 -0.13779136188E+02  0.81612662578E+01 -0.47903412483E+02  0.50509482165E+02  0.00000000000E+00 0. -1.
<mgrwt>
<rscale>  0 0.79857587E+02</rscale>
<asrwt>0</asrwt>
<pdfrwt beam="1">  1        2 0.26094083E-01 0.79857587E+02</pdfrwt>
<pdfrwt beam="2">  1       -1 0.14461177E-02 0.79857587E+02</pdfrwt>
<totfact> 0.20951988E+05</totfact>
</mgrwt>
</event>
<event>
 8    1  0.7667702E-014  0.8156521E+02  0.7818608E-02  0.1324667E+00
         -1   -1    0    0    0  501 -0.00000000000E+00  0.00000000000E+00  0.18373290206E+02  0.18373290897E+02  0.50400000000E-02 0.  1.
          2   -1    0    0  501    0  0.00000000000E+00 -0.00000000000E+00 -0.90523849583E+02  0.90523849619E+02  0.25500000000E-02 0. -1.
         24    2    1    2    0    0 -0.35527136788E-14  0.00000000000E+00 -0.72150559377E+02  0.10889714052E+03  0.81565213138E+02 0.  0.
         66    2    3    3    0    0  0.21584673752E+02  0.95611526902E+00 -0.82237916671E+02  0.85052261850E+02  0.20000025029E+01 0.  0.
        -13    1    3    3    0    0 -0.21584673752E+02 -0.95611526902E+00  0.10087357295E+02  0.23844878666E+02  0.10566000000E+00 0.  1.
         13    1    4    4    0    0  0.17053382413E+02  0.10597124797E+01 -0.65879474853E+02  0.68059218429E+02  0.10566000000E+00 0. -1.
        -13    1    4    4    0    0  0.27330616047E+01  0.14668722667E+00 -0.10977948742E+02  0.11314489184E+02  0.10566000000E+00 0.  1.
        -14    1    4    4    0    0  0.17982297345E+01 -0.25028443732E+00 -0.53804930756E+01  0.56785542362E+01  0.00000000000E+00 0.  1.
<mgrwt>
<rscale>  0 0.81565213E+02</rscale>
<asrwt>0</asrwt>
<pdfrwt beam="1">  1        2 0.13926746E-01 0.81565213E+02</pdfrwt>
<pdfrwt beam="2">  1       -1 0.28266601E-02 0.81565213E+02</pdfrwt>
<totfact> 0.16371964E+05</totfact>
</mgrwt>
</event>
<event>
 8    1  0.8356998E-014  0.7416543E+02  0.7818608E-02  0.1346475E+00
          2   -1    0    0  501    0  0.00000000000E+00  0.00000000000E+00  0.93175986826E+03  0.93175986826E+03  0.25500000000E-02 0. -1.
         -1   -1    0    0    0  501 -0.00000000000E+00 -0.00000000000E+00 -0.14758347566E+01  0.14758433625E+01  0.50400000000E-02 0.  1.
         24    2    1    2    0    0  0.00000000000E+00  0.00000000000E+00  0.93028403350E+03  0.93323571162E+03  0.74165426330E+02 0.  0.
         66    2    3    3    0    0  0.26151542559E+02 -0.95292309634E+01  0.77329482589E+03  0.77379816306E+03  0.19999972211E+01 0.  0.
        -13    1    3    3    0    0 -0.26151542559E+02  0.95292309634E+01  0.15698920761E+03  0.15943754856E+03  0.10566000000E+00 0.  1.
         13    1    4    4    0    0  0.16490390007E+02 -0.54124003393E+01  0.48521383341E+03  0.48552415216E+03  0.10566000000E+00 0. -1.
        -13    1    4    4    0    0  0.61586245006E+01 -0.21374496110E+01  0.17408699516E+03  0.17420904223E+03  0.10566000000E+00 0.  1.
        -14    1    4    4    0    0  0.35025280516E+01 -0.19793810131E+01  0.11399399732E+03  0.11406496866E+03  0.00000000000E+00 0.  1.
<mgrwt>
<rscale>  0 0.74165426E+02</rscale>
<asrwt>0</asrwt>
<pdfrwt beam="1">  1        2 0.14334768E+00 0.74165426E+02</pdfrwt>
<pdfrwt beam="2">  1       -1 0.22705216E-03 0.74165426E+02</pdfrwt>
<totfact> 0.42654679E+05</totfact>
</mgrwt>
</event>
<event>
 8    1  0.7667702E-014  0.7187781E+02  0.7818608E-02  0.1353821E+00
          2   -1    0    0  501    0  0.00000000000E+00  0.00000000000E+00  0.35699603556E+02  0.35699603647E+02  0.25500000000E-02 0. -1.
         -1   -1    0    0    0  501 -0.00000000000E+00 -0.00000000000E+00 -0.36179808409E+02  0.36179808760E+02  0.50400000000E-02 0.  1.
         24    2    1    2    0    0  0.00000000000E+00  0.00000000000E+00 -0.48020485380E+00  0.71879412407E+02  0.71877808337E+02 0.  0.
         66    2    3    3    0    0 -0.11932728122E+02  0.29162087865E+02  0.16987479062E+02  0.35852359870E+02  0.19999735719E+01 0.  0.
        -13    1    3    3    0    0  0.11932728122E+02 -0.29162087865E+02 -0.17467683916E+02  0.36027052537E+02  0.10566000000E+00 0.  1.
         13    1    4    4    0    0 -0.68630318201E+01  0.14749804067E+02  0.93743668736E+01  0.18776257457E+02  0.10566000000E+00 0. -1.
        -13    1    4    4    0    0 -0.12495441661E+01  0.35209195235E+01  0.16646159251E+01  0.40914966855E+01  0.10566000000E+00 0.  1.
         14    1    4    4    0    0 -0.38201521354E+01  0.10891364275E+02  0.59484962634E+01  0.12984605728E+02  0.00000000000E+00 0. -1.
<mgrwt>
<rscale>  0 0.71877808E+02</rscale>
<asrwt>0</asrwt>
<pdfrwt beam="1">  1        2 0.54922467E-02 0.71877808E+02</pdfrwt>
<pdfrwt beam="2">  1       -1 0.55661244E-02 0.71877808E+02</pdfrwt>
<totfact> 0.18703248E+05</totfact>
</mgrwt>
</event>
<event>
 8    1  0.7667702E-014  0.8372147E+02  0.7818608E-02  0.1318810E+00
          2   -1    0    0  501    0  0.00000000000E+00  0.00000000000E+00  0.21090548995E+02  0.21090549149E+02  0.25500000000E-02 0. -1.
         -1   -1    0    0    0  501 -0.00000000000E+00 -0.00000000000E+00 -0.83085606123E+02  0.83085606276E+02  0.50400000000E-02 0.  1.
         24    2    1    2    0    0  0.00000000000E+00  0.00000000000E+00 -0.61995057128E+02  0.10417615542E+03  0.83721468278E+02 0.  0.
         66    2    3    3    0    0  0.23771878334E+02  0.23589456356E+01  0.11722215043E+02  0.26684773939E+02  0.20000026620E+01 0.  0.
        -13    1    3    3    0    0 -0.23771878334E+02 -0.23589456356E+01 -0.73717272172E+02  0.77491381485E+02  0.10566000000E+00 0.  1.
         13    1    4    4    0    0  0.20698449242E+01  0.25799857316E+00  0.71200271691E+00  0.22065659243E+01  0.10566000000E+00 0. -1.
        -13    1    4    4    0    0  0.76331081159E+01 -0.22879820924E-01  0.38687860421E+01  0.85582435389E+01  0.10566000000E+00 0.  1.
         14    1    4    4    0    0  0.14068925294E+02  0.21238268834E+01  0.71414262841E+01  0.15919964476E+02  0.00000000000E+00 0. -1.
<mgrwt>
<rscale>  0 0.83721468E+02</rscale>
<asrwt>0</asrwt>
<pdfrwt beam="1">  1        2 0.32446999E-02 0.83721468E+02</pdfrwt>
<pdfrwt beam="2">  1       -1 0.12782401E-01 0.83721468E+02</pdfrwt>
<totfact> 0.11011399E+05</totfact>
</mgrwt>
</event>
<event>
 8    1  0.7667702E-014  0.8051152E+02  0.7818608E-02  0.1327606E+00
         -1   -1    0    0    0  501 -0.00000000000E+00  0.00000000000E+00  0.23886142315E+02  0.23886142847E+02  0.50400000000E-02 0.  1.
          2   -1    0    0  501    0  0.00000000000E+00 -0.00000000000E+00 -0.67843773234E+02  0.67843773282E+02  0.25500000000E-02 0. -1.
         24    2    1    2    0    0  0.00000000000E+00  0.69388939039E-17 -0.43957630919E+02  0.91729916129E+02  0.80511515928E+02 0.  0.
         66    2    3    3    0    0  0.36926201587E+02 -0.44463302910E-01 -0.40185225203E+02  0.54611341944E+02  0.20000009043E+01 0.  0.
        -13    1    3    3    0    0 -0.36926201587E+02  0.44463302910E-01 -0.37724057156E+01  0.37118574185E+02  0.10566000000E+00 0.  1.
         13    1    4    4    0    0  0.13577769359E+02  0.61948353803E+00 -0.15036025317E+02  0.20269010878E+02  0.10566000000E+00 0.  1.
        -13    1    4    4    0    0  0.12479848910E+02 -0.81095512746E+00 -0.13954998283E+02  0.18739194704E+02  0.10566000000E+00 0. -1.
         14    1    4    4    0    0  0.10868583318E+02  0.14700828652E+00 -0.11194201604E+02  0.15603136362E+02  0.00000000000E+00 0. -1.
<mgrwt>
<rscale>  0 0.80511516E+02</rscale>
<asrwt>0</asrwt>
<pdfrwt beam="1">  1        2 0.10437504E-01 0.80511516E+02</pdfrwt>
<pdfrwt beam="2">  1       -1 0.36747912E-02 0.80511516E+02</pdfrwt>
<totfact> 0.15749840E+05</totfact>
</mgrwt>
</event>
<event>
 8    1  0.7667702E-014  0.7960584E+02  0.7818608E-02  0.1330174E+00
          2   -1    0    0  501    0  0.00000000000E+00  0.00000000000E+00  0.52356177117E+03  0.52356177118E+03  0.25500000000E-02 0. -1.
         -1   -1    0    0    0  501 -0.00000000000E+00 -0.00000000000E+00 -0.30259491909E+01  0.30259533882E+01  0.50400000000E-02 0.  1.
         24    2    1    2    0    0  0.00000000000E+00  0.71054273576E-14  0.52053582198E+03  0.52658772457E+03  0.79605839601E+02 0.  0.
         66    2    3    3    0    0 -0.14926120487E+02  0.33843308802E+02  0.35722454718E+03  0.35913999462E+03  0.20000008754E+01 0.  0.
        -13    1    3    3    0    0  0.14926120487E+02 -0.33843308802E+02  0.16331127481E+03  0.16744772995E+03  0.10566000000E+00 0.  1.
         13    1    4    4    0    0 -0.83466952224E+00  0.21779869194E+01  0.21370714217E+02  0.21497881068E+02  0.10566000000E+00 0. -1.
        -13    1    4    4    0    0 -0.61641207828E+01  0.14683509767E+02  0.14641966257E+03  0.14728316467E+03  0.10566000000E+00 0.  1.
        -14    1    4    4    0    0 -0.79273301819E+01  0.16981812116E+02  0.18943417039E+03  0.19035894888E+03  0.00000000000E+00 0.  1.
<mgrwt>
<rscale>  0 0.79605840E+02</rscale>
<asrwt>0</asrwt>
<pdfrwt beam="1">  1        2 0.80547966E-01 0.79605840E+02</pdfrwt>
<pdfrwt beam="2">  1       -1 0.46553096E-03 0.79605840E+02</pdfrwt>
<totfact> 0.31295264E+05</totfact>
</mgrwt>
</event>
<event>
 8    1  0.7667702E-014  0.7936503E+02  0.7818608E-02  0.1330863E+00
          2   -1    0    0  501    0  0.00000000000E+00  0.00000000000E+00  0.29762584230E+03  0.29762584231E+03  0.25500000000E-02 0. -1.
         -1   -1    0    0    0  501 -0.00000000000E+00 -0.00000000000E+00 -0.52908766240E+01  0.52908790245E+01  0.50400000000E-02 0.  1.
         24    2    1    2    0    0  0.17763568394E-14  0.17763568394E-14  0.29233496567E+03  0.30291672133E+03  0.79365029501E+02 0.  0.
         66    2    3    3    0    0  0.98165958445E+01  0.11466061848E+02  0.28622933261E+03  0.28663402968E+03  0.19999990780E+01 0.  0.
        -13    1    3    3    0    0 -0.98165958445E+01 -0.11466061848E+02  0.61056330623E+01  0.16282691651E+02  0.10566000000E+00 0.  1.
         13    1    4    4    0    0  0.56615412251E+01  0.54901308942E+01  0.14981844601E+03  0.15002590615E+03  0.10566000000E+00 0.  1.
        -13    1    4    4    0    0  0.11561623634E+01  0.22920667508E+01  0.52641224358E+02  0.52703889300E+02  0.10566000000E+00 0. -1.
        -14    1    4    4    0    0  0.29988922560E+01  0.36838642029E+01  0.83769662238E+02  0.83904234230E+02  0.00000000000E+00 0.  1.
<mgrwt>
<rscale>  0 0.79365030E+02</rscale>
<asrwt>0</asrwt>
<pdfrwt beam="1">  1        2 0.45788601E-01 0.79365030E+02</pdfrwt>
<pdfrwt beam="2">  1       -1 0.81398102E-03 0.79365030E+02</pdfrwt>
<totfact> 0.25957795E+05</totfact>
</mgrwt>
</event>
<event>
 8    1  0.7667702E-014  0.7829772E+02  0.7818608E-02  0.1333953E+00
          2   -1    0    0  501    0  0.00000000000E+00  0.00000000000E+00  0.31901036709E+02  0.31901036811E+02  0.25500000000E-02 0. -1.
         -1   -1    0    0    0  501 -0.00000000000E+00 -0.00000000000E+00 -0.48043370569E+02  0.48043370834E+02  0.50400000000E-02 0.  1.
         24    2    1    2    0    0 -0.17763568394E-14  0.88817841970E-15 -0.16142333861E+02  0.79944407644E+02  0.78297722643E+02 0.  0.
         66    2    3    3    0    0 -0.13477466904E+02  0.67151239324E+01  0.28792466490E+02  0.32553665404E+02  0.20000002663E+01 0.  0.
        -13    1    3    3    0    0  0.13477466904E+02 -0.67151239324E+01 -0.44934800350E+02  0.47390742241E+02  0.10566000000E+00 0.  1.
         13    1    4    4    0    0 -0.15163558332E+01  0.13304882638E+01  0.39449936006E+01  0.44321182946E+01  0.10566000000E+00 0. -1.
        -13    1    4    4    0    0 -0.44879679907E+01  0.19406983312E+01  0.10468692874E+02  0.11554776554E+02  0.10566000000E+00 0.  1.
         14    1    4    4    0    0 -0.74731430803E+01  0.34439373374E+01  0.14378780015E+02  0.16566770555E+02  0.00000000000E+00 0. -1.
<mgrwt>
<rscale>  0 0.78297723E+02</rscale>
<asrwt>0</asrwt>
<pdfrwt beam="1">  1        2 0.49078518E-02 0.78297723E+02</pdfrwt>
<pdfrwt beam="2">  1       -1 0.73912879E-02 0.78297723E+02</pdfrwt>
<totfact> 0.14461822E+05</totfact>
</mgrwt>
</event>
<event>
 8    1  0.7667702E-014  0.8038111E+02  0.7818608E-02  0.1327973E+00
         -1   -1    0    0    0  501 -0.00000000000E+00  0.00000000000E+00  0.24346660662E+01  0.24346712829E+01  0.50400000000E-02 0.  1.
          2   -1    0    0  501    0  0.00000000000E+00 -0.00000000000E+00 -0.66344994305E+03  0.66344994305E+03  0.25500000000E-02 0. -1.
         24    2    1    2    0    0 -0.88817841970E-15  0.35527136788E-14 -0.66101527698E+03  0.66588461434E+03  0.80381112245E+02 0.  0.
         66    2    3    3    0    0 -0.66714786506E+01  0.20666363628E+02 -0.61061948103E+03  0.61100880339E+03  0.19999992359E+01 0.  0.
        -13    1    3    3    0    0  0.66714786506E+01 -0.20666363628E+02 -0.50395795951E+02  0.54875810942E+02  0.10566000000E+00 0.  1.
         13    1    4    4    0    0 -0.12081211604E+01  0.44934846136E+01 -0.11885841781E+03  0.11894950865E+03  0.10566000000E+00 0. -1.
        -13    1    4    4    0    0 -0.14205789334E+01  0.56908606296E+01 -0.15558538754E+03  0.15569594702E+03  0.10566000000E+00 0. -1.
         14    1    4    4    0    0 -0.40427785568E+01  0.10482018385E+02 -0.33617567568E+03  0.33636334772E+03  0.00000000000E+00 0. -1.
<mgrwt>
<rscale>  0 0.80381112E+02</rscale>
<asrwt>0</asrwt>
<pdfrwt beam="1">  1        2 0.10206908E+00 0.80381112E+02</pdfrwt>
<pdfrwt beam="2">  1       -1 0.37456494E-03 0.80381112E+02</pdfrwt>
<totfact> 0.32620968E+05</totfact>
</mgrwt>
</event>
<event>
 8    1  0.7667702E-014  0.8027115E+02  0.7818608E-02  0.1328284E+00
         -1   -1    0    0    0  501 -0.00000000000E+00  0.00000000000E+00  0.16386635845E+02  0.16386636620E+02  0.50400000000E-02 0.  1.
          2   -1    0    0  501    0  0.00000000000E+00 -0.00000000000E+00 -0.98303543905E+02  0.98303543938E+02  0.25500000000E-02 0. -1.
         24    2    1    2    0    0  0.00000000000E+00  0.00000000000E+00 -0.81916908060E+02  0.11469018056E+03  0.80271151047E+02 0.  0.
         66    2    3    3    0    0  0.16116954790E+02  0.25699695980E+01 -0.93334648618E+02  0.94771924135E+02  0.19999990329E+01 0.  0.
        -13    1    3    3    0    0 -0.16116954790E+02 -0.25699695980E+01  0.11417740558E+02  0.19918256423E+02  0.10566000000E+00 0.  1.
         13    1    4    4    0    0  0.10538299806E+02  0.94249004958E+00 -0.56701143501E+02  0.57679934888E+02  0.10566000000E+00 0. -1.
        -13    1    4    4    0    0  0.32840583563E+01  0.90674033076E+00 -0.21310664846E+02  0.21581538812E+02  0.10566000000E+00 0.  1.
         14    1    4    4    0    0  0.22945966280E+01  0.72073921767E+00 -0.15322840272E+02  0.15510450435E+02  0.00000000000E+00 0. -1.
<mgrwt>
<rscale>  0 0.80271151E+02</rscale>
<asrwt>0</asrwt>
<pdfrwt beam="1">  1        2 0.15123622E-01 0.80271151E+02</pdfrwt>
<pdfrwt beam="2">  1       -1 0.25210210E-02 0.80271151E+02</pdfrwt>
<totfact> 0.17482146E+05</totfact>
</mgrwt>
</event>
<event>
 8    1  0.8765012E-014  0.8275129E+02  0.7818608E-02  0.1321420E+00
         -1   -1    0    0    0  501 -0.00000000000E+00  0.00000000000E+00  0.12432188814E+02  0.12432189835E+02  0.50400000000E-02 0.  1.
          2   -1    0    0  501    0  0.00000000000E+00 -0.00000000000E+00 -0.13770254672E+03  0.13770254674E+03  0.25500000000E-02 0. -1.
         24    2    1    2    0    0  0.00000000000E+00  0.00000000000E+00 -0.12527035790E+03  0.15013473658E+03  0.82751293389E+02 0.  0.
         66    2    3    3    0    0 -0.60701010370E+01  0.31114665157E+02 -0.11084335657E+03  0.11530489239E+03  0.19999998859E+01 0.  0.
        -13    1    3    3    0    0  0.60701010370E+01 -0.31114665157E+02 -0.14427001336E+02  0.34829844186E+02  0.10566000000E+00 0.  1.
         13    1    4    4    0    0 -0.19473268356E+01  0.10587086425E+02 -0.37276214831E+02  0.38799559752E+02  0.10566000000E+00 0. -1.
        -13    1    4    4    0    0 -0.39212929164E+01  0.18121460551E+02 -0.63409891461E+02  0.66065038937E+02  0.10566000000E+00 0.  1.
        -14    1    4    4    0    0 -0.20148128498E+00  0.24061181817E+01 -0.10157250276E+02  0.10440293702E+02  0.00000000000E+00 0.  1.
<mgrwt>
<rscale>  0 0.82751293E+02</rscale>
<asrwt>0</asrwt>
<pdfrwt beam="1">  1        2 0.21185006E-01 0.82751293E+02</pdfrwt>
<pdfrwt beam="2">  1       -1 0.19126446E-02 0.82751293E+02</pdfrwt>
<totfact> 0.17813759E+05</totfact>
</mgrwt>
</event>
<event>
 8    1  0.7667702E-014  0.7992481E+02  0.7818608E-02  0.1329265E+00
         -1   -1    0    0    0  501 -0.00000000000E+00  0.00000000000E+00  0.12696598247E+01  0.12696698280E+01  0.50400000000E-02 0.  1.
          2   -1    0    0  501    0  0.00000000000E+00 -0.00000000000E+00 -0.12578073057E+04  0.12578073057E+04  0.25500000000E-02 0. -1.
         24    2    1    2    0    0 -0.17763568394E-14  0.00000000000E+00 -0.12565376459E+04  0.12590769756E+04  0.79924807222E+02 0.  0.
         66    2    3    3    0    0 -0.11973816104E+02  0.12406040581E+02 -0.11961520901E+04  0.11962780215E+04  0.20000004165E+01 0.  0.
        -13    1    3    3    0    0  0.11973816104E+02 -0.12406040581E+02 -0.60385555831E+02  0.62798954068E+02  0.10566000000E+00 0.  1.
         13    1    4    4    0    0 -0.46365412549E+01  0.49851909471E+01 -0.51490072548E+03  0.51494574268E+03  0.10566000000E+00 0. -1.
        -13    1    4    4    0    0 -0.26539024665E+01  0.34378609228E+01 -0.29505383589E+03  0.29508581688E+03  0.10566000000E+00 0.  1.
         14    1    4    4    0    0 -0.46833723829E+01  0.39829887113E+01 -0.38619752872E+03  0.38624646195E+03  0.00000000000E+00 0. -1.
<mgrwt>
<rscale>  0 0.79924807E+02</rscale>
<asrwt>0</asrwt>
<pdfrwt beam="1">  1        2 0.19350782E+00 0.79924807E+02</pdfrwt>
<pdfrwt beam="2">  1       -1 0.19533406E-03 0.79924807E+02</pdfrwt>
<totfact> 0.34903342E+05</totfact>
</mgrwt>
</event>
<event>
 8    1  0.7667702E-014  0.7968018E+02  0.7818608E-02  0.1329961E+00
         -1   -1    0    0    0  501 -0.00000000000E+00  0.00000000000E+00  0.41265132531E+02  0.41265132838E+02  0.50400000000E-02 0.  1.
          2   -1    0    0  501    0  0.00000000000E+00 -0.00000000000E+00 -0.38464262615E+02  0.38464262699E+02  0.25500000000E-02 0. -1.
         24    2    1    2    0    0  0.35527136788E-14  0.00000000000E+00  0.28008699160E+01  0.79729395538E+02  0.79680183487E+02 0.  0.
         66    2    3    3    0    0 -0.17083755875E+02 -0.21484160605E+02 -0.27457511894E+02  0.38875941516E+02  0.19999994286E+01 0.  0.
        -13    1    3    3    0    0  0.17083755875E+02  0.21484160605E+02  0.30258381810E+02  0.40853454021E+02  0.10566000000E+00 0.  1.
         13    1    4    4    0    0 -0.88147293968E+01 -0.11218661847E+02 -0.15319503248E+02  0.20934568822E+02  0.10566000000E+00 0. -1.
        -13    1    4    4    0    0 -0.36012376791E+00 -0.33478014754E+00 -0.63333957159E+00  0.80873353086E+00  0.10566000000E+00 0. -1.
         14    1    4    4    0    0 -0.79089027104E+01 -0.99307186097E+01 -0.11504669074E+02  0.17132639163E+02  0.00000000000E+00 0. -1.
<mgrwt>
<rscale>  0 0.79680183E+02</rscale>
<asrwt>0</asrwt>
<pdfrwt beam="1">  1        2 0.59175789E-02 0.79680183E+02</pdfrwt>
<pdfrwt beam="2">  1       -1 0.63484819E-02 0.79680183E+02</pdfrwt>
<totfact> 0.14299120E+05</totfact>
</mgrwt>
</event>
<event>
 8    1  0.7667702E-014  0.7501108E+02  0.7818608E-02  0.1343837E+00
         -1   -1    0    0    0  501 -0.00000000000E+00  0.00000000000E+00  0.17145533036E+02  0.17145533776E+02  0.50400000000E-02 0.  1.
          2   -1    0    0  501    0  0.00000000000E+00 -0.00000000000E+00 -0.82042671612E+02  0.82042671652E+02  0.25500000000E-02 0. -1.
         24    2    1    2    0    0  0.71054273576E-14  0.00000000000E+00 -0.64897138577E+02  0.99188205428E+02  0.75011075853E+02 0.  0.
         66    2    3    3    0    0  0.25647005262E+02  0.18458972628E+01 -0.68526990562E+02  0.73219701330E+02  0.20000029619E+01 0.  0.
        -13    1    3    3    0    0 -0.25647005262E+02 -0.18458972628E+01  0.36298519849E+01  0.25968504098E+02  0.10566000000E+00 0.  1.
         13    1    4    4    0    0  0.21320824153E+01  0.43080461141E+00 -0.50212679082E+01  0.54731767265E+01  0.10566000000E+00 0. -1.
        -13    1    4    4    0    0  0.11305600307E+02  0.13208537760E+00 -0.29499628617E+02  0.31592298071E+02  0.10566000000E+00 0.  1.
         14    1    4    4    0    0  0.12209322540E+02  0.12830072738E+01 -0.34006094037E+02  0.36154226533E+02  0.00000000000E+00 0. -1.
<mgrwt>
<rscale>  0 0.75011076E+02</rscale>
<asrwt>0</asrwt>
<pdfrwt beam="1">  1        2 0.12621949E-01 0.75011076E+02</pdfrwt>
<pdfrwt beam="2">  1       -1 0.26377744E-02 0.75011076E+02</pdfrwt>
<totfact> 0.19972848E+05</totfact>
</mgrwt>
</event>
<event>
 8    1  0.7667702E-014  0.7953122E+02  0.7818608E-02  0.1330387E+00
         -1   -1    0    0    0  501 -0.00000000000E+00  0.00000000000E+00  0.38088364420E+01  0.38088397765E+01  0.50400000000E-02 0.  1.
          2   -1    0    0  501    0  0.00000000000E+00 -0.00000000000E+00 -0.41516692726E+03  0.41516692727E+03  0.25500000000E-02 0. -1.
         24    2    1    2    0    0  0.00000000000E+00  0.00000000000E+00 -0.41135809082E+03  0.41897576705E+03  0.79531217072E+02 0.  0.
         66    2    3    3    0    0 -0.26719330673E+02 -0.23971549820E+02 -0.29563521334E+03  0.29781325895E+03  0.20000016121E+01 0.  0.
        -13    1    3    3    0    0  0.26719330673E+02  0.23971549820E+02 -0.11572287748E+03  0.12116250810E+03  0.10566000000E+00 0.  1.
         13    1    4    4    0    0 -0.16168793495E+02 -0.13432736426E+02 -0.17620871921E+03  0.17745814205E+03  0.10566000000E+00 0. -1.
        -13    1    4    4    0    0 -0.50689472749E+01 -0.53836383785E+01 -0.58221066580E+02  0.58688853681E+02  0.10566000000E+00 0.  1.
         14    1    4    4    0    0 -0.54815899031E+01 -0.51551750153E+01 -0.61205427552E+02  0.61666263217E+02  0.00000000000E+00 0. -1.
<mgrwt>
<rscale>  0 0.79531217E+02</rscale>
<asrwt>0</asrwt>
<pdfrwt beam="1">  1        2 0.63871799E-01 0.79531217E+02</pdfrwt>
<pdfrwt beam="2">  1       -1 0.58597542E-03 0.79531217E+02</pdfrwt>
<totfact> 0.29064025E+05</totfact>
</mgrwt>
</event>
<event>
 8    1  0.7667702E-014  0.8051175E+02  0.7818608E-02  0.1327605E+00
         -1   -1    0    0    0  501 -0.00000000000E+00  0.00000000000E+00  0.11110619935E+02  0.11110621078E+02  0.50400000000E-02 0.  1.
          2   -1    0    0  501    0  0.00000000000E+00 -0.00000000000E+00 -0.14585462145E+03  0.14585462147E+03  0.25500000000E-02 0. -1.
         24    2    1    2    0    0  0.17763568394E-14  0.00000000000E+00 -0.13474400151E+03  0.15696524255E+03  0.80511747122E+02 0.  0.
         66    2    3    3    0    0 -0.61900642611E+01 -0.26417083079E+02 -0.12532498181E+03  0.12824402617E+03  0.20000022033E+01 0.  0.
        -13    1    3    3    0    0  0.61900642611E+01  0.26417083079E+02 -0.94190197016E+01  0.28721216377E+02  0.10566000000E+00 0.  1.
         13    1    4    4    0    0 -0.31658670525E+01 -0.13840358002E+02 -0.68769113179E+02  0.70219515202E+02  0.10566000000E+00 0. -1.
        -13    1    4    4    0    0 -0.15423927305E+01 -0.44539723159E+01 -0.20850896113E+02  0.21377274791E+02  0.10566000000E+00 0.  1.
        -14    1    4    4    0    0 -0.14818044780E+01 -0.81227527618E+01 -0.35704972518E+02  0.36647236178E+02  0.00000000000E+00 0.  1.
<mgrwt>
<rscale>  0 0.80511747E+02</rscale>
<asrwt>0</asrwt>
<pdfrwt beam="1">  1        2 0.22439171E-01 0.80511747E+02</pdfrwt>
<pdfrwt beam="2">  1       -1 0.17093263E-02 0.80511747E+02</pdfrwt>
<totfact> 0.19517348E+05</totfact>
</mgrwt>
</event>
<event>
 8    1  0.7667702E-014  0.7974678E+02  0.7818608E-02  0.1329772E+00
          2   -1    0    0  501    0  0.00000000000E+00  0.00000000000E+00  0.25503955062E+03  0.25503955063E+03  0.25500000000E-02 0. -1.
         -1   -1    0    0    0  501 -0.00000000000E+00 -0.00000000000E+00 -0.62338834409E+01  0.62338854782E+01  0.50400000000E-02 0.  1.
         24    2    1    2    0    0  0.00000000000E+00 -0.35527136788E-14  0.24880566718E+03  0.26127343611E+03  0.79746776718E+02 0.  0.
         66    2    3    3    0    0 -0.35422138202E+02  0.17925444002E+02  0.13575087645E+03  0.14145087443E+03  0.20000004875E+01 0.  0.
        -13    1    3    3    0    0  0.35422138202E+02 -0.17925444002E+02  0.11305479073E+03  0.11982256168E+03  0.10566000000E+00 0.  1.
         13    1    4    4    0    0 -0.16080263892E+02  0.76829691993E+01  0.59154320655E+02  0.61780641942E+02  0.10566000000E+00 0. -1.
        -13    1    4    4    0    0 -0.38018239067E+01  0.21063628302E+01  0.13682654795E+02  0.14356769681E+02  0.10566000000E+00 0.  1.
         14    1    4    4    0    0 -0.15540050404E+02  0.81361119725E+01  0.62913901001E+02  0.65313462806E+02  0.00000000000E+00 0. -1.
<mgrwt>
<rscale>  0 0.79746777E+02</rscale>
<asrwt>0</asrwt>
<pdfrwt beam="1">  1        2 0.39236854E-01 0.79746777E+02</pdfrwt>
<pdfrwt beam="2">  1       -1 0.95905916E-03 0.79746777E+02</pdfrwt>
<totfact> 0.24240859E+05</totfact>
</mgrwt>
</event>
<event>
 8    1  0.7667702E-014  0.7967138E+02  0.7818608E-02  0.1329987E+00
         -1   -1    0    0    0  501 -0.00000000000E+00  0.00000000000E+00  0.52609525209E+01  0.52609549350E+01  0.50400000000E-02 0.  1.
          2   -1    0    0  501    0  0.00000000000E+00 -0.00000000000E+00 -0.30163394896E+03  0.30163394898E+03  0.25500000000E-02 0. -1.
         24    2    1    2    0    0  0.35527136788E-14  0.35527136788E-14 -0.29637299644E+03  0.30689490391E+03  0.79671381469E+02 0.  0.
         66    2    3    3    0    0  0.31910706035E+02 -0.18221400026E+02 -0.20727509121E+03  0.21051668822E+03  0.20000011384E+01 0.  0.
        -13    1    3    3    0    0 -0.31910706035E+02  0.18221400026E+02 -0.89097905234E+02  0.96378215691E+02  0.10566000000E+00 0.  1.
         13    1    4    4    0    0  0.45440687782E+00 -0.19609030686E+00 -0.32671569368E+01  0.33061178902E+01  0.10566000000E+00 0.  1.
        -13    1    4    4    0    0  0.10215318736E+02 -0.54387356048E+01 -0.61454255660E+02  0.62534544731E+02  0.10566000000E+00 0.  1.
         14    1    4    4    0    0  0.21240980421E+02 -0.12586574114E+02 -0.14255367861E+03  0.14467602560E+03  0.00000000000E+00 0. -1.
<mgrwt>
<rscale>  0 0.79671381E+02</rscale>
<asrwt>0</asrwt>
<pdfrwt beam="1">  1        2 0.46405210E-01 0.79671381E+02</pdfrwt>
<pdfrwt beam="2">  1       -1 0.80937773E-03 0.79671381E+02</pdfrwt>
<totfact> 0.25821755E+05</totfact>
</mgrwt>
</event>
<event>
 8    1  0.7667702E-014  0.8186042E+02  0.7818608E-02  0.1323853E+00
          2   -1    0    0  501    0  0.00000000000E+00  0.00000000000E+00  0.22097722972E+03  0.22097722973E+03  0.25500000000E-02 0. -1.
         -1   -1    0    0    0  501 -0.00000000000E+00 -0.00000000000E+00 -0.75812413766E+01  0.75812430519E+01  0.50400000000E-02 0.  1.
         24    2    1    2    0    0  0.00000000000E+00  0.00000000000E+00  0.21339598834E+03  0.22855847279E+03  0.81860415595E+02 0.  0.
         66    2    3    3    0    0 -0.21105225159E+01 -0.36432936880E+02  0.15835508791E+03  0.16251814359E+03  0.19999840459E+01 0.  0.
        -13    1    3    3    0    0  0.21105225159E+01  0.36432936880E+02  0.55040900436E+02  0.66040329193E+02  0.10566000000E+00 0.  1.
         13    1    4    4    0    0 -0.12299770941E+01 -0.13928536848E+02  0.59582430232E+02  0.61201259291E+02  0.10566000000E+00 0. -1.
        -13    1    4    4    0    0 -0.63122423712E+00 -0.62011029406E+01  0.25300712824E+02  0.26057424185E+02  0.10566000000E+00 0.  1.
         14    1    4    4    0    0 -0.24932118476E+00 -0.16303297091E+02  0.73471944850E+02  0.75259460118E+02  0.00000000000E+00 0. -1.
<mgrwt>
<rscale>  0 0.81860416E+02</rscale>
<asrwt>0</asrwt>
<pdfrwt beam="1">  1        2 0.33996499E-01 0.81860416E+02</pdfrwt>
<pdfrwt beam="2">  1       -1 0.11663449E-02 0.81860416E+02</pdfrwt>
<totfact> 0.21499145E+05</totfact>
</mgrwt>
</event>
<event>
 8    1  0.7667702E-014  0.7878592E+02  0.7818608E-02  0.1332533E+00
          2   -1    0    0  501    0  0.00000000000E+00  0.00000000000E+00  0.29724923593E+03  0.29724923594E+03  0.25500000000E-02 0. -1.
         -1   -1    0    0    0  501 -0.00000000000E+00 -0.00000000000E+00 -0.52205519550E+01  0.52205543878E+01  0.50400000000E-02 0.  1.
         24    2    1    2    0    0 -0.88817841970E-15  0.00000000000E+00  0.29202868398E+03  0.30246979033E+03  0.78785923853E+02 0.  0.
         66    2    3    3    0    0 -0.78430305423E+01  0.37881208332E+02  0.11807948069E+03  0.12427092512E+03  0.19999995756E+01 0.  0.
        -13    1    3    3    0    0  0.78430305423E+01 -0.37881208332E+02  0.17394920329E+03  0.17819886521E+03  0.10566000000E+00 0.  1.
         13    1    4    4    0    0 -0.35004459324E+01  0.18169032990E+02  0.59250192797E+02  0.62072243330E+02  0.10566000000E+00 0. -1.
        -13    1    4    4    0    0 -0.39343987950E+01  0.18315316135E+02  0.54213251596E+02  0.57358679480E+02  0.10566000000E+00 0.  1.
         14    1    4    4    0    0 -0.40818581490E+00  0.13968592071E+01  0.46160362928E+01  0.48400023099E+01  0.00000000000E+00 0. -1.
<mgrwt>
<rscale>  0 0.78785924E+02</rscale>
<asrwt>0</asrwt>
<pdfrwt beam="1">  1        2 0.45730652E-01 0.78785924E+02</pdfrwt>
<pdfrwt beam="2">  1       -1 0.80316203E-03 0.78785924E+02</pdfrwt>
<totfact> 0.26448371E+05</totfact>
</mgrwt>
</event>
<event>
 8    1  0.7667702E-014  0.8741629E+02  0.7818608E-02  0.1309232E+00
         -1   -1    0    0    0  501 -0.00000000000E+00  0.00000000000E+00  0.42745371557E+01  0.42745401270E+01  0.50400000000E-02 0.  1.
          2   -1    0    0  501    0  0.00000000000E+00 -0.00000000000E+00 -0.44692589238E+03  0.44692589239E+03  0.25500000000E-02 0. -1.
         24    2    1    2    0    0  0.00000000000E+00  0.00000000000E+00 -0.44265135523E+03  0.45120043252E+03  0.87416291498E+02 0.  0.
         66    2    3    3    0    0 -0.27498171053E+02  0.33728547474E+02 -0.24118534519E+03  0.24508801492E+03  0.19999985085E+01 0.  0.
        -13    1    3    3    0    0  0.27498171053E+02 -0.33728547474E+02 -0.20146601003E+03  0.20611241760E+03  0.10566000000E+00 0.  1.
         13    1    4    4    0    0 -0.84581533924E+01  0.10902338786E+02 -0.78707778082E+02  0.79908240153E+02  0.10566000000E+00 0. -1.
        -13    1    4    4    0    0 -0.30426265407E+01  0.42672283132E+01 -0.26916858945E+02  0.27422532218E+02  0.10566000000E+00 0.  1.
         14    1    4    4    0    0 -0.15997391120E+02  0.18558980374E+02 -0.13556070817E+03  0.13775724255E+03  0.00000000000E+00 0. -1.
<mgrwt>
<rscale>  0 0.87416291E+02</rscale>
<asrwt>0</asrwt>
<pdfrwt beam="1">  1        2 0.68757793E-01 0.87416291E+02</pdfrwt>
<pdfrwt beam="2">  1       -1 0.65762168E-03 0.87416291E+02</pdfrwt>
<totfact> 0.23266391E+05</totfact>
</mgrwt>
</event>
<event>
 8    1  0.7667702E-014  0.7334573E+02  0.7818608E-02  0.1349072E+00
          2   -1    0    0  501    0  0.00000000000E+00  0.00000000000E+00  0.90986878962E+02  0.90986878998E+02  0.25500000000E-02 0. -1.
         -1   -1    0    0    0  501 -0.00000000000E+00 -0.00000000000E+00 -0.14781242846E+02  0.14781243705E+02  0.50400000000E-02 0.  1.
         24    2    1    2    0    0  0.00000000000E+00  0.00000000000E+00  0.76205636116E+02  0.10576812270E+03  0.73345734738E+02 0.  0.
         66    2    3    3    0    0  0.11482932897E+02 -0.22530401868E+02  0.76377116817E+02  0.80479442905E+02  0.20000001715E+01 0.  0.
        -13    1    3    3    0    0 -0.11482932897E+02  0.22530401868E+02 -0.17148070111E+00  0.25288679798E+02  0.10566000000E+00 0.  1.
         13    1    4    4    0    0  0.38803965329E+01 -0.82599454618E+01  0.25345037096E+02  0.26938193067E+02  0.10566000000E+00 0. -1.
        -13    1    4    4    0    0  0.51582153728E+00 -0.97657725746E+00  0.28231871201E+01  0.30333685152E+01  0.10566000000E+00 0.  1.
         14    1    4    4    0    0  0.70867148266E+01 -0.13293879149E+02  0.48208892601E+02  0.50507881323E+02  0.00000000000E+00 0. -1.
<mgrwt>
<rscale>  0 0.73345735E+02</rscale>
<asrwt>0</asrwt>
<pdfrwt beam="1">  1        2 0.13997981E-01 0.73345735E+02</pdfrwt>
<pdfrwt beam="2">  1       -1 0.22740374E-02 0.73345735E+02</pdfrwt>
<totfact> 0.21778116E+05</totfact>
</mgrwt>
</event>
<event>
 8    1  0.7667702E-014  0.8000007E+02  0.7818608E-02  0.1329051E+00
          2   -1    0    0  501    0  0.00000000000E+00  0.00000000000E+00  0.27892291610E+02  0.27892291727E+02  0.25500000000E-02 0. -1.
         -1   -1    0    0    0  501 -0.00000000000E+00 -0.00000000000E+00 -0.57363617130E+02  0.57363617351E+02  0.50400000000E-02 0.  1.
         24    2    1    2    0    0  0.00000000000E+00 -0.35527136788E-14 -0.29471325519E+02  0.85255909078E+02  0.80000068780E+02 0.  0.
         66    2    3    3    0    0 -0.87491567299E+01  0.22584784775E+02  0.19146652376E+02  0.30938884256E+02  0.20000037400E+01 0.  0.
        -13    1    3    3    0    0  0.87491567299E+01 -0.22584784775E+02 -0.48617977896E+02  0.54317024822E+02  0.10566000000E+00 0.  1.
         13    1    4    4    0    0 -0.35623647170E+01  0.93934867044E+01  0.89755309081E+01  0.13472169609E+02  0.10566000000E+00 0. -1.
        -13    1    4    4    0    0 -0.16754150252E+01  0.45231777768E+01  0.29975633394E+01  0.56800266476E+01  0.10566000000E+00 0.  1.
         14    1    4    4    0    0 -0.35113769877E+01  0.86681202941E+01  0.71735581287E+01  0.11786688000E+02  0.00000000000E+00 0. -1.
<mgrwt>
<rscale>  0 0.80000069E+02</rscale>
<asrwt>0</asrwt>
<pdfrwt beam="1">  1        2 0.42911218E-02 0.80000069E+02</pdfrwt>
<pdfrwt beam="2">  1       -1 0.88251719E-02 0.80000069E+02</pdfrwt>
<totfact> 0.13263441E+05</totfact>
</mgrwt>
</event>
<event>
 8    1  0.7667702E-014  0.8075630E+02  0.7818608E-02  0.1326919E+00
         -1   -1    0    0    0  501 -0.00000000000E+00  0.00000000000E+00  0.40179070163E+02  0.40179070479E+02  0.50400000000E-02 0.  1.
          2   -1    0    0  501    0  0.00000000000E+00 -0.00000000000E+00 -0.40578217687E+02  0.40578217767E+02  0.25500000000E-02 0. -1.
         24    2    1    2    0    0  0.00000000000E+00 -0.71054273576E-14 -0.39914752415E+00  0.80757288245E+02  0.80756301835E+02 0.  0.
         66    2    3    3    0    0 -0.98010829168E+01  0.38459630528E+02  0.70932452220E+01  0.40367295428E+02  0.20000014220E+01 0.  0.
        -13    1    3    3    0    0  0.98010829168E+01 -0.38459630528E+02 -0.74923927461E+01  0.40389992818E+02  0.10566000000E+00 0.  1.
         13    1    4    4    0    0 -0.71065403303E+01  0.28898149531E+02  0.50273829915E+01  0.30180982515E+02  0.10566000000E+00 0. -1.
        -13    1    4    4    0    0 -0.26062980997E+01  0.84926047870E+01  0.16504747965E+01  0.90361693733E+01  0.10566000000E+00 0.  1.
        -14    1    4    4    0    0 -0.88244486809E-01  0.10688762100E+01  0.41538743396E+00  0.11501435398E+01  0.00000000000E+00 0.  1.
<mgrwt>
<rscale>  0 0.80756302E+02</rscale>
<asrwt>0</asrwt>
<pdfrwt beam="1">  1        2 0.62428027E-02 0.80756302E+02</pdfrwt>
<pdfrwt beam="2">  1       -1 0.61813955E-02 0.80756302E+02</pdfrwt>
<totfact> 0.13930276E+05</totfact>
</mgrwt>
</event>
<event>
 8    1  0.7667702E-014  0.8055824E+02  0.7818608E-02  0.1327475E+00
         -1   -1    0    0    0  501 -0.00000000000E+00  0.00000000000E+00  0.75125003722E+01  0.75125020628E+01  0.50400000000E-02 0.  1.
          2   -1    0    0  501    0  0.00000000000E+00 -0.00000000000E+00 -0.21596102080E+03  0.21596102081E+03  0.25500000000E-02 0. -1.
         24    2    1    2    0    0 -0.17763568394E-14  0.00000000000E+00 -0.20844852042E+03  0.22347352287E+03  0.80558238305E+02 0.  0.
         66    2    3    3    0    0  0.13846450446E+02  0.31891800699E+02 -0.16056769094E+03  0.16430092670E+03  0.19999997921E+01 0.  0.
        -13    1    3    3    0    0 -0.13846450446E+02 -0.31891800699E+02 -0.47880829486E+02  0.59172596175E+02  0.10566000000E+00 0.  1.
         13    1    4    4    0    0  0.47643192450E+01  0.11239600091E+02 -0.57403428012E+02  0.58687239326E+02  0.10566000000E+00 0. -1.
        -13    1    4    4    0    0  0.13970441089E+01  0.42602054855E+01 -0.18565729097E+02  0.19099700101E+02  0.10566000000E+00 0.  1.
        -14    1    4    4    0    0  0.76850870926E+01  0.16391995123E+02 -0.84598533828E+02  0.86513987272E+02  0.00000000000E+00 0.  1.
<mgrwt>
<rscale>  0 0.80558238E+02</rscale>
<asrwt>0</asrwt>
<pdfrwt beam="1">  1        2 0.33224768E-01 0.80558238E+02</pdfrwt>
<pdfrwt beam="2">  1       -1 0.11557696E-02 0.80558238E+02</pdfrwt>
<totfact> 0.22247205E+05</totfact>
</mgrwt>
</event>
<event>
 8    1  0.7667702E-014  0.7961941E+02  0.7818608E-02  0.1330135E+00
          2   -1    0    0  501    0  0.00000000000E+00  0.00000000000E+00  0.63122662956E+02  0.63122663007E+02  0.25500000000E-02 0. -1.
         -1   -1    0    0    0  501 -0.00000000000E+00 -0.00000000000E+00 -0.25106872515E+02  0.25106873021E+02  0.50400000000E-02 0.  1.
         24    2    1    2    0    0  0.17763568394E-14 -0.35527136788E-14  0.38015790441E+02  0.88229536028E+02  0.79619411608E+02 0.  0.
         66    2    3    3    0    0 -0.15224895932E+02  0.24876568424E+02  0.49004575002E+02  0.57062154635E+02  0.20000019250E+01 0.  0.
        -13    1    3    3    0    0  0.15224895932E+02 -0.24876568424E+02 -0.10988784562E+02  0.31167381393E+02  0.10566000000E+00 0.  1.
         13    1    4    4    0    0 -0.20425613332E+01  0.36827249215E+01  0.61027919148E+01  0.74155075915E+01  0.10566000000E+00 0. -1.
        -13    1    4    4    0    0 -0.45334489354E+01  0.65972385953E+01  0.13026955235E+02  0.15290142022E+02  0.10566000000E+00 0.  1.
         14    1    4    4    0    0 -0.86488856632E+01  0.14596604908E+02  0.29874827852E+02  0.34356505021E+02  0.00000000000E+00 0. -1.
<mgrwt>
<rscale>  0 0.79619412E+02</rscale>
<asrwt>0</asrwt>
<pdfrwt beam="1">  1        2 0.97111788E-02 0.79619412E+02</pdfrwt>
<pdfrwt beam="2">  1       -1 0.38625959E-02 0.79619412E+02</pdfrwt>
<totfact> 0.15956586E+05</totfact>
</mgrwt>
</event>
<event>
 8    1  0.7667702E-014  0.8014332E+02  0.7818608E-02  0.1328645E+00
         -1   -1    0    0    0  501 -0.00000000000E+00  0.00000000000E+00  0.20776692172E+02  0.20776692783E+02  0.50400000000E-02 0.  1.
          2   -1    0    0  501    0  0.00000000000E+00 -0.00000000000E+00 -0.77285537096E+02  0.77285537138E+02  0.25500000000E-02 0. -1.
         24    2    1    2    0    0  0.00000000000E+00 -0.88817841970E-15 -0.56508844924E+02  0.98062229921E+02  0.80143317765E+02 0.  0.
         66    2    3    3    0    0 -0.21042114873E+02  0.63140030797E+01 -0.69241008358E+02  0.72670176381E+02  0.20000159054E+01 0.  0.
        -13    1    3    3    0    0  0.21042114873E+02 -0.63140030797E+01  0.12732163435E+02  0.25392053540E+02  0.10566000000E+00 0.  1.
         13    1    4    4    0    0 -0.14818389376E+02  0.48715752220E+01 -0.48696498120E+02  0.51133912446E+02  0.10566000000E+00 0. -1.
        -13    1    4    4    0    0 -0.39072515802E+01  0.13447220581E+01 -0.12637112484E+02  0.13295964361E+02  0.10566000000E+00 0.  1.
         14    1    4    4    0    0 -0.23164739161E+01  0.97705799566E-01 -0.79073977546E+01  0.82402995745E+01  0.00000000000E+00 0. -1.
<mgrwt>
<rscale>  0 0.80143318E+02</rscale>
<asrwt>0</asrwt>
<pdfrwt beam="1">  1        2 0.11890083E-01 0.80143318E+02</pdfrwt>
<pdfrwt beam="2">  1       -1 0.31964143E-02 0.80143318E+02</pdfrwt>
<totfact> 0.16469471E+05</totfact>
</mgrwt>
</event>
<event>
 8    1  0.7667702E-014  0.8139262E+02  0.7818608E-02  0.1325145E+00
         -1   -1    0    0    0  501 -0.00000000000E+00  0.00000000000E+00  0.89390385635E+00  0.89391806448E+00  0.50400000000E-02 0.  1.
          2   -1    0    0  501    0  0.00000000000E+00 -0.00000000000E+00 -0.18527456310E+04  0.18527456310E+04  0.25500000000E-02 0. -1.
         24    2    1    2    0    0  0.00000000000E+00  0.00000000000E+00 -0.18518517271E+04  0.18536395490E+04  0.81392619674E+02 0.  0.
         66    2    3    3    0    0  0.12804572528E+01  0.18728562485E+02 -0.17481772756E+04  0.17482792070E+04  0.19999771846E+01 0.  0.
        -13    1    3    3    0    0 -0.12804572528E+01 -0.18728562485E+02 -0.10367445148E+03  0.10536034205E+03  0.10566000000E+00 0.  1.
         13    1    4    4    0    0  0.43856767296E+00  0.47667378033E+01 -0.44438590565E+03  0.44441169925E+03  0.10566000000E+00 0. -1.
        -13    1    4    4    0    0  0.45089184721E+00  0.12941931033E+02 -0.12276716702E+04  0.12277399716E+04  0.10566000000E+00 0.  1.
        -14    1    4    4    0    0  0.39099773266E+00  0.10198936489E+01 -0.76119699764E+02  0.76127536111E+02  0.00000000000E+00 0.  1.
<mgrwt>
<rscale>  0 0.81392620E+02</rscale>
<asrwt>0</asrwt>
<pdfrwt beam="1">  1        2 0.28503472E+00 0.81392620E+02</pdfrwt>
<pdfrwt beam="2">  1       -1 0.13752625E-03 0.81392620E+02</pdfrwt>
<totfact> 0.28294493E+05</totfact>
</mgrwt>
</event>
<event>
 8    1  0.7667702E-014  0.7841497E+02  0.7818608E-02  0.1333611E+00
          2   -1    0    0  501    0  0.00000000000E+00  0.00000000000E+00  0.19383434376E+02  0.19383434543E+02  0.25500000000E-02 0. -1.
         -1   -1    0    0    0  501 -0.00000000000E+00 -0.00000000000E+00 -0.79306212594E+02  0.79306212754E+02  0.50400000000E-02 0.  1.
         24    2    1    2    0    0  0.71054273576E-14 -0.17763568394E-14 -0.59922778218E+02  0.98689647297E+02  0.78414967540E+02 0.  0.
         66    2    3    3    0    0  0.33396743453E+02 -0.10560323107E+02 -0.78803857809E+01  0.35957799947E+02  0.19999998834E+01 0.  0.
        -13    1    3    3    0    0 -0.33396743453E+02  0.10560323107E+02 -0.52042392438E+02  0.62731847351E+02  0.10566000000E+00 0.  1.
         13    1    4    4    0    0  0.59797523471E+01 -0.21338924175E+01 -0.13965423056E+01  0.65017251117E+01  0.10566000000E+00 0. -1.
        -13    1    4    4    0    0  0.14747473129E+02 -0.45054182043E+01 -0.26145189126E+01  0.15640768206E+02  0.10566000000E+00 0.  1.
        -14    1    4    4    0    0  0.12669517977E+02 -0.39210124851E+01 -0.38693245627E+01  0.13815306629E+02  0.00000000000E+00 0.  1.
<mgrwt>
<rscale>  0 0.78414968E+02</rscale>
<asrwt>0</asrwt>
<pdfrwt beam="1">  1        2 0.29820669E-02 0.78414968E+02</pdfrwt>
<pdfrwt beam="2">  1       -1 0.12200956E-01 0.78414968E+02</pdfrwt>
<totfact> 0.13067065E+05</totfact>
</mgrwt>
</event>
<event>
 8    1  0.7667702E-014  0.8072104E+02  0.7818608E-02  0.1327018E+00
         -1   -1    0    0    0  501 -0.00000000000E+00  0.00000000000E+00  0.67259874733E+02  0.67259874922E+02  0.50400000000E-02 0.  1.
          2   -1    0    0  501    0  0.00000000000E+00 -0.00000000000E+00 -0.24219068162E+02  0.24219068296E+02  0.25500000000E-02 0. -1.
         24    2    1    2    0    0  0.00000000000E+00  0.35527136788E-14  0.43040806571E+02  0.91478943219E+02  0.80721038287E+02 0.  0.
         66    2    3    3    0    0  0.32398647134E+02 -0.18102238592E+02  0.36291913270E+01  0.37343465403E+02  0.20000001248E+01 0.  0.
        -13    1    3    3    0    0 -0.32398647134E+02  0.18102238592E+02  0.39411615244E+02  0.54135477816E+02  0.10566000000E+00 0.  1.
         13    1    4    4    0    0  0.42205523236E+01 -0.29004414324E+01  0.51934366111E+00  0.51484467845E+01  0.10566000000E+00 0.  1.
        -13    1    4    4    0    0  0.62607317109E+01 -0.30652582197E+01  0.11423665682E+01  0.70646114487E+01  0.10566000000E+00 0. -1.
         14    1    4    4    0    0  0.21917363099E+02 -0.12136538940E+02  0.19674810977E+01  0.25130407170E+02  0.00000000000E+00 0. -1.
<mgrwt>
<rscale>  0 0.80721038E+02</rscale>
<asrwt>0</asrwt>
<pdfrwt beam="1">  1        2 0.37260105E-02 0.80721038E+02</pdfrwt>
<pdfrwt beam="2">  1       -1 0.10347673E-01 0.80721038E+02</pdfrwt>
<totfact> 0.12574791E+05</totfact>
</mgrwt>
</event>
<event>
 8    1  0.7667702E-014  0.7829184E+02  0.7818608E-02  0.1333970E+00
         -1   -1    0    0    0  501 -0.00000000000E+00  0.00000000000E+00  0.36046678569E+01  0.36046713803E+01  0.50400000000E-02 0.  1.
          2   -1    0    0  501    0  0.00000000000E+00 -0.00000000000E+00 -0.42511612851E+03  0.42511612852E+03  0.25500000000E-02 0. -1.
         24    2    1    2    0    0  0.71054273576E-14  0.17763568394E-14 -0.42151146065E+03  0.42872079990E+03  0.78291843785E+02 0.  0.
         66    2    3    3    0    0 -0.34437511907E+02 -0.11506505924E+02 -0.29063425001E+03  0.29290033997E+03  0.19999928981E+01 0.  0.
        -13    1    3    3    0    0  0.34437511907E+02  0.11506505924E+02 -0.13087721065E+03  0.13582045993E+03  0.10566000000E+00 0.  1.
         13    1    4    4    0    0 -0.80068483010E+01 -0.23027750896E+01 -0.68933630941E+02  0.69435358655E+02  0.10566000000E+00 0. -1.
        -13    1    4    4    0    0 -0.22430364620E+02 -0.79655664810E+01 -0.18434873331E+03  0.18587909550E+03  0.10566000000E+00 0.  1.
        -14    1    4    4    0    0 -0.40002989853E+01 -0.12381643534E+01 -0.37351885754E+02  0.37585885812E+02  0.00000000000E+00 0.  1.
<mgrwt>
<rscale>  0 0.78291844E+02</rscale>
<asrwt>0</asrwt>
<pdfrwt beam="1">  1        2 0.65402442E-01 0.78291844E+02</pdfrwt>
<pdfrwt beam="2">  1       -1 0.55456489E-03 0.78291844E+02</pdfrwt>
<totfact> 0.30526573E+05</totfact>
</mgrwt>
</event>
<event>
 8    1  0.7667702E-014  0.7859907E+02  0.7818608E-02  0.1333075E+00
          2   -1    0    0  501    0  0.00000000000E+00  0.00000000000E+00  0.69596150068E+03  0.69596150068E+03  0.25500000000E-02 0. -1.
         -1   -1    0    0    0  501 -0.00000000000E+00 -0.00000000000E+00 -0.22191620122E+01  0.22191677354E+01  0.50400000000E-02 0.  1.
         24    2    1    2    0    0  0.00000000000E+00  0.00000000000E+00  0.69374233867E+03  0.69818066842E+03  0.78599066758E+02 0.  0.
         66    2    3    3    0    0  0.33034310804E+02  0.82882179242E+01  0.52081897246E+03  0.52193520893E+03  0.19999996537E+01 0.  0.
        -13    1    3    3    0    0 -0.33034310804E+02 -0.82882179242E+01  0.17292336621E+03  0.17624545949E+03  0.10566000000E+00 0.  1.
         13    1    4    4    0    0  0.59429497485E+01  0.16687372259E+01  0.91771358968E+02  0.91978784655E+02  0.10566000000E+00 0. -1.
        -13    1    4    4    0    0  0.17753847285E+02  0.51380764946E+01  0.28706198121E+03  0.28765637685E+03  0.10566000000E+00 0.  1.
         14    1    4    4    0    0  0.93375137705E+01  0.14814042036E+01  0.14198563228E+03  0.14230004742E+03  0.00000000000E+00 0. -1.
<mgrwt>
<rscale>  0 0.78599067E+02</rscale>
<asrwt>0</asrwt>
<pdfrwt beam="1">  1        2 0.10707119E+00 0.78599067E+02</pdfrwt>
<pdfrwt beam="2">  1       -1 0.34140937E-03 0.78599067E+02</pdfrwt>
<totfact> 0.34975891E+05</totfact>
</mgrwt>
</event>
<event>
 8    1  0.7667702E-014  0.7802697E+02  0.7818608E-02  0.1334746E+00
         -1   -1    0    0    0  501 -0.00000000000E+00  0.00000000000E+00  0.97703825946E+01  0.97703838945E+01  0.50400000000E-02 0.  1.
          2   -1    0    0  501    0  0.00000000000E+00 -0.00000000000E+00 -0.15578221748E+03  0.15578221750E+03  0.25500000000E-02 0. -1.
         24    2    1    2    0    0 -0.35527136788E-14  0.17763568394E-14 -0.14601183489E+03  0.16555260140E+03  0.78026969071E+02 0.  0.
         66    2    3    3    0    0 -0.31922170172E+02  0.12569784091E+02 -0.11235013911E+03  0.11748862999E+03  0.19999997554E+01 0.  0.
        -13    1    3    3    0    0  0.31922170172E+02 -0.12569784091E+02 -0.33661695781E+02  0.48063971408E+02  0.10566000000E+00 0.  1.
         13    1    4    4    0    0 -0.12969359024E+02  0.46143999675E+01 -0.46902345861E+02  0.48880856905E+02  0.10566000000E+00 0. -1.
        -13    1    4    4    0    0 -0.57493873307E+01  0.19283850333E+01 -0.18775872185E+02  0.19731159719E+02  0.10566000000E+00 0.  1.
         14    1    4    4    0    0 -0.13203423818E+02  0.60269990901E+01 -0.46671921062E+02  0.48876613367E+02  0.00000000000E+00 0. -1.
<mgrwt>
<rscale>  0 0.78026969E+02</rscale>
<asrwt>0</asrwt>
<pdfrwt beam="1">  1        2 0.23966493E-01 0.78026969E+02</pdfrwt>
<pdfrwt beam="2">  1       -1 0.15031360E-02 0.78026969E+02</pdfrwt>
<totfact> 0.21663067E+05</totfact>
</mgrwt>
</event>
<event>
 8    1  0.7667702E-014  0.7883651E+02  0.7818608E-02  0.1332386E+00
          2   -1    0    0  501    0  0.00000000000E+00  0.00000000000E+00  0.87007188471E+03  0.87007188471E+03  0.25500000000E-02 0. -1.
         -1   -1    0    0    0  501 -0.00000000000E+00 -0.00000000000E+00 -0.17858246259E+01  0.17858317379E+01  0.50400000000E-02 0.  1.
         24    2    1    2    0    0  0.00000000000E+00  0.55511151231E-16  0.86828606008E+03  0.87185771645E+03  0.78836511846E+02 0.  0.
         66    2    3    3    0    0  0.13351916500E+02 -0.38828195233E+00  0.84425936944E+03  0.84436740062E+03  0.19999768290E+01 0.  0.
        -13    1    3    3    0    0 -0.13351916500E+02  0.38828195233E+00  0.24026690638E+02  0.27490315825E+02  0.10566000000E+00 0.  1.
         13    1    4    4    0    0  0.68906846005E+01 -0.10426201704E+01  0.44360154172E+03  0.44365629441E+03  0.10566000000E+00 0. -1.
        -13    1    4    4    0    0  0.45617354829E+01  0.25529525178E+00  0.29607258604E+03  0.29610785531E+03  0.10566000000E+00 0.  1.
        -14    1    4    4    0    0  0.18994964161E+01  0.39904296631E+00  0.10458524169E+03  0.10460325091E+03  0.00000000000E+00 0.  1.
<mgrwt>
<rscale>  0 0.78836512E+02</rscale>
<asrwt>0</asrwt>
<pdfrwt beam="1">  1        2 0.13385757E+00 0.78836512E+02</pdfrwt>
<pdfrwt beam="2">  1       -1 0.27474207E-03 0.78836512E+02</pdfrwt>
<totfact> 0.36154004E+05</totfact>
</mgrwt>
</event>
<event>
 8    1  0.7667702E-014  0.8010017E+02  0.7818608E-02  0.1328767E+00
         -1   -1    0    0    0  501 -0.00000000000E+00  0.00000000000E+00  0.73041909936E+02  0.73041910110E+02  0.50400000000E-02 0.  1.
          2   -1    0    0  501    0  0.00000000000E+00 -0.00000000000E+00 -0.21960120925E+02  0.21960121073E+02  0.25500000000E-02 0. -1.
         24    2    1    2    0    0  0.00000000000E+00  0.00000000000E+00  0.51081789010E+02  0.95002031183E+02  0.80100167044E+02 0.  0.
         66    2    3    3    0    0  0.35269982431E+02  0.18056392311E+02  0.18847592406E+02  0.43923077017E+02  0.19999977792E+01 0.  0.
        -13    1    3    3    0    0 -0.35269982431E+02 -0.18056392311E+02  0.32234196604E+02  0.51078954166E+02  0.10566000000E+00 0.  1.
         13    1    4    4    0    0  0.16777676320E+02  0.84293972846E+01  0.89542865706E+01  0.20802297308E+02  0.10566000000E+00 0. -1.
        -13    1    4    4    0    0  0.62829072701E+01  0.40161301825E+01  0.37092318268E+01  0.83290929991E+01  0.10566000000E+00 0.  1.
        -14    1    4    4    0    0  0.12209398841E+02  0.56108648440E+01  0.61840740088E+01  0.14791686709E+02  0.00000000000E+00 0.  1.
<mgrwt>
<rscale>  0 0.80100167E+02</rscale>
<asrwt>0</asrwt>
<pdfrwt beam="1">  1        2 0.33784801E-02 0.80100167E+02</pdfrwt>
<pdfrwt beam="2">  1       -1 0.11237217E-01 0.80100167E+02</pdfrwt>
<totfact> 0.12605911E+05</totfact>
</mgrwt>
</event>
<event>
 8    1  0.7667702E-014  0.8020171E+02  0.7818608E-02  0.1328480E+00
         -1   -1    0    0    0  501 -0.00000000000E+00  0.00000000000E+00  0.11024501424E+02  0.11024502576E+02  0.50400000000E-02 0.  1.
          2   -1    0    0  501    0  0.00000000000E+00 -0.00000000000E+00 -0.14586404600E+03  0.14586404602E+03  0.25500000000E-02 0. -1.
         24    2    1    2    0    0  0.17763568394E-14  0.35527136788E-14 -0.13483954457E+03  0.15688854860E+03  0.80201707587E+02 0.  0.
         66    2    3    3    0    0 -0.10182343334E+02  0.21660499704E+02 -0.13034023298E+03  0.13253465092E+03  0.19999994537E+01 0.  0.
        -13    1    3    3    0    0  0.10182343334E+02 -0.21660499704E+02 -0.44993115937E+01  0.24353897677E+02  0.10566000000E+00 0.  1.
         13    1    4    4    0    0 -0.80423612409E+01  0.17186708899E+02 -0.10582524433E+03  0.10751305055E+03  0.10566000000E+00 0. -1.
        -13    1    4    4    0    0 -0.72000856546E-02  0.25037276622E+00 -0.16461976786E+01  0.16684930914E+01  0.10566000000E+00 0. -1.
         14    1    4    4    0    0 -0.21327820075E+01  0.42234180392E+01 -0.22868790969E+02  0.23353107275E+02  0.00000000000E+00 0. -1.
<mgrwt>
<rscale>  0 0.80201708E+02</rscale>
<asrwt>0</asrwt>
<pdfrwt beam="1">  1        2 0.22440621E-01 0.80201708E+02</pdfrwt>
<pdfrwt beam="2">  1       -1 0.16960773E-02 0.80201708E+02</pdfrwt>
<totfact> 0.19718814E+05</totfact>
</mgrwt>
</event>
<event>
 8    1  0.7667702E-014  0.8343915E+02  0.7818608E-02  0.1319566E+00
          2   -1    0    0  501    0  0.00000000000E+00  0.00000000000E+00  0.13160703490E+04  0.13160703490E+04  0.25500000000E-02 0. -1.
         -1   -1    0    0    0  501 -0.00000000000E+00 -0.00000000000E+00 -0.13225104499E+01  0.13225200534E+01  0.50400000000E-02 0.  1.
         24    2    1    2    0    0  0.00000000000E+00  0.00000000000E+00  0.13147478386E+04  0.13173928691E+04  0.83439154282E+02 0.  0.
         66    2    3    3    0    0 -0.21099564174E+02 -0.77320744150E+01  0.12122770478E+04  0.12124869554E+04  0.19999992424E+01 0.  0.
        -13    1    3    3    0    0  0.21099564174E+02  0.77320744150E+01  0.10247079082E+03  0.10490591365E+03  0.10566000000E+00 0.  1.
         13    1    4    4    0    0 -0.74874630291E+01 -0.29030218369E+01  0.39165480189E+03  0.39173713718E+03  0.10566000000E+00 0. -1.
        -13    1    4    4    0    0 -0.66087850001E+01 -0.28032157058E+01  0.40372587756E+03  0.40378970942E+03  0.10566000000E+00 0.  1.
        -14    1    4    4    0    0 -0.70033161449E+01 -0.20258368723E+01  0.41689636829E+03  0.41696010882E+03  0.00000000000E+00 0.  1.
<mgrwt>
<rscale>  0 0.83439154E+02</rscale>
<asrwt>0</asrwt>
<pdfrwt beam="1">  1        2 0.20247240E+00 0.83439154E+02</pdfrwt>
<pdfrwt beam="2">  1       -1 0.20346384E-03 0.83439154E+02</pdfrwt>
<totfact> 0.30948412E+05</totfact>
</mgrwt>
</event>
<event>
 8    1  0.7667702E-014  0.7974995E+02  0.7818608E-02  0.1329763E+00
          2   -1    0    0  501    0  0.00000000000E+00  0.00000000000E+00  0.37073807836E+03  0.37073807837E+03  0.25500000000E-02 0. -1.
         -1   -1    0    0    0  501 -0.00000000000E+00 -0.00000000000E+00 -0.42887770522E+01  0.42887800136E+01  0.50400000000E-02 0.  1.
         24    2    1    2    0    0  0.35527136788E-14  0.88817841970E-15  0.36644930131E+03  0.37502685838E+03  0.79749947205E+02 0.  0.
         66    2    3    3    0    0  0.23085891565E+02  0.76389536172E+01  0.33180092811E+03  0.33269681077E+03  0.19999996548E+01 0.  0.
        -13    1    3    3    0    0 -0.23085891565E+02 -0.76389536172E+01  0.34648373194E+02  0.42330047611E+02  0.10566000000E+00 0.  1.
         13    1    4    4    0    0  0.18704874773E+01  0.25253625257E+00  0.22899208607E+02  0.22977106364E+02  0.10566000000E+00 0. -1.
        -13    1    4    4    0    0  0.18447981316E+01  0.41031468760E+00  0.23166846463E+02  0.23244043912E+02  0.10566000000E+00 0.  1.
         14    1    4    4    0    0  0.19370605956E+02  0.69761026770E+01  0.28573487304E+03  0.28647566050E+03  0.00000000000E+00 0. -1.
<mgrwt>
<rscale>  0 0.79749947E+02</rscale>
<asrwt>0</asrwt>
<pdfrwt beam="1">  1        2 0.57036638E-01 0.79749947E+02</pdfrwt>
<pdfrwt beam="2">  1       -1 0.65981196E-03 0.79749947E+02</pdfrwt>
<totfact> 0.27732622E+05</totfact>
</mgrwt>
</event>
<event>
 8    1  0.7667702E-014  0.7447758E+02  0.7818608E-02  0.1345496E+00
          2   -1    0    0  501    0  0.00000000000E+00  0.00000000000E+00  0.41513876187E+03  0.41513876188E+03  0.25500000000E-02 0. -1.
         -1   -1    0    0    0  501 -0.00000000000E+00 -0.00000000000E+00 -0.33403935283E+01  0.33403973305E+01  0.50400000000E-02 0.  1.
         24    2    1    2    0    0  0.35527136788E-14  0.35527136788E-14  0.41179836834E+03  0.41847915921E+03  0.74477584029E+02 0.  0.
         66    2    3    3    0    0 -0.28002961662E+02 -0.23725615859E+02  0.24052528983E+03  0.24331766431E+03  0.20000013485E+01 0.  0.
        -13    1    3    3    0    0  0.28002961662E+02  0.23725615859E+02  0.17127307851E+03  0.17516149490E+03  0.10566000000E+00 0.  1.
         13    1    4    4    0    0 -0.49233647363E+01 -0.50096736497E+01  0.48066158295E+02  0.48576775188E+02  0.10566000000E+00 0. -1.
        -13    1    4    4    0    0 -0.73400955553E+01 -0.56243468908E+01  0.61263049853E+02  0.61957103887E+02  0.10566000000E+00 0.  1.
         14    1    4    4    0    0 -0.15739501371E+02 -0.13091595319E+02  0.13119608169E+03  0.13278378523E+03  0.00000000000E+00 0. -1.
<mgrwt>
<rscale>  0 0.74477584E+02</rscale>
<asrwt>0</asrwt>
<pdfrwt beam="1">  1        2 0.63867521E-01 0.74477584E+02</pdfrwt>
<pdfrwt beam="2">  1       -1 0.51390684E-03 0.74477584E+02</pdfrwt>
<totfact> 0.34474288E+05</totfact>
</mgrwt>
</event>
<event>
 8    1  0.7667702E-014  0.7954858E+02  0.7818608E-02  0.1330337E+00
          2   -1    0    0  501    0  0.00000000000E+00  0.00000000000E+00  0.64748979430E+03  0.64748979431E+03  0.25500000000E-02 0. -1.
         -1   -1    0    0    0  501 -0.00000000000E+00 -0.00000000000E+00 -0.24432698341E+01  0.24432750324E+01  0.50400000000E-02 0.  1.
         24    2    1    2    0    0 -0.35527136788E-14  0.35527136788E-14  0.64504652447E+03  0.64993306934E+03  0.79548575681E+02 0.  0.
         66    2    3    3    0    0 -0.28645156055E+02  0.18044802141E+02  0.49290150276E+03  0.49406684899E+03  0.20000009182E+01 0.  0.
        -13    1    3    3    0    0  0.28645156055E+02 -0.18044802141E+02  0.15214502171E+03  0.15586622035E+03  0.10566000000E+00 0.  1.
         13    1    4    4    0    0 -0.20602404241E+01  0.14625956181E+01  0.32908727202E+02  0.33005745964E+02  0.10566000000E+00 0. -1.
        -13    1    4    4    0    0 -0.88860367723E+01  0.63171228443E+01  0.16391366108E+03  0.16427588729E+03  0.10566000000E+00 0.  1.
         14    1    4    4    0    0 -0.17698878859E+02  0.10265083679E+02  0.29607911447E+03  0.29678521574E+03  0.00000000000E+00 0. -1.
<mgrwt>
<rscale>  0 0.79548576E+02</rscale>
<asrwt>0</asrwt>
<pdfrwt beam="1">  1        2 0.99613633E-01 0.79548576E+02</pdfrwt>
<pdfrwt beam="2">  1       -1 0.37588875E-03 0.79548576E+02</pdfrwt>
<totfact> 0.33311442E+05</totfact>
</mgrwt>
</event>
<event>
 8    1  0.7667702E-014  0.8252676E+02  0.7818608E-02  0.1322030E+00
          2   -1    0    0  501    0  0.00000000000E+00  0.00000000000E+00  0.99684251913E+03  0.99684251913E+03  0.25500000000E-02 0. -1.
         -1   -1    0    0    0  501 -0.00000000000E+00 -0.00000000000E+00 -0.17080560413E+01  0.17080634771E+01  0.50400000000E-02 0.  1.
         24    2    1    2    0    0  0.00000000000E+00  0.00000000000E+00  0.99513446308E+03  0.99855058261E+03  0.82526761748E+02 0.  0.
         66    2    3    3    0    0 -0.13771301988E+02  0.17862679198E+02  0.91559474971E+03  0.91587470200E+03  0.19999992131E+01 0.  0.
        -13    1    3    3    0    0  0.13771301988E+02 -0.17862679198E+02  0.79539713370E+02  0.82675880603E+02  0.10566000000E+00 0.  1.
         13    1    4    4    0    0 -0.87698472287E+00  0.16805616256E+01  0.73639463755E+02  0.73663934023E+02  0.10566000000E+00 0.  1.
        -13    1    4    4    0    0 -0.72994207762E+01  0.87845711586E+01  0.43656483121E+03  0.43671422378E+03  0.10566000000E+00 0.  1.
         14    1    4    4    0    0 -0.55948964891E+01  0.73975464134E+01  0.40539045475E+03  0.40549654420E+03  0.00000000000E+00 0. -1.
<mgrwt>
<rscale>  0 0.82526762E+02</rscale>
<asrwt>0</asrwt>
<pdfrwt beam="1">  1        2 0.15335993E+00 0.82526762E+02</pdfrwt>
<pdfrwt beam="2">  1       -1 0.26277921E-03 0.82526762E+02</pdfrwt>
<totfact> 0.32490127E+05</totfact>
</mgrwt>
</event>
<event>
 8    1  0.7667702E-014  0.7988059E+02  0.7818608E-02  0.1329391E+00
         -1   -1    0    0    0  501 -0.00000000000E+00  0.00000000000E+00  0.17479102895E+02  0.17479103621E+02  0.50400000000E-02 0.  1.
          2   -1    0    0  501    0  0.00000000000E+00 -0.00000000000E+00 -0.91264816630E+02  0.91264816666E+02  0.25500000000E-02 0. -1.
         24    2    1    2    0    0  0.00000000000E+00  0.22204460493E-15 -0.73785713735E+02  0.10874392029E+03  0.79880589933E+02 0.  0.
         66    2    3    3    0    0 -0.24866525711E+02  0.12118988880E+01 -0.79388777595E+02  0.83224941301E+02  0.20000116461E+01 0.  0.
        -13    1    3    3    0    0  0.24866525711E+02 -0.12118988880E+01  0.56030638600E+01  0.25518978986E+02  0.10566000000E+00 0.  1.
         13    1    4    4    0    0 -0.79519163899E+01  0.71724334060E+00 -0.28038858692E+02  0.29153664830E+02  0.10566000000E+00 0. -1.
        -13    1    4    4    0    0 -0.63142565626E+00 -0.70564672084E-01 -0.20500144869E+01  0.21488138971E+01  0.10566000000E+00 0.  1.
        -14    1    4    4    0    0 -0.16283183665E+02  0.56522021945E+00 -0.49299904417E+02  0.51922462573E+02  0.00000000000E+00 0.  1.
<mgrwt>
<rscale>  0 0.79880590E+02</rscale>
<asrwt>0</asrwt>
<pdfrwt beam="1">  1        2 0.14040741E-01 0.79880590E+02</pdfrwt>
<pdfrwt beam="2">  1       -1 0.26890929E-02 0.79880590E+02</pdfrwt>
<totfact> 0.17355110E+05</totfact>
</mgrwt>
</event>
<event>
 8    1  0.7667702E-014  0.8093699E+02  0.7818608E-02  0.1326413E+00
          2   -1    0    0  501    0  0.00000000000E+00  0.00000000000E+00  0.75389073993E+02  0.75389074037E+02  0.25500000000E-02 0. -1.
         -1   -1    0    0    0  501 -0.00000000000E+00 -0.00000000000E+00 -0.21723292810E+02  0.21723293394E+02  0.50400000000E-02 0.  1.
         24    2    1    2    0    0  0.71054273576E-14 -0.17763568394E-14  0.53665781184E+02  0.97112367431E+02  0.80936986835E+02 0.  0.
         66    2    3    3    0    0  0.38132187045E+02 -0.11605018194E+02  0.18627505255E+02  0.44042299783E+02  0.20000205154E+01 0.  0.
        -13    1    3    3    0    0 -0.38132187045E+02  0.11605018194E+02  0.35038275929E+02  0.53070067648E+02  0.10566000000E+00 0.  1.
         13    1    4    4    0    0  0.72990886488E+01 -0.22962165908E+01  0.38621928943E+01  0.85718728247E+01  0.10566000000E+00 0. -1.
        -13    1    4    4    0    0  0.13902686015E+02 -0.35894366515E+01  0.59310191050E+01  0.15535664954E+02  0.10566000000E+00 0.  1.
        -14    1    4    4    0    0  0.16930412381E+02 -0.57193649516E+01  0.88342932555E+01  0.19934762004E+02  0.00000000000E+00 0.  1.
<mgrwt>
<rscale>  0 0.80936987E+02</rscale>
<asrwt>0</asrwt>
<pdfrwt beam="1">  1        2 0.11598319E-01 0.80936987E+02</pdfrwt>
<pdfrwt beam="2">  1       -1 0.33420451E-02 0.80936987E+02</pdfrwt>
<totfact> 0.15936305E+05</totfact>
</mgrwt>
</event>
<event>
 8    1  0.7667702E-014  0.7935440E+02  0.7818608E-02  0.1330894E+00
          2   -1    0    0  501    0  0.00000000000E+00  0.00000000000E+00  0.16711519155E+04  0.16711519155E+04  0.25500000000E-02 0. -1.
         -1   -1    0    0    0  501 -0.00000000000E+00 -0.00000000000E+00 -0.94202610780E+00  0.94203959013E+00  0.50400000000E-02 0.  1.
         24    2    1    2    0    0  0.00000000000E+00  0.00000000000E+00  0.16702098894E+04  0.16720939551E+04  0.79354395165E+02 0.  0.
         66    2    3    3    0    0 -0.13735767323E+02  0.50725868287E+01  0.16120941439E+04  0.16121618812E+04  0.20000003945E+01 0.  0.
        -13    1    3    3    0    0  0.13735767323E+02 -0.50725868287E+01  0.58115745469E+02  0.59932073855E+02  0.10566000000E+00 0.  1.
         13    1    4    4    0    0 -0.68066490945E+01  0.35218347330E+01  0.84206050158E+03  0.84209538253E+03  0.10566000000E+00 0. -1.
        -13    1    4    4    0    0 -0.67079022267E+01  0.14227682209E+01  0.74230154192E+03  0.74233322068E+03  0.10566000000E+00 0.  1.
        -14    1    4    4    0    0 -0.22121600226E+00  0.12798387467E+00  0.27732100431E+02  0.27733278037E+02  0.00000000000E+00 0.  1.
<mgrwt>
<rscale>  0 0.79354395E+02</rscale>
<asrwt>0</asrwt>
<pdfrwt beam="1">  1        2 0.25709895E+00 0.79354395E+02</pdfrwt>
<pdfrwt beam="2">  1       -1 0.14492889E-03 0.79354395E+02</pdfrwt>
<totfact> 0.32312940E+05</totfact>
</mgrwt>
</event>
<event>
 8    1  0.7667702E-014  0.8561539E+02  0.7818608E-02  0.1313831E+00
          2   -1    0    0  501    0  0.00000000000E+00  0.00000000000E+00  0.19939985955E+02  0.19939986118E+02  0.25500000000E-02 0. -1.
         -1   -1    0    0    0  501 -0.00000000000E+00 -0.00000000000E+00 -0.91900697622E+02  0.91900697760E+02  0.50400000000E-02 0.  1.
         24    2    1    2    0    0 -0.35527136788E-14 -0.17763568394E-14 -0.71960711667E+02  0.11184068388E+03  0.85615387324E+02 0.  0.
         66    2    3    3    0    0 -0.23141639867E+02 -0.92547151505E+01  0.94273213717E+01  0.26721894329E+02  0.20000000150E+01 0.  0.
        -13    1    3    3    0    0  0.23141639867E+02  0.92547151505E+01 -0.81388033038E+02  0.85118789548E+02  0.10566000000E+00 0.  1.
         13    1    4    4    0    0 -0.65164379258E+01 -0.27549474489E+01  0.31691997279E+01  0.77529794039E+01  0.10566000000E+00 0. -1.
        -13    1    4    4    0    0 -0.55062097937E+00  0.92758360837E-02  0.13005643820E+00  0.57562854062E+00  0.10566000000E+00 0.  1.
        -14    1    4    4    0    0 -0.16074580962E+02 -0.65090435377E+01  0.61280652056E+01  0.18393286385E+02  0.00000000000E+00 0.  1.
<mgrwt>
<rscale>  0 0.85615387E+02</rscale>
<asrwt>0</asrwt>
<pdfrwt beam="1">  1        2 0.30676902E-02 0.85615387E+02</pdfrwt>
<pdfrwt beam="2">  1       -1 0.14138569E-01 0.85615387E+02</pdfrwt>
<totfact> 0.10196671E+05</totfact>
</mgrwt>
</event>
<event>
 8    1  0.7667702E-014  0.8375800E+02  0.7818608E-02  0.1318713E+00
         -1   -1    0    0    0  501 -0.00000000000E+00  0.00000000000E+00  0.86023267400E+01  0.86023282164E+01  0.50400000000E-02 0.  1.
          2   -1    0    0  501    0  0.00000000000E+00 -0.00000000000E+00 -0.20388092848E+03  0.20388092850E+03  0.25500000000E-02 0. -1.
         24    2    1    2    0    0  0.00000000000E+00  0.00000000000E+00 -0.19527860174E+03  0.21248325672E+03  0.83757997144E+02 0.  0.
         66    2    3    3    0    0 -0.15589492425E+02  0.16914582903E+02 -0.18640228488E+03  0.18782690755E+03  0.20000012971E+01 0.  0.
        -13    1    3    3    0    0  0.15589492425E+02 -0.16914582903E+02 -0.88763168679E+01  0.24656349163E+02  0.10566000000E+00 0.  1.
         13    1    4    4    0    0 -0.12177489540E+01  0.76200865573E+00 -0.10576866974E+02  0.10674495244E+02  0.10566000000E+00 0.  1.
        -13    1    4    4    0    0 -0.29186147365E+00  0.45178295418E+00 -0.51003615401E+01  0.51297312632E+01  0.10566000000E+00 0. -1.
         14    1    4    4    0    0 -0.14079881997E+02  0.15700791293E+02 -0.17072505636E+03  0.17202268104E+03  0.00000000000E+00 0. -1.
<mgrwt>
<rscale>  0 0.83757997E+02</rscale>
<asrwt>0</asrwt>
<pdfrwt beam="1">  1        2 0.31366293E-01 0.83757997E+02</pdfrwt>
<pdfrwt beam="2">  1       -1 0.13234352E-02 0.83757997E+02</pdfrwt>
<totfact> 0.19668365E+05</totfact>
</mgrwt>
</event>
<event>
 8    1  0.7667702E-014  0.8267778E+02  0.7818608E-02  0.1321620E+00
         -1   -1    0    0    0  501 -0.00000000000E+00  0.00000000000E+00  0.26561679232E+01  0.26561727048E+01  0.50400000000E-02 0.  1.
          2   -1    0    0  501    0  0.00000000000E+00 -0.00000000000E+00 -0.64337130093E+03  0.64337130094E+03  0.25500000000E-02 0. -1.
         24    2    1    2    0    0  0.71054273576E-14  0.35527136788E-14 -0.64071513301E+03  0.64602747364E+03  0.82677778355E+02 0.  0.
         66    2    3    3    0    0  0.26057138354E+02 -0.20084910494E+02 -0.51581453911E+03  0.51686653679E+03  0.20000012360E+01 0.  0.
        -13    1    3    3    0    0 -0.26057138354E+02  0.20084910494E+02 -0.12490059390E+03  0.12916093685E+03  0.10566000000E+00 0.  1.
         13    1    4    4    0    0  0.79663615826E+00 -0.72306064597E+00 -0.12983166105E+02  0.13028093184E+02  0.10566000000E+00 0. -1.
        -13    1    4    4    0    0  0.68580896860E+01 -0.48616983488E+01 -0.12922405913E+03  0.12949725142E+03  0.10566000000E+00 0. -1.
         14    1    4    4    0    0  0.18402412509E+02 -0.14500151499E+02 -0.37360731388E+03  0.37434119218E+03  0.00000000000E+00 0. -1.
<mgrwt>
<rscale>  0 0.82677778E+02</rscale>
<asrwt>0</asrwt>
<pdfrwt beam="1">  1        2 0.98980076E-01 0.82677778E+02</pdfrwt>
<pdfrwt beam="2">  1       -1 0.40864210E-03 0.82677778E+02</pdfrwt>
<totfact> 0.30077556E+05</totfact>
</mgrwt>
</event>
<event>
 8    1  0.7667702E-014  0.8049268E+02  0.7818608E-02  0.1327659E+00
          2   -1    0    0  501    0  0.00000000000E+00  0.00000000000E+00  0.69587268443E+02  0.69587268489E+02  0.25500000000E-02 0. -1.
         -1   -1    0    0    0  501 -0.00000000000E+00 -0.00000000000E+00 -0.23276784384E+02  0.23276784930E+02  0.50400000000E-02 0.  1.
         24    2    1    2    0    0 -0.17763568394E-14  0.35527136788E-14  0.46310484058E+02  0.92864053419E+02  0.80492679690E+02 0.  0.
         66    2    3    3    0    0 -0.12812673404E+02 -0.28667273730E+02  0.52168038910E+02  0.60921929261E+02  0.19999995967E+01 0.  0.
        -13    1    3    3    0    0  0.12812673404E+02  0.28667273730E+02 -0.58575548515E+01  0.31942124158E+02  0.10566000000E+00 0.  1.
         13    1    4    4    0    0 -0.25655375784E+01 -0.59549767788E+01  0.99728423647E+01  0.11895901831E+02  0.10566000000E+00 0. -1.
        -13    1    4    4    0    0 -0.32881766748E+01 -0.57804342729E+01  0.10811212169E+02  0.12693265885E+02  0.10566000000E+00 0.  1.
         14    1    4    4    0    0 -0.69589591506E+01 -0.16931862678E+02  0.31383984376E+02  0.36332761545E+02  0.00000000000E+00 0. -1.
<mgrwt>
<rscale>  0 0.80492680E+02</rscale>
<asrwt>0</asrwt>
<pdfrwt beam="1">  1        2 0.10705734E-01 0.80492680E+02</pdfrwt>
<pdfrwt beam="2">  1       -1 0.35810438E-02 0.80492680E+02</pdfrwt>
<totfact> 0.15857335E+05</totfact>
</mgrwt>
</event>
<event>
 8    1  0.7667702E-014  0.7917426E+02  0.7818608E-02  0.1331411E+00
          2   -1    0    0  501    0  0.00000000000E+00  0.00000000000E+00  0.14351790814E+04  0.14351790814E+04  0.25500000000E-02 0. -1.
         -1   -1    0    0    0  501 -0.00000000000E+00 -0.00000000000E+00 -0.10919420598E+01  0.10919536912E+01  0.50400000000E-02 0.  1.
         24    2    1    2    0    0  0.17763568394E-14 -0.88817841970E-15  0.14340871393E+04  0.14362710351E+04  0.79174257354E+02 0.  0.
         66    2    3    3    0    0  0.84457072223E+01 -0.63168192926E+01  0.14092037262E+04  0.14092446112E+04  0.20000002929E+01 0.  0.
        -13    1    3    3    0    0 -0.84457072223E+01  0.63168192926E+01  0.24883413128E+02  0.27026423910E+02  0.10566000000E+00 0.  1.
         13    1    4    4    0    0  0.40606482903E+01 -0.30671781996E+01  0.69754951033E+03  0.69756808052E+03  0.10566000000E+00 0. -1.
        -13    1    4    4    0    0  0.10378238401E+01 -0.15613434781E+01  0.25687196348E+03  0.25687882679E+03  0.10566000000E+00 0.  1.
        -14    1    4    4    0    0  0.33472350919E+01 -0.16882976149E+01  0.45478225241E+03  0.45479770386E+03  0.00000000000E+00 0.  1.
<mgrwt>
<rscale>  0 0.79174257E+02</rscale>
<asrwt>0</asrwt>
<pdfrwt beam="1">  1        2 0.22079686E+00 0.79174257E+02</pdfrwt>
<pdfrwt beam="2">  1       -1 0.16799192E-03 0.79174257E+02</pdfrwt>
<totfact> 0.34684797E+05</totfact>
</mgrwt>
</event>
<event>
 8    1  0.9317554E-014  0.7557302E+02  0.7818608E-02  0.1342106E+00
         -1   -1    0    0    0  501 -0.00000000000E+00  0.00000000000E+00  0.80713571918E+02  0.80713572076E+02  0.50400000000E-02 0.  1.
          2   -1    0    0  501    0  0.00000000000E+00 -0.00000000000E+00 -0.17689968043E+02  0.17689968227E+02  0.25500000000E-02 0. -1.
         24    2    1    2    0    0  0.00000000000E+00  0.00000000000E+00  0.63023603876E+02  0.98403540302E+02  0.75573024940E+02 0.  0.
         66    2    3    3    0    0  0.25910162034E+02  0.14621465183E+02  0.12563905975E+01  0.29844634674E+02  0.19999902021E+01 0.  0.
        -13    1    3    3    0    0 -0.25910162034E+02 -0.14621465183E+02  0.61767213278E+02  0.68558905628E+02  0.10566000000E+00 0.  1.
         13    1    4    4    0    0  0.16677191477E+02  0.93178421481E+01  0.38620354081E+00  0.19107883584E+02  0.10566000000E+00 0. -1.
        -13    1    4    4    0    0  0.35597048091E+01  0.24370373007E+01 -0.40492705963E-01  0.43154898711E+01  0.10566000000E+00 0.  1.
        -14    1    4    4    0    0  0.56732657478E+01  0.28665857346E+01  0.91067976267E+00  0.64212612195E+01  0.00000000000E+00 0.  1.
<mgrwt>
<rscale>  0 0.75573025E+02</rscale>
<asrwt>0</asrwt>
<pdfrwt beam="1">  1        2 0.27215336E-02 0.75573025E+02</pdfrwt>
<pdfrwt beam="2">  1       -1 0.12417473E-01 0.75573025E+02</pdfrwt>
<totfact> 0.14264353E+05</totfact>
</mgrwt>
</event>
<event>
 8    1  0.7667702E-014  0.7805641E+02  0.7818608E-02  0.1334659E+00
         -1   -1    0    0    0  501 -0.00000000000E+00  0.00000000000E+00  0.54548450768E+01  0.54548474051E+01  0.50400000000E-02 0.  1.
          2   -1    0    0  501    0  0.00000000000E+00 -0.00000000000E+00 -0.27923805299E+03  0.27923805300E+03  0.25500000000E-02 0. -1.
         24    2    1    2    0    0 -0.44408920985E-15  0.00000000000E+00 -0.27378320791E+03  0.28469290041E+03  0.78056406571E+02 0.  0.
         66    2    3    3    0    0 -0.24961019832E+01 -0.33789609512E+02 -0.20744321265E+03  0.21020146216E+03  0.19999962109E+01 0.  0.
        -13    1    3    3    0    0  0.24961019832E+01  0.33789609512E+02 -0.66339995264E+02  0.74491438245E+02  0.10566000000E+00 0.  1.
         13    1    4    4    0    0 -0.26513463685E+01 -0.25437561547E+02 -0.15598375542E+03  0.15806657551E+03  0.10566000000E+00 0. -1.
        -13    1    4    4    0    0  0.83258276414E-01 -0.33766392923E+01 -0.19598730014E+02  0.19887936219E+02  0.10566000000E+00 0. -1.
         14    1    4    4    0    0  0.71986108969E-01 -0.49754086725E+01 -0.31860727215E+02  0.32246950432E+02  0.00000000000E+00 0. -1.
<mgrwt>
<rscale>  0 0.78056407E+02</rscale>
<asrwt>0</asrwt>
<pdfrwt beam="1">  1        2 0.42959689E-01 0.78056407E+02</pdfrwt>
<pdfrwt beam="2">  1       -1 0.83920734E-03 0.78056407E+02</pdfrwt>
<totfact> 0.26494829E+05</totfact>
</mgrwt>
</event>
<event>
 8    1  0.7667702E-014  0.8114686E+02  0.7818608E-02  0.1325828E+00
          2   -1    0    0  501    0  0.00000000000E+00  0.00000000000E+00  0.27260755790E+03  0.27260755791E+03  0.25500000000E-02 0. -1.
         -1   -1    0    0    0  501 -0.00000000000E+00 -0.00000000000E+00 -0.60387281171E+01  0.60387302203E+01  0.50400000000E-02 0.  1.
         24    2    1    2    0    0  0.00000000000E+00  0.00000000000E+00  0.26656882978E+03  0.27864628813E+03  0.81146859940E+02 0.  0.
         66    2    3    3    0    0  0.13187427033E+02 -0.37165856729E+02  0.16575806479E+03  0.17039643529E+03  0.19999945458E+01 0.  0.
        -13    1    3    3    0    0 -0.13187427033E+02  0.37165856729E+02  0.10081076500E+03  0.10824985285E+03  0.10566000000E+00 0.  1.
         13    1    4    4    0    0  0.29290601497E+01 -0.65400479951E+01  0.28999636928E+02  0.29872089433E+02  0.10566000000E+00 0. -1.
        -13    1    4    4    0    0  0.16542446673E+01 -0.50606950939E+01  0.24181105049E+02  0.24760536458E+02  0.10566000000E+00 0.  1.
         14    1    4    4    0    0  0.86041222157E+01 -0.25565113640E+02  0.11257732281E+03  0.11576380939E+03  0.00000000000E+00 0. -1.
<mgrwt>
<rscale>  0 0.81146860E+02</rscale>
<asrwt>0</asrwt>
<pdfrwt beam="1">  1        2 0.41939630E-01 0.81146860E+02</pdfrwt>
<pdfrwt beam="2">  1       -1 0.92903514E-03 0.81146860E+02</pdfrwt>
<totfact> 0.23721507E+05</totfact>
</mgrwt>
</event>
<event>
 8    1  0.7667702E-014  0.7927338E+02  0.7818608E-02  0.1331126E+00
         -1   -1    0    0    0  501 -0.00000000000E+00  0.00000000000E+00  0.10480856777E+03  0.10480856789E+03  0.50400000000E-02 0.  1.
          2   -1    0    0  501    0  0.00000000000E+00 -0.00000000000E+00 -0.14989872006E+02  0.14989872223E+02  0.25500000000E-02 0. -1.
         24    2    1    2    0    0 -0.35527136788E-14 -0.35527136788E-14  0.89818695767E+02  0.11979844012E+03  0.79273376017E+02 0.  0.
         66    2    3    3    0    0 -0.31227342777E+02  0.24081264864E+02  0.39281855224E+02  0.55696664240E+02  0.20000008300E+01 0.  0.
        -13    1    3    3    0    0  0.31227342777E+02 -0.24081264864E+02  0.50536840544E+02  0.64101775877E+02  0.10566000000E+00 0.  1.
         13    1    4    4    0    0 -0.14347409590E+02  0.11702955098E+02  0.18544776350E+02  0.26205480607E+02  0.10566000000E+00 0. -1.
        -13    1    4    4    0    0 -0.21272767460E+01  0.11412112161E+01  0.26541716655E+01  0.35893537941E+01  0.10566000000E+00 0.  1.
        -14    1    4    4    0    0 -0.14752656441E+02  0.11237098550E+02  0.18082907209E+02  0.25901829839E+02  0.00000000000E+00 0.  1.
<mgrwt>
<rscale>  0 0.79273376E+02</rscale>
<asrwt>0</asrwt>
<pdfrwt beam="1">  1        2 0.23061342E-02 0.79273376E+02</pdfrwt>
<pdfrwt beam="2">  1       -1 0.16124395E-01 0.79273376E+02</pdfrwt>
<totfact> 0.12003849E+05</totfact>
</mgrwt>
</event>
<event>
 8    1  0.7667702E-014  0.7848200E+02  0.7818608E-02  0.1333415E+00
          2   -1    0    0  501    0  0.00000000000E+00  0.00000000000E+00  0.36366564253E+03  0.36366564254E+03  0.25500000000E-02 0. -1.
         -1   -1    0    0    0  501 -0.00000000000E+00 -0.00000000000E+00 -0.42342618494E+01  0.42342648489E+01  0.50400000000E-02 0.  1.
         24    2    1    2    0    0  0.71054273576E-14  0.88817841970E-15  0.35943138068E+03  0.36789990739E+03  0.78482000727E+02 0.  0.
         66    2    3    3    0    0 -0.29756831608E+02 -0.44783775191E+01  0.29770938738E+03  0.29923302663E+03  0.19999992701E+01 0.  0.
        -13    1    3    3    0    0  0.29756831608E+02  0.44783775191E+01  0.61721993303E+02  0.68666880764E+02  0.10566000000E+00 0.  1.
         13    1    4    4    0    0 -0.10258588976E+02 -0.12443787355E+01  0.10966457291E+03  0.11015042825E+03  0.10566000000E+00 0.  1.
        -13    1    4    4    0    0 -0.16084080310E+02 -0.26979075051E+01  0.15197670459E+03  0.15284929259E+03  0.10566000000E+00 0. -1.
        -14    1    4    4    0    0 -0.34141623224E+01 -0.53609127848E+00  0.36068109877E+02  0.36233305788E+02  0.00000000000E+00 0.  1.
<mgrwt>
<rscale>  0 0.78482001E+02</rscale>
<asrwt>0</asrwt>
<pdfrwt beam="1">  1        2 0.55948567E-01 0.78482001E+02</pdfrwt>
<pdfrwt beam="2">  1       -1 0.65142505E-03 0.78482001E+02</pdfrwt>
<totfact> 0.28721788E+05</totfact>
</mgrwt>
</event>
<event>
 8    1  0.7667702E-014  0.7853155E+02  0.7818608E-02  0.1333271E+00
         -1   -1    0    0    0  501 -0.00000000000E+00  0.00000000000E+00  0.25763006368E+01  0.25763055667E+01  0.50400000000E-02 0.  1.
          2   -1    0    0  501    0  0.00000000000E+00 -0.00000000000E+00 -0.59845478392E+03  0.59845478392E+03  0.25500000000E-02 0. -1.
         24    2    1    2    0    0  0.00000000000E+00  0.00000000000E+00 -0.59587848328E+03  0.60103108949E+03  0.78531545866E+02 0.  0.
         66    2    3    3    0    0  0.36460250400E+02 -0.93200899747E-01 -0.40915528542E+03  0.41078145788E+03  0.20000005415E+01 0.  0.
        -13    1    3    3    0    0 -0.36460250400E+02  0.93200899747E-01 -0.18672319786E+03  0.19024963161E+03  0.10566000000E+00 0.  1.
         13    1    4    4    0    0  0.11125051143E+02 -0.88880842586E-02 -0.12848488140E+03  0.12896566502E+03  0.10566000000E+00 0. -1.
        -13    1    4    4    0    0  0.23769920490E+02  0.18129835115E+00 -0.25989717347E+03  0.26098198009E+03  0.10566000000E+00 0.  1.
        -14    1    4    4    0    0  0.15652787675E+01 -0.26561116664E+00 -0.20773230555E+02  0.20833812771E+02  0.00000000000E+00 0.  1.
<mgrwt>
<rscale>  0 0.78531546E+02</rscale>
<asrwt>0</asrwt>
<pdfrwt beam="1">  1        2 0.92069856E-01 0.78531546E+02</pdfrwt>
<pdfrwt beam="2">  1       -1 0.39635480E-03 0.78531546E+02</pdfrwt>
<totfact> 0.33726336E+05</totfact>
</mgrwt>
</event>
<event>
 8    1  0.7838447E-014  0.7856744E+02  0.7818608E-02  0.1333167E+00
         -1   -1    0    0    0  501 -0.00000000000E+00  0.00000000000E+00  0.37007966628E+01  0.37008000947E+01  0.50400000000E-02 0.  1.
          2   -1    0    0  501    0  0.00000000000E+00 -0.00000000000E+00 -0.41699402745E+03  0.41699402746E+03  0.25500000000E-02 0. -1.
         24    2    1    2    0    0  0.00000000000E+00 -0.35527136788E-14 -0.41329323079E+03  0.42069482756E+03  0.78567444371E+02 0.  0.
         66    2    3    3    0    0 -0.21551555218E+02  0.22929639586E+02 -0.33246638703E+03  0.33395828543E+03  0.19999994762E+01 0.  0.
        -13    1    3    3    0    0  0.21551555218E+02 -0.22929639586E+02 -0.80826843763E+02  0.86736542129E+02  0.10566000000E+00 0.  1.
         13    1    4    4    0    0 -0.15417275983E+02  0.16321227078E+02 -0.23809094050E+03  0.23914719727E+03  0.10566000000E+00 0. -1.
        -13    1    4    4    0    0 -0.54094639817E+01  0.59515408219E+01 -0.80350934043E+02  0.80752504013E+02  0.10566000000E+00 0.  1.
        -14    1    4    4    0    0 -0.72481525418E+00  0.65687168601E+00 -0.14024512486E+02  0.14058584141E+02  0.00000000000E+00 0.  1.
<mgrwt>
<rscale>  0 0.78567444E+02</rscale>
<asrwt>0</asrwt>
<pdfrwt beam="1">  1        2 0.64152890E-01 0.78567444E+02</pdfrwt>
<pdfrwt beam="2">  1       -1 0.56935393E-03 0.78567444E+02</pdfrwt>
<totfact> 0.30048531E+05</totfact>
</mgrwt>
</event>
<event>
 8    1  0.7667702E-014  0.8079241E+02  0.7818608E-02  0.1326818E+00
         -1   -1    0    0    0  501 -0.00000000000E+00  0.00000000000E+00  0.76351584571E+01  0.76351601206E+01  0.50400000000E-02 0.  1.
          2   -1    0    0  501    0  0.00000000000E+00 -0.00000000000E+00 -0.21372876918E+03  0.21372876920E+03  0.25500000000E-02 0. -1.
         24    2    1    2    0    0  0.00000000000E+00 -0.17763568394E-14 -0.20609361073E+03  0.22136392932E+03  0.80792405717E+02 0.  0.
         66    2    3    3    0    0 -0.12376823356E+02  0.10518295160E+02 -0.20437634769E+03  0.20503051431E+03  0.20000037932E+01 0.  0.
        -13    1    3    3    0    0  0.12376823356E+02 -0.10518295160E+02 -0.17172630387E+01  0.16333415008E+02  0.10566000000E+00 0.  1.
         13    1    4    4    0    0 -0.46822260284E+01  0.27851485936E+01 -0.66781201865E+02  0.67003137090E+02  0.10566000000E+00 0. -1.
        -13    1    4    4    0    0 -0.14337096349E+01  0.15168583629E+01 -0.27451601931E+02  0.27531036945E+02  0.10566000000E+00 0.  1.
         14    1    4    4    0    0 -0.62608876925E+01  0.62162882031E+01 -0.11014354389E+03  0.11049634028E+03  0.00000000000E+00 0. -1.
<mgrwt>
<rscale>  0 0.80792406E+02</rscale>
<asrwt>0</asrwt>
<pdfrwt beam="1">  1        2 0.32881345E-01 0.80792406E+02</pdfrwt>
<pdfrwt beam="2">  1       -1 0.11746401E-02 0.80792406E+02</pdfrwt>
<totfact> 0.21996933E+05</totfact>
</mgrwt>
</event>
<event>
 8    1  0.7667702E-014  0.7370313E+02  0.7818608E-02  0.1347935E+00
         -1   -1    0    0    0  501 -0.00000000000E+00  0.00000000000E+00  0.13930927319E+02  0.13930928231E+02  0.50400000000E-02 0.  1.
          2   -1    0    0  501    0  0.00000000000E+00 -0.00000000000E+00 -0.97483665497E+02  0.97483665530E+02  0.25500000000E-02 0. -1.
         24    2    1    2    0    0  0.17763568394E-14  0.00000000000E+00 -0.83552738178E+02  0.11141459376E+03  0.73703131860E+02 0.  0.
         66    2    3    3    0    0  0.84098163220E+01 -0.20572018981E+02 -0.86191918647E+02  0.89033588129E+02  0.19999999272E+01 0.  0.
        -13    1    3    3    0    0 -0.84098163220E+01  0.20572018981E+02  0.26391804686E+01  0.22381005632E+02  0.10566000000E+00 0.  1.
         13    1    4    4    0    0  0.14909276742E+01 -0.30909350223E+01 -0.12209507554E+02  0.12683058913E+02  0.10566000000E+00 0. -1.
        -13    1    4    4    0    0  0.28995782440E+01 -0.53836263246E+01 -0.23193405252E+02  0.23986166797E+02  0.10566000000E+00 0.  1.
        -14    1    4    4    0    0  0.40193104039E+01 -0.12097457634E+02 -0.50789005840E+02  0.52364362419E+02  0.00000000000E+00 0.  1.
<mgrwt>
<rscale>  0 0.73703132E+02</rscale>
<asrwt>0</asrwt>
<pdfrwt beam="1">  1        2 0.14997487E-01 0.73703132E+02</pdfrwt>
<pdfrwt beam="2">  1       -1 0.21432197E-02 0.73703132E+02</pdfrwt>
<totfact> 0.21900259E+05</totfact>
</mgrwt>
</event>
<event>
 8    1  0.7667702E-014  0.7957793E+02  0.7818608E-02  0.1330253E+00
          2   -1    0    0  501    0  0.00000000000E+00  0.00000000000E+00  0.19441879296E+02  0.19441879463E+02  0.25500000000E-02 0. -1.
         -1   -1    0    0    0  501 -0.00000000000E+00 -0.00000000000E+00 -0.81430494323E+02  0.81430494479E+02  0.50400000000E-02 0.  1.
         24    2    1    2    0    0  0.71054273576E-14  0.35527136788E-14 -0.61988615027E+02  0.10087237394E+03  0.79577933070E+02 0.  0.
         66    2    3    3    0    0  0.32836938875E+02  0.19183642706E+02 -0.45735385487E+02  0.59514722453E+02  0.20000002128E+01 0.  0.
        -13    1    3    3    0    0 -0.32836938875E+02 -0.19183642706E+02 -0.16253229540E+02  0.41357651489E+02  0.10566000000E+00 0.  1.
         13    1    4    4    0    0  0.23318515209E+02  0.13675476739E+02 -0.32457115896E+02  0.42240352175E+02  0.10566000000E+00 0. -1.
        -13    1    4    4    0    0  0.60669173056E+01  0.35769720071E+01 -0.76923281148E+01  0.10430018705E+02  0.10566000000E+00 0.  1.
        -14    1    4    4    0    0  0.34515063610E+01  0.19311939602E+01 -0.55859414762E+01  0.68443515724E+01  0.00000000000E+00 0.  1.
<mgrwt>
<rscale>  0 0.79577933E+02</rscale>
<asrwt>0</asrwt>
<pdfrwt beam="1">  1        2 0.29910584E-02 0.79577933E+02</pdfrwt>
<pdfrwt beam="2">  1       -1 0.12527768E-01 0.79577933E+02</pdfrwt>
<totfact> 0.12533907E+05</totfact>
</mgrwt>
</event>
<event>
 8    1  0.7667702E-014  0.7985110E+02  0.7818608E-02  0.1329475E+00
         -1   -1    0    0    0  501 -0.00000000000E+00  0.00000000000E+00  0.11418272901E+01  0.11418384133E+01  0.50400000000E-02 0.  1.
          2   -1    0    0  501    0  0.00000000000E+00 -0.00000000000E+00 -0.13960447058E+04  0.13960447058E+04  0.25500000000E-02 0. -1.
         24    2    1    2    0    0  0.00000000000E+00 -0.35527136788E-14 -0.13949028785E+04  0.13971865442E+04  0.79851104327E+02 0.  0.
         66    2    3    3    0    0 -0.21146029883E+01 -0.18134399106E+02 -0.13186674124E+04  0.13187953111E+04  0.20000000244E+01 0.  0.
        -13    1    3    3    0    0  0.21146029883E+01  0.18134399106E+02 -0.76235466062E+02  0.78391233097E+02  0.10566000000E+00 0.  1.
         13    1    4    4    0    0 -0.36591783333E+00 -0.13054029427E+01 -0.10388286713E+03  0.10389176685E+03  0.10566000000E+00 0. -1.
        -13    1    4    4    0    0 -0.18015010782E+01 -0.99239363315E+01 -0.74326970673E+03  0.74333814514E+03  0.10566000000E+00 0.  1.
        -14    1    4    4    0    0  0.52815923176E-01 -0.69050598315E+01 -0.47151483859E+03  0.47156539912E+03  0.00000000000E+00 0.  1.
<mgrwt>
<rscale>  0 0.79851104E+02</rscale>
<asrwt>0</asrwt>
<pdfrwt beam="1">  1        2 0.21477474E+00 0.79851104E+02</pdfrwt>
<pdfrwt beam="2">  1       -1 0.17566771E-03 0.79851104E+02</pdfrwt>
<totfact> 0.34206011E+05</totfact>
</mgrwt>
</event>
<event>
 8    1  0.7667702E-014  0.8156981E+02  0.7818608E-02  0.1324655E+00
          2   -1    0    0  501    0  0.00000000000E+00  0.00000000000E+00  0.40273725404E+03  0.40273725405E+03  0.25500000000E-02 0. -1.
         -1   -1    0    0    0  501 -0.00000000000E+00 -0.00000000000E+00 -0.41302561996E+01  0.41302592746E+01  0.50400000000E-02 0.  1.
         24    2    1    2    0    0 -0.71054273576E-14  0.00000000000E+00  0.39860699784E+03  0.40686751332E+03  0.81569814699E+02 0.  0.
         66    2    3    3    0    0 -0.34595093087E+02  0.97329760260E+01  0.29534929473E+03  0.29753446386E+03  0.20000005044E+01 0.  0.
        -13    1    3    3    0    0  0.34595093087E+02 -0.97329760260E+01  0.10325770311E+03  0.10933304946E+03  0.10566000000E+00 0.  1.
         13    1    4    4    0    0 -0.84727250781E+01  0.27297035655E+01  0.74777462701E+02  0.75305500754E+02  0.10566000000E+00 0. -1.
        -13    1    4    4    0    0 -0.13625923725E+02  0.29038469157E+01  0.11146770471E+03  0.11233502785E+03  0.10566000000E+00 0.  1.
        -14    1    4    4    0    0 -0.12496444284E+02  0.40994255448E+01  0.10910412732E+03  0.10989393526E+03  0.00000000000E+00 0.  1.
<mgrwt>
<rscale>  0 0.81569815E+02</rscale>
<asrwt>0</asrwt>
<pdfrwt beam="1">  1        2 0.61959602E-01 0.81569815E+02</pdfrwt>
<pdfrwt beam="2">  1       -1 0.63542402E-03 0.81569815E+02</pdfrwt>
<totfact> 0.26918034E+05</totfact>
</mgrwt>
</event>
<event>
 8    1  0.7667702E-014  0.8122324E+02  0.7818608E-02  0.1325615E+00
          2   -1    0    0  501    0  0.00000000000E+00  0.00000000000E+00  0.96133652650E+03  0.96133652650E+03  0.25500000000E-02 0. -1.
         -1   -1    0    0    0  501 -0.00000000000E+00 -0.00000000000E+00 -0.17156323221E+01  0.17156397250E+01  0.50400000000E-02 0.  1.
         24    2    1    2    0    0 -0.88817841970E-15  0.00000000000E+00  0.95962089418E+03  0.96305216623E+03  0.81223237650E+02 0.  0.
         66    2    3    3    0    0 -0.57668325047E+01 -0.17039868327E+02  0.91148239495E+03  0.91166209188E+03  0.19999987055E+01 0.  0.
        -13    1    3    3    0    0  0.57668325047E+01  0.17039868327E+02  0.48138499229E+02  0.51390074351E+02  0.10566000000E+00 0.  1.
         13    1    4    4    0    0 -0.19888235307E+01 -0.49921532652E+01  0.26977521024E+03  0.26982874612E+03  0.10566000000E+00 0. -1.
        -13    1    4    4    0    0 -0.27754984470E+01 -0.10261917648E+02  0.55664919865E+03  0.55675070891E+03  0.10566000000E+00 0.  1.
         14    1    4    4    0    0 -0.10025105270E+01 -0.17857974140E+01  0.85057986061E+02  0.85082636845E+02  0.00000000000E+00 0. -1.
<mgrwt>
<rscale>  0 0.81223238E+02</rscale>
<asrwt>0</asrwt>
<pdfrwt beam="1">  1        2 0.14789844E+00 0.81223238E+02</pdfrwt>
<pdfrwt beam="2">  1       -1 0.26394310E-03 0.81223238E+02</pdfrwt>
<totfact> 0.33795050E+05</totfact>
</mgrwt>
</event>
<event>
 8    1  0.7667702E-014  0.7995383E+02  0.7818608E-02  0.1329183E+00
          2   -1    0    0  501    0  0.00000000000E+00  0.00000000000E+00  0.10158602154E+04  0.10158602154E+04  0.25500000000E-02 0. -1.
         -1   -1    0    0    0  501 -0.00000000000E+00 -0.00000000000E+00 -0.15731983379E+01  0.15732064111E+01  0.50400000000E-02 0.  1.
         24    2    1    2    0    0  0.00000000000E+00  0.00000000000E+00  0.10142870171E+04  0.10174334218E+04  0.79953829453E+02 0.  0.
         66    2    3    3    0    0 -0.17335117307E+02 -0.10205459821E+01  0.96532204771E+03  0.96548029685E+03  0.20000002141E+01 0.  0.
        -13    1    3    3    0    0  0.17335117307E+02  0.10205459821E+01  0.48964969367E+02  0.51953124981E+02  0.10566000000E+00 0.  1.
         13    1    4    4    0    0 -0.10387853538E+02 -0.95078074528E+00  0.58261560844E+03  0.58270899242E+03  0.10566000000E+00 0. -1.
        -13    1    4    4    0    0 -0.46225509861E+01  0.40860626158E+00  0.26973263852E+03  0.26977257530E+03  0.10566000000E+00 0.  1.
         14    1    4    4    0    0 -0.23247127832E+01 -0.47837149837E+00  0.11297380075E+03  0.11299872913E+03  0.00000000000E+00 0. -1.
<mgrwt>
<rscale>  0 0.79953829E+02</rscale>
<asrwt>0</asrwt>
<pdfrwt beam="1">  1        2 0.15628636E+00 0.79953829E+02</pdfrwt>
<pdfrwt beam="2">  1       -1 0.24203087E-03 0.79953829E+02</pdfrwt>
<totfact> 0.35304156E+05</totfact>
</mgrwt>
</event>
<event>
 8    1  0.7667702E-014  0.8122796E+02  0.7818608E-02  0.1325602E+00
          2   -1    0    0  501    0  0.00000000000E+00  0.00000000000E+00  0.22850329747E+02  0.22850329889E+02  0.25500000000E-02 0. -1.
         -1   -1    0    0    0  501 -0.00000000000E+00 -0.00000000000E+00 -0.72186942935E+02  0.72186943111E+02  0.50400000000E-02 0.  1.
         24    2    1    2    0    0  0.00000000000E+00  0.17763568394E-14 -0.49336613188E+02  0.95037273000E+02  0.81227962294E+02 0.  0.
         66    2    3    3    0    0  0.15090373458E+02 -0.15035948266E+02  0.15740328685E+02  0.26562324012E+02  0.19999996134E+01 0.  0.
        -13    1    3    3    0    0 -0.15090373458E+02  0.15035948266E+02 -0.65076941873E+02  0.68474948988E+02  0.10566000000E+00 0.  1.
         13    1    4    4    0    0  0.59084212178E+01 -0.55071051415E+01  0.58841658693E+01  0.99936089747E+01  0.10566000000E+00 0. -1.
        -13    1    4    4    0    0  0.67845618029E+01 -0.61767959803E+01  0.63602947749E+01  0.11164569006E+02  0.10566000000E+00 0.  1.
        -14    1    4    4    0    0  0.23973904372E+01 -0.33520471438E+01  0.34958680407E+01  0.54041460307E+01  0.00000000000E+00 0.  1.
<mgrwt>
<rscale>  0 0.81227962E+02</rscale>
<asrwt>0</asrwt>
<pdfrwt beam="1">  1        2 0.35154354E-02 0.81227962E+02</pdfrwt>
<pdfrwt beam="2">  1       -1 0.11105684E-01 0.81227962E+02</pdfrwt>
<totfact> 0.12209469E+05</totfact>
</mgrwt>
</event>
<event>
 8    1  0.7667702E-014  0.8052854E+02  0.7818608E-02  0.1327558E+00
         -1   -1    0    0    0  501 -0.00000000000E+00  0.00000000000E+00  0.96228654799E+01  0.96228667998E+01  0.50400000000E-02 0.  1.
          2   -1    0    0  501    0  0.00000000000E+00 -0.00000000000E+00 -0.16847490993E+03  0.16847490995E+03  0.25500000000E-02 0. -1.
         24    2    1    2    0    0  0.00000000000E+00  0.71054273576E-14 -0.15885204445E+03  0.17809777675E+03  0.80528541878E+02 0.  0.
         66    2    3    3    0    0 -0.62815754172E+01 -0.38842538473E+02 -0.98110970064E+02  0.10572588810E+03  0.19999957948E+01 0.  0.
        -13    1    3    3    0    0  0.62815754172E+01  0.38842538473E+02 -0.60741074386E+02  0.72371888647E+02  0.10566000000E+00 0.  1.
         13    1    4    4    0    0 -0.84995752500E+00 -0.64877254963E+01 -0.16441587023E+02  0.17696043563E+02  0.10566000000E+00 0. -1.
        -13    1    4    4    0    0 -0.14886183592E+00 -0.34731500670E+00 -0.13711773445E+01  0.14262113819E+01  0.10566000000E+00 0.  1.
        -14    1    4    4    0    0 -0.52827560562E+01 -0.32007497970E+02 -0.80298205696E+02  0.86603633157E+02  0.00000000000E+00 0.  1.
<mgrwt>
<rscale>  0 0.80528542E+02</rscale>
<asrwt>0</asrwt>
<pdfrwt beam="1">  1        2 0.25919215E-01 0.80528542E+02</pdfrwt>
<pdfrwt beam="2">  1       -1 0.14804411E-02 0.80528542E+02</pdfrwt>
<totfact> 0.20447069E+05</totfact>
</mgrwt>
</event>
<event>
 8    1  0.7667702E-014  0.7958567E+02  0.7818608E-02  0.1330231E+00
         -1   -1    0    0    0  501 -0.00000000000E+00  0.00000000000E+00  0.10607733364E+02  0.10607734562E+02  0.50400000000E-02 0.  1.
          2   -1    0    0  501    0  0.00000000000E+00 -0.00000000000E+00 -0.14927500716E+03  0.14927500718E+03  0.25500000000E-02 0. -1.
         24    2    1    2    0    0 -0.71054273576E-14  0.88817841970E-15 -0.13866727380E+03  0.15988274174E+03  0.79585666332E+02 0.  0.
         66    2    3    3    0    0 -0.29842529420E+02  0.50453138669E+01 -0.12119985940E+03  0.12493773518E+03  0.19999995594E+01 0.  0.
        -13    1    3    3    0    0  0.29842529420E+02 -0.50453138669E+01 -0.17467414392E+02  0.34945006564E+02  0.10566000000E+00 0.  1.
         13    1    4    4    0    0 -0.21298942035E+02  0.34991173168E+01 -0.85152275494E+02  0.87845375176E+02  0.10566000000E+00 0. -1.
        -13    1    4    4    0    0 -0.67906240612E+01  0.14395102109E+01 -0.27184749182E+02  0.28057200803E+02  0.10566000000E+00 0.  1.
        -14    1    4    4    0    0 -0.17529633230E+01  0.10668633925E+00 -0.88628347281E+01  0.90351592019E+01  0.00000000000E+00 0.  1.
<mgrwt>
<rscale>  0 0.79585666E+02</rscale>
<asrwt>0</asrwt>
<pdfrwt beam="1">  1        2 0.22965384E-01 0.79585666E+02</pdfrwt>
<pdfrwt beam="2">  1       -1 0.16319592E-02 0.79585666E+02</pdfrwt>
<totfact> 0.20276199E+05</totfact>
</mgrwt>
</event>
<event>
 8    1  0.7667702E-014  0.8057375E+02  0.7818608E-02  0.1327431E+00
         -1   -1    0    0    0  501 -0.00000000000E+00  0.00000000000E+00  0.31066444583E+01  0.31066485466E+01  0.50400000000E-02 0.  1.
          2   -1    0    0  501    0  0.00000000000E+00 -0.00000000000E+00 -0.52243871674E+03  0.52243871675E+03  0.25500000000E-02 0. -1.
         24    2    1    2    0    0 -0.71054273576E-14 -0.11102230246E-15 -0.51933207229E+03  0.52554536530E+03  0.80573753049E+02 0.  0.
         66    2    3    3    0    0  0.37227227695E+02  0.29911818746E+00 -0.35982940099E+03  0.36175565479E+03  0.20000004878E+01 0.  0.
        -13    1    3    3    0    0 -0.37227227695E+02 -0.29911818746E+00 -0.15950267129E+03  0.16378971050E+03  0.10566000000E+00 0.  1.
         13    1    4    4    0    0  0.70689848944E+01 -0.13135007378E+00 -0.63802068419E+02  0.64192701290E+02  0.10566000000E+00 0. -1.
        -13    1    4    4    0    0  0.40264225883E+01  0.28680327793E+00 -0.43584224209E+02  0.43770881861E+02  0.10566000000E+00 0.  1.
         14    1    4    4    0    0  0.26131820212E+02  0.14366498331E+00 -0.25244310837E+03  0.25379207164E+03  0.00000000000E+00 0. -1.
<mgrwt>
<rscale>  0 0.80573753E+02</rscale>
<asrwt>0</asrwt>
<pdfrwt beam="1">  1        2 0.80375117E-01 0.80573753E+02</pdfrwt>
<pdfrwt beam="2">  1       -1 0.47794603E-03 0.80573753E+02</pdfrwt>
<totfact> 0.30305000E+05</totfact>
</mgrwt>
</event>
<event>
 8    1  0.7667702E-014  0.7882941E+02  0.7818608E-02  0.1332407E+00
         -1   -1    0    0    0  501 -0.00000000000E+00  0.00000000000E+00  0.87143369222E+01  0.87143383797E+01  0.50400000000E-02 0.  1.
          2   -1    0    0  501    0  0.00000000000E+00 -0.00000000000E+00 -0.17827158811E+03  0.17827158813E+03  0.25500000000E-02 0. -1.
         24    2    1    2    0    0  0.35527136788E-14  0.35527136788E-14 -0.16955725119E+03  0.18698592651E+03  0.78829406200E+02 0.  0.
         66    2    3    3    0    0  0.26831937194E+02  0.11557112473E+02 -0.14750115058E+03  0.15037988274E+03  0.20000022420E+01 0.  0.
        -13    1    3    3    0    0 -0.26831937194E+02 -0.11557112473E+02 -0.22056100614E+02  0.36606043772E+02  0.10566000000E+00 0.  1.
         13    1    4    4    0    0  0.13917520880E+01  0.35881565631E+00 -0.84927917856E+01  0.86141975192E+01  0.10566000000E+00 0. -1.
        -13    1    4    4    0    0  0.75984218469E+01  0.36793975252E+01 -0.39792138598E+02  0.40677996988E+02  0.10566000000E+00 0.  1.
         14    1    4    4    0    0  0.17841763259E+02  0.75188992910E+01 -0.99216220194E+02  0.10108768823E+03  0.00000000000E+00 0. -1.
<mgrwt>
<rscale>  0 0.78829406E+02</rscale>
<asrwt>0</asrwt>
<pdfrwt beam="1">  1        2 0.27426396E-01 0.78829406E+02</pdfrwt>
<pdfrwt beam="2">  1       -1 0.13406675E-02 0.78829406E+02</pdfrwt>
<totfact> 0.22047076E+05</totfact>
</mgrwt>
</event>
<event>
 8    1  0.7667702E-014  0.8769257E+02  0.7818608E-02  0.1308538E+00
          2   -1    0    0  501    0  0.00000000000E+00  0.00000000000E+00  0.22446494179E+02  0.22446494323E+02  0.25500000000E-02 0. -1.
         -1   -1    0    0    0  501 -0.00000000000E+00 -0.00000000000E+00 -0.85647962084E+02  0.85647962232E+02  0.50400000000E-02 0.  1.
         24    2    1    2    0    0  0.41633363423E-16 -0.35527136788E-14 -0.63201467905E+02  0.10809445656E+03  0.87692565207E+02 0.  0.
         66    2    3    3    0    0  0.84552737119E-01 -0.30640807501E+02  0.70029838358E+01  0.31494571166E+02  0.19999992099E+01 0.  0.
        -13    1    3    3    0    0 -0.84552737119E-01  0.30640807501E+02 -0.70204451741E+02  0.76599885390E+02  0.10566000000E+00 0.  1.
         13    1    4    4    0    0 -0.24998209617E+00 -0.41882681572E+01  0.74541428380E+00  0.42627324212E+01  0.10566000000E+00 0. -1.
        -13    1    4    4    0    0  0.12753848107E-01 -0.67409049976E+01  0.89233094501E+00  0.68005427283E+01  0.10566000000E+00 0.  1.
         14    1    4    4    0    0  0.32178098518E+00 -0.19711634346E+02  0.53652386070E+01  0.20431296016E+02  0.00000000000E+00 0. -1.
<mgrwt>
<rscale>  0 0.87692565E+02</rscale>
<asrwt>0</asrwt>
<pdfrwt beam="1">  1        2 0.34533069E-02 0.87692565E+02</pdfrwt>
<pdfrwt beam="2">  1       -1 0.13176609E-01 0.87692565E+02</pdfrwt>
<totfact> 0.97572060E+04</totfact>
</mgrwt>
</event>
<event>
 8    1  0.7667702E-014  0.8095775E+02  0.7818608E-02  0.1326355E+00
          2   -1    0    0  501    0  0.00000000000E+00  0.00000000000E+00  0.41444688628E+03  0.41444688629E+03  0.25500000000E-02 0. -1.
         -1   -1    0    0    0  501 -0.00000000000E+00 -0.00000000000E+00 -0.39535556771E+01  0.39535588896E+01  0.50400000000E-02 0.  1.
         24    2    1    2    0    0  0.17763568394E-14 -0.35527136788E-14  0.41049333060E+03  0.41840044518E+03  0.80957754756E+02 0.  0.
         66    2    3    3    0    0  0.10824117087E+02  0.30959679695E+02  0.32776702821E+03  0.32940990889E+03  0.20000035790E+01 0.  0.
        -13    1    3    3    0    0 -0.10824117087E+02 -0.30959679695E+02  0.82726302397E+02  0.88990536293E+02  0.10566000000E+00 0.  1.
         13    1    4    4    0    0  0.66788594435E+01  0.19895128698E+02  0.20607643531E+03  0.20714229811E+03  0.10566000000E+00 0. -1.
        -13    1    4    4    0    0  0.99910907956E+00  0.29594236057E+01  0.27699903313E+02  0.27875656308E+02  0.10566000000E+00 0.  1.
        -14    1    4    4    0    0  0.31461485644E+01  0.81051273906E+01  0.93990689583E+02  0.94391954472E+02  0.00000000000E+00 0.  1.
<mgrwt>
<rscale>  0 0.80957755E+02</rscale>
<asrwt>0</asrwt>
<pdfrwt beam="1">  1        2 0.63761057E-01 0.80957755E+02</pdfrwt>
<pdfrwt beam="2">  1       -1 0.60823961E-03 0.80957755E+02</pdfrwt>
<totfact> 0.27728658E+05</totfact>
</mgrwt>
</event>
<event>
 8    1  0.7667702E-014  0.7760835E+02  0.7818608E-02  0.1335979E+00
          2   -1    0    0  501    0  0.00000000000E+00  0.00000000000E+00  0.53240263357E+03  0.53240263358E+03  0.25500000000E-02 0. -1.
         -1   -1    0    0    0  501 -0.00000000000E+00 -0.00000000000E+00 -0.28282409594E+01  0.28282454501E+01  0.50400000000E-02 0.  1.
         24    2    1    2    0    0 -0.88817841970E-15  0.88817841970E-15  0.52957439261E+03  0.53523087903E+03  0.77608353637E+02 0.  0.
         66    2    3    3    0    0 -0.76022349958E+01  0.76661825178E+01  0.52182548339E+03  0.52194099229E+03  0.19999964547E+01 0.  0.
        -13    1    3    3    0    0  0.76022349958E+01 -0.76661825178E+01  0.77489092209E+01  0.13289886737E+02  0.10566000000E+00 0.  1.
         13    1    4    4    0    0 -0.37075484026E+01  0.28433875158E+01  0.20707806396E+03  0.20713079565E+03  0.10566000000E+00 0. -1.
        -13    1    4    4    0    0 -0.18926405560E+01  0.21012733685E+01  0.11916955246E+03  0.11920314943E+03  0.10566000000E+00 0.  1.
         14    1    4    4    0    0 -0.20020460372E+01  0.27215216335E+01  0.19557786697E+03  0.19560704721E+03  0.00000000000E+00 0. -1.
<mgrwt>
<rscale>  0 0.77608354E+02</rscale>
<asrwt>0</asrwt>
<pdfrwt beam="1">  1        2 0.81908093E-01 0.77608354E+02</pdfrwt>
<pdfrwt beam="2">  1       -1 0.43511437E-03 0.77608354E+02</pdfrwt>
<totfact> 0.33605825E+05</totfact>
</mgrwt>
</event>
<event>
 8    1  0.7667702E-014  0.7954619E+02  0.7818608E-02  0.1330344E+00
         -1   -1    0    0    0  501 -0.00000000000E+00  0.00000000000E+00  0.42292962163E+02  0.42292962464E+02  0.50400000000E-02 0.  1.
          2   -1    0    0  501    0  0.00000000000E+00 -0.00000000000E+00 -0.37403360546E+02  0.37403360632E+02  0.25500000000E-02 0. -1.
         24    2    1    2    0    0 -0.35527136788E-14  0.35527136788E-14  0.48896016178E+01  0.79696323096E+02  0.79546186025E+02 0.  0.
         66    2    3    3    0    0 -0.20825248425E+02  0.20010664673E+02 -0.24914107072E+02  0.38194637729E+02  0.19999868701E+01 0.  0.
        -13    1    3    3    0    0  0.20825248425E+02 -0.20010664673E+02  0.29803708690E+02  0.41501685367E+02  0.10566000000E+00 0.  1.
         13    1    4    4    0    0 -0.10122375144E+02  0.95910600812E+01 -0.11809994068E+02  0.18273971543E+02  0.10566000000E+00 0. -1.
        -13    1    4    4    0    0 -0.85987042842E+01  0.85834616581E+01 -0.99198620082E+01  0.15685291062E+02  0.10566000000E+00 0.  1.
        -14    1    4    4    0    0 -0.21041689968E+01  0.18361429334E+01 -0.31842509958E+01  0.42353751243E+01  0.00000000000E+00 0.  1.
<mgrwt>
<rscale>  0 0.79546186E+02</rscale>
<asrwt>0</asrwt>
<pdfrwt beam="1">  1        2 0.57543631E-02 0.79546186E+02</pdfrwt>
<pdfrwt beam="2">  1       -1 0.65066096E-02 0.79546186E+02</pdfrwt>
<totfact> 0.14284646E+05</totfact>
</mgrwt>
</event>
<event>
 8    1  0.7667702E-014  0.7841119E+02  0.7818608E-02  0.1333622E+00
          2   -1    0    0  501    0  0.00000000000E+00  0.00000000000E+00  0.24559301928E+03  0.24559301929E+03  0.25500000000E-02 0. -1.
         -1   -1    0    0    0  501 -0.00000000000E+00 -0.00000000000E+00 -0.62586410983E+01  0.62586431276E+01  0.50400000000E-02 0.  1.
         24    2    1    2    0    0  0.00000000000E+00  0.00000000000E+00  0.23933437818E+03  0.25185166242E+03  0.78411193617E+02 0.  0.
         66    2    3    3    0    0 -0.13402143425E+02 -0.50982268023E+00  0.23798577139E+03  0.23837177845E+03  0.20000022104E+01 0.  0.
        -13    1    3    3    0    0  0.13402143425E+02  0.50982268023E+00  0.13486067897E+01  0.13479883971E+02  0.10566000000E+00 0.  1.
         13    1    4    4    0    0 -0.68441931790E+01  0.46149365791E+00  0.12283101406E+03  0.12302245785E+03  0.10566000000E+00 0. -1.
        -13    1    4    4    0    0 -0.57137479628E+01 -0.89138598788E+00  0.94183162229E+02  0.94360588681E+02  0.10566000000E+00 0.  1.
        -14    1    4    4    0    0 -0.84420228341E+00 -0.79930350261E-01  0.20971595101E+02  0.20988731916E+02  0.00000000000E+00 0.  1.
<mgrwt>
<rscale>  0 0.78411194E+02</rscale>
<asrwt>0</asrwt>
<pdfrwt beam="1">  1        2 0.37783546E-01 0.78411194E+02</pdfrwt>
<pdfrwt beam="2">  1       -1 0.96286791E-03 0.78411194E+02</pdfrwt>
<totfact> 0.25000280E+05</totfact>
</mgrwt>
</event>
<event>
 8    1  0.7810015E-014  0.7886188E+02  0.7818608E-02  0.1332313E+00
          2   -1    0    0  501    0  0.00000000000E+00  0.00000000000E+00  0.20873829062E+03  0.20873829064E+03  0.25500000000E-02 0. -1.
         -1   -1    0    0    0  501 -0.00000000000E+00 -0.00000000000E+00 -0.74485568333E+01  0.74485585385E+01  0.50400000000E-02 0.  1.
         24    2    1    2    0    0  0.00000000000E+00  0.00000000000E+00  0.20128973379E+03  0.21618684918E+03  0.78861884506E+02 0.  0.
         66    2    3    3    0    0  0.35208126198E+02 -0.91705735557E+01  0.14220083480E+03  0.14679505775E+03  0.19999980404E+01 0.  0.
        -13    1    3    3    0    0 -0.35208126198E+02  0.91705735557E+01  0.59088898990E+02  0.69391791428E+02  0.10566000000E+00 0.  1.
         13    1    4    4    0    0  0.17187495287E+02 -0.44446126977E+01  0.70220159504E+02  0.72429597134E+02  0.10566000000E+00 0. -1.
        -13    1    4    4    0    0  0.17812773795E+02 -0.47558152115E+01  0.70543501270E+02  0.72913026436E+02  0.10566000000E+00 0.  1.
        -14    1    4    4    0    0  0.20785711546E+00  0.29854353435E-01  0.14371740242E+01  0.14524341770E+01  0.00000000000E+00 0.  1.
<mgrwt>
<rscale>  0 0.78861885E+02</rscale>
<asrwt>0</asrwt>
<pdfrwt beam="1">  1        2 0.32113577E-01 0.78861885E+02</pdfrwt>
<pdfrwt beam="2">  1       -1 0.11459322E-02 0.78861885E+02</pdfrwt>
<totfact> 0.23251329E+05</totfact>
</mgrwt>
</event>
<event>
 8    1  0.7667702E-014  0.8081417E+02  0.7818608E-02  0.1326757E+00
          2   -1    0    0  501    0  0.00000000000E+00  0.00000000000E+00  0.55855196275E+03  0.55855196275E+03  0.25500000000E-02 0. -1.
         -1   -1    0    0    0  501 -0.00000000000E+00 -0.00000000000E+00 -0.29231505410E+01  0.29231548859E+01  0.50400000000E-02 0.  1.
         24    2    1    2    0    0  0.00000000000E+00  0.00000000000E+00  0.55562881221E+03  0.56147511764E+03  0.80814174338E+02 0.  0.
         66    2    3    3    0    0  0.35218362964E+02 -0.16201541413E+02  0.35655941322E+03  0.35866619326E+03  0.19999981032E+01 0.  0.
        -13    1    3    3    0    0 -0.35218362964E+02  0.16201541413E+02  0.19906939898E+03  0.20280892438E+03  0.10566000000E+00 0.  1.
         13    1    4    4    0    0  0.24945760868E+02 -0.11135430001E+02  0.25041645098E+03  0.25190216131E+03  0.10566000000E+00 0. -1.
        -13    1    4    4    0    0  0.55491384062E+01 -0.26566297138E+01  0.52360739130E+02  0.52721046886E+02  0.10566000000E+00 0.  1.
        -14    1    4    4    0    0  0.47234636898E+01 -0.24094816975E+01  0.53782223115E+02  0.54042985062E+02  0.00000000000E+00 0.  1.
<mgrwt>
<rscale>  0 0.80814174E+02</rscale>
<asrwt>0</asrwt>
<pdfrwt beam="1">  1        2 0.85931004E-01 0.80814174E+02</pdfrwt>
<pdfrwt beam="2">  1       -1 0.44971616E-03 0.80814174E+02</pdfrwt>
<totfact> 0.30687647E+05</totfact>
</mgrwt>
</event>
<event>
 8    1  0.7667702E-014  0.7961391E+02  0.7818608E-02  0.1330151E+00
          2   -1    0    0  501    0  0.00000000000E+00  0.00000000000E+00  0.46347340775E+03  0.46347340776E+03  0.25500000000E-02 0. -1.
         -1   -1    0    0    0  501 -0.00000000000E+00 -0.00000000000E+00 -0.34189505188E+01  0.34189542337E+01  0.50400000000E-02 0.  1.
         24    2    1    2    0    0 -0.17763568394E-14  0.00000000000E+00  0.46005445723E+03  0.46689236199E+03  0.79613906241E+02 0.  0.
         66    2    3    3    0    0 -0.11756663515E+02 -0.73701652727E+01  0.44881875583E+03  0.44903765328E+03  0.20000018937E+01 0.  0.
        -13    1    3    3    0    0  0.11756663515E+02  0.73701652727E+01  0.11235701409E+02  0.17854708716E+02  0.10566000000E+00 0.  1.
         13    1    4    4    0    0 -0.29197823602E+01 -0.23854112683E+01  0.12373269484E+03  0.12379017026E+03  0.10566000000E+00 0. -1.
        -13    1    4    4    0    0 -0.76116365006E+01 -0.43414163111E+01  0.29410455000E+03  0.29423508016E+03  0.10566000000E+00 0.  1.
        -14    1    4    4    0    0 -0.12252446539E+01 -0.64333769327E+00  0.30981510987E+02  0.31012402856E+02  0.00000000000E+00 0.  1.
<mgrwt>
<rscale>  0 0.79613906E+02</rscale>
<asrwt>0</asrwt>
<pdfrwt beam="1">  1        2 0.71303595E-01 0.79613906E+02</pdfrwt>
<pdfrwt beam="2">  1       -1 0.52599272E-03 0.79613906E+02</pdfrwt>
<totfact> 0.30086522E+05</totfact>
</mgrwt>
</event>
<event>
 8    1  0.7667702E-014  0.8053765E+02  0.7818608E-02  0.1327533E+00
         -1   -1    0    0    0  501 -0.00000000000E+00  0.00000000000E+00  0.80043493913E+01  0.80043509780E+01  0.50400000000E-02 0.  1.
          2   -1    0    0  501    0  0.00000000000E+00 -0.00000000000E+00 -0.20258711198E+03  0.20258711200E+03  0.25500000000E-02 0. -1.
         24    2    1    2    0    0  0.35527136788E-14  0.35527136788E-14 -0.19458276259E+03  0.21059146298E+03  0.80537648221E+02 0.  0.
         66    2    3    3    0    0 -0.11336643695E+02 -0.26701479781E+02 -0.17028944841E+03  0.17275411647E+03  0.20000010404E+01 0.  0.
        -13    1    3    3    0    0  0.11336643695E+02  0.26701479781E+02 -0.24293314177E+02  0.37837346504E+02  0.10566000000E+00 0.  1.
         13    1    4    4    0    0 -0.83840955456E+01 -0.19447538743E+02 -0.12817730465E+03  0.12991509694E+03  0.10566000000E+00 0. -1.
        -13    1    4    4    0    0 -0.43199179440E+00 -0.16987190685E+01 -0.97974398378E+01  0.99535548824E+01  0.10566000000E+00 0.  1.
        -14    1    4    4    0    0 -0.25205563547E+01 -0.55552219691E+01 -0.32314703930E+02  0.32885464654E+02  0.00000000000E+00 0.  1.
<mgrwt>
<rscale>  0 0.80537648E+02</rscale>
<asrwt>0</asrwt>
<pdfrwt beam="1">  1        2 0.31167244E-01 0.80537648E+02</pdfrwt>
<pdfrwt beam="2">  1       -1 0.12314387E-02 0.80537648E+02</pdfrwt>
<totfact> 0.21769134E+05</totfact>
</mgrwt>
</event>
<event>
 8    1  0.7667702E-014  0.8073986E+02  0.7818608E-02  0.1326965E+00
         -1   -1    0    0    0  501 -0.00000000000E+00  0.00000000000E+00  0.50939134302E+02  0.50939134551E+02  0.50400000000E-02 0.  1.
          2   -1    0    0  501    0  0.00000000000E+00 -0.00000000000E+00 -0.31993696965E+02  0.31993697067E+02  0.25500000000E-02 0. -1.
         24    2    1    2    0    0  0.17763568394E-14  0.00000000000E+00  0.18945437337E+02  0.82932831617E+02  0.80739859823E+02 0.  0.
         66    2    3    3    0    0  0.13423241900E+02 -0.17835225381E+02 -0.25041544971E+02  0.33605917422E+02  0.20000059397E+01 0.  0.
        -13    1    3    3    0    0 -0.13423241900E+02  0.17835225381E+02  0.43986982307E+02  0.49326914195E+02  0.10566000000E+00 0.  1.
         13    1    4    4    0    0  0.27124898415E+01 -0.31306726763E+01 -0.41094764428E+01  0.58358952369E+01  0.10566000000E+00 0. -1.
        -13    1    4    4    0    0  0.49051351883E+00 -0.31081445207E+00 -0.80456703865E+00  0.99784833069E+00  0.10566000000E+00 0.  1.
         14    1    4    4    0    0  0.10220238540E+02 -0.14393738253E+02 -0.20127501489E+02  0.26772173855E+02  0.00000000000E+00 0. -1.
<mgrwt>
<rscale>  0 0.80739860E+02</rscale>
<asrwt>0</asrwt>
<pdfrwt beam="1">  1        2 0.49221073E-02 0.80739860E+02</pdfrwt>
<pdfrwt beam="2">  1       -1 0.78367899E-02 0.80739860E+02</pdfrwt>
<totfact> 0.13281367E+05</totfact>
</mgrwt>
</event>
<event>
 8    1  0.7667702E-014  0.7764709E+02  0.7818608E-02  0.1335864E+00
         -1   -1    0    0    0  501 -0.00000000000E+00  0.00000000000E+00  0.53052731093E+02  0.53052731333E+02  0.50400000000E-02 0.  1.
          2   -1    0    0  501    0  0.00000000000E+00 -0.00000000000E+00 -0.28410748049E+02  0.28410748164E+02  0.25500000000E-02 0. -1.
         24    2    1    2    0    0  0.00000000000E+00  0.35527136788E-14  0.24641983044E+02  0.81463479496E+02  0.77647093721E+02 0.  0.
         66    2    3    3    0    0  0.16819506669E+02  0.19827495661E+02 -0.17882699723E+02  0.31619872111E+02  0.19999935451E+01 0.  0.
        -13    1    3    3    0    0 -0.16819506669E+02 -0.19827495661E+02  0.42524682767E+02  0.49843607385E+02  0.10566000000E+00 0.  1.
         13    1    4    4    0    0  0.98234156806E+01  0.11268214883E+02 -0.10972389071E+02  0.18543911352E+02  0.10566000000E+00 0. -1.
        -13    1    4    4    0    0  0.44151757976E+01  0.60945219255E+01 -0.48796132588E+01  0.89698809588E+01  0.10566000000E+00 0.  1.
        -14    1    4    4    0    0  0.25809151907E+01  0.24647588521E+01 -0.20306973935E+01  0.41060798001E+01  0.00000000000E+00 0.  1.
<mgrwt>
<rscale>  0 0.77647094E+02</rscale>
<asrwt>0</asrwt>
<pdfrwt beam="1">  1        2 0.43708843E-02 0.77647094E+02</pdfrwt>
<pdfrwt beam="2">  1       -1 0.81619587E-02 0.77647094E+02</pdfrwt>
<totfact> 0.14473740E+05</totfact>
</mgrwt>
</event>
<event>
 8    1  0.7667702E-014  0.8040169E+02  0.7818608E-02  0.1327915E+00
          2   -1    0    0  501    0  0.00000000000E+00  0.00000000000E+00  0.19313302841E+02  0.19313303009E+02  0.25500000000E-02 0. -1.
         -1   -1    0    0    0  501 -0.00000000000E+00 -0.00000000000E+00 -0.83678492547E+02  0.83678492698E+02  0.50400000000E-02 0.  1.
         24    2    1    2    0    0  0.00000000000E+00  0.00000000000E+00 -0.64365189706E+02  0.10299179571E+03  0.80401693622E+02 0.  0.
         66    2    3    3    0    0 -0.86081486702E+01 -0.36543541701E+02 -0.13880953474E+02  0.40077568894E+02  0.19999988898E+01 0.  0.
        -13    1    3    3    0    0  0.86081486702E+01  0.36543541701E+02 -0.50484236232E+02  0.62914226813E+02  0.10566000000E+00 0.  1.
         13    1    4    4    0    0 -0.19527044533E+01 -0.90398422370E+01 -0.37441654558E+01  0.99780630058E+01  0.10566000000E+00 0. -1.
        -13    1    4    4    0    0 -0.39317502306E+01 -0.19065281500E+02 -0.72819996079E+01  0.20784183912E+02  0.10566000000E+00 0.  1.
         14    1    4    4    0    0 -0.27236939863E+01 -0.84384179639E+01 -0.28547884101E+01  0.93153219768E+01  0.00000000000E+00 0. -1.
<mgrwt>
<rscale>  0 0.80401694E+02</rscale>
<asrwt>0</asrwt>
<pdfrwt beam="1">  1        2 0.29712774E-02 0.80401694E+02</pdfrwt>
<pdfrwt beam="2">  1       -1 0.12873614E-01 0.80401694E+02</pdfrwt>
<totfact> 0.12151387E+05</totfact>
</mgrwt>
</event>
<event>
 8    1  0.7667702E-014  0.8001383E+02  0.7818608E-02  0.1329012E+00
          2   -1    0    0  501    0  0.00000000000E+00  0.00000000000E+00  0.94453044114E+03  0.94453044114E+03  0.25500000000E-02 0. -1.
         -1   -1    0    0    0  501 -0.00000000000E+00 -0.00000000000E+00 -0.16945453220E+01  0.16945528170E+01  0.50400000000E-02 0.  1.
         24    2    1    2    0    0 -0.17763568394E-14  0.00000000000E+00  0.94283589581E+03  0.94622499396E+03  0.80013828508E+02 0.  0.
         66    2    3    3    0    0 -0.11867518429E+02 -0.19477660516E+02  0.86004564988E+03  0.86035035719E+03  0.19999993540E+01 0.  0.
        -13    1    3    3    0    0  0.11867518429E+02  0.19477660516E+02  0.82790245937E+02  0.85874636763E+02  0.10566000000E+00 0.  1.
         13    1    4    4    0    0 -0.82883516612E+01 -0.14601033658E+02  0.62599036248E+03  0.62621548371E+03  0.10566000000E+00 0. -1.
        -13    1    4    4    0    0 -0.77031890297E-01 -0.48281440284E-01  0.55554713225E+01  0.55572196879E+01  0.10566000000E+00 0.  1.
         14    1    4    4    0    0 -0.35021348775E+01 -0.48283454178E+01  0.22849981607E+03  0.22857765380E+03  0.00000000000E+00 0. -1.
<mgrwt>
<rscale>  0 0.80013829E+02</rscale>
<asrwt>0</asrwt>
<pdfrwt beam="1">  1        2 0.14531261E+00 0.80013829E+02</pdfrwt>
<pdfrwt beam="2">  1       -1 0.26069944E-03 0.80013829E+02</pdfrwt>
<totfact> 0.35092169E+05</totfact>
</mgrwt>
</event>
<event>
 8    1  0.7667702E-014  0.8127297E+02  0.7818608E-02  0.1325477E+00
          2   -1    0    0  501    0  0.00000000000E+00  0.00000000000E+00  0.10690309687E+03  0.10690309690E+03  0.25500000000E-02 0. -1.
         -1   -1    0    0    0  501 -0.00000000000E+00 -0.00000000000E+00 -0.15446922666E+02  0.15446923488E+02  0.50400000000E-02 0.  1.
         24    2    1    2    0    0  0.00000000000E+00  0.00000000000E+00  0.91456174207E+02  0.12235002039E+03  0.81272970224E+02 0.  0.
         66    2    3    3    0    0 -0.53597532823E+01  0.17567668838E+02  0.10028371815E+03  0.10197143752E+03  0.20000001217E+01 0.  0.
        -13    1    3    3    0    0  0.53597532823E+01 -0.17567668838E+02 -0.88275439439E+01  0.20378582869E+02  0.10566000000E+00 0.  1.
         13    1    4    4    0    0 -0.25251984804E+01  0.59853149062E+01  0.33805691523E+02  0.34424360056E+02  0.10566000000E+00 0. -1.
        -13    1    4    4    0    0 -0.20824469751E+01  0.64189001279E+01  0.38230750873E+02  0.38821905422E+02  0.10566000000E+00 0.  1.
        -14    1    4    4    0    0 -0.75210782676E+00  0.51634538035E+01  0.28247275755E+02  0.28725172044E+02  0.00000000000E+00 0.  1.
<mgrwt>
<rscale>  0 0.81272970E+02</rscale>
<asrwt>0</asrwt>
<pdfrwt beam="1">  1        2 0.16446630E-01 0.81272970E+02</pdfrwt>
<pdfrwt beam="2">  1       -1 0.23764498E-02 0.81272970E+02</pdfrwt>
<totfact> 0.17316912E+05</totfact>
</mgrwt>
</event>
<event>
 8    1  0.7667702E-014  0.7908198E+02  0.7818608E-02  0.1331677E+00
          2   -1    0    0  501    0  0.00000000000E+00  0.00000000000E+00  0.63719366727E+03  0.63719366728E+03  0.25500000000E-02 0. -1.
         -1   -1    0    0    0  501 -0.00000000000E+00 -0.00000000000E+00 -0.24537099115E+01  0.24537150876E+01  0.50400000000E-02 0.  1.
         24    2    1    2    0    0  0.35527136788E-14 -0.88817841970E-15  0.63473995736E+03  0.63964738236E+03  0.79081984649E+02 0.  0.
         66    2    3    3    0    0 -0.19745517092E+02  0.47763300081E+01  0.59171889746E+03  0.59207090149E+03  0.20000010631E+01 0.  0.
        -13    1    3    3    0    0  0.19745517092E+02 -0.47763300081E+01  0.43021059898E+02  0.47576480874E+02  0.10566000000E+00 0.  1.
         13    1    4    4    0    0 -0.12989255251E+02  0.30574273553E+01  0.39367070388E+03  0.39389681754E+03  0.10566000000E+00 0. -1.
        -13    1    4    4    0    0 -0.17079321939E+01 -0.17176180068E-01  0.53382543816E+02  0.53409966071E+02  0.10566000000E+00 0.  1.
        -14    1    4    4    0    0 -0.50483296466E+01  0.17360788329E+01  0.14466564977E+03  0.14476411788E+03  0.00000000000E+00 0.  1.
<mgrwt>
<rscale>  0 0.79081985E+02</rscale>
<asrwt>0</asrwt>
<pdfrwt beam="1">  1        2 0.98029676E-01 0.79081985E+02</pdfrwt>
<pdfrwt beam="2">  1       -1 0.37749469E-03 0.79081985E+02</pdfrwt>
<totfact> 0.33685021E+05</totfact>
</mgrwt>
</event>
<event>
 8    1  0.7667702E-014  0.7873893E+02  0.7818608E-02  0.1332669E+00
          2   -1    0    0  501    0  0.00000000000E+00  0.00000000000E+00  0.37985969532E+03  0.37985969533E+03  0.25500000000E-02 0. -1.
         -1   -1    0    0    0  501 -0.00000000000E+00 -0.00000000000E+00 -0.40803337642E+01  0.40803368769E+01  0.50400000000E-02 0.  1.
         24    2    1    2    0    0  0.71054273576E-14  0.00000000000E+00  0.37577936155E+03  0.38394003220E+03  0.78738934198E+02 0.  0.
         66    2    3    3    0    0  0.38228751894E+02 -0.83238749774E+01  0.20824828124E+03  0.21190108777E+03  0.19999983783E+01 0.  0.
        -13    1    3    3    0    0 -0.38228751894E+02  0.83238749774E+01  0.16753108031E+03  0.17203894443E+03  0.10566000000E+00 0.  1.
         13    1    4    4    0    0  0.22883974408E+02 -0.49726648844E+01  0.12111054003E+03  0.12335387205E+03  0.10566000000E+00 0. -1.
        -13    1    4    4    0    0  0.96511114126E+01 -0.17057751355E+01  0.55670459566E+02  0.56526673815E+02  0.10566000000E+00 0.  1.
        -14    1    4    4    0    0  0.56936660732E+01 -0.16454349575E+01  0.31467281648E+02  0.32020541905E+02  0.00000000000E+00 0.  1.
<mgrwt>
<rscale>  0 0.78738934E+02</rscale>
<asrwt>0</asrwt>
<pdfrwt beam="1">  1        2 0.58439955E-01 0.78738934E+02</pdfrwt>
<pdfrwt beam="2">  1       -1 0.62774388E-03 0.78738934E+02</pdfrwt>
<totfact> 0.28920235E+05</totfact>
</mgrwt>
</event>
<event>
 8    1  0.9454591E-014  0.8026584E+02  0.7818608E-02  0.1328299E+00
          2   -1    0    0  501    0  0.00000000000E+00  0.00000000000E+00  0.32424620109E+03  0.32424620110E+03  0.25500000000E-02 0. -1.
         -1   -1    0    0    0  501 -0.00000000000E+00 -0.00000000000E+00 -0.49673703771E+01  0.49673729340E+01  0.50400000000E-02 0.  1.
         24    2    1    2    0    0  0.71054273576E-14 -0.11102230246E-15  0.31927883072E+03  0.32921357404E+03  0.80265843215E+02 0.  0.
         66    2    3    3    0    0  0.32256714704E+02 -0.67704761990E+00  0.25746276322E+03  0.25948415842E+03  0.19999979162E+01 0.  0.
        -13    1    3    3    0    0 -0.32256714704E+02  0.67704761990E+00  0.61816067498E+02  0.69729415614E+02  0.10566000000E+00 0.  1.
         13    1    4    4    0    0  0.13185070600E+02 -0.61187419262E+00  0.10845810866E+03  0.10925837713E+03  0.10566000000E+00 0. -1.
        -13    1    4    4    0    0  0.12199572364E+02 -0.53194493169E+00  0.92295573961E+02  0.93099928400E+02  0.10566000000E+00 0.  1.
        -14    1    4    4    0    0  0.68720717404E+01  0.46677150441E+00  0.56709080603E+02  0.57125852891E+02  0.00000000000E+00 0.  1.
<mgrwt>
<rscale>  0 0.80265843E+02</rscale>
<asrwt>0</asrwt>
<pdfrwt beam="1">  1        2 0.49884022E-01 0.80265843E+02</pdfrwt>
<pdfrwt beam="2">  1       -1 0.76421116E-03 0.80265843E+02</pdfrwt>
<totfact> 0.25993680E+05</totfact>
</mgrwt>
</event>
<event>
 8    1  0.7667702E-014  0.7970041E+02  0.7818608E-02  0.1329904E+00
         -1   -1    0    0    0  501 -0.00000000000E+00  0.00000000000E+00  0.20178011758E+01  0.20178074701E+01  0.50400000000E-02 0.  1.
          2   -1    0    0  501    0  0.00000000000E+00 -0.00000000000E+00 -0.78701337341E+03  0.78701337342E+03  0.25500000000E-02 0. -1.
         24    2    1    2    0    0 -0.17763568394E-14  0.00000000000E+00 -0.78499557224E+03  0.78903118089E+03  0.79700413928E+02 0.  0.
         66    2    3    3    0    0 -0.87423610138E+01 -0.23008954294E+02 -0.70269267629E+03  0.70312647381E+03  0.19999994594E+01 0.  0.
        -13    1    3    3    0    0  0.87423610138E+01  0.23008954294E+02 -0.82302895946E+02  0.85904707082E+02  0.10566000000E+00 0.  1.
         13    1    4    4    0    0 -0.39732667686E+00 -0.25499622524E+01 -0.78533594200E+02  0.78576057154E+02  0.10566000000E+00 0. -1.
        -13    1    4    4    0    0 -0.22591490659E+01 -0.62353616350E+01 -0.18351517285E+03  0.18363500026E+03  0.10566000000E+00 0. -1.
         14    1    4    4    0    0 -0.60858852711E+01 -0.14223630407E+02 -0.44064390924E+03  0.44091541640E+03  0.00000000000E+00 0. -1.
<mgrwt>
<rscale>  0 0.79700414E+02</rscale>
<asrwt>0</asrwt>
<pdfrwt beam="1">  1        2 0.12107874E+00 0.79700414E+02</pdfrwt>
<pdfrwt beam="2">  1       -1 0.31043207E-03 0.79700414E+02</pdfrwt>
<totfact> 0.34602185E+05</totfact>
</mgrwt>
</event>
<event>
 8    1  0.7667702E-014  0.7939703E+02  0.7818608E-02  0.1330771E+00
          2   -1    0    0  501    0  0.00000000000E+00  0.00000000000E+00  0.87112202443E+03  0.87112202444E+03  0.25500000000E-02 0. -1.
         -1   -1    0    0    0  501 -0.00000000000E+00 -0.00000000000E+00 -0.18091255541E+01  0.18091325745E+01  0.50400000000E-02 0.  1.
         24    2    1    2    0    0  0.00000000000E+00  0.00000000000E+00  0.86931289888E+03  0.87293115701E+03  0.79397032210E+02 0.  0.
         66    2    3    3    0    0  0.21477813297E+02 -0.52250015862E+01  0.79714500212E+03  0.79745391811E+03  0.19999994753E+01 0.  0.
        -13    1    3    3    0    0 -0.21477813297E+02  0.52250015862E+01  0.72167896762E+02  0.75477238904E+02  0.10566000000E+00 0.  1.
         13    1    4    4    0    0  0.13203014216E+02 -0.24263036157E+01  0.47886308746E+03  0.47905122297E+03  0.10566000000E+00 0. -1.
        -13    1    4    4    0    0  0.15711976122E+01 -0.36566526853E+00  0.67880461256E+02  0.67899709553E+02  0.10566000000E+00 0.  1.
        -14    1    4    4    0    0  0.67036014691E+01 -0.24330327020E+01  0.25040145340E+03  0.25050298558E+03  0.00000000000E+00 0.  1.
<mgrwt>
<rscale>  0 0.79397032E+02</rscale>
<asrwt>0</asrwt>
<pdfrwt beam="1">  1        2 0.13401895E+00 0.79397032E+02</pdfrwt>
<pdfrwt beam="2">  1       -1 0.27832718E-03 0.79397032E+02</pdfrwt>
<totfact> 0.35501169E+05</totfact>
</mgrwt>
</event>
<event>
 8    1  0.7667702E-014  0.7954748E+02  0.7818608E-02  0.1330341E+00
          2   -1    0    0  501    0  0.00000000000E+00  0.00000000000E+00  0.60326530016E+01  0.60326535406E+01  0.25500000000E-02 0. -1.
         -1   -1    0    0    0  501 -0.00000000000E+00 -0.00000000000E+00 -0.26223128193E+03  0.26223128198E+03  0.50400000000E-02 0.  1.
         24    2    1    2    0    0 -0.71054273576E-14  0.11102230246E-15 -0.25619862893E+03  0.26826393552E+03  0.79547480384E+02 0.  0.
         66    2    3    3    0    0 -0.37037472429E+02  0.52632937878E+00 -0.17680475990E+03  0.18065429570E+03  0.20000108901E+01 0.  0.
        -13    1    3    3    0    0  0.37037472429E+02 -0.52632937878E+00 -0.79393869026E+02  0.87609639821E+02  0.10566000000E+00 0.  1.
         13    1    4    4    0    0 -0.12192683928E+02  0.20391737930E+00 -0.60179280419E+02  0.61402443595E+02  0.10566000000E+00 0. -1.
        -13    1    4    4    0    0 -0.43216866271E+01 -0.22678146360E+00 -0.18164332192E+02  0.18673042954E+02  0.10566000000E+00 0.  1.
        -14    1    4    4    0    0 -0.20523101874E+02  0.54919346308E+00 -0.98461147292E+02  0.10057880915E+03  0.00000000000E+00 0.  1.
<mgrwt>
<rscale>  0 0.79547480E+02</rscale>
<asrwt>0</asrwt>
<pdfrwt beam="1">  1        2 0.92810071E-03 0.79547480E+02</pdfrwt>
<pdfrwt beam="2">  1       -1 0.40343265E-01 0.79547480E+02</pdfrwt>
<totfact> 0.92362710E+04</totfact>
</mgrwt>
</event>
<event>
 8    1  0.7667702E-014  0.8057328E+02  0.7818608E-02  0.1327432E+00
          2   -1    0    0  501    0  0.00000000000E+00  0.00000000000E+00  0.23690535397E+02  0.23690535534E+02  0.25500000000E-02 0. -1.
         -1   -1    0    0    0  501 -0.00000000000E+00 -0.00000000000E+00 -0.68508937844E+02  0.68508938029E+02  0.50400000000E-02 0.  1.
         24    2    1    2    0    0  0.00000000000E+00  0.00000000000E+00 -0.44818402447E+02  0.92199473563E+02  0.80573281722E+02 0.  0.
         66    2    3    3    0    0 -0.11523390487E+02 -0.17901885448E+02  0.16680106063E+02  0.27119954942E+02  0.19999967100E+01 0.  0.
        -13    1    3    3    0    0  0.11523390487E+02  0.17901885448E+02 -0.61498508511E+02  0.65079518621E+02  0.10566000000E+00 0.  1.
         13    1    4    4    0    0 -0.79673047424E+01 -0.11320319796E+02  0.10012633586E+02  0.17084834811E+02  0.10566000000E+00 0. -1.
        -13    1    4    4    0    0 -0.35054553155E+01 -0.65305037559E+01  0.65242165606E+01  0.98748297221E+01  0.10566000000E+00 0.  1.
         14    1    4    4    0    0 -0.50630428590E-01 -0.51061896667E-01  0.14325591644E+00  0.16029040890E+00  0.00000000000E+00 0. -1.
<mgrwt>
<rscale>  0 0.80573282E+02</rscale>
<asrwt>0</asrwt>
<pdfrwt beam="1">  1        2 0.36446978E-02 0.80573282E+02</pdfrwt>
<pdfrwt beam="2">  1       -1 0.10539837E-01 0.80573282E+02</pdfrwt>
<totfact> 0.12585025E+05</totfact>
</mgrwt>
</event>
<event>
 8    1  0.7667702E-014  0.8251149E+02  0.7818608E-02  0.1322072E+00
         -1   -1    0    0    0  501 -0.00000000000E+00  0.00000000000E+00  0.91443369353E+01  0.91443383242E+01  0.50400000000E-02 0.  1.
          2   -1    0    0  501    0  0.00000000000E+00 -0.00000000000E+00 -0.18613008737E+03  0.18613008738E+03  0.25500000000E-02 0. -1.
         24    2    1    2    0    0  0.17763568394E-14 -0.35527136788E-14 -0.17698575043E+03  0.19527442571E+03  0.82511486957E+02 0.  0.
         66    2    3    3    0    0 -0.88677489280E+01  0.29555212715E+02 -0.15326613972E+03  0.15635426813E+03  0.20000018822E+01 0.  0.
        -13    1    3    3    0    0  0.88677489280E+01 -0.29555212715E+02 -0.23719610711E+02  0.38920157579E+02  0.10566000000E+00 0.  1.
         13    1    4    4    0    0 -0.17081952986E+01  0.49062610256E+01 -0.24827622629E+02  0.25365554161E+02  0.10566000000E+00 0. -1.
        -13    1    4    4    0    0 -0.58116199569E+01  0.21844304600E+02 -0.11201499812E+03  0.11427300441E+03  0.10566000000E+00 0.  1.
        -14    1    4    4    0    0 -0.13479336725E+01  0.28046470894E+01 -0.16423518975E+02  0.16715709557E+02  0.00000000000E+00 0.  1.
<mgrwt>
<rscale>  0 0.82511487E+02</rscale>
<asrwt>0</asrwt>
<pdfrwt beam="1">  1        2 0.28635395E-01 0.82511487E+02</pdfrwt>
<pdfrwt beam="2">  1       -1 0.14068213E-02 0.82511487E+02</pdfrwt>
<totfact> 0.19828451E+05</totfact>
</mgrwt>
</event>
<event>
 8    1  0.7667702E-014  0.7976368E+02  0.7818608E-02  0.1329723E+00
         -1   -1    0    0    0  501 -0.00000000000E+00  0.00000000000E+00  0.27238094740E+01  0.27238141369E+01  0.50400000000E-02 0.  1.
          2   -1    0    0  501    0  0.00000000000E+00 -0.00000000000E+00 -0.58394675961E+03  0.58394675962E+03  0.25500000000E-02 0. -1.
         24    2    1    2    0    0 -0.35527136788E-14  0.00000000000E+00 -0.58122295014E+03  0.58667057375E+03  0.79763678089E+02 0.  0.
         66    2    3    3    0    0 -0.23356561014E+02  0.24671346308E+02 -0.44408231676E+03  0.44538445002E+03  0.19999986580E+01 0.  0.
        -13    1    3    3    0    0  0.23356561014E+02 -0.24671346308E+02 -0.13714063338E+03  0.14128612373E+03  0.10566000000E+00 0.  1.
         13    1    4    4    0    0 -0.28612489254E+01  0.29171715123E+01 -0.55061550478E+02  0.55213061318E+02  0.10566000000E+00 0. -1.
        -13    1    4    4    0    0 -0.12155872535E+02  0.12872758899E+02 -0.24183507116E+03  0.24248234156E+03  0.10566000000E+00 0.  1.
        -14    1    4    4    0    0 -0.83394395535E+01  0.88814158960E+01 -0.14718569512E+03  0.14768904715E+03  0.00000000000E+00 0.  1.
<mgrwt>
<rscale>  0 0.79763678E+02</rscale>
<asrwt>0</asrwt>
<pdfrwt beam="1">  1        2 0.89837864E-01 0.79763678E+02</pdfrwt>
<pdfrwt beam="2">  1       -1 0.41904844E-03 0.79763678E+02</pdfrwt>
<totfact> 0.32165168E+05</totfact>
</mgrwt>
</event>
<event>
 8    1  0.7667702E-014  0.7999909E+02  0.7818608E-02  0.1329054E+00
         -1   -1    0    0    0  501 -0.00000000000E+00  0.00000000000E+00  0.15126215800E+02  0.15126216639E+02  0.50400000000E-02 0.  1.
          2   -1    0    0  501    0  0.00000000000E+00 -0.00000000000E+00 -0.10577419913E+03  0.10577419916E+03  0.25500000000E-02 0. -1.
         24    2    1    2    0    0  0.00000000000E+00 -0.35527136788E-14 -0.90647983328E+02  0.12090041580E+03  0.79999085361E+02 0.  0.
         66    2    3    3    0    0  0.15283595394E+02 -0.31577281098E+02 -0.74313738144E+02  0.82202461078E+02  0.19999901775E+01 0.  0.
        -13    1    3    3    0    0 -0.15283595394E+02  0.31577281098E+02 -0.16334245184E+02  0.38697954719E+02  0.10566000000E+00 0.  1.
         13    1    4    4    0    0  0.52864086509E+01 -0.11792022308E+02 -0.28877990012E+02  0.31637752412E+02  0.10566000000E+00 0. -1.
        -13    1    4    4    0    0  0.64694476242E+01 -0.11908899345E+02 -0.28343377320E+02  0.31417094680E+02  0.10566000000E+00 0.  1.
         14    1    4    4    0    0  0.35277391190E+01 -0.78763594454E+01 -0.17092370812E+02  0.19147613986E+02  0.00000000000E+00 0. -1.
<mgrwt>
<rscale>  0 0.79999085E+02</rscale>
<asrwt>0</asrwt>
<pdfrwt beam="1">  1        2 0.16272953E-01 0.79999085E+02</pdfrwt>
<pdfrwt beam="2">  1       -1 0.23271103E-02 0.79999085E+02</pdfrwt>
<totfact> 0.18010095E+05</totfact>
</mgrwt>
</event>
<event>
 8    1  0.7667702E-014  0.7955115E+02  0.7818608E-02  0.1330330E+00
         -1   -1    0    0    0  501 -0.00000000000E+00  0.00000000000E+00  0.37583084162E+01  0.37583117956E+01  0.50400000000E-02 0.  1.
          2   -1    0    0  501    0  0.00000000000E+00 -0.00000000000E+00 -0.42095946235E+03  0.42095946235E+03  0.25500000000E-02 0. -1.
         24    2    1    2    0    0  0.00000000000E+00  0.00000000000E+00 -0.41720115393E+03  0.42471777415E+03  0.79551146051E+02 0.  0.
         66    2    3    3    0    0 -0.22778106728E+02 -0.32205110533E+02 -0.23493088701E+03  0.23822790135E+03  0.20000046419E+01 0.  0.
        -13    1    3    3    0    0  0.22778106728E+02  0.32205110533E+02 -0.18227026692E+03  0.18648987280E+03  0.10566000000E+00 0.  1.
         13    1    4    4    0    0 -0.11957646349E+02 -0.18095630204E+02 -0.12723182142E+03  0.12906736491E+03  0.10566000000E+00 0. -1.
        -13    1    4    4    0    0 -0.82409860483E+01 -0.11115657684E+02 -0.85472529851E+02  0.86585427296E+02  0.10566000000E+00 0.  1.
        -14    1    4    4    0    0 -0.25794743307E+01 -0.29938226451E+01 -0.22226535740E+02  0.22575109144E+02  0.00000000000E+00 0.  1.
<mgrwt>
<rscale>  0 0.79551146E+02</rscale>
<asrwt>0</asrwt>
<pdfrwt beam="1">  1        2 0.64762957E-01 0.79551146E+02</pdfrwt>
<pdfrwt beam="2">  1       -1 0.57820189E-03 0.79551146E+02</pdfrwt>
<totfact> 0.29184113E+05</totfact>
</mgrwt>
</event>
<event>
 8    1  0.7667702E-014  0.7419421E+02  0.7818608E-02  0.1346385E+00
         -1   -1    0    0    0  501 -0.00000000000E+00  0.00000000000E+00  0.14081669615E+01  0.14081759809E+01  0.50400000000E-02 0.  1.
          2   -1    0    0  501    0  0.00000000000E+00 -0.00000000000E+00 -0.97729228379E+03  0.97729228380E+03  0.25500000000E-02 0. -1.
         24    2    1    2    0    0  0.00000000000E+00  0.00000000000E+00 -0.97588411683E+03  0.97870045978E+03  0.74194207888E+02 0.  0.
         66    2    3    3    0    0  0.23426269338E+02  0.30311514941E+01 -0.86515676537E+03  0.86548148831E+03  0.19999916286E+01 0.  0.
        -13    1    3    3    0    0 -0.23426269338E+02 -0.30311514941E+01 -0.11072735147E+03  0.11321897147E+03  0.10566000000E+00 0.  1.
         13    1    4    4    0    0  0.52363387456E+01  0.31778225460E+00 -0.19512520121E+03  0.19519573648E+03  0.10566000000E+00 0. -1.
        -13    1    4    4    0    0  0.58969007449E+01  0.23806362952E+00 -0.20186552470E+03  0.20195180449E+03  0.10566000000E+00 0.  1.
        -14    1    4    4    0    0  0.12293029848E+02  0.24753056100E+01 -0.46816603945E+03  0.46833394733E+03  0.00000000000E+00 0.  1.
<mgrwt>
<rscale>  0 0.74194208E+02</rscale>
<asrwt>0</asrwt>
<pdfrwt beam="1">  1        2 0.15035212E+00 0.74194208E+02</pdfrwt>
<pdfrwt beam="2">  1       -1 0.21664255E-03 0.74194208E+02</pdfrwt>
<totfact> 0.42761350E+05</totfact>
</mgrwt>
</event>
<event>
 8    1  0.7667702E-014  0.7971783E+02  0.7818608E-02  0.1329854E+00
         -1   -1    0    0    0  501 -0.00000000000E+00  0.00000000000E+00  0.25304595545E+01  0.25304645737E+01  0.50400000000E-02 0.  1.
          2   -1    0    0  501    0  0.00000000000E+00 -0.00000000000E+00 -0.62784315491E+03  0.62784315491E+03  0.25500000000E-02 0. -1.
         24    2    1    2    0    0  0.00000000000E+00 -0.44408920985E-15 -0.62531269535E+03  0.63037361949E+03  0.79717834734E+02 0.  0.
         66    2    3    3    0    0 -0.35881862748E+02  0.38229230498E+01 -0.44625516469E+03  0.44771619898E+03  0.20000003958E+01 0.  0.
        -13    1    3    3    0    0  0.35881862748E+02 -0.38229230498E+01 -0.17905753066E+03  0.18265742051E+03  0.10566000000E+00 0.  1.
         13    1    4    4    0    0 -0.91338482872E+01  0.14491142712E+01 -0.12081551209E+03  0.12116899868E+03  0.10566000000E+00 0. -1.
        -13    1    4    4    0    0 -0.64533984935E+01  0.16407275393E+00 -0.79480207206E+02  0.79742007584E+02  0.10566000000E+00 0.  1.
         14    1    4    4    0    0 -0.20294615967E+02  0.22097360247E+01 -0.24595944540E+03  0.24680519271E+03  0.00000000000E+00 0. -1.
<mgrwt>
<rscale>  0 0.79717835E+02</rscale>
<asrwt>0</asrwt>
<pdfrwt beam="1">  1        2 0.96591131E-01 0.79717835E+02</pdfrwt>
<pdfrwt beam="2">  1       -1 0.38930236E-03 0.79717835E+02</pdfrwt>
<totfact> 0.32863187E+05</totfact>
</mgrwt>
</event>
<event>
 8    1  0.7667702E-014  0.7884189E+02  0.7818608E-02  0.1332370E+00
          2   -1    0    0  501    0  0.00000000000E+00  0.00000000000E+00  0.12761156516E+03  0.12761156519E+03  0.25500000000E-02 0. -1.
         -1   -1    0    0    0  501 -0.00000000000E+00 -0.00000000000E+00 -0.12177665629E+02  0.12177666672E+02  0.50400000000E-02 0.  1.
         24    2    1    2    0    0  0.11102230246E-15  0.17763568394E-14  0.11543389953E+03  0.13978923186E+03  0.78841893574E+02 0.  0.
         66    2    3    3    0    0 -0.96361110496E+00 -0.11527156670E+02  0.12452465947E+03  0.12507675526E+03  0.20000007995E+01 0.  0.
        -13    1    3    3    0    0  0.96361110496E+00  0.11527156670E+02 -0.90907599395E+01  0.14712476596E+02  0.10566000000E+00 0.  1.
         13    1    4    4    0    0 -0.35757051443E+00 -0.47560083624E+01  0.51654661425E+02  0.51874489715E+02  0.10566000000E+00 0. -1.
        -13    1    4    4    0    0 -0.44699137260E+00 -0.26809097024E+01  0.36899472323E+02  0.36999585131E+02  0.10566000000E+00 0.  1.
        -14    1    4    4    0    0 -0.15904921794E+00 -0.40902386054E+01  0.35970525724E+02  0.36202680417E+02  0.00000000000E+00 0.  1.
<mgrwt>
<rscale>  0 0.78841894E+02</rscale>
<asrwt>0</asrwt>
<pdfrwt beam="1">  1        2 0.19632549E-01 0.78841894E+02</pdfrwt>
<pdfrwt beam="2">  1       -1 0.18734870E-02 0.78841894E+02</pdfrwt>
<totfact> 0.19790925E+05</totfact>
</mgrwt>
</event>
<event>
 8    1  0.7667702E-014  0.8211096E+02  0.7818608E-02  0.1323165E+00
          2   -1    0    0  501    0  0.00000000000E+00  0.00000000000E+00  0.51094878878E+03  0.51094878879E+03  0.25500000000E-02 0. -1.
         -1   -1    0    0    0  501 -0.00000000000E+00 -0.00000000000E+00 -0.32988658731E+01  0.32988697232E+01  0.50400000000E-02 0.  1.
         24    2    1    2    0    0  0.00000000000E+00  0.88817841970E-15  0.50764992291E+03  0.51424765851E+03  0.82110961845E+02 0.  0.
         66    2    3    3    0    0 -0.20021681257E+02 -0.77261484297E+01  0.47299423623E+03  0.47348506692E+03  0.20000002837E+01 0.  0.
        -13    1    3    3    0    0  0.20021681257E+02  0.77261484297E+01  0.34655686679E+02  0.40762591590E+02  0.10566000000E+00 0.  1.
         13    1    4    4    0    0 -0.10231834211E+02 -0.36075888281E+01  0.22249878994E+03  0.22276316530E+03  0.10566000000E+00 0. -1.
        -13    1    4    4    0    0 -0.63477958158E+01 -0.28724545729E+01  0.15590482593E+03  0.15606047360E+03  0.10566000000E+00 0.  1.
         14    1    4    4    0    0 -0.34420512297E+01 -0.12461050287E+01  0.94590620357E+02  0.94661428015E+02  0.00000000000E+00 0. -1.
<mgrwt>
<rscale>  0 0.82110962E+02</rscale>
<asrwt>0</asrwt>
<pdfrwt beam="1">  1        2 0.78607463E-01 0.82110962E+02</pdfrwt>
<pdfrwt beam="2">  1       -1 0.50751840E-03 0.82110962E+02</pdfrwt>
<totfact> 0.28646652E+05</totfact>
</mgrwt>
</event>
<event>
 8    1  0.7667702E-014  0.7111975E+02  0.7818608E-02  0.1356326E+00
          2   -1    0    0  501    0  0.00000000000E+00  0.00000000000E+00  0.83498849285E+02  0.83498849324E+02  0.25500000000E-02 0. -1.
         -1   -1    0    0    0  501 -0.00000000000E+00 -0.00000000000E+00 -0.15143977581E+02  0.15143978420E+02  0.50400000000E-02 0.  1.
         24    2    1    2    0    0 -0.88817841970E-15  0.00000000000E+00  0.68354871705E+02  0.98642827744E+02  0.71119750981E+02 0.  0.
         66    2    3    3    0    0 -0.49608271156E+01 -0.34392735553E+02  0.44493422266E+02  0.56490129161E+02  0.20000008019E+01 0.  0.
        -13    1    3    3    0    0  0.49608271156E+01  0.34392735553E+02  0.23861449439E+02  0.42152698583E+02  0.10566000000E+00 0.  1.
         13    1    4    4    0    0 -0.87039524833E-01 -0.86767955882E+00  0.81559378967E+00  0.11986663260E+01  0.10566000000E+00 0. -1.
        -13    1    4    4    0    0 -0.22465966901E+01 -0.11310449382E+02  0.14621106816E+02  0.18621530293E+02  0.10566000000E+00 0.  1.
         14    1    4    4    0    0 -0.26271909006E+01 -0.22214606612E+02  0.29056721660E+02  0.36669932541E+02  0.00000000000E+00 0. -1.
<mgrwt>
<rscale>  0 0.71119751E+02</rscale>
<asrwt>0</asrwt>
<pdfrwt beam="1">  1        2 0.12845977E-01 0.71119751E+02</pdfrwt>
<pdfrwt beam="2">  1       -1 0.23298427E-02 0.71119751E+02</pdfrwt>
<totfact> 0.23112718E+05</totfact>
</mgrwt>
</event>
<event>
 8    1  0.7667702E-014  0.8032894E+02  0.7818608E-02  0.1328121E+00
          2   -1    0    0  501    0  0.00000000000E+00  0.00000000000E+00  0.13083077198E+02  0.13083077447E+02  0.25500000000E-02 0. -1.
         -1   -1    0    0    0  501 -0.00000000000E+00 -0.00000000000E+00 -0.12330314386E+03  0.12330314396E+03  0.50400000000E-02 0.  1.
         24    2    1    2    0    0  0.35527136788E-14  0.00000000000E+00 -0.11022006666E+03  0.13638622141E+03  0.80328938095E+02 0.  0.
         66    2    3    3    0    0  0.21128995303E+02 -0.12276517402E+02 -0.10780848862E+01  0.24541996383E+02  0.19999993484E+01 0.  0.
        -13    1    3    3    0    0 -0.21128995303E+02  0.12276517402E+02 -0.10914198177E+03  0.11184422503E+03  0.10566000000E+00 0.  1.
         13    1    4    4    0    0  0.12845956458E+02 -0.72229060890E+01 -0.65562354076E+00  0.14752287143E+02  0.10566000000E+00 0. -1.
        -13    1    4    4    0    0  0.46874263388E+01 -0.34828540919E+01 -0.52858554035E+00  0.58645379200E+01  0.10566000000E+00 0.  1.
         14    1    4    4    0    0  0.35956125064E+01 -0.15707572207E+01  0.10612419489E+00  0.39251713194E+01  0.00000000000E+00 0. -1.
<mgrwt>
<rscale>  0 0.80328938E+02</rscale>
<asrwt>0</asrwt>
<pdfrwt beam="1">  1        2 0.20127812E-02 0.80328938E+02</pdfrwt>
<pdfrwt beam="2">  1       -1 0.18969714E-01 0.80328938E+02</pdfrwt>
<totfact> 0.11197408E+05</totfact>
</mgrwt>
</event>
<event>
 8    1  0.7667702E-014  0.8011827E+02  0.7818608E-02  0.1328716E+00
         -1   -1    0    0    0  501 -0.00000000000E+00  0.00000000000E+00  0.91084199160E+01  0.91084213104E+01  0.50400000000E-02 0.  1.
          2   -1    0    0  501    0  0.00000000000E+00 -0.00000000000E+00 -0.17618137891E+03  0.17618137893E+03  0.25500000000E-02 0. -1.
         24    2    1    2    0    0 -0.88817841970E-15 -0.35527136788E-14 -0.16707295899E+03  0.18528980024E+03  0.80118265367E+02 0.  0.
         66    2    3    3    0    0 -0.49013682038E+01 -0.26358876265E+02 -0.15234672058E+03  0.15470079846E+03  0.20000006609E+01 0.  0.
        -13    1    3    3    0    0  0.49013682038E+01  0.26358876265E+02 -0.14726238410E+02  0.30589001781E+02  0.10566000000E+00 0.  1.
         13    1    4    4    0    0 -0.21975087610E+01 -0.77715587473E+01 -0.43076037428E+02  0.43826730824E+02  0.10566000000E+00 0. -1.
        -13    1    4    4    0    0 -0.23925184536E+01 -0.16579756811E+02 -0.96696685735E+02  0.98137009719E+02  0.10566000000E+00 0.  1.
         14    1    4    4    0    0 -0.31134098921E+00 -0.20075607064E+01 -0.12573997419E+02  0.12737057914E+02  0.00000000000E+00 0. -1.
<mgrwt>
<rscale>  0 0.80118265E+02</rscale>
<asrwt>0</asrwt>
<pdfrwt beam="1">  1        2 0.27104825E-01 0.80118265E+02</pdfrwt>
<pdfrwt beam="2">  1       -1 0.14012956E-02 0.80118265E+02</pdfrwt>
<totfact> 0.21038192E+05</totfact>
</mgrwt>
</event>
<event>
 8    1  0.7667702E-014  0.8141065E+02  0.7818608E-02  0.1325095E+00
         -1   -1    0    0    0  501 -0.00000000000E+00  0.00000000000E+00  0.82742911745E+01  0.82742927095E+01  0.50400000000E-02 0.  1.
          2   -1    0    0  501    0  0.00000000000E+00 -0.00000000000E+00 -0.20024955752E+03  0.20024955754E+03  0.25500000000E-02 0. -1.
         24    2    1    2    0    0  0.00000000000E+00  0.00000000000E+00 -0.19197526635E+03  0.20852385025E+03  0.81410645698E+02 0.  0.
         66    2    3    3    0    0  0.22159313602E+02  0.33122525454E+02 -0.11697700487E+03  0.12359513155E+03  0.20000003895E+01 0.  0.
        -13    1    3    3    0    0 -0.22159313602E+02 -0.33122525454E+02 -0.74998261477E+02  0.84928718702E+02  0.10566000000E+00 0.  1.
         13    1    4    4    0    0  0.19552232317E+02  0.28947504472E+02 -0.10181504416E+03  0.10764089457E+03  0.10566000000E+00 0. -1.
        -13    1    4    4    0    0  0.25917884854E+01  0.40776517638E+01 -0.14480107182E+02  0.15265296574E+02  0.10566000000E+00 0. -1.
         14    1    4    4    0    0  0.15292799435E-01  0.97369218745E-01 -0.68185353216E+00  0.68894039930E+00  0.00000000000E+00 0. -1.
<mgrwt>
<rscale>  0 0.81410646E+02</rscale>
<asrwt>0</asrwt>
<pdfrwt beam="1">  1        2 0.30807621E-01 0.81410646E+02</pdfrwt>
<pdfrwt beam="2">  1       -1 0.12729681E-02 0.81410646E+02</pdfrwt>
<totfact> 0.21072537E+05</totfact>
</mgrwt>
</event>
<event>
 8    1  0.7667702E-014  0.7945079E+02  0.7818608E-02  0.1330617E+00
          2   -1    0    0  501    0  0.00000000000E+00  0.00000000000E+00  0.44055997014E+01  0.44056004394E+01  0.25500000000E-02 0. -1.
         -1   -1    0    0    0  501 -0.00000000000E+00 -0.00000000000E+00 -0.35820474105E+03  0.35820474108E+03  0.50400000000E-02 0.  1.
         24    2    1    2    0    0  0.00000000000E+00  0.00000000000E+00 -0.35379914135E+03  0.36261034152E+03  0.79450785784E+02 0.  0.
         66    2    3    3    0    0 -0.14974313456E+02  0.35378256029E+02 -0.13131453415E+03  0.13683332172E+03  0.19999983468E+01 0.  0.
        -13    1    3    3    0    0  0.14974313456E+02 -0.35378256029E+02 -0.22248460720E+03  0.22577701980E+03  0.10566000000E+00 0.  1.
         13    1    4    4    0    0 -0.29933186488E+01  0.56698525829E+01 -0.21274663954E+02  0.22220028695E+02  0.10566000000E+00 0. -1.
        -13    1    4    4    0    0 -0.72344237777E+01  0.18067662462E+02 -0.64871913545E+02  0.67728529035E+02  0.10566000000E+00 0.  1.
         14    1    4    4    0    0 -0.47465710299E+01  0.11640740984E+02 -0.45167956646E+02  0.46884763994E+02  0.00000000000E+00 0. -1.
<mgrwt>
<rscale>  0 0.79450786E+02</rscale>
<asrwt>0</asrwt>
<pdfrwt beam="1">  1        2 0.67778491E-03 0.79450786E+02</pdfrwt>
<pdfrwt beam="2">  1       -1 0.55108399E-01 0.79450786E+02</pdfrwt>
<totfact> 0.81442703E+04</totfact>
</mgrwt>
</event>
<event>
 8    1  0.7667702E-014  0.7954873E+02  0.7818608E-02  0.1330337E+00
          2   -1    0    0  501    0  0.00000000000E+00  0.00000000000E+00  0.78733989156E+02  0.78733989198E+02  0.25500000000E-02 0. -1.
         -1   -1    0    0    0  501 -0.00000000000E+00 -0.00000000000E+00 -0.20092973643E+02  0.20092974275E+02  0.50400000000E-02 0.  1.
         24    2    1    2    0    0  0.00000000000E+00  0.00000000000E+00  0.58641015513E+02  0.98826963473E+02  0.79548727260E+02 0.  0.
         66    2    3    3    0    0  0.23180515600E+02 -0.29680637420E+02  0.13540263423E+02  0.40070129450E+02  0.19999998556E+01 0.  0.
        -13    1    3    3    0    0 -0.23180515600E+02  0.29680637420E+02  0.45100752091E+02  0.58756834022E+02  0.10566000000E+00 0.  1.
         13    1    4    4    0    0  0.18630313458E+02 -0.23767389790E+02  0.10299136808E+02  0.31907064735E+02  0.10566000000E+00 0. -1.
        -13    1    4    4    0    0  0.98558620533E+00 -0.16429755078E+01  0.10239443755E+01  0.21749424836E+01  0.10566000000E+00 0.  1.
         14    1    4    4    0    0  0.35646159368E+01 -0.42702721225E+01  0.22171822396E+01  0.59881222316E+01  0.00000000000E+00 0. -1.
<mgrwt>
<rscale>  0 0.79548727E+02</rscale>
<asrwt>0</asrwt>
<pdfrwt beam="1">  1        2 0.12112921E-01 0.79548727E+02</pdfrwt>
<pdfrwt beam="2">  1       -1 0.30912268E-02 0.79548727E+02</pdfrwt>
<totfact> 0.16883135E+05</totfact>
</mgrwt>
</event>
<event>
 8    1  0.7667702E-014  0.8160885E+02  0.7818608E-02  0.1324547E+00
         -1   -1    0    0    0  501 -0.00000000000E+00  0.00000000000E+00  0.49122005169E+01  0.49122031025E+01  0.50400000000E-02 0.  1.
          2   -1    0    0  501    0  0.00000000000E+00 -0.00000000000E+00 -0.33895209472E+03  0.33895209473E+03  0.25500000000E-02 0. -1.
         24    2    1    2    0    0  0.00000000000E+00  0.00000000000E+00 -0.33403989420E+03  0.34386429783E+03  0.81608850036E+02 0.  0.
         66    2    3    3    0    0 -0.15751523721E+02 -0.10193429303E+02 -0.31968247987E+03  0.32023882406E+03  0.20000001341E+01 0.  0.
        -13    1    3    3    0    0  0.15751523721E+02  0.10193429303E+02 -0.14357414333E+02  0.23625473770E+02  0.10566000000E+00 0.  1.
         13    1    4    4    0    0 -0.14016257358E+01 -0.12276660745E+01 -0.25062688107E+02  0.25132075479E+02  0.10566000000E+00 0. -1.
        -13    1    4    4    0    0 -0.57862982558E+01 -0.39802066562E+01 -0.12797362616E+03  0.12816623366E+03  0.10566000000E+00 0.  1.
         14    1    4    4    0    0 -0.85635997290E+01 -0.49855565720E+01 -0.16664616560E+03  0.16694051492E+03  0.00000000000E+00 0. -1.
<mgrwt>
<rscale>  0 0.81608850E+02</rscale>
<asrwt>0</asrwt>
<pdfrwt beam="1">  1        2 0.52146458E-01 0.81608850E+02</pdfrwt>
<pdfrwt beam="2">  1       -1 0.75572363E-03 0.81608850E+02</pdfrwt>
<totfact> 0.25287751E+05</totfact>
</mgrwt>
</event>
<event>
 8    1  0.7667702E-014  0.7991990E+02  0.7818608E-02  0.1329279E+00
         -1   -1    0    0    0  501 -0.00000000000E+00  0.00000000000E+00  0.32062507757E+02  0.32062508153E+02  0.50400000000E-02 0.  1.
          2   -1    0    0  501    0  0.00000000000E+00 -0.00000000000E+00 -0.49802640804E+02  0.49802640870E+02  0.25500000000E-02 0. -1.
         24    2    1    2    0    0  0.00000000000E+00  0.00000000000E+00 -0.17740133048E+02  0.81865149022E+02  0.79919899299E+02 0.  0.
         66    2    3    3    0    0 -0.81795667347E+01  0.38568577889E+02 -0.23686595244E+01  0.39548085388E+02  0.19999993813E+01 0.  0.
        -13    1    3    3    0    0  0.81795667347E+01 -0.38568577889E+02 -0.15371473523E+02  0.42317063635E+02  0.10566000000E+00 0.  1.
         13    1    4    4    0    0 -0.31780823260E+01  0.13200697644E+02 -0.70964307962E+00  0.13596815174E+02  0.10566000000E+00 0. -1.
        -13    1    4    4    0    0 -0.12723737932E+01  0.86068919360E+01 -0.11109236739E+01  0.87717067502E+01  0.10566000000E+00 0.  1.
        -14    1    4    4    0    0 -0.37291106155E+01  0.16760988310E+02 -0.54809277095E+00  0.17179563463E+02  0.00000000000E+00 0.  1.
<mgrwt>
<rscale>  0 0.79919899E+02</rscale>
<asrwt>0</asrwt>
<pdfrwt beam="1">  1        2 0.76619447E-02 0.79919899E+02</pdfrwt>
<pdfrwt beam="2">  1       -1 0.49326936E-02 0.79919899E+02</pdfrwt>
<totfact> 0.14971175E+05</totfact>
</mgrwt>
</event>
<event>
 8    1  0.7667702E-014  0.7960708E+02  0.7818608E-02  0.1330170E+00
         -1   -1    0    0    0  501 -0.00000000000E+00  0.00000000000E+00  0.56356050126E+01  0.56356072663E+01  0.50400000000E-02 0.  1.
          2   -1    0    0  501    0  0.00000000000E+00 -0.00000000000E+00 -0.28112716435E+03  0.28112716436E+03  0.25500000000E-02 0. -1.
         24    2    1    2    0    0  0.00000000000E+00  0.00000000000E+00 -0.27549155933E+03  0.28676277162E+03  0.79607084643E+02 0.  0.
         66    2    3    3    0    0 -0.59043609486E+01 -0.89691357258E+01 -0.27580341571E+03  0.27601962067E+03  0.20000011120E+01 0.  0.
        -13    1    3    3    0    0  0.59043609486E+01  0.89691357258E+01  0.31185637971E+00  0.10743150949E+02  0.10566000000E+00 0.  1.
         13    1    4    4    0    0 -0.13426261238E+01 -0.27061120966E+01 -0.86359500447E+02  0.86412384350E+02  0.10566000000E+00 0. -1.
        -13    1    4    4    0    0 -0.34806654561E+01 -0.43990800583E+01 -0.12205837274E+03  0.12218725161E+03  0.10566000000E+00 0.  1.
         14    1    4    4    0    0 -0.10810693688E+01 -0.18639435709E+01 -0.67385542529E+02  0.67419984712E+02  0.00000000000E+00 0. -1.
<mgrwt>
<rscale>  0 0.79607085E+02</rscale>
<asrwt>0</asrwt>
<pdfrwt beam="1">  1        2 0.43250322E-01 0.79607085E+02</pdfrwt>
<pdfrwt beam="2">  1       -1 0.86701655E-03 0.79607085E+02</pdfrwt>
<totfact> 0.25225137E+05</totfact>
</mgrwt>
</event>
<event>
 8    1  0.7667702E-014  0.7953365E+02  0.7818608E-02  0.1330380E+00
          2   -1    0    0  501    0  0.00000000000E+00  0.00000000000E+00  0.71907134341E+03  0.71907134342E+03  0.25500000000E-02 0. -1.
         -1   -1    0    0    0  501 -0.00000000000E+00 -0.00000000000E+00 -0.21992228956E+01  0.21992286707E+01  0.50400000000E-02 0.  1.
         24    2    1    2    0    0  0.35527136788E-14  0.71054273576E-14  0.71687212052E+03  0.72127057209E+03  0.79533646875E+02 0.  0.
         66    2    3    3    0    0  0.22680874647E+02  0.26290075133E+02  0.53399762989E+03  0.53512901141E+03  0.19999999612E+01 0.  0.
        -13    1    3    3    0    0 -0.22680874647E+02 -0.26290075133E+02  0.18287449063E+03  0.18614156068E+03  0.10566000000E+00 0.  1.
         13    1    4    4    0    0  0.55997710208E+01  0.68374764280E+01  0.13540476459E+03  0.13569292523E+03  0.10566000000E+00 0. -1.
        -13    1    4    4    0    0  0.85384063521E+01  0.85353306430E+01  0.18170518714E+03  0.18210585507E+03  0.10566000000E+00 0.  1.
        -14    1    4    4    0    0  0.85426972746E+01  0.10917268062E+02  0.21688767816E+03  0.21733023111E+03  0.00000000000E+00 0.  1.
<mgrwt>
<rscale>  0 0.79533647E+02</rscale>
<asrwt>0</asrwt>
<pdfrwt beam="1">  1        2 0.11062630E+00 0.79533647E+02</pdfrwt>
<pdfrwt beam="2">  1       -1 0.33834261E-03 0.79533647E+02</pdfrwt>
<totfact> 0.34168663E+05</totfact>
</mgrwt>
</event>
<event>
 8    1  0.7667702E-014  0.8009863E+02  0.7818608E-02  0.1328772E+00
         -1   -1    0    0    0  501 -0.00000000000E+00  0.00000000000E+00  0.27527070447E+03  0.27527070452E+03  0.50400000000E-02 0.  1.
          2   -1    0    0  501    0  0.00000000000E+00 -0.00000000000E+00 -0.58268010509E+01  0.58268016089E+01  0.25500000000E-02 0. -1.
         24    2    1    2    0    0  0.71054273576E-14  0.00000000000E+00  0.26944390342E+03  0.28109750613E+03  0.80098632073E+02 0.  0.
         66    2    3    3    0    0 -0.38262726477E+02  0.75399014149E+01  0.10321018784E+03  0.11035048357E+03  0.20000000479E+01 0.  0.
        -13    1    3    3    0    0  0.38262726477E+02 -0.75399014149E+01  0.16623371558E+03  0.17074702256E+03  0.10566000000E+00 0.  1.
         13    1    4    4    0    0 -0.32250373396E+01  0.93719971949E+00  0.93948941715E+01  0.99776956100E+01  0.10566000000E+00 0. -1.
        -13    1    4    4    0    0 -0.82875888355E+01  0.19793731008E+01  0.21133418805E+02  0.22786719839E+02  0.10566000000E+00 0.  1.
         14    1    4    4    0    0 -0.26750100302E+02  0.46233285946E+01  0.72681874861E+02  0.77586068123E+02  0.00000000000E+00 0. -1.
<mgrwt>
<rscale>  0 0.80098632E+02</rscale>
<asrwt>0</asrwt>
<pdfrwt beam="1">  1        2 0.89643100E-03 0.80098632E+02</pdfrwt>
<pdfrwt beam="2">  1       -1 0.42349338E-01 0.80098632E+02</pdfrwt>
<totfact> 0.89118108E+04</totfact>
</mgrwt>
</event>
<event>
 8    1  0.7667702E-014  0.7854788E+02  0.7818608E-02  0.1333224E+00
          2   -1    0    0  501    0  0.00000000000E+00  0.00000000000E+00  0.11932049503E+03  0.11932049506E+03  0.25500000000E-02 0. -1.
         -1   -1    0    0    0  501 -0.00000000000E+00 -0.00000000000E+00 -0.12926883206E+02  0.12926884189E+02  0.50400000000E-02 0.  1.
         24    2    1    2    0    0  0.71054273576E-14 -0.17763568394E-14  0.10639361183E+03  0.13224737925E+03  0.78547875088E+02 0.  0.
         66    2    3    3    0    0 -0.32158878454E+02  0.10627038987E+02  0.86621475074E+02  0.93029067496E+02  0.20000084931E+01 0.  0.
        -13    1    3    3    0    0  0.32158878454E+02 -0.10627038987E+02  0.19772136754E+02  0.39218311755E+02  0.10566000000E+00 0.  1.
         13    1    4    4    0    0 -0.19888007853E+02  0.69803307264E+01  0.53776794948E+02  0.57759957690E+02  0.10566000000E+00 0. -1.
        -13    1    4    4    0    0 -0.10467512360E+02  0.34617754215E+01  0.27650137040E+02  0.29767330187E+02  0.10566000000E+00 0.  1.
        -14    1    4    4    0    0 -0.18033582404E+01  0.18493283916E+00  0.51945430862E+01  0.55017796187E+01  0.00000000000E+00 0.  1.
<mgrwt>
<rscale>  0 0.78547875E+02</rscale>
<asrwt>0</asrwt>
<pdfrwt beam="1">  1        2 0.18356999E-01 0.78547875E+02</pdfrwt>
<pdfrwt beam="2">  1       -1 0.19887514E-02 0.78547875E+02</pdfrwt>
<totfact> 0.19587931E+05</totfact>
</mgrwt>
</event>
<event>
 8    1  0.7667702E-014  0.7918592E+02  0.7818608E-02  0.1331378E+00
         -1   -1    0    0    0  501 -0.00000000000E+00  0.00000000000E+00  0.47621492142E+01  0.47621518813E+01  0.50400000000E-02 0.  1.
          2   -1    0    0  501    0  0.00000000000E+00 -0.00000000000E+00 -0.32917954714E+03  0.32917954715E+03  0.25500000000E-02 0. -1.
         24    2    1    2    0    0  0.00000000000E+00  0.00000000000E+00 -0.32441739793E+03  0.33394169903E+03  0.79185922201E+02 0.  0.
         66    2    3    3    0    0 -0.11611667158E+02 -0.22103749306E+02 -0.29175893844E+03  0.29283217839E+03  0.19999977692E+01 0.  0.
        -13    1    3    3    0    0  0.11611667158E+02  0.22103749306E+02 -0.32658459482E+02  0.41109520641E+02  0.10566000000E+00 0.  1.
         13    1    4    4    0    0 -0.61659129796E+01 -0.11344803643E+02 -0.14414027134E+03  0.14471749044E+03  0.10566000000E+00 0. -1.
        -13    1    4    4    0    0 -0.21900080658E+01 -0.38415322613E+01 -0.60258597059E+02  0.60420718210E+02  0.10566000000E+00 0.  1.
        -14    1    4    4    0    0 -0.32557461130E+01 -0.69174134018E+01 -0.87360070041E+02  0.87693969738E+02  0.00000000000E+00 0.  1.
<mgrwt>
<rscale>  0 0.79185922E+02</rscale>
<asrwt>0</asrwt>
<pdfrwt beam="1">  1        2 0.50642990E-01 0.79185922E+02</pdfrwt>
<pdfrwt beam="2">  1       -1 0.73263881E-03 0.79185922E+02</pdfrwt>
<totfact> 0.27078762E+05</totfact>
</mgrwt>
</event>
<event>
 8    1  0.7667702E-014  0.8166306E+02  0.7818608E-02  0.1324397E+00
         -1   -1    0    0    0  501 -0.00000000000E+00  0.00000000000E+00  0.38262638494E+01  0.38262671688E+01  0.50400000000E-02 0.  1.
          2   -1    0    0  501    0  0.00000000000E+00 -0.00000000000E+00 -0.43572875467E+03  0.43572875468E+03  0.25500000000E-02 0. -1.
         24    2    1    2    0    0  0.00000000000E+00  0.17763568394E-14 -0.43190249082E+03  0.43955502185E+03  0.81663061743E+02 0.  0.
         66    2    3    3    0    0 -0.22827762649E+02 -0.83435615444E+01 -0.39251681813E+03  0.39327366335E+03  0.20000011539E+01 0.  0.
        -13    1    3    3    0    0  0.22827762649E+02  0.83435615444E+01 -0.39385672694E+02  0.46281358497E+02  0.10566000000E+00 0.  1.
         13    1    4    4    0    0 -0.93890408288E+01 -0.39856467225E+01 -0.17553273473E+03  0.17582887019E+03  0.10566000000E+00 0. -1.
        -13    1    4    4    0    0 -0.99781743152E+01 -0.31464718581E+01 -0.16532513776E+03  0.16565589813E+03  0.10566000000E+00 0.  1.
         14    1    4    4    0    0 -0.34605475046E+01 -0.12114429638E+01 -0.51658945637E+02  0.51788895021E+02  0.00000000000E+00 0. -1.
<mgrwt>
<rscale>  0 0.81663062E+02</rscale>
<asrwt>0</asrwt>
<pdfrwt beam="1">  1        2 0.67035154E-01 0.81663062E+02</pdfrwt>
<pdfrwt beam="2">  1       -1 0.58865658E-03 0.81663062E+02</pdfrwt>
<totfact> 0.27577085E+05</totfact>
</mgrwt>
</event>
<event>
 8    1  0.7667702E-014  0.8204678E+02  0.7818608E-02  0.1323341E+00
         -1   -1    0    0    0  501 -0.00000000000E+00  0.00000000000E+00  0.50758260465E+01  0.50758285488E+01  0.50400000000E-02 0.  1.
          2   -1    0    0  501    0  0.00000000000E+00 -0.00000000000E+00 -0.33155553968E+03  0.33155553969E+03  0.25500000000E-02 0. -1.
         24    2    1    2    0    0  0.35527136788E-14 -0.35527136788E-14 -0.32647971364E+03  0.33663136824E+03  0.82046783411E+02 0.  0.
         66    2    3    3    0    0 -0.26342895673E+02  0.20928394141E+02 -0.25946825088E+03  0.26164808252E+03  0.20000085831E+01 0.  0.
        -13    1    3    3    0    0  0.26342895673E+02 -0.20928394141E+02 -0.67011462754E+02  0.74983285725E+02  0.10566000000E+00 0.  1.
         13    1    4    4    0    0 -0.10978393847E+02  0.78742812592E+01 -0.10132358180E+03  0.10222039341E+03  0.10566000000E+00 0. -1.
        -13    1    4    4    0    0 -0.88621195076E+01  0.80734146057E+01 -0.92035172405E+02  0.92812721699E+02  0.10566000000E+00 0.  1.
        -14    1    4    4    0    0 -0.65023823190E+01  0.49806982764E+01 -0.66109496681E+02  0.66614967406E+02  0.00000000000E+00 0.  1.
<mgrwt>
<rscale>  0 0.82046783E+02</rscale>
<asrwt>0</asrwt>
<pdfrwt beam="1">  1        2 0.51008528E-01 0.82046783E+02</pdfrwt>
<pdfrwt beam="2">  1       -1 0.78089677E-03 0.82046783E+02</pdfrwt>
<totfact> 0.24737953E+05</totfact>
</mgrwt>
</event>
<event>
 8    1  0.7667702E-014  0.8248593E+02  0.7818608E-02  0.1322141E+00
         -1   -1    0    0    0  501 -0.00000000000E+00  0.00000000000E+00  0.16287231663E+01  0.16287309643E+01  0.50400000000E-02 0.  1.
          2   -1    0    0  501    0  0.00000000000E+00 -0.00000000000E+00 -0.10443629995E+04  0.10443629995E+04  0.25500000000E-02 0. -1.
         24    2    1    2    0    0  0.00000000000E+00  0.00000000000E+00 -0.10427342763E+04  0.10459917305E+04  0.82485933133E+02 0.  0.
         66    2    3    3    0    0 -0.23410642284E+02  0.65712123144E+01 -0.94372574512E+03  0.94404105896E+03  0.19999995492E+01 0.  0.
        -13    1    3    3    0    0  0.23410642284E+02 -0.65712123144E+01 -0.99008531206E+02  0.10195067150E+03  0.10566000000E+00 0.  1.
         13    1    4    4    0    0 -0.32181739989E+01  0.13883198622E+01 -0.13416973855E+03  0.13421555045E+03  0.10566000000E+00 0. -1.
        -13    1    4    4    0    0 -0.48485758005E+01  0.15387456194E+01 -0.21740464100E+03  0.21746417065E+03  0.10566000000E+00 0.  1.
         14    1    4    4    0    0 -0.15343892485E+02  0.36441468328E+01 -0.59215136557E+03  0.59236133786E+03  0.00000000000E+00 0. -1.
<mgrwt>
<rscale>  0 0.82485933E+02</rscale>
<asrwt>0</asrwt>
<pdfrwt beam="1">  1        2 0.16067070E+00 0.82485933E+02</pdfrwt>
<pdfrwt beam="2">  1       -1 0.25057423E-03 0.82485933E+02</pdfrwt>
<totfact> 0.32573407E+05</totfact>
</mgrwt>
</event>
<event>
 8    1  0.7839712E-014  0.8361560E+02  0.7818608E-02  0.1319093E+00
         -1   -1    0    0    0  501 -0.00000000000E+00  0.00000000000E+00  0.28496893920E+01  0.28496938489E+01  0.50400000000E-02 0.  1.
          2   -1    0    0  501    0  0.00000000000E+00 -0.00000000000E+00 -0.61336178047E+03  0.61336178047E+03  0.25500000000E-02 0. -1.
         24    2    1    2    0    0  0.00000000000E+00 -0.17763568394E-14 -0.61051209108E+03  0.61621147432E+03  0.83615595054E+02 0.  0.
         66    2    3    3    0    0 -0.89393870806E+01  0.14581931587E+02 -0.58637845696E+03  0.58663126421E+03  0.20000001003E+01 0.  0.
        -13    1    3    3    0    0  0.89393870806E+01 -0.14581931587E+02 -0.24133634118E+02  0.29580210107E+02  0.10566000000E+00 0.  1.
         13    1    4    4    0    0 -0.44552406207E+01  0.63841653894E+01 -0.27737147964E+03  0.27748073018E+03  0.10566000000E+00 0. -1.
        -13    1    4    4    0    0 -0.13038387297E+01  0.14140489597E+01 -0.60861510089E+02  0.60891987193E+02  0.10566000000E+00 0.  1.
        -14    1    4    4    0    0 -0.31803077303E+01  0.67837172377E+01 -0.24814546723E+03  0.24825854685E+03  0.00000000000E+00 0.  1.
<mgrwt>
<rscale>  0 0.83615595E+02</rscale>
<asrwt>0</asrwt>
<pdfrwt beam="1">  1        2 0.94363246E-01 0.83615595E+02</pdfrwt>
<pdfrwt beam="2">  1       -1 0.43841458E-03 0.83615595E+02</pdfrwt>
<totfact> 0.28836387E+05</totfact>
</mgrwt>
</event>
<event>
 8    1  0.7667702E-014  0.7926520E+02  0.7818608E-02  0.1331150E+00
         -1   -1    0    0    0  501 -0.00000000000E+00  0.00000000000E+00  0.50519986136E+02  0.50519986387E+02  0.50400000000E-02 0.  1.
          2   -1    0    0  501    0  0.00000000000E+00 -0.00000000000E+00 -0.31091518114E+02  0.31091518218E+02  0.25500000000E-02 0. -1.
         24    2    1    2    0    0  0.00000000000E+00 -0.17763568394E-14  0.19428468022E+02  0.81611504605E+02  0.79265202418E+02 0.  0.
         66    2    3    3    0    0 -0.20287685823E+02  0.95924231391E+01 -0.23882037942E+02  0.32832248065E+02  0.19999997612E+01 0.  0.
        -13    1    3    3    0    0  0.20287685823E+02 -0.95924231391E+01  0.43310505964E+02  0.48779256540E+02  0.10566000000E+00 0.  1.
         13    1    4    4    0    0 -0.94390523465E+01  0.44730927645E+01 -0.10566918778E+02  0.14858506135E+02  0.10566000000E+00 0. -1.
        -13    1    4    4    0    0 -0.37869394611E+01  0.19436526789E+01 -0.38063388235E+01  0.57112236424E+01  0.10566000000E+00 0.  1.
         14    1    4    4    0    0 -0.70616940152E+01  0.31756776958E+01 -0.95087803409E+01  0.12262518288E+02  0.00000000000E+00 0. -1.
<mgrwt>
<rscale>  0 0.79265202E+02</rscale>
<asrwt>0</asrwt>
<pdfrwt beam="1">  1        2 0.47833105E-02 0.79265202E+02</pdfrwt>
<pdfrwt beam="2">  1       -1 0.77723055E-02 0.79265202E+02</pdfrwt>
<totfact> 0.13904692E+05</totfact>
</mgrwt>
</event>
<event>
 8    1  0.7667702E-014  0.8212474E+02  0.7818608E-02  0.1323128E+00
          2   -1    0    0  501    0  0.00000000000E+00  0.00000000000E+00  0.73939664954E+02  0.73939664998E+02  0.25500000000E-02 0. -1.
         -1   -1    0    0    0  501 -0.00000000000E+00 -0.00000000000E+00 -0.22803974521E+02  0.22803975078E+02  0.50400000000E-02 0.  1.
         24    2    1    2    0    0  0.00000000000E+00  0.00000000000E+00  0.51135690433E+02  0.96743640076E+02  0.82124740847E+02 0.  0.
         66    2    3    3    0    0 -0.30069681534E+02 -0.57484119175E+01  0.57776955024E+02  0.65417172888E+02  0.19999974079E+01 0.  0.
        -13    1    3    3    0    0  0.30069681534E+02  0.57484119175E+01 -0.66412645915E+01  0.31326467189E+02  0.10566000000E+00 0.  1.
         13    1    4    4    0    0 -0.39691802988E+01 -0.44728982434E+00  0.75594996882E+01  0.85505356559E+01  0.10566000000E+00 0. -1.
        -13    1    4    4    0    0 -0.20110394525E+02 -0.47779424946E+01  0.39024951886E+02  0.44161235673E+02  0.10566000000E+00 0.  1.
        -14    1    4    4    0    0 -0.59901067104E+01 -0.52317959855E+00  0.11192503450E+02  0.12705401558E+02  0.00000000000E+00 0.  1.
<mgrwt>
<rscale>  0 0.82124741E+02</rscale>
<asrwt>0</asrwt>
<pdfrwt beam="1">  1        2 0.11375333E-01 0.82124741E+02</pdfrwt>
<pdfrwt beam="2">  1       -1 0.35083038E-02 0.82124741E+02</pdfrwt>
<totfact> 0.15245136E+05</totfact>
</mgrwt>
</event>
<event>
 8    1  0.7667702E-014  0.8020303E+02  0.7818608E-02  0.1328476E+00
         -1   -1    0    0    0  501 -0.00000000000E+00  0.00000000000E+00  0.28470530232E+01  0.28470574842E+01  0.50400000000E-02 0.  1.
          2   -1    0    0  501    0  0.00000000000E+00 -0.00000000000E+00 -0.56484029811E+03  0.56484029811E+03  0.25500000000E-02 0. -1.
         24    2    1    2    0    0  0.00000000000E+00  0.71054273576E-14 -0.56199324508E+03  0.56768735560E+03  0.80203031020E+02 0.  0.
         66    2    3    3    0    0  0.17290740006E+02  0.35620745132E+02 -0.32498637567E+03  0.32739571095E+03  0.20000009315E+01 0.  0.
        -13    1    3    3    0    0 -0.17290740006E+02 -0.35620745132E+02 -0.23700686941E+03  0.24029164464E+03  0.10566000000E+00 0.  1.
         13    1    4    4    0    0  0.61592080508E+01  0.12686016215E+02 -0.11803050205E+03  0.11887001905E+03  0.10566000000E+00 0. -1.
        -13    1    4    4    0    0  0.53555265728E+01  0.10550797936E+02 -0.90145659682E+02  0.90918931612E+02  0.10566000000E+00 0.  1.
        -14    1    4    4    0    0  0.57760053826E+01  0.12383930981E+02 -0.11681021394E+03  0.11760676029E+03  0.00000000000E+00 0.  1.
<mgrwt>
<rscale>  0 0.80203031E+02</rscale>
<asrwt>0</asrwt>
<pdfrwt beam="1">  1        2 0.86898418E-01 0.80203031E+02</pdfrwt>
<pdfrwt beam="2">  1       -1 0.43800895E-03 0.80203031E+02</pdfrwt>
<totfact> 0.31404266E+05</totfact>
</mgrwt>
</event>
<event>
 8    1  0.7667702E-014  0.8011846E+02  0.7818608E-02  0.1328716E+00
          2   -1    0    0  501    0  0.00000000000E+00  0.00000000000E+00  0.55316876029E+03  0.55316876030E+03  0.25500000000E-02 0. -1.
         -1   -1    0    0    0  501 -0.00000000000E+00 -0.00000000000E+00 -0.29009968271E+01  0.29010012052E+01  0.50400000000E-02 0.  1.
         24    2    1    2    0    0  0.71054273576E-14  0.00000000000E+00  0.55026776346E+03  0.55606976150E+03  0.80118463224E+02 0.  0.
         66    2    3    3    0    0  0.23544454724E+02  0.17236287795E+02  0.46554629572E+03  0.46646412984E+03  0.20000003478E+01 0.  0.
        -13    1    3    3    0    0 -0.23544454724E+02 -0.17236287795E+02  0.84721467738E+02  0.89605631658E+02  0.10566000000E+00 0.  1.
         13    1    4    4    0    0  0.42967272187E+01  0.24891989001E+01  0.79971580168E+02  0.80125668637E+02  0.10566000000E+00 0. -1.
        -13    1    4    4    0    0  0.74367273463E+00  0.33935553676E+00  0.11795931416E+02  0.11824693371E+02  0.10566000000E+00 0.  1.
         14    1    4    4    0    0  0.18504054771E+02  0.14407733358E+02  0.37377878414E+03  0.37451376783E+03  0.00000000000E+00 0. -1.
<mgrwt>
<rscale>  0 0.80118463E+02</rscale>
<asrwt>0</asrwt>
<pdfrwt beam="1">  1        2 0.85102857E-01 0.80118463E+02</pdfrwt>
<pdfrwt beam="2">  1       -1 0.44630770E-03 0.80118463E+02</pdfrwt>
<totfact> 0.31296285E+05</totfact>
</mgrwt>
</event>
<event>
 8    1  0.7667702E-014  0.7884606E+02  0.7818608E-02  0.1332358E+00
         -1   -1    0    0    0  501 -0.00000000000E+00  0.00000000000E+00  0.18401217644E+02  0.18401218335E+02  0.50400000000E-02 0.  1.
          2   -1    0    0  501    0  0.00000000000E+00 -0.00000000000E+00 -0.84460454688E+02  0.84460454726E+02  0.25500000000E-02 0. -1.
         24    2    1    2    0    0  0.00000000000E+00  0.00000000000E+00 -0.66059237043E+02  0.10286167306E+03  0.78846058786E+02 0.  0.
         66    2    3    3    0    0 -0.24642714324E+02  0.29913355805E+02 -0.42284691063E+02  0.57393965560E+02  0.19999899029E+01 0.  0.
        -13    1    3    3    0    0  0.24642714324E+02 -0.29913355805E+02 -0.23774545981E+02  0.45467707501E+02  0.10566000000E+00 0.  1.
         13    1    4    4    0    0 -0.13478393807E+02  0.15319652932E+02 -0.21871220457E+02  0.29911875800E+02  0.10566000000E+00 0.  1.
        -13    1    4    4    0    0 -0.17334277709E+01  0.28549738881E+01 -0.36444577829E+01  0.49445813074E+01  0.10566000000E+00 0. -1.
         14    1    4    4    0    0 -0.94308927467E+01  0.11738728985E+02 -0.16769012823E+02  0.22537508452E+02  0.00000000000E+00 0. -1.
<mgrwt>
<rscale>  0 0.78846059E+02</rscale>
<asrwt>0</asrwt>
<pdfrwt beam="1">  1        2 0.12993916E-01 0.78846059E+02</pdfrwt>
<pdfrwt beam="2">  1       -1 0.28309567E-02 0.78846059E+02</pdfrwt>
<totfact> 0.17607057E+05</totfact>
</mgrwt>
</event>
<event>
 8    1  0.7667702E-014  0.8017644E+02  0.7818608E-02  0.1328551E+00
         -1   -1    0    0    0  501 -0.00000000000E+00  0.00000000000E+00  0.18183828555E+03  0.18183828562E+03  0.50400000000E-02 0.  1.
          2   -1    0    0  501    0  0.00000000000E+00 -0.00000000000E+00 -0.88378812496E+01  0.88378816175E+01  0.25500000000E-02 0. -1.
         24    2    1    2    0    0  0.00000000000E+00  0.17763568394E-14  0.17300040430E+03  0.19067616724E+03  0.80176435841E+02 0.  0.
         66    2    3    3    0    0  0.37872354536E+02  0.90227678460E+01  0.10903198253E+03  0.11579161793E+03  0.19999974404E+01 0.  0.
        -13    1    3    3    0    0 -0.37872354536E+02 -0.90227678460E+01  0.63968421767E+02  0.74884549309E+02  0.10566000000E+00 0.  1.
         13    1    4    4    0    0  0.11717551914E+02  0.29433844626E+01  0.32780285167E+02  0.34935981375E+02  0.10566000000E+00 0. -1.
        -13    1    4    4    0    0  0.36964169566E+00  0.12559497241E+00  0.16635667716E+01  0.17120243922E+01  0.10566000000E+00 0.  1.
        -14    1    4    4    0    0  0.25785160926E+02  0.59537884110E+01  0.74588130594E+02  0.79143612162E+02  0.00000000000E+00 0.  1.
<mgrwt>
<rscale>  0 0.80176436E+02</rscale>
<asrwt>0</asrwt>
<pdfrwt beam="1">  1        2 0.13596741E-02 0.80176436E+02</pdfrwt>
<pdfrwt beam="2">  1       -1 0.27975120E-01 0.80176436E+02</pdfrwt>
<totfact> 0.10185616E+05</totfact>
</mgrwt>
</event>
<event>
 8    1  0.7667702E-014  0.8074034E+02  0.7818608E-02  0.1326963E+00
          2   -1    0    0  501    0  0.00000000000E+00  0.00000000000E+00  0.25450316362E+03  0.25450316363E+03  0.25500000000E-02 0. -1.
         -1   -1    0    0    0  501 -0.00000000000E+00 -0.00000000000E+00 -0.64036542769E+01  0.64036562603E+01  0.50400000000E-02 0.  1.
         24    2    1    2    0    0 -0.35527136788E-14  0.00000000000E+00  0.24809950934E+03  0.26090681989E+03  0.80740337690E+02 0.  0.
         66    2    3    3    0    0 -0.12868171054E+02 -0.21280528189E+01  0.24749808001E+03  0.24784958755E+03  0.20000008305E+01 0.  0.
        -13    1    3    3    0    0  0.12868171054E+02  0.21280528189E+01  0.60142932541E+00  0.13057232339E+02  0.10566000000E+00 0.  1.
         13    1    4    4    0    0 -0.46787333469E+01 -0.37959477483E+00  0.81933975480E+02  0.82068399155E+02  0.10566000000E+00 0. -1.
        -13    1    4    4    0    0 -0.52005627657E+01 -0.16493029107E+01  0.99689143240E+02  0.99838381883E+02  0.10566000000E+00 0.  1.
         14    1    4    4    0    0 -0.29888749415E+01 -0.99155133352E-01  0.65874961294E+02  0.65942806511E+02  0.00000000000E+00 0. -1.
<mgrwt>
<rscale>  0 0.80740338E+02</rscale>
<asrwt>0</asrwt>
<pdfrwt beam="1">  1        2 0.39154325E-01 0.80740338E+02</pdfrwt>
<pdfrwt beam="2">  1       -1 0.98517795E-03 0.80740338E+02</pdfrwt>
<totfact> 0.23446741E+05</totfact>
</mgrwt>
</event>
<event>
 8    1  0.7667702E-014  0.7833675E+02  0.7818608E-02  0.1333839E+00
         -1   -1    0    0    0  501 -0.00000000000E+00  0.00000000000E+00  0.10939578004E+02  0.10939579165E+02  0.50400000000E-02 0.  1.
          2   -1    0    0  501    0  0.00000000000E+00 -0.00000000000E+00 -0.14023956872E+03  0.14023956874E+03  0.25500000000E-02 0. -1.
         24    2    1    2    0    0 -0.17763568394E-14  0.00000000000E+00 -0.12929999071E+03  0.15117914790E+03  0.78336754865E+02 0.  0.
         66    2    3    3    0    0 -0.14634927563E+02  0.12203449018E+02 -0.13067670390E+03  0.13207386654E+03  0.20000021040E+01 0.  0.
        -13    1    3    3    0    0  0.14634927563E+02 -0.12203449018E+02  0.13767131872E+01  0.19105281363E+02  0.10566000000E+00 0.  1.
         13    1    4    4    0    0 -0.11918703834E+02  0.95548908256E+01 -0.10069007201E+03  0.10184229576E+03  0.10566000000E+00 0. -1.
        -13    1    4    4    0    0 -0.95069458378E+00  0.11870729080E+01 -0.13672212375E+02  0.13756944338E+02  0.10566000000E+00 0.  1.
         14    1    4    4    0    0 -0.17655291455E+01  0.14614852841E+01 -0.16314419513E+02  0.16474626443E+02  0.00000000000E+00 0. -1.
<mgrwt>
<rscale>  0 0.78336755E+02</rscale>
<asrwt>0</asrwt>
<pdfrwt beam="1">  1        2 0.21575317E-01 0.78336755E+02</pdfrwt>
<pdfrwt beam="2">  1       -1 0.16830122E-02 0.78336755E+02</pdfrwt>
<totfact> 0.20728986E+05</totfact>
</mgrwt>
</event>
<event>
 8    1  0.7667702E-014  0.8016035E+02  0.7818608E-02  0.1328597E+00
          2   -1    0    0  501    0  0.00000000000E+00  0.00000000000E+00  0.44003079944E+03  0.44003079945E+03  0.25500000000E-02 0. -1.
         -1   -1    0    0    0  501 -0.00000000000E+00 -0.00000000000E+00 -0.36506981752E+01  0.36507016543E+01  0.50400000000E-02 0.  1.
         24    2    1    2    0    0  0.00000000000E+00  0.00000000000E+00  0.43638010127E+03  0.44368150111E+03  0.80160349550E+02 0.  0.
         66    2    3    3    0    0  0.17759039829E+02 -0.26609798963E+02  0.35173332053E+03  0.35319087424E+03  0.19999952730E+01 0.  0.
        -13    1    3    3    0    0 -0.17759039829E+02  0.26609798963E+02  0.84646780741E+02  0.90490626865E+02  0.10566000000E+00 0.  1.
         13    1    4    4    0    0  0.98197453621E+01 -0.14244587328E+02  0.18932825053E+03  0.19011715673E+03  0.10566000000E+00 0. -1.
        -13    1    4    4    0    0  0.92904004274E+00 -0.81237239094E+00  0.13361992058E+02  0.13419279418E+02  0.10566000000E+00 0.  1.
         14    1    4    4    0    0  0.70102544239E+01 -0.11552839244E+02  0.14904307793E+03  0.14965443810E+03  0.00000000000E+00 0. -1.
<mgrwt>
<rscale>  0 0.80160350E+02</rscale>
<asrwt>0</asrwt>
<pdfrwt beam="1">  1        2 0.67697047E-01 0.80160350E+02</pdfrwt>
<pdfrwt beam="2">  1       -1 0.56164614E-03 0.80160350E+02</pdfrwt>
<totfact> 0.29044939E+05</totfact>
</mgrwt>
</event>
<event>
 8    1  0.7667702E-014  0.7854862E+02  0.7818608E-02  0.1333221E+00
          2   -1    0    0  501    0  0.00000000000E+00  0.00000000000E+00  0.13531045897E+04  0.13531045897E+04  0.25500000000E-02 0. -1.
         -1   -1    0    0    0  501 -0.00000000000E+00 -0.00000000000E+00 -0.11399442795E+01  0.11399554211E+01  0.50400000000E-02 0.  1.
         24    2    1    2    0    0  0.17763568394E-14 -0.17763568394E-14  0.13519646454E+04  0.13542445451E+04  0.78548618893E+02 0.  0.
         66    2    3    3    0    0  0.82174154363E+01 -0.70009096860E+01  0.13270020674E+04  0.13270474843E+04  0.20000007115E+01 0.  0.
        -13    1    3    3    0    0 -0.82174154363E+01  0.70009096860E+01  0.24962578007E+02  0.27197060828E+02  0.10566000000E+00 0.  1.
         13    1    4    4    0    0  0.29625072496E+01 -0.19838978086E+01  0.45654510184E+03  0.45655903613E+03  0.10566000000E+00 0. -1.
        -13    1    4    4    0    0  0.19140051851E+01 -0.20094671802E+01  0.41529764827E+03  0.41530693372E+03  0.10566000000E+00 0.  1.
         14    1    4    4    0    0  0.33409030016E+01 -0.30075446973E+01  0.45515931733E+03  0.45518151446E+03  0.00000000000E+00 0. -1.
<mgrwt>
<rscale>  0 0.78548619E+02</rscale>
<asrwt>0</asrwt>
<pdfrwt beam="1">  1        2 0.20817160E+00 0.78548619E+02</pdfrwt>
<pdfrwt beam="2">  1       -1 0.17537550E-03 0.78548619E+02</pdfrwt>
<totfact> 0.35987579E+05</totfact>
</mgrwt>
</event>
<event>
 8    1  0.7667702E-014  0.8159113E+02  0.7818608E-02  0.1324596E+00
          2   -1    0    0  501    0  0.00000000000E+00  0.00000000000E+00  0.23457855360E+02  0.23457855498E+02  0.25500000000E-02 0. -1.
         -1   -1    0    0    0  501 -0.00000000000E+00 -0.00000000000E+00 -0.70947588136E+02  0.70947588315E+02  0.50400000000E-02 0.  1.
         24    2    1    2    0    0  0.00000000000E+00 -0.88817841970E-15 -0.47489732776E+02  0.94405443813E+02  0.81591133724E+02 0.  0.
         66    2    3    3    0    0  0.23996730229E+02 -0.63695776056E+01  0.13659768539E+02  0.28407813131E+02  0.19999974444E+01 0.  0.
        -13    1    3    3    0    0 -0.23996730229E+02  0.63695776056E+01 -0.61149501315E+02  0.65997630682E+02  0.10566000000E+00 0.  1.
         13    1    4    4    0    0  0.10221337626E+02 -0.26825097763E+01  0.53945145611E+01  0.11865224522E+02  0.10566000000E+00 0. -1.
        -13    1    4    4    0    0  0.19278993005E+01 -0.73512377283E+00  0.71121819355E+00  0.21849938280E+01  0.10566000000E+00 0.  1.
        -14    1    4    4    0    0  0.11847493303E+02 -0.29519440565E+01  0.75540357843E+01  0.14357594781E+02  0.00000000000E+00 0.  1.
<mgrwt>
<rscale>  0 0.81591134E+02</rscale>
<asrwt>0</asrwt>
<pdfrwt beam="1">  1        2 0.36089009E-02 0.81591134E+02</pdfrwt>
<pdfrwt beam="2">  1       -1 0.10915013E-01 0.81591134E+02</pdfrwt>
<totfact> 0.12118886E+05</totfact>
</mgrwt>
</event>
<event>
 8    1  0.7667702E-014  0.8006873E+02  0.7818608E-02  0.1328857E+00
         -1   -1    0    0    0  501 -0.00000000000E+00  0.00000000000E+00  0.92312890321E+01  0.92312904079E+01  0.50400000000E-02 0.  1.
          2   -1    0    0  501    0  0.00000000000E+00 -0.00000000000E+00 -0.17362149167E+03  0.17362149169E+03  0.25500000000E-02 0. -1.
         24    2    1    2    0    0  0.00000000000E+00  0.88817841970E-15 -0.16439020264E+03  0.18285278210E+03  0.80068727960E+02 0.  0.
         66    2    3    3    0    0 -0.22278110046E+02 -0.56323362071E+01 -0.15704241729E+03  0.15872730776E+03  0.20000007859E+01 0.  0.
        -13    1    3    3    0    0  0.22278110046E+02  0.56323362071E+01 -0.73477853511E+01  0.24125474336E+02  0.10566000000E+00 0.  1.
         13    1    4    4    0    0 -0.96284308680E+01 -0.21571514964E+01 -0.68282509645E+02  0.68991827567E+02  0.10566000000E+00 0. -1.
        -13    1    4    4    0    0 -0.42257925866E+00 -0.31178356868E+00 -0.25777321736E+01  0.26328025786E+01  0.10566000000E+00 0.  1.
        -14    1    4    4    0    0 -0.12227099919E+02 -0.31634011421E+01 -0.86182175469E+02  0.87102677616E+02  0.00000000000E+00 0.  1.
<mgrwt>
<rscale>  0 0.80068728E+02</rscale>
<asrwt>0</asrwt>
<pdfrwt beam="1">  1        2 0.26710996E-01 0.80068728E+02</pdfrwt>
<pdfrwt beam="2">  1       -1 0.14201986E-02 0.80068728E+02</pdfrwt>
<totfact> 0.20969269E+05</totfact>
</mgrwt>
</event>
<event>
 8    1  0.7667702E-014  0.7970897E+02  0.7818608E-02  0.1329879E+00
         -1   -1    0    0    0  501 -0.00000000000E+00  0.00000000000E+00  0.19910904227E+03  0.19910904233E+03  0.50400000000E-02 0.  1.
          2   -1    0    0  501    0  0.00000000000E+00 -0.00000000000E+00 -0.79774371993E+01  0.79774376069E+01  0.25500000000E-02 0. -1.
         24    2    1    2    0    0  0.00000000000E+00  0.00000000000E+00  0.19113160507E+03  0.20708647994E+03  0.79708968864E+02 0.  0.
         66    2    3    3    0    0 -0.37902897211E+02 -0.61880209155E+01  0.68197941172E+02  0.78293552715E+02  0.19999991985E+01 0.  0.
        -13    1    3    3    0    0  0.37902897211E+02  0.61880209155E+01  0.12293366390E+03  0.12879292723E+03  0.10566000000E+00 0.  1.
         13    1    4    4    0    0 -0.95433703646E+01 -0.19303203138E+01  0.18277744211E+02  0.20709639106E+02  0.10566000000E+00 0. -1.
        -13    1    4    4    0    0 -0.20604301745E+02 -0.27946811320E+01  0.35259189421E+02  0.40933715880E+02  0.10566000000E+00 0.  1.
        -14    1    4    4    0    0 -0.77552251011E+01 -0.14630194698E+01  0.14661007539E+02  0.16650197729E+02  0.00000000000E+00 0.  1.
<mgrwt>
<rscale>  0 0.79708969E+02</rscale>
<asrwt>0</asrwt>
<pdfrwt beam="1">  1        2 0.12272981E-02 0.79708969E+02</pdfrwt>
<pdfrwt beam="2">  1       -1 0.30632159E-01 0.79708969E+02</pdfrwt>
<totfact> 0.10066771E+05</totfact>
</mgrwt>
</event>
<event>
 8    1  0.7667702E-014  0.8441969E+02  0.7818608E-02  0.1316957E+00
         -1   -1    0    0    0  501 -0.00000000000E+00  0.00000000000E+00  0.38373354350E+03  0.38373354353E+03  0.50400000000E-02 0.  1.
          2   -1    0    0  501    0  0.00000000000E+00 -0.00000000000E+00 -0.46429899093E+01  0.46429906096E+01  0.25500000000E-02 0. -1.
         24    2    1    2    0    0  0.00000000000E+00  0.00000000000E+00  0.37909055359E+03  0.38837653414E+03  0.84419692317E+02 0.  0.
         66    2    3    3    0    0 -0.36877939763E+02  0.17645512865E+02  0.14177043488E+03  0.14756084430E+03  0.19999997555E+01 0.  0.
        -13    1    3    3    0    0  0.36877939763E+02 -0.17645512865E+02  0.23732011871E+03  0.24081568985E+03  0.10566000000E+00 0.  1.
         13    1    4    4    0    0 -0.14320960008E+02  0.71065838735E+01  0.54786725019E+02  0.57071795418E+02  0.10566000000E+00 0. -1.
        -13    1    4    4    0    0 -0.12877674202E+02  0.54957869243E+01  0.46824363450E+02  0.48873002192E+02  0.10566000000E+00 0.  1.
        -14    1    4    4    0    0 -0.96793055531E+01  0.50431420669E+01  0.40159346407E+02  0.41616046685E+02  0.00000000000E+00 0.  1.
<mgrwt>
<rscale>  0 0.84419692E+02</rscale>
<asrwt>0</asrwt>
<pdfrwt beam="1">  1        2 0.71430627E-03 0.84419692E+02</pdfrwt>
<pdfrwt beam="2">  1       -1 0.59035924E-01 0.84419692E+02</pdfrwt>
<totfact> 0.67391426E+04</totfact>
</mgrwt>
</event>
<event>
 8    1  0.7667702E-014  0.8137994E+02  0.7818608E-02  0.1325180E+00
          2   -1    0    0  501    0  0.00000000000E+00  0.00000000000E+00  0.34505371355E+03  0.34505371356E+03  0.25500000000E-02 0. -1.
         -1   -1    0    0    0  501 -0.00000000000E+00 -0.00000000000E+00 -0.47983057434E+01  0.47983083903E+01  0.50400000000E-02 0.  1.
         24    2    1    2    0    0 -0.35527136788E-14  0.35527136788E-14  0.34025540781E+03  0.34985202195E+03  0.81379940531E+02 0.  0.
         66    2    3    3    0    0 -0.21428324569E+02  0.21002815451E+02  0.28822780527E+03  0.28979226887E+03  0.20000034260E+01 0.  0.
        -13    1    3    3    0    0  0.21428324569E+02 -0.21002815451E+02  0.52027602541E+02  0.60059753087E+02  0.10566000000E+00 0.  1.
         13    1    4    4    0    0 -0.11705351129E+02  0.11491052067E+02  0.15331444745E+03  0.15418946294E+03  0.10566000000E+00 0. -1.
        -13    1    4    4    0    0 -0.41640193140E+01  0.39924393026E+01  0.51378670962E+02  0.51701621080E+02  0.10566000000E+00 0.  1.
         14    1    4    4    0    0 -0.55589541261E+01  0.55193240806E+01  0.83534686857E+02  0.83901184840E+02  0.00000000000E+00 0. -1.
<mgrwt>
<rscale>  0 0.81379941E+02</rscale>
<asrwt>0</asrwt>
<pdfrwt beam="1">  1        2 0.53085209E-01 0.81379941E+02</pdfrwt>
<pdfrwt beam="2">  1       -1 0.73820078E-03 0.81379941E+02</pdfrwt>
<totfact> 0.25638300E+05</totfact>
</mgrwt>
</event>
<event>
 8    1  0.7667702E-014  0.7932200E+02  0.7818608E-02  0.1330987E+00
         -1   -1    0    0    0  501 -0.00000000000E+00  0.00000000000E+00  0.16211654320E+02  0.16211655103E+02  0.50400000000E-02 0.  1.
          2   -1    0    0  501    0  0.00000000000E+00 -0.00000000000E+00 -0.97028642229E+02  0.97028642263E+02  0.25500000000E-02 0. -1.
         24    2    1    2    0    0 -0.35527136788E-14  0.35527136788E-14 -0.80816987909E+02  0.11324029737E+03  0.79321998291E+02 0.  0.
         66    2    3    3    0    0  0.22768709698E+02 -0.28985054427E+02 -0.61241996057E+02  0.71506150777E+02  0.19999990973E+01 0.  0.
        -13    1    3    3    0    0 -0.22768709698E+02  0.28985054427E+02 -0.19574991853E+02  0.41734146590E+02  0.10566000000E+00 0.  1.
         13    1    4    4    0    0  0.16099564435E+02 -0.20534925958E+02 -0.44357582902E+02  0.51463438323E+02  0.10566000000E+00 0. -1.
        -13    1    4    4    0    0  0.28694455892E+00 -0.45679949895E+00 -0.11677984403E+01  0.12907053091E+01  0.10566000000E+00 0.  1.
        -14    1    4    4    0    0  0.63822007042E+01 -0.79933289708E+01 -0.15716614715E+02  0.18752007145E+02  0.00000000000E+00 0.  1.
<mgrwt>
<rscale>  0 0.79321998E+02</rscale>
<asrwt>0</asrwt>
<pdfrwt beam="1">  1        2 0.14927483E-01 0.79321998E+02</pdfrwt>
<pdfrwt beam="2">  1       -1 0.24941008E-02 0.79321998E+02</pdfrwt>
<totfact> 0.17983155E+05</totfact>
</mgrwt>
</event>
<event>
 8    1  0.7667702E-014  0.8006019E+02  0.7818608E-02  0.1328881E+00
          2   -1    0    0  501    0  0.00000000000E+00  0.00000000000E+00  0.19424077655E+03  0.19424077657E+03  0.25500000000E-02 0. -1.
         -1   -1    0    0    0  501 -0.00000000000E+00 -0.00000000000E+00 -0.82495986255E+01  0.82496001651E+01  0.50400000000E-02 0.  1.
         24    2    1    2    0    0  0.00000000000E+00 -0.35527136788E-14  0.18599117792E+03  0.20249037673E+03  0.80060192376E+02 0.  0.
         66    2    3    3    0    0 -0.16377399312E+02  0.29371278549E+02  0.14785734161E+03  0.15164657821E+03  0.20000008902E+01 0.  0.
        -13    1    3    3    0    0  0.16377399312E+02 -0.29371278549E+02  0.38133836315E+02  0.50843798520E+02  0.10566000000E+00 0.  1.
         13    1    4    4    0    0 -0.24486070823E+01  0.36700373883E+01  0.21617085984E+02  0.22062964931E+02  0.10566000000E+00 0.  1.
        -13    1    4    4    0    0 -0.11206507940E+01  0.23479752705E+01  0.12065368817E+02  0.12343141205E+02  0.10566000000E+00 0. -1.
         14    1    4    4    0    0 -0.12808141436E+02  0.23353265890E+02  0.11417488681E+03  0.11724047207E+03  0.00000000000E+00 0. -1.
<mgrwt>
<rscale>  0 0.80060192E+02</rscale>
<asrwt>0</asrwt>
<pdfrwt beam="1">  1        2 0.29883194E-01 0.80060192E+02</pdfrwt>
<pdfrwt beam="2">  1       -1 0.12691692E-02 0.80060192E+02</pdfrwt>
<totfact> 0.21793176E+05</totfact>
</mgrwt>
</event>
<event>
 8    1  0.7667702E-014  0.7392930E+02  0.7818608E-02  0.1347219E+00
         -1   -1    0    0    0  501 -0.00000000000E+00  0.00000000000E+00  0.64113810756E+02  0.64113810954E+02  0.50400000000E-02 0.  1.
          2   -1    0    0  501    0  0.00000000000E+00 -0.00000000000E+00 -0.21311869938E+02  0.21311870090E+02  0.25500000000E-02 0. -1.
         24    2    1    2    0    0  0.35527136788E-14  0.00000000000E+00  0.42801940818E+02  0.85425681044E+02  0.73929296250E+02 0.  0.
         66    2    3    3    0    0  0.31051090303E+02 -0.36921147191E+01 -0.13024882211E+01  0.31360777964E+02  0.19999997085E+01 0.  0.
        -13    1    3    3    0    0 -0.31051090303E+02  0.36921147191E+01  0.44104429039E+02  0.54064903080E+02  0.10566000000E+00 0.  1.
         13    1    4    4    0    0  0.14600766837E+02 -0.26449816894E+01 -0.83215709153E+00  0.14862098433E+02  0.10566000000E+00 0. -1.
        -13    1    4    4    0    0  0.13987878778E+01 -0.86535174484E-02  0.29030698866E-01  0.14030998637E+01  0.10566000000E+00 0.  1.
         14    1    4    4    0    0  0.15051535589E+02 -0.10384795122E+01 -0.49936182840E+00  0.15095579668E+02  0.00000000000E+00 0. -1.
<mgrwt>
<rscale>  0 0.73929296E+02</rscale>
<asrwt>0</asrwt>
<pdfrwt beam="1">  1        2 0.32787492E-02 0.73929296E+02</pdfrwt>
<pdfrwt beam="2">  1       -1 0.98636634E-02 0.73929296E+02</pdfrwt>
<totfact> 0.15730604E+05</totfact>
</mgrwt>
</event>
<event>
 8    1  0.7667702E-014  0.7658473E+02  0.7818608E-02  0.1339033E+00
          2   -1    0    0  501    0  0.00000000000E+00  0.00000000000E+00  0.91044363760E+02  0.91044363796E+02  0.25500000000E-02 0. -1.
         -1   -1    0    0    0  501 -0.00000000000E+00 -0.00000000000E+00 -0.16105391453E+02  0.16105392242E+02  0.50400000000E-02 0.  1.
         24    2    1    2    0    0  0.00000000000E+00  0.00000000000E+00  0.74938972307E+02  0.10714975604E+03  0.76584728559E+02 0.  0.
         66    2    3    3    0    0  0.10255010312E+02  0.36716940322E+02  0.32854398547E+02  0.50365766607E+02  0.19999997322E+01 0.  0.
        -13    1    3    3    0    0 -0.10255010312E+02 -0.36716940322E+02  0.42084573760E+02  0.56783989431E+02  0.10566000000E+00 0.  1.
         13    1    4    4    0    0  0.37653640732E+01  0.13380440686E+02  0.11727162391E+02  0.18186579154E+02  0.10566000000E+00 0. -1.
        -13    1    4    4    0    0  0.50649650861E+00  0.10669689326E+01  0.72494375709E+00  0.13898449204E+01  0.10566000000E+00 0.  1.
        -14    1    4    4    0    0  0.59831497297E+01  0.22269530703E+02  0.20402292399E+02  0.30789342532E+02  0.00000000000E+00 0.  1.
<mgrwt>
<rscale>  0 0.76584729E+02</rscale>
<asrwt>0</asrwt>
<pdfrwt beam="1">  1        2 0.14006825E-01 0.76584729E+02</pdfrwt>
<pdfrwt beam="2">  1       -1 0.24777526E-02 0.76584729E+02</pdfrwt>
<totfact> 0.19415703E+05</totfact>
</mgrwt>
</event>
<event>
 8    1  0.7667702E-014  0.7962729E+02  0.7818608E-02  0.1330112E+00
         -1   -1    0    0    0  501 -0.00000000000E+00  0.00000000000E+00  0.13274788680E+02  0.13274789637E+02  0.50400000000E-02 0.  1.
          2   -1    0    0  501    0  0.00000000000E+00 -0.00000000000E+00 -0.11940877821E+03  0.11940877824E+03  0.25500000000E-02 0. -1.
         24    2    1    2    0    0  0.17763568394E-14 -0.35527136788E-14 -0.10613398953E+03  0.13268356788E+03  0.79627290864E+02 0.  0.
         66    2    3    3    0    0 -0.11393668579E+02 -0.26837386338E+02 -0.98215807901E+02  0.10247148828E+03  0.19999998915E+01 0.  0.
        -13    1    3    3    0    0  0.11393668579E+02  0.26837386338E+02 -0.79181816309E+01  0.30212079596E+02  0.10566000000E+00 0.  1.
         13    1    4    4    0    0 -0.26152315204E+01 -0.55231859846E+01 -0.21755140500E+02  0.22597396344E+02  0.10566000000E+00 0.  1.
        -13    1    4    4    0    0 -0.72151883978E+01 -0.16056506446E+02 -0.57181128474E+02  0.59829448940E+02  0.10566000000E+00 0. -1.
         14    1    4    4    0    0 -0.15632486604E+01 -0.52576939072E+01 -0.19279538927E+02  0.20044642996E+02  0.00000000000E+00 0. -1.
<mgrwt>
<rscale>  0 0.79627291E+02</rscale>
<asrwt>0</asrwt>
<pdfrwt beam="1">  1        2 0.18370581E-01 0.79627291E+02</pdfrwt>
<pdfrwt beam="2">  1       -1 0.20422753E-02 0.79627291E+02</pdfrwt>
<totfact> 0.18892780E+05</totfact>
</mgrwt>
</event>
<event>
 8    1  0.7667702E-014  0.7969355E+02  0.7818608E-02  0.1329923E+00
         -1   -1    0    0    0  501 -0.00000000000E+00  0.00000000000E+00  0.14884137662E+01  0.14884222993E+01  0.50400000000E-02 0.  1.
          2   -1    0    0  501    0  0.00000000000E+00 -0.00000000000E+00 -0.10667468785E+04  0.10667468785E+04  0.25500000000E-02 0. -1.
         24    2    1    2    0    0  0.00000000000E+00 -0.17763568394E-14 -0.10652584647E+04  0.10682353008E+04  0.79693545491E+02 0.  0.
         66    2    3    3    0    0 -0.27510750642E+02 -0.81690770056E+01 -0.90302534331E+03  0.90348345083E+03  0.20000083088E+01 0.  0.
        -13    1    3    3    0    0  0.27510750642E+02  0.81690770056E+01 -0.16223312139E+03  0.16475184994E+03  0.10566000000E+00 0.  1.
         13    1    4    4    0    0 -0.10301436317E+02 -0.31904534429E+01 -0.35951180537E+03  0.35967352968E+03  0.10566000000E+00 0. -1.
        -13    1    4    4    0    0 -0.13041874451E+02 -0.42501129097E+01 -0.41061414174E+03  0.41084320429E+03  0.10566000000E+00 0.  1.
         14    1    4    4    0    0 -0.41674398744E+01 -0.72851065295E+00 -0.13289939620E+03  0.13296671687E+03  0.00000000000E+00 0. -1.
<mgrwt>
<rscale>  0 0.79693545E+02</rscale>
<asrwt>0</asrwt>
<pdfrwt beam="1">  1        2 0.16411429E+00 0.79693545E+02</pdfrwt>
<pdfrwt beam="2">  1       -1 0.22898824E-03 0.79693545E+02</pdfrwt>
<totfact> 0.35625594E+05</totfact>
</mgrwt>
</event>
<event>
 8    1  0.7667702E-014  0.8057777E+02  0.7818608E-02  0.1327420E+00
         -1   -1    0    0    0  501 -0.00000000000E+00  0.00000000000E+00  0.16336625830E+02  0.16336626608E+02  0.50400000000E-02 0.  1.
          2   -1    0    0  501    0  0.00000000000E+00 -0.00000000000E+00 -0.99359204430E+02  0.99359204463E+02  0.25500000000E-02 0. -1.
         24    2    1    2    0    0 -0.17763568394E-14  0.00000000000E+00 -0.83022578600E+02  0.11569583107E+03  0.80577768459E+02 0.  0.
         66    2    3    3    0    0 -0.96853073045E+01 -0.22804619995E+02 -0.87107846527E+02  0.90584947996E+02  0.20000015645E+01 0.  0.
        -13    1    3    3    0    0  0.96853073045E+01  0.22804619995E+02  0.40852679270E+01  0.25110883074E+02  0.10566000000E+00 0.  1.
         13    1    4    4    0    0 -0.11200801668E+01 -0.25360517581E+01 -0.80018915623E+01  0.84692131104E+01  0.10566000000E+00 0. -1.
        -13    1    4    4    0    0 -0.50875725096E+01 -0.11584836753E+02 -0.47235081176E+02  0.48900469266E+02  0.10566000000E+00 0. -1.
        -14    1    4    4    0    0 -0.34776546280E+01 -0.86837314840E+01 -0.31870873788E+02  0.33215265620E+02  0.00000000000E+00 0.  1.
<mgrwt>
<rscale>  0 0.80577768E+02</rscale>
<asrwt>0</asrwt>
<pdfrwt beam="1">  1        2 0.15286031E-01 0.80577768E+02</pdfrwt>
<pdfrwt beam="2">  1       -1 0.25133272E-02 0.80577768E+02</pdfrwt>
<totfact> 0.17355995E+05</totfact>
</mgrwt>
</event>
<event>
 8    1  0.7667702E-014  0.8051160E+02  0.7818608E-02  0.1327606E+00
          2   -1    0    0  501    0  0.00000000000E+00  0.00000000000E+00  0.33031734665E+03  0.33031734666E+03  0.25500000000E-02 0. -1.
         -1   -1    0    0    0  501 -0.00000000000E+00 -0.00000000000E+00 -0.49059762057E+01  0.49059787945E+01  0.50400000000E-02 0.  1.
         24    2    1    2    0    0  0.00000000000E+00 -0.17763568394E-14  0.32541137044E+03  0.33522332545E+03  0.80511601115E+02 0.  0.
         66    2    3    3    0    0  0.99012268778E+01  0.12337799425E+02  0.31682026796E+03  0.31722127573E+03  0.19999995100E+01 0.  0.
        -13    1    3    3    0    0 -0.99012268778E+01 -0.12337799425E+02  0.85911024860E+01  0.18002049725E+02  0.10566000000E+00 0.  1.
         13    1    4    4    0    0  0.18455876855E+01  0.14180280124E+01  0.42347896905E+02  0.42411938575E+02  0.10566000000E+00 0. -1.
        -13    1    4    4    0    0  0.73840901075E+01  0.97883674031E+01  0.24225275501E+03  0.24256286896E+03  0.10566000000E+00 0.  1.
        -14    1    4    4    0    0  0.67154908487E+00  0.11314040092E+01  0.32219616037E+02  0.32246468191E+02  0.00000000000E+00 0.  1.
<mgrwt>
<rscale>  0 0.80511601E+02</rscale>
<asrwt>0</asrwt>
<pdfrwt beam="1">  1        2 0.50818059E-01 0.80511601E+02</pdfrwt>
<pdfrwt beam="2">  1       -1 0.75476568E-03 0.80511601E+02</pdfrwt>
<totfact> 0.25959176E+05</totfact>
</mgrwt>
</event>
<event>
 8    1  0.7667702E-014  0.7743671E+02  0.7818608E-02  0.1336487E+00
         -1   -1    0    0    0  501 -0.00000000000E+00  0.00000000000E+00  0.35392164679E+01  0.35392200565E+01  0.50400000000E-02 0.  1.
          2   -1    0    0  501    0  0.00000000000E+00 -0.00000000000E+00 -0.42357118293E+03  0.42357118293E+03  0.25500000000E-02 0. -1.
         24    2    1    2    0    0 -0.35527136788E-14  0.00000000000E+00 -0.42003196646E+03  0.42711040299E+03  0.77436706385E+02 0.  0.
         66    2    3    3    0    0 -0.24105543446E+02 -0.22584693136E+02 -0.32128665337E+03  0.32298646909E+03  0.19999989775E+01 0.  0.
        -13    1    3    3    0    0  0.24105543446E+02  0.22584693136E+02 -0.98745313091E+02  0.10412393390E+03  0.10566000000E+00 0.  1.
         13    1    4    4    0    0 -0.66046498206E+01 -0.72840212431E+01 -0.91970035520E+02  0.92494199614E+02  0.10566000000E+00 0.  1.
        -13    1    4    4    0    0 -0.25720656796E+01 -0.21086065263E+01 -0.32405229129E+02  0.32575631725E+02  0.10566000000E+00 0. -1.
        -14    1    4    4    0    0 -0.14928827946E+02 -0.13192065367E+02 -0.19691138872E+03  0.19791663775E+03  0.00000000000E+00 0.  1.
<mgrwt>
<rscale>  0 0.77436706E+02</rscale>
<asrwt>0</asrwt>
<pdfrwt beam="1">  1        2 0.65164757E-01 0.77436706E+02</pdfrwt>
<pdfrwt beam="2">  1       -1 0.54449545E-03 0.77436706E+02</pdfrwt>
<totfact> 0.31372891E+05</totfact>
</mgrwt>
</event>
<event>
 8    1  0.7667702E-014  0.8079796E+02  0.7818608E-02  0.1326802E+00
         -1   -1    0    0    0  501 -0.00000000000E+00  0.00000000000E+00  0.83843737343E+01  0.83843752491E+01  0.50400000000E-02 0.  1.
          2   -1    0    0  501    0  0.00000000000E+00 -0.00000000000E+00 -0.19465702752E+03  0.19465702754E+03  0.25500000000E-02 0. -1.
         24    2    1    2    0    0 -0.17763568394E-14 -0.35527136788E-14 -0.18627265379E+03  0.20304140279E+03  0.80797956019E+02 0.  0.
         66    2    3    3    0    0  0.13818240686E+02  0.22248154595E+02 -0.17040870690E+03  0.17242114587E+03  0.19999997454E+01 0.  0.
        -13    1    3    3    0    0 -0.13818240686E+02 -0.22248154595E+02 -0.15863946888E+02  0.30620256913E+02  0.10566000000E+00 0.  1.
         13    1    4    4    0    0  0.69109343972E+01  0.11243001782E+02 -0.85076695602E+02  0.86094258821E+02  0.10566000000E+00 0. -1.
        -13    1    4    4    0    0  0.59255203822E+01  0.85062715298E+01 -0.65979511070E+02  0.66789037216E+02  0.10566000000E+00 0.  1.
        -14    1    4    4    0    0  0.98178590624E+00  0.24988812825E+01 -0.19352500226E+02  0.19537849836E+02  0.00000000000E+00 0.  1.
<mgrwt>
<rscale>  0 0.80797956E+02</rscale>
<asrwt>0</asrwt>
<pdfrwt beam="1">  1        2 0.29947232E-01 0.80797956E+02</pdfrwt>
<pdfrwt beam="2">  1       -1 0.12899039E-02 0.80797956E+02</pdfrwt>
<totfact> 0.21287222E+05</totfact>
</mgrwt>
</event>
<event>
 8    1  0.7667702E-014  0.8046771E+02  0.7818608E-02  0.1327729E+00
         -1   -1    0    0    0  501 -0.00000000000E+00  0.00000000000E+00  0.46676509972E+01  0.46676537182E+01  0.50400000000E-02 0.  1.
          2   -1    0    0  501    0  0.00000000000E+00 -0.00000000000E+00 -0.34680457021E+03  0.34680457022E+03  0.25500000000E-02 0. -1.
         24    2    1    2    0    0  0.00000000000E+00  0.00000000000E+00 -0.34213691921E+03  0.35147222393E+03  0.80467712228E+02 0.  0.
         66    2    3    3    0    0 -0.37881112299E+02  0.11384741285E+02 -0.20272157535E+03  0.20655417720E+03  0.20000003291E+01 0.  0.
        -13    1    3    3    0    0  0.37881112299E+02 -0.11384741285E+02 -0.13941534386E+03  0.14491804674E+03  0.10566000000E+00 0.  1.
         13    1    4    4    0    0 -0.13950401960E+02  0.43871207660E+01 -0.73112953815E+02  0.74561221309E+02  0.10566000000E+00 0. -1.
        -13    1    4    4    0    0 -0.15789748106E+01  0.13884459639E+00 -0.89747204476E+01  0.91142312030E+01  0.10566000000E+00 0.  1.
        -14    1    4    4    0    0 -0.22351735529E+02  0.68587759223E+01 -0.12063390109E+03  0.12287872469E+03  0.00000000000E+00 0.  1.
<mgrwt>
<rscale>  0 0.80467712E+02</rscale>
<asrwt>0</asrwt>
<pdfrwt beam="1">  1        2 0.53354529E-01 0.80467712E+02</pdfrwt>
<pdfrwt beam="2">  1       -1 0.71810064E-03 0.80467712E+02</pdfrwt>
<totfact> 0.26454655E+05</totfact>
</mgrwt>
</event>
<event>
 8    1  0.7667702E-014  0.8002312E+02  0.7818608E-02  0.1328986E+00
         -1   -1    0    0    0  501 -0.00000000000E+00  0.00000000000E+00  0.49650619455E+01  0.49650645035E+01  0.50400000000E-02 0.  1.
          2   -1    0    0  501    0  0.00000000000E+00 -0.00000000000E+00 -0.32243799177E+03  0.32243799178E+03  0.25500000000E-02 0. -1.
         24    2    1    2    0    0 -0.44408920985E-15  0.35527136788E-14 -0.31747292982E+03  0.32740305628E+03  0.80023122236E+02 0.  0.
         66    2    3    3    0    0  0.33875541290E+01 -0.14234305546E+02 -0.31108815413E+03  0.31143848607E+03  0.19999976265E+01 0.  0.
        -13    1    3    3    0    0 -0.33875541290E+01  0.14234305546E+02 -0.63847756987E+01  0.15964570214E+02  0.10566000000E+00 0.  1.
         13    1    4    4    0    0  0.21520325403E+01 -0.87239130036E+01 -0.20034669076E+03  0.20054811284E+03  0.10566000000E+00 0. -1.
        -13    1    4    4    0    0 -0.22980707872E-01 -0.70810952761E+00 -0.20441439930E+02  0.20453986841E+02  0.10566000000E+00 0.  1.
         14    1    4    4    0    0  0.12585022966E+01 -0.48022830150E+01 -0.90300023433E+02  0.90436386384E+02  0.00000000000E+00 0. -1.
<mgrwt>
<rscale>  0 0.80023122E+02</rscale>
<asrwt>0</asrwt>
<pdfrwt beam="1">  1        2 0.49605828E-01 0.80023122E+02</pdfrwt>
<pdfrwt beam="2">  1       -1 0.76385614E-03 0.80023122E+02</pdfrwt>
<totfact> 0.26147961E+05</totfact>
</mgrwt>
</event>
<event>
 8    1  0.7667702E-014  0.7973727E+02  0.7818608E-02  0.1329799E+00
          2   -1    0    0  501    0  0.00000000000E+00  0.00000000000E+00  0.50383322161E+02  0.50383322225E+02  0.25500000000E-02 0. -1.
         -1   -1    0    0    0  501 -0.00000000000E+00 -0.00000000000E+00 -0.31548295444E+02  0.31548295847E+02  0.50400000000E-02 0.  1.
         24    2    1    2    0    0 -0.71054273576E-14 -0.17763568394E-14  0.18835026716E+02  0.81931618072E+02  0.79737267375E+02 0.  0.
         66    2    3    3    0    0  0.36664458352E+02  0.11532906545E+02  0.20210546990E+02  0.43471331286E+02  0.19999986333E+01 0.  0.
        -13    1    3    3    0    0 -0.36664458352E+02 -0.11532906545E+02 -0.13755202734E+01  0.38460286786E+02  0.10566000000E+00 0.  1.
         13    1    4    4    0    0  0.10903510005E+02  0.35346437351E+01  0.57395457208E+01  0.12819274000E+02  0.10566000000E+00 0. -1.
        -13    1    4    4    0    0  0.22027040944E+02  0.65784603486E+01  0.11738830689E+02  0.25812361056E+02  0.10566000000E+00 0.  1.
         14    1    4    4    0    0  0.37339074025E+01  0.14198024617E+01  0.27321705796E+01  0.48396962298E+01  0.00000000000E+00 0. -1.
<mgrwt>
<rscale>  0 0.79737267E+02</rscale>
<asrwt>0</asrwt>
<pdfrwt beam="1">  1        2 0.77512803E-02 0.79737267E+02</pdfrwt>
<pdfrwt beam="2">  1       -1 0.48535840E-02 0.79737267E+02</pdfrwt>
<totfact> 0.15103301E+05</totfact>
</mgrwt>
</event>
<event>
 8    1  0.7667702E-014  0.7972244E+02  0.7818608E-02  0.1329841E+00
          2   -1    0    0  501    0  0.00000000000E+00  0.00000000000E+00  0.95937764262E+02  0.95937764296E+02  0.25500000000E-02 0. -1.
         -1   -1    0    0    0  501 -0.00000000000E+00 -0.00000000000E+00 -0.16561955680E+02  0.16561956446E+02  0.50400000000E-02 0.  1.
         24    2    1    2    0    0  0.17763568394E-14  0.00000000000E+00  0.79375808583E+02  0.11249972074E+03  0.79722444638E+02 0.  0.
         66    2    3    3    0    0  0.89992070652E+01 -0.19424439122E+02  0.87120004495E+02  0.89733994368E+02  0.19999997569E+01 0.  0.
        -13    1    3    3    0    0 -0.89992070652E+01  0.19424439122E+02 -0.77441959120E+01  0.22765726375E+02  0.10566000000E+00 0.  1.
         13    1    4    4    0    0  0.51713478247E+01 -0.10282206556E+02  0.49692396662E+02  0.51007960752E+02  0.10566000000E+00 0. -1.
        -13    1    4    4    0    0  0.32063207568E+01 -0.67720962792E+01  0.28246756984E+02  0.29223829745E+02  0.10566000000E+00 0.  1.
        -14    1    4    4    0    0  0.62153848371E+00 -0.23701362873E+01  0.91808508482E+01  0.95022038709E+01  0.00000000000E+00 0.  1.
<mgrwt>
<rscale>  0 0.79722445E+02</rscale>
<asrwt>0</asrwt>
<pdfrwt beam="1">  1        2 0.14759656E-01 0.79722445E+02</pdfrwt>
<pdfrwt beam="2">  1       -1 0.25479932E-02 0.79722445E+02</pdfrwt>
<totfact> 0.17686915E+05</totfact>
</mgrwt>
</event>
<event>
 8    1  0.7667702E-014  0.8137683E+02  0.7818608E-02  0.1325189E+00
         -1   -1    0    0    0  501 -0.00000000000E+00  0.00000000000E+00  0.81914516123E+01  0.81914531627E+01  0.50400000000E-02 0.  1.
          2   -1    0    0  501    0  0.00000000000E+00 -0.00000000000E+00 -0.20210666313E+03  0.20210666314E+03  0.25500000000E-02 0. -1.
         24    2    1    2    0    0  0.00000000000E+00  0.88817841970E-15 -0.19391521151E+03  0.21029811631E+03  0.81376830025E+02 0.  0.
         66    2    3    3    0    0 -0.15223437137E+02 -0.52709738894E+01 -0.19350259030E+03  0.19418235929E+03  0.20000004856E+01 0.  0.
        -13    1    3    3    0    0  0.15223437137E+02  0.52709738894E+01 -0.41262121670E+00  0.16115757020E+02  0.10566000000E+00 0.  1.
         13    1    4    4    0    0 -0.28770864317E+01 -0.64067610415E+00 -0.41155484181E+02  0.41261036517E+02  0.10566000000E+00 0. -1.
        -13    1    4    4    0    0 -0.83653677359E+01 -0.33161361102E+01 -0.10979966948E+03  0.11016784793E+03  0.10566000000E+00 0.  1.
         14    1    4    4    0    0 -0.39809829694E+01 -0.13141616751E+01 -0.42547436641E+02  0.42753474842E+02  0.00000000000E+00 0. -1.
<mgrwt>
<rscale>  0 0.81376830E+02</rscale>
<asrwt>0</asrwt>
<pdfrwt beam="1">  1        2 0.31093329E-01 0.81376830E+02</pdfrwt>
<pdfrwt beam="2">  1       -1 0.12602236E-02 0.81376830E+02</pdfrwt>
<totfact> 0.21163656E+05</totfact>
</mgrwt>
</event>
<event>
 8    1  0.7667702E-014  0.8113473E+02  0.7818608E-02  0.1325862E+00
          2   -1    0    0  501    0  0.00000000000E+00  0.00000000000E+00  0.97553015037E+01  0.97553018370E+01  0.25500000000E-02 0. -1.
         -1   -1    0    0    0  501 -0.00000000000E+00 -0.00000000000E+00 -0.16869913767E+03  0.16869913774E+03  0.50400000000E-02 0.  1.
         24    2    1    2    0    0  0.35527136788E-14  0.00000000000E+00 -0.15894383617E+03  0.17845443958E+03  0.81134727160E+02 0.  0.
         66    2    3    3    0    0 -0.31379392777E+02  0.22284510581E+01 -0.23268598371E+02  0.39179841755E+02  0.20000111520E+01 0.  0.
        -13    1    3    3    0    0  0.31379392777E+02 -0.22284510581E+01 -0.13567523780E+03  0.13927459783E+03  0.10566000000E+00 0.  1.
         13    1    4    4    0    0 -0.16092799355E+02  0.54481828686E+00 -0.11610120927E+02  0.19851475764E+02  0.10566000000E+00 0. -1.
        -13    1    4    4    0    0 -0.43445823236E+00  0.37367353426E-01 -0.17136116797E+00  0.48029049569E+00  0.10566000000E+00 0.  1.
        -14    1    4    4    0    0 -0.14852135189E+02  0.16462654178E+01 -0.11487116276E+02  0.18848075495E+02  0.00000000000E+00 0.  1.
<mgrwt>
<rscale>  0 0.81134727E+02</rscale>
<asrwt>0</asrwt>
<pdfrwt beam="1">  1        2 0.15008158E-02 0.81134727E+02</pdfrwt>
<pdfrwt beam="2">  1       -1 0.25953711E-01 0.81134727E+02</pdfrwt>
<totfact> 0.10091840E+05</totfact>
</mgrwt>
</event>
<event>
 8    1  0.8123394E-014  0.7939482E+02  0.7818608E-02  0.1330778E+00
         -1   -1    0    0    0  501 -0.00000000000E+00  0.00000000000E+00  0.65603633057E+01  0.65603652417E+01  0.50400000000E-02 0.  1.
          2   -1    0    0  501    0  0.00000000000E+00 -0.00000000000E+00 -0.24021295107E+03  0.24021295108E+03  0.25500000000E-02 0. -1.
         24    2    1    2    0    0  0.00000000000E+00  0.00000000000E+00 -0.23365258776E+03  0.24677331632E+03  0.79394822761E+02 0.  0.
         66    2    3    3    0    0 -0.10944055917E+02 -0.10097183244E+02 -0.23119308082E+03  0.23168074173E+03  0.20000000443E+01 0.  0.
        -13    1    3    3    0    0  0.10944055917E+02  0.10097183244E+02 -0.24595069408E+01  0.15092574592E+02  0.10566000000E+00 0.  1.
         13    1    4    4    0    0 -0.65781899488E+01 -0.60223475313E+01 -0.14333451467E+03  0.14361175269E+03  0.10566000000E+00 0. -1.
        -13    1    4    4    0    0 -0.22533014194E+01 -0.27762385661E+01 -0.47710097292E+02  0.47844011282E+02  0.10566000000E+00 0.  1.
        -14    1    4    4    0    0 -0.21125645490E+01 -0.12985971465E+01 -0.40148468862E+02  0.40224977756E+02  0.00000000000E+00 0.  1.
<mgrwt>
<rscale>  0 0.79394823E+02</rscale>
<asrwt>0</asrwt>
<pdfrwt beam="1">  1        2 0.36955832E-01 0.79394823E+02</pdfrwt>
<pdfrwt beam="2">  1       -1 0.10092870E-02 0.79394823E+02</pdfrwt>
<totfact> 0.24004570E+05</totfact>
</mgrwt>
</event>
<event>
 8    1  0.7667702E-014  0.8061897E+02  0.7818608E-02  0.1327304E+00
         -1   -1    0    0    0  501 -0.00000000000E+00  0.00000000000E+00  0.95237602347E+01  0.95237615683E+01  0.50400000000E-02 0.  1.
          2   -1    0    0  501    0  0.00000000000E+00 -0.00000000000E+00 -0.17061058580E+03  0.17061058582E+03  0.25500000000E-02 0. -1.
         24    2    1    2    0    0  0.35527136788E-14  0.35527136788E-14 -0.16108682557E+03  0.18013434739E+03  0.80618966367E+02 0.  0.
         66    2    3    3    0    0 -0.21891128304E+02 -0.25756629088E+02 -0.12955733538E+03  0.13390940438E+03  0.19999977089E+01 0.  0.
        -13    1    3    3    0    0  0.21891128304E+02  0.25756629088E+02 -0.31529490184E+02  0.46224943004E+02  0.10566000000E+00 0.  1.
         13    1    4    4    0    0 -0.48560357839E+01 -0.53518450454E+01 -0.30038985090E+02  0.30896199090E+02  0.10566000000E+00 0. -1.
        -13    1    4    4    0    0 -0.54073995059E+01 -0.65136586159E+01 -0.29726323184E+02  0.30908464408E+02  0.10566000000E+00 0.  1.
         14    1    4    4    0    0 -0.11627693015E+02 -0.13891125427E+02 -0.69792027108E+02  0.72104740886E+02  0.00000000000E+00 0. -1.
<mgrwt>
<rscale>  0 0.80618966E+02</rscale>
<asrwt>0</asrwt>
<pdfrwt beam="1">  1        2 0.26247780E-01 0.80618966E+02</pdfrwt>
<pdfrwt beam="2">  1       -1 0.14651941E-02 0.80618966E+02</pdfrwt>
<totfact> 0.20472239E+05</totfact>
</mgrwt>
</event>
<event>
 8    1  0.7667702E-014  0.8138804E+02  0.7818608E-02  0.1325158E+00
         -1   -1    0    0    0  501 -0.00000000000E+00  0.00000000000E+00  0.37449285488E+02  0.37449285827E+02  0.50400000000E-02 0.  1.
          2   -1    0    0  501    0  0.00000000000E+00 -0.00000000000E+00 -0.44219887302E+02  0.44219887376E+02  0.25500000000E-02 0. -1.
         24    2    1    2    0    0  0.00000000000E+00  0.00000000000E+00 -0.67706018143E+01  0.81669173203E+02  0.81388038450E+02 0.  0.
         66    2    3    3    0    0 -0.30840603691E+02 -0.10598871810E+02 -0.27771882784E+02  0.42880722782E+02  0.19999983234E+01 0.  0.
        -13    1    3    3    0    0  0.30840603691E+02  0.10598871810E+02  0.21001280969E+02  0.38788450421E+02  0.10566000000E+00 0.  1.
         13    1    4    4    0    0 -0.10495760747E+02 -0.33835852483E+01 -0.86269303742E+01  0.14001597570E+02  0.10566000000E+00 0. -1.
        -13    1    4    4    0    0 -0.11892428872E+01 -0.23136254866E+00 -0.83348187870E+00  0.14743416671E+01  0.10566000000E+00 0.  1.
         14    1    4    4    0    0 -0.19155600057E+02 -0.69839240127E+01 -0.18311470531E+02  0.27404783545E+02  0.00000000000E+00 0. -1.
<mgrwt>
<rscale>  0 0.81388038E+02</rscale>
<asrwt>0</asrwt>
<pdfrwt beam="1">  1        2 0.68030596E-02 0.81388038E+02</pdfrwt>
<pdfrwt beam="2">  1       -1 0.57614286E-02 0.81388038E+02</pdfrwt>
<totfact> 0.13881499E+05</totfact>
</mgrwt>
</event>
<event>
 8    1  0.7667702E-014  0.8163121E+02  0.7818608E-02  0.1324485E+00
         -1   -1    0    0    0  501 -0.00000000000E+00  0.00000000000E+00  0.74594533102E+01  0.74594550129E+01  0.50400000000E-02 0.  1.
          2   -1    0    0  501    0  0.00000000000E+00 -0.00000000000E+00 -0.22332913397E+03  0.22332913398E+03  0.25500000000E-02 0. -1.
         24    2    1    2    0    0  0.00000000000E+00  0.35527136788E-14 -0.21586968066E+03  0.23078858899E+03  0.81631205940E+02 0.  0.
         66    2    3    3    0    0  0.26607964882E+01 -0.21213699803E+02 -0.20621429376E+03  0.20732929323E+03  0.19999967269E+01 0.  0.
        -13    1    3    3    0    0 -0.26607964882E+01  0.21213699803E+02 -0.96553869018E+01  0.23459295760E+02  0.10566000000E+00 0.  1.
         13    1    4    4    0    0  0.17192769116E+01 -0.12488516402E+02 -0.11469175120E+03  0.11538252863E+03  0.10566000000E+00 0. -1.
        -13    1    4    4    0    0  0.49871247142E+00 -0.71869578048E+01 -0.76948619032E+02  0.77285200470E+02  0.10566000000E+00 0.  1.
        -14    1    4    4    0    0  0.44280710518E+00 -0.15382255970E+01 -0.14573923523E+02  0.14661564138E+02  0.00000000000E+00 0.  1.
<mgrwt>
<rscale>  0 0.81631206E+02</rscale>
<asrwt>0</asrwt>
<pdfrwt beam="1">  1        2 0.34358323E-01 0.81631206E+02</pdfrwt>
<pdfrwt beam="2">  1       -1 0.11476085E-02 0.81631206E+02</pdfrwt>
<totfact> 0.21740264E+05</totfact>
</mgrwt>
</event>
<event>
 8    1  0.7667702E-014  0.7941319E+02  0.7818608E-02  0.1330725E+00
         -1   -1    0    0    0  501 -0.00000000000E+00  0.00000000000E+00  0.59822406720E+02  0.59822406932E+02  0.50400000000E-02 0.  1.
          2   -1    0    0  501    0  0.00000000000E+00 -0.00000000000E+00 -0.26354902312E+02  0.26354902435E+02  0.25500000000E-02 0. -1.
         24    2    1    2    0    0  0.00000000000E+00 -0.71054273576E-14  0.33467504408E+02  0.86177309367E+02  0.79413190331E+02 0.  0.
         66    2    3    3    0    0  0.99618083198E+01 -0.38281336324E+02  0.20160558873E+02  0.44442619968E+02  0.19999999514E+01 0.  0.
        -13    1    3    3    0    0 -0.99618083198E+01  0.38281336324E+02  0.13306945536E+02  0.41734689399E+02  0.10566000000E+00 0.  1.
         13    1    4    4    0    0  0.39494356020E+01 -0.16240918291E+02  0.90744041824E+01  0.19018975888E+02  0.10566000000E+00 0. -1.
        -13    1    4    4    0    0  0.15626248158E+01 -0.51974910894E+01  0.20864949240E+01  0.58155253454E+01  0.10566000000E+00 0.  1.
        -14    1    4    4    0    0  0.44497479020E+01 -0.16842926943E+02  0.89996597664E+01  0.19608118735E+02  0.00000000000E+00 0.  1.
<mgrwt>
<rscale>  0 0.79413190E+02</rscale>
<asrwt>0</asrwt>
<pdfrwt beam="1">  1        2 0.40546004E-02 0.79413190E+02</pdfrwt>
<pdfrwt beam="2">  1       -1 0.92034471E-02 0.79413190E+02</pdfrwt>
<totfact> 0.13391439E+05</totfact>
</mgrwt>
</event>
<event>
 8    1  0.7667702E-014  0.7992053E+02  0.7818608E-02  0.1329277E+00
         -1   -1    0    0    0  501 -0.00000000000E+00  0.00000000000E+00  0.88130549313E+01  0.88130563725E+01  0.50400000000E-02 0.  1.
          2   -1    0    0  501    0  0.00000000000E+00 -0.00000000000E+00 -0.18118831835E+03  0.18118831837E+03  0.25500000000E-02 0. -1.
         24    2    1    2    0    0  0.88817841970E-15  0.00000000000E+00 -0.17237526342E+03  0.19000137474E+03  0.79920529056E+02 0.  0.
         66    2    3    3    0    0 -0.78862349712E+01  0.34238346641E+02 -0.41111271009E+02  0.54116482460E+02  0.19999967940E+01 0.  0.
        -13    1    3    3    0    0  0.78862349712E+01 -0.34238346641E+02 -0.13126399241E+03  0.13588489228E+03  0.10566000000E+00 0.  1.
         13    1    4    4    0    0 -0.64376140392E+01  0.26003294476E+02 -0.30323877573E+02  0.40461869868E+02  0.10566000000E+00 0. -1.
        -13    1    4    4    0    0 -0.90090644278E+00  0.57617838781E+01 -0.72912578595E+01  0.93372046720E+01  0.10566000000E+00 0.  1.
        -14    1    4    4    0    0 -0.54771448928E+00  0.24732682862E+01 -0.34961355770E+01  0.43174079203E+01  0.00000000000E+00 0.  1.
<mgrwt>
<rscale>  0 0.79920529E+02</rscale>
<asrwt>0</asrwt>
<pdfrwt beam="1">  1        2 0.27875123E-01 0.79920529E+02</pdfrwt>
<pdfrwt beam="2">  1       -1 0.13558549E-02 0.79920529E+02</pdfrwt>
<totfact> 0.21378141E+05</totfact>
</mgrwt>
</event>
<event>
 8    1  0.7667702E-014  0.7972510E+02  0.7818608E-02  0.1329833E+00
         -1   -1    0    0    0  501 -0.00000000000E+00  0.00000000000E+00  0.73905226181E+02  0.73905226353E+02  0.50400000000E-02 0.  1.
          2   -1    0    0  501    0  0.00000000000E+00 -0.00000000000E+00 -0.21500818299E+02  0.21500818450E+02  0.25500000000E-02 0. -1.
         24    2    1    2    0    0  0.00000000000E+00  0.00000000000E+00  0.52404407882E+02  0.95406044803E+02  0.79725099056E+02 0.  0.
         66    2    3    3    0    0  0.23394244133E+02 -0.10200017123E+02 -0.10386831831E+02  0.27626387408E+02  0.19999994726E+01 0.  0.
        -13    1    3    3    0    0 -0.23394244133E+02  0.10200017123E+02  0.62791239713E+02  0.67779657395E+02  0.10566000000E+00 0.  1.
         13    1    4    4    0    0  0.11477528945E+02 -0.50932465729E+01 -0.57591121956E+01  0.13814969006E+02  0.10566000000E+00 0.  1.
        -13    1    4    4    0    0  0.16081047156E+01 -0.86217278034E+00 -0.10247722705E+01  0.20953913528E+01  0.10566000000E+00 0. -1.
        -14    1    4    4    0    0  0.10308610473E+02 -0.42445977694E+01 -0.36029473650E+01  0.11716027049E+02  0.00000000000E+00 0.  1.
<mgrwt>
<rscale>  0 0.79725099E+02</rscale>
<asrwt>0</asrwt>
<pdfrwt beam="1">  1        2 0.33078183E-02 0.79725099E+02</pdfrwt>
<pdfrwt beam="2">  1       -1 0.11370035E-01 0.79725099E+02</pdfrwt>
<totfact> 0.12722239E+05</totfact>
</mgrwt>
</event>
<event>
 8    1  0.7667702E-014  0.8497437E+02  0.7818608E-02  0.1315500E+00
         -1   -1    0    0    0  501 -0.00000000000E+00  0.00000000000E+00  0.16509548218E+02  0.16509548987E+02  0.50400000000E-02 0.  1.
          2   -1    0    0  501    0  0.00000000000E+00 -0.00000000000E+00 -0.10934042543E+03  0.10934042546E+03  0.25500000000E-02 0. -1.
         24    2    1    2    0    0 -0.88817841970E-15 -0.71054273576E-14 -0.92830877213E+02  0.12584997445E+03  0.84974374398E+02 0.  0.
         66    2    3    3    0    0 -0.43170753892E+01 -0.40921120183E+02 -0.61972945995E+02  0.74416538824E+02  0.19999995794E+01 0.  0.
        -13    1    3    3    0    0  0.43170753892E+01  0.40921120183E+02 -0.30857931218E+02  0.51433435624E+02  0.10566000000E+00 0.  1.
         13    1    4    4    0    0 -0.35235142478E+01 -0.29725759705E+02 -0.45512095340E+02  0.54473827926E+02  0.10566000000E+00 0. -1.
        -13    1    4    4    0    0 -0.52611137922E+00 -0.56723477364E+01 -0.76105056392E+01  0.95070122618E+01  0.10566000000E+00 0.  1.
        -14    1    4    4    0    0 -0.26744976216E+00 -0.55230127418E+01 -0.88503450164E+01  0.10435698636E+02  0.00000000000E+00 0.  1.
<mgrwt>
<rscale>  0 0.84974374E+02</rscale>
<asrwt>0</asrwt>
<pdfrwt beam="1">  1        2 0.16821603E-01 0.84974374E+02</pdfrwt>
<pdfrwt beam="2">  1       -1 0.25399306E-02 0.84974374E+02</pdfrwt>
<totfact> 0.15465861E+05</totfact>
</mgrwt>
</event>
<event>
 8    1  0.7667702E-014  0.7971892E+02  0.7818608E-02  0.1329851E+00
          2   -1    0    0  501    0  0.00000000000E+00  0.00000000000E+00  0.67973971370E+02  0.67973971418E+02  0.25500000000E-02 0. -1.
         -1   -1    0    0    0  501 -0.00000000000E+00 -0.00000000000E+00 -0.23373305282E+02  0.23373305826E+02  0.50400000000E-02 0.  1.
         24    2    1    2    0    0  0.00000000000E+00  0.00000000000E+00  0.44600666087E+02  0.91347277244E+02  0.79718916478E+02 0.  0.
         66    2    3    3    0    0 -0.99061081814E+01 -0.38098207585E+02  0.29300083613E+02  0.49113127689E+02  0.20000028165E+01 0.  0.
        -13    1    3    3    0    0  0.99061081814E+01  0.38098207585E+02  0.15300582475E+02  0.42234149554E+02  0.10566000000E+00 0.  1.
         13    1    4    4    0    0 -0.77939353135E+01 -0.30471087915E+02  0.23762730844E+02  0.39419679953E+02  0.10566000000E+00 0. -1.
        -13    1    4    4    0    0 -0.15062237251E+01 -0.59459303531E+01  0.38976579817E+01  0.72681290201E+01  0.10566000000E+00 0.  1.
         14    1    4    4    0    0 -0.60594914279E+00 -0.16811893160E+01  0.16396947869E+01  0.24253187160E+01  0.00000000000E+00 0. -1.
<mgrwt>
<rscale>  0 0.79718916E+02</rscale>
<asrwt>0</asrwt>
<pdfrwt beam="1">  1        2 0.10457534E-01 0.79718916E+02</pdfrwt>
<pdfrwt beam="2">  1       -1 0.35958932E-02 0.79718916E+02</pdfrwt>
<totfact> 0.16185314E+05</totfact>
</mgrwt>
</event>
<event>
 8    1  0.7667702E-014  0.7762488E+02  0.7818608E-02  0.1335930E+00
         -1   -1    0    0    0  501 -0.00000000000E+00  0.00000000000E+00  0.35871086893E+01  0.35871122299E+01  0.50400000000E-02 0.  1.
          2   -1    0    0  501    0  0.00000000000E+00 -0.00000000000E+00 -0.41994951650E+03  0.41994951650E+03  0.25500000000E-02 0. -1.
         24    2    1    2    0    0  0.00000000000E+00  0.00000000000E+00 -0.41636240781E+03  0.42353662873E+03  0.77624875165E+02 0.  0.
         66    2    3    3    0    0  0.20670018437E+02  0.32182387289E+02 -0.24344467075E+03  0.24643916781E+03  0.19999997395E+01 0.  0.
        -13    1    3    3    0    0 -0.20670018437E+02 -0.32182387289E+02 -0.17291773705E+03  0.17709746092E+03  0.10566000000E+00 0.  1.
         13    1    4    4    0    0  0.22940850467E+01  0.43308940370E+01 -0.34353236320E+02  0.34701231665E+02  0.10566000000E+00 0. -1.
        -13    1    4    4    0    0  0.12055004812E+02  0.18755682863E+02 -0.13994720159E+03  0.14171213490E+03  0.10566000000E+00 0.  1.
         14    1    4    4    0    0  0.63209285784E+01  0.90958103894E+01 -0.69144232845E+02  0.70025801248E+02  0.00000000000E+00 0. -1.
<mgrwt>
<rscale>  0 0.77624875E+02</rscale>
<asrwt>0</asrwt>
<pdfrwt beam="1">  1        2 0.64607579E-01 0.77624875E+02</pdfrwt>
<pdfrwt beam="2">  1       -1 0.55186348E-03 0.77624875E+02</pdfrwt>
<totfact> 0.31083644E+05</totfact>
</mgrwt>
</event>
<event>
 8    1  0.7667702E-014  0.7603899E+02  0.7818608E-02  0.1340683E+00
         -1   -1    0    0    0  501 -0.00000000000E+00  0.00000000000E+00  0.24289171183E+02  0.24289171706E+02  0.50400000000E-02 0.  1.
          2   -1    0    0  501    0  0.00000000000E+00 -0.00000000000E+00 -0.59511372647E+02  0.59511372702E+02  0.25500000000E-02 0. -1.
         24    2    1    2    0    0  0.88817841970E-15 -0.35527136788E-14 -0.35222201464E+02  0.83800544408E+02  0.76038988467E+02 0.  0.
         66    2    3    3    0    0  0.48503508526E+01 -0.27614683705E+02 -0.45879783719E+02  0.53805680129E+02  0.20000001341E+01 0.  0.
        -13    1    3    3    0    0 -0.48503508526E+01  0.27614683705E+02  0.10657582255E+02  0.29994864279E+02  0.10566000000E+00 0.  1.
         13    1    4    4    0    0  0.16170728462E+01 -0.12529826493E+02 -0.22058312780E+02  0.25420302973E+02  0.10566000000E+00 0. -1.
        -13    1    4    4    0    0  0.27488474449E+01 -0.13548365867E+02 -0.21354845410E+02  0.25439240681E+02  0.10566000000E+00 0.  1.
        -14    1    4    4    0    0  0.48443056152E+00 -0.15364913448E+01 -0.24666255301E+01  0.29461364746E+01  0.00000000000E+00 0.  1.
<mgrwt>
<rscale>  0 0.76038988E+02</rscale>
<asrwt>0</asrwt>
<pdfrwt beam="1">  1        2 0.91555957E-02 0.76038988E+02</pdfrwt>
<pdfrwt beam="2">  1       -1 0.37367956E-02 0.76038988E+02</pdfrwt>
<totfact> 0.17831018E+05</totfact>
</mgrwt>
</event>
<event>
 8    1  0.7667702E-014  0.7975853E+02  0.7818608E-02  0.1329738E+00
          2   -1    0    0  501    0  0.00000000000E+00  0.00000000000E+00  0.17940431028E+02  0.17940431209E+02  0.25500000000E-02 0. -1.
         -1   -1    0    0    0  501 -0.00000000000E+00 -0.00000000000E+00 -0.88646454387E+02  0.88646454531E+02  0.50400000000E-02 0.  1.
         24    2    1    2    0    0 -0.88817841970E-15  0.00000000000E+00 -0.70706023359E+02  0.10658688574E+03  0.79758526017E+02 0.  0.
         66    2    3    3    0    0  0.75048282028E+01 -0.35540869551E+02 -0.57288172587E+02  0.67863175455E+02  0.20000024322E+01 0.  0.
        -13    1    3    3    0    0 -0.75048282028E+01  0.35540869551E+02 -0.13417850772E+02  0.38723710284E+02  0.10566000000E+00 0.  1.
         13    1    4    4    0    0  0.29344359660E+01 -0.10643540356E+02 -0.16717153213E+02  0.20034226746E+02  0.10566000000E+00 0. -1.
        -13    1    4    4    0    0  0.67723831844E+00 -0.53873779484E+01 -0.83366269856E+01  0.99495229248E+01  0.10566000000E+00 0.  1.
         14    1    4    4    0    0  0.38931539184E+01 -0.19509951247E+02 -0.32234392388E+02  0.37879425784E+02  0.00000000000E+00 0. -1.
<mgrwt>
<rscale>  0 0.79758526E+02</rscale>
<asrwt>0</asrwt>
<pdfrwt beam="1">  1        2 0.27600664E-02 0.79758526E+02</pdfrwt>
<pdfrwt beam="2">  1       -1 0.13637916E-01 0.79758526E+02</pdfrwt>
<totfact> 0.12249137E+05</totfact>
</mgrwt>
</event>
<event>
 8    1  0.7667702E-014  0.7699528E+02  0.7818608E-02  0.1337801E+00
          2   -1    0    0  501    0  0.00000000000E+00  0.00000000000E+00  0.45090960491E+03  0.45090960492E+03  0.25500000000E-02 0. -1.
         -1   -1    0    0    0  501 -0.00000000000E+00 -0.00000000000E+00 -0.32868390935E+01  0.32868429577E+01  0.50400000000E-02 0.  1.
         24    2    1    2    0    0  0.00000000000E+00  0.88817841970E-15  0.44762276582E+03  0.45419644787E+03  0.76995277680E+02 0.  0.
         66    2    3    3    0    0 -0.26950104278E+02  0.76209280499E+01  0.37955257139E+03  0.38058972809E+03  0.20000024672E+01 0.  0.
        -13    1    3    3    0    0  0.26950104278E+02 -0.76209280499E+01  0.68070194423E+02  0.73606719787E+02  0.10566000000E+00 0.  1.
         13    1    4    4    0    0 -0.23359844941E+02  0.59999664533E+01  0.32223021553E+03  0.32313155977E+03  0.10566000000E+00 0. -1.
        -13    1    4    4    0    0 -0.15203467038E+01  0.73850624907E+00  0.23259432302E+02  0.23321003422E+02  0.10566000000E+00 0.  1.
         14    1    4    4    0    0 -0.20699126334E+01  0.88245534756E+00  0.34062923560E+02  0.34137164897E+02  0.00000000000E+00 0. -1.
<mgrwt>
<rscale>  0 0.76995278E+02</rscale>
<asrwt>0</asrwt>
<pdfrwt beam="1">  1        2 0.69370702E-01 0.76995278E+02</pdfrwt>
<pdfrwt beam="2">  1       -1 0.50566790E-03 0.76995278E+02</pdfrwt>
<totfact> 0.32524256E+05</totfact>
</mgrwt>
</event>
<event>
 8    1  0.7667702E-014  0.8079482E+02  0.7818608E-02  0.1326811E+00
         -1   -1    0    0    0  501 -0.00000000000E+00  0.00000000000E+00  0.34048701784E+01  0.34048739086E+01  0.50400000000E-02 0.  1.
          2   -1    0    0  501    0  0.00000000000E+00 -0.00000000000E+00 -0.47929863816E+03  0.47929863817E+03  0.25500000000E-02 0. -1.
         24    2    1    2    0    0  0.35527136788E-14  0.00000000000E+00 -0.47589376798E+03  0.48270351207E+03  0.80794815218E+02 0.  0.
         66    2    3    3    0    0  0.24650593322E+02 -0.11038319340E+02 -0.41737011973E+03  0.41824790864E+03  0.19999992369E+01 0.  0.
        -13    1    3    3    0    0 -0.24650593322E+02  0.11038319340E+02 -0.58523648253E+02  0.64455603433E+02  0.10566000000E+00 0.  1.
         13    1    4    4    0    0  0.12826175664E+02 -0.60173134175E+01 -0.21118112106E+03  0.21165584306E+03  0.10566000000E+00 0. -1.
        -13    1    4    4    0    0  0.71571579982E+01 -0.33388190158E+01 -0.13434217540E+03  0.13457415754E+03  0.10566000000E+00 0.  1.
        -14    1    4    4    0    0  0.46672596600E+01 -0.16821869065E+01 -0.71846823268E+02  0.72017908045E+02  0.00000000000E+00 0.  1.
<mgrwt>
<rscale>  0 0.80794815E+02</rscale>
<asrwt>0</asrwt>
<pdfrwt beam="1">  1        2 0.73738198E-01 0.80794815E+02</pdfrwt>
<pdfrwt beam="2">  1       -1 0.52382685E-03 0.80794815E+02</pdfrwt>
<totfact> 0.29274294E+05</totfact>
</mgrwt>
</event>
<event>
 8    1  0.7667702E-014  0.7992781E+02  0.7818608E-02  0.1329256E+00
         -1   -1    0    0    0  501 -0.00000000000E+00  0.00000000000E+00  0.39290313893E+02  0.39290314217E+02  0.50400000000E-02 0.  1.
          2   -1    0    0  501    0  0.00000000000E+00 -0.00000000000E+00 -0.40649040408E+02  0.40649040488E+02  0.25500000000E-02 0. -1.
         24    2    1    2    0    0  0.00000000000E+00  0.35527136788E-14 -0.13587265149E+01  0.79939354705E+02  0.79927806757E+02 0.  0.
         66    2    3    3    0    0 -0.95851429496E+01 -0.20746764015E+02 -0.33438228309E+02  0.40551427851E+02  0.20000014548E+01 0.  0.
        -13    1    3    3    0    0  0.95851429496E+01  0.20746764015E+02  0.32079501795E+02  0.39387926854E+02  0.10566000000E+00 0.  1.
         13    1    4    4    0    0 -0.54251903930E+01 -0.13275468436E+02 -0.19935742410E+02  0.24558414901E+02  0.10566000000E+00 0. -1.
        -13    1    4    4    0    0 -0.16152197146E+00 -0.36885944184E+00 -0.76637864374E+00  0.87215073026E+00  0.10566000000E+00 0. -1.
         14    1    4    4    0    0 -0.39984305851E+01 -0.71024361371E+01 -0.12736107256E+02  0.15120862219E+02  0.00000000000E+00 0. -1.
<mgrwt>
<rscale>  0 0.79927807E+02</rscale>
<asrwt>0</asrwt>
<pdfrwt beam="1">  1        2 0.62536985E-02 0.79927807E+02</pdfrwt>
<pdfrwt beam="2">  1       -1 0.60446637E-02 0.79927807E+02</pdfrwt>
<totfact> 0.14338268E+05</totfact>
</mgrwt>
</event>
<event>
 8    1  0.7667702E-014  0.7952474E+02  0.7818608E-02  0.1330406E+00
         -1   -1    0    0    0  501 -0.00000000000E+00  0.00000000000E+00  0.56047916660E+01  0.56047939321E+01  0.50400000000E-02 0.  1.
          2   -1    0    0  501    0  0.00000000000E+00 -0.00000000000E+00 -0.28208822174E+03  0.28208822175E+03  0.25500000000E-02 0. -1.
         24    2    1    2    0    0  0.00000000000E+00  0.17763568394E-14 -0.27648343008E+03  0.28769301568E+03  0.79524739344E+02 0.  0.
         66    2    3    3    0    0  0.33959125536E+02  0.10328310923E+02 -0.20295695037E+03  0.20604713033E+03  0.19999998704E+01 0.  0.
        -13    1    3    3    0    0 -0.33959125536E+02 -0.10328310923E+02 -0.73526479706E+02  0.81645885357E+02  0.10566000000E+00 0.  1.
         13    1    4    4    0    0  0.21293945773E+02  0.65032606907E+01 -0.12690530071E+03  0.12884366899E+03  0.10566000000E+00 0.  1.
        -13    1    4    4    0    0  0.90118585285E+01  0.32880669383E+01 -0.54910920915E+02  0.55742671071E+02  0.10566000000E+00 0. -1.
        -14    1    4    4    0    0  0.36533212352E+01  0.53698329411E+00 -0.21140728746E+02  0.21460790270E+02  0.00000000000E+00 0.  1.
<mgrwt>
<rscale>  0 0.79524739E+02</rscale>
<asrwt>0</asrwt>
<pdfrwt beam="1">  1        2 0.43398177E-01 0.79524739E+02</pdfrwt>
<pdfrwt beam="2">  1       -1 0.86227604E-03 0.79524739E+02</pdfrwt>
<totfact> 0.25324975E+05</totfact>
</mgrwt>
</event>
<event>
 8    1  0.7667702E-014  0.8048706E+02  0.7818608E-02  0.1327675E+00
         -1   -1    0    0    0  501 -0.00000000000E+00  0.00000000000E+00  0.40752216869E+01  0.40752248035E+01  0.50400000000E-02 0.  1.
          2   -1    0    0  501    0  0.00000000000E+00 -0.00000000000E+00 -0.39741173503E+03  0.39741173504E+03  0.25500000000E-02 0. -1.
         24    2    1    2    0    0  0.00000000000E+00 -0.71054273576E-14 -0.39333651334E+03  0.40148695984E+03  0.80487056065E+02 0.  0.
         66    2    3    3    0    0  0.22452090682E+02 -0.32765734018E+02 -0.22827716975E+03  0.23171567908E+03  0.19999995939E+01 0.  0.
        -13    1    3    3    0    0 -0.22452090682E+02  0.32765734018E+02 -0.16505934359E+03  0.16977128076E+03  0.10566000000E+00 0.  1.
         13    1    4    4    0    0  0.18664972440E+01 -0.29806539775E+01 -0.22902694882E+02  0.23171376891E+02  0.10566000000E+00 0. -1.
        -13    1    4    4    0    0  0.92854338631E+01 -0.14244605898E+02 -0.94959302922E+02  0.96469728178E+02  0.10566000000E+00 0.  1.
        -14    1    4    4    0    0  0.11300159575E+02 -0.15540474143E+02 -0.11041517195E+03  0.11207457401E+03  0.00000000000E+00 0.  1.
<mgrwt>
<rscale>  0 0.80487056E+02</rscale>
<asrwt>0</asrwt>
<pdfrwt beam="1">  1        2 0.61140237E-01 0.80487056E+02</pdfrwt>
<pdfrwt beam="2">  1       -1 0.62695774E-03 0.80487056E+02</pdfrwt>
<totfact> 0.27745922E+05</totfact>
</mgrwt>
</event>
<event>
 8    1  0.7667702E-014  0.8110605E+02  0.7818608E-02  0.1325942E+00
          2   -1    0    0  501    0  0.00000000000E+00  0.00000000000E+00  0.20234506964E+03  0.20234506966E+03  0.25500000000E-02 0. -1.
         -1   -1    0    0    0  501 -0.00000000000E+00 -0.00000000000E+00 -0.81274403062E+01  0.81274418689E+01  0.50400000000E-02 0.  1.
         24    2    1    2    0    0  0.00000000000E+00 -0.35527136788E-14  0.19421762933E+03  0.21047251152E+03  0.81106045173E+02 0.  0.
         66    2    3    3    0    0 -0.10496769280E+01 -0.22572991833E+02  0.18447415441E+03  0.18586380880E+03  0.19999989633E+01 0.  0.
        -13    1    3    3    0    0  0.10496769280E+01  0.22572991833E+02  0.97434749227E+01  0.24608702720E+02  0.10566000000E+00 0.  1.
         13    1    4    4    0    0 -0.97551730955E+00 -0.77290040306E+01  0.63763834795E+02  0.64238048920E+02  0.10566000000E+00 0. -1.
        -13    1    4    4    0    0 -0.40995261740E+00 -0.21142706248E+01  0.18501575506E+02  0.18626799555E+02  0.10566000000E+00 0.  1.
        -14    1    4    4    0    0  0.33579299895E+00 -0.12729717178E+02  0.10220874411E+03  0.10299896033E+03  0.00000000000E+00 0.  1.
<mgrwt>
<rscale>  0 0.81106045E+02</rscale>
<asrwt>0</asrwt>
<pdfrwt beam="1">  1        2 0.31130009E-01 0.81106045E+02</pdfrwt>
<pdfrwt beam="2">  1       -1 0.12503756E-02 0.81106045E+02</pdfrwt>
<totfact> 0.21359653E+05</totfact>
</mgrwt>
</event>
<event>
 8    1  0.7667702E-014  0.7748556E+02  0.7818608E-02  0.1336342E+00
         -1   -1    0    0    0  501 -0.00000000000E+00  0.00000000000E+00  0.24706858002E+01  0.24706909408E+01  0.50400000000E-02 0.  1.
          2   -1    0    0  501    0  0.00000000000E+00 -0.00000000000E+00 -0.60752414950E+03  0.60752414950E+03  0.25500000000E-02 0. -1.
         24    2    1    2    0    0  0.00000000000E+00 -0.44408920985E-15 -0.60505346370E+03  0.60999484044E+03  0.77485556304E+02 0.  0.
         66    2    3    3    0    0  0.35316730708E+02  0.38075908185E+01 -0.42397975573E+03  0.42546986084E+03  0.20000001644E+01 0.  0.
        -13    1    3    3    0    0 -0.35316730708E+02 -0.38075908185E+01 -0.18107370796E+03  0.18452497960E+03  0.10566000000E+00 0.  1.
         13    1    4    4    0    0  0.23751544262E+02  0.28977240745E+01 -0.27649898847E+03  0.27753240252E+03  0.10566000000E+00 0. -1.
        -13    1    4    4    0    0  0.14125656258E+01  0.37144210176E-01 -0.19907550781E+02  0.19957917313E+02  0.10566000000E+00 0.  1.
        -14    1    4    4    0    0  0.10152620820E+02  0.87272253380E+00 -0.12757321648E+03  0.12797954101E+03  0.00000000000E+00 0.  1.
<mgrwt>
<rscale>  0 0.77485556E+02</rscale>
<asrwt>0</asrwt>
<pdfrwt beam="1">  1        2 0.93465135E-01 0.77485556E+02</pdfrwt>
<pdfrwt beam="2">  1       -1 0.38010639E-03 0.77485556E+02</pdfrwt>
<totfact> 0.35066281E+05</totfact>
</mgrwt>
</event>
<event>
 8    1  0.7667702E-014  0.7987303E+02  0.7818608E-02  0.1329412E+00
         -1   -1    0    0    0  501 -0.00000000000E+00  0.00000000000E+00  0.18686312529E+02  0.18686313209E+02  0.50400000000E-02 0.  1.
          2   -1    0    0  501    0  0.00000000000E+00 -0.00000000000E+00 -0.85352598858E+02  0.85352598896E+02  0.25500000000E-02 0. -1.
         24    2    1    2    0    0  0.00000000000E+00  0.00000000000E+00 -0.66666286329E+02  0.10403891210E+03  0.79873033616E+02 0.  0.
         66    2    3    3    0    0  0.34299221815E+02 -0.18209534677E+02 -0.21352335957E+02  0.44361537559E+02  0.19999983680E+01 0.  0.
        -13    1    3    3    0    0 -0.34299221815E+02  0.18209534677E+02 -0.45313950373E+02  0.59677374546E+02  0.10566000000E+00 0.  1.
         13    1    4    4    0    0  0.18126412336E+01 -0.74498948639E+00 -0.79865262386E+00  0.21188882995E+01  0.10566000000E+00 0. -1.
        -13    1    4    4    0    0  0.11209398276E+01 -0.83982774141E+00 -0.71243779506E+00  0.15749756759E+01  0.10566000000E+00 0.  1.
         14    1    4    4    0    0  0.31365640754E+02 -0.16624717449E+02 -0.19841245538E+02  0.40667673583E+02  0.00000000000E+00 0. -1.
<mgrwt>
<rscale>  0 0.79873034E+02</rscale>
<asrwt>0</asrwt>
<pdfrwt beam="1">  1        2 0.13131169E-01 0.79873034E+02</pdfrwt>
<pdfrwt beam="2">  1       -1 0.28748174E-02 0.79873034E+02</pdfrwt>
<totfact> 0.17052047E+05</totfact>
</mgrwt>
</event>
<event>
 8    1  0.7667702E-014  0.8177715E+02  0.7818608E-02  0.1324082E+00
          2   -1    0    0  501    0  0.00000000000E+00  0.00000000000E+00  0.21960715628E+03  0.21960715629E+03  0.25500000000E-02 0. -1.
         -1   -1    0    0    0  501 -0.00000000000E+00 -0.00000000000E+00 -0.76130282736E+01  0.76130299419E+01  0.50400000000E-02 0.  1.
         24    2    1    2    0    0  0.00000000000E+00 -0.17763568394E-14  0.21199412801E+03  0.22722018624E+03  0.81777152825E+02 0.  0.
         66    2    3    3    0    0  0.20995719777E+02  0.10535013556E+02  0.19896724601E+03  0.20035910699E+03  0.20000024572E+01 0.  0.
        -13    1    3    3    0    0 -0.20995719777E+02 -0.10535013556E+02  0.13026881993E+02  0.26861079243E+02  0.10566000000E+00 0.  1.
         13    1    4    4    0    0  0.38351139054E+01  0.12340786610E+01  0.33151791868E+02  0.33395860775E+02  0.10566000000E+00 0. -1.
        -13    1    4    4    0    0  0.61362119938E+01  0.35495068277E+01  0.63859909840E+02  0.64252247783E+02  0.10566000000E+00 0.  1.
         14    1    4    4    0    0  0.11024393878E+02  0.57514280675E+01  0.10195554430E+03  0.10271099843E+03  0.00000000000E+00 0. -1.
<mgrwt>
<rscale>  0 0.81777153E+02</rscale>
<asrwt>0</asrwt>
<pdfrwt beam="1">  1        2 0.33785714E-01 0.81777153E+02</pdfrwt>
<pdfrwt beam="2">  1       -1 0.11712353E-02 0.81777153E+02</pdfrwt>
<totfact> 0.21509589E+05</totfact>
</mgrwt>
</event>
<event>
 8    1  0.7667702E-014  0.8197882E+02  0.7818608E-02  0.1323528E+00
         -1   -1    0    0    0  501 -0.00000000000E+00  0.00000000000E+00  0.33909277116E+02  0.33909277490E+02  0.50400000000E-02 0.  1.
          2   -1    0    0  501    0  0.00000000000E+00 -0.00000000000E+00 -0.49547851881E+02  0.49547851946E+02  0.25500000000E-02 0. -1.
         24    2    1    2    0    0  0.00000000000E+00  0.44408920985E-15 -0.15638574765E+02  0.83457129437E+02  0.81978823077E+02 0.  0.
         66    2    3    3    0    0  0.20478755503E+02  0.23237903203E+01 -0.43864983903E+02  0.48506868131E+02  0.20000036574E+01 0.  0.
        -13    1    3    3    0    0 -0.20478755503E+02 -0.23237903203E+01  0.28226409139E+02  0.34950261305E+02  0.10566000000E+00 0.  1.
         13    1    4    4    0    0  0.13035122553E+02  0.80742487040E+00 -0.28917590223E+02  0.31730183473E+02  0.10566000000E+00 0. -1.
        -13    1    4    4    0    0  0.66147445297E+01  0.13838390143E+01 -0.13645653681E+02  0.15227766876E+02  0.10566000000E+00 0. -1.
         14    1    4    4    0    0  0.82888842026E+00  0.13252643556E+00 -0.13017399994E+01  0.15489177820E+01  0.00000000000E+00 0. -1.
<mgrwt>
<rscale>  0 0.81978823E+02</rscale>
<asrwt>0</asrwt>
<pdfrwt beam="1">  1        2 0.76227465E-02 0.81978823E+02</pdfrwt>
<pdfrwt beam="2">  1       -1 0.52168119E-02 0.81978823E+02</pdfrwt>
<totfact> 0.13946030E+05</totfact>
</mgrwt>
</event>
<event>
 8    1  0.7667702E-014  0.8722389E+02  0.7818608E-02  0.1309717E+00
         -1   -1    0    0    0  501 -0.00000000000E+00  0.00000000000E+00  0.27260696478E+01  0.27260743068E+01  0.50400000000E-02 0.  1.
          2   -1    0    0  501    0  0.00000000000E+00 -0.00000000000E+00 -0.69770781629E+03  0.69770781629E+03  0.25500000000E-02 0. -1.
         24    2    1    2    0    0  0.35527136788E-14  0.00000000000E+00 -0.69498174664E+03  0.70043389060E+03  0.87223889717E+02 0.  0.
         66    2    3    3    0    0  0.16946482260E+02 -0.19395225906E+02 -0.63006552627E+03  0.63059489805E+03  0.20000014220E+01 0.  0.
        -13    1    3    3    0    0 -0.16946482260E+02  0.19395225906E+02 -0.64916220369E+02  0.69838992547E+02  0.10566000000E+00 0.  1.
         13    1    4    4    0    0  0.93917872534E+01 -0.10274787164E+02 -0.34119292642E+03  0.34147679441E+03  0.10566000000E+00 0. -1.
        -13    1    4    4    0    0  0.30039626543E+01 -0.29595101389E+01 -0.11335725540E+03  0.11343571311E+03  0.10566000000E+00 0.  1.
        -14    1    4    4    0    0  0.45507323525E+01 -0.61609286030E+01 -0.17551534446E+03  0.17568239054E+03  0.00000000000E+00 0.  1.
<mgrwt>
<rscale>  0 0.87223890E+02</rscale>
<asrwt>0</asrwt>
<pdfrwt beam="1">  1        2 0.10733952E+00 0.87223890E+02</pdfrwt>
<pdfrwt beam="2">  1       -1 0.41939625E-03 0.87223890E+02</pdfrwt>
<totfact> 0.26673065E+05</totfact>
</mgrwt>
</event>
<event>
 8    1  0.7667702E-014  0.7606311E+02  0.7818608E-02  0.1340610E+00
          2   -1    0    0  501    0  0.00000000000E+00  0.00000000000E+00  0.22788949797E+03  0.22788949798E+03  0.25500000000E-02 0. -1.
         -1   -1    0    0    0  501 -0.00000000000E+00 -0.00000000000E+00 -0.63469312882E+01  0.63469332893E+01  0.50400000000E-02 0.  1.
         24    2    1    2    0    0  0.00000000000E+00  0.00000000000E+00  0.22154256668E+03  0.23423643127E+03  0.76063111189E+02 0.  0.
         66    2    3    3    0    0 -0.57057903659E+01  0.17356279658E+02  0.21347397693E+03  0.21426370507E+03  0.19999993789E+01 0.  0.
        -13    1    3    3    0    0  0.57057903659E+01 -0.17356279658E+02  0.80685897499E+01  0.19972726200E+02  0.10566000000E+00 0.  1.
         13    1    4    4    0    0 -0.19693166251E+01  0.53200435214E+01  0.60624824782E+02  0.60889749670E+02  0.10566000000E+00 0. -1.
        -13    1    4    4    0    0 -0.15281031512E+01  0.41563747986E+01  0.61254476301E+02  0.61414433008E+02  0.10566000000E+00 0.  1.
         14    1    4    4    0    0 -0.22083705896E+01  0.78798613380E+01  0.91594675846E+02  0.91959522393E+02  0.00000000000E+00 0. -1.
<mgrwt>
<rscale>  0 0.76063111E+02</rscale>
<asrwt>0</asrwt>
<pdfrwt beam="1">  1        2 0.35059922E-01 0.76063111E+02</pdfrwt>
<pdfrwt beam="2">  1       -1 0.97645115E-03 0.76063111E+02</pdfrwt>
<totfact> 0.26365647E+05</totfact>
</mgrwt>
</event>
<event>
 8    1  0.7667702E-014  0.8000842E+02  0.7818608E-02  0.1329028E+00
         -1   -1    0    0    0  501 -0.00000000000E+00  0.00000000000E+00  0.46555940491E+01  0.46555967771E+01  0.50400000000E-02 0.  1.
          2   -1    0    0  501    0  0.00000000000E+00 -0.00000000000E+00 -0.34374484245E+03  0.34374484246E+03  0.25500000000E-02 0. -1.
         24    2    1    2    0    0  0.00000000000E+00 -0.88817841970E-15 -0.33908924840E+03  0.34840043924E+03  0.80008422551E+02 0.  0.
         66    2    3    3    0    0  0.15037336773E+02 -0.72227286523E+01 -0.32786137814E+03  0.32829159688E+03  0.19999994801E+01 0.  0.
        -13    1    3    3    0    0 -0.15037336773E+02  0.72227286523E+01 -0.11227870262E+02  0.20108842360E+02  0.10566000000E+00 0.  1.
         13    1    4    4    0    0  0.81006990782E+01 -0.39835684757E+01 -0.19490522242E+03  0.19511418973E+03  0.10566000000E+00 0. -1.
        -13    1    4    4    0    0  0.17028604964E+01 -0.68114835384E+00 -0.28935291708E+02  0.28993550442E+02  0.10566000000E+00 0. -1.
         14    1    4    4    0    0  0.52337771986E+01 -0.25580118228E+01 -0.10402086401E+03  0.10418385671E+03  0.00000000000E+00 0. -1.
<mgrwt>
<rscale>  0 0.80008423E+02</rscale>
<asrwt>0</asrwt>
<pdfrwt beam="1">  1        2 0.52883802E-01 0.80008423E+02</pdfrwt>
<pdfrwt beam="2">  1       -1 0.71624572E-03 0.80008423E+02</pdfrwt>
<totfact> 0.26769014E+05</totfact>
</mgrwt>
</event>
<event>
 8    1  0.7667702E-014  0.7947644E+02  0.7818608E-02  0.1330544E+00
         -1   -1    0    0    0  501 -0.00000000000E+00  0.00000000000E+00  0.48927023555E+01  0.48927049514E+01  0.50400000000E-02 0.  1.
          2   -1    0    0  501    0  0.00000000000E+00 -0.00000000000E+00 -0.32275124781E+03  0.32275124782E+03  0.25500000000E-02 0. -1.
         24    2    1    2    0    0  0.35527136788E-14  0.88817841970E-15 -0.31785854545E+03  0.32764395277E+03  0.79476442228E+02 0.  0.
         66    2    3    3    0    0 -0.22240221413E+02 -0.63574652205E+01 -0.29210986183E+03  0.29303108400E+03  0.19999988269E+01 0.  0.
        -13    1    3    3    0    0  0.22240221413E+02  0.63574652205E+01 -0.25748683617E+02  0.34612868771E+02  0.10566000000E+00 0.  1.
         13    1    4    4    0    0 -0.12390236333E+01 -0.22108702461E+00 -0.13168173376E+02  0.13228605865E+02  0.10566000000E+00 0. -1.
        -13    1    4    4    0    0 -0.62040510911E+01 -0.14475082295E+01 -0.73992165277E+02  0.74265989634E+02  0.10566000000E+00 0. -1.
        -14    1    4    4    0    0 -0.14797146688E+02 -0.46888699664E+01 -0.20494952318E+03  0.20553648850E+03  0.00000000000E+00 0.  1.
<mgrwt>
<rscale>  0 0.79476442E+02</rscale>
<asrwt>0</asrwt>
<pdfrwt beam="1">  1        2 0.49654021E-01 0.79476442E+02</pdfrwt>
<pdfrwt beam="2">  1       -1 0.75272390E-03 0.79476442E+02</pdfrwt>
<totfact> 0.26630850E+05</totfact>
</mgrwt>
</event>
<event>
 8    1  0.7667702E-014  0.7153509E+02  0.7818608E-02  0.1354949E+00
          2   -1    0    0  501    0  0.00000000000E+00  0.00000000000E+00  0.16495195689E+03  0.16495195691E+03  0.25500000000E-02 0. -1.
         -1   -1    0    0    0  501 -0.00000000000E+00 -0.00000000000E+00 -0.77556963550E+01  0.77556979927E+01  0.50400000000E-02 0.  1.
         24    2    1    2    0    0  0.00000000000E+00  0.88817841970E-15  0.15719626053E+03  0.17270765490E+03  0.71535094434E+02 0.  0.
         66    2    3    3    0    0  0.22607195357E+02 -0.63131961387E+01  0.14372802463E+03  0.14564575789E+03  0.20000000015E+01 0.  0.
        -13    1    3    3    0    0 -0.22607195357E+02  0.63131961387E+01  0.13468235902E+02  0.27061897010E+02  0.10566000000E+00 0.  1.
         13    1    4    4    0    0  0.16047053298E+02 -0.44263682801E+01  0.97901874854E+02  0.99307043655E+02  0.10566000000E+00 0. -1.
        -13    1    4    4    0    0  0.45649495500E+01 -0.95912553128E+00  0.32101582782E+02  0.32438888195E+02  0.10566000000E+00 0.  1.
         14    1    4    4    0    0  0.19951925087E+01 -0.92770232738E+00  0.13724566996E+02  0.13899826042E+02  0.00000000000E+00 0. -1.
<mgrwt>
<rscale>  0 0.71535094E+02</rscale>
<asrwt>0</asrwt>
<pdfrwt beam="1">  1        2 0.25377223E-01 0.71535094E+02</pdfrwt>
<pdfrwt beam="2">  1       -1 0.11931842E-02 0.71535094E+02</pdfrwt>
<totfact> 0.27727730E+05</totfact>
</mgrwt>
</event>
<event>
 8    1  0.7667702E-014  0.8024938E+02  0.7818608E-02  0.1328345E+00
         -1   -1    0    0    0  501 -0.00000000000E+00  0.00000000000E+00  0.20123093445E+02  0.20123094076E+02  0.50400000000E-02 0.  1.
          2   -1    0    0  501    0  0.00000000000E+00 -0.00000000000E+00 -0.80007111218E+02  0.80007111258E+02  0.25500000000E-02 0. -1.
         24    2    1    2    0    0  0.00000000000E+00  0.00000000000E+00 -0.59884017773E+02  0.10013020533E+03  0.80249376544E+02 0.  0.
         66    2    3    3    0    0 -0.25212788358E+02 -0.13700817433E+02 -0.64910332697E+02  0.70998228044E+02  0.19999998382E+01 0.  0.
        -13    1    3    3    0    0  0.25212788358E+02  0.13700817433E+02  0.50263149243E+01  0.29131977291E+02  0.10566000000E+00 0.  1.
         13    1    4    4    0    0 -0.16420746271E+02 -0.91535409355E+01 -0.43094724544E+02  0.47016961485E+02  0.10566000000E+00 0. -1.
        -13    1    4    4    0    0 -0.34601236309E+00 -0.34586219266E+00 -0.15248466268E+01  0.16048883085E+01  0.10566000000E+00 0.  1.
         14    1    4    4    0    0 -0.84460297240E+01 -0.42014143047E+01 -0.20290761527E+02  0.22376378250E+02  0.00000000000E+00 0. -1.
<mgrwt>
<rscale>  0 0.80249377E+02</rscale>
<asrwt>0</asrwt>
<pdfrwt beam="1">  1        2 0.12308786E-01 0.80249377E+02</pdfrwt>
<pdfrwt beam="2">  1       -1 0.30958606E-02 0.80249377E+02</pdfrwt>
<totfact> 0.16556503E+05</totfact>
</mgrwt>
</event>
<event>
 8    1  0.7667702E-014  0.7748460E+02  0.7818608E-02  0.1336345E+00
          2   -1    0    0  501    0  0.00000000000E+00  0.00000000000E+00  0.12847448400E+04  0.12847448400E+04  0.25500000000E-02 0. -1.
         -1   -1    0    0    0  501 -0.00000000000E+00 -0.00000000000E+00 -0.11682933306E+01  0.11683042018E+01  0.50400000000E-02 0.  1.
         24    2    1    2    0    0  0.00000000000E+00  0.00000000000E+00  0.12835765466E+04  0.12859131442E+04  0.77484600261E+02 0.  0.
         66    2    3    3    0    0  0.22557865644E+02 -0.41590963842E+01  0.11598325207E+04  0.11600610464E+04  0.20000007714E+01 0.  0.
        -13    1    3    3    0    0 -0.22557865644E+02  0.41590963842E+01  0.12374402596E+03  0.12585209776E+03  0.10566000000E+00 0.  1.
         13    1    4    4    0    0  0.58317480087E+01 -0.13958470635E+01  0.33570244718E+03  0.33575601540E+03  0.10566000000E+00 0. -1.
        -13    1    4    4    0    0  0.75031949546E+01 -0.14002223985E+01  0.34846066567E+03  0.34854426583E+03  0.10566000000E+00 0.  1.
         14    1    4    4    0    0  0.92229226805E+01 -0.13630269222E+01  0.47566940784E+03  0.47576076519E+03  0.00000000000E+00 0. -1.
<mgrwt>
<rscale>  0 0.77484600E+02</rscale>
<asrwt>0</asrwt>
<pdfrwt beam="1">  1        2 0.19765243E+00 0.77484600E+02</pdfrwt>
<pdfrwt beam="2">  1       -1 0.17973884E-03 0.77484600E+02</pdfrwt>
<totfact> 0.37689420E+05</totfact>
</mgrwt>
</event>
<event>
 8    1  0.7667702E-014  0.8066946E+02  0.7818608E-02  0.1327162E+00
          2   -1    0    0  501    0  0.00000000000E+00  0.00000000000E+00  0.12492999019E+03  0.12492999021E+03  0.25500000000E-02 0. -1.
         -1   -1    0    0    0  501 -0.00000000000E+00 -0.00000000000E+00 -0.13022416716E+02  0.13022417691E+02  0.50400000000E-02 0.  1.
         24    2    1    2    0    0  0.00000000000E+00  0.00000000000E+00  0.11190757347E+03  0.13795240790E+03  0.80669460431E+02 0.  0.
         66    2    3    3    0    0  0.17361494347E+02  0.93889015816E+01  0.11609280084E+03  0.11777568242E+03  0.20000009261E+01 0.  0.
        -13    1    3    3    0    0 -0.17361494347E+02 -0.93889015816E+01 -0.41852273731E+01  0.20176725480E+02  0.10566000000E+00 0.  1.
         13    1    4    4    0    0  0.12940961674E+02  0.74709790862E+01  0.87606054479E+02  0.88871345005E+02  0.10566000000E+00 0. -1.
        -13    1    4    4    0    0  0.12128456441E+01  0.93184166088E+00  0.82539417453E+01  0.83951201187E+01  0.10566000000E+00 0.  1.
         14    1    4    4    0    0  0.32076870291E+01  0.98608083455E+00  0.20232804620E+02  0.20509217301E+02  0.00000000000E+00 0. -1.
<mgrwt>
<rscale>  0 0.80669460E+02</rscale>
<asrwt>0</asrwt>
<pdfrwt beam="1">  1        2 0.19219998E-01 0.80669460E+02</pdfrwt>
<pdfrwt beam="2">  1       -1 0.20034488E-02 0.80669460E+02</pdfrwt>
<totfact> 0.18499385E+05</totfact>
</mgrwt>
</event>
<event>
 8    1  0.8099355E-014  0.7908357E+02  0.7818608E-02  0.1331672E+00
         -1   -1    0    0    0  501 -0.00000000000E+00  0.00000000000E+00  0.14936521767E+01  0.14936606799E+01  0.50400000000E-02 0.  1.
          2   -1    0    0  501    0  0.00000000000E+00 -0.00000000000E+00 -0.10467954708E+04  0.10467954708E+04  0.25500000000E-02 0. -1.
         24    2    1    2    0    0  0.00000000000E+00  0.00000000000E+00 -0.10453018186E+04  0.10482891315E+04  0.79083570785E+02 0.  0.
         66    2    3    3    0    0 -0.15242950980E+02 -0.36943877365E+01 -0.10037668987E+04  0.10038914199E+04  0.19999995824E+01 0.  0.
        -13    1    3    3    0    0  0.15242950980E+02  0.36943877365E+01 -0.41534919912E+02  0.44397711556E+02  0.10566000000E+00 0.  1.
         13    1    4    4    0    0 -0.47212456664E+01 -0.10168126116E+01 -0.30629407663E+03  0.30633216712E+03  0.10566000000E+00 0. -1.
        -13    1    4    4    0    0 -0.65763172732E+01 -0.19116312026E+01 -0.48576066907E+03  0.48580895531E+03  0.10566000000E+00 0.  1.
        -14    1    4    4    0    0 -0.39453880400E+01 -0.76594392234E+00 -0.21171215302E+03  0.21175029750E+03  0.00000000000E+00 0.  1.
<mgrwt>
<rscale>  0 0.79083571E+02</rscale>
<asrwt>0</asrwt>
<pdfrwt beam="1">  1        2 0.16104487E+00 0.79083571E+02</pdfrwt>
<pdfrwt beam="2">  1       -1 0.22979413E-03 0.79083571E+02</pdfrwt>
<totfact> 0.36342212E+05</totfact>
</mgrwt>
</event>
<event>
 8    1  0.7667702E-014  0.8241298E+02  0.7818608E-02  0.1322340E+00
          2   -1    0    0  501    0  0.00000000000E+00  0.00000000000E+00  0.25375539779E+03  0.25375539780E+03  0.25500000000E-02 0. -1.
         -1   -1    0    0    0  501 -0.00000000000E+00 -0.00000000000E+00 -0.66913833204E+01  0.66913852185E+01  0.50400000000E-02 0.  1.
         24    2    1    2    0    0  0.00000000000E+00 -0.35527136788E-14  0.24706401447E+03  0.26044678302E+03  0.82412981624E+02 0.  0.
         66    2    3    3    0    0 -0.24840280713E+02 -0.28506993896E+02  0.17517418290E+03  0.17921964905E+03  0.20000004403E+01 0.  0.
        -13    1    3    3    0    0  0.24840280713E+02  0.28506993896E+02  0.71889831562E+02  0.81227133970E+02  0.10566000000E+00 0.  1.
         13    1    4    4    0    0 -0.86624103675E+01 -0.10397278671E+02  0.62171647194E+02  0.63627554063E+02  0.10566000000E+00 0. -1.
        -13    1    4    4    0    0 -0.12477456243E+02 -0.14791047113E+02  0.91105579196E+02  0.93138068016E+02  0.10566000000E+00 0.  1.
        -14    1    4    4    0    0 -0.37004141027E+01 -0.33186681125E+01  0.21896956514E+02  0.22454026969E+02  0.00000000000E+00 0.  1.
<mgrwt>
<rscale>  0 0.82412982E+02</rscale>
<asrwt>0</asrwt>
<pdfrwt beam="1">  1        2 0.39039284E-01 0.82412982E+02</pdfrwt>
<pdfrwt beam="2">  1       -1 0.10294440E-02 0.82412982E+02</pdfrwt>
<totfact> 0.22190737E+05</totfact>
</mgrwt>
</event>
<event>
 8    1  0.7667702E-014  0.7905785E+02  0.7818608E-02  0.1331747E+00
          2   -1    0    0  501    0  0.00000000000E+00  0.00000000000E+00  0.64823315974E+01  0.64823320990E+01  0.25500000000E-02 0. -1.
         -1   -1    0    0    0  501 -0.00000000000E+00 -0.00000000000E+00 -0.24104531489E+03  0.24104531494E+03  0.50400000000E-02 0.  1.
         24    2    1    2    0    0  0.00000000000E+00  0.00000000000E+00 -0.23456298329E+03  0.24752764704E+03  0.79057845397E+02 0.  0.
         66    2    3    3    0    0 -0.12210133842E+02 -0.36706277814E+02 -0.14242220140E+03  0.14759580501E+03  0.20000016034E+01 0.  0.
        -13    1    3    3    0    0  0.12210133842E+02  0.36706277814E+02 -0.92140781895E+02  0.99931842031E+02  0.10566000000E+00 0.  1.
         13    1    4    4    0    0 -0.15419582862E+01 -0.49471665073E+01 -0.17378662372E+02  0.18135080967E+02  0.10566000000E+00 0. -1.
        -13    1    4    4    0    0 -0.35313854916E+01 -0.87277068917E+01 -0.34567555164E+02  0.35826953333E+02  0.10566000000E+00 0.  1.
        -14    1    4    4    0    0 -0.71367900647E+01 -0.23031404415E+02 -0.90475983862E+02  0.93633770711E+02  0.00000000000E+00 0.  1.
<mgrwt>
<rscale>  0 0.79057845E+02</rscale>
<asrwt>0</asrwt>
<pdfrwt beam="1">  1        2 0.99728201E-03 0.79057845E+02</pdfrwt>
<pdfrwt beam="2">  1       -1 0.37083888E-01 0.79057845E+02</pdfrwt>
<totfact> 0.96671342E+04</totfact>
</mgrwt>
</event>
<event>
 8    1  0.7667702E-014  0.8181181E+02  0.7818608E-02  0.1323987E+00
         -1   -1    0    0    0  501 -0.00000000000E+00  0.00000000000E+00  0.25315493145E+01  0.25315543315E+01  0.50400000000E-02 0.  1.
          2   -1    0    0  501    0  0.00000000000E+00 -0.00000000000E+00 -0.66097520003E+03  0.66097520003E+03  0.25500000000E-02 0. -1.
         24    2    1    2    0    0  0.00000000000E+00  0.17763568394E-14 -0.65844365071E+03  0.66350675436E+03  0.81811807964E+02 0.  0.
         66    2    3    3    0    0  0.14178937608E+02  0.14758610549E+02 -0.61643391569E+03  0.61677680832E+03  0.20000010966E+01 0.  0.
        -13    1    3    3    0    0 -0.14178937608E+02 -0.14758610549E+02 -0.42009735020E+02  0.46729946046E+02  0.10566000000E+00 0.  1.
         13    1    4    4    0    0  0.22935279130E+01  0.27361836823E+01 -0.11323846461E+03  0.11329478365E+03  0.10566000000E+00 0. -1.
        -13    1    4    4    0    0  0.41592904905E+01  0.49587403537E+01 -0.17507746962E+03  0.17519708997E+03  0.10566000000E+00 0.  1.
        -14    1    4    4    0    0  0.77261192046E+01  0.70636865131E+01 -0.32811798146E+03  0.32828493469E+03  0.00000000000E+00 0.  1.
<mgrwt>
<rscale>  0 0.81811808E+02</rscale>
<asrwt>0</asrwt>
<pdfrwt beam="1">  1        2 0.10168835E+00 0.81811808E+02</pdfrwt>
<pdfrwt beam="2">  1       -1 0.38947004E-03 0.81811808E+02</pdfrwt>
<totfact> 0.31127377E+05</totfact>
</mgrwt>
</event>
<event>
 8    1  0.7667702E-014  0.8366152E+02  0.7818608E-02  0.1318970E+00
          2   -1    0    0  501    0  0.00000000000E+00  0.00000000000E+00  0.78440701141E+03  0.78440701141E+03  0.25500000000E-02 0. -1.
         -1   -1    0    0    0  501 -0.00000000000E+00 -0.00000000000E+00 -0.22307429949E+01  0.22307486884E+01  0.50400000000E-02 0.  1.
         24    2    1    2    0    0  0.00000000000E+00  0.00000000000E+00  0.78217626842E+03  0.78663776010E+03  0.83661524892E+02 0.  0.
         66    2    3    3    0    0  0.31693816790E+02  0.50172219984E+00  0.64761794357E+03  0.64839629130E+03  0.19999970537E+01 0.  0.
        -13    1    3    3    0    0 -0.31693816790E+02 -0.50172219984E+00  0.13455832485E+03  0.13824146881E+03  0.10566000000E+00 0.  1.
         13    1    4    4    0    0  0.19416991107E+02  0.46250642991E-01  0.38535359621E+03  0.38584248983E+03  0.10566000000E+00 0. -1.
        -13    1    4    4    0    0  0.12014782415E+02  0.30109020193E+00  0.25500581369E+03  0.25528889876E+03  0.10566000000E+00 0.  1.
        -14    1    4    4    0    0  0.26204326766E+00  0.15438135492E+00  0.72585336738E+01  0.72649027089E+01  0.00000000000E+00 0.  1.
<mgrwt>
<rscale>  0 0.83661525E+02</rscale>
<asrwt>0</asrwt>
<pdfrwt beam="1">  1        2 0.12067822E+00 0.83661525E+02</pdfrwt>
<pdfrwt beam="2">  1       -1 0.34319105E-03 0.83661525E+02</pdfrwt>
<totfact> 0.30479226E+05</totfact>
</mgrwt>
</event>
<event>
 8    1  0.7667702E-014  0.7994820E+02  0.7818608E-02  0.1329198E+00
          2   -1    0    0  501    0  0.00000000000E+00  0.00000000000E+00  0.10437490654E+02  0.10437490965E+02  0.25500000000E-02 0. -1.
         -1   -1    0    0    0  501 -0.00000000000E+00 -0.00000000000E+00 -0.15309511442E+03  0.15309511450E+03  0.50400000000E-02 0.  1.
         24    2    1    2    0    0  0.00000000000E+00  0.17763568394E-14 -0.14265762376E+03  0.16353260546E+03  0.79948204686E+02 0.  0.
         66    2    3    3    0    0 -0.38440733707E+02  0.10123840107E+02 -0.79488954372E+02  0.88896996650E+02  0.19999999787E+01 0.  0.
        -13    1    3    3    0    0  0.38440733707E+02 -0.10123840107E+02 -0.63168669390E+02  0.74635608814E+02  0.10566000000E+00 0.  1.
         13    1    4    4    0    0 -0.62987360940E+01  0.13768995702E+01 -0.14253575315E+02  0.15644344093E+02  0.10566000000E+00 0. -1.
        -13    1    4    4    0    0 -0.25337072112E+01  0.49954436533E+00 -0.52119542699E+01  0.58176325212E+01  0.10566000000E+00 0.  1.
         14    1    4    4    0    0 -0.29608290402E+02  0.82473961713E+01 -0.60023424787E+02  0.67435020036E+02  0.00000000000E+00 0. -1.
<mgrwt>
<rscale>  0 0.79948205E+02</rscale>
<asrwt>0</asrwt>
<pdfrwt beam="1">  1        2 0.16057679E-02 0.79948205E+02</pdfrwt>
<pdfrwt beam="2">  1       -1 0.23553093E-01 0.79948205E+02</pdfrwt>
<totfact> 0.10748531E+05</totfact>
</mgrwt>
</event>
<event>
 8    1  0.7667702E-014  0.7986777E+02  0.7818608E-02  0.1329427E+00
          2   -1    0    0  501    0  0.00000000000E+00  0.00000000000E+00  0.16641449915E+04  0.16641449915E+04  0.25500000000E-02 0. -1.
         -1   -1    0    0    0  501 -0.00000000000E+00 -0.00000000000E+00 -0.95827225889E+00  0.95828551265E+00  0.50400000000E-02 0.  1.
         24    2    1    2    0    0  0.00000000000E+00 -0.17763568394E-14  0.16631867192E+04  0.16651032770E+04  0.79867766118E+02 0.  0.
         66    2    3    3    0    0 -0.34055679077E+01 -0.11466286250E+02  0.16258916091E+04  0.16259368371E+04  0.19999994473E+01 0.  0.
        -13    1    3    3    0    0  0.34055679077E+01  0.11466286250E+02  0.37295110132E+02  0.39166439932E+02  0.10566000000E+00 0.  1.
         13    1    4    4    0    0 -0.17707135807E+01 -0.53621893317E+01  0.73280274389E+03  0.73282450908E+03  0.10566000000E+00 0. -1.
        -13    1    4    4    0    0 -0.12415198530E+01 -0.20564966016E+01  0.31982993269E+03  0.31983897129E+03  0.10566000000E+00 0.  1.
        -14    1    4    4    0    0 -0.39333447400E+00 -0.40476003171E+01  0.57325893251E+03  0.57327335668E+03  0.00000000000E+00 0.  1.
<mgrwt>
<rscale>  0 0.79867766E+02</rscale>
<asrwt>0</asrwt>
<pdfrwt beam="1">  1        2 0.25602350E+00 0.79867766E+02</pdfrwt>
<pdfrwt beam="2">  1       -1 0.14742683E-03 0.79867766E+02</pdfrwt>
<totfact> 0.31848457E+05</totfact>
</mgrwt>
</event>
<event>
 8    1  0.7667702E-014  0.8152639E+02  0.7818608E-02  0.1324775E+00
         -1   -1    0    0    0  501 -0.00000000000E+00  0.00000000000E+00  0.19855238695E+01  0.19855302662E+01  0.50400000000E-02 0.  1.
          2   -1    0    0  501    0  0.00000000000E+00 -0.00000000000E+00 -0.83687504957E+03  0.83687504958E+03  0.25500000000E-02 0. -1.
         24    2    1    2    0    0  0.88817841970E-15  0.00000000000E+00 -0.83488952570E+03  0.83886057984E+03  0.81526390116E+02 0.  0.
         66    2    3    3    0    0  0.61031900344E+01  0.23962549667E+02 -0.75082209582E+03  0.75123183657E+03  0.20000000607E+01 0.  0.
        -13    1    3    3    0    0 -0.61031900344E+01 -0.23962549667E+02 -0.84067429887E+02  0.87628743269E+02  0.10566000000E+00 0.  1.
         13    1    4    4    0    0  0.14392790936E+01  0.53157005221E+01 -0.17203610078E+03  0.17212425550E+03  0.10566000000E+00 0. -1.
        -13    1    4    4    0    0  0.31170158732E+01  0.12203006438E+02 -0.40273220987E+03  0.40292911683E+03  0.10566000000E+00 0.  1.
        -14    1    4    4    0    0  0.15468950677E+01  0.64438427067E+01 -0.17605378516E+03  0.17617846424E+03  0.00000000000E+00 0.  1.
<mgrwt>
<rscale>  0 0.81526390E+02</rscale>
<asrwt>0</asrwt>
<pdfrwt beam="1">  1        2 0.12874973E+00 0.81526390E+02</pdfrwt>
<pdfrwt beam="2">  1       -1 0.30546637E-03 0.81526390E+02</pdfrwt>
<totfact> 0.32956779E+05</totfact>
</mgrwt>
</event>
<event>
 8    1  0.7667702E-014  0.7799610E+02  0.7818608E-02  0.1334836E+00
          2   -1    0    0  501    0  0.00000000000E+00  0.00000000000E+00  0.19728114289E+03  0.19728114291E+03  0.25500000000E-02 0. -1.
         -1   -1    0    0    0  501 -0.00000000000E+00 -0.00000000000E+00 -0.77090374430E+01  0.77090390905E+01  0.50400000000E-02 0.  1.
         24    2    1    2    0    0 -0.35527136788E-14  0.35527136788E-14  0.18957210545E+03  0.20499018200E+03  0.77996099592E+02 0.  0.
         66    2    3    3    0    0 -0.23157914603E+02  0.23666358117E+02  0.14886783976E+03  0.15251891439E+03  0.20000040895E+01 0.  0.
        -13    1    3    3    0    0  0.23157914603E+02 -0.23666358117E+02  0.40704265689E+02  0.52471267610E+02  0.10566000000E+00 0.  1.
         13    1    4    4    0    0 -0.31053690854E+01  0.29093089784E+01  0.17288487988E+02  0.17804785223E+02  0.10566000000E+00 0. -1.
        -13    1    4    4    0    0 -0.89732158593E+01  0.90687028659E+01  0.61188115462E+02  0.62504052768E+02  0.10566000000E+00 0.  1.
         14    1    4    4    0    0 -0.11079329658E+02  0.11688346273E+02  0.70391236309E+02  0.72210076397E+02  0.00000000000E+00 0. -1.
<mgrwt>
<rscale>  0 0.77996100E+02</rscale>
<asrwt>0</asrwt>
<pdfrwt beam="1">  1        2 0.30350946E-01 0.77996100E+02</pdfrwt>
<pdfrwt beam="2">  1       -1 0.11860058E-02 0.77996100E+02</pdfrwt>
<totfact> 0.23472254E+05</totfact>
</mgrwt>
</event>
<event>
 8    1  0.7667702E-014  0.7597260E+02  0.7818608E-02  0.1340885E+00
          2   -1    0    0  501    0  0.00000000000E+00  0.00000000000E+00  0.17428269263E+03  0.17428269265E+03  0.25500000000E-02 0. -1.
         -1   -1    0    0    0  501 -0.00000000000E+00 -0.00000000000E+00 -0.82794158217E+01  0.82794173557E+01  0.50400000000E-02 0.  1.
         24    2    1    2    0    0 -0.71054273576E-14 -0.35527136788E-14  0.16600327681E+03  0.18256211001E+03  0.75972600970E+02 0.  0.
         66    2    3    3    0    0  0.29988740321E+02  0.19560218453E+02  0.11336228300E+03  0.11889883892E+03  0.19999994052E+01 0.  0.
        -13    1    3    3    0    0 -0.29988740321E+02 -0.19560218453E+02  0.52640993805E+02  0.63663271082E+02  0.10566000000E+00 0.  1.
         13    1    4    4    0    0  0.65998527743E+01  0.40294186952E+01  0.23738976087E+02  0.24966866471E+02  0.10566000000E+00 0. -1.
        -13    1    4    4    0    0  0.10608868988E+02  0.67413917656E+01  0.37586909411E+02  0.39633084503E+02  0.10566000000E+00 0.  1.
         14    1    4    4    0    0  0.12780018559E+02  0.87894079922E+01  0.52036397506E+02  0.54298887950E+02  0.00000000000E+00 0. -1.
<mgrwt>
<rscale>  0 0.75972601E+02</rscale>
<asrwt>0</asrwt>
<pdfrwt beam="1">  1        2 0.26812722E-01 0.75972601E+02</pdfrwt>
<pdfrwt beam="2">  1       -1 0.12737564E-02 0.75972601E+02</pdfrwt>
<totfact> 0.24116005E+05</totfact>
</mgrwt>
</event>
<event>
 8    1  0.7667702E-014  0.7992925E+02  0.7818608E-02  0.1329252E+00
         -1   -1    0    0    0  501 -0.00000000000E+00  0.00000000000E+00  0.37212333765E+02  0.37212334106E+02  0.50400000000E-02 0.  1.
          2   -1    0    0  501    0  0.00000000000E+00 -0.00000000000E+00 -0.42920483589E+02  0.42920483664E+02  0.25500000000E-02 0. -1.
         24    2    1    2    0    0 -0.35527136788E-14 -0.35527136788E-14 -0.57081498235E+01  0.80132817771E+02  0.79929253152E+02 0.  0.
         66    2    3    3    0    0  0.19540055654E+02  0.26024409116E+02 -0.26068285344E+02  0.41744930003E+02  0.20000088537E+01 0.  0.
        -13    1    3    3    0    0 -0.19540055654E+02 -0.26024409116E+02  0.20360135520E+02  0.38387887767E+02  0.10566000000E+00 0.  1.
         13    1    4    4    0    0  0.24715442278E+01  0.40529422678E+01 -0.38859715226E+01  0.61356996835E+01  0.10566000000E+00 0. -1.
        -13    1    4    4    0    0  0.80907120369E+01  0.93134362990E+01 -0.97701062904E+01  0.15737403150E+02  0.10566000000E+00 0.  1.
         14    1    4    4    0    0  0.89777993897E+01  0.12658030549E+02 -0.12412207531E+02  0.19871827169E+02  0.00000000000E+00 0. -1.
<mgrwt>
<rscale>  0 0.79929253E+02</rscale>
<asrwt>0</asrwt>
<pdfrwt beam="1">  1        2 0.66031513E-02 0.79929253E+02</pdfrwt>
<pdfrwt beam="2">  1       -1 0.57249745E-02 0.79929253E+02</pdfrwt>
<totfact> 0.14500100E+05</totfact>
</mgrwt>
</event>
<event>
 8    1  0.7667702E-014  0.8103280E+02  0.7818608E-02  0.1326146E+00
          2   -1    0    0  501    0  0.00000000000E+00  0.00000000000E+00  0.16115994110E+03  0.16115994112E+03  0.25500000000E-02 0. -1.
         -1   -1    0    0    0  501 -0.00000000000E+00 -0.00000000000E+00 -0.10186020096E+02  0.10186021343E+02  0.50400000000E-02 0.  1.
         24    2    1    2    0    0  0.88817841970E-15 -0.35527136788E-14  0.15097392101E+03  0.17134596247E+03  0.81032796010E+02 0.  0.
         66    2    3    3    0    0 -0.68462422160E+01  0.24348804719E+02  0.14239459368E+03  0.14463732444E+03  0.19999973274E+01 0.  0.
        -13    1    3    3    0    0  0.68462422160E+01 -0.24348804719E+02  0.85793273313E+01  0.26708638026E+02  0.10566000000E+00 0.  1.
         13    1    4    4    0    0 -0.23808603595E+01  0.82915857116E+01  0.51668273360E+02  0.52383590233E+02  0.10566000000E+00 0. -1.
        -13    1    4    4    0    0 -0.19211227816E+01  0.52708925058E+01  0.28183170110E+02  0.28736305643E+02  0.10566000000E+00 0.  1.
         14    1    4    4    0    0 -0.25442590750E+01  0.10786326501E+02  0.62543150207E+02  0.63517428564E+02  0.00000000000E+00 0. -1.
<mgrwt>
<rscale>  0 0.81032796E+02</rscale>
<asrwt>0</asrwt>
<pdfrwt beam="1">  1        2 0.24793835E-01 0.81032796E+02</pdfrwt>
<pdfrwt beam="2">  1       -1 0.15670803E-02 0.81032796E+02</pdfrwt>
<totfact> 0.19817848E+05</totfact>
</mgrwt>
</event>
<event>
 8    1  0.7667702E-014  0.8161641E+02  0.7818608E-02  0.1324526E+00
         -1   -1    0    0    0  501 -0.00000000000E+00  0.00000000000E+00  0.91143021585E+02  0.91143021724E+02  0.50400000000E-02 0.  1.
          2   -1    0    0  501    0  0.00000000000E+00 -0.00000000000E+00 -0.18271389223E+02  0.18271389401E+02  0.25500000000E-02 0. -1.
         24    2    1    2    0    0  0.22204460493E-15 -0.35527136788E-14  0.72871632362E+02  0.10941441112E+03  0.81616411087E+02 0.  0.
         66    2    3    3    0    0 -0.17917410921E+01  0.31175302517E+02  0.12892238184E+01  0.31317278014E+02  0.19999952440E+01 0.  0.
        -13    1    3    3    0    0  0.17917410921E+01 -0.31175302517E+02  0.71582408544E+02  0.78097133111E+02  0.10566000000E+00 0.  1.
         13    1    4    4    0    0 -0.13809570762E+01  0.25106182084E+02  0.17119438179E+01  0.25202566079E+02  0.10566000000E+00 0. -1.
        -13    1    4    4    0    0 -0.13525603404E+00  0.32795988280E+01 -0.29881465252E-01  0.32842228312E+01  0.10566000000E+00 0.  1.
         14    1    4    4    0    0 -0.27552798185E+00  0.27895216051E+01 -0.39283853426E+00  0.28304891040E+01  0.00000000000E+00 0. -1.
<mgrwt>
<rscale>  0 0.81616411E+02</rscale>
<asrwt>0</asrwt>
<pdfrwt beam="1">  1        2 0.28109830E-02 0.81616411E+02</pdfrwt>
<pdfrwt beam="2">  1       -1 0.14022003E-01 0.81616411E+02</pdfrwt>
<totfact> 0.11502113E+05</totfact>
</mgrwt>
</event>
<event>
 8    1  0.7667702E-014  0.8098562E+02  0.7818608E-02  0.1326277E+00
          2   -1    0    0  501    0  0.00000000000E+00  0.00000000000E+00  0.64753372032E+01  0.64753377053E+01  0.25500000000E-02 0. -1.
         -1   -1    0    0    0  501 -0.00000000000E+00 -0.00000000000E+00 -0.25321730075E+03  0.25321730080E+03  0.50400000000E-02 0.  1.
         24    2    1    2    0    0 -0.17763568394E-14  0.00000000000E+00 -0.24674196355E+03  0.25969263851E+03  0.80985615507E+02 0.  0.
         66    2    3    3    0    0  0.84694846298E+01 -0.33701099173E+02 -0.56938622017E+02  0.66734570845E+02  0.20000033171E+01 0.  0.
        -13    1    3    3    0    0 -0.84694846298E+01  0.33701099173E+02 -0.18980334153E+03  0.19295806766E+03  0.10566000000E+00 0.  1.
         13    1    4    4    0    0  0.35736451935E+01 -0.12861708129E+02 -0.21999567408E+02  0.25732986732E+02  0.10566000000E+00 0. -1.
        -13    1    4    4    0    0  0.13306752923E+01 -0.37651124124E+01 -0.58497264683E+01  0.70835889210E+01  0.10566000000E+00 0.  1.
        -14    1    4    4    0    0  0.35651641440E+01 -0.17074278632E+02 -0.29089328141E+02  0.33917995192E+02  0.00000000000E+00 0.  1.
<mgrwt>
<rscale>  0 0.80985616E+02</rscale>
<asrwt>0</asrwt>
<pdfrwt beam="1">  1        2 0.99620596E-03 0.80985616E+02</pdfrwt>
<pdfrwt beam="2">  1       -1 0.38956500E-01 0.80985616E+02</pdfrwt>
<totfact> 0.89346510E+04</totfact>
</mgrwt>
</event>
<event>
 8    1  0.7667702E-014  0.8114346E+02  0.7818608E-02  0.1325837E+00
         -1   -1    0    0    0  501 -0.00000000000E+00  0.00000000000E+00  0.13101061999E+01  0.13101158943E+01  0.50400000000E-02 0.  1.
          2   -1    0    0  501    0  0.00000000000E+00 -0.00000000000E+00 -0.12564317527E+04  0.12564317527E+04  0.25500000000E-02 0. -1.
         24    2    1    2    0    0  0.88817841970E-15  0.00000000000E+00 -0.12551216465E+04  0.12577418686E+04  0.81143456351E+02 0.  0.
         66    2    3    3    0    0  0.69342004451E+01  0.24382813403E+02 -0.11184577412E+04  0.11187467647E+04  0.20000006196E+01 0.  0.
        -13    1    3    3    0    0 -0.69342004451E+01 -0.24382813403E+02 -0.13666390535E+03  0.13899510392E+03  0.10566000000E+00 0.  1.
         13    1    4    4    0    0  0.47591322921E+01  0.15964859551E+02 -0.75551025830E+03  0.75569391135E+03  0.10566000000E+00 0. -1.
        -13    1    4    4    0    0  0.18869173597E+01  0.80715268902E+01 -0.34698274144E+03  0.34708175409E+03  0.10566000000E+00 0.  1.
        -14    1    4    4    0    0  0.28815079330E+00  0.34642696219E+00 -0.15964741444E+02  0.15971099270E+02  0.00000000000E+00 0.  1.
<mgrwt>
<rscale>  0 0.81143456E+02</rscale>
<asrwt>0</asrwt>
<pdfrwt beam="1">  1        2 0.19329623E+00 0.81143456E+02</pdfrwt>
<pdfrwt beam="2">  1       -1 0.20155655E-03 0.81143456E+02</pdfrwt>
<totfact> 0.33563334E+05</totfact>
</mgrwt>
</event>
<event>
 8    1  0.7667702E-014  0.7948161E+02  0.7818608E-02  0.1330529E+00
         -1   -1    0    0    0  501 -0.00000000000E+00  0.00000000000E+00  0.29835204029E+02  0.29835204454E+02  0.50400000000E-02 0.  1.
          2   -1    0    0  501    0  0.00000000000E+00 -0.00000000000E+00 -0.52935165368E+02  0.52935165429E+02  0.25500000000E-02 0. -1.
         24    2    1    2    0    0 -0.22204460493E-15 -0.71054273576E-14 -0.23099961339E+02  0.82770369884E+02  0.79481607412E+02 0.  0.
         66    2    3    3    0    0 -0.16934838468E+01 -0.39666180506E+02 -0.10488775395E+02  0.41113114352E+02  0.19999997380E+01 0.  0.
        -13    1    3    3    0    0  0.16934838468E+01  0.39666180506E+02 -0.12611185944E+02  0.41657255532E+02  0.10566000000E+00 0.  1.
         13    1    4    4    0    0  0.27063278111E+00 -0.35481250114E+01 -0.10366579529E+01  0.37078642027E+01  0.10566000000E+00 0. -1.
        -13    1    4    4    0    0 -0.66648350184E+00 -0.75403309495E+01 -0.15618541309E+01  0.77298993168E+01  0.10566000000E+00 0.  1.
         14    1    4    4    0    0 -0.12976331261E+01 -0.28577724545E+02 -0.78902633116E+01  0.29675350833E+02  0.00000000000E+00 0. -1.
<mgrwt>
<rscale>  0 0.79481607E+02</rscale>
<asrwt>0</asrwt>
<pdfrwt beam="1">  1        2 0.81438716E-02 0.79481607E+02</pdfrwt>
<pdfrwt beam="2">  1       -1 0.45900315E-02 0.79481607E+02</pdfrwt>
<totfact> 0.15402512E+05</totfact>
</mgrwt>
</event>
<event>
 8    1  0.7667702E-014  0.7940029E+02  0.7818608E-02  0.1330762E+00
         -1   -1    0    0    0  501 -0.00000000000E+00  0.00000000000E+00  0.23140870986E+01  0.23140925871E+01  0.50400000000E-02 0.  1.
          2   -1    0    0  501    0  0.00000000000E+00 -0.00000000000E+00 -0.68108924142E+03  0.68108924143E+03  0.25500000000E-02 0. -1.
         24    2    1    2    0    0 -0.35527136788E-14  0.00000000000E+00 -0.67877515433E+03  0.68340333402E+03  0.79400294801E+02 0.  0.
         66    2    3    3    0    0  0.18204326436E+02 -0.37391590591E+01 -0.64130631672E+03  0.64157865509E+03  0.19999985277E+01 0.  0.
        -13    1    3    3    0    0 -0.18204326436E+02  0.37391590591E+01 -0.37468837604E+02  0.41824678922E+02  0.10566000000E+00 0.  1.
         13    1    4    4    0    0  0.67457072838E+01 -0.14587561686E+01 -0.22172109995E+03  0.22182851454E+03  0.10566000000E+00 0. -1.
        -13    1    4    4    0    0  0.28441254598E+01 -0.63876352157E+00 -0.85062547855E+02  0.85112544787E+02  0.10566000000E+00 0.  1.
        -14    1    4    4    0    0  0.86144936928E+01 -0.16416393690E+01 -0.33452266892E+03  0.33463759577E+03  0.00000000000E+00 0.  1.
<mgrwt>
<rscale>  0 0.79400295E+02</rscale>
<asrwt>0</asrwt>
<pdfrwt beam="1">  1        2 0.10478280E+00 0.79400295E+02</pdfrwt>
<pdfrwt beam="2">  1       -1 0.35601437E-03 0.79400295E+02</pdfrwt>
<totfact> 0.33894578E+05</totfact>
</mgrwt>
</event>
<event>
 8    1  0.7667702E-014  0.7990340E+02  0.7818608E-02  0.1329326E+00
         -1   -1    0    0    0  501 -0.00000000000E+00  0.00000000000E+00  0.10984934529E+03  0.10984934540E+03  0.50400000000E-02 0.  1.
          2   -1    0    0  501    0  0.00000000000E+00 -0.00000000000E+00 -0.14530249164E+02  0.14530249387E+02  0.25500000000E-02 0. -1.
         24    2    1    2    0    0  0.00000000000E+00  0.00000000000E+00  0.95319096123E+02  0.12437959479E+03  0.79903401144E+02 0.  0.
         66    2    3    3    0    0 -0.72275024604E+01 -0.29525697889E+02  0.73931945173E+01  0.31347455371E+02  0.20000013587E+01 0.  0.
        -13    1    3    3    0    0  0.72275024604E+01  0.29525697889E+02  0.87925901606E+02  0.93032139419E+02  0.10566000000E+00 0.  1.
         13    1    4    4    0    0 -0.52718398366E+01 -0.22869930459E+02  0.50793856009E+01  0.24013274175E+02  0.10566000000E+00 0. -1.
        -13    1    4    4    0    0 -0.72940736796E-01 -0.59141534885E+00  0.12766250375E+00  0.61850967365E+00  0.10566000000E+00 0. -1.
         14    1    4    4    0    0 -0.18827218871E+01 -0.60643520803E+01  0.21861464126E+01  0.67156715223E+01  0.00000000000E+00 0. -1.
<mgrwt>
<rscale>  0 0.79903401E+02</rscale>
<asrwt>0</asrwt>
<pdfrwt beam="1">  1        2 0.22354231E-02 0.79903401E+02</pdfrwt>
<pdfrwt beam="2">  1       -1 0.16899899E-01 0.79903401E+02</pdfrwt>
<totfact> 0.11648281E+05</totfact>
</mgrwt>
</event>
<event>
 8    1  0.7667702E-014  0.7395632E+02  0.7818608E-02  0.1347134E+00
          2   -1    0    0  501    0  0.00000000000E+00  0.00000000000E+00  0.39138131192E+02  0.39138131275E+02  0.25500000000E-02 0. -1.
         -1   -1    0    0    0  501 -0.00000000000E+00 -0.00000000000E+00 -0.34937393254E+02  0.34937393617E+02  0.50400000000E-02 0.  1.
         24    2    1    2    0    0  0.00000000000E+00  0.35527136788E-14  0.42007379381E+01  0.74075524893E+02  0.73956319465E+02 0.  0.
         66    2    3    3    0    0  0.18109034452E+02 -0.21750327534E+02  0.25896571566E+02  0.38414141893E+02  0.20000004814E+01 0.  0.
        -13    1    3    3    0    0 -0.18109034452E+02  0.21750327534E+02 -0.21695833627E+02  0.35661382999E+02  0.10566000000E+00 0.  1.
         13    1    4    4    0    0  0.19357842461E+01 -0.17797813632E+01  0.23118179622E+01  0.35029342949E+01  0.10566000000E+00 0. -1.
        -13    1    4    4    0    0  0.42507028999E+01 -0.46128748765E+01  0.64140023791E+01  0.89720499511E+01  0.10566000000E+00 0.  1.
         14    1    4    4    0    0  0.11922547306E+02 -0.15357671294E+02  0.17170751224E+02  0.25939157647E+02  0.00000000000E+00 0. -1.
<mgrwt>
<rscale>  0 0.73956319E+02</rscale>
<asrwt>0</asrwt>
<pdfrwt beam="1">  1        2 0.60212510E-02 0.73956319E+02</pdfrwt>
<pdfrwt beam="2">  1       -1 0.53749836E-02 0.73956319E+02</pdfrwt>
<totfact> 0.17612144E+05</totfact>
</mgrwt>
</event>
<event>
 8    1  0.7667702E-014  0.7892867E+02  0.7818608E-02  0.1332120E+00
          2   -1    0    0  501    0  0.00000000000E+00  0.00000000000E+00  0.31727219455E+03  0.31727219456E+03  0.25500000000E-02 0. -1.
         -1   -1    0    0    0  501 -0.00000000000E+00 -0.00000000000E+00 -0.49088234117E+01  0.49088259991E+01  0.50400000000E-02 0.  1.
         24    2    1    2    0    0  0.71054273576E-14  0.17763568394E-14  0.31236337114E+03  0.32218102056E+03  0.78928666401E+02 0.  0.
         66    2    3    3    0    0 -0.35721512014E+02 -0.10086789273E+02  0.21068917521E+03  0.21394321284E+03  0.20000077306E+01 0.  0.
        -13    1    3    3    0    0  0.35721512014E+02  0.10086789273E+02  0.10167419593E+03  0.10823780772E+03  0.10566000000E+00 0.  1.
         13    1    4    4    0    0 -0.25210551101E+02 -0.71255232592E+01  0.14637149651E+03  0.14869758277E+03  0.10566000000E+00 0. -1.
        -13    1    4    4    0    0 -0.24863313142E+01 -0.82139063947E+00  0.13189796365E+02  0.13447617565E+02  0.10566000000E+00 0.  1.
         14    1    4    4    0    0 -0.80246295984E+01 -0.21398753746E+01  0.51127882337E+02  0.51798012501E+02  0.00000000000E+00 0. -1.
<mgrwt>
<rscale>  0 0.78928666E+02</rscale>
<asrwt>0</asrwt>
<pdfrwt beam="1">  1        2 0.48811121E-01 0.78928666E+02</pdfrwt>
<pdfrwt beam="2">  1       -1 0.75520359E-03 0.78928666E+02</pdfrwt>
<totfact> 0.26950433E+05</totfact>
</mgrwt>
</event>
<event>
 8    1  0.7667702E-014  0.8151159E+02  0.7818608E-02  0.1324816E+00
         -1   -1    0    0    0  501 -0.00000000000E+00  0.00000000000E+00  0.21013763702E+02  0.21013764306E+02  0.50400000000E-02 0.  1.
          2   -1    0    0  501    0  0.00000000000E+00 -0.00000000000E+00 -0.79045091146E+02  0.79045091187E+02  0.25500000000E-02 0. -1.
         24    2    1    2    0    0 -0.35527136788E-14  0.35527136788E-14 -0.58031327445E+02  0.10005885549E+03  0.81511591799E+02 0.  0.
         66    2    3    3    0    0  0.28416276772E+02 -0.28742743813E+02 -0.22846492522E+02  0.46471414053E+02  0.19999990212E+01 0.  0.
        -13    1    3    3    0    0 -0.28416276772E+02  0.28742743813E+02 -0.35184834923E+02  0.53587441440E+02  0.10566000000E+00 0.  1.
         13    1    4    4    0    0  0.17800122897E+02 -0.17352748947E+02 -0.14834975884E+02  0.28949092295E+02  0.10566000000E+00 0. -1.
        -13    1    4    4    0    0  0.51099361006E+01 -0.53740556319E+01 -0.34755956569E+01  0.81904120832E+01  0.10566000000E+00 0.  1.
         14    1    4    4    0    0  0.55062177746E+01 -0.60159392341E+01 -0.45359209806E+01  0.93319096755E+01  0.00000000000E+00 0. -1.
<mgrwt>
<rscale>  0 0.81511592E+02</rscale>
<asrwt>0</asrwt>
<pdfrwt beam="1">  1        2 0.12160783E-01 0.81511592E+02</pdfrwt>
<pdfrwt beam="2">  1       -1 0.32328868E-02 0.81511592E+02</pdfrwt>
<totfact> 0.15824038E+05</totfact>
</mgrwt>
</event>
<event>
 8    1  0.7667702E-014  0.8256496E+02  0.7818608E-02  0.1321926E+00
         -1   -1    0    0    0  501 -0.00000000000E+00  0.00000000000E+00  0.11427570144E+02  0.11427571255E+02  0.50400000000E-02 0.  1.
          2   -1    0    0  501    0  0.00000000000E+00 -0.00000000000E+00 -0.14913432682E+03  0.14913432684E+03  0.25500000000E-02 0. -1.
         24    2    1    2    0    0  0.00000000000E+00 -0.35527136788E-14 -0.13770675667E+03  0.16056189810E+03  0.82564957980E+02 0.  0.
         66    2    3    3    0    0 -0.39603903460E+02 -0.10637100098E+02 -0.77724498757E+02  0.87901733654E+02  0.20000011322E+01 0.  0.
        -13    1    3    3    0    0  0.39603903460E+02  0.10637100098E+02 -0.59982257917E+02  0.72660164441E+02  0.10566000000E+00 0.  1.
         13    1    4    4    0    0 -0.12214634632E+02 -0.28565540864E+01 -0.23573438156E+02  0.26703470766E+02  0.10566000000E+00 0. -1.
        -13    1    4    4    0    0 -0.12074555835E+02 -0.29317710579E+01 -0.24799521848E+02  0.27738378252E+02  0.10566000000E+00 0.  1.
        -14    1    4    4    0    0 -0.15314712993E+02 -0.48487749534E+01 -0.29351538754E+02  0.33459884636E+02  0.00000000000E+00 0.  1.
<mgrwt>
<rscale>  0 0.82564958E+02</rscale>
<asrwt>0</asrwt>
<pdfrwt beam="1">  1        2 0.22943741E-01 0.82564958E+02</pdfrwt>
<pdfrwt beam="2">  1       -1 0.17580879E-02 0.82564958E+02</pdfrwt>
<totfact> 0.18383883E+05</totfact>
</mgrwt>
</event>
<event>
 8    1  0.7667702E-014  0.8238753E+02  0.7818608E-02  0.1322409E+00
          2   -1    0    0  501    0  0.00000000000E+00  0.00000000000E+00  0.58884984102E+02  0.58884984157E+02  0.25500000000E-02 0. -1.
         -1   -1    0    0    0  501 -0.00000000000E+00 -0.00000000000E+00 -0.28817642944E+02  0.28817643385E+02  0.50400000000E-02 0.  1.
         24    2    1    2    0    0  0.17763568394E-14 -0.88817841970E-15  0.30067341158E+02  0.87702627542E+02  0.82387534697E+02 0.  0.
         66    2    3    3    0    0  0.13556446317E+02 -0.70763609938E+01 -0.25647384518E+02  0.29927252660E+02  0.19999993682E+01 0.  0.
        -13    1    3    3    0    0 -0.13556446317E+02  0.70763609938E+01  0.55714725676E+02  0.57775374882E+02  0.10566000000E+00 0.  1.
         13    1    4    4    0    0  0.20979502443E+01 -0.94649434054E+00 -0.33401035738E+01  0.40576720768E+01  0.10566000000E+00 0. -1.
        -13    1    4    4    0    0  0.82585245916E+00 -0.64062356960E+00 -0.27278546623E+01  0.29231465814E+01  0.10566000000E+00 0.  1.
         14    1    4    4    0    0  0.10632643614E+02 -0.54892430837E+01 -0.19579426282E+02  0.22946434001E+02  0.00000000000E+00 0. -1.
<mgrwt>
<rscale>  0 0.82387535E+02</rscale>
<asrwt>0</asrwt>
<pdfrwt beam="1">  1        2 0.90592283E-02 0.82387535E+02</pdfrwt>
<pdfrwt beam="2">  1       -1 0.44334836E-02 0.82387535E+02</pdfrwt>
<totfact> 0.14304163E+05</totfact>
</mgrwt>
</event>
<event>
 8    1  0.7667702E-014  0.8016414E+02  0.7818608E-02  0.1328586E+00
          2   -1    0    0  501    0  0.00000000000E+00  0.00000000000E+00  0.31789126625E+03  0.31789126626E+03  0.25500000000E-02 0. -1.
         -1   -1    0    0    0  501 -0.00000000000E+00 -0.00000000000E+00 -0.50538413592E+01  0.50538438723E+01  0.50400000000E-02 0.  1.
         24    2    1    2    0    0  0.44408920985E-15  0.00000000000E+00  0.31283742489E+03  0.32294511013E+03  0.80164142521E+02 0.  0.
         66    2    3    3    0    0  0.18602816549E+01  0.24854296283E+02  0.28284601065E+03  0.28394904900E+03  0.19999992520E+01 0.  0.
        -13    1    3    3    0    0 -0.18602816549E+01 -0.24854296283E+02  0.29991414245E+02  0.38996061135E+02  0.10566000000E+00 0.  1.
         13    1    4    4    0    0  0.12751143088E-01  0.47730509105E+01  0.59434064944E+02  0.59625509787E+02  0.10566000000E+00 0. -1.
        -13    1    4    4    0    0  0.40293904585E+00  0.31242514800E+01  0.30534792308E+02  0.30697035892E+02  0.10566000000E+00 0.  1.
         14    1    4    4    0    0  0.14445914660E+01  0.16956993892E+02  0.19287715339E+03  0.19362650332E+03  0.00000000000E+00 0. -1.
<mgrwt>
<rscale>  0 0.80164143E+02</rscale>
<asrwt>0</asrwt>
<pdfrwt beam="1">  1        2 0.48906362E-01 0.80164143E+02</pdfrwt>
<pdfrwt beam="2">  1       -1 0.77751405E-03 0.80164143E+02</pdfrwt>
<totfact> 0.25894632E+05</totfact>
</mgrwt>
</event>
<event>
 8    1  0.7667702E-014  0.8860428E+02  0.7818608E-02  0.1306267E+00
         -1   -1    0    0    0  501 -0.00000000000E+00  0.00000000000E+00  0.35541958470E+02  0.35541958828E+02  0.50400000000E-02 0.  1.
          2   -1    0    0  501    0  0.00000000000E+00 -0.00000000000E+00 -0.55221479498E+02  0.55221479557E+02  0.25500000000E-02 0. -1.
         24    2    1    2    0    0 -0.35527136788E-14  0.00000000000E+00 -0.19679521027E+02  0.90763438384E+02  0.88604278675E+02 0.  0.
         66    2    3    3    0    0 -0.29840291609E+02 -0.20313146100E+01 -0.43291691472E+02  0.52656811671E+02  0.20000056370E+01 0.  0.
        -13    1    3    3    0    0  0.29840291609E+02  0.20313146100E+01  0.23612170444E+02  0.38106626713E+02  0.10566000000E+00 0.  1.
         13    1    4    4    0    0 -0.47417035557E+01 -0.45081633234E+00 -0.63641471094E+01  0.79498754984E+01  0.10566000000E+00 0. -1.
        -13    1    4    4    0    0 -0.20937421865E+02 -0.10950971556E+01 -0.29739342566E+02  0.36387010491E+02  0.10566000000E+00 0.  1.
        -14    1    4    4    0    0 -0.41611661876E+01 -0.48540112200E+00 -0.71882017960E+01  0.83199256818E+01  0.00000000000E+00 0.  1.
<mgrwt>
<rscale>  0 0.88604279E+02</rscale>
<asrwt>0</asrwt>
<pdfrwt beam="1">  1        2 0.84956123E-02 0.88604279E+02</pdfrwt>
<pdfrwt beam="2">  1       -1 0.54679936E-02 0.88604279E+02</pdfrwt>
<totfact> 0.11535077E+05</totfact>
</mgrwt>
</event>
<event>
 8    1  0.7667702E-014  0.8081611E+02  0.7818608E-02  0.1326751E+00
         -1   -1    0    0    0  501 -0.00000000000E+00  0.00000000000E+00  0.71195321732E+01  0.71195339571E+01  0.50400000000E-02 0.  1.
          2   -1    0    0  501    0  0.00000000000E+00 -0.00000000000E+00 -0.22934244035E+03  0.22934244037E+03  0.25500000000E-02 0. -1.
         24    2    1    2    0    0  0.00000000000E+00  0.00000000000E+00 -0.22222290818E+03  0.23646197432E+03  0.80816114614E+02 0.  0.
         66    2    3    3    0    0  0.21158866029E+02  0.19265856160E+02 -0.19455204964E+03  0.19665546227E+03  0.19999995472E+01 0.  0.
        -13    1    3    3    0    0 -0.21158866029E+02 -0.19265856160E+02 -0.27670858541E+02  0.39806512051E+02  0.10566000000E+00 0.  1.
         13    1    4    4    0    0  0.56026386008E+01  0.51959682977E+01 -0.54796625370E+02  0.55326928000E+02  0.10566000000E+00 0. -1.
        -13    1    4    4    0    0  0.37728413185E+01  0.39323034980E+01 -0.39878559548E+02  0.40249323200E+02  0.10566000000E+00 0.  1.
        -14    1    4    4    0    0  0.11783386110E+02  0.10137584364E+02 -0.99876864718E+02  0.10107921107E+03  0.00000000000E+00 0.  1.
<mgrwt>
<rscale>  0 0.80816115E+02</rscale>
<asrwt>0</asrwt>
<pdfrwt beam="1">  1        2 0.35283447E-01 0.80816115E+02</pdfrwt>
<pdfrwt beam="2">  1       -1 0.10953130E-02 0.80816115E+02</pdfrwt>
<totfact> 0.22534820E+05</totfact>
</mgrwt>
</event>
<event>
 8    1  0.7667702E-014  0.7825935E+02  0.7818608E-02  0.1334065E+00
          2   -1    0    0  501    0  0.00000000000E+00  0.00000000000E+00  0.50540137083E+03  0.50540137084E+03  0.25500000000E-02 0. -1.
         -1   -1    0    0    0  501 -0.00000000000E+00 -0.00000000000E+00 -0.30295334045E+01  0.30295375968E+01  0.50400000000E-02 0.  1.
         24    2    1    2    0    0  0.00000000000E+00  0.00000000000E+00  0.50237183743E+03  0.50843090844E+03  0.78259348400E+02 0.  0.
         66    2    3    3    0    0  0.30464873861E+02  0.83114988141E+01  0.40118883011E+03  0.40243467414E+03  0.19999974082E+01 0.  0.
        -13    1    3    3    0    0 -0.30464873861E+02 -0.83114988141E+01  0.10118300732E+03  0.10599623430E+03  0.10566000000E+00 0.  1.
         13    1    4    4    0    0  0.17963229725E+02  0.51612286619E+01  0.23139612486E+03  0.23214972252E+03  0.10566000000E+00 0. -1.
        -13    1    4    4    0    0  0.46323486219E+01  0.17048233126E+01  0.65272483880E+02  0.65458944326E+02  0.10566000000E+00 0.  1.
         14    1    4    4    0    0  0.78692955142E+01  0.14454468396E+01  0.10452022137E+03  0.10482600728E+03  0.00000000000E+00 0. -1.
<mgrwt>
<rscale>  0 0.78259348E+02</rscale>
<asrwt>0</asrwt>
<pdfrwt beam="1">  1        2 0.77753907E-01 0.78259348E+02</pdfrwt>
<pdfrwt beam="2">  1       -1 0.46608329E-03 0.78259348E+02</pdfrwt>
<totfact> 0.32356249E+05</totfact>
</mgrwt>
</event>
<event>
 8    1  0.7667702E-014  0.7807051E+02  0.7818608E-02  0.1334618E+00
         -1   -1    0    0    0  501 -0.00000000000E+00  0.00000000000E+00  0.10527622686E+03  0.10527622698E+03  0.50400000000E-02 0.  1.
          2   -1    0    0  501    0  0.00000000000E+00 -0.00000000000E+00 -0.14473838096E+02  0.14473838320E+02  0.25500000000E-02 0. -1.
         24    2    1    2    0    0  0.00000000000E+00  0.00000000000E+00  0.90802388766E+02  0.11975006530E+03  0.78070508737E+02 0.  0.
         66    2    3    3    0    0  0.27245722765E+02 -0.16945947152E+02  0.11399309630E+02  0.34109218307E+02  0.19999949004E+01 0.  0.
        -13    1    3    3    0    0 -0.27245722765E+02  0.16945947152E+02  0.79403079136E+02  0.85640846996E+02  0.10566000000E+00 0.  1.
         13    1    4    4    0    0  0.31575908496E+01 -0.22183630400E+01  0.19789541284E+01  0.43380799934E+01  0.10566000000E+00 0. -1.
        -13    1    4    4    0    0  0.18430825151E+01 -0.13000180486E+01  0.76136301818E+00  0.23828213876E+01  0.10566000000E+00 0.  1.
         14    1    4    4    0    0  0.22245049401E+02 -0.13427566063E+02  0.86589924836E+01  0.27388316926E+02  0.00000000000E+00 0. -1.
<mgrwt>
<rscale>  0 0.78070509E+02</rscale>
<asrwt>0</asrwt>
<pdfrwt beam="1">  1        2 0.22267444E-02 0.78070509E+02</pdfrwt>
<pdfrwt beam="2">  1       -1 0.16196342E-01 0.78070509E+02</pdfrwt>
<totfact> 0.12459119E+05</totfact>
</mgrwt>
</event>
<event>
 8    1  0.7667702E-014  0.8047611E+02  0.7818608E-02  0.1327706E+00
         -1   -1    0    0    0  501 -0.00000000000E+00  0.00000000000E+00  0.59003067199E+01  0.59003088725E+01  0.50400000000E-02 0.  1.
          2   -1    0    0  501    0  0.00000000000E+00 -0.00000000000E+00 -0.27440957335E+03  0.27440957336E+03  0.25500000000E-02 0. -1.
         24    2    1    2    0    0  0.00000000000E+00  0.00000000000E+00 -0.26850926663E+03  0.28030988224E+03  0.80476107088E+02 0.  0.
         66    2    3    3    0    0  0.35721626342E+02 -0.50343098193E+01 -0.19622732576E+03  0.19952579343E+03  0.20000013326E+01 0.  0.
        -13    1    3    3    0    0 -0.35721626342E+02  0.50343098193E+01 -0.72281940870E+02  0.80784088803E+02  0.10566000000E+00 0.  1.
         13    1    4    4    0    0  0.20847674161E+02 -0.25599708489E+01 -0.11743493163E+03  0.11929858884E+03  0.10566000000E+00 0.  1.
        -13    1    4    4    0    0  0.11187963781E+02 -0.20119144801E+01 -0.61204172526E+02  0.62250945632E+02  0.10566000000E+00 0. -1.
        -14    1    4    4    0    0  0.36859884000E+01 -0.46242449033E+00 -0.17588221604E+02  0.17976258957E+02  0.00000000000E+00 0.  1.
<mgrwt>
<rscale>  0 0.80476107E+02</rscale>
<asrwt>0</asrwt>
<pdfrwt beam="1">  1        2 0.42216848E-01 0.80476107E+02</pdfrwt>
<pdfrwt beam="2">  1       -1 0.90773988E-03 0.80476107E+02</pdfrwt>
<totfact> 0.24302573E+05</totfact>
</mgrwt>
</event>
<event>
 8    1  0.7667702E-014  0.7853573E+02  0.7818608E-02  0.1333259E+00
         -1   -1    0    0    0  501 -0.00000000000E+00  0.00000000000E+00  0.19606885355E+01  0.19606950132E+01  0.50400000000E-02 0.  1.
          2   -1    0    0  501    0  0.00000000000E+00 -0.00000000000E+00 -0.78643933681E+03  0.78643933681E+03  0.25500000000E-02 0. -1.
         24    2    1    2    0    0  0.00000000000E+00 -0.55511151231E-16 -0.78447864827E+03  0.78840003182E+03  0.78535728091E+02 0.  0.
         66    2    3    3    0    0 -0.27879407912E+02  0.45927152779E+00 -0.66969465584E+03  0.67027785610E+03  0.19999995886E+01 0.  0.
        -13    1    3    3    0    0  0.27879407912E+02 -0.45927152779E+00 -0.11478399243E+03  0.11812217572E+03  0.10566000000E+00 0.  1.
         13    1    4    4    0    0 -0.18124137775E+02  0.41617166327E+00 -0.43930897352E+03  0.43968288908E+03  0.10566000000E+00 0. -1.
        -13    1    4    4    0    0 -0.88878399806E+01  0.34169690374E+00 -0.20565380848E+03  0.20584608464E+03  0.10566000000E+00 0.  1.
        -14    1    4    4    0    0 -0.86743015581E+00 -0.29859703922E+00 -0.24731873840E+02  0.24748882377E+02  0.00000000000E+00 0.  1.
<mgrwt>
<rscale>  0 0.78535728E+02</rscale>
<asrwt>0</asrwt>
<pdfrwt beam="1">  1        2 0.12099042E+00 0.78535728E+02</pdfrwt>
<pdfrwt beam="2">  1       -1 0.30164552E-03 0.78535728E+02</pdfrwt>
<totfact> 0.35944837E+05</totfact>
</mgrwt>
</event>
<event>
 8    1  0.7667702E-014  0.7744746E+02  0.7818608E-02  0.1336455E+00
          2   -1    0    0  501    0  0.00000000000E+00  0.00000000000E+00  0.16237324147E+03  0.16237324149E+03  0.25500000000E-02 0. -1.
         -1   -1    0    0    0  501 -0.00000000000E+00 -0.00000000000E+00 -0.92350634044E+01  0.92350647797E+01  0.50400000000E-02 0.  1.
         24    2    1    2    0    0  0.00000000000E+00  0.00000000000E+00  0.15313817806E+03  0.17160830627E+03  0.77447460897E+02 0.  0.
         66    2    3    3    0    0  0.11492307783E+02 -0.59046296212E+01  0.15744624677E+03  0.15798815909E+03  0.20000000866E+01 0.  0.
        -13    1    3    3    0    0 -0.11492307783E+02  0.59046296212E+01 -0.43080687090E+01  0.13620147179E+02  0.10566000000E+00 0.  1.
         13    1    4    4    0    0  0.31232056047E+01 -0.76757055887E+00  0.37946719333E+02  0.38082912835E+02  0.10566000000E+00 0. -1.
        -13    1    4    4    0    0  0.90615241400E+00 -0.76887722132E+00  0.16795222942E+02  0.16837546202E+02  0.10566000000E+00 0. -1.
         14    1    4    4    0    0  0.74629497640E+01 -0.43681818410E+01  0.10270430450E+03  0.10306770005E+03  0.00000000000E+00 0. -1.
<mgrwt>
<rscale>  0 0.77447461E+02</rscale>
<asrwt>0</asrwt>
<pdfrwt beam="1">  1        2 0.24980496E-01 0.77447461E+02</pdfrwt>
<pdfrwt beam="2">  1       -1 0.14207793E-02 0.77447461E+02</pdfrwt>
<totfact> 0.22394608E+05</totfact>
</mgrwt>
</event>
<event>
 8    1  0.7667702E-014  0.7709158E+02  0.7818608E-02  0.1337514E+00
          2   -1    0    0  501    0  0.00000000000E+00  0.00000000000E+00  0.25508098721E+02  0.25508098849E+02  0.25500000000E-02 0. -1.
         -1   -1    0    0    0  501 -0.00000000000E+00 -0.00000000000E+00 -0.58247296486E+02  0.58247296704E+02  0.50400000000E-02 0.  1.
         24    2    1    2    0    0  0.00000000000E+00  0.00000000000E+00 -0.32739197765E+02  0.83755395553E+02  0.77091576803E+02 0.  0.
         66    2    3    3    0    0 -0.14060164434E+02 -0.21132888474E+02  0.15097805039E+02  0.29601197189E+02  0.19999897238E+01 0.  0.
        -13    1    3    3    0    0  0.14060164434E+02  0.21132888474E+02 -0.47837002803E+02  0.54154198364E+02  0.10566000000E+00 0.  1.
         13    1    4    4    0    0 -0.13039786361E+01 -0.16449338916E+01  0.11945254359E+01  0.24174827494E+01  0.10566000000E+00 0. -1.
        -13    1    4    4    0    0 -0.12131594074E+02 -0.18995187251E+02  0.13187161367E+02  0.26113312743E+02  0.10566000000E+00 0.  1.
        -14    1    4    4    0    0 -0.62459172403E+00 -0.49276733130E+00  0.71611823592E+00  0.10704016967E+01  0.00000000000E+00 0.  1.
<mgrwt>
<rscale>  0 0.77091577E+02</rscale>
<asrwt>0</asrwt>
<pdfrwt beam="1">  1        2 0.39243229E-02 0.77091577E+02</pdfrwt>
<pdfrwt beam="2">  1       -1 0.89611226E-02 0.77091577E+02</pdfrwt>
<totfact> 0.14465967E+05</totfact>
</mgrwt>
</event>
<event>
 8    1  0.7901161E-014  0.7786706E+02  0.7818608E-02  0.1335216E+00
          2   -1    0    0  501    0  0.00000000000E+00  0.00000000000E+00  0.54876152239E+03  0.54876152239E+03  0.25500000000E-02 0. -1.
         -1   -1    0    0    0  501 -0.00000000000E+00 -0.00000000000E+00 -0.27622534344E+01  0.27622580324E+01  0.50400000000E-02 0.  1.
         24    2    1    2    0    0  0.00000000000E+00 -0.35527136788E-14  0.54599926895E+03  0.55152378042E+03  0.77867057719E+02 0.  0.
         66    2    3    3    0    0 -0.21603929919E+02 -0.28557830394E+02  0.38095448818E+03  0.38263899636E+03  0.20000013694E+01 0.  0.
        -13    1    3    3    0    0  0.21603929919E+02  0.28557830394E+02  0.16504478077E+03  0.16888478407E+03  0.10566000000E+00 0.  1.
         13    1    4    4    0    0 -0.11120639518E+02 -0.15078142446E+02  0.19721301250E+03  0.19810099057E+03  0.10566000000E+00 0. -1.
        -13    1    4    4    0    0 -0.75369292856E+01 -0.10469068842E+02  0.14171132950E+03  0.14229729013E+03  0.10566000000E+00 0.  1.
        -14    1    4    4    0    0 -0.29463611158E+01 -0.30106191063E+01  0.42030146181E+02  0.42240715658E+02  0.00000000000E+00 0.  1.
<mgrwt>
<rscale>  0 0.77867058E+02</rscale>
<asrwt>0</asrwt>
<pdfrwt beam="1">  1        2 0.84424935E-01 0.77867058E+02</pdfrwt>
<pdfrwt beam="2">  1       -1 0.42496199E-03 0.77867058E+02</pdfrwt>
<totfact> 0.33623628E+05</totfact>
</mgrwt>
</event>
<event>
 8    1  0.7667702E-014  0.7910991E+02  0.7818608E-02  0.1331597E+00
         -1   -1    0    0    0  501 -0.00000000000E+00  0.00000000000E+00  0.18817014733E+01  0.18817082229E+01  0.50400000000E-02 0.  1.
          2   -1    0    0  501    0  0.00000000000E+00 -0.00000000000E+00 -0.83147712178E+03  0.83147712178E+03  0.25500000000E-02 0. -1.
         24    2    1    2    0    0  0.00000000000E+00  0.00000000000E+00 -0.82959542030E+03  0.83335883000E+03  0.79109911873E+02 0.  0.
         66    2    3    3    0    0  0.16359839727E+02 -0.26479580005E+02 -0.67175439360E+03  0.67247808725E+03  0.20000004273E+01 0.  0.
        -13    1    3    3    0    0 -0.16359839727E+02  0.26479580005E+02 -0.15784102671E+03  0.16088074276E+03  0.10566000000E+00 0.  1.
         13    1    4    4    0    0  0.39156706875E+01 -0.74538473018E+01 -0.18875023242E+03  0.18893796262E+03  0.10566000000E+00 0. -1.
        -13    1    4    4    0    0  0.96767546525E+01 -0.15529443018E+02 -0.38500331360E+03  0.38543788842E+03  0.10566000000E+00 0.  1.
        -14    1    4    4    0    0  0.27674143867E+01 -0.34962896849E+01 -0.98000847578E+02  0.98102236213E+02  0.00000000000E+00 0.  1.
<mgrwt>
<rscale>  0 0.79109912E+02</rscale>
<asrwt>0</asrwt>
<pdfrwt beam="1">  1        2 0.12791926E+00 0.79109912E+02</pdfrwt>
<pdfrwt beam="2">  1       -1 0.28949372E-03 0.79109912E+02</pdfrwt>
<totfact> 0.35601647E+05</totfact>
</mgrwt>
</event>
<event>
 8    1  0.7667702E-014  0.7896294E+02  0.7818608E-02  0.1332020E+00
          2   -1    0    0  501    0  0.00000000000E+00  0.00000000000E+00  0.47622161832E+02  0.47622161901E+02  0.25500000000E-02 0. -1.
         -1   -1    0    0    0  501 -0.00000000000E+00 -0.00000000000E+00 -0.32732374083E+02  0.32732374471E+02  0.50400000000E-02 0.  1.
         24    2    1    2    0    0 -0.71054273576E-14  0.00000000000E+00  0.14889787750E+02  0.80354536371E+02  0.78962939004E+02 0.  0.
         66    2    3    3    0    0 -0.37875346370E+02  0.84303352689E+01  0.14728977939E+02  0.41551837506E+02  0.19999984086E+01 0.  0.
        -13    1    3    3    0    0  0.37875346370E+02 -0.84303352689E+01  0.16080981085E+00  0.38802698865E+02  0.10566000000E+00 0.  1.
         13    1    4    4    0    0 -0.28369770702E+00 -0.51847256814E-01  0.13682474986E+00  0.33624035270E+00  0.10566000000E+00 0. -1.
        -13    1    4    4    0    0 -0.36413340887E+02  0.83633530958E+01  0.14125088510E+02  0.39942538214E+02  0.10566000000E+00 0. -1.
        -14    1    4    4    0    0 -0.11783077757E+01  0.11882942990E+00  0.46706467946E+00  0.12730589391E+01  0.00000000000E+00 0.  1.
<mgrwt>
<rscale>  0 0.78962939E+02</rscale>
<asrwt>0</asrwt>
<pdfrwt beam="1">  1        2 0.73264864E-02 0.78962939E+02</pdfrwt>
<pdfrwt beam="2">  1       -1 0.50357499E-02 0.78962939E+02</pdfrwt>
<totfact> 0.15325043E+05</totfact>
</mgrwt>
</event>
<event>
 8    1  0.7667702E-014  0.8143421E+02  0.7818608E-02  0.1325030E+00
          2   -1    0    0  501    0  0.00000000000E+00  0.00000000000E+00  0.33790947410E+03  0.33790947411E+03  0.25500000000E-02 0. -1.
         -1   -1    0    0    0  501 -0.00000000000E+00 -0.00000000000E+00 -0.49062908171E+01  0.49062934058E+01  0.50400000000E-02 0.  1.
         24    2    1    2    0    0  0.00000000000E+00  0.00000000000E+00  0.33300318329E+03  0.34281576752E+03  0.81434208909E+02 0.  0.
         66    2    3    3    0    0 -0.13160772071E+02  0.23455380671E+02  0.29515474912E+03  0.29638435642E+03  0.19999994503E+01 0.  0.
        -13    1    3    3    0    0  0.13160772071E+02 -0.23455380671E+02  0.37848434169E+02  0.46431411103E+02  0.10566000000E+00 0.  1.
         13    1    4    4    0    0 -0.69172475610E+01  0.13308539883E+02  0.16317401566E+03  0.16386194219E+03  0.10566000000E+00 0. -1.
        -13    1    4    4    0    0 -0.10602829695E+00  0.66898803807E-01  0.22763824032E+01  0.22822791966E+01  0.10566000000E+00 0.  1.
         14    1    4    4    0    0 -0.61374962127E+01  0.10079941984E+02  0.12970435105E+03  0.13024013503E+03  0.00000000000E+00 0. -1.
<mgrwt>
<rscale>  0 0.81434209E+02</rscale>
<asrwt>0</asrwt>
<pdfrwt beam="1">  1        2 0.51986088E-01 0.81434209E+02</pdfrwt>
<pdfrwt beam="2">  1       -1 0.75481395E-03 0.81434209E+02</pdfrwt>
<totfact> 0.25402090E+05</totfact>
</mgrwt>
</event>
<event>
 8    1  0.7667702E-014  0.7407148E+02  0.7818608E-02  0.1346771E+00
          2   -1    0    0  501    0  0.00000000000E+00  0.00000000000E+00  0.40423833923E+03  0.40423833923E+03  0.25500000000E-02 0. -1.
         -1   -1    0    0    0  501 -0.00000000000E+00 -0.00000000000E+00 -0.33931598868E+01  0.33931636298E+01  0.50400000000E-02 0.  1.
         24    2    1    2    0    0  0.00000000000E+00 -0.17763568394E-14  0.40084517934E+03  0.40763150286E+03  0.74071481203E+02 0.  0.
         66    2    3    3    0    0 -0.32250829052E+02  0.13461113270E+02  0.26759100620E+03  0.26987082862E+03  0.19999990092E+01 0.  0.
        -13    1    3    3    0    0  0.32250829052E+02 -0.13461113270E+02  0.13325417314E+03  0.13776067424E+03  0.10566000000E+00 0.  1.
         13    1    4    4    0    0 -0.13131123196E+02  0.53531641946E+01  0.11500336715E+03  0.11587436465E+03  0.10566000000E+00 0. -1.
        -13    1    4    4    0    0 -0.44847670165E+01  0.21983039077E+01  0.37993873493E+02  0.38320898506E+02  0.10566000000E+00 0.  1.
         14    1    4    4    0    0 -0.14634938840E+02  0.59096451675E+01  0.11459376556E+03  0.11567556547E+03  0.00000000000E+00 0. -1.
<mgrwt>
<rscale>  0 0.74071481E+02</rscale>
<asrwt>0</asrwt>
<pdfrwt beam="1">  1        2 0.62190501E-01 0.74071481E+02</pdfrwt>
<pdfrwt beam="2">  1       -1 0.52202500E-03 0.74071481E+02</pdfrwt>
<totfact> 0.34646337E+05</totfact>
</mgrwt>
</event>
<event>
 8    1  0.7667702E-014  0.8383216E+02  0.7818608E-02  0.1318515E+00
          2   -1    0    0  501    0  0.00000000000E+00  0.00000000000E+00  0.21592975792E+02  0.21592975943E+02  0.25500000000E-02 0. -1.
         -1   -1    0    0    0  501 -0.00000000000E+00 -0.00000000000E+00 -0.81367097606E+02  0.81367097762E+02  0.50400000000E-02 0.  1.
         24    2    1    2    0    0  0.00000000000E+00  0.00000000000E+00 -0.59774121814E+02  0.10296007370E+03  0.83832160527E+02 0.  0.
         66    2    3    3    0    0 -0.17635007125E+02 -0.20315523550E+02  0.95360577234E+01  0.28612066839E+02  0.19999996228E+01 0.  0.
        -13    1    3    3    0    0  0.17635007125E+02  0.20315523550E+02 -0.69310179537E+02  0.74348006866E+02  0.10566000000E+00 0.  1.
         13    1    4    4    0    0 -0.36359797991E+01 -0.35691919582E+01  0.14731640344E+01  0.53047956268E+01  0.10566000000E+00 0. -1.
        -13    1    4    4    0    0 -0.72104744084E+00 -0.77937372606E+00  0.69041686132E+00  0.12708942894E+01  0.10566000000E+00 0.  1.
         14    1    4    4    0    0 -0.13277979885E+02 -0.15966957866E+02  0.73724768277E+01  0.22036376923E+02  0.00000000000E+00 0. -1.
<mgrwt>
<rscale>  0 0.83832161E+02</rscale>
<asrwt>0</asrwt>
<pdfrwt beam="1">  1        2 0.33219963E-02 0.83832161E+02</pdfrwt>
<pdfrwt beam="2">  1       -1 0.12518015E-01 0.83832161E+02</pdfrwt>
<totfact> 0.11023653E+05</totfact>
</mgrwt>
</event>
<event>
 8    1  0.7667702E-014  0.8070850E+02  0.7818608E-02  0.1327053E+00
          2   -1    0    0  501    0  0.00000000000E+00  0.00000000000E+00  0.18877585825E+02  0.18877585998E+02  0.25500000000E-02 0. -1.
         -1   -1    0    0    0  501 -0.00000000000E+00 -0.00000000000E+00 -0.86264496810E+02  0.86264496957E+02  0.50400000000E-02 0.  1.
         24    2    1    2    0    0  0.35527136788E-14  0.00000000000E+00 -0.67386910984E+02  0.10514208295E+03  0.80708499156E+02 0.  0.
         66    2    3    3    0    0 -0.18166262168E+02  0.12265052851E+02  0.10387337015E+02  0.24338064376E+02  0.20000011793E+01 0.  0.
        -13    1    3    3    0    0  0.18166262168E+02 -0.12265052851E+02 -0.77774247999E+02  0.80804018579E+02  0.10566000000E+00 0.  1.
         13    1    4    4    0    0 -0.65239082498E+01  0.45505806149E+01  0.34228217484E+01  0.86600251467E+01  0.10566000000E+00 0. -1.
        -13    1    4    4    0    0 -0.84746841003E+00  0.31826276377E+00  0.14769481521E+00  0.92329393307E+00  0.10566000000E+00 0.  1.
        -14    1    4    4    0    0 -0.10794885508E+02  0.73962094718E+01  0.68168204512E+01  0.14754745296E+02  0.00000000000E+00 0.  1.
<mgrwt>
<rscale>  0 0.80708499E+02</rscale>
<asrwt>0</asrwt>
<pdfrwt beam="1">  1        2 0.29042440E-02 0.80708499E+02</pdfrwt>
<pdfrwt beam="2">  1       -1 0.13271461E-01 0.80708499E+02</pdfrwt>
<totfact> 0.11962226E+05</totfact>
</mgrwt>
</event>
<event>
 8    1  0.7667702E-014  0.7991462E+02  0.7818608E-02  0.1329294E+00
         -1   -1    0    0    0  501 -0.00000000000E+00  0.00000000000E+00  0.90004532617E+01  0.90004546728E+01  0.50400000000E-02 0.  1.
          2   -1    0    0  501    0  0.00000000000E+00 -0.00000000000E+00 -0.17738954677E+03  0.17738954678E+03  0.25500000000E-02 0. -1.
         24    2    1    2    0    0  0.35527136788E-14  0.00000000000E+00 -0.16838909350E+03  0.18639000146E+03  0.79914615884E+02 0.  0.
         66    2    3    3    0    0 -0.25134429823E+02  0.30515816207E+02 -0.71130431231E+02  0.81403272998E+02  0.20000015861E+01 0.  0.
        -13    1    3    3    0    0  0.25134429823E+02 -0.30515816207E+02 -0.97258662273E+02  0.10498672846E+03  0.10566000000E+00 0.  1.
         13    1    4    4    0    0 -0.96724824028E+01  0.10645283652E+02 -0.25928483372E+02  0.29650908821E+02  0.10566000000E+00 0. -1.
        -13    1    4    4    0    0 -0.71707826840E+01  0.90289137118E+01 -0.21778130298E+02  0.24642230630E+02  0.10566000000E+00 0.  1.
        -14    1    4    4    0    0 -0.82911647362E+01  0.10841618844E+02 -0.23423817561E+02  0.27110133547E+02  0.00000000000E+00 0.  1.
<mgrwt>
<rscale>  0 0.79914616E+02</rscale>
<asrwt>0</asrwt>
<pdfrwt beam="1">  1        2 0.27290697E-01 0.79914616E+02</pdfrwt>
<pdfrwt beam="2">  1       -1 0.13846854E-02 0.79914616E+02</pdfrwt>
<totfact> 0.21229215E+05</totfact>
</mgrwt>
</event>
<event>
 8    1  0.7667702E-014  0.8010683E+02  0.7818608E-02  0.1328749E+00
          2   -1    0    0  501    0  0.00000000000E+00  0.00000000000E+00  0.53754621045E+02  0.53754621106E+02  0.25500000000E-02 0. -1.
         -1   -1    0    0    0  501 -0.00000000000E+00 -0.00000000000E+00 -0.29844428932E+02  0.29844429358E+02  0.50400000000E-02 0.  1.
         24    2    1    2    0    0  0.00000000000E+00  0.00000000000E+00  0.23910192113E+02  0.83599050463E+02  0.80106828370E+02 0.  0.
         66    2    3    3    0    0  0.17095249185E+02 -0.81824398780E+01  0.48756764384E+02  0.52349039508E+02  0.19999992966E+01 0.  0.
        -13    1    3    3    0    0 -0.17095249185E+02  0.81824398780E+01 -0.24846572271E+02  0.31250010955E+02  0.10566000000E+00 0.  1.
         13    1    4    4    0    0  0.11994860398E+02 -0.50883372382E+01  0.31832273084E+02  0.34395822793E+02  0.10566000000E+00 0. -1.
        -13    1    4    4    0    0  0.14785322285E+01 -0.69143478096E+00  0.42246970088E+01  0.45302724486E+01  0.10566000000E+00 0. -1.
         14    1    4    4    0    0  0.36218565585E+01 -0.24026678589E+01  0.12699794291E+02  0.13422944267E+02  0.00000000000E+00 0. -1.
<mgrwt>
<rscale>  0 0.80106828E+02</rscale>
<asrwt>0</asrwt>
<pdfrwt beam="1">  1        2 0.82699416E-02 0.80106828E+02</pdfrwt>
<pdfrwt beam="2">  1       -1 0.45914507E-02 0.80106828E+02</pdfrwt>
<totfact> 0.15127810E+05</totfact>
</mgrwt>
</event>
<event>
 8    1  0.7667702E-014  0.8007288E+02  0.7818608E-02  0.1328845E+00
          2   -1    0    0  501    0  0.00000000000E+00  0.00000000000E+00  0.10156430636E+04  0.10156430636E+04  0.25500000000E-02 0. -1.
         -1   -1    0    0    0  501 -0.00000000000E+00 -0.00000000000E+00 -0.15782242904E+01  0.15782323379E+01  0.50400000000E-02 0.  1.
         24    2    1    2    0    0 -0.17763568394E-14  0.00000000000E+00  0.10140648393E+04  0.10172212959E+04  0.80072882999E+02 0.  0.
         66    2    3    3    0    0  0.11852196897E+02  0.14894258838E+02  0.95443810136E+03  0.95462998217E+03  0.20000002740E+01 0.  0.
        -13    1    3    3    0    0 -0.11852196897E+02 -0.14894258838E+02  0.59626737922E+02  0.62591313749E+02  0.10566000000E+00 0.  1.
         13    1    4    4    0    0  0.56011356001E+01  0.75425827657E+01  0.47111906619E+03  0.47121274279E+03  0.10566000000E+00 0. -1.
        -13    1    4    4    0    0  0.17793762494E+01  0.21610348828E+01  0.17214348338E+03  0.17216627511E+03  0.10566000000E+00 0.  1.
        -14    1    4    4    0    0  0.44716850470E+01  0.51906411900E+01  0.31117555179E+03  0.31125096426E+03  0.00000000000E+00 0.  1.
<mgrwt>
<rscale>  0 0.80072883E+02</rscale>
<asrwt>0</asrwt>
<pdfrwt beam="1">  1        2 0.15625312E+00 0.80072883E+02</pdfrwt>
<pdfrwt beam="2">  1       -1 0.24280382E-03 0.80072883E+02</pdfrwt>
<totfact> 0.35167812E+05</totfact>
</mgrwt>
</event>
<event>
 8    1  0.7667702E-014  0.7889401E+02  0.7818608E-02  0.1332220E+00
         -1   -1    0    0    0  501 -0.00000000000E+00  0.00000000000E+00  0.29760722084E+01  0.29760764760E+01  0.50400000000E-02 0.  1.
          2   -1    0    0  501    0  0.00000000000E+00 -0.00000000000E+00 -0.52285863164E+03  0.52285863165E+03  0.25500000000E-02 0. -1.
         24    2    1    2    0    0  0.00000000000E+00 -0.71054273576E-14 -0.51988255944E+03  0.52583470813E+03  0.78894009056E+02 0.  0.
         66    2    3    3    0    0 -0.13908944883E+02 -0.28923042678E+02 -0.41268721463E+03  0.41393808504E+03  0.19999959857E+01 0.  0.
        -13    1    3    3    0    0  0.13908944883E+02  0.28923042678E+02 -0.10719534480E+03  0.11189662308E+03  0.10566000000E+00 0.  1.
         13    1    4    4    0    0 -0.10715409705E+02 -0.23329520786E+02 -0.33125044265E+03  0.33224381630E+03  0.10566000000E+00 0. -1.
        -13    1    4    4    0    0 -0.21141422180E+01 -0.43168306286E+01 -0.59657843161E+02  0.59851265974E+02  0.10566000000E+00 0.  1.
        -14    1    4    4    0    0 -0.10793929595E+01 -0.12766912641E+01 -0.21778928817E+02  0.21843002774E+02  0.00000000000E+00 0.  1.
<mgrwt>
<rscale>  0 0.78894009E+02</rscale>
<asrwt>0</asrwt>
<pdfrwt beam="1">  1        2 0.80439717E-01 0.78894009E+02</pdfrwt>
<pdfrwt beam="2">  1       -1 0.45785801E-03 0.78894009E+02</pdfrwt>
<totfact> 0.32022163E+05</totfact>
</mgrwt>
</event>
<event>
 8    1  0.7667702E-014  0.7733482E+02  0.7818608E-02  0.1336790E+00
          2   -1    0    0  501    0  0.00000000000E+00  0.00000000000E+00  0.50751734438E+02  0.50751734502E+02  0.25500000000E-02 0. -1.
         -1   -1    0    0    0  501 -0.00000000000E+00 -0.00000000000E+00 -0.29460440241E+02  0.29460440672E+02  0.50400000000E-02 0.  1.
         24    2    1    2    0    0 -0.71054273576E-14  0.17763568394E-14  0.21291294197E+02  0.80212175174E+02  0.77334816464E+02 0.  0.
         66    2    3    3    0    0 -0.37028235358E+02  0.10618473291E+02  0.74860635290E+01  0.39292280910E+02  0.20000007927E+01 0.  0.
        -13    1    3    3    0    0  0.37028235358E+02 -0.10618473291E+02  0.13805230668E+02  0.40919894264E+02  0.10566000000E+00 0.  1.
         13    1    4    4    0    0 -0.15496884408E+01  0.27926994297E+00  0.41146985906E+00  0.16309498598E+01  0.10566000000E+00 0. -1.
        -13    1    4    4    0    0 -0.14150231809E+02  0.48910763004E+01  0.31875724476E+01  0.15307627829E+02  0.10566000000E+00 0. -1.
         14    1    4    4    0    0 -0.21328315109E+02  0.54481270480E+01  0.38870212223E+01  0.22353703221E+02  0.00000000000E+00 0. -1.
<mgrwt>
<rscale>  0 0.77334816E+02</rscale>
<asrwt>0</asrwt>
<pdfrwt beam="1">  1        2 0.78079592E-02 0.77334816E+02</pdfrwt>
<pdfrwt beam="2">  1       -1 0.45323755E-02 0.77334816E+02</pdfrwt>
<totfact> 0.16445243E+05</totfact>
</mgrwt>
</event>
<event>
 8    1  0.7667702E-014  0.7681048E+02  0.7818608E-02  0.1338354E+00
          2   -1    0    0  501    0  0.00000000000E+00  0.00000000000E+00  0.64043896271E+01  0.64043901348E+01  0.25500000000E-02 0. -1.
         -1   -1    0    0    0  501 -0.00000000000E+00 -0.00000000000E+00 -0.23030492616E+03  0.23030492622E+03  0.50400000000E-02 0.  1.
         24    2    1    2    0    0 -0.17763568394E-14 -0.35527136788E-14 -0.22390053653E+03  0.23670931635E+03  0.76810482274E+02 0.  0.
         66    2    3    3    0    0 -0.11488844679E+02 -0.30897811232E+02 -0.51456845537E+02  0.61143072387E+02  0.20000143157E+01 0.  0.
        -13    1    3    3    0    0  0.11488844679E+02  0.30897811232E+02 -0.17244369100E+03  0.17556624396E+03  0.10566000000E+00 0.  1.
         13    1    4    4    0    0 -0.32008920328E+01 -0.10953754842E+02 -0.18113445987E+02  0.21408842671E+02  0.10566000000E+00 0. -1.
        -13    1    4    4    0    0 -0.12978497232E+01 -0.38429071866E+01 -0.61853947118E+01  0.73974739827E+01  0.10566000000E+00 0. -1.
         14    1    4    4    0    0 -0.69901029232E+01 -0.16101149204E+02 -0.27158004838E+02  0.32336755733E+02  0.00000000000E+00 0. -1.
<mgrwt>
<rscale>  0 0.76810482E+02</rscale>
<asrwt>0</asrwt>
<pdfrwt beam="1">  1        2 0.98529093E-03 0.76810482E+02</pdfrwt>
<pdfrwt beam="2">  1       -1 0.35431521E-01 0.76810482E+02</pdfrwt>
<totfact> 0.10565963E+05</totfact>
</mgrwt>
</event>
<event>
 8    1  0.7667702E-014  0.7886671E+02  0.7818608E-02  0.1332299E+00
          2   -1    0    0  501    0  0.00000000000E+00  0.00000000000E+00  0.10171591543E+02  0.10171591863E+02  0.25500000000E-02 0. -1.
         -1   -1    0    0    0  501 -0.00000000000E+00 -0.00000000000E+00 -0.15287570906E+03  0.15287570914E+03  0.50400000000E-02 0.  1.
         24    2    1    2    0    0  0.00000000000E+00  0.35527136788E-14 -0.14270411752E+03  0.16304730101E+03  0.78866705328E+02 0.  0.
         66    2    3    3    0    0 -0.24169293877E+02 -0.30385683106E+02 -0.57446482537E+02  0.69365285706E+02  0.20000002182E+01 0.  0.
        -13    1    3    3    0    0  0.24169293877E+02  0.30385683106E+02 -0.85257634979E+02  0.93682015300E+02  0.10566000000E+00 0.  1.
         13    1    4    4    0    0 -0.32235788419E+01 -0.36637174261E+01 -0.75674170546E+01  0.90050680643E+01  0.10566000000E+00 0. -1.
        -13    1    4    4    0    0 -0.42117119791E+01 -0.62519287354E+01 -0.11775622362E+02  0.13982187839E+02  0.10566000000E+00 0.  1.
         14    1    4    4    0    0 -0.16734003056E+02 -0.20470036945E+02 -0.38103443120E+02  0.46378029803E+02  0.00000000000E+00 0. -1.
<mgrwt>
<rscale>  0 0.78866705E+02</rscale>
<asrwt>0</asrwt>
<pdfrwt beam="1">  1        2 0.15648604E-02 0.78866705E+02</pdfrwt>
<pdfrwt beam="2">  1       -1 0.23519338E-01 0.78866705E+02</pdfrwt>
<totfact> 0.11129225E+05</totfact>
</mgrwt>
</event>
<event>
 8    1  0.7667702E-014  0.8057965E+02  0.7818608E-02  0.1327414E+00
         -1   -1    0    0    0  501 -0.00000000000E+00  0.00000000000E+00  0.28634993509E+02  0.28634993953E+02  0.50400000000E-02 0.  1.
          2   -1    0    0  501    0  0.00000000000E+00 -0.00000000000E+00 -0.56688324769E+02  0.56688324826E+02  0.25500000000E-02 0. -1.
         24    2    1    2    0    0 -0.44408920985E-15  0.00000000000E+00 -0.28053331259E+02  0.85323318779E+02  0.80579645896E+02 0.  0.
         66    2    3    3    0    0  0.30807248547E+01 -0.31461534439E+02  0.12371692709E+02  0.34005556340E+02  0.20000166618E+01 0.  0.
        -13    1    3    3    0    0 -0.30807248547E+01  0.31461534439E+02 -0.40425023968E+02  0.51317762439E+02  0.10566000000E+00 0.  1.
         13    1    4    4    0    0  0.89045992022E+00 -0.65548288097E+01  0.20658208245E+01  0.69309075386E+01  0.10566000000E+00 0. -1.
        -13    1    4    4    0    0 -0.70514345398E-01 -0.33672934388E+01  0.16390645200E+01  0.37471767922E+01  0.10566000000E+00 0.  1.
         14    1    4    4    0    0  0.22607792798E+01 -0.21539412191E+02  0.86668073641E+01  0.23327472009E+02  0.00000000000E+00 0. -1.
<mgrwt>
<rscale>  0 0.80579646E+02</rscale>
<asrwt>0</asrwt>
<pdfrwt beam="1">  1        2 0.87212807E-02 0.80579646E+02</pdfrwt>
<pdfrwt beam="2">  1       -1 0.44053837E-02 0.80579646E+02</pdfrwt>
<totfact> 0.15065692E+05</totfact>
</mgrwt>
</event>
<event>
 8    1  0.7667702E-014  0.8119489E+02  0.7818608E-02  0.1325694E+00
         -1   -1    0    0    0  501 -0.00000000000E+00  0.00000000000E+00  0.39760899683E+02  0.39760900002E+02  0.50400000000E-02 0.  1.
          2   -1    0    0  501    0  0.00000000000E+00 -0.00000000000E+00 -0.41451587913E+02  0.41451587991E+02  0.25500000000E-02 0. -1.
         24    2    1    2    0    0  0.00000000000E+00 -0.17763568394E-14 -0.16906882296E+01  0.81212487994E+02  0.81194887643E+02 0.  0.
         66    2    3    3    0    0 -0.73847673708E+01 -0.84429454191E+01 -0.39845708625E+02  0.41442714775E+02  0.19999989212E+01 0.  0.
        -13    1    3    3    0    0  0.73847673708E+01  0.84429454191E+01  0.38155020395E+02  0.39769773218E+02  0.10566000000E+00 0.  1.
         13    1    4    4    0    0 -0.42238648920E+01 -0.40054660997E+01 -0.19894759565E+02  0.20729144109E+02  0.10566000000E+00 0. -1.
        -13    1    4    4    0    0 -0.25242519142E+01 -0.28840181360E+01 -0.12448826556E+02  0.13025891716E+02  0.10566000000E+00 0.  1.
         14    1    4    4    0    0 -0.63665056455E+00 -0.15534611834E+01 -0.75021225029E+01  0.76876789500E+01  0.00000000000E+00 0. -1.
<mgrwt>
<rscale>  0 0.81194888E+02</rscale>
<asrwt>0</asrwt>
<pdfrwt beam="1">  1        2 0.63771674E-02 0.81194888E+02</pdfrwt>
<pdfrwt beam="2">  1       -1 0.61170615E-02 0.81194888E+02</pdfrwt>
<totfact> 0.13784043E+05</totfact>
</mgrwt>
</event>
<event>
 8    1  0.7667702E-014  0.7959288E+02  0.7818608E-02  0.1330211E+00
         -1   -1    0    0    0  501 -0.00000000000E+00  0.00000000000E+00  0.18688399199E+02  0.18688399879E+02  0.50400000000E-02 0.  1.
          2   -1    0    0  501    0  0.00000000000E+00 -0.00000000000E+00 -0.84745432864E+02  0.84745432902E+02  0.25500000000E-02 0. -1.
         24    2    1    2    0    0  0.00000000000E+00  0.00000000000E+00 -0.66057033665E+02  0.10343383278E+03  0.79592876987E+02 0.  0.
         66    2    3    3    0    0  0.20164230729E+02  0.31547513931E+02 -0.50480049687E+02  0.62881453935E+02  0.19999991206E+01 0.  0.
        -13    1    3    3    0    0 -0.20164230729E+02 -0.31547513931E+02 -0.15576983978E+02  0.40552378846E+02  0.10566000000E+00 0.  1.
         13    1    4    4    0    0  0.59113589599E+01  0.10052823054E+02 -0.17029353248E+02  0.20640093318E+02  0.10566000000E+00 0. -1.
        -13    1    4    4    0    0  0.73859837093E+01  0.11420634569E+02 -0.17382115684E+02  0.22071084228E+02  0.10566000000E+00 0.  1.
         14    1    4    4    0    0  0.68668880602E+01  0.10074056308E+02 -0.16068580754E+02  0.20170276389E+02  0.00000000000E+00 0. -1.
<mgrwt>
<rscale>  0 0.79592877E+02</rscale>
<asrwt>0</asrwt>
<pdfrwt beam="1">  1        2 0.13037759E-01 0.79592877E+02</pdfrwt>
<pdfrwt beam="2">  1       -1 0.28751385E-02 0.79592877E+02</pdfrwt>
<totfact> 0.17181676E+05</totfact>
</mgrwt>
</event>
<event>
 8    1  0.7667702E-014  0.7957964E+02  0.7818608E-02  0.1330249E+00
         -1   -1    0    0    0  501 -0.00000000000E+00  0.00000000000E+00  0.28229205327E+01  0.28229250318E+01  0.50400000000E-02 0.  1.
          2   -1    0    0  501    0  0.00000000000E+00 -0.00000000000E+00 -0.56084776348E+03  0.56084776349E+03  0.25500000000E-02 0. -1.
         24    2    1    2    0    0 -0.35527136788E-14  0.00000000000E+00 -0.55802484295E+03  0.56367068852E+03  0.79579644052E+02 0.  0.
         66    2    3    3    0    0 -0.24849455012E+02  0.27368348440E+02 -0.38297507104E+03  0.38476022007E+03  0.20000001586E+01 0.  0.
        -13    1    3    3    0    0  0.24849455012E+02 -0.27368348440E+02 -0.17504977191E+03  0.17891046845E+03  0.10566000000E+00 0.  1.
         13    1    4    4    0    0 -0.14497330514E+02  0.15067697858E+02 -0.21957257939E+03  0.22056594682E+03  0.10566000000E+00 0. -1.
        -13    1    4    4    0    0 -0.29301542605E+01  0.41504383065E+01 -0.52199020370E+02  0.52445789476E+02  0.10566000000E+00 0.  1.
        -14    1    4    4    0    0 -0.74219702378E+01  0.81502122753E+01 -0.11120347128E+03  0.11174848378E+03  0.00000000000E+00 0.  1.
<mgrwt>
<rscale>  0 0.79579644E+02</rscale>
<asrwt>0</asrwt>
<pdfrwt beam="1">  1        2 0.86284183E-01 0.79579644E+02</pdfrwt>
<pdfrwt beam="2">  1       -1 0.43429626E-03 0.79579644E+02</pdfrwt>
<totfact> 0.31981711E+05</totfact>
</mgrwt>
</event>
<event>
 8    1  0.7667702E-014  0.7764339E+02  0.7818608E-02  0.1335875E+00
         -1   -1    0    0    0  501 -0.00000000000E+00  0.00000000000E+00  0.22107203704E+02  0.22107204279E+02  0.50400000000E-02 0.  1.
          2   -1    0    0  501    0  0.00000000000E+00 -0.00000000000E+00 -0.68173429677E+02  0.68173429724E+02  0.25500000000E-02 0. -1.
         24    2    1    2    0    0  0.00000000000E+00  0.00000000000E+00 -0.46066225973E+02  0.90280634003E+02  0.77643388003E+02 0.  0.
         66    2    3    3    0    0  0.16969331310E+02 -0.48601816853E+01 -0.63218970686E+02  0.65667479261E+02  0.20000017060E+01 0.  0.
        -13    1    3    3    0    0 -0.16969331310E+02  0.48601816853E+01  0.17152744713E+02  0.24613154742E+02  0.10566000000E+00 0.  1.
         13    1    4    4    0    0  0.96654481731E+01 -0.29229572314E+01 -0.35070128878E+02  0.36495063652E+02  0.10566000000E+00 0. -1.
        -13    1    4    4    0    0  0.43643481907E+01 -0.65044385079E+00 -0.17694549169E+02  0.18236744409E+02  0.10566000000E+00 0.  1.
         14    1    4    4    0    0  0.29395349466E+01 -0.12867806031E+01 -0.10454292639E+02  0.10935671200E+02  0.00000000000E+00 0. -1.
<mgrwt>
<rscale>  0 0.77643388E+02</rscale>
<asrwt>0</asrwt>
<pdfrwt beam="1">  1        2 0.10488220E-01 0.77643388E+02</pdfrwt>
<pdfrwt beam="2">  1       -1 0.34011084E-02 0.77643388E+02</pdfrwt>
<totfact> 0.17393998E+05</totfact>
</mgrwt>
</event>
<event>
 8    1  0.7667702E-014  0.7990860E+02  0.7818608E-02  0.1329311E+00
         -1   -1    0    0    0  501 -0.00000000000E+00  0.00000000000E+00  0.96157945176E+01  0.96157958385E+01  0.50400000000E-02 0.  1.
          2   -1    0    0  501    0  0.00000000000E+00 -0.00000000000E+00 -0.16601290141E+03  0.16601290143E+03  0.25500000000E-02 0. -1.
         24    2    1    2    0    0 -0.35527136788E-14  0.00000000000E+00 -0.15639710690E+03  0.17562869727E+03  0.79908599412E+02 0.  0.
         66    2    3    3    0    0  0.21636719154E+02  0.21161302719E+01 -0.15185850453E+03  0.15341978693E+03  0.20000000128E+01 0.  0.
        -13    1    3    3    0    0 -0.21636719154E+02 -0.21161302719E+01 -0.45386023639E+01  0.22208910341E+02  0.10566000000E+00 0.  1.
         13    1    4    4    0    0  0.55507172158E+01  0.82032505866E+00 -0.39665767118E+02  0.40060799292E+02  0.10566000000E+00 0. -1.
        -13    1    4    4    0    0  0.13497778900E+02  0.16184256310E+01 -0.95892550327E+02  0.96851441440E+02  0.10566000000E+00 0.  1.
        -14    1    4    4    0    0  0.25882230384E+01 -0.32262041777E+00 -0.16300187088E+02  0.16507546199E+02  0.00000000000E+00 0.  1.
<mgrwt>
<rscale>  0 0.79908599E+02</rscale>
<asrwt>0</asrwt>
<pdfrwt beam="1">  1        2 0.25540444E-01 0.79908599E+02</pdfrwt>
<pdfrwt beam="2">  1       -1 0.14793532E-02 0.79908599E+02</pdfrwt>
<totfact> 0.20768059E+05</totfact>
</mgrwt>
</event>
<event>
 8    1  0.7667702E-014  0.8102295E+02  0.7818608E-02  0.1326173E+00
          2   -1    0    0  501    0  0.00000000000E+00  0.00000000000E+00  0.13282738188E+04  0.13282738188E+04  0.25500000000E-02 0. -1.
         -1   -1    0    0    0  501 -0.00000000000E+00 -0.00000000000E+00 -0.12355681077E+01  0.12355783869E+01  0.50400000000E-02 0.  1.
         24    2    1    2    0    0  0.00000000000E+00  0.00000000000E+00  0.13270382507E+04  0.13295093972E+04  0.81022949924E+02 0.  0.
         66    2    3    3    0    0  0.43333018110E+01  0.16841431857E+02  0.12638661558E+04  0.12639873698E+04  0.19999996963E+01 0.  0.
        -13    1    3    3    0    0 -0.43333018110E+01 -0.16841431857E+02  0.63172094956E+02  0.65522027416E+02  0.10566000000E+00 0.  1.
         13    1    4    4    0    0  0.24625230060E+01  0.10289160900E+02  0.79463365728E+03  0.79470409040E+03  0.10566000000E+00 0. -1.
        -13    1    4    4    0    0 -0.41341560450E-01  0.64235454556E-01  0.12831399305E+02  0.12832061700E+02  0.10566000000E+00 0.  1.
         14    1    4    4    0    0  0.19121203654E+01  0.64880355015E+01  0.45640109918E+03  0.45645121771E+03  0.00000000000E+00 0. -1.
<mgrwt>
<rscale>  0 0.81022950E+02</rscale>
<asrwt>0</asrwt>
<pdfrwt beam="1">  1        2 0.20435031E+00 0.81022950E+02</pdfrwt>
<pdfrwt beam="2">  1       -1 0.19008773E-03 0.81022950E+02</pdfrwt>
<totfact> 0.33344348E+05</totfact>
</mgrwt>
</event>
<event>
 8    1  0.7667702E-014  0.8012256E+02  0.7818608E-02  0.1328704E+00
          2   -1    0    0  501    0  0.00000000000E+00  0.00000000000E+00  0.79315574735E+01  0.79315578834E+01  0.25500000000E-02 0. -1.
         -1   -1    0    0    0  501 -0.00000000000E+00 -0.00000000000E+00 -0.20234439688E+03  0.20234439695E+03  0.50400000000E-02 0.  1.
         24    2    1    2    0    0 -0.44408920985E-15  0.00000000000E+00 -0.19441283941E+03  0.21027595483E+03  0.80122562690E+02 0.  0.
         66    2    3    3    0    0  0.23723173717E+01 -0.32737545882E+02 -0.37103457588E+02  0.49578638196E+02  0.20000000748E+01 0.  0.
        -13    1    3    3    0    0 -0.23723173717E+01  0.32737545882E+02 -0.15730938182E+03  0.16069731663E+03  0.10566000000E+00 0.  1.
         13    1    4    4    0    0  0.23357880489E+01 -0.30941451291E+02 -0.35281818642E+02  0.46985606354E+02  0.10566000000E+00 0. -1.
        -13    1    4    4    0    0  0.17248557136E+00 -0.15426502990E+01 -0.14931552818E+01  0.21564317630E+01  0.10566000000E+00 0.  1.
        -14    1    4    4    0    0 -0.13595624852E+00 -0.25344429176E+00 -0.32848366493E+00  0.43660007863E+00  0.00000000000E+00 0.  1.
<mgrwt>
<rscale>  0 0.80122563E+02</rscale>
<asrwt>0</asrwt>
<pdfrwt beam="1">  1        2 0.12202398E-02 0.80122563E+02</pdfrwt>
<pdfrwt beam="2">  1       -1 0.31129903E-01 0.80122563E+02</pdfrwt>
<totfact> 0.98865829E+04</totfact>
</mgrwt>
</event>
<event>
 8    1  0.7667702E-014  0.7912609E+02  0.7818608E-02  0.1331550E+00
         -1   -1    0    0    0  501 -0.00000000000E+00  0.00000000000E+00  0.10949070279E+03  0.10949070291E+03  0.50400000000E-02 0.  1.
          2   -1    0    0  501    0  0.00000000000E+00 -0.00000000000E+00 -0.14295592086E+02  0.14295592314E+02  0.25500000000E-02 0. -1.
         24    2    1    2    0    0  0.00000000000E+00  0.00000000000E+00  0.95195110704E+02  0.12378629522E+03  0.79126087875E+02 0.  0.
         66    2    3    3    0    0  0.35848245922E+02 -0.57216361293E+01  0.23121096976E+02  0.43086180756E+02  0.19999977649E+01 0.  0.
        -13    1    3    3    0    0 -0.35848245922E+02  0.57216361293E+01  0.72074013729E+02  0.80700114465E+02  0.10566000000E+00 0.  1.
         13    1    4    4    0    0  0.16394915288E+02 -0.29025552808E+01  0.95675840906E+01  0.19203330540E+02  0.10566000000E+00 0. -1.
        -13    1    4    4    0    0  0.95013111277E+01 -0.13465254662E+01  0.69423333069E+01  0.11844627464E+02  0.10566000000E+00 0.  1.
        -14    1    4    4    0    0  0.99520195064E+01 -0.14725553822E+01  0.66111795783E+01  0.12038222752E+02  0.00000000000E+00 0.  1.
<mgrwt>
<rscale>  0 0.79126088E+02</rscale>
<asrwt>0</asrwt>
<pdfrwt beam="1">  1        2 0.21993219E-02 0.79126088E+02</pdfrwt>
<pdfrwt beam="2">  1       -1 0.16844724E-01 0.79126088E+02</pdfrwt>
<totfact> 0.11945277E+05</totfact>
</mgrwt>
</event>
<event>
 8    1  0.7667702E-014  0.7864495E+02  0.7818608E-02  0.1332941E+00
          2   -1    0    0  501    0  0.00000000000E+00  0.00000000000E+00  0.21732086532E+02  0.21732086681E+02  0.25500000000E-02 0. -1.
         -1   -1    0    0    0  501 -0.00000000000E+00 -0.00000000000E+00 -0.71150885926E+02  0.71150886105E+02  0.50400000000E-02 0.  1.
         24    2    1    2    0    0  0.44408920985E-15 -0.71054273576E-14 -0.49418799395E+02  0.92882972786E+02  0.78644954701E+02 0.  0.
         66    2    3    3    0    0 -0.34168939089E+01  0.38971973865E+02 -0.20343944943E+02  0.44140299118E+02  0.19999998667E+01 0.  0.
        -13    1    3    3    0    0  0.34168939089E+01 -0.38971973865E+02 -0.29074854451E+02  0.48742673668E+02  0.10566000000E+00 0.  1.
         13    1    4    4    0    0 -0.10567313095E+01  0.11503806977E+02 -0.63974852046E+01  0.13205803157E+02  0.10566000000E+00 0. -1.
        -13    1    4    4    0    0 -0.84161514212E+00  0.39607125284E+01 -0.18330331386E+01  0.44459795662E+01  0.10566000000E+00 0.  1.
        -14    1    4    4    0    0 -0.15185474573E+01  0.23507454359E+02 -0.12113426600E+02  0.26488516395E+02  0.00000000000E+00 0.  1.
<mgrwt>
<rscale>  0 0.78644955E+02</rscale>
<asrwt>0</asrwt>
<pdfrwt beam="1">  1        2 0.33433980E-02 0.78644955E+02</pdfrwt>
<pdfrwt beam="2">  1       -1 0.10946290E-01 0.78644955E+02</pdfrwt>
<totfact> 0.13254909E+05</totfact>
</mgrwt>
</event>
<event>
 8    1  0.7667702E-014  0.8143935E+02  0.7818608E-02  0.1325016E+00
          2   -1    0    0  501    0  0.00000000000E+00  0.00000000000E+00  0.10591879757E+04  0.10591879757E+04  0.25500000000E-02 0. -1.
         -1   -1    0    0    0  501 -0.00000000000E+00 -0.00000000000E+00 -0.15654329264E+01  0.15654410396E+01  0.50400000000E-02 0.  1.
         24    2    1    2    0    0 -0.35527136788E-14  0.00000000000E+00  0.10576225428E+04  0.10607534167E+04  0.81439352579E+02 0.  0.
         66    2    3    3    0    0 -0.28592467002E+02  0.12372724648E+02  0.87014588436E+03  0.87070573299E+03  0.19999786822E+01 0.  0.
        -13    1    3    3    0    0  0.28592467002E+02 -0.12372724648E+02  0.18747665842E+03  0.19004768375E+03  0.10566000000E+00 0.  1.
         13    1    4    4    0    0 -0.11770191005E+02  0.56028715717E+01  0.38029564709E+03  0.38051901388E+03  0.10566000000E+00 0. -1.
        -13    1    4    4    0    0 -0.18966671720E+00  0.77095641612E-01  0.65768640545E+01  0.65808982692E+01  0.10566000000E+00 0. -1.
         14    1    4    4    0    0 -0.16632609280E+02  0.66927574343E+01  0.48327337322E+03  0.48360582084E+03  0.00000000000E+00 0. -1.
<mgrwt>
<rscale>  0 0.81439353E+02</rscale>
<asrwt>0</asrwt>
<pdfrwt beam="1">  1        2 0.16295194E+00 0.81439353E+02</pdfrwt>
<pdfrwt beam="2">  1       -1 0.24083655E-03 0.81439353E+02</pdfrwt>
<totfact> 0.33676236E+05</totfact>
</mgrwt>
</event>
<event>
 8    1  0.7667702E-014  0.7896697E+02  0.7818608E-02  0.1332009E+00
          2   -1    0    0  501    0  0.00000000000E+00  0.00000000000E+00  0.18826219737E+03  0.18826219738E+03  0.25500000000E-02 0. -1.
         -1   -1    0    0    0  501 -0.00000000000E+00 -0.00000000000E+00 -0.82807147867E+01  0.82807163205E+01  0.50400000000E-02 0.  1.
         24    2    1    2    0    0  0.17763568394E-14  0.35527136788E-14  0.17998148258E+03  0.19654291370E+03  0.78966973196E+02 0.  0.
         66    2    3    3    0    0 -0.12232315062E+02  0.17632843563E+02  0.17246121312E+03  0.17380280991E+03  0.19999994866E+01 0.  0.
        -13    1    3    3    0    0  0.12232315062E+02 -0.17632843563E+02  0.75202694637E+01  0.22740103798E+02  0.10566000000E+00 0.  1.
         13    1    4    4    0    0 -0.63571006591E+01  0.10295711845E+02  0.99017566094E+02  0.99754217808E+02  0.10566000000E+00 0. -1.
        -13    1    4    4    0    0 -0.39907723210E+00  0.25130738328E+00  0.44553544247E+01  0.44814913950E+01  0.10566000000E+00 0. -1.
         14    1    4    4    0    0 -0.54761371710E+01  0.70858243353E+01  0.68988292598E+02  0.69567100704E+02  0.00000000000E+00 0. -1.
<mgrwt>
<rscale>  0 0.78966973E+02</rscale>
<asrwt>0</asrwt>
<pdfrwt beam="1">  1        2 0.28963415E-01 0.78966973E+02</pdfrwt>
<pdfrwt beam="2">  1       -1 0.12739562E-02 0.78966973E+02</pdfrwt>
<totfact> 0.22356820E+05</totfact>
</mgrwt>
</event>
<event>
 8    1  0.7667702E-014  0.7584385E+02  0.7818608E-02  0.1341278E+00
         -1   -1    0    0    0  501 -0.00000000000E+00  0.00000000000E+00  0.33974881437E+01  0.33974918820E+01  0.50400000000E-02 0.  1.
          2   -1    0    0  501    0  0.00000000000E+00 -0.00000000000E+00 -0.42327493025E+03  0.42327493025E+03  0.25500000000E-02 0. -1.
         24    2    1    2    0    0  0.00000000000E+00  0.71054273576E-14 -0.41987744210E+03  0.42667242214E+03  0.75843848958E+02 0.  0.
         66    2    3    3    0    0  0.26324504592E+02 -0.22528380054E+02 -0.29642687487E+03  0.29845167045E+03  0.19999991907E+01 0.  0.
        -13    1    3    3    0    0 -0.26324504592E+02  0.22528380054E+02 -0.12345056723E+03  0.12822075168E+03  0.10566000000E+00 0.  1.
         13    1    4    4    0    0  0.13649907103E+02 -0.11316568828E+02 -0.14394136287E+03  0.14502934808E+03  0.10566000000E+00 0. -1.
        -13    1    4    4    0    0  0.10352788175E+02 -0.89863478041E+01 -0.12233352835E+03  0.12309930135E+03  0.10566000000E+00 0.  1.
        -14    1    4    4    0    0  0.23218093144E+01 -0.22254634219E+01 -0.30151983654E+02  0.30323021027E+02  0.00000000000E+00 0.  1.
<mgrwt>
<rscale>  0 0.75843849E+02</rscale>
<asrwt>0</asrwt>
<pdfrwt beam="1">  1        2 0.65119178E-01 0.75843849E+02</pdfrwt>
<pdfrwt beam="2">  1       -1 0.52269111E-03 0.75843849E+02</pdfrwt>
<totfact> 0.33106625E+05</totfact>
</mgrwt>
</event>
<event>
 8    1  0.7667702E-014  0.8072845E+02  0.7818608E-02  0.1326997E+00
         -1   -1    0    0    0  501 -0.00000000000E+00  0.00000000000E+00  0.24627001268E+02  0.24627001784E+02  0.50400000000E-02 0.  1.
          2   -1    0    0  501    0  0.00000000000E+00 -0.00000000000E+00 -0.66157895372E+02  0.66157895421E+02  0.25500000000E-02 0. -1.
         24    2    1    2    0    0  0.35527136788E-14  0.35527136788E-14 -0.41530894104E+02  0.90784897206E+02  0.80728448490E+02 0.  0.
         66    2    3    3    0    0 -0.31870363189E+02 -0.18101593872E+02 -0.39725694243E+02  0.54088062722E+02  0.19999988581E+01 0.  0.
        -13    1    3    3    0    0  0.31870363189E+02  0.18101593872E+02 -0.18051998607E+01  0.36696834483E+02  0.10566000000E+00 0.  1.
         13    1    4    4    0    0 -0.18101426342E+02 -0.96673994085E+01 -0.21485894985E+02  0.29711531335E+02  0.10566000000E+00 0. -1.
        -13    1    4    4    0    0 -0.67422094029E+01 -0.42105269611E+01 -0.96385808423E+01  0.12493971731E+02  0.10566000000E+00 0.  1.
        -14    1    4    4    0    0 -0.70267274444E+01 -0.42236675021E+01 -0.86012184156E+01  0.11882559656E+02  0.00000000000E+00 0.  1.
<mgrwt>
<rscale>  0 0.80728448E+02</rscale>
<asrwt>0</asrwt>
<pdfrwt beam="1">  1        2 0.10178138E-01 0.80728448E+02</pdfrwt>
<pdfrwt beam="2">  1       -1 0.37887695E-02 0.80728448E+02</pdfrwt>
<totfact> 0.15540751E+05</totfact>
</mgrwt>
</event>
<event>
 8    1  0.7667702E-014  0.7598606E+02  0.7818608E-02  0.1340844E+00
         -1   -1    0    0    0  501 -0.00000000000E+00  0.00000000000E+00  0.58997807631E+01  0.58997829158E+01  0.50400000000E-02 0.  1.
          2   -1    0    0  501    0  0.00000000000E+00 -0.00000000000E+00 -0.24466506349E+03  0.24466506351E+03  0.25500000000E-02 0. -1.
         24    2    1    2    0    0  0.00000000000E+00  0.00000000000E+00 -0.23876528273E+03  0.25056484642E+03  0.75986064679E+02 0.  0.
         66    2    3    3    0    0 -0.58040032431E+01 -0.32594344364E+02 -0.18074807541E+03  0.18376600476E+03  0.20000007516E+01 0.  0.
        -13    1    3    3    0    0  0.58040032431E+01  0.32594344364E+02 -0.58017207321E+02  0.66798841663E+02  0.10566000000E+00 0.  1.
         13    1    4    4    0    0 -0.17473372209E+01 -0.86964758843E+01 -0.46454637323E+02  0.47294041623E+02  0.10566000000E+00 0. -1.
        -13    1    4    4    0    0 -0.26457575652E+01 -0.17457460365E+02 -0.94339025571E+02  0.95977215344E+02  0.10566000000E+00 0.  1.
        -14    1    4    4    0    0 -0.14109084570E+01 -0.64404081140E+01 -0.39954412516E+02  0.40494747794E+02  0.00000000000E+00 0.  1.
<mgrwt>
<rscale>  0 0.75986065E+02</rscale>
<asrwt>0</asrwt>
<pdfrwt beam="1">  1        2 0.37640771E-01 0.75986065E+02</pdfrwt>
<pdfrwt beam="2">  1       -1 0.90765894E-03 0.75986065E+02</pdfrwt>
<totfact> 0.27108671E+05</totfact>
</mgrwt>
</event>
<event>
 8    1  0.7667702E-014  0.7850323E+02  0.7818608E-02  0.1333354E+00
          2   -1    0    0  501    0  0.00000000000E+00  0.00000000000E+00  0.41748586760E+02  0.41748586838E+02  0.25500000000E-02 0. -1.
         -1   -1    0    0    0  501 -0.00000000000E+00 -0.00000000000E+00 -0.36903987341E+02  0.36903987686E+02  0.50400000000E-02 0.  1.
         24    2    1    2    0    0  0.00000000000E+00  0.00000000000E+00  0.48445994186E+01  0.78652574524E+02  0.78503231371E+02 0.  0.
         66    2    3    3    0    0  0.84374111887E+01 -0.12347300374E+02  0.38756316308E+02  0.41589635615E+02  0.20000006724E+01 0.  0.
        -13    1    3    3    0    0 -0.84374111887E+01  0.12347300374E+02 -0.33911716890E+02  0.37062938909E+02  0.10566000000E+00 0.  1.
         13    1    4    4    0    0  0.54973787271E+01 -0.84713262645E+01  0.28244117046E+02  0.29995430540E+02  0.10566000000E+00 0. -1.
        -13    1    4    4    0    0  0.23189254411E+01 -0.29872474266E+01  0.86143974579E+01  0.94085105084E+01  0.10566000000E+00 0.  1.
         14    1    4    4    0    0  0.62110702044E+00 -0.88872668293E+00  0.18978018047E+01  0.21856945664E+01  0.00000000000E+00 0. -1.
<mgrwt>
<rscale>  0 0.78503231E+02</rscale>
<asrwt>0</asrwt>
<pdfrwt beam="1">  1        2 0.64228595E-02 0.78503231E+02</pdfrwt>
<pdfrwt beam="2">  1       -1 0.56775366E-02 0.78503231E+02</pdfrwt>
<totfact> 0.15149928E+05</totfact>
</mgrwt>
</event>
<event>
 8    1  0.7667702E-014  0.7982195E+02  0.7818608E-02  0.1329557E+00
         -1   -1    0    0    0  501 -0.00000000000E+00  0.00000000000E+00  0.10965348512E+02  0.10965349670E+02  0.50400000000E-02 0.  1.
          2   -1    0    0  501    0  0.00000000000E+00 -0.00000000000E+00 -0.14526542120E+03  0.14526542123E+03  0.25500000000E-02 0. -1.
         24    2    1    2    0    0 -0.35527136788E-14  0.00000000000E+00 -0.13430007269E+03  0.15623077090E+03  0.79821953433E+02 0.  0.
         66    2    3    3    0    0  0.21503075116E+02 -0.19204779364E+02 -0.12113794872E+03  0.12453757823E+03  0.19999954940E+01 0.  0.
        -13    1    3    3    0    0 -0.21503075116E+02  0.19204779364E+02 -0.13162123974E+02  0.31693192667E+02  0.10566000000E+00 0.  1.
         13    1    4    4    0    0  0.12360863504E+02 -0.11768439961E+02 -0.71036167831E+02  0.73057754071E+02  0.10566000000E+00 0. -1.
        -13    1    4    4    0    0  0.36523518980E+01 -0.30010631679E+01 -0.17926971164E+02  0.18540051610E+02  0.10566000000E+00 0.  1.
        -14    1    4    4    0    0  0.54898597141E+01 -0.44352762350E+01 -0.32174809721E+02  0.32939772549E+02  0.00000000000E+00 0.  1.
<mgrwt>
<rscale>  0 0.79821953E+02</rscale>
<asrwt>0</asrwt>
<pdfrwt beam="1">  1        2 0.22348525E-01 0.79821953E+02</pdfrwt>
<pdfrwt beam="2">  1       -1 0.16869769E-02 0.79821953E+02</pdfrwt>
<totfact> 0.19942676E+05</totfact>
</mgrwt>
</event>
<event>
 8    1  0.7667702E-014  0.7958491E+02  0.7818608E-02  0.1330234E+00
          2   -1    0    0  501    0  0.00000000000E+00  0.00000000000E+00  0.99390729230E+03  0.99390729230E+03  0.25500000000E-02 0. -1.
         -1   -1    0    0    0  501 -0.00000000000E+00 -0.00000000000E+00 -0.15931418747E+01  0.15931498469E+01  0.50400000000E-02 0.  1.
         24    2    1    2    0    0 -0.35527136788E-14 -0.88817841970E-15  0.99231415042E+03  0.99550044215E+03  0.79584905522E+02 0.  0.
         66    2    3    3    0    0  0.23615644834E+02  0.76885428668E+01  0.88496802459E+03  0.88531870924E+03  0.20000005012E+01 0.  0.
        -13    1    3    3    0    0 -0.23615644834E+02 -0.76885428668E+01  0.10734612583E+03  0.11018173291E+03  0.10566000000E+00 0.  1.
         13    1    4    4    0    0  0.15038244346E+02  0.41534459029E+01  0.57429990827E+03  0.57451178901E+03  0.10566000000E+00 0. -1.
        -13    1    4    4    0    0  0.53521808428E+00  0.19100949950E+00  0.19132819646E+02  0.19141548910E+02  0.10566000000E+00 0. -1.
         14    1    4    4    0    0  0.80421824038E+01  0.33440874644E+01  0.29153529668E+03  0.29166537132E+03  0.00000000000E+00 0. -1.
<mgrwt>
<rscale>  0 0.79584906E+02</rscale>
<asrwt>0</asrwt>
<pdfrwt beam="1">  1        2 0.15290923E+00 0.79584906E+02</pdfrwt>
<pdfrwt beam="2">  1       -1 0.24509869E-03 0.79584906E+02</pdfrwt>
<totfact> 0.35700509E+05</totfact>
</mgrwt>
</event>
<event>
 8    1  0.7667702E-014  0.8044610E+02  0.7818608E-02  0.1327790E+00
          2   -1    0    0  501    0  0.00000000000E+00  0.00000000000E+00  0.49094107151E+03  0.49094107151E+03  0.25500000000E-02 0. -1.
         -1   -1    0    0    0  501 -0.00000000000E+00 -0.00000000000E+00 -0.32954932526E+01  0.32954971066E+01  0.50400000000E-02 0.  1.
         24    2    1    2    0    0  0.00000000000E+00  0.35527136788E-14  0.48764557825E+03  0.49423656862E+03  0.80446104756E+02 0.  0.
         66    2    3    3    0    0 -0.11208595615E+02 -0.29390506913E+02  0.39774413273E+03  0.39899101448E+03  0.20000003704E+01 0.  0.
        -13    1    3    3    0    0  0.11208595615E+02  0.29390506913E+02  0.89901445521E+02  0.95245554138E+02  0.10566000000E+00 0.  1.
         13    1    4    4    0    0 -0.15062884136E+01 -0.42773669701E+01  0.49577854677E+02  0.49784933578E+02  0.10566000000E+00 0. -1.
        -13    1    4    4    0    0 -0.41526550417E+01 -0.10677265046E+02  0.15166130075E+03  0.15209342472E+03  0.10566000000E+00 0.  1.
         14    1    4    4    0    0 -0.55496521600E+01 -0.14435874896E+02  0.19650497731E+03  0.19711265619E+03  0.00000000000E+00 0. -1.
<mgrwt>
<rscale>  0 0.80446105E+02</rscale>
<asrwt>0</asrwt>
<pdfrwt beam="1">  1        2 0.75529425E-01 0.80446105E+02</pdfrwt>
<pdfrwt beam="2">  1       -1 0.50699907E-03 0.80446105E+02</pdfrwt>
<totfact> 0.29837762E+05</totfact>
</mgrwt>
</event>
<event>
 8    1  0.7667702E-014  0.8166392E+02  0.7818608E-02  0.1324395E+00
         -1   -1    0    0    0  501 -0.00000000000E+00  0.00000000000E+00  0.30330992802E+01  0.30331034676E+01  0.50400000000E-02 0.  1.
          2   -1    0    0  501    0  0.00000000000E+00 -0.00000000000E+00 -0.54968454532E+03  0.54968454532E+03  0.25500000000E-02 0. -1.
         24    2    1    2    0    0  0.00000000000E+00  0.00000000000E+00 -0.54665144604E+03  0.55271764879E+03  0.81663920004E+02 0.  0.
         66    2    3    3    0    0  0.10747489230E+02  0.30241842744E+02 -0.44406478717E+03  0.44522759661E+03  0.19999993127E+01 0.  0.
        -13    1    3    3    0    0 -0.10747489230E+02 -0.30241842744E+02 -0.10258665886E+03  0.10749005218E+03  0.10566000000E+00 0.  1.
         13    1    4    4    0    0  0.64509837276E+01  0.15735957991E+02 -0.23241373707E+03  0.23303517312E+03  0.10566000000E+00 0. -1.
        -13    1    4    4    0    0  0.34974930998E+00  0.13882036979E+01 -0.22891878333E+02  0.22936841363E+02  0.10566000000E+00 0.  1.
         14    1    4    4    0    0  0.39467561921E+01  0.13117681055E+02 -0.18875917177E+03  0.18925558213E+03  0.00000000000E+00 0. -1.
<mgrwt>
<rscale>  0 0.81663920E+02</rscale>
<asrwt>0</asrwt>
<pdfrwt beam="1">  1        2 0.84566774E-01 0.81663920E+02</pdfrwt>
<pdfrwt beam="2">  1       -1 0.46663142E-03 0.81663920E+02</pdfrwt>
<totfact> 0.29719373E+05</totfact>
</mgrwt>
</event>
<event>
 8    1  0.7667702E-014  0.7801915E+02  0.7818608E-02  0.1334769E+00
         -1   -1    0    0    0  501 -0.00000000000E+00  0.00000000000E+00  0.10437381240E+01  0.10437502925E+01  0.50400000000E-02 0.  1.
          2   -1    0    0  501    0  0.00000000000E+00 -0.00000000000E+00 -0.14579693896E+04  0.14579693896E+04  0.25500000000E-02 0. -1.
         24    2    1    2    0    0 -0.35527136788E-14  0.00000000000E+00 -0.14569256515E+04  0.14590131399E+04  0.78019154422E+02 0.  0.
         66    2    3    3    0    0  0.19916674759E+02  0.27939944492E+01 -0.13534602428E+04  0.13536111366E+04  0.19999988711E+01 0.  0.
        -13    1    3    3    0    0 -0.19916674759E+02 -0.27939944492E+01 -0.10346540868E+03  0.10540200329E+03  0.10566000000E+00 0.  1.
         13    1    4    4    0    0  0.42885116292E+01  0.10145002659E+01 -0.32463494378E+03  0.32466487095E+03  0.10566000000E+00 0. -1.
        -13    1    4    4    0    0  0.46834353533E+01  0.10879301707E+01 -0.31999173980E+03  0.32002787826E+03  0.10566000000E+00 0.  1.
         14    1    4    4    0    0  0.10944727776E+02  0.69156401261E+00 -0.70883355920E+03  0.70891838739E+03  0.00000000000E+00 0. -1.
<mgrwt>
<rscale>  0 0.78019154E+02</rscale>
<asrwt>0</asrwt>
<pdfrwt beam="1">  1        2 0.22430135E+00 0.78019154E+02</pdfrwt>
<pdfrwt beam="2">  1       -1 0.16057720E-03 0.78019154E+02</pdfrwt>
<totfact> 0.35848413E+05</totfact>
</mgrwt>
</event>
<event>
 8    1  0.7667702E-014  0.8030992E+02  0.7818608E-02  0.1328174E+00
          2   -1    0    0  501    0  0.00000000000E+00  0.00000000000E+00  0.20862679362E+03  0.20862679364E+03  0.25500000000E-02 0. -1.
         -1   -1    0    0    0  501 -0.00000000000E+00 -0.00000000000E+00 -0.77287324137E+01  0.77287340571E+01  0.50400000000E-02 0.  1.
         24    2    1    2    0    0  0.00000000000E+00 -0.71054273576E-14  0.20089806121E+03  0.21635552769E+03  0.80309920724E+02 0.  0.
         66    2    3    3    0    0  0.26088775329E+02 -0.30338500039E+02  0.10875634889E+03  0.11590078617E+03  0.20000067414E+01 0.  0.
        -13    1    3    3    0    0 -0.26088775329E+02  0.30338500039E+02  0.92141712314E+02  0.10045474153E+03  0.10566000000E+00 0.  1.
         13    1    4    4    0    0  0.27574306648E+01 -0.39928669323E+01  0.13889608179E+02  0.14713218194E+02  0.10566000000E+00 0. -1.
        -13    1    4    4    0    0  0.24170203874E+01 -0.24618500398E+01  0.97899455620E+01  0.10380601684E+02  0.10566000000E+00 0.  1.
         14    1    4    4    0    0  0.20914324277E+02 -0.23883783067E+02  0.85076795152E+02  0.90806966290E+02  0.00000000000E+00 0. -1.
<mgrwt>
<rscale>  0 0.80309921E+02</rscale>
<asrwt>0</asrwt>
<pdfrwt beam="1">  1        2 0.32096436E-01 0.80309921E+02</pdfrwt>
<pdfrwt beam="2">  1       -1 0.11890357E-02 0.80309921E+02</pdfrwt>
<totfact> 0.22158601E+05</totfact>
</mgrwt>
</event>
<event>
 8    1  0.7667702E-014  0.7883377E+02  0.7818608E-02  0.1332394E+00
          2   -1    0    0  501    0  0.00000000000E+00  0.00000000000E+00  0.56838557193E+01  0.56838562913E+01  0.25500000000E-02 0. -1.
         -1   -1    0    0    0  501 -0.00000000000E+00 -0.00000000000E+00 -0.27335157675E+03  0.27335157680E+03  0.50400000000E-02 0.  1.
         24    2    1    2    0    0  0.00000000000E+00  0.00000000000E+00 -0.26766772104E+03  0.27903543309E+03  0.78833774721E+02 0.  0.
         66    2    3    3    0    0 -0.12072266797E+02 -0.33510940496E+02 -0.74379312876E+02  0.82492453947E+02  0.20000039328E+01 0.  0.
        -13    1    3    3    0    0  0.12072266797E+02  0.33510940496E+02 -0.19328840816E+03  0.19654297915E+03  0.10566000000E+00 0.  1.
         13    1    4    4    0    0 -0.43098670876E+01 -0.12417938552E+02 -0.28166566207E+02  0.31082901540E+02  0.10566000000E+00 0. -1.
        -13    1    4    4    0    0 -0.58608184303E+01 -0.14445586220E+02 -0.33003017400E+02  0.36499787334E+02  0.10566000000E+00 0.  1.
        -14    1    4    4    0    0 -0.19015812794E+01 -0.66474157244E+01 -0.13209729269E+02  0.14909765073E+02  0.00000000000E+00 0.  1.
<mgrwt>
<rscale>  0 0.78833775E+02</rscale>
<asrwt>0</asrwt>
<pdfrwt beam="1">  1        2 0.87443960E-03 0.78833775E+02</pdfrwt>
<pdfrwt beam="2">  1       -1 0.42054079E-01 0.78833775E+02</pdfrwt>
<totfact> 0.93069722E+04</totfact>
</mgrwt>
</event>
<event>
 8    1  0.7667702E-014  0.8160067E+02  0.7818608E-02  0.1324569E+00
          2   -1    0    0  501    0  0.00000000000E+00  0.00000000000E+00  0.16706316234E+02  0.16706316429E+02  0.25500000000E-02 0. -1.
         -1   -1    0    0    0  501 -0.00000000000E+00 -0.00000000000E+00 -0.99642979562E+02  0.99642979689E+02  0.50400000000E-02 0.  1.
         24    2    1    2    0    0  0.00000000000E+00  0.00000000000E+00 -0.82936663328E+02  0.11634929612E+03  0.81600665336E+02 0.  0.
         66    2    3    3    0    0 -0.16169610526E+02  0.28998119920E+02 -0.77422118633E+01  0.34150975220E+02  0.20000001172E+01 0.  0.
        -13    1    3    3    0    0  0.16169610526E+02 -0.28998119920E+02 -0.75194451464E+02  0.82198320898E+02  0.10566000000E+00 0.  1.
         13    1    4    4    0    0 -0.64405268497E+01  0.11977492598E+02 -0.32372487467E+01  0.13979687354E+02  0.10566000000E+00 0. -1.
        -13    1    4    4    0    0 -0.32902687054E+01  0.65191484129E+01 -0.10545422077E+01  0.73789150616E+01  0.10566000000E+00 0.  1.
        -14    1    4    4    0    0 -0.64388149708E+01  0.10501478909E+02 -0.34504209089E+01  0.12792372804E+02  0.00000000000E+00 0.  1.
<mgrwt>
<rscale>  0 0.81600665E+02</rscale>
<asrwt>0</asrwt>
<pdfrwt beam="1">  1        2 0.25702026E-02 0.81600665E+02</pdfrwt>
<pdfrwt beam="2">  1       -1 0.15329689E-01 0.81600665E+02</pdfrwt>
<totfact> 0.11290684E+05</totfact>
</mgrwt>
</event>
<event>
 8    1  0.7667702E-014  0.6974581E+02  0.7818608E-02  0.1360960E+00
         -1   -1    0    0    0  501 -0.00000000000E+00  0.00000000000E+00  0.52836062576E+01  0.52836086614E+01  0.50400000000E-02 0.  1.
          2   -1    0    0  501    0  0.00000000000E+00 -0.00000000000E+00 -0.23016842977E+03  0.23016842978E+03  0.25500000000E-02 0. -1.
         24    2    1    2    0    0  0.00000000000E+00  0.00000000000E+00 -0.22488482351E+03  0.23545203844E+03  0.69745813938E+02 0.  0.
         66    2    3    3    0    0 -0.16066238166E+02 -0.27849936133E+02 -0.15787328347E+03  0.16112639943E+03  0.20000024605E+01 0.  0.
        -13    1    3    3    0    0  0.16066238166E+02  0.27849936133E+02 -0.67011540044E+02  0.74325639012E+02  0.10566000000E+00 0.  1.
         13    1    4    4    0    0 -0.52766663642E+01 -0.10415666700E+02 -0.58464955715E+02  0.59619556619E+02  0.10566000000E+00 0. -1.
        -13    1    4    4    0    0 -0.54553389029E+01 -0.77731888524E+01 -0.45616389809E+02  0.46594520823E+02  0.10566000000E+00 0.  1.
         14    1    4    4    0    0 -0.53342328991E+01 -0.96610805806E+01 -0.53791937943E+02  0.54912321990E+02  0.00000000000E+00 0. -1.
<mgrwt>
<rscale>  0 0.69745814E+02</rscale>
<asrwt>0</asrwt>
<pdfrwt beam="1">  1        2 0.35410520E-01 0.69745814E+02</pdfrwt>
<pdfrwt beam="2">  1       -1 0.81286287E-03 0.69745814E+02</pdfrwt>
<totfact> 0.33158903E+05</totfact>
</mgrwt>
</event>
<event>
 8    1  0.7667702E-014  0.7990290E+02  0.7818608E-02  0.1329327E+00
          2   -1    0    0  501    0  0.00000000000E+00  0.00000000000E+00  0.97034740818E+01  0.97034744168E+01  0.25500000000E-02 0. -1.
         -1   -1    0    0    0  501 -0.00000000000E+00 -0.00000000000E+00 -0.16448937274E+03  0.16448937282E+03  0.50400000000E-02 0.  1.
         24    2    1    2    0    0  0.17763568394E-14  0.71054273576E-14 -0.15478589866E+03  0.17419284724E+03  0.79902901100E+02 0.  0.
         66    2    3    3    0    0 -0.11244995787E+02 -0.36317358202E+02 -0.10402664387E+03  0.11077428884E+03  0.19999995355E+01 0.  0.
        -13    1    3    3    0    0  0.11244995787E+02  0.36317358202E+02 -0.50759254795E+02  0.63418558392E+02  0.10566000000E+00 0.  1.
         13    1    4    4    0    0 -0.69296970255E+00 -0.18441608972E+01 -0.55335802789E+01  0.58747605195E+01  0.10566000000E+00 0. -1.
        -13    1    4    4    0    0 -0.68791790944E+01 -0.22888866514E+02 -0.62797098309E+02  0.67191591999E+02  0.10566000000E+00 0.  1.
        -14    1    4    4    0    0 -0.36728469905E+01 -0.11584330792E+02 -0.35695965278E+02  0.37707936327E+02  0.00000000000E+00 0.  1.
<mgrwt>
<rscale>  0 0.79902901E+02</rscale>
<asrwt>0</asrwt>
<pdfrwt beam="1">  1        2 0.14928423E-02 0.79902901E+02</pdfrwt>
<pdfrwt beam="2">  1       -1 0.25306055E-01 0.79902901E+02</pdfrwt>
<totfact> 0.10562868E+05</totfact>
</mgrwt>
</event>
<event>
 8    1  0.7667702E-014  0.8042653E+02  0.7818608E-02  0.1327845E+00
          2   -1    0    0  501    0  0.00000000000E+00  0.00000000000E+00  0.32644921086E+03  0.32644921087E+03  0.25500000000E-02 0. -1.
         -1   -1    0    0    0  501 -0.00000000000E+00 -0.00000000000E+00 -0.49536223014E+01  0.49536248653E+01  0.50400000000E-02 0.  1.
         24    2    1    2    0    0  0.00000000000E+00 -0.35527136788E-14  0.32149558856E+03  0.33140283574E+03  0.80426525915E+02 0.  0.
         66    2    3    3    0    0 -0.21686134537E+02  0.28672412787E+02  0.23486884069E+03  0.23761264277E+03  0.19999976816E+01 0.  0.
        -13    1    3    3    0    0  0.21686134537E+02 -0.28672412787E+02  0.86626747870E+02  0.93790192967E+02  0.10566000000E+00 0.  1.
         13    1    4    4    0    0 -0.39844942807E+00  0.64041120971E+00  0.43349475483E+01  0.44013432889E+01  0.10566000000E+00 0. -1.
        -13    1    4    4    0    0 -0.26218081510E+01  0.28138270710E+01  0.27360824078E+02  0.27630008307E+02  0.10566000000E+00 0.  1.
         14    1    4    4    0    0 -0.18665876958E+02  0.25218174507E+02  0.20317306906E+03  0.20558129118E+03  0.00000000000E+00 0. -1.
<mgrwt>
<rscale>  0 0.80426526E+02</rscale>
<asrwt>0</asrwt>
<pdfrwt beam="1">  1        2 0.50222943E-01 0.80426526E+02</pdfrwt>
<pdfrwt beam="2">  1       -1 0.76209613E-03 0.80426526E+02</pdfrwt>
<totfact> 0.25921004E+05</totfact>
</mgrwt>
</event>
<event>
 8    1  0.7667702E-014  0.8071262E+02  0.7818608E-02  0.1327041E+00
          2   -1    0    0  501    0  0.00000000000E+00  0.00000000000E+00  0.83052086311E+02  0.83052086350E+02  0.25500000000E-02 0. -1.
         -1   -1    0    0    0  501 -0.00000000000E+00 -0.00000000000E+00 -0.19609763113E+02  0.19609763760E+02  0.50400000000E-02 0.  1.
         24    2    1    2    0    0 -0.71054273576E-14  0.00000000000E+00  0.63442323198E+02  0.10266185011E+03  0.80712620422E+02 0.  0.
         66    2    3    3    0    0 -0.32071511557E+02  0.10998738089E+02  0.59522355229E+02  0.68530758625E+02  0.20000031457E+01 0.  0.
        -13    1    3    3    0    0  0.32071511557E+02 -0.10998738089E+02  0.39199679695E+01  0.34131091486E+02  0.10566000000E+00 0.  1.
         13    1    4    4    0    0 -0.95023580233E+01  0.34027641793E+01  0.17742048854E+02  0.20412375502E+02  0.10566000000E+00 0. -1.
        -13    1    4    4    0    0 -0.57712102575E+01  0.24930215128E+01  0.10036975607E+02  0.11843735368E+02  0.10566000000E+00 0.  1.
        -14    1    4    4    0    0 -0.16797943277E+02  0.51029523965E+01  0.31743330767E+02  0.36274647754E+02  0.00000000000E+00 0.  1.
<mgrwt>
<rscale>  0 0.80712620E+02</rscale>
<asrwt>0</asrwt>
<pdfrwt beam="1">  1        2 0.12777244E-01 0.80712620E+02</pdfrwt>
<pdfrwt beam="2">  1       -1 0.30168867E-02 0.80712620E+02</pdfrwt>
<totfact> 0.16460120E+05</totfact>
</mgrwt>
</event>
<event>
 8    1  0.7667702E-014  0.7856434E+02  0.7818608E-02  0.1333176E+00
         -1   -1    0    0    0  501 -0.00000000000E+00  0.00000000000E+00  0.26458343836E+01  0.26458391839E+01  0.50400000000E-02 0.  1.
          2   -1    0    0  501    0  0.00000000000E+00 -0.00000000000E+00 -0.58321394646E+03  0.58321394646E+03  0.25500000000E-02 0. -1.
         24    2    1    2    0    0  0.35527136788E-14 -0.44408920985E-15 -0.58056811207E+03  0.58585978565E+03  0.78564341029E+02 0.  0.
         66    2    3    3    0    0 -0.20685838574E+02  0.38024858139E+01 -0.53765087237E+03  0.53806581695E+03  0.19999988611E+01 0.  0.
        -13    1    3    3    0    0  0.20685838574E+02 -0.38024858139E+01 -0.42917239708E+02  0.47793968700E+02  0.10566000000E+00 0.  1.
         13    1    4    4    0    0 -0.40456688878E+01  0.37549930765E+00 -0.10780974809E+03  0.10788633548E+03  0.10566000000E+00 0. -1.
        -13    1    4    4    0    0 -0.96371518606E+00  0.37927899030E+00 -0.19590740323E+02  0.19618380921E+02  0.10566000000E+00 0.  1.
         14    1    4    4    0    0 -0.15676454500E+02  0.30477075159E+01 -0.41025038396E+03  0.41056110055E+03  0.00000000000E+00 0. -1.
<mgrwt>
<rscale>  0 0.78564341E+02</rscale>
<asrwt>0</asrwt>
<pdfrwt beam="1">  1        2 0.89725121E-01 0.78564341E+02</pdfrwt>
<pdfrwt beam="2">  1       -1 0.40705228E-03 0.78564341E+02</pdfrwt>
<totfact> 0.33445464E+05</totfact>
</mgrwt>
</event>
<event>
 8    1  0.7667702E-014  0.7994158E+02  0.7818608E-02  0.1329217E+00
          2   -1    0    0  501    0  0.00000000000E+00  0.00000000000E+00  0.69565720721E+03  0.69565720722E+03  0.25500000000E-02 0. -1.
         -1   -1    0    0    0  501 -0.00000000000E+00 -0.00000000000E+00 -0.22966225924E+01  0.22966281226E+01  0.50400000000E-02 0.  1.
         24    2    1    2    0    0 -0.17763568394E-14  0.00000000000E+00  0.69336058462E+03  0.69795383534E+03  0.79941578423E+02 0.  0.
         66    2    3    3    0    0 -0.98428896666E+01 -0.78192163129E+01  0.67793518268E+03  0.67805466928E+03  0.19999995830E+01 0.  0.
        -13    1    3    3    0    0  0.98428896666E+01  0.78192163129E+01  0.15425401937E+02  0.19899166055E+02  0.10566000000E+00 0.  1.
         13    1    4    4    0    0 -0.50676207084E+01 -0.36351484770E+01  0.37409943364E+03  0.37415142990E+03  0.10566000000E+00 0. -1.
        -13    1    4    4    0    0 -0.52333201209E+00 -0.43510232128E+00  0.23100833637E+02  0.23111098398E+02  0.10566000000E+00 0. -1.
        -14    1    4    4    0    0 -0.42519369461E+01 -0.37489655146E+01  0.28073491541E+03  0.28079214098E+03  0.00000000000E+00 0.  1.
<mgrwt>
<rscale>  0 0.79941578E+02</rscale>
<asrwt>0</asrwt>
<pdfrwt beam="1">  1        2 0.10702435E+00 0.79941578E+02</pdfrwt>
<pdfrwt beam="2">  1       -1 0.35332643E-03 0.79941578E+02</pdfrwt>
<totfact> 0.33467370E+05</totfact>
</mgrwt>
</event>
<event>
 8    1  0.7667702E-014  0.7924507E+02  0.7818608E-02  0.1331208E+00
          2   -1    0    0  501    0  0.00000000000E+00  0.00000000000E+00  0.45847250195E+03  0.45847250195E+03  0.25500000000E-02 0. -1.
         -1   -1    0    0    0  501 -0.00000000000E+00 -0.00000000000E+00 -0.34242931006E+01  0.34242968096E+01  0.50400000000E-02 0.  1.
         24    2    1    2    0    0 -0.55511151231E-16  0.71054273576E-14  0.45504820885E+03  0.46189679876E+03  0.79245065044E+02 0.  0.
         66    2    3    3    0    0  0.46811167851E+00  0.36364407763E+02  0.31896772708E+03  0.32104049624E+03  0.20000057892E+01 0.  0.
        -13    1    3    3    0    0 -0.46811167851E+00 -0.36364407763E+02  0.13608048176E+03  0.14085630253E+03  0.10566000000E+00 0.  1.
         13    1    4    4    0    0  0.53102539887E+00  0.91284994393E+01  0.78403105914E+02  0.78934591093E+02  0.10566000000E+00 0. -1.
        -13    1    4    4    0    0  0.49645070734E+00  0.60778410161E+01  0.56687335341E+02  0.57014487341E+02  0.10566000000E+00 0.  1.
        -14    1    4    4    0    0 -0.55936442770E+00  0.21158067308E+02  0.18387728583E+03  0.18509141780E+03  0.00000000000E+00 0.  1.
<mgrwt>
<rscale>  0 0.79245065E+02</rscale>
<asrwt>0</asrwt>
<pdfrwt beam="1">  1        2 0.70534259E-01 0.79245065E+02</pdfrwt>
<pdfrwt beam="2">  1       -1 0.52681440E-03 0.79245065E+02</pdfrwt>
<totfact> 0.30343416E+05</totfact>
</mgrwt>
</event>
<event>
 8    1  0.7667702E-014  0.8164273E+02  0.7818608E-02  0.1324453E+00
          2   -1    0    0  501    0  0.00000000000E+00  0.00000000000E+00  0.19997185445E+02  0.19997185608E+02  0.25500000000E-02 0. -1.
         -1   -1    0    0    0  501 -0.00000000000E+00 -0.00000000000E+00 -0.83330914510E+02  0.83330914662E+02  0.50400000000E-02 0.  1.
         24    2    1    2    0    0  0.00000000000E+00 -0.17763568394E-14 -0.63333729065E+02  0.10332810027E+03  0.81642728201E+02 0.  0.
         66    2    3    3    0    0 -0.19232763336E+02 -0.10529170977E+02  0.11855984925E+02  0.25006539503E+02  0.20000030936E+01 0.  0.
        -13    1    3    3    0    0  0.19232763336E+02  0.10529170977E+02 -0.75189713990E+02  0.78321560766E+02  0.10566000000E+00 0.  1.
         13    1    4    4    0    0 -0.17044525247E+02 -0.86926902506E+01  0.10702071461E+02  0.21923143075E+02  0.10566000000E+00 0. -1.
        -13    1    4    4    0    0 -0.17461576905E+01 -0.14575755435E+01  0.92886127270E+00  0.24591747487E+01  0.10566000000E+00 0.  1.
         14    1    4    4    0    0 -0.44208039861E+00 -0.37890518306E+00  0.22505219151E+00  0.62422167977E+00  0.00000000000E+00 0. -1.
<mgrwt>
<rscale>  0 0.81642728E+02</rscale>
<asrwt>0</asrwt>
<pdfrwt beam="1">  1        2 0.30764901E-02 0.81642728E+02</pdfrwt>
<pdfrwt beam="2">  1       -1 0.12820141E-01 0.81642728E+02</pdfrwt>
<totfact> 0.11709868E+05</totfact>
</mgrwt>
</event>
<event>
 8    1  0.7667702E-014  0.7986083E+02  0.7818608E-02  0.1329447E+00
         -1   -1    0    0    0  501 -0.00000000000E+00  0.00000000000E+00  0.21161338120E+02  0.21161338720E+02  0.50400000000E-02 0.  1.
          2   -1    0    0  501    0  0.00000000000E+00 -0.00000000000E+00 -0.75346749715E+02  0.75346749758E+02  0.25500000000E-02 0. -1.
         24    2    1    2    0    0  0.71054273576E-14 -0.22204460493E-15 -0.54185411594E+02  0.96508088478E+02  0.79860830900E+02 0.  0.
         66    2    3    3    0    0  0.39396318182E+02 -0.15520695193E+01 -0.34554577190E+02  0.52464250889E+02  0.20000026157E+01 0.  0.
        -13    1    3    3    0    0 -0.39396318182E+02  0.15520695193E+01 -0.19630834404E+02  0.44043837589E+02  0.10566000000E+00 0.  1.
         13    1    4    4    0    0  0.22014430229E+02 -0.17653413475E+00 -0.19404839326E+02  0.29346639602E+02  0.10566000000E+00 0. -1.
        -13    1    4    4    0    0  0.52879248112E+01 -0.34454822474E+00 -0.51659068975E+01  0.74012580280E+01  0.10566000000E+00 0.  1.
        -14    1    4    4    0    0  0.12093963143E+02 -0.10309871598E+01 -0.99838309663E+01  0.15716353260E+02  0.00000000000E+00 0.  1.
<mgrwt>
<rscale>  0 0.79860831E+02</rscale>
<asrwt>0</asrwt>
<pdfrwt beam="1">  1        2 0.11591808E-01 0.79860831E+02</pdfrwt>
<pdfrwt beam="2">  1       -1 0.32555906E-02 0.79860831E+02</pdfrwt>
<totfact> 0.16520984E+05</totfact>
</mgrwt>
</event>
<event>
 8    1  0.7667702E-014  0.7969318E+02  0.7818608E-02  0.1329924E+00
         -1   -1    0    0    0  501 -0.00000000000E+00  0.00000000000E+00  0.17366868791E+02  0.17366869523E+02  0.50400000000E-02 0.  1.
          2   -1    0    0  501    0  0.00000000000E+00 -0.00000000000E+00 -0.91424111843E+02  0.91424111879E+02  0.25500000000E-02 0. -1.
         24    2    1    2    0    0  0.88817841970E-15  0.00000000000E+00 -0.74057243052E+02  0.10879098140E+03  0.79693176532E+02 0.  0.
         66    2    3    3    0    0  0.34625476998E+01  0.23926660599E+02  0.61445311436E+01  0.25024579592E+02  0.19999991873E+01 0.  0.
        -13    1    3    3    0    0 -0.34625476998E+01 -0.23926660599E+02 -0.80201774195E+02  0.83766401810E+02  0.10566000000E+00 0.  1.
         13    1    4    4    0    0  0.18054590846E+01  0.12622253860E+02  0.33764894345E+01  0.13190633796E+02  0.10566000000E+00 0. -1.
        -13    1    4    4    0    0  0.11604616455E+00  0.21289758646E+00 -0.85619204218E-01  0.27800499700E+00  0.10566000000E+00 0.  1.
        -14    1    4    4    0    0  0.15410424506E+01  0.11091509153E+02  0.28536609133E+01  0.11555940799E+02  0.00000000000E+00 0.  1.
<mgrwt>
<rscale>  0 0.79693177E+02</rscale>
<asrwt>0</asrwt>
<pdfrwt beam="1">  1        2 0.14065248E-01 0.79693177E+02</pdfrwt>
<pdfrwt beam="2">  1       -1 0.26718261E-02 0.79693177E+02</pdfrwt>
<totfact> 0.17473123E+05</totfact>
</mgrwt>
</event>
<event>
 8    1  0.7667702E-014  0.7991220E+02  0.7818608E-02  0.1329301E+00
         -1   -1    0    0    0  501 -0.00000000000E+00  0.00000000000E+00  0.11024382082E+03  0.11024382093E+03  0.50400000000E-02 0.  1.
          2   -1    0    0  501    0  0.00000000000E+00 -0.00000000000E+00 -0.14481446197E+02  0.14481446422E+02  0.25500000000E-02 0. -1.
         24    2    1    2    0    0  0.00000000000E+00  0.00000000000E+00  0.95762374621E+02  0.12472526736E+03  0.79912201345E+02 0.  0.
         66    2    3    3    0    0 -0.25128063709E+02  0.71282551492E+01  0.77006088127E+00  0.26207337815E+02  0.19999885902E+01 0.  0.
        -13    1    3    3    0    0  0.25128063709E+02 -0.71282551492E+01  0.94992313740E+02  0.98517929540E+02  0.10566000000E+00 0.  1.
         13    1    4    4    0    0 -0.15071284709E+02  0.47459671703E+01  0.45394404661E+00  0.15807753047E+02  0.10566000000E+00 0. -1.
        -13    1    4    4    0    0 -0.56744390890E+01  0.10465598642E+01 -0.28938812930E+00  0.57783610176E+01  0.10566000000E+00 0.  1.
        -14    1    4    4    0    0 -0.43823399107E+01  0.13357281147E+01  0.60550496395E+00  0.46212237503E+01  0.00000000000E+00 0.  1.
<mgrwt>
<rscale>  0 0.79912201E+02</rscale>
<asrwt>0</asrwt>
<pdfrwt beam="1">  1        2 0.22279149E-02 0.79912201E+02</pdfrwt>
<pdfrwt beam="2">  1       -1 0.16960588E-01 0.79912201E+02</pdfrwt>
<totfact> 0.11635840E+05</totfact>
</mgrwt>
</event>
<event>
 8    1  0.7667702E-014  0.8004865E+02  0.7818608E-02  0.1328913E+00
          2   -1    0    0  501    0  0.00000000000E+00  0.00000000000E+00  0.16964637348E+04  0.16964637348E+04  0.25500000000E-02 0. -1.
         -1   -1    0    0    0  501 -0.00000000000E+00 -0.00000000000E+00 -0.94427915721E+00  0.94429260738E+00  0.50400000000E-02 0.  1.
         24    2    1    2    0    0 -0.17763568394E-14  0.00000000000E+00  0.16955194556E+04  0.16974080274E+04  0.80048654269E+02 0.  0.
         66    2    3    3    0    0  0.13458584654E+02 -0.23714362996E+01  0.16454220618E+04  0.16454800269E+04  0.19999992630E+01 0.  0.
        -13    1    3    3    0    0 -0.13458584654E+02  0.23714362996E+01  0.50097393784E+02  0.51928000529E+02  0.10566000000E+00 0.  1.
         13    1    4    4    0    0  0.34781186960E+01 -0.77046583435E+00  0.37721338658E+03  0.37723022295E+03  0.10566000000E+00 0.  1.
        -13    1    4    4    0    0  0.57723173766E+01 -0.13420409269E+01  0.81290213182E+03  0.81292374046E+03  0.10566000000E+00 0. -1.
        -14    1    4    4    0    0  0.42081485819E+01 -0.25892953843E+00  0.45530654344E+03  0.45532606345E+03  0.00000000000E+00 0.  1.
<mgrwt>
<rscale>  0 0.80048654E+02</rscale>
<asrwt>0</asrwt>
<pdfrwt beam="1">  1        2 0.26099655E+00 0.80048654E+02</pdfrwt>
<pdfrwt beam="2">  1       -1 0.14527356E-03 0.80048654E+02</pdfrwt>
<totfact> 0.31322683E+05</totfact>
</mgrwt>
</event>
<event>
 8    1  0.7667702E-014  0.7974791E+02  0.7818608E-02  0.1329768E+00
          2   -1    0    0  501    0  0.00000000000E+00  0.00000000000E+00  0.61534158167E+03  0.61534158168E+03  0.25500000000E-02 0. -1.
         -1   -1    0    0    0  501 -0.00000000000E+00 -0.00000000000E+00 -0.25838179637E+01  0.25838228792E+01  0.50400000000E-02 0.  1.
         24    2    1    2    0    0  0.35527136788E-14  0.00000000000E+00  0.61275776371E+03  0.61792540456E+03  0.79747906628E+02 0.  0.
         66    2    3    3    0    0 -0.25519638459E+02 -0.19917928938E+02  0.48662143757E+03  0.48770113732E+03  0.20000013452E+01 0.  0.
        -13    1    3    3    0    0  0.25519638459E+02  0.19917928938E+02  0.12613632614E+03  0.13022426724E+03  0.10566000000E+00 0.  1.
         13    1    4    4    0    0 -0.34408562857E+01 -0.31514253513E+01  0.72210394927E+02  0.72361061858E+02  0.10566000000E+00 0. -1.
        -13    1    4    4    0    0 -0.16729883826E+02 -0.13382820169E+02  0.31493392741E+03  0.31566181063E+03  0.10566000000E+00 0.  1.
        -14    1    4    4    0    0 -0.53488983479E+01 -0.33836834177E+01  0.99477115228E+02  0.99678264838E+02  0.00000000000E+00 0.  1.
<mgrwt>
<rscale>  0 0.79747907E+02</rscale>
<asrwt>0</asrwt>
<pdfrwt beam="1">  1        2 0.94667933E-01 0.79747907E+02</pdfrwt>
<pdfrwt beam="2">  1       -1 0.39751085E-03 0.79747907E+02</pdfrwt>
<totfact> 0.32654411E+05</totfact>
</mgrwt>
</event>
<event>
 8    1  0.7667702E-014  0.7990109E+02  0.7818608E-02  0.1329332E+00
         -1   -1    0    0    0  501 -0.00000000000E+00  0.00000000000E+00  0.37554525686E+01  0.37554559506E+01  0.50400000000E-02 0.  1.
          2   -1    0    0  501    0  0.00000000000E+00 -0.00000000000E+00 -0.42499413622E+03  0.42499413623E+03  0.25500000000E-02 0. -1.
         24    2    1    2    0    0 -0.35527136788E-14  0.00000000000E+00 -0.42123868365E+03  0.42874959218E+03  0.79901090034E+02 0.  0.
         66    2    3    3    0    0  0.26762153782E+02  0.24863955613E+02 -0.29721055907E+03  0.29945374532E+03  0.19999998101E+01 0.  0.
        -13    1    3    3    0    0 -0.26762153782E+02 -0.24863955613E+02 -0.12402812458E+03  0.12929584686E+03  0.10566000000E+00 0.  1.
         13    1    4    4    0    0  0.10473726534E+02  0.90922634051E+01 -0.11129938681E+03  0.11216029988E+03  0.10566000000E+00 0. -1.
        -13    1    4    4    0    0  0.53861118690E+01  0.49597740680E+01 -0.55222747641E+02  0.55706126960E+02  0.10566000000E+00 0.  1.
        -14    1    4    4    0    0  0.10902315379E+02  0.10811918140E+02 -0.13068842462E+03  0.13158731848E+03  0.00000000000E+00 0.  1.
<mgrwt>
<rscale>  0 0.79901090E+02</rscale>
<asrwt>0</asrwt>
<pdfrwt beam="1">  1        2 0.65383675E-01 0.79901090E+02</pdfrwt>
<pdfrwt beam="2">  1       -1 0.57776253E-03 0.79901090E+02</pdfrwt>
<totfact> 0.28946409E+05</totfact>
</mgrwt>
</event>
<event>
 8    1  0.7667702E-014  0.8019676E+02  0.7818608E-02  0.1328494E+00
         -1   -1    0    0    0  501 -0.00000000000E+00  0.00000000000E+00  0.25414893053E+01  0.25414943027E+01  0.50400000000E-02 0.  1.
          2   -1    0    0  501    0  0.00000000000E+00 -0.00000000000E+00 -0.63265203537E+03  0.63265203537E+03  0.25500000000E-02 0. -1.
         24    2    1    2    0    0  0.00000000000E+00  0.00000000000E+00 -0.63011054606E+03  0.63519352967E+03  0.80196757307E+02 0.  0.
         66    2    3    3    0    0  0.12041808036E+02 -0.89309248334E+01 -0.60960006603E+03  0.60978767377E+03  0.20000039477E+01 0.  0.
        -13    1    3    3    0    0 -0.12041808036E+02  0.89309248334E+01 -0.20510480025E+02  0.25405855900E+02  0.10566000000E+00 0.  1.
         13    1    4    4    0    0  0.13662319768E+01 -0.16986532619E+01 -0.88863733590E+02  0.88890530003E+02  0.10566000000E+00 0. -1.
        -13    1    4    4    0    0  0.10373713911E+02 -0.68073109580E+01 -0.50386699685E+03  0.50401975666E+03  0.10566000000E+00 0.  1.
        -14    1    4    4    0    0  0.30186214763E+00 -0.42496061355E+00 -0.16869335593E+02  0.16877387109E+02  0.00000000000E+00 0.  1.
<mgrwt>
<rscale>  0 0.80196757E+02</rscale>
<asrwt>0</asrwt>
<pdfrwt beam="1">  1        2 0.97330957E-01 0.80196757E+02</pdfrwt>
<pdfrwt beam="2">  1       -1 0.39099924E-03 0.80196757E+02</pdfrwt>
<totfact> 0.32420391E+05</totfact>
</mgrwt>
</event>
<event>
 8    1  0.7667702E-014  0.7930441E+02  0.7818608E-02  0.1331037E+00
         -1   -1    0    0    0  501 -0.00000000000E+00  0.00000000000E+00  0.70643785010E+01  0.70643802988E+01  0.50400000000E-02 0.  1.
          2   -1    0    0  501    0  0.00000000000E+00 -0.00000000000E+00 -0.22256694629E+03  0.22256694631E+03  0.25500000000E-02 0. -1.
         24    2    1    2    0    0  0.00000000000E+00  0.00000000000E+00 -0.21550256779E+03  0.22963132661E+03  0.79304409929E+02 0.  0.
         66    2    3    3    0    0  0.16793564569E+02 -0.21147711753E+02 -0.19179324176E+03  0.19369537207E+03  0.20000135336E+01 0.  0.
        -13    1    3    3    0    0 -0.16793564569E+02  0.21147711753E+02 -0.23709326032E+02  0.35935954534E+02  0.10566000000E+00 0.  1.
         13    1    4    4    0    0  0.13212323558E+01 -0.25906771721E+01 -0.20740740049E+02  0.20943894694E+02  0.10566000000E+00 0. -1.
        -13    1    4    4    0    0  0.13204915564E+01 -0.15106283148E+01 -0.15117706470E+02  0.15250636341E+02  0.10566000000E+00 0.  1.
         14    1    4    4    0    0  0.14151840657E+02 -0.17046406267E+02 -0.15593479524E+03  0.15750084104E+03  0.00000000000E+00 0. -1.
<mgrwt>
<rscale>  0 0.79304410E+02</rscale>
<asrwt>0</asrwt>
<pdfrwt beam="1">  1        2 0.34241063E-01 0.79304410E+02</pdfrwt>
<pdfrwt beam="2">  1       -1 0.10868278E-02 0.79304410E+02</pdfrwt>
<totfact> 0.23433467E+05</totfact>
</mgrwt>
</event>
<event>
 8    1  0.7667702E-014  0.7543783E+02  0.7818608E-02  0.1342521E+00
         -1   -1    0    0    0  501 -0.00000000000E+00  0.00000000000E+00  0.18324929644E+03  0.18324929651E+03  0.50400000000E-02 0.  1.
          2   -1    0    0  501    0  0.00000000000E+00 -0.00000000000E+00 -0.77638310375E+01  0.77638314563E+01  0.25500000000E-02 0. -1.
         24    2    1    2    0    0  0.00000000000E+00  0.00000000000E+00  0.17548546541E+03  0.19101312797E+03  0.75437831940E+02 0.  0.
         66    2    3    3    0    0  0.37000226872E+02  0.43785225634E+01  0.73364045625E+02  0.82307176934E+02  0.19999839768E+01 0.  0.
        -13    1    3    3    0    0 -0.37000226872E+02 -0.43785225634E+01  0.10212141978E+03  0.10870595104E+03  0.10566000000E+00 0.  1.
         13    1    4    4    0    0  0.26394270612E+01  0.34568857146E+00  0.50291551710E+01  0.56911898202E+01  0.10566000000E+00 0. -1.
        -13    1    4    4    0    0  0.34273196575E+01  0.75218544022E+00  0.79166580832E+01  0.86600774946E+01  0.10566000000E+00 0.  1.
        -14    1    4    4    0    0  0.30933480153E+02  0.32806485517E+01  0.60418232371E+02  0.67955909619E+02  0.00000000000E+00 0.  1.
<mgrwt>
<rscale>  0 0.75437832E+02</rscale>
<asrwt>0</asrwt>
<pdfrwt beam="1">  1        2 0.11944356E-02 0.75437832E+02</pdfrwt>
<pdfrwt beam="2">  1       -1 0.28192198E-01 0.75437832E+02</pdfrwt>
<totfact> 0.11862395E+05</totfact>
</mgrwt>
</event>
<event>
 8    1  0.7667702E-014  0.8074783E+02  0.7818608E-02  0.1326943E+00
          2   -1    0    0  501    0  0.00000000000E+00  0.00000000000E+00  0.60513176690E+02  0.60513176744E+02  0.25500000000E-02 0. -1.
         -1   -1    0    0    0  501 -0.00000000000E+00 -0.00000000000E+00 -0.26937156054E+02  0.26937156526E+02  0.50400000000E-02 0.  1.
         24    2    1    2    0    0  0.00000000000E+00  0.35527136788E-14  0.33576020636E+02  0.87450333270E+02  0.80747827384E+02 0.  0.
         66    2    3    3    0    0  0.28824951137E+02 -0.27210737006E+02  0.24956548079E+02  0.46884233042E+02  0.19999998659E+01 0.  0.
        -13    1    3    3    0    0 -0.28824951137E+02  0.27210737006E+02  0.86194725570E+01  0.40566100228E+02  0.10566000000E+00 0.  1.
         13    1    4    4    0    0  0.78980958300E+01 -0.74020011879E+01  0.64815177083E+01  0.12617082672E+02  0.10566000000E+00 0. -1.
        -13    1    4    4    0    0  0.59842847391E+01 -0.48989476790E+01  0.54783233804E+01  0.94781086349E+01  0.10566000000E+00 0.  1.
         14    1    4    4    0    0  0.14942570568E+02 -0.14909788139E+02  0.12996706990E+02  0.24789041735E+02  0.00000000000E+00 0. -1.
<mgrwt>
<rscale>  0 0.80747827E+02</rscale>
<asrwt>0</asrwt>
<pdfrwt beam="1">  1        2 0.93097194E-02 0.80747827E+02</pdfrwt>
<pdfrwt beam="2">  1       -1 0.41441779E-02 0.80747827E+02</pdfrwt>
<totfact> 0.15206889E+05</totfact>
</mgrwt>
</event>
<event>
 8    1  0.7667702E-014  0.8377384E+02  0.7818608E-02  0.1318671E+00
          2   -1    0    0  501    0  0.00000000000E+00  0.00000000000E+00  0.52053296977E+03  0.52053296977E+03  0.25500000000E-02 0. -1.
         -1   -1    0    0    0  501 -0.00000000000E+00 -0.00000000000E+00 -0.33706088513E+01  0.33706126194E+01  0.50400000000E-02 0.  1.
         24    2    1    2    0    0  0.00000000000E+00  0.00000000000E+00  0.51716236091E+03  0.52390358239E+03  0.83773838971E+02 0.  0.
         66    2    3    3    0    0 -0.38648535265E+02 -0.93998214235E+01  0.34037372428E+03  0.34269569313E+03  0.19999983609E+01 0.  0.
        -13    1    3    3    0    0  0.38648535265E+02  0.93998214235E+01  0.17678863664E+03  0.18120788926E+03  0.10566000000E+00 0.  1.
         13    1    4    4    0    0 -0.11326281408E+02 -0.27518182283E+01  0.10323802174E+03  0.10389397216E+03  0.10566000000E+00 0. -1.
        -13    1    4    4    0    0 -0.12844144814E+02 -0.23984924036E+01  0.11189805738E+03  0.11265838287E+03  0.10566000000E+00 0.  1.
        -14    1    4    4    0    0 -0.14478109043E+02 -0.42495107916E+01  0.12523764515E+03  0.12614333810E+03  0.00000000000E+00 0.  1.
<mgrwt>
<rscale>  0 0.83773839E+02</rscale>
<asrwt>0</asrwt>
<pdfrwt beam="1">  1        2 0.80081995E-01 0.83773839E+02</pdfrwt>
<pdfrwt beam="2">  1       -1 0.51855550E-03 0.83773839E+02</pdfrwt>
<totfact> 0.27342516E+05</totfact>
</mgrwt>
</event>
<event>
 8    1  0.7667702E-014  0.8005982E+02  0.7818608E-02  0.1328882E+00
         -1   -1    0    0    0  501 -0.00000000000E+00  0.00000000000E+00  0.12798465243E+02  0.12798466235E+02  0.50400000000E-02 0.  1.
          2   -1    0    0  501    0  0.00000000000E+00 -0.00000000000E+00 -0.12520201339E+03  0.12520201342E+03  0.25500000000E-02 0. -1.
         24    2    1    2    0    0  0.00000000000E+00  0.00000000000E+00 -0.11240354815E+03  0.13800047965E+03  0.80059819810E+02 0.  0.
         66    2    3    3    0    0 -0.18209628835E+02 -0.18768439512E+02 -0.10842137937E+03  0.11154837697E+03  0.19999993086E+01 0.  0.
        -13    1    3    3    0    0  0.18209628835E+02  0.18768439512E+02 -0.39821687832E+01  0.26452102682E+02  0.10566000000E+00 0.  1.
         13    1    4    4    0    0 -0.13760997560E+02 -0.14199439181E+02 -0.85148201121E+02  0.87414051760E+02  0.10566000000E+00 0. -1.
        -13    1    4    4    0    0 -0.14059679402E+01 -0.13560696753E+01 -0.77095030867E+01  0.79538212636E+01  0.10566000000E+00 0.  1.
        -14    1    4    4    0    0 -0.30426633353E+01 -0.32129306554E+01 -0.15563675159E+02  0.16180503949E+02  0.00000000000E+00 0.  1.
<mgrwt>
<rscale>  0 0.80059820E+02</rscale>
<asrwt>0</asrwt>
<pdfrwt beam="1">  1        2 0.19261847E-01 0.80059820E+02</pdfrwt>
<pdfrwt beam="2">  1       -1 0.19689948E-02 0.80059820E+02</pdfrwt>
<totfact> 0.18889730E+05</totfact>
</mgrwt>
</event>
<event>
 8    1  0.7667702E-014  0.8018689E+02  0.7818608E-02  0.1328522E+00
          2   -1    0    0  501    0  0.00000000000E+00  0.00000000000E+00  0.48459923496E+03  0.48459923497E+03  0.25500000000E-02 0. -1.
         -1   -1    0    0    0  501 -0.00000000000E+00 -0.00000000000E+00 -0.33171400854E+01  0.33171439142E+01  0.50400000000E-02 0.  1.
         24    2    1    2    0    0  0.00000000000E+00 -0.17763568394E-14  0.48128209488E+03  0.48791637888E+03  0.80186893776E+02 0.  0.
         66    2    3    3    0    0 -0.37432636530E+02  0.14278941592E+02  0.24458565809E+03  0.24785325218E+03  0.20000056448E+01 0.  0.
        -13    1    3    3    0    0  0.37432636530E+02 -0.14278941592E+02  0.23669643679E+03  0.24006312671E+03  0.10566000000E+00 0.  1.
         13    1    4    4    0    0 -0.24080651345E+02  0.86570669573E+01  0.15870572027E+03  0.16075552677E+03  0.10566000000E+00 0. -1.
        -13    1    4    4    0    0 -0.23542478461E+00  0.14807037415E+00  0.20466288642E+01  0.20681400843E+01  0.10566000000E+00 0. -1.
        -14    1    4    4    0    0 -0.13116560400E+02  0.54738042610E+01  0.83833308952E+02  0.85029585320E+02  0.00000000000E+00 0.  1.
<mgrwt>
<rscale>  0 0.80186894E+02</rscale>
<asrwt>0</asrwt>
<pdfrwt beam="1">  1        2 0.74553740E-01 0.80186894E+02</pdfrwt>
<pdfrwt beam="2">  1       -1 0.51032946E-03 0.80186894E+02</pdfrwt>
<totfact> 0.29963795E+05</totfact>
</mgrwt>
</event>
<event>
 8    1  0.7667702E-014  0.7977531E+02  0.7818608E-02  0.1329690E+00
         -1   -1    0    0    0  501 -0.00000000000E+00  0.00000000000E+00  0.50967114646E+01  0.50967139565E+01  0.50400000000E-02 0.  1.
          2   -1    0    0  501    0  0.00000000000E+00 -0.00000000000E+00 -0.31216686478E+03  0.31216686479E+03  0.25500000000E-02 0. -1.
         24    2    1    2    0    0 -0.17763568394E-14  0.35527136788E-14 -0.30707015331E+03  0.31726357874E+03  0.79775305340E+02 0.  0.
         66    2    3    3    0    0  0.88633333865E+01 -0.24232357290E+02 -0.27447176447E+03  0.27568916428E+03  0.19999983435E+01 0.  0.
        -13    1    3    3    0    0 -0.88633333865E+01  0.24232357290E+02 -0.32598388841E+02  0.41574414459E+02  0.10566000000E+00 0.  1.
         13    1    4    4    0    0  0.51878678332E+01 -0.11384653188E+02 -0.13124746516E+03  0.13184245362E+03  0.10566000000E+00 0. -1.
        -13    1    4    4    0    0  0.17300179065E+01 -0.60593674671E+01 -0.69064959817E+02  0.69351919474E+02  0.10566000000E+00 0.  1.
         14    1    4    4    0    0  0.19454476469E+01 -0.67883366355E+01 -0.74159339492E+02  0.74494791192E+02  0.00000000000E+00 0. -1.
<mgrwt>
<rscale>  0 0.79775305E+02</rscale>
<asrwt>0</asrwt>
<pdfrwt beam="1">  1        2 0.48025657E-01 0.79775305E+02</pdfrwt>
<pdfrwt beam="2">  1       -1 0.78410989E-03 0.79775305E+02</pdfrwt>
<totfact> 0.26055069E+05</totfact>
</mgrwt>
</event>
<event>
 8    1  0.7667702E-014  0.7905218E+02  0.7818608E-02  0.1331763E+00
         -1   -1    0    0    0  501 -0.00000000000E+00  0.00000000000E+00  0.74534012182E+00  0.74535716190E+00  0.50400000000E-02 0.  1.
          2   -1    0    0  501    0  0.00000000000E+00 -0.00000000000E+00 -0.20960819214E+04  0.20960819214E+04  0.25500000000E-02 0. -1.
         24    2    1    2    0    0  0.17763568394E-14  0.00000000000E+00 -0.20953365813E+04  0.20968272786E+04  0.79052180775E+02 0.  0.
         66    2    3    3    0    0  0.14506616022E+02 -0.20970945509E+01 -0.20212754290E+04  0.20213295623E+04  0.20000014213E+01 0.  0.
        -13    1    3    3    0    0 -0.14506616022E+02  0.20970945509E+01 -0.74061152330E+02  0.75497716273E+02  0.10566000000E+00 0.  1.
         13    1    4    4    0    0  0.16214369694E+01 -0.73562272647E-01 -0.29964958096E+03  0.29965399547E+03  0.10566000000E+00 0. -1.
        -13    1    4    4    0    0  0.11442856494E+01  0.69788762219E-02 -0.12664212253E+03  0.12664733634E+03  0.10566000000E+00 0.  1.
         14    1    4    4    0    0  0.11740893403E+02 -0.20305111544E+01 -0.15949837255E+04  0.15950282305E+04  0.00000000000E+00 0. -1.
<mgrwt>
<rscale>  0 0.79052181E+02</rscale>
<asrwt>0</asrwt>
<pdfrwt beam="1">  1        2 0.32246942E+00 0.79052181E+02</pdfrwt>
<pdfrwt beam="2">  1       -1 0.11467070E-03 0.79052181E+02</pdfrwt>
<totfact> 0.27340970E+05</totfact>
</mgrwt>
</event>
<event>
 8    1  0.7667702E-014  0.7861440E+02  0.7818608E-02  0.1333030E+00
         -1   -1    0    0    0  501 -0.00000000000E+00  0.00000000000E+00  0.46744935533E+02  0.46744935805E+02  0.50400000000E-02 0.  1.
          2   -1    0    0  501    0  0.00000000000E+00 -0.00000000000E+00 -0.33052906286E+02  0.33052906385E+02  0.25500000000E-02 0. -1.
         24    2    1    2    0    0  0.00000000000E+00  0.00000000000E+00  0.13692029246E+02  0.79797842189E+02  0.78614400419E+02 0.  0.
         66    2    3    3    0    0 -0.38651924500E+02  0.69925207253E+01  0.64145097293E+01  0.39849875182E+02  0.20000008132E+01 0.  0.
        -13    1    3    3    0    0  0.38651924500E+02 -0.69925207253E+01  0.72775195172E+01  0.39947967008E+02  0.10566000000E+00 0.  1.
         13    1    4    4    0    0 -0.95366459295E+01  0.16992068096E+01  0.97044957407E+00  0.97359054935E+01  0.10566000000E+00 0.  1.
        -13    1    4    4    0    0 -0.26996687744E+02  0.45981370554E+01  0.49329915915E+01  0.27826418807E+02  0.10566000000E+00 0. -1.
         14    1    4    4    0    0 -0.21185908268E+01  0.69517686029E+00  0.51106856369E+00  0.22875508815E+01  0.00000000000E+00 0. -1.
<mgrwt>
<rscale>  0 0.78614400E+02</rscale>
<asrwt>0</asrwt>
<pdfrwt beam="1">  1        2 0.50850626E-02 0.78614400E+02</pdfrwt>
<pdfrwt beam="2">  1       -1 0.71915285E-02 0.78614400E+02</pdfrwt>
<totfact> 0.14400122E+05</totfact>
</mgrwt>
</event>
<event>
 8    1  0.7667702E-014  0.7686864E+02  0.7818608E-02  0.1338180E+00
         -1   -1    0    0    0  501 -0.00000000000E+00  0.00000000000E+00  0.11784726051E+03  0.11784726061E+03  0.50400000000E-02 0.  1.
          2   -1    0    0  501    0  0.00000000000E+00 -0.00000000000E+00 -0.12534842158E+02  0.12534842418E+02  0.25500000000E-02 0. -1.
         24    2    1    2    0    0  0.00000000000E+00  0.00000000000E+00  0.10531241835E+03  0.13038210303E+03  0.76868636859E+02 0.  0.
         66    2    3    3    0    0  0.43001218988E+01  0.19186848341E+02 -0.32706186011E+01  0.20033051043E+02  0.19999976132E+01 0.  0.
        -13    1    3    3    0    0 -0.43001218988E+01 -0.19186848341E+02  0.10858303695E+03  0.11034905199E+03  0.10566000000E+00 0.  1.
         13    1    4    4    0    0  0.24369874086E+01  0.11423169874E+02 -0.18393379967E+01  0.11824637242E+02  0.10566000000E+00 0. -1.
        -13    1    4    4    0    0  0.10026384984E+01  0.57559684609E+01 -0.14625704776E+01  0.60238470531E+01  0.10566000000E+00 0.  1.
         14    1    4    4    0    0  0.86049599182E+00  0.20077100061E+01  0.31289873268E-01  0.21845667481E+01  0.00000000000E+00 0. -1.
<mgrwt>
<rscale>  0 0.76868637E+02</rscale>
<asrwt>0</asrwt>
<pdfrwt beam="1">  1        2 0.19284373E-02 0.76868637E+02</pdfrwt>
<pdfrwt beam="2">  1       -1 0.18130347E-01 0.76868637E+02</pdfrwt>
<totfact> 0.12635505E+05</totfact>
</mgrwt>
</event>
<event>
 8    1  0.8910844E-014  0.7898267E+02  0.7818608E-02  0.1331963E+00
         -1   -1    0    0    0  501 -0.00000000000E+00  0.00000000000E+00  0.30009920046E+01  0.30009962368E+01  0.50400000000E-02 0.  1.
          2   -1    0    0  501    0  0.00000000000E+00 -0.00000000000E+00 -0.51968301064E+03  0.51968301065E+03  0.25500000000E-02 0. -1.
         24    2    1    2    0    0  0.35527136788E-14 -0.71054273576E-14 -0.51668201864E+03  0.52268400689E+03  0.78982673228E+02 0.  0.
         66    2    3    3    0    0  0.24868991436E+02 -0.29287971697E+02 -0.31817892571E+03  0.32049661586E+03  0.19999987014E+01 0.  0.
        -13    1    3    3    0    0 -0.24868991436E+02  0.29287971697E+02 -0.19850309293E+03  0.20218739102E+03  0.10566000000E+00 0.  1.
         13    1    4    4    0    0  0.14061101178E+02 -0.16576307625E+02 -0.18181862792E+03  0.18311338882E+03  0.10566000000E+00 0. -1.
        -13    1    4    4    0    0  0.28966291200E+01 -0.41789141413E+01 -0.43911962175E+02  0.44205490267E+02  0.10566000000E+00 0.  1.
        -14    1    4    4    0    0  0.79112611380E+01 -0.85327499299E+01 -0.92448335614E+02  0.93177736782E+02  0.00000000000E+00 0.  1.
<mgrwt>
<rscale>  0 0.78982673E+02</rscale>
<asrwt>0</asrwt>
<pdfrwt beam="1">  1        2 0.79951161E-01 0.78982673E+02</pdfrwt>
<pdfrwt beam="2">  1       -1 0.46169182E-03 0.78982673E+02</pdfrwt>
<totfact> 0.31868404E+05</totfact>
</mgrwt>
</event>
<event>
 8    1  0.7667702E-014  0.7984393E+02  0.7818608E-02  0.1329495E+00
         -1   -1    0    0    0  501 -0.00000000000E+00  0.00000000000E+00  0.30160026136E+02  0.30160026557E+02  0.50400000000E-02 0.  1.
          2   -1    0    0  501    0  0.00000000000E+00 -0.00000000000E+00 -0.52843566585E+02  0.52843566647E+02  0.25500000000E-02 0. -1.
         24    2    1    2    0    0  0.00000000000E+00  0.17763568394E-14 -0.22683540450E+02  0.83003593203E+02  0.79843932001E+02 0.  0.
         66    2    3    3    0    0 -0.37697409701E+02 -0.11381374901E+02 -0.46819678963E+01  0.39705808373E+02  0.20000005889E+01 0.  0.
        -13    1    3    3    0    0  0.37697409701E+02  0.11381374901E+02 -0.18001572553E+02  0.43297784831E+02  0.10566000000E+00 0.  1.
         13    1    4    4    0    0 -0.19389917956E+02 -0.54625706847E+01 -0.30268750738E+01  0.20371100451E+02  0.10566000000E+00 0. -1.
        -13    1    4    4    0    0 -0.15064457739E+02 -0.45734698457E+01 -0.11248400718E+01  0.15783882368E+02  0.10566000000E+00 0.  1.
        -14    1    4    4    0    0 -0.32430340063E+01 -0.13453343704E+01 -0.53025275063E+00  0.35508255538E+01  0.00000000000E+00 0.  1.
<mgrwt>
<rscale>  0 0.79843932E+02</rscale>
<asrwt>0</asrwt>
<pdfrwt beam="1">  1        2 0.81297795E-02 0.79843932E+02</pdfrwt>
<pdfrwt beam="2">  1       -1 0.46400041E-02 0.79843932E+02</pdfrwt>
<totfact> 0.15206495E+05</totfact>
</mgrwt>
</event>
<event>
 8    1  0.7667702E-014  0.7735239E+02  0.7818608E-02  0.1336737E+00
         -1   -1    0    0    0  501 -0.00000000000E+00  0.00000000000E+00  0.16814360390E+02  0.16814361146E+02  0.50400000000E-02 0.  1.
          2   -1    0    0  501    0  0.00000000000E+00 -0.00000000000E+00 -0.88962520067E+02  0.88962520104E+02  0.25500000000E-02 0. -1.
         24    2    1    2    0    0 -0.71054273576E-14 -0.35527136788E-14 -0.72148159677E+02  0.10577688125E+03  0.77352386273E+02 0.  0.
         66    2    3    3    0    0 -0.32992834524E+02 -0.14511747184E+02 -0.55180307642E+02  0.65939246996E+02  0.20000016530E+01 0.  0.
        -13    1    3    3    0    0  0.32992834524E+02  0.14511747184E+02 -0.16967852035E+02  0.39837634254E+02  0.10566000000E+00 0.  1.
         13    1    4    4    0    0 -0.18145420646E+02 -0.81249364474E+01 -0.30099133424E+02  0.36072702694E+02  0.10566000000E+00 0. -1.
        -13    1    4    4    0    0 -0.11513363224E+02 -0.46823570187E+01 -0.20142670748E+02  0.23668974394E+02  0.10566000000E+00 0.  1.
        -14    1    4    4    0    0 -0.33340506534E+01 -0.17044537180E+01 -0.49385034699E+01  0.61975699075E+01  0.00000000000E+00 0.  1.
<mgrwt>
<rscale>  0 0.77352386E+02</rscale>
<asrwt>0</asrwt>
<pdfrwt beam="1">  1        2 0.13686541E-01 0.77352386E+02</pdfrwt>
<pdfrwt beam="2">  1       -1 0.25868248E-02 0.77352386E+02</pdfrwt>
<totfact> 0.18788719E+05</totfact>
</mgrwt>
</event>
<event>
 8    1  0.7667702E-014  0.8398886E+02  0.7818608E-02  0.1318098E+00
          2   -1    0    0  501    0  0.00000000000E+00  0.00000000000E+00  0.50731863379E+02  0.50731863443E+02  0.25500000000E-02 0. -1.
         -1   -1    0    0    0  501 -0.00000000000E+00 -0.00000000000E+00 -0.34761828498E+02  0.34761828864E+02  0.50400000000E-02 0.  1.
         24    2    1    2    0    0  0.88817841970E-15  0.00000000000E+00  0.15970034880E+02  0.85493692307E+02  0.83988864799E+02 0.  0.
         66    2    3    3    0    0  0.61090150977E+01  0.37661217549E+02  0.25791150542E+02  0.46096321206E+02  0.20000024320E+01 0.  0.
        -13    1    3    3    0    0 -0.61090150977E+01 -0.37661217549E+02 -0.98211156611E+01  0.39397371101E+02  0.10566000000E+00 0.  1.
         13    1    4    4    0    0  0.71354675972E+00  0.37787806420E+01  0.22621897561E+01  0.44628464736E+01  0.10566000000E+00 0. -1.
        -13    1    4    4    0    0  0.15221742468E+00  0.38254797392E+01  0.23737517451E+01  0.45059213001E+01  0.10566000000E+00 0.  1.
        -14    1    4    4    0    0  0.52432509133E+01  0.30056957168E+02  0.21155209040E+02  0.37127553433E+02  0.00000000000E+00 0.  1.
<mgrwt>
<rscale>  0 0.83988865E+02</rscale>
<asrwt>0</asrwt>
<pdfrwt beam="1">  1        2 0.78049020E-02 0.83988865E+02</pdfrwt>
<pdfrwt beam="2">  1       -1 0.53479737E-02 0.83988865E+02</pdfrwt>
<totfact> 0.13114715E+05</totfact>
</mgrwt>
</event>
<event>
 8    1  0.7667702E-014  0.7964426E+02  0.7818608E-02  0.1330064E+00
         -1   -1    0    0    0  501 -0.00000000000E+00  0.00000000000E+00  0.71394901415E+01  0.71394919204E+01  0.50400000000E-02 0.  1.
          2   -1    0    0  501    0  0.00000000000E+00 -0.00000000000E+00 -0.22211698422E+03  0.22211698424E+03  0.25500000000E-02 0. -1.
         24    2    1    2    0    0 -0.35527136788E-14  0.00000000000E+00 -0.21497749408E+03  0.22925647616E+03  0.79644264695E+02 0.  0.
         66    2    3    3    0    0 -0.16336040183E+02 -0.17964020617E+02 -0.19831946702E+03  0.19981036818E+03  0.19999965149E+01 0.  0.
        -13    1    3    3    0    0  0.16336040183E+02  0.17964020617E+02 -0.16658027059E+02  0.29446107980E+02  0.10566000000E+00 0.  1.
         13    1    4    4    0    0 -0.12794188728E+02 -0.13329837031E+02 -0.15009376959E+03  0.15122673922E+03  0.10566000000E+00 0. -1.
        -13    1    4    4    0    0 -0.66468883212E+00 -0.10833760765E+01 -0.83401450360E+01  0.84371024780E+01  0.10566000000E+00 0.  1.
        -14    1    4    4    0    0 -0.28771626226E+01 -0.35508075092E+01 -0.39885552397E+02  0.40146526484E+02  0.00000000000E+00 0.  1.
<mgrwt>
<rscale>  0 0.79644265E+02</rscale>
<asrwt>0</asrwt>
<pdfrwt beam="1">  1        2 0.34171839E-01 0.79644265E+02</pdfrwt>
<pdfrwt beam="2">  1       -1 0.10983834E-02 0.79644265E+02</pdfrwt>
<totfact> 0.23154630E+05</totfact>
</mgrwt>
</event>
<event>
 8    1  0.7667702E-014  0.7897056E+02  0.7818608E-02  0.1331998E+00
          2   -1    0    0  501    0  0.00000000000E+00  0.00000000000E+00  0.24541697979E+02  0.24541698112E+02  0.25500000000E-02 0. -1.
         -1   -1    0    0    0  501 -0.00000000000E+00 -0.00000000000E+00 -0.63528092637E+02  0.63528092836E+02  0.50400000000E-02 0.  1.
         24    2    1    2    0    0  0.00000000000E+00  0.00000000000E+00 -0.38986394657E+02  0.88069790948E+02  0.78970558497E+02 0.  0.
         66    2    3    3    0    0  0.16279590517E+02 -0.35942529832E+02 -0.19994095659E+02  0.44279277097E+02  0.20000002055E+01 0.  0.
        -13    1    3    3    0    0 -0.16279590517E+02  0.35942529832E+02 -0.18992298998E+02  0.43790513852E+02  0.10566000000E+00 0.  1.
         13    1    4    4    0    0  0.10588562568E+02 -0.22704537666E+02 -0.12702056564E+02  0.28088558042E+02  0.10566000000E+00 0. -1.
        -13    1    4    4    0    0  0.88954600844E+00 -0.14199151237E+01 -0.57883757305E+00  0.17758569850E+01  0.10566000000E+00 0.  1.
         14    1    4    4    0    0  0.48014819400E+01 -0.11818077042E+02 -0.67132015228E+01  0.14414862069E+02  0.00000000000E+00 0. -1.
<mgrwt>
<rscale>  0 0.78970558E+02</rscale>
<asrwt>0</asrwt>
<pdfrwt beam="1">  1        2 0.37756459E-02 0.78970558E+02</pdfrwt>
<pdfrwt beam="2">  1       -1 0.97735527E-02 0.78970558E+02</pdfrwt>
<totfact> 0.13416122E+05</totfact>
</mgrwt>
</event>
<event>
 8    1  0.7667702E-014  0.7582114E+02  0.7818608E-02  0.1341347E+00
          2   -1    0    0  501    0  0.00000000000E+00  0.00000000000E+00  0.39019017876E+02  0.39019017959E+02  0.25500000000E-02 0. -1.
         -1   -1    0    0    0  501 -0.00000000000E+00 -0.00000000000E+00 -0.36833613617E+02  0.36833613962E+02  0.50400000000E-02 0.  1.
         24    2    1    2    0    0 -0.71054273576E-14  0.17763568394E-14  0.21854042589E+01  0.75852631920E+02  0.75821143341E+02 0.  0.
         66    2    3    3    0    0 -0.31370004837E+02  0.11809341634E+02  0.18754936094E+02  0.38461479190E+02  0.20000000771E+01 0.  0.
        -13    1    3    3    0    0  0.31370004837E+02 -0.11809341634E+02 -0.16569531835E+02  0.37391152731E+02  0.10566000000E+00 0.  1.
         13    1    4    4    0    0 -0.10771202727E+02  0.41469652397E+01  0.56893630679E+01  0.12868416571E+02  0.10566000000E+00 0. -1.
        -13    1    4    4    0    0 -0.83052225396E+01  0.36756107244E+01  0.53817382754E+01  0.10557514221E+02  0.10566000000E+00 0.  1.
        -14    1    4    4    0    0 -0.12293579570E+02  0.39867656695E+01  0.76838347506E+01  0.15035548398E+02  0.00000000000E+00 0.  1.
<mgrwt>
<rscale>  0 0.75821143E+02</rscale>
<asrwt>0</asrwt>
<pdfrwt beam="1">  1        2 0.60029258E-02 0.75821143E+02</pdfrwt>
<pdfrwt beam="2">  1       -1 0.56667098E-02 0.75821143E+02</pdfrwt>
<totfact> 0.16442894E+05</totfact>
</mgrwt>
</event>
<event>
 8    1  0.7667702E-014  0.8103413E+02  0.7818608E-02  0.1326142E+00
         -1   -1    0    0    0  501 -0.00000000000E+00  0.00000000000E+00  0.26868309025E+01  0.26868356296E+01  0.50400000000E-02 0.  1.
          2   -1    0    0  501    0  0.00000000000E+00 -0.00000000000E+00 -0.61099161506E+03  0.61099161507E+03  0.25500000000E-02 0. -1.
         24    2    1    2    0    0  0.00000000000E+00  0.00000000000E+00 -0.60830478416E+03  0.61367845070E+03  0.81034131195E+02 0.  0.
         66    2    3    3    0    0 -0.27367442669E+01 -0.34803569513E+02 -0.45969609039E+03  0.46102415745E+03  0.20000022334E+01 0.  0.
        -13    1    3    3    0    0  0.27367442669E+01  0.34803569513E+02 -0.14860869377E+03  0.15265429325E+03  0.10566000000E+00 0.  1.
         13    1    4    4    0    0  0.33457556586E-01 -0.21737988874E+01 -0.25162685279E+02  0.25256650916E+02  0.10566000000E+00 0. -1.
        -13    1    4    4    0    0 -0.58715434896E+00 -0.57525912118E+01 -0.83221342142E+02  0.83422059480E+02  0.10566000000E+00 0.  1.
         14    1    4    4    0    0 -0.21830474746E+01 -0.26877179414E+02 -0.35131206297E+03  0.35234544705E+03  0.00000000000E+00 0. -1.
<mgrwt>
<rscale>  0 0.81034131E+02</rscale>
<asrwt>0</asrwt>
<pdfrwt beam="1">  1        2 0.93998600E-01 0.81034131E+02</pdfrwt>
<pdfrwt beam="2">  1       -1 0.41335945E-03 0.81034131E+02</pdfrwt>
<totfact> 0.31261910E+05</totfact>
</mgrwt>
</event>
<event>
 8    1  0.7667702E-014  0.8082382E+02  0.7818608E-02  0.1326730E+00
          2   -1    0    0  501    0  0.00000000000E+00  0.00000000000E+00  0.17663497807E+03  0.17663497809E+03  0.25500000000E-02 0. -1.
         -1   -1    0    0    0  501 -0.00000000000E+00 -0.00000000000E+00 -0.92457466394E+01  0.92457480131E+01  0.50400000000E-02 0.  1.
         24    2    1    2    0    0 -0.35527136788E-14 -0.17763568394E-14  0.16738923143E+03  0.18588072610E+03  0.80823817882E+02 0.  0.
         66    2    3    3    0    0 -0.27920777230E+02 -0.15929853868E+02  0.13997575739E+03  0.14363336206E+03  0.19999985348E+01 0.  0.
        -13    1    3    3    0    0  0.27920777230E+02  0.15929853868E+02  0.27413474035E+02  0.42247364037E+02  0.10566000000E+00 0.  1.
         13    1    4    4    0    0 -0.21878935194E+02 -0.12593958082E+02  0.10795819549E+03  0.11087054939E+03  0.10566000000E+00 0. -1.
        -13    1    4    4    0    0 -0.53197066532E+01 -0.30556184954E+01  0.29379872244E+02  0.30013732530E+02  0.10566000000E+00 0.  1.
        -14    1    4    4    0    0 -0.72213538239E+00 -0.28027729055E+00  0.26376896628E+01  0.27490801420E+01  0.00000000000E+00 0.  1.
<mgrwt>
<rscale>  0 0.80823818E+02</rscale>
<asrwt>0</asrwt>
<pdfrwt beam="1">  1        2 0.27174610E-01 0.80823818E+02</pdfrwt>
<pdfrwt beam="2">  1       -1 0.14224228E-02 0.80823818E+02</pdfrwt>
<totfact> 0.20573436E+05</totfact>
</mgrwt>
</event>
<event>
 8    1  0.7667702E-014  0.8225699E+02  0.7818608E-02  0.1322766E+00
         -1   -1    0    0    0  501 -0.00000000000E+00  0.00000000000E+00  0.41075153424E+01  0.41075184345E+01  0.50400000000E-02 0.  1.
          2   -1    0    0  501    0  0.00000000000E+00 -0.00000000000E+00 -0.41181886623E+03  0.41181886624E+03  0.25500000000E-02 0. -1.
         24    2    1    2    0    0 -0.35527136788E-14  0.35527136788E-14 -0.40771135089E+03  0.41592638467E+03  0.82256986476E+02 0.  0.
         66    2    3    3    0    0 -0.26254982363E+02  0.27500989114E+02 -0.28294671864E+03  0.28549688983E+03  0.20000029567E+01 0.  0.
        -13    1    3    3    0    0  0.26254982363E+02 -0.27500989114E+02 -0.12476463225E+03  0.13042949484E+03  0.10566000000E+00 0.  1.
         13    1    4    4    0    0 -0.97549504989E+01  0.90386349797E+01 -0.99537456328E+02  0.10042197149E+03  0.10566000000E+00 0.  1.
        -13    1    4    4    0    0 -0.13383941355E+02  0.14960497566E+02 -0.14627937340E+03  0.14765030518E+03  0.10566000000E+00 0. -1.
        -14    1    4    4    0    0 -0.31160905094E+01  0.35018565679E+01 -0.37129888920E+02  0.37424613167E+02  0.00000000000E+00 0.  1.
<mgrwt>
<rscale>  0 0.82256986E+02</rscale>
<asrwt>0</asrwt>
<pdfrwt beam="1">  1        2 0.63356716E-01 0.82256986E+02</pdfrwt>
<pdfrwt beam="2">  1       -1 0.63192600E-03 0.82256986E+02</pdfrwt>
<totfact> 0.26538740E+05</totfact>
</mgrwt>
</event>
<event>
 8    1  0.7667702E-014  0.8136022E+02  0.7818608E-02  0.1325235E+00
          2   -1    0    0  501    0  0.00000000000E+00  0.00000000000E+00  0.87646633190E+03  0.87646633191E+03  0.25500000000E-02 0. -1.
         -1   -1    0    0    0  501 -0.00000000000E+00 -0.00000000000E+00 -0.18881139265E+01  0.18881206532E+01  0.50400000000E-02 0.  1.
         24    2    1    2    0    0  0.35527136788E-14  0.00000000000E+00  0.87457821798E+03  0.87835445256E+03  0.81360217384E+02 0.  0.
         66    2    3    3    0    0 -0.30555623113E+02 -0.13051405347E+02  0.69048054875E+03  0.69128241225E+03  0.20000012730E+01 0.  0.
        -13    1    3    3    0    0  0.30555623113E+02  0.13051405347E+02  0.18409766923E+03  0.18707204031E+03  0.10566000000E+00 0.  1.
         13    1    4    4    0    0 -0.17939421193E+02 -0.78539230294E+01  0.41683307915E+03  0.41729286356E+03  0.10566000000E+00 0. -1.
        -13    1    4    4    0    0 -0.65997489812E+01 -0.32898720732E+01  0.14847227503E+03  0.14865533143E+03  0.10566000000E+00 0.  1.
        -14    1    4    4    0    0 -0.60164529388E+01 -0.19076102442E+01  0.12517519457E+03  0.12533421727E+03  0.00000000000E+00 0.  1.
<mgrwt>
<rscale>  0 0.81360217E+02</rscale>
<asrwt>0</asrwt>
<pdfrwt beam="1">  1        2 0.13484075E+00 0.81360217E+02</pdfrwt>
<pdfrwt beam="2">  1       -1 0.29048007E-03 0.81360217E+02</pdfrwt>
<totfact> 0.33344174E+05</totfact>
</mgrwt>
</event>
<event>
 8    1  0.7667702E-014  0.8137803E+02  0.7818608E-02  0.1325186E+00
          2   -1    0    0  501    0  0.00000000000E+00  0.00000000000E+00  0.40963003838E+02  0.40963003917E+02  0.25500000000E-02 0. -1.
         -1   -1    0    0    0  501 -0.00000000000E+00 -0.00000000000E+00 -0.40416858948E+02  0.40416859262E+02  0.50400000000E-02 0.  1.
         24    2    1    2    0    0 -0.71054273576E-14  0.00000000000E+00  0.54614488993E+00  0.81379863179E+02  0.81378030553E+02 0.  0.
         66    2    3    3    0    0 -0.30332275292E+02 -0.13429659296E+01  0.27324548465E+02  0.40895983128E+02  0.20000013423E+01 0.  0.
        -13    1    3    3    0    0  0.30332275292E+02  0.13429659296E+01 -0.26778403575E+02  0.40483880050E+02  0.10566000000E+00 0.  1.
         13    1    4    4    0    0 -0.58844120410E+01  0.12662417929E+00  0.49181452596E+01  0.76708314791E+01  0.10566000000E+00 0. -1.
        -13    1    4    4    0    0 -0.23076568273E+01 -0.63014618692E-01  0.16055973469E+01  0.28139576669E+01  0.10566000000E+00 0.  1.
         14    1    4    4    0    0 -0.22140206424E+02 -0.14065754902E+01  0.20800805858E+02  0.30411193983E+02  0.00000000000E+00 0. -1.
<mgrwt>
<rscale>  0 0.81378031E+02</rscale>
<asrwt>0</asrwt>
<pdfrwt beam="1">  1        2 0.63020006E-02 0.81378031E+02</pdfrwt>
<pdfrwt beam="2">  1       -1 0.62179784E-02 0.81378031E+02</pdfrwt>
<totfact> 0.13664476E+05</totfact>
</mgrwt>
</event>
<event>
 8    1  0.7667702E-014  0.8025314E+02  0.7818608E-02  0.1328335E+00
          2   -1    0    0  501    0  0.00000000000E+00  0.00000000000E+00  0.24596864597E+03  0.24596864598E+03  0.25500000000E-02 0. -1.
         -1   -1    0    0    0  501 -0.00000000000E+00 -0.00000000000E+00 -0.65461252115E+01  0.65461271517E+01  0.50400000000E-02 0.  1.
         24    2    1    2    0    0  0.00000000000E+00  0.00000000000E+00  0.23942252076E+03  0.25251477313E+03  0.80253144518E+02 0.  0.
         66    2    3    3    0    0  0.24219539569E+02 -0.21088882443E+02  0.19535394251E+03  0.19798608515E+03  0.20000005732E+01 0.  0.
        -13    1    3    3    0    0 -0.24219539569E+02  0.21088882443E+02  0.44068578249E+02  0.54528687978E+02  0.10566000000E+00 0.  1.
         13    1    4    4    0    0  0.77755127555E+01 -0.70840261743E+01  0.65939768429E+02  0.66773544536E+02  0.10566000000E+00 0. -1.
        -13    1    4    4    0    0  0.14684328571E+02 -0.11897321429E+02  0.11387453211E+03  0.11543221383E+03  0.10566000000E+00 0.  1.
        -14    1    4    4    0    0  0.17596982422E+01 -0.21075348400E+01  0.15539641972E+02  0.15780326791E+02  0.00000000000E+00 0.  1.
<mgrwt>
<rscale>  0 0.80253145E+02</rscale>
<asrwt>0</asrwt>
<pdfrwt beam="1">  1        2 0.37841327E-01 0.80253145E+02</pdfrwt>
<pdfrwt beam="2">  1       -1 0.10070964E-02 0.80253145E+02</pdfrwt>
<totfact> 0.23533525E+05</totfact>
</mgrwt>
</event>
<event>
 8    1  0.7667702E-014  0.7782401E+02  0.7818608E-02  0.1335342E+00
         -1   -1    0    0    0  501 -0.00000000000E+00  0.00000000000E+00  0.62028345117E+01  0.62028365593E+01  0.50400000000E-02 0.  1.
          2   -1    0    0  501    0  0.00000000000E+00 -0.00000000000E+00 -0.24410515468E+03  0.24410515469E+03  0.25500000000E-02 0. -1.
         24    2    1    2    0    0  0.00000000000E+00  0.00000000000E+00 -0.23790232017E+03  0.25030799125E+03  0.77824010071E+02 0.  0.
         66    2    3    3    0    0 -0.93979478948E+01 -0.10227025460E+02 -0.23585043301E+03  0.23626751835E+03  0.20000007220E+01 0.  0.
        -13    1    3    3    0    0  0.93979478948E+01  0.10227025460E+02 -0.20518871616E+01  0.14040472904E+02  0.10566000000E+00 0.  1.
         13    1    4    4    0    0 -0.33451983876E+01 -0.33349153338E+01 -0.85908834546E+02  0.86038660087E+02  0.10566000000E+00 0. -1.
        -13    1    4    4    0    0 -0.30729245092E+00 -0.38726572535E-01 -0.71426723964E+01  0.71501651306E+01  0.10566000000E+00 0.  1.
         14    1    4    4    0    0 -0.57454570563E+01 -0.68533835539E+01 -0.14279892607E+03  0.14307869313E+03  0.00000000000E+00 0. -1.
<mgrwt>
<rscale>  0 0.77824010E+02</rscale>
<asrwt>0</asrwt>
<pdfrwt beam="1">  1        2 0.37554632E-01 0.77824010E+02</pdfrwt>
<pdfrwt beam="2">  1       -1 0.95428258E-03 0.77824010E+02</pdfrwt>
<totfact> 0.25442992E+05</totfact>
</mgrwt>
</event>
<event>
 8    1  0.8632491E-014  0.7844309E+02  0.7818608E-02  0.1333529E+00
         -1   -1    0    0    0  501 -0.00000000000E+00  0.00000000000E+00  0.90118111126E+02  0.90118111267E+02  0.50400000000E-02 0.  1.
          2   -1    0    0  501    0  0.00000000000E+00 -0.00000000000E+00 -0.17070149769E+02  0.17070149960E+02  0.25500000000E-02 0. -1.
         24    2    1    2    0    0  0.17763568394E-14 -0.71054273576E-14  0.73047961357E+02  0.10718826123E+03  0.78443092024E+02 0.  0.
         66    2    3    3    0    0 -0.84106260590E+01  0.35777086184E+02  0.17932557193E+02  0.40942827673E+02  0.20000009531E+01 0.  0.
        -13    1    3    3    0    0  0.84106260590E+01 -0.35777086184E+02  0.55115404164E+02  0.66245433554E+02  0.10566000000E+00 0.  1.
         13    1    4    4    0    0 -0.40208983279E+01  0.17957327477E+02  0.90091406022E+01  0.20489241370E+02  0.10566000000E+00 0. -1.
        -13    1    4    4    0    0 -0.35199011960E+01  0.12553702677E+02  0.58069448804E+01  0.14272943922E+02  0.10566000000E+00 0.  1.
        -14    1    4    4    0    0 -0.86982653507E+00  0.52660560307E+01  0.31164717104E+01  0.61806423810E+01  0.00000000000E+00 0.  1.
<mgrwt>
<rscale>  0 0.78443092E+02</rscale>
<asrwt>0</asrwt>
<pdfrwt beam="1">  1        2 0.26261769E-02 0.78443092E+02</pdfrwt>
<pdfrwt beam="2">  1       -1 0.13864325E-01 0.78443092E+02</pdfrwt>
<totfact> 0.12721744E+05</totfact>
</mgrwt>
</event>
<event>
 8    1  0.7667702E-014  0.8035311E+02  0.7818608E-02  0.1328052E+00
          2   -1    0    0  501    0  0.00000000000E+00  0.00000000000E+00  0.10385033548E+04  0.10385033548E+04  0.25500000000E-02 0. -1.
         -1   -1    0    0    0  501 -0.00000000000E+00 -0.00000000000E+00 -0.15543053700E+01  0.15543135413E+01  0.50400000000E-02 0.  1.
         24    2    1    2    0    0 -0.35527136788E-14 -0.35527136788E-14  0.10369490495E+04  0.10400576684E+04  0.80353110509E+02 0.  0.
         66    2    3    3    0    0  0.17131886638E+02  0.19425418103E+02  0.91591255297E+03  0.91628088116E+03  0.20000176332E+01 0.  0.
        -13    1    3    3    0    0 -0.17131886638E+02 -0.19425418103E+02  0.12103649650E+03  0.12377678723E+03  0.10566000000E+00 0.  1.
         13    1    4    4    0    0  0.75705321937E+01  0.84708633667E+01  0.38063698643E+03  0.38080650610E+03  0.10566000000E+00 0.  1.
        -13    1    4    4    0    0  0.95948114406E+01  0.10874804000E+02  0.53251992250E+03  0.53271737422E+03  0.10566000000E+00 0. -1.
        -14    1    4    4    0    0 -0.33456996461E-01  0.79750735974E-01  0.27556440430E+01  0.27570008419E+01  0.00000000000E+00 0.  1.
<mgrwt>
<rscale>  0 0.80353111E+02</rscale>
<asrwt>0</asrwt>
<pdfrwt beam="1">  1        2 0.15976993E+00 0.80353111E+02</pdfrwt>
<pdfrwt beam="2">  1       -1 0.23912426E-03 0.80353111E+02</pdfrwt>
<totfact> 0.34867703E+05</totfact>
</mgrwt>
</event>
<event>
 8    1  0.7667702E-014  0.7903345E+02  0.7818608E-02  0.1331817E+00
          2   -1    0    0  501    0  0.00000000000E+00  0.00000000000E+00  0.26856649521E+02  0.26856649642E+02  0.25500000000E-02 0. -1.
         -1   -1    0    0    0  501 -0.00000000000E+00 -0.00000000000E+00 -0.58144690249E+02  0.58144690467E+02  0.50400000000E-02 0.  1.
         24    2    1    2    0    0  0.00000000000E+00  0.00000000000E+00 -0.31288040728E+02  0.85001340110E+02  0.79033450690E+02 0.  0.
         66    2    3    3    0    0  0.14654440710E+02 -0.89541410234E+01  0.22593029584E+02  0.28449503925E+02  0.20000034538E+01 0.  0.
        -13    1    3    3    0    0 -0.14654440710E+02  0.89541410234E+01 -0.53881070311E+02  0.56551836185E+02  0.10566000000E+00 0.  1.
         13    1    4    4    0    0  0.39307691475E+01 -0.23623187850E+01  0.72273916796E+01  0.85602482826E+01  0.10566000000E+00 0. -1.
        -13    1    4    4    0    0  0.22370941693E+01 -0.13132227700E+01  0.25705512485E+01  0.36534972455E+01  0.10566000000E+00 0.  1.
        -14    1    4    4    0    0  0.84865773928E+01 -0.52785994684E+01  0.12795086656E+02  0.16235758397E+02  0.00000000000E+00 0.  1.
<mgrwt>
<rscale>  0 0.79033451E+02</rscale>
<asrwt>0</asrwt>
<pdfrwt beam="1">  1        2 0.41317923E-02 0.79033451E+02</pdfrwt>
<pdfrwt beam="2">  1       -1 0.89453370E-02 0.79033451E+02</pdfrwt>
<totfact> 0.13623596E+05</totfact>
</mgrwt>
</event>
<event>
 8    1  0.7667702E-014  0.8105648E+02  0.7818608E-02  0.1326080E+00
          2   -1    0    0  501    0  0.00000000000E+00  0.00000000000E+00  0.15140892321E+02  0.15140892536E+02  0.25500000000E-02 0. -1.
         -1   -1    0    0    0  501 -0.00000000000E+00 -0.00000000000E+00 -0.10848357513E+03  0.10848357525E+03  0.50400000000E-02 0.  1.
         24    2    1    2    0    0  0.88817841970E-15  0.00000000000E+00 -0.93342682811E+02  0.12362446779E+03  0.81056477846E+02 0.  0.
         66    2    3    3    0    0 -0.70049424747E+01  0.39744303287E+02 -0.41448521094E+02  0.57884875094E+02  0.20000002369E+01 0.  0.
        -13    1    3    3    0    0  0.70049424747E+01 -0.39744303287E+02 -0.51894161718E+02  0.65739592692E+02  0.10566000000E+00 0.  1.
         13    1    4    4    0    0 -0.36151059451E+01  0.24832312001E+02 -0.25897620877E+02  0.36061206877E+02  0.10566000000E+00 0. -1.
        -13    1    4    4    0    0 -0.57144956568E+00  0.15966950840E+01 -0.16159001878E+01  0.23448426920E+01  0.10566000000E+00 0.  1.
        -14    1    4    4    0    0 -0.28183869639E+01  0.13315296202E+02 -0.13935000029E+02  0.19478825525E+02  0.00000000000E+00 0.  1.
<mgrwt>
<rscale>  0 0.81056478E+02</rscale>
<asrwt>0</asrwt>
<pdfrwt beam="1">  1        2 0.23293681E-02 0.81056478E+02</pdfrwt>
<pdfrwt beam="2">  1       -1 0.16689780E-01 0.81056478E+02</pdfrwt>
<totfact> 0.11269378E+05</totfact>
</mgrwt>
</event>
<event>
 8    1  0.7667702E-014  0.7657806E+02  0.7818608E-02  0.1339053E+00
          2   -1    0    0  501    0  0.00000000000E+00  0.00000000000E+00  0.13465540509E+03  0.13465540511E+03  0.25500000000E-02 0. -1.
         -1   -1    0    0    0  501 -0.00000000000E+00 -0.00000000000E+00 -0.10887417478E+02  0.10887418644E+02  0.50400000000E-02 0.  1.
         24    2    1    2    0    0  0.00000000000E+00  0.00000000000E+00  0.12376798761E+03  0.14554282376E+03  0.76578056843E+02 0.  0.
         66    2    3    3    0    0  0.35876257171E+02 -0.11009384154E+02  0.76114715484E+02  0.84886761599E+02  0.20000033768E+01 0.  0.
        -13    1    3    3    0    0 -0.35876257171E+02  0.11009384154E+02  0.47653272127E+02  0.60656062158E+02  0.10566000000E+00 0.  1.
         13    1    4    4    0    0  0.17076866318E+02 -0.49312573698E+01  0.35817111410E+02  0.39985163452E+02  0.10566000000E+00 0. -1.
        -13    1    4    4    0    0  0.14471336087E+02 -0.45302296104E+01  0.32150687544E+02  0.35547439036E+02  0.10566000000E+00 0.  1.
         14    1    4    4    0    0  0.43280547667E+01 -0.15478971735E+01  0.81469165303E+01  0.93541591111E+01  0.00000000000E+00 0. -1.
<mgrwt>
<rscale>  0 0.76578057E+02</rscale>
<asrwt>0</asrwt>
<pdfrwt beam="1">  1        2 0.20716218E-01 0.76578057E+02</pdfrwt>
<pdfrwt beam="2">  1       -1 0.16749872E-02 0.76578057E+02</pdfrwt>
<totfact> 0.21736848E+05</totfact>
</mgrwt>
</event>
<event>
 8    1  0.7667702E-014  0.8000371E+02  0.7818608E-02  0.1329041E+00
         -1   -1    0    0    0  501 -0.00000000000E+00  0.00000000000E+00  0.13974638932E+03  0.13974638941E+03  0.50400000000E-02 0.  1.
          2   -1    0    0  501    0  0.00000000000E+00 -0.00000000000E+00 -0.11450374412E+02  0.11450374696E+02  0.25500000000E-02 0. -1.
         24    2    1    2    0    0  0.17763568394E-14 -0.35527136788E-14  0.12829601491E+03  0.15119676411E+03  0.80003712633E+02 0.  0.
         66    2    3    3    0    0  0.14865363532E+02 -0.30831861405E+02  0.25155799594E+02  0.42525250407E+02  0.19999895806E+01 0.  0.
        -13    1    3    3    0    0 -0.14865363532E+02  0.30831861405E+02  0.10314021532E+03  0.10867151370E+03  0.10566000000E+00 0.  1.
         13    1    4    4    0    0  0.11427171714E+02 -0.23338521649E+02  0.18127560778E+02  0.31684167496E+02  0.10566000000E+00 0. -1.
        -13    1    4    4    0    0  0.28637509589E+01 -0.59215339505E+01  0.57040486227E+01  0.87070642933E+01  0.10566000000E+00 0.  1.
         14    1    4    4    0    0  0.57444085904E+00 -0.15718058060E+01  0.13241901934E+01  0.21340186177E+01  0.00000000000E+00 0. -1.
<mgrwt>
<rscale>  0 0.80003713E+02</rscale>
<asrwt>0</asrwt>
<pdfrwt beam="1">  1        2 0.17615960E-02 0.80003713E+02</pdfrwt>
<pdfrwt beam="2">  1       -1 0.21499446E-01 0.80003713E+02</pdfrwt>
<totfact> 0.10978898E+05</totfact>
</mgrwt>
</event>
<event>
 8    1  0.7667702E-014  0.8077681E+02  0.7818608E-02  0.1326861E+00
          2   -1    0    0  501    0  0.00000000000E+00  0.00000000000E+00  0.31961033270E+03  0.31961033271E+03  0.25500000000E-02 0. -1.
         -1   -1    0    0    0  501 -0.00000000000E+00 -0.00000000000E+00 -0.51037859082E+01  0.51037883968E+01  0.50400000000E-02 0.  1.
         24    2    1    2    0    0  0.00000000000E+00  0.00000000000E+00  0.31450654679E+03  0.32471412111E+03  0.80776806519E+02 0.  0.
         66    2    3    3    0    0  0.22863252818E+02  0.55015652368E+01  0.28922534058E+03  0.29018665232E+03  0.20000000753E+01 0.  0.
        -13    1    3    3    0    0 -0.22863252818E+02 -0.55015652368E+01  0.25281206213E+02  0.34527468790E+02  0.10566000000E+00 0.  1.
         13    1    4    4    0    0  0.59264962649E+01  0.18323323923E+01  0.78159202664E+02  0.78405056757E+02  0.10566000000E+00 0. -1.
        -13    1    4    4    0    0  0.14005994560E+02  0.28457085978E+01  0.18006745586E+03  0.18063378910E+03  0.10566000000E+00 0.  1.
        -14    1    4    4    0    0  0.29307619924E+01  0.82352424671E+00  0.30998682060E+02  0.31147806464E+02  0.00000000000E+00 0.  1.
<mgrwt>
<rscale>  0 0.80776807E+02</rscale>
<asrwt>0</asrwt>
<pdfrwt beam="1">  1        2 0.49170826E-01 0.80776807E+02</pdfrwt>
<pdfrwt beam="2">  1       -1 0.78519794E-03 0.80776807E+02</pdfrwt>
<totfact> 0.25432460E+05</totfact>
</mgrwt>
</event>
<event>
 8    1  0.7667702E-014  0.8193009E+02  0.7818608E-02  0.1323662E+00
          2   -1    0    0  501    0  0.00000000000E+00  0.00000000000E+00  0.47291782820E+01  0.47291789695E+01  0.25500000000E-02 0. -1.
         -1   -1    0    0    0  501 -0.00000000000E+00 -0.00000000000E+00 -0.35484697118E+03  0.35484697122E+03  0.50400000000E-02 0.  1.
         24    2    1    2    0    0  0.00000000000E+00  0.00000000000E+00 -0.35011779290E+03  0.35957615019E+03  0.81930085307E+02 0.  0.
         66    2    3    3    0    0  0.26155531008E+02  0.25966658644E+02 -0.25339604067E+03  0.25607017122E+03  0.19999994779E+01 0.  0.
        -13    1    3    3    0    0 -0.26155531008E+02 -0.25966658644E+02 -0.96721752227E+02  0.10350597896E+03  0.10566000000E+00 0.  1.
         13    1    4    4    0    0  0.17295255180E+02  0.17532838630E+02 -0.16876252080E+03  0.17055006852E+03  0.10566000000E+00 0. -1.
        -13    1    4    4    0    0  0.34176763243E+01  0.39989869275E+01 -0.36458092887E+02  0.36835799284E+02  0.10566000000E+00 0.  1.
        -14    1    4    4    0    0  0.54425995034E+01  0.44348330867E+01 -0.48175426986E+02  0.48684303416E+02  0.00000000000E+00 0.  1.
<mgrwt>
<rscale>  0 0.81930085E+02</rscale>
<asrwt>0</asrwt>
<pdfrwt beam="1">  1        2 0.72756623E-03 0.81930085E+02</pdfrwt>
<pdfrwt beam="2">  1       -1 0.54591821E-01 0.81930085E+02</pdfrwt>
<totfact> 0.75586376E+04</totfact>
</mgrwt>
</event>
<event>
 8    1  0.7667702E-014  0.7625104E+02  0.7818608E-02  0.1340040E+00
          2   -1    0    0  501    0  0.00000000000E+00  0.00000000000E+00  0.73428840134E+01  0.73428844561E+01  0.25500000000E-02 0. -1.
         -1   -1    0    0    0  501 -0.00000000000E+00 -0.00000000000E+00 -0.19795427479E+03  0.19795427486E+03  0.50400000000E-02 0.  1.
         24    2    1    2    0    0  0.35527136788E-14  0.00000000000E+00 -0.19061139078E+03  0.20529715931E+03  0.76251041483E+02 0.  0.
         66    2    3    3    0    0  0.23982109057E+02 -0.20375563397E+02 -0.37547743921E+02  0.49032011912E+02  0.19999950129E+01 0.  0.
        -13    1    3    3    0    0 -0.23982109057E+02  0.20375563397E+02 -0.15306364686E+03  0.15626514740E+03  0.10566000000E+00 0.  1.
         13    1    4    4    0    0  0.12600643281E+02 -0.10330004660E+02 -0.20322533802E+02  0.26048066177E+02  0.10566000000E+00 0. -1.
        -13    1    4    4    0    0  0.95881135524E+00 -0.56543700826E+00 -0.14892952952E+01  0.18623111279E+01  0.10566000000E+00 0.  1.
         14    1    4    4    0    0  0.10422654421E+02 -0.94801217287E+01 -0.15735914823E+02  0.21121634607E+02  0.00000000000E+00 0. -1.
<mgrwt>
<rscale>  0 0.76251041E+02</rscale>
<asrwt>0</asrwt>
<pdfrwt beam="1">  1        2 0.11296746E-02 0.76251041E+02</pdfrwt>
<pdfrwt beam="2">  1       -1 0.30454500E-01 0.76251041E+02</pdfrwt>
<totfact> 0.11288049E+05</totfact>
</mgrwt>
</event>
<event>
 8    1  0.7667702E-014  0.8603798E+02  0.7818608E-02  0.1312740E+00
         -1   -1    0    0    0  501 -0.00000000000E+00  0.00000000000E+00  0.28761046786E+01  0.28761090945E+01  0.50400000000E-02 0.  1.
          2   -1    0    0  501    0  0.00000000000E+00 -0.00000000000E+00 -0.64345089428E+03  0.64345089428E+03  0.25500000000E-02 0. -1.
         24    2    1    2    0    0 -0.88817841970E-15  0.00000000000E+00 -0.64057478960E+03  0.64632700338E+03  0.86037981291E+02 0.  0.
         66    2    3    3    0    0 -0.71421054431E+01  0.23457941520E+02 -0.58577093351E+03  0.58628736234E+03  0.19999987202E+01 0.  0.
        -13    1    3    3    0    0  0.71421054431E+01 -0.23457941520E+02 -0.54803856088E+02  0.60039641044E+02  0.10566000000E+00 0.  1.
         13    1    4    4    0    0 -0.44426794176E+01  0.11826935887E+02 -0.28874624762E+03  0.28902252592E+03  0.10566000000E+00 0. -1.
        -13    1    4    4    0    0 -0.22122631830E+01  0.94578180078E+01 -0.23795900165E+03  0.23815717932E+03  0.10566000000E+00 0.  1.
         14    1    4    4    0    0 -0.48716284243E+00  0.21731876256E+01 -0.59065684242E+02  0.59107657093E+02  0.00000000000E+00 0. -1.
<mgrwt>
<rscale>  0 0.86037981E+02</rscale>
<asrwt>0</asrwt>
<pdfrwt beam="1">  1        2 0.98992331E-01 0.86037981E+02</pdfrwt>
<pdfrwt beam="2">  1       -1 0.44247849E-03 0.86037981E+02</pdfrwt>
<totfact> 0.27103396E+05</totfact>
</mgrwt>
</event>
<event>
 8    1  0.7667702E-014  0.7863123E+02  0.7818608E-02  0.1332981E+00
         -1   -1    0    0    0  501 -0.00000000000E+00  0.00000000000E+00  0.38515991698E+01  0.38516024673E+01  0.50400000000E-02 0.  1.
          2   -1    0    0  501    0  0.00000000000E+00 -0.00000000000E+00 -0.40131823406E+03  0.40131823407E+03  0.25500000000E-02 0. -1.
         24    2    1    2    0    0  0.00000000000E+00 -0.17763568394E-14 -0.39746663489E+03  0.40516983654E+03  0.78631231627E+02 0.  0.
         66    2    3    3    0    0  0.26312588565E+02 -0.11794354820E+02 -0.33637946639E+03  0.33761902276E+03  0.19999991451E+01 0.  0.
        -13    1    3    3    0    0 -0.26312588565E+02  0.11794354820E+02 -0.61087168501E+02  0.67550813778E+02  0.10566000000E+00 0.  1.
         13    1    4    4    0    0  0.49847039058E+01 -0.16034187565E+01 -0.58051944090E+02  0.58287713983E+02  0.10566000000E+00 0. -1.
        -13    1    4    4    0    0  0.31514813463E+01 -0.11453645992E+01 -0.38271147694E+02  0.38417907343E+02  0.10566000000E+00 0.  1.
         14    1    4    4    0    0  0.18176403313E+02 -0.90455714640E+01 -0.24005637461E+03  0.24091340143E+03  0.00000000000E+00 0. -1.
<mgrwt>
<rscale>  0 0.78631232E+02</rscale>
<asrwt>0</asrwt>
<pdfrwt beam="1">  1        2 0.61741234E-01 0.78631232E+02</pdfrwt>
<pdfrwt beam="2">  1       -1 0.59255429E-03 0.78631232E+02</pdfrwt>
<totfact> 0.29589256E+05</totfact>
</mgrwt>
</event>
<event>
 8    1  0.7667702E-014  0.7906146E+02  0.7818608E-02  0.1331736E+00
          2   -1    0    0  501    0  0.00000000000E+00  0.00000000000E+00  0.12383845459E+04  0.12383845459E+04  0.25500000000E-02 0. -1.
         -1   -1    0    0    0  501 -0.00000000000E+00 -0.00000000000E+00 -0.12618636649E+01  0.12618737299E+01  0.50400000000E-02 0.  1.
         24    2    1    2    0    0  0.00000000000E+00  0.00000000000E+00  0.12371226823E+04  0.12396464197E+04  0.79061462213E+02 0.  0.
         66    2    3    3    0    0 -0.76288972991E+01 -0.18701202874E+02  0.11513074988E+04  0.11514863837E+04  0.19999999031E+01 0.  0.
        -13    1    3    3    0    0  0.76288972991E+01  0.18701202874E+02  0.85815183444E+02  0.88160035938E+02  0.10566000000E+00 0.  1.
         13    1    4    4    0    0 -0.27624899385E+01 -0.58287853112E+01  0.35399201798E+03  0.35405079586E+03  0.10566000000E+00 0. -1.
        -13    1    4    4    0    0 -0.34280127660E+01 -0.89602553439E+01  0.51533694614E+03  0.51542624756E+03  0.10566000000E+00 0.  1.
         14    1    4    4    0    0 -0.14383945945E+01 -0.39121622188E+01  0.28197853469E+03  0.28200934030E+03  0.00000000000E+00 0. -1.
<mgrwt>
<rscale>  0 0.79061462E+02</rscale>
<asrwt>0</asrwt>
<pdfrwt beam="1">  1        2 0.19052087E+00 0.79061462E+02</pdfrwt>
<pdfrwt beam="2">  1       -1 0.19413348E-03 0.79061462E+02</pdfrwt>
<totfact> 0.35984704E+05</totfact>
</mgrwt>
</event>
<event>
 8    1  0.7667702E-014  0.7808169E+02  0.7818608E-02  0.1334585E+00
          2   -1    0    0  501    0  0.00000000000E+00  0.00000000000E+00  0.26359757647E+03  0.26359757648E+03  0.25500000000E-02 0. -1.
         -1   -1    0    0    0  501 -0.00000000000E+00 -0.00000000000E+00 -0.57822510440E+01  0.57822532405E+01  0.50400000000E-02 0.  1.
         24    2    1    2    0    0  0.00000000000E+00  0.00000000000E+00  0.25781532543E+03  0.26937982972E+03  0.78081692073E+02 0.  0.
         66    2    3    3    0    0 -0.18886592258E+02  0.23160670039E+02  0.21552123018E+03  0.21759255657E+03  0.20000033494E+01 0.  0.
        -13    1    3    3    0    0  0.18886592258E+02 -0.23160670039E+02  0.42294095251E+02  0.51787273156E+02  0.10566000000E+00 0.  1.
         13    1    4    4    0    0 -0.46731244994E+01  0.49246767743E+01  0.47671927570E+02  0.48153030810E+02  0.10566000000E+00 0. -1.
        -13    1    4    4    0    0 -0.13969914409E+02  0.18130948530E+02  0.16549611345E+03  0.16707143542E+03  0.10566000000E+00 0.  1.
        -14    1    4    4    0    0 -0.24355334934E+00  0.10504473506E+00  0.23531891594E+01  0.23680903383E+01  0.00000000000E+00 0.  1.
<mgrwt>
<rscale>  0 0.78081692E+02</rscale>
<asrwt>0</asrwt>
<pdfrwt beam="1">  1        2 0.40553475E-01 0.78081692E+02</pdfrwt>
<pdfrwt beam="2">  1       -1 0.88957722E-03 0.78081692E+02</pdfrwt>
<totfact> 0.25927179E+05</totfact>
</mgrwt>
</event>
<event>
 8    1  0.7667702E-014  0.7833143E+02  0.7818608E-02  0.1333854E+00
          2   -1    0    0  501    0  0.00000000000E+00  0.00000000000E+00  0.70642637611E+03  0.70642637611E+03  0.25500000000E-02 0. -1.
         -1   -1    0    0    0  501 -0.00000000000E+00 -0.00000000000E+00 -0.21714241132E+01  0.21714299622E+01  0.50400000000E-02 0.  1.
         24    2    1    2    0    0  0.00000000000E+00  0.00000000000E+00  0.70425495200E+03  0.70859780608E+03  0.78331432802E+02 0.  0.
         66    2    3    3    0    0 -0.34717811203E+02 -0.10262513932E+02  0.48692915888E+03  0.48827722800E+03  0.20000018176E+01 0.  0.
        -13    1    3    3    0    0  0.34717811203E+02  0.10262513932E+02  0.21732579311E+03  0.22032057807E+03  0.10566000000E+00 0.  1.
         13    1    4    4    0    0 -0.60041559436E+01 -0.21013834790E+01  0.82724416627E+02  0.82968704771E+02  0.10566000000E+00 0. -1.
        -13    1    4    4    0    0 -0.24197189279E+01 -0.25695668488E+00  0.32895257939E+02  0.32985303172E+02  0.10566000000E+00 0.  1.
         14    1    4    4    0    0 -0.26293936331E+02 -0.79041737685E+01  0.37130948432E+03  0.37232322006E+03  0.00000000000E+00 0. -1.
<mgrwt>
<rscale>  0 0.78331433E+02</rscale>
<asrwt>0</asrwt>
<pdfrwt beam="1">  1        2 0.10868120E+00 0.78331433E+02</pdfrwt>
<pdfrwt beam="2">  1       -1 0.33406502E-03 0.78331433E+02</pdfrwt>
<totfact> 0.35407009E+05</totfact>
</mgrwt>
</event>
<event>
 8    1  0.7667702E-014  0.7091423E+02  0.7818608E-02  0.1357011E+00
          2   -1    0    0  501    0  0.00000000000E+00  0.00000000000E+00  0.49749025087E+02  0.49749025153E+02  0.25500000000E-02 0. -1.
         -1   -1    0    0    0  501 -0.00000000000E+00 -0.00000000000E+00 -0.25270984595E+02  0.25270985098E+02  0.50400000000E-02 0.  1.
         24    2    1    2    0    0 -0.17763568394E-14 -0.44408920985E-15  0.24478040492E+02  0.75020010250E+02  0.70914226158E+02 0.  0.
         66    2    3    3    0    0 -0.13627956653E+02 -0.31506381744E+01  0.46684147126E+02  0.48775581140E+02  0.19999998027E+01 0.  0.
        -13    1    3    3    0    0  0.13627956653E+02  0.31506381744E+01 -0.22206106634E+02  0.26244429110E+02  0.10566000000E+00 0.  1.
         13    1    4    4    0    0 -0.50710172739E+01 -0.58341509850E+00  0.15401545144E+02  0.16225730992E+02  0.10566000000E+00 0. -1.
        -13    1    4    4    0    0 -0.25203867392E+01 -0.88542759971E+00  0.11063483238E+02  0.11381922365E+02  0.10566000000E+00 0.  1.
         14    1    4    4    0    0 -0.60365526400E+01 -0.16817954761E+01  0.20219118745E+02  0.21167927783E+02  0.00000000000E+00 0. -1.
<mgrwt>
<rscale>  0 0.70914226E+02</rscale>
<asrwt>0</asrwt>
<pdfrwt beam="1">  1        2 0.76536961E-02 0.70914226E+02</pdfrwt>
<pdfrwt beam="2">  1       -1 0.38878439E-02 0.70914226E+02</pdfrwt>
<totfact> 0.20702516E+05</totfact>
</mgrwt>
</event>
<event>
 8    1  0.7667702E-014  0.8000392E+02  0.7818608E-02  0.1329040E+00
          2   -1    0    0  501    0  0.00000000000E+00  0.00000000000E+00  0.56404980629E+02  0.56404980687E+02  0.25500000000E-02 0. -1.
         -1   -1    0    0    0  501 -0.00000000000E+00 -0.00000000000E+00 -0.28369067657E+02  0.28369068104E+02  0.50400000000E-02 0.  1.
         24    2    1    2    0    0  0.00000000000E+00  0.00000000000E+00  0.28035912973E+02  0.84774048791E+02  0.80003918230E+02 0.  0.
         66    2    3    3    0    0  0.11235825378E+02 -0.12110213455E+02  0.52601226944E+02  0.55170554802E+02  0.19999998222E+01 0.  0.
        -13    1    3    3    0    0 -0.11235825378E+02  0.12110213455E+02 -0.24565313971E+02  0.29603493989E+02  0.10566000000E+00 0.  1.
         13    1    4    4    0    0  0.36104418201E+01 -0.45208127787E+01  0.19344531266E+02  0.20191460874E+02  0.10566000000E+00 0. -1.
        -13    1    4    4    0    0  0.32003032077E+01 -0.39713723436E+01  0.14533224171E+02  0.15402581204E+02  0.10566000000E+00 0.  1.
         14    1    4    4    0    0  0.44250803505E+01 -0.36180283329E+01  0.18723471507E+02  0.19576512723E+02  0.00000000000E+00 0. -1.
<mgrwt>
<rscale>  0 0.80003918E+02</rscale>
<asrwt>0</asrwt>
<pdfrwt beam="1">  1        2 0.86776893E-02 0.80003918E+02</pdfrwt>
<pdfrwt beam="2">  1       -1 0.43644720E-02 0.80003918E+02</pdfrwt>
<totfact> 0.15345871E+05</totfact>
</mgrwt>
</event>
<event>
 8    1  0.7667702E-014  0.7866787E+02  0.7818608E-02  0.1332875E+00
         -1   -1    0    0    0  501 -0.00000000000E+00  0.00000000000E+00  0.33109891518E+02  0.33109891902E+02  0.50400000000E-02 0.  1.
          2   -1    0    0  501    0  0.00000000000E+00 -0.00000000000E+00 -0.46727978205E+02  0.46727978274E+02  0.25500000000E-02 0. -1.
         24    2    1    2    0    0  0.00000000000E+00  0.35527136788E-14 -0.13618086687E+02  0.79837870176E+02  0.78667866561E+02 0.  0.
         66    2    3    3    0    0  0.19732528648E+02 -0.27544698588E+02 -0.27036416605E+02  0.43394134789E+02  0.20000010194E+01 0.  0.
        -13    1    3    3    0    0 -0.19732528648E+02  0.27544698588E+02  0.13418329918E+02  0.36443735387E+02  0.10566000000E+00 0.  1.
         13    1    4    4    0    0  0.12012157191E+02 -0.17572042380E+02 -0.17236971390E+02  0.27389650245E+02  0.10566000000E+00 0. -1.
        -13    1    4    4    0    0  0.21472384484E+01 -0.32173544048E+01 -0.25325657331E+01  0.46246140973E+01  0.10566000000E+00 0.  1.
        -14    1    4    4    0    0  0.55731330088E+01 -0.67553018030E+01 -0.72668794816E+01  0.11379870447E+02  0.00000000000E+00 0.  1.
<mgrwt>
<rscale>  0 0.78667867E+02</rscale>
<asrwt>0</asrwt>
<pdfrwt beam="1">  1        2 0.71889197E-02 0.78667867E+02</pdfrwt>
<pdfrwt beam="2">  1       -1 0.50938295E-02 0.78667867E+02</pdfrwt>
<totfact> 0.15420815E+05</totfact>
</mgrwt>
</event>
<event>
 8    1  0.7667702E-014  0.8029496E+02  0.7818608E-02  0.1328216E+00
          2   -1    0    0  501    0  0.00000000000E+00  0.00000000000E+00  0.19814635832E+02  0.19814635996E+02  0.25500000000E-02 0. -1.
         -1   -1    0    0    0  501 -0.00000000000E+00 -0.00000000000E+00 -0.81344929568E+02  0.81344929724E+02  0.50400000000E-02 0.  1.
         24    2    1    2    0    0 -0.88817841970E-15  0.00000000000E+00 -0.61530293736E+02  0.10115956572E+03  0.80294960548E+02 0.  0.
         66    2    3    3    0    0  0.78223640554E+01  0.36453742932E+02 -0.12108193960E+02  0.39251409041E+02  0.19999993895E+01 0.  0.
        -13    1    3    3    0    0 -0.78223640554E+01 -0.36453742932E+02 -0.49422099776E+02  0.61908156679E+02  0.10566000000E+00 0.  1.
         13    1    4    4    0    0  0.35484828935E+01  0.14107940409E+02 -0.40135750201E+01  0.15091244545E+02  0.10566000000E+00 0. -1.
        -13    1    4    4    0    0  0.21078927242E+00  0.93463845980E+00 -0.46243686104E+00  0.10691085324E+01  0.10566000000E+00 0.  1.
         14    1    4    4    0    0  0.40630918895E+01  0.21411164063E+02 -0.76321820788E+01  0.23091055963E+02  0.00000000000E+00 0. -1.
<mgrwt>
<rscale>  0 0.80294961E+02</rscale>
<asrwt>0</asrwt>
<pdfrwt beam="1">  1        2 0.30484056E-02 0.80294961E+02</pdfrwt>
<pdfrwt beam="2">  1       -1 0.12514604E-01 0.80294961E+02</pdfrwt>
<totfact> 0.12261904E+05</totfact>
</mgrwt>
</event>
<event>
 8    1  0.7667702E-014  0.8141986E+02  0.7818608E-02  0.1325070E+00
          2   -1    0    0  501    0  0.00000000000E+00  0.00000000000E+00  0.42794965792E+02  0.42794965868E+02  0.25500000000E-02 0. -1.
         -1   -1    0    0    0  501 -0.00000000000E+00 -0.00000000000E+00 -0.38726479166E+02  0.38726479494E+02  0.50400000000E-02 0.  1.
         24    2    1    2    0    0 -0.35527136788E-14  0.35527136788E-14  0.40684866260E+01  0.81521445362E+02  0.81419859190E+02 0.  0.
         66    2    3    3    0    0  0.15939378297E+02 -0.14717791550E+02  0.36496664549E+02  0.42505101914E+02  0.19999992421E+01 0.  0.
        -13    1    3    3    0    0 -0.15939378297E+02  0.14717791550E+02 -0.32428177923E+02  0.39016343448E+02  0.10566000000E+00 0.  1.
         13    1    4    4    0    0  0.42845704720E+01 -0.34066936384E+01  0.86629547361E+01  0.10247978067E+02  0.10566000000E+00 0. -1.
        -13    1    4    4    0    0  0.41287537194E+01 -0.48882777998E+01  0.11486627305E+02  0.13148978591E+02  0.10566000000E+00 0.  1.
        -14    1    4    4    0    0  0.75260541052E+01 -0.64228201122E+01  0.16347082508E+02  0.19108145255E+02  0.00000000000E+00 0.  1.
<mgrwt>
<rscale>  0 0.81419859E+02</rscale>
<asrwt>0</asrwt>
<pdfrwt beam="1">  1        2 0.65838409E-02 0.81419859E+02</pdfrwt>
<pdfrwt beam="2">  1       -1 0.59579199E-02 0.81419859E+02</pdfrwt>
<totfact> 0.13770803E+05</totfact>
</mgrwt>
</event>
<event>
 8    1  0.7667702E-014  0.8102730E+02  0.7818608E-02  0.1326161E+00
         -1   -1    0    0    0  501 -0.00000000000E+00  0.00000000000E+00  0.11601948574E+03  0.11601948585E+03  0.50400000000E-02 0.  1.
          2   -1    0    0  501    0  0.00000000000E+00 -0.00000000000E+00 -0.14147243350E+02  0.14147243579E+02  0.25500000000E-02 0. -1.
         24    2    1    2    0    0  0.35527136788E-14  0.00000000000E+00  0.10187224239E+03  0.13016672942E+03  0.81027302067E+02 0.  0.
         66    2    3    3    0    0 -0.21766230932E+02  0.18972463732E+02  0.53701141813E+01  0.29437413428E+02  0.19999984908E+01 0.  0.
        -13    1    3    3    0    0  0.21766230932E+02 -0.18972463732E+02  0.96502128205E+02  0.10072931600E+03  0.10566000000E+00 0.  1.
         13    1    4    4    0    0 -0.12308417192E+02  0.11489978043E+02  0.26228589418E+01  0.17041340389E+02  0.10566000000E+00 0. -1.
        -13    1    4    4    0    0 -0.85257317580E+01  0.65826253999E+01  0.26726594177E+01  0.11098348146E+02  0.10566000000E+00 0.  1.
        -14    1    4    4    0    0 -0.93208198200E+00  0.89986028962E+00  0.74595821823E-01  0.12977248933E+01  0.00000000000E+00 0.  1.
<mgrwt>
<rscale>  0 0.81027302E+02</rscale>
<asrwt>0</asrwt>
<pdfrwt beam="1">  1        2 0.21764989E-02 0.81027302E+02</pdfrwt>
<pdfrwt beam="2">  1       -1 0.17849153E-01 0.81027302E+02</pdfrwt>
<totfact> 0.11110966E+05</totfact>
</mgrwt>
</event>
<event>
 8    1  0.7667702E-014  0.8119958E+02  0.7818608E-02  0.1325681E+00
         -1   -1    0    0    0  501 -0.00000000000E+00  0.00000000000E+00  0.10343912272E+01  0.10344035056E+01  0.50400000000E-02 0.  1.
          2   -1    0    0  501    0  0.00000000000E+00 -0.00000000000E+00 -0.15935295948E+04  0.15935295948E+04  0.25500000000E-02 0. -1.
         24    2    1    2    0    0  0.17763568394E-14 -0.17763568394E-14 -0.15924952036E+04  0.15945639984E+04  0.81199576948E+02 0.  0.
         66    2    3    3    0    0  0.13479493168E+02  0.10847286831E+02 -0.15174522688E+04  0.15175522226E+04  0.20000001799E+01 0.  0.
        -13    1    3    3    0    0 -0.13479493168E+02 -0.10847286831E+02 -0.75042934847E+02  0.77011775737E+02  0.10566000000E+00 0.  1.
         13    1    4    4    0    0  0.70849886036E+01  0.59615592654E+01 -0.78454844303E+03  0.78460308939E+03  0.10566000000E+00 0. -1.
        -13    1    4    4    0    0  0.21200249222E+01  0.10865081318E+01 -0.25287439805E+03  0.25288564087E+03  0.10566000000E+00 0.  1.
        -14    1    4    4    0    0  0.42744796423E+01  0.37992194335E+01 -0.48002942769E+03  0.48006349236E+03  0.00000000000E+00 0.  1.
<mgrwt>
<rscale>  0 0.81199577E+02</rscale>
<asrwt>0</asrwt>
<pdfrwt beam="1">  1        2 0.24515644E+00 0.81199577E+02</pdfrwt>
<pdfrwt beam="2">  1       -1 0.15913933E-03 0.81199577E+02</pdfrwt>
<totfact> 0.31182364E+05</totfact>
</mgrwt>
</event>
<event>
 8    1  0.7667702E-014  0.7673576E+02  0.7818608E-02  0.1338579E+00
          2   -1    0    0  501    0  0.00000000000E+00  0.00000000000E+00  0.11951066385E+04  0.11951066385E+04  0.25500000000E-02 0. -1.
         -1   -1    0    0    0  501 -0.00000000000E+00 -0.00000000000E+00 -0.12317630358E+01  0.12317733468E+01  0.50400000000E-02 0.  1.
         24    2    1    2    0    0  0.00000000000E+00  0.00000000000E+00  0.11938748755E+04  0.11963384119E+04  0.76735763513E+02 0.  0.
         66    2    3    3    0    0 -0.91238067553E+01 -0.56181864942E+01  0.11712877581E+04  0.11713384738E+04  0.19999961137E+01 0.  0.
        -13    1    3    3    0    0  0.91238067553E+01  0.56181864942E+01  0.22587117356E+02  0.24999938074E+02  0.10566000000E+00 0.  1.
         13    1    4    4    0    0 -0.43917751930E+01 -0.25462486878E+01  0.52083836670E+03  0.52086311682E+03  0.10566000000E+00 0. -1.
        -13    1    4    4    0    0 -0.42482886754E+01 -0.26053290149E+01  0.61015302161E+03  0.61017338244E+03  0.10566000000E+00 0.  1.
        -14    1    4    4    0    0 -0.48374288687E+00 -0.46660879149E+00  0.40296369808E+02  0.40301974526E+02  0.00000000000E+00 0.  1.
<mgrwt>
<rscale>  0 0.76735764E+02</rscale>
<asrwt>0</asrwt>
<pdfrwt beam="1">  1        2 0.18386255E+00 0.76735764E+02</pdfrwt>
<pdfrwt beam="2">  1       -1 0.18950281E-03 0.76735764E+02</pdfrwt>
<totfact> 0.39048267E+05</totfact>
</mgrwt>
</event>
<event>
 8    1  0.7667702E-014  0.8005973E+02  0.7818608E-02  0.1328882E+00
         -1   -1    0    0    0  501 -0.00000000000E+00  0.00000000000E+00  0.33768033475E+02  0.33768033851E+02  0.50400000000E-02 0.  1.
          2   -1    0    0  501    0  0.00000000000E+00 -0.00000000000E+00 -0.47452867097E+02  0.47452867165E+02  0.25500000000E-02 0. -1.
         24    2    1    2    0    0 -0.35527136788E-14  0.35527136788E-14 -0.13684833621E+02  0.81220901017E+02  0.80059728270E+02 0.  0.
         66    2    3    3    0    0 -0.29727979787E+02  0.23289684593E+02 -0.20237467428E+02  0.42891925495E+02  0.19999985307E+01 0.  0.
        -13    1    3    3    0    0  0.29727979787E+02 -0.23289684593E+02  0.65526338070E+01  0.38328975521E+02  0.10566000000E+00 0.  1.
         13    1    4    4    0    0 -0.69041359410E+00  0.59847616272E+00 -0.70033731322E+00  0.11560627302E+01  0.10566000000E+00 0. -1.
        -13    1    4    4    0    0 -0.12272031257E+02  0.93123086215E+01 -0.89358578734E+01  0.17809619957E+02  0.10566000000E+00 0.  1.
         14    1    4    4    0    0 -0.16765534936E+02  0.13378899809E+02 -0.10601272242E+02  0.23926242808E+02  0.00000000000E+00 0. -1.
<mgrwt>
<rscale>  0 0.80059728E+02</rscale>
<asrwt>0</asrwt>
<pdfrwt beam="1">  1        2 0.73004411E-02 0.80059728E+02</pdfrwt>
<pdfrwt beam="2">  1       -1 0.51950821E-02 0.80059728E+02</pdfrwt>
<totfact> 0.14744942E+05</totfact>
</mgrwt>
</event>
<event>
 8    1  0.7667702E-014  0.7972635E+02  0.7818608E-02  0.1329830E+00
          2   -1    0    0  501    0  0.00000000000E+00  0.00000000000E+00  0.43501120803E+03  0.43501120804E+03  0.25500000000E-02 0. -1.
         -1   -1    0    0    0  501 -0.00000000000E+00 -0.00000000000E+00 -0.36529452182E+01  0.36529486950E+01  0.50400000000E-02 0.  1.
         24    2    1    2    0    0  0.17763568394E-14  0.00000000000E+00  0.43135826281E+03  0.43866415673E+03  0.79726353897E+02 0.  0.
         66    2    3    3    0    0  0.11360515524E+02  0.38163353116E+02  0.22269783477E+03  0.22623843271E+03  0.19999968823E+01 0.  0.
        -13    1    3    3    0    0 -0.11360515524E+02 -0.38163353116E+02  0.20866042804E+03  0.21242572402E+03  0.10566000000E+00 0.  1.
         13    1    4    4    0    0  0.50831328642E+01  0.16240741376E+02  0.94118240611E+02  0.95644415937E+02  0.10566000000E+00 0. -1.
        -13    1    4    4    0    0  0.17336628631E+01  0.45166894534E+01  0.25043474762E+02  0.25506721913E+02  0.10566000000E+00 0.  1.
         14    1    4    4    0    0  0.45437197963E+01  0.17405922286E+02  0.10353611940E+03  0.10508729486E+03  0.00000000000E+00 0. -1.
<mgrwt>
<rscale>  0 0.79726354E+02</rscale>
<asrwt>0</asrwt>
<pdfrwt beam="1">  1        2 0.66924746E-01 0.79726354E+02</pdfrwt>
<pdfrwt beam="2">  1       -1 0.56199231E-03 0.79726354E+02</pdfrwt>
<totfact> 0.29344826E+05</totfact>
</mgrwt>
</event>
<event>
 8    1  0.7667702E-014  0.8121554E+02  0.7818608E-02  0.1325637E+00
         -1   -1    0    0    0  501 -0.00000000000E+00  0.00000000000E+00  0.25454283010E+01  0.25454332906E+01  0.50400000000E-02 0.  1.
          2   -1    0    0  501    0  0.00000000000E+00 -0.00000000000E+00 -0.64782387614E+03  0.64782387615E+03  0.25500000000E-02 0. -1.
         24    2    1    2    0    0 -0.35527136788E-14 -0.35527136788E-14 -0.64527844784E+03  0.65036930944E+03  0.81215536755E+02 0.  0.
         66    2    3    3    0    0 -0.19219745507E+02 -0.17615778394E+02 -0.57188926486E+03  0.57248672083E+03  0.19999992675E+01 0.  0.
        -13    1    3    3    0    0  0.19219745507E+02  0.17615778394E+02 -0.73389182979E+02  0.77882588607E+02  0.10566000000E+00 0.  1.
         13    1    4    4    0    0 -0.89695834136E+01 -0.84040252614E+01 -0.26462637277E+03  0.26491170113E+03  0.10566000000E+00 0. -1.
        -13    1    4    4    0    0 -0.89033959451E+01 -0.76559611934E+01 -0.27019399174E+03  0.27044904980E+03  0.10566000000E+00 0.  1.
         14    1    4    4    0    0 -0.13467661483E+01 -0.15557919396E+01 -0.37068900351E+02  0.37125969897E+02  0.00000000000E+00 0. -1.
<mgrwt>
<rscale>  0 0.81215537E+02</rscale>
<asrwt>0</asrwt>
<pdfrwt beam="1">  1        2 0.99665081E-01 0.81215537E+02</pdfrwt>
<pdfrwt beam="2">  1       -1 0.39160525E-03 0.81215537E+02</pdfrwt>
<totfact> 0.31565704E+05</totfact>
</mgrwt>
</event>
<event>
 8    1  0.7667702E-014  0.8410658E+02  0.7818608E-02  0.1317786E+00
          2   -1    0    0  501    0  0.00000000000E+00  0.00000000000E+00  0.26022170308E+03  0.26022170309E+03  0.25500000000E-02 0. -1.
         -1   -1    0    0    0  501 -0.00000000000E+00 -0.00000000000E+00 -0.67960464073E+01  0.67960482762E+01  0.50400000000E-02 0.  1.
         24    2    1    2    0    0  0.00000000000E+00  0.00000000000E+00  0.25342565667E+03  0.26701775137E+03  0.84106575760E+02 0.  0.
         66    2    3    3    0    0  0.57109906386E+01 -0.40148670326E+02  0.16184237805E+03  0.16685768332E+03  0.20000022852E+01 0.  0.
        -13    1    3    3    0    0 -0.57109906386E+01  0.40148670326E+02  0.91583278626E+02  0.10016006805E+03  0.10566000000E+00 0.  1.
         13    1    4    4    0    0  0.13522656226E+01 -0.95036886341E+01  0.39545922060E+02  0.40694469349E+02  0.10566000000E+00 0. -1.
        -13    1    4    4    0    0  0.34288199460E+01 -0.26162803110E+02  0.10614463774E+03  0.10937524564E+03  0.10566000000E+00 0.  1.
        -14    1    4    4    0    0  0.92990506998E+00 -0.44821785811E+01  0.16151818246E+02  0.16787968338E+02  0.00000000000E+00 0.  1.
<mgrwt>
<rscale>  0 0.84106576E+02</rscale>
<asrwt>0</asrwt>
<pdfrwt beam="1">  1        2 0.40034104E-01 0.84106576E+02</pdfrwt>
<pdfrwt beam="2">  1       -1 0.10455459E-02 0.84106576E+02</pdfrwt>
<totfact> 0.21223480E+05</totfact>
</mgrwt>
</event>
<event>
 8    1  0.7667702E-014  0.8215615E+02  0.7818608E-02  0.1323042E+00
         -1   -1    0    0    0  501 -0.00000000000E+00  0.00000000000E+00  0.37169907773E+02  0.37169908115E+02  0.50400000000E-02 0.  1.
          2   -1    0    0  501    0  0.00000000000E+00 -0.00000000000E+00 -0.45397158084E+02  0.45397158155E+02  0.25500000000E-02 0. -1.
         24    2    1    2    0    0 -0.71054273576E-14  0.00000000000E+00 -0.82272503102E+01  0.82567066270E+02  0.82156148795E+02 0.  0.
         66    2    3    3    0    0 -0.39231779535E+02 -0.62303962349E+01 -0.14533849347E+02  0.42345993209E+02  0.20000003237E+01 0.  0.
        -13    1    3    3    0    0  0.39231779535E+02  0.62303962349E+01  0.63065990366E+01  0.40221073061E+02  0.10566000000E+00 0.  1.
         13    1    4    4    0    0 -0.29006225351E+02 -0.50471627074E+01 -0.10891451385E+02  0.31392193899E+02  0.10566000000E+00 0. -1.
        -13    1    4    4    0    0 -0.17108571508E+01 -0.22345484997E+00 -0.29027522982E+00  0.17528228675E+01  0.10566000000E+00 0.  1.
        -14    1    4    4    0    0 -0.85146970338E+01 -0.95977867746E+00 -0.33521227325E+01  0.92009764428E+01  0.00000000000E+00 0.  1.
<mgrwt>
<rscale>  0 0.82156149E+02</rscale>
<asrwt>0</asrwt>
<pdfrwt beam="1">  1        2 0.69841782E-02 0.82156149E+02</pdfrwt>
<pdfrwt beam="2">  1       -1 0.57184474E-02 0.82156149E+02</pdfrwt>
<totfact> 0.13602328E+05</totfact>
</mgrwt>
</event>
<event>
 8    1  0.7667702E-014  0.7901447E+02  0.7818608E-02  0.1331872E+00
          2   -1    0    0  501    0  0.00000000000E+00  0.00000000000E+00  0.55485679644E+02  0.55485679703E+02  0.25500000000E-02 0. -1.
         -1   -1    0    0    0  501 -0.00000000000E+00 -0.00000000000E+00 -0.28130169341E+02  0.28130169793E+02  0.50400000000E-02 0.  1.
         24    2    1    2    0    0  0.00000000000E+00  0.00000000000E+00  0.27355510303E+02  0.83615849496E+02  0.79014469200E+02 0.  0.
         66    2    3    3    0    0  0.21895653940E+02 -0.18904515654E+02  0.42121640409E+02  0.51137393007E+02  0.19999998053E+01 0.  0.
        -13    1    3    3    0    0 -0.21895653940E+02  0.18904515654E+02 -0.14766130106E+02  0.32478456489E+02  0.10566000000E+00 0.  1.
         13    1    4    4    0    0  0.68345288371E+01 -0.52078794528E+01  0.13588393760E+02  0.16077574501E+02  0.10566000000E+00 0. -1.
        -13    1    4    4    0    0  0.52196299152E+01 -0.42659714838E+01  0.94946689673E+01  0.11644868054E+02  0.10566000000E+00 0.  1.
        -14    1    4    4    0    0  0.98414951878E+01 -0.94306647175E+01  0.19038577681E+02  0.23414950452E+02  0.00000000000E+00 0.  1.
<mgrwt>
<rscale>  0 0.79014469E+02</rscale>
<asrwt>0</asrwt>
<pdfrwt beam="1">  1        2 0.85362583E-02 0.79014469E+02</pdfrwt>
<pdfrwt beam="2">  1       -1 0.43277185E-02 0.79014469E+02</pdfrwt>
<totfact> 0.15816730E+05</totfact>
</mgrwt>
</event>
<event>
 8    1  0.7667702E-014  0.8012091E+02  0.7818608E-02  0.1328709E+00
         -1   -1    0    0    0  501 -0.00000000000E+00  0.00000000000E+00  0.97765267309E+02  0.97765267439E+02  0.50400000000E-02 0.  1.
          2   -1    0    0  501    0  0.00000000000E+00 -0.00000000000E+00 -0.16415238508E+02  0.16415238706E+02  0.25500000000E-02 0. -1.
         24    2    1    2    0    0  0.71054273576E-14 -0.17763568394E-14  0.81350028801E+02  0.11418050614E+03  0.80120913609E+02 0.  0.
         66    2    3    3    0    0  0.37188464022E+02  0.10116951671E+02  0.25252503099E+02  0.46119664824E+02  0.20000008067E+01 0.  0.
        -13    1    3    3    0    0 -0.37188464022E+02 -0.10116951671E+02  0.56097525702E+02  0.68060841321E+02  0.10566000000E+00 0.  1.
         13    1    4    4    0    0  0.42838734078E+01  0.77584789946E+00  0.26698257853E+01  0.51080960344E+01  0.10566000000E+00 0. -1.
        -13    1    4    4    0    0  0.14404374766E+02  0.40529013901E+01  0.90471141116E+01  0.17486379267E+02  0.10566000000E+00 0.  1.
         14    1    4    4    0    0  0.18500215848E+02  0.52882023818E+01  0.13535563202E+02  0.23525189522E+02  0.00000000000E+00 0. -1.
<mgrwt>
<rscale>  0 0.80120914E+02</rscale>
<asrwt>0</asrwt>
<pdfrwt beam="1">  1        2 0.25254214E-02 0.80120914E+02</pdfrwt>
<pdfrwt beam="2">  1       -1 0.15040810E-01 0.80120914E+02</pdfrwt>
<totfact> 0.11865633E+05</totfact>
</mgrwt>
</event>
<event>
 8    1  0.7667702E-014  0.7931291E+02  0.7818608E-02  0.1331013E+00
         -1   -1    0    0    0  501 -0.00000000000E+00  0.00000000000E+00  0.42965111284E+01  0.42965140844E+01  0.50400000000E-02 0.  1.
          2   -1    0    0  501    0  0.00000000000E+00 -0.00000000000E+00 -0.36602578418E+03  0.36602578419E+03  0.25500000000E-02 0. -1.
         24    2    1    2    0    0  0.00000000000E+00  0.00000000000E+00 -0.36172927306E+03  0.37032229828E+03  0.79312909517E+02 0.  0.
         66    2    3    3    0    0 -0.69549168051E+01 -0.15600408101E+02 -0.34795448478E+03  0.34837920012E+03  0.19999992050E+01 0.  0.
        -13    1    3    3    0    0  0.69549168051E+01  0.15600408101E+02 -0.13774788276E+02  0.21943098158E+02  0.10566000000E+00 0.  1.
         13    1    4    4    0    0 -0.12497343674E+01 -0.20895619023E+01 -0.47692856998E+02  0.47755082217E+02  0.10566000000E+00 0. -1.
        -13    1    4    4    0    0 -0.20421830673E+01 -0.53002649426E+01 -0.13253368610E+03  0.13265538978E+03  0.10566000000E+00 0.  1.
         14    1    4    4    0    0 -0.36629993704E+01 -0.82105812562E+01 -0.16772794168E+03  0.16796872813E+03  0.00000000000E+00 0. -1.
<mgrwt>
<rscale>  0 0.79312910E+02</rscale>
<asrwt>0</asrwt>
<pdfrwt beam="1">  1        2 0.56311635E-01 0.79312910E+02</pdfrwt>
<pdfrwt beam="2">  1       -1 0.66100223E-03 0.79312910E+02</pdfrwt>
<totfact> 0.28006701E+05</totfact>
</mgrwt>
</event>
<event>
 8    1  0.7667702E-014  0.8058141E+02  0.7818608E-02  0.1327410E+00
         -1   -1    0    0    0  501 -0.00000000000E+00  0.00000000000E+00  0.55104591353E+01  0.55104614402E+01  0.50400000000E-02 0.  1.
          2   -1    0    0  501    0  0.00000000000E+00 -0.00000000000E+00 -0.29459259613E+03  0.29459259614E+03  0.25500000000E-02 0. -1.
         24    2    1    2    0    0  0.00000000000E+00  0.00000000000E+00 -0.28908213700E+03  0.30010305758E+03  0.80581407534E+02 0.  0.
         66    2    3    3    0    0 -0.23389516260E+02 -0.12705392754E+02 -0.25715064385E+03  0.25853229990E+03  0.19999956734E+01 0.  0.
        -13    1    3    3    0    0  0.23389516260E+02  0.12705392754E+02 -0.31931493150E+02  0.41570757687E+02  0.10566000000E+00 0.  1.
         13    1    4    4    0    0 -0.14242769362E+02 -0.77973881605E+01 -0.16272144692E+03  0.16352961870E+03  0.10566000000E+00 0. -1.
        -13    1    4    4    0    0 -0.12121543960E+00 -0.34183295429E-01 -0.13290934220E+01  0.13392218041E+01  0.10566000000E+00 0. -1.
         14    1    4    4    0    0 -0.90255314584E+01 -0.48738212979E+01 -0.93100103506E+02  0.93663459391E+02  0.00000000000E+00 0. -1.
<mgrwt>
<rscale>  0 0.80581408E+02</rscale>
<asrwt>0</asrwt>
<pdfrwt beam="1">  1        2 0.45321926E-01 0.80581408E+02</pdfrwt>
<pdfrwt beam="2">  1       -1 0.84776336E-03 0.80581408E+02</pdfrwt>
<totfact> 0.24850510E+05</totfact>
</mgrwt>
</event>
<event>
 8    1  0.8125587E-014  0.8971356E+02  0.7818608E-02  0.1303547E+00
         -1   -1    0    0    0  501 -0.00000000000E+00  0.00000000000E+00  0.73192565081E+00  0.73194300318E+00  0.50400000000E-02 0.  1.
          2   -1    0    0  501    0  0.00000000000E+00 -0.00000000000E+00 -0.27490591503E+04  0.27490591503E+04  0.25500000000E-02 0. -1.
         24    2    1    2    0    0 -0.88817841970E-15 -0.88817841970E-15 -0.27483272247E+04  0.27497910933E+04  0.89713561227E+02 0.  0.
         66    2    3    3    0    0 -0.76646094200E+01 -0.64609589466E+01 -0.27142648282E+04  0.27142840764E+04  0.19999990077E+01 0.  0.
        -13    1    3    3    0    0  0.76646094200E+01  0.64609589466E+01 -0.34062396496E+02  0.35507016872E+02  0.10566000000E+00 0.  1.
         13    1    4    4    0    0 -0.25883282190E+01 -0.19240847478E+01 -0.74492821502E+03  0.74493520406E+03  0.10566000000E+00 0. -1.
        -13    1    4    4    0    0 -0.32668263190E+01 -0.20026795740E+01 -0.11075910655E+04  0.11075976988E+04  0.10566000000E+00 0.  1.
        -14    1    4    4    0    0 -0.18094548820E+01 -0.25341946248E+01 -0.86174554767E+03  0.86175117360E+03  0.00000000000E+00 0.  1.
<mgrwt>
<rscale>  0 0.89713561E+02</rscale>
<asrwt>0</asrwt>
<pdfrwt beam="1">  1        2 0.42292391E+00 0.89713561E+02</pdfrwt>
<pdfrwt beam="2">  1       -1 0.11260748E-03 0.89713561E+02</pdfrwt>
<totfact> 0.13017519E+05</totfact>
</mgrwt>
</event>
<event>
 8    1  0.7667702E-014  0.7751485E+02  0.7818608E-02  0.1336256E+00
          2   -1    0    0  501    0  0.00000000000E+00  0.00000000000E+00  0.24940022930E+02  0.24940023061E+02  0.25500000000E-02 0. -1.
         -1   -1    0    0    0  501 -0.00000000000E+00 -0.00000000000E+00 -0.60230021018E+02  0.60230021229E+02  0.50400000000E-02 0.  1.
         24    2    1    2    0    0  0.00000000000E+00  0.00000000000E+00 -0.35289998088E+02  0.85170044290E+02  0.77514853282E+02 0.  0.
         66    2    3    3    0    0  0.78845763606E+01  0.15553167924E+02  0.20342924052E+02  0.26868236713E+02  0.20000020512E+01 0.  0.
        -13    1    3    3    0    0 -0.78845763606E+01 -0.15553167924E+02 -0.55632922140E+02  0.58301807577E+02  0.10566000000E+00 0.  1.
         13    1    4    4    0    0  0.53218481989E+01  0.87195098862E+01  0.11954302649E+02  0.15724771438E+02  0.10566000000E+00 0.  1.
        -13    1    4    4    0    0  0.24093242568E+01  0.57931859470E+01  0.73663715765E+01  0.96767991107E+01  0.10566000000E+00 0. -1.
         14    1    4    4    0    0  0.15340390497E+00  0.10404720907E+01  0.10222498270E+01  0.14666661646E+01  0.00000000000E+00 0. -1.
<mgrwt>
<rscale>  0 0.77514853E+02</rscale>
<asrwt>0</asrwt>
<pdfrwt beam="1">  1        2 0.38369267E-02 0.77514853E+02</pdfrwt>
<pdfrwt beam="2">  1       -1 0.92661571E-02 0.77514853E+02</pdfrwt>
<totfact> 0.14183505E+05</totfact>
</mgrwt>
</event>
<event>
 8    1  0.7667702E-014  0.7975120E+02  0.7818608E-02  0.1329759E+00
          2   -1    0    0  501    0  0.00000000000E+00  0.00000000000E+00  0.14103935416E+02  0.14103935646E+02  0.25500000000E-02 0. -1.
         -1   -1    0    0    0  501 -0.00000000000E+00 -0.00000000000E+00 -0.11273898515E+03  0.11273898527E+03  0.50400000000E-02 0.  1.
         24    2    1    2    0    0  0.00000000000E+00  0.00000000000E+00 -0.98635049739E+02  0.12684292091E+03  0.79751197789E+02 0.  0.
         66    2    3    3    0    0  0.62196606341E+01 -0.27453688557E+02 -0.44847320471E+01  0.28574499336E+02  0.19999992439E+01 0.  0.
        -13    1    3    3    0    0 -0.62196606341E+01  0.27453688557E+02 -0.94150317692E+02  0.98268421577E+02  0.10566000000E+00 0.  1.
         13    1    4    4    0    0  0.16732438346E+01 -0.53872023295E+01 -0.60540647596E+00  0.56744493042E+01  0.10566000000E+00 0. -1.
        -13    1    4    4    0    0  0.87698933284E+00 -0.24397782255E+01 -0.63595696778E+00  0.26715601022E+01  0.10566000000E+00 0.  1.
        -14    1    4    4    0    0  0.36694274666E+01 -0.19626708002E+02 -0.32433686033E+01  0.20228489930E+02  0.00000000000E+00 0.  1.
<mgrwt>
<rscale>  0 0.79751198E+02</rscale>
<asrwt>0</asrwt>
<pdfrwt beam="1">  1        2 0.21698363E-02 0.79751198E+02</pdfrwt>
<pdfrwt beam="2">  1       -1 0.17344459E-01 0.79751198E+02</pdfrwt>
<totfact> 0.11636709E+05</totfact>
</mgrwt>
</event>
<event>
 8    1  0.7667702E-014  0.7963809E+02  0.7818608E-02  0.1330082E+00
          2   -1    0    0  501    0  0.00000000000E+00  0.00000000000E+00  0.38191125629E+03  0.38191125629E+03  0.25500000000E-02 0. -1.
         -1   -1    0    0    0  501 -0.00000000000E+00 -0.00000000000E+00 -0.41516337645E+01  0.41516368237E+01  0.50400000000E-02 0.  1.
         24    2    1    2    0    0  0.00000000000E+00  0.00000000000E+00  0.37775962252E+03  0.38606289312E+03  0.79638087843E+02 0.  0.
         66    2    3    3    0    0 -0.35466384885E+02  0.33566831605E+01  0.27495772992E+03  0.27726320532E+03  0.20000006226E+01 0.  0.
        -13    1    3    3    0    0  0.35466384885E+02 -0.33566831605E+01  0.10280189260E+03  0.10879968780E+03  0.10566000000E+00 0.  1.
         13    1    4    4    0    0 -0.14006750360E+02  0.17637508003E+01  0.10672835455E+03  0.10765803594E+03  0.10566000000E+00 0. -1.
        -13    1    4    4    0    0 -0.49270852401E+01  0.54521466217E+00  0.42971381114E+02  0.43256493003E+02  0.10566000000E+00 0.  1.
         14    1    4    4    0    0 -0.16532549286E+02  0.10477176981E+01  0.12525799425E+03  0.12634867637E+03  0.00000000000E+00 0. -1.
<mgrwt>
<rscale>  0 0.79638088E+02</rscale>
<asrwt>0</asrwt>
<pdfrwt beam="1">  1        2 0.58755567E-01 0.79638088E+02</pdfrwt>
<pdfrwt beam="2">  1       -1 0.63871325E-03 0.79638088E+02</pdfrwt>
<totfact> 0.28128905E+05</totfact>
</mgrwt>
</event>
<event>
 8    1  0.7667702E-014  0.7917546E+02  0.7818608E-02  0.1331408E+00
          2   -1    0    0  501    0  0.00000000000E+00  0.00000000000E+00  0.46302361437E+02  0.46302361507E+02  0.25500000000E-02 0. -1.
         -1   -1    0    0    0  501 -0.00000000000E+00 -0.00000000000E+00 -0.33846830272E+02  0.33846830648E+02  0.50400000000E-02 0.  1.
         24    2    1    2    0    0 -0.17763568394E-14  0.88817841970E-15  0.12455531165E+02  0.80149192155E+02  0.79175455455E+02 0.  0.
         66    2    3    3    0    0  0.84446099663E+01 -0.76574083005E+01  0.44582157084E+02  0.46059918235E+02  0.19999995505E+01 0.  0.
        -13    1    3    3    0    0 -0.84446099663E+01  0.76574083005E+01 -0.32126625919E+02  0.34089273920E+02  0.10566000000E+00 0.  1.
         13    1    4    4    0    0  0.22132684087E+01 -0.20152909320E+01  0.10351750190E+02  0.10776356092E+02  0.10566000000E+00 0. -1.
        -13    1    4    4    0    0  0.59020252372E+01 -0.46623363335E+01  0.29975454913E+02  0.30904859542E+02  0.10566000000E+00 0.  1.
         14    1    4    4    0    0  0.32931632049E+00 -0.97978103502E+00  0.42549519807E+01  0.43787026017E+01  0.00000000000E+00 0. -1.
<mgrwt>
<rscale>  0 0.79175455E+02</rscale>
<asrwt>0</asrwt>
<pdfrwt beam="1">  1        2 0.71234402E-02 0.79175455E+02</pdfrwt>
<pdfrwt beam="2">  1       -1 0.52072047E-02 0.79175455E+02</pdfrwt>
<totfact> 0.15121966E+05</totfact>
</mgrwt>
</event>
<event>
 8    1  0.7667702E-014  0.7896057E+02  0.7818608E-02  0.1332027E+00
          2   -1    0    0  501    0  0.00000000000E+00  0.00000000000E+00  0.32604624735E+03  0.32604624736E+03  0.25500000000E-02 0. -1.
         -1   -1    0    0    0  501 -0.00000000000E+00 -0.00000000000E+00 -0.47805865061E+01  0.47805891628E+01  0.50400000000E-02 0.  1.
         24    2    1    2    0    0  0.00000000000E+00  0.00000000000E+00  0.32126566084E+03  0.33082683652E+03  0.78960565640E+02 0.  0.
         66    2    3    3    0    0 -0.18820718548E+02 -0.14732568598E+02  0.29225841991E+03  0.29324094536E+03  0.20000000381E+01 0.  0.
        -13    1    3    3    0    0  0.18820718548E+02  0.14732568598E+02  0.29007240929E+02  0.37585891163E+02  0.10566000000E+00 0.  1.
         13    1    4    4    0    0 -0.37924600090E+01 -0.30184033925E+01  0.55223365214E+02  0.55435771317E+02  0.10566000000E+00 0. -1.
        -13    1    4    4    0    0 -0.55704571531E+00 -0.14794035690E+00  0.59779372546E+01  0.60065867290E+01  0.10566000000E+00 0.  1.
        -14    1    4    4    0    0 -0.14471212824E+02 -0.11566224849E+02  0.23105711745E+03  0.23179858731E+03  0.00000000000E+00 0.  1.
<mgrwt>
<rscale>  0 0.78960566E+02</rscale>
<asrwt>0</asrwt>
<pdfrwt beam="1">  1        2 0.50160960E-01 0.78960566E+02</pdfrwt>
<pdfrwt beam="2">  1       -1 0.73547508E-03 0.78960566E+02</pdfrwt>
<totfact> 0.27187724E+05</totfact>
</mgrwt>
</event>
<event>
 8    1  0.7667702E-014  0.8065314E+02  0.7818608E-02  0.1327208E+00
          2   -1    0    0  501    0  0.00000000000E+00  0.00000000000E+00  0.45897880968E+03  0.45897880968E+03  0.25500000000E-02 0. -1.
         -1   -1    0    0    0  501 -0.00000000000E+00 -0.00000000000E+00 -0.35431511844E+01  0.35431547690E+01  0.50400000000E-02 0.  1.
         24    2    1    2    0    0  0.00000000000E+00  0.00000000000E+00  0.45543565849E+03  0.46252196445E+03  0.80653137415E+02 0.  0.
         66    2    3    3    0    0 -0.18148862423E+02  0.18883860197E+02  0.40351606250E+03  0.40437012016E+03  0.19999988148E+01 0.  0.
        -13    1    3    3    0    0  0.18148862423E+02 -0.18883860197E+02  0.51919595990E+02  0.58151844296E+02  0.10566000000E+00 0.  1.
         13    1    4    4    0    0 -0.10931473360E+02  0.10823336724E+02  0.22543377364E+03  0.22595804741E+03  0.10566000000E+00 0. -1.
        -13    1    4    4    0    0 -0.39581149181E+01  0.46726580453E+01  0.10566377204E+03  0.10584112760E+03  0.10566000000E+00 0.  1.
        -14    1    4    4    0    0 -0.32592741452E+01  0.33878654276E+01  0.72418516829E+02  0.72570945149E+02  0.00000000000E+00 0.  1.
<mgrwt>
<rscale>  0 0.80653137E+02</rscale>
<asrwt>0</asrwt>
<pdfrwt beam="1">  1        2 0.70612129E-01 0.80653137E+02</pdfrwt>
<pdfrwt beam="2">  1       -1 0.54510042E-03 0.80653137E+02</pdfrwt>
<totfact> 0.28991692E+05</totfact>
</mgrwt>
</event>
<event>
 8    1  0.7667702E-014  0.8002754E+02  0.7818608E-02  0.1328973E+00
         -1   -1    0    0    0  501 -0.00000000000E+00  0.00000000000E+00  0.14720342633E+02  0.14720343496E+02  0.50400000000E-02 0.  1.
          2   -1    0    0  501    0  0.00000000000E+00 -0.00000000000E+00 -0.10876795351E+03  0.10876795354E+03  0.25500000000E-02 0. -1.
         24    2    1    2    0    0  0.00000000000E+00  0.00000000000E+00 -0.94047610879E+02  0.12348829704E+03  0.80027535218E+02 0.  0.
         66    2    3    3    0    0  0.38690980799E+02  0.91339672067E+01 -0.40384717926E+02  0.56704027959E+02  0.19999981748E+01 0.  0.
        -13    1    3    3    0    0 -0.38690980799E+02 -0.91339672067E+01 -0.53662892953E+02  0.66784269078E+02  0.10566000000E+00 0.  1.
         13    1    4    4    0    0  0.17577207985E+02  0.34248661830E+01 -0.18495404552E+02  0.25744496548E+02  0.10566000000E+00 0. -1.
        -13    1    4    4    0    0  0.66514541882E+01  0.17046695756E+01 -0.62599379213E+01  0.92922402032E+01  0.10566000000E+00 0.  1.
         14    1    4    4    0    0  0.14462318626E+02  0.40044314480E+01 -0.15629375453E+02  0.21667291208E+02  0.00000000000E+00 0. -1.
<mgrwt>
<rscale>  0 0.80027535E+02</rscale>
<asrwt>0</asrwt>
<pdfrwt beam="1">  1        2 0.16733531E-01 0.80027535E+02</pdfrwt>
<pdfrwt beam="2">  1       -1 0.22646682E-02 0.80027535E+02</pdfrwt>
<totfact> 0.18137824E+05</totfact>
</mgrwt>
</event>
<event>
 8    1  0.7667702E-014  0.8077141E+02  0.7818608E-02  0.1326876E+00
         -1   -1    0    0    0  501 -0.00000000000E+00  0.00000000000E+00  0.24882916368E+01  0.24882967410E+01  0.50400000000E-02 0.  1.
          2   -1    0    0  501    0  0.00000000000E+00 -0.00000000000E+00 -0.65547113059E+03  0.65547113059E+03  0.25500000000E-02 0. -1.
         24    2    1    2    0    0  0.00000000000E+00  0.35527136788E-14 -0.65298283895E+03  0.65795942734E+03  0.80771406159E+02 0.  0.
         66    2    3    3    0    0 -0.86901901657E+01  0.30685354591E+02 -0.52819241831E+03  0.52915814381E+03  0.20000002363E+01 0.  0.
        -13    1    3    3    0    0  0.86901901657E+01 -0.30685354591E+02 -0.12479042064E+03  0.12880128353E+03  0.10566000000E+00 0.  1.
         13    1    4    4    0    0 -0.13247076859E+01  0.49186294349E+01 -0.76866183834E+02  0.77034856703E+02  0.10566000000E+00 0. -1.
        -13    1    4    4    0    0 -0.14343216664E+01  0.61052447276E+01 -0.11419393492E+03  0.11436606677E+03  0.10566000000E+00 0.  1.
         14    1    4    4    0    0 -0.59311608135E+01  0.19661480428E+02 -0.33713229956E+03  0.33775722034E+03  0.00000000000E+00 0. -1.
<mgrwt>
<rscale>  0 0.80771406E+02</rscale>
<asrwt>0</asrwt>
<pdfrwt beam="1">  1        2 0.10084158E+00 0.80771406E+02</pdfrwt>
<pdfrwt beam="2">  1       -1 0.38281501E-03 0.80771406E+02</pdfrwt>
<totfact> 0.32115144E+05</totfact>
</mgrwt>
</event>
<event>
 8    1  0.7667702E-014  0.7569862E+02  0.7818608E-02  0.1341721E+00
          2   -1    0    0  501    0  0.00000000000E+00  0.00000000000E+00  0.96835503241E+01  0.96835506598E+01  0.25500000000E-02 0. -1.
         -1   -1    0    0    0  501 -0.00000000000E+00 -0.00000000000E+00 -0.14793853204E+03  0.14793853213E+03  0.50400000000E-02 0.  1.
         24    2    1    2    0    0  0.00000000000E+00 -0.35527136788E-14 -0.13825498172E+03  0.15762208279E+03  0.75698619620E+02 0.  0.
         66    2    3    3    0    0  0.20109164689E+02 -0.17371692258E+02 -0.13132572322E+02  0.29708898583E+02  0.20000007023E+01 0.  0.
        -13    1    3    3    0    0 -0.20109164689E+02  0.17371692258E+02 -0.12512240939E+03  0.12791318420E+03  0.10566000000E+00 0.  1.
         13    1    4    4    0    0  0.16899667984E+02 -0.14779608406E+02 -0.10967656854E+02  0.24986721744E+02  0.10566000000E+00 0. -1.
        -13    1    4    4    0    0  0.30181342088E+01 -0.21924183340E+01 -0.20752173743E+01  0.42700730017E+01  0.10566000000E+00 0.  1.
         14    1    4    4    0    0  0.19136249566E+00 -0.39966551831E+00 -0.89698093321E-01  0.45210383676E+00  0.00000000000E+00 0. -1.
<mgrwt>
<rscale>  0 0.75698620E+02</rscale>
<asrwt>0</asrwt>
<pdfrwt beam="1">  1        2 0.14897771E-02 0.75698620E+02</pdfrwt>
<pdfrwt beam="2">  1       -1 0.22759773E-01 0.75698620E+02</pdfrwt>
<totfact> 0.12446249E+05</totfact>
</mgrwt>
</event>
<event>
 8    1  0.7667702E-014  0.7184125E+02  0.7818608E-02  0.1353941E+00
         -1   -1    0    0    0  501 -0.00000000000E+00  0.00000000000E+00  0.13487628805E+02  0.13487629747E+02  0.50400000000E-02 0.  1.
          2   -1    0    0  501    0  0.00000000000E+00 -0.00000000000E+00 -0.95664795589E+02  0.95664795623E+02  0.25500000000E-02 0. -1.
         24    2    1    2    0    0  0.00000000000E+00  0.00000000000E+00 -0.82177166783E+02  0.10915242537E+03  0.71841250153E+02 0.  0.
         66    2    3    3    0    0  0.28322271963E+02  0.20973309547E+02 -0.30786966371E+02  0.46838745772E+02  0.20000011685E+01 0.  0.
        -13    1    3    3    0    0 -0.28322271963E+02 -0.20973309547E+02 -0.51390200413E+02  0.62313679598E+02  0.10566000000E+00 0.  1.
         13    1    4    4    0    0  0.68679110245E+01  0.50075606677E+01 -0.66438696408E+01  0.10788699343E+02  0.10566000000E+00 0.  1.
        -13    1    4    4    0    0  0.14254623224E+02  0.10173381683E+02 -0.16428963444E+02  0.24012787884E+02  0.10566000000E+00 0. -1.
        -14    1    4    4    0    0  0.71997377149E+01  0.57923671966E+01 -0.77141332862E+01  0.12037258544E+02  0.00000000000E+00 0.  1.
<mgrwt>
<rscale>  0 0.71841250E+02</rscale>
<asrwt>0</asrwt>
<pdfrwt beam="1">  1        2 0.14717660E-01 0.71841250E+02</pdfrwt>
<pdfrwt beam="2">  1       -1 0.20750200E-02 0.71841250E+02</pdfrwt>
<totfact> 0.23315433E+05</totfact>
</mgrwt>
</event>
<event>
 8    1  0.7667702E-014  0.7839969E+02  0.7818608E-02  0.1333655E+00
          2   -1    0    0  501    0  0.00000000000E+00  0.00000000000E+00  0.64140775753E+02  0.64140775804E+02  0.25500000000E-02 0. -1.
         -1   -1    0    0    0  501 -0.00000000000E+00 -0.00000000000E+00 -0.23957114129E+02  0.23957114659E+02  0.50400000000E-02 0.  1.
         24    2    1    2    0    0  0.00000000000E+00  0.71054273576E-14  0.40183661625E+02  0.88097890463E+02  0.78399691597E+02 0.  0.
         66    2    3    3    0    0 -0.81551985574E+01 -0.36816434321E+02  0.32032312773E+02  0.49517937745E+02  0.19999993352E+01 0.  0.
        -13    1    3    3    0    0  0.81551985574E+01  0.36816434321E+02  0.81513488515E+01  0.38579952718E+02  0.10566000000E+00 0.  1.
         13    1    4    4    0    0 -0.40008119725E+01 -0.20949922903E+02  0.18225906577E+02  0.28055313234E+02  0.10566000000E+00 0. -1.
        -13    1    4    4    0    0 -0.31824839116E+01 -0.12523384382E+02  0.10339385216E+02  0.16549242004E+02  0.10566000000E+00 0.  1.
        -14    1    4    4    0    0 -0.97190267332E+00 -0.33431270356E+01  0.34670209799E+01  0.49133825068E+01  0.00000000000E+00 0.  1.
<mgrwt>
<rscale>  0 0.78399692E+02</rscale>
<asrwt>0</asrwt>
<pdfrwt beam="1">  1        2 0.98678116E-02 0.78399692E+02</pdfrwt>
<pdfrwt beam="2">  1       -1 0.36857099E-02 0.78399692E+02</pdfrwt>
<totfact> 0.16701114E+05</totfact>
</mgrwt>
</event>
<event>
 8    1  0.7667702E-014  0.7901850E+02  0.7818608E-02  0.1331860E+00
          2   -1    0    0  501    0  0.00000000000E+00  0.00000000000E+00  0.65059555889E+02  0.65059555939E+02  0.25500000000E-02 0. -1.
         -1   -1    0    0    0  501 -0.00000000000E+00 -0.00000000000E+00 -0.23993104222E+02  0.23993104751E+02  0.50400000000E-02 0.  1.
         24    2    1    2    0    0 -0.35527136788E-14  0.35527136788E-14  0.41066451667E+02  0.89052660690E+02  0.79018497350E+02 0.  0.
         66    2    3    3    0    0 -0.24688775211E+02  0.21963652216E+02  0.44901689506E+02  0.55786193287E+02  0.20000002264E+01 0.  0.
        -13    1    3    3    0    0  0.24688775211E+02 -0.21963652216E+02 -0.38352378394E+01  0.33266467402E+02  0.10566000000E+00 0.  1.
         13    1    4    4    0    0 -0.28772193240E+00  0.29052015471E+00  0.43444737213E+00  0.60588317804E+00  0.10566000000E+00 0.  1.
        -13    1    4    4    0    0 -0.54099297155E+01  0.41392796819E+01  0.99142976081E+01  0.12029357294E+02  0.10566000000E+00 0.  1.
         14    1    4    4    0    0 -0.18991123563E+02  0.17533852380E+02  0.34552944526E+02  0.43150952815E+02  0.00000000000E+00 0. -1.
<mgrwt>
<rscale>  0 0.79018497E+02</rscale>
<asrwt>0</asrwt>
<pdfrwt beam="1">  1        2 0.10009162E-01 0.79018497E+02</pdfrwt>
<pdfrwt beam="2">  1       -1 0.36912469E-02 0.79018497E+02</pdfrwt>
<totfact> 0.16404183E+05</totfact>
</mgrwt>
</event>
<event>
 8    1  0.7667702E-014  0.8016552E+02  0.7818608E-02  0.1328582E+00
          2   -1    0    0  501    0  0.00000000000E+00  0.00000000000E+00  0.42815116849E+03  0.42815116849E+03  0.25500000000E-02 0. -1.
         -1   -1    0    0    0  501 -0.00000000000E+00 -0.00000000000E+00 -0.37524754114E+01  0.37524787961E+01  0.50400000000E-02 0.  1.
         24    2    1    2    0    0  0.00000000000E+00  0.00000000000E+00  0.42439869307E+03  0.43190364729E+03  0.80165515396E+02 0.  0.
         66    2    3    3    0    0 -0.39466758969E+02 -0.57583861344E+01  0.19228898007E+03  0.19639204650E+03  0.19999987924E+01 0.  0.
        -13    1    3    3    0    0  0.39466758969E+02  0.57583861344E+01  0.23210971300E+03  0.23551160079E+03  0.10566000000E+00 0.  1.
         13    1    4    4    0    0 -0.12422214804E+02 -0.26032171966E+01  0.61468897463E+02  0.62765632951E+02  0.10566000000E+00 0. -1.
        -13    1    4    4    0    0 -0.48412211650E+01 -0.33192534359E+00  0.22247932453E+02  0.22771237544E+02  0.10566000000E+00 0.  1.
         14    1    4    4    0    0 -0.22203323000E+02 -0.28232435942E+01  0.10857215016E+03  0.11085517600E+03  0.00000000000E+00 0. -1.
<mgrwt>
<rscale>  0 0.80165515E+02</rscale>
<asrwt>0</asrwt>
<pdfrwt beam="1">  1        2 0.65869365E-01 0.80165515E+02</pdfrwt>
<pdfrwt beam="2">  1       -1 0.57730458E-03 0.80165515E+02</pdfrwt>
<totfact> 0.28770682E+05</totfact>
</mgrwt>
</event>
<event>
 8    1  0.7667702E-014  0.7910237E+02  0.7818608E-02  0.1331618E+00
          2   -1    0    0  501    0  0.00000000000E+00  0.00000000000E+00  0.73571519879E+03  0.73571519880E+03  0.25500000000E-02 0. -1.
         -1   -1    0    0    0  501 -0.00000000000E+00 -0.00000000000E+00 -0.21262223004E+01  0.21262282738E+01  0.50400000000E-02 0.  1.
         24    2    1    2    0    0  0.00000000000E+00  0.00000000000E+00  0.73358897649E+03  0.73784142707E+03  0.79102370830E+02 0.  0.
         66    2    3    3    0    0 -0.28058907323E+02 -0.85612916281E+01  0.61411378342E+03  0.61481732001E+03  0.20000007500E+01 0.  0.
        -13    1    3    3    0    0  0.28058907323E+02  0.85612916281E+01  0.11947519308E+03  0.12302410707E+03  0.10566000000E+00 0.  1.
         13    1    4    4    0    0 -0.17763660018E+02 -0.50721205206E+01  0.38323697891E+03  0.38368198705E+03  0.10566000000E+00 0. -1.
        -13    1    4    4    0    0 -0.40189646792E+01 -0.19407460809E+01  0.95109980492E+02  0.95214694904E+02  0.10566000000E+00 0.  1.
        -14    1    4    4    0    0 -0.62762826267E+01 -0.15484250266E+01  0.13576682402E+03  0.13592063805E+03  0.00000000000E+00 0.  1.
<mgrwt>
<rscale>  0 0.79102371E+02</rscale>
<asrwt>0</asrwt>
<pdfrwt beam="1">  1        2 0.11318696E+00 0.79102371E+02</pdfrwt>
<pdfrwt beam="2">  1       -1 0.32711155E-03 0.79102371E+02</pdfrwt>
<totfact> 0.34824630E+05</totfact>
</mgrwt>
</event>
<event>
 8    1  0.7667702E-014  0.8011324E+02  0.7818608E-02  0.1328730E+00
         -1   -1    0    0    0  501 -0.00000000000E+00  0.00000000000E+00  0.17076233563E+03  0.17076233570E+03  0.50400000000E-02 0.  1.
          2   -1    0    0  501    0  0.00000000000E+00 -0.00000000000E+00 -0.93962916496E+01  0.93962919956E+01  0.25500000000E-02 0. -1.
         24    2    1    2    0    0  0.17763568394E-14 -0.71054273576E-14  0.16136604398E+03  0.18015862770E+03  0.80113238512E+02 0.  0.
         66    2    3    3    0    0 -0.12751833054E+02  0.26443266259E+02  0.19531421063E+02  0.35317587249E+02  0.19999959162E+01 0.  0.
        -13    1    3    3    0    0  0.12751833054E+02 -0.26443266259E+02  0.14183462292E+03  0.14484104045E+03  0.10566000000E+00 0.  1.
         13    1    4    4    0    0 -0.10360058068E+02  0.21114188737E+02  0.16390088464E+02  0.28666808909E+02  0.10566000000E+00 0. -1.
        -13    1    4    4    0    0 -0.24125822764E+00  0.43312048594E+00  0.17871499457E+00  0.53749602104E+00  0.10566000000E+00 0. -1.
        -14    1    4    4    0    0 -0.21505167584E+01  0.48959570370E+01  0.29626176047E+01  0.61132823187E+01  0.00000000000E+00 0.  1.
<mgrwt>
<rscale>  0 0.80113239E+02</rscale>
<asrwt>0</asrwt>
<pdfrwt beam="1">  1        2 0.14455832E-02 0.80113239E+02</pdfrwt>
<pdfrwt beam="2">  1       -1 0.26271132E-01 0.80113239E+02</pdfrwt>
<totfact> 0.10386843E+05</totfact>
</mgrwt>
</event>
<event>
 8    1  0.7667702E-014  0.8157205E+02  0.7818608E-02  0.1324648E+00
         -1   -1    0    0    0  501 -0.00000000000E+00  0.00000000000E+00  0.79108511825E+00  0.79110117300E+00  0.50400000000E-02 0.  1.
          2   -1    0    0  501    0  0.00000000000E+00 -0.00000000000E+00 -0.21027861829E+04  0.21027861829E+04  0.25500000000E-02 0. -1.
         24    2    1    2    0    0 -0.22204460493E-15  0.00000000000E+00 -0.21019950978E+04  0.21035772841E+04  0.81572047761E+02 0.  0.
         66    2    3    3    0    0 -0.19113740008E+01  0.14143223797E+02 -0.20362453417E+04  0.20362963379E+04  0.20000000804E+01 0.  0.
        -13    1    3    3    0    0  0.19113740008E+01 -0.14143223797E+02 -0.65749756080E+02  0.67280946178E+02  0.10566000000E+00 0.  1.
         13    1    4    4    0    0 -0.78147193414E+00  0.65462219154E+01 -0.10422791476E+04  0.10423000031E+04  0.10566000000E+00 0. -1.
        -13    1    4    4    0    0 -0.70785211604E-01  0.25941761865E+00 -0.61075962944E+02  0.61076646287E+02  0.10566000000E+00 0.  1.
         14    1    4    4    0    0 -0.10591168551E+01  0.73375842630E+01 -0.93289023118E+03  0.93291968856E+03  0.00000000000E+00 0. -1.
<mgrwt>
<rscale>  0 0.81572048E+02</rscale>
<asrwt>0</asrwt>
<pdfrwt beam="1">  1        2 0.32350109E+00 0.81572048E+02</pdfrwt>
<pdfrwt beam="2">  1       -1 0.12170832E-03 0.81572048E+02</pdfrwt>
<totfact> 0.25104970E+05</totfact>
</mgrwt>
</event>
<event>
 8    1  0.7667702E-014  0.8335548E+02  0.7818608E-02  0.1319790E+00
          2   -1    0    0  501    0  0.00000000000E+00  0.00000000000E+00  0.51580233925E+01  0.51580240228E+01  0.25500000000E-02 0. -1.
         -1   -1    0    0    0  501 -0.00000000000E+00 -0.00000000000E+00 -0.33676345548E+03  0.33676345551E+03  0.50400000000E-02 0.  1.
         24    2    1    2    0    0  0.71054273576E-14  0.00000000000E+00 -0.33160543208E+03  0.34192147954E+03  0.83355477212E+02 0.  0.
         66    2    3    3    0    0 -0.40918480876E+02  0.35963937829E+01 -0.19424981824E+03  0.19855540285E+03  0.19999975419E+01 0.  0.
        -13    1    3    3    0    0  0.40918480876E+02 -0.35963937829E+01 -0.13735561384E+03  0.14336607668E+03  0.10566000000E+00 0.  1.
         13    1    4    4    0    0 -0.91498671486E+01  0.52768031064E+00 -0.44315563762E+02  0.45253495677E+02  0.10566000000E+00 0. -1.
        -13    1    4    4    0    0 -0.14110726271E+02  0.66825356252E+00 -0.68100751086E+02  0.69550575995E+02  0.10566000000E+00 0.  1.
        -14    1    4    4    0    0 -0.17657887456E+02  0.24004599098E+01 -0.81833503392E+02  0.83751331181E+02  0.00000000000E+00 0.  1.
<mgrwt>
<rscale>  0 0.83355477E+02</rscale>
<asrwt>0</asrwt>
<pdfrwt beam="1">  1        2 0.79354238E-03 0.83355477E+02</pdfrwt>
<pdfrwt beam="2">  1       -1 0.51809745E-01 0.83355477E+02</pdfrwt>
<totfact> 0.74045123E+04</totfact>
</mgrwt>
</event>
<event>
 8    1  0.7667702E-014  0.7921773E+02  0.7818608E-02  0.1331286E+00
          2   -1    0    0  501    0  0.00000000000E+00  0.00000000000E+00  0.15569735508E+03  0.15569735510E+03  0.25500000000E-02 0. -1.
         -1   -1    0    0    0  501 -0.00000000000E+00 -0.00000000000E+00 -0.10076355531E+02  0.10076356792E+02  0.50400000000E-02 0.  1.
         24    2    1    2    0    0  0.00000000000E+00  0.00000000000E+00  0.14562099954E+03  0.16577371189E+03  0.79217725572E+02 0.  0.
         66    2    3    3    0    0  0.32223986365E+02  0.77418615429E+01  0.11815326183E+03  0.12272943821E+03  0.20000010754E+01 0.  0.
        -13    1    3    3    0    0 -0.32223986365E+02 -0.77418615429E+01  0.27467737711E+02  0.43044273677E+02  0.10566000000E+00 0.  1.
         13    1    4    4    0    0  0.43661243890E+01  0.13907049605E+01  0.16267909046E+02  0.16901276024E+02  0.10566000000E+00 0. -1.
        -13    1    4    4    0    0  0.24667819768E+02  0.55911281721E+01  0.91957744834E+02  0.95372952379E+02  0.10566000000E+00 0.  1.
        -14    1    4    4    0    0  0.31900422075E+01  0.76002841029E+00  0.99276079520E+01  0.10455209807E+02  0.00000000000E+00 0.  1.
<mgrwt>
<rscale>  0 0.79217726E+02</rscale>
<asrwt>0</asrwt>
<pdfrwt beam="1">  1        2 0.23953439E-01 0.79217726E+02</pdfrwt>
<pdfrwt beam="2">  1       -1 0.15502086E-02 0.79217726E+02</pdfrwt>
<totfact> 0.20808249E+05</totfact>
</mgrwt>
</event>
<event>
 8    1  0.7667702E-014  0.7920488E+02  0.7818608E-02  0.1331323E+00
          2   -1    0    0  501    0  0.00000000000E+00  0.00000000000E+00  0.56997018400E+01  0.56997024104E+01  0.25500000000E-02 0. -1.
         -1   -1    0    0    0  501 -0.00000000000E+00 -0.00000000000E+00 -0.27516407609E+03  0.27516407614E+03  0.50400000000E-02 0.  1.
         24    2    1    2    0    0 -0.35527136788E-14  0.35527136788E-14 -0.26946437425E+03  0.28086377855E+03  0.79204880592E+02 0.  0.
         66    2    3    3    0    0 -0.31776236346E+02  0.23233924218E+02 -0.12028172489E+03  0.12657502826E+03  0.20000013978E+01 0.  0.
        -13    1    3    3    0    0  0.31776236346E+02 -0.23233924218E+02 -0.14918264936E+03  0.15428875029E+03  0.10566000000E+00 0.  1.
         13    1    4    4    0    0 -0.15715233727E+02  0.12245049630E+02 -0.58858469325E+02  0.62138879832E+02  0.10566000000E+00 0. -1.
        -13    1    4    4    0    0 -0.13484952891E+02  0.89257413588E+01 -0.51254388316E+02  0.53745104884E+02  0.10566000000E+00 0.  1.
        -14    1    4    4    0    0 -0.25760497283E+01  0.20631332297E+01 -0.10168867249E+02  0.10691043544E+02  0.00000000000E+00 0.  1.
<mgrwt>
<rscale>  0 0.79204881E+02</rscale>
<asrwt>0</asrwt>
<pdfrwt beam="1">  1        2 0.87687747E-03 0.79204881E+02</pdfrwt>
<pdfrwt beam="2">  1       -1 0.42332925E-01 0.79204881E+02</pdfrwt>
<totfact> 0.91728519E+04</totfact>
</mgrwt>
</event>
<event>
 8    1  0.7667702E-014  0.7898476E+02  0.7818608E-02  0.1331957E+00
          2   -1    0    0  501    0  0.00000000000E+00  0.00000000000E+00  0.18805511953E+03  0.18805511955E+03  0.25500000000E-02 0. -1.
         -1   -1    0    0    0  501 -0.00000000000E+00 -0.00000000000E+00 -0.82935672393E+01  0.82935687707E+01  0.50400000000E-02 0.  1.
         24    2    1    2    0    0  0.00000000000E+00 -0.17763568394E-14  0.17976155229E+03  0.19634868832E+03  0.78984756265E+02 0.  0.
         66    2    3    3    0    0 -0.33802376556E+02  0.11003868192E+02  0.13255955395E+03  0.13725786342E+03  0.19999876517E+01 0.  0.
        -13    1    3    3    0    0  0.33802376556E+02 -0.11003868192E+02  0.47201998340E+02  0.59090824900E+02  0.10566000000E+00 0.  1.
         13    1    4    4    0    0 -0.31527768705E+02  0.10187244070E+02  0.12317756813E+03  0.12755588812E+03  0.10566000000E+00 0. -1.
        -13    1    4    4    0    0 -0.10650974316E+01  0.41474223585E+00  0.54130105605E+01  0.55333797109E+01  0.10566000000E+00 0.  1.
        -14    1    4    4    0    0 -0.12095104186E+01  0.40188188608E+00  0.39689752623E+01  0.41685955831E+01  0.00000000000E+00 0.  1.
<mgrwt>
<rscale>  0 0.78984756E+02</rscale>
<asrwt>0</asrwt>
<pdfrwt beam="1">  1        2 0.28931557E-01 0.78984756E+02</pdfrwt>
<pdfrwt beam="2">  1       -1 0.12759335E-02 0.78984756E+02</pdfrwt>
<totfact> 0.22335127E+05</totfact>
</mgrwt>
</event>
<event>
 8    1  0.7667702E-014  0.7956966E+02  0.7818608E-02  0.1330277E+00
         -1   -1    0    0    0  501 -0.00000000000E+00  0.00000000000E+00  0.28179687832E+01  0.28179732903E+01  0.50400000000E-02 0.  1.
          2   -1    0    0  501    0  0.00000000000E+00 -0.00000000000E+00 -0.56169238980E+03  0.56169238980E+03  0.25500000000E-02 0. -1.
         24    2    1    2    0    0 -0.35527136788E-14  0.00000000000E+00 -0.55887442101E+03  0.56451036309E+03  0.79569664923E+02 0.  0.
         66    2    3    3    0    0 -0.28083931100E+02  0.13214101136E+02 -0.45591061028E+03  0.45697024435E+03  0.19999996959E+01 0.  0.
        -13    1    3    3    0    0  0.28083931100E+02 -0.13214101136E+02 -0.10296381073E+03  0.10754011875E+03  0.10566000000E+00 0.  1.
         13    1    4    4    0    0 -0.21707943324E+02  0.10050542125E+02 -0.34518084606E+03  0.34600878002E+03  0.10566000000E+00 0. -1.
        -13    1    4    4    0    0 -0.32805824185E+01  0.12668567564E+01 -0.50526533070E+02  0.50648878123E+02  0.10566000000E+00 0.  1.
         14    1    4    4    0    0 -0.30954053573E+01  0.18967022541E+01 -0.60203231146E+02  0.60312586200E+02  0.00000000000E+00 0. -1.
<mgrwt>
<rscale>  0 0.79569665E+02</rscale>
<asrwt>0</asrwt>
<pdfrwt beam="1">  1        2 0.86414125E-01 0.79569665E+02</pdfrwt>
<pdfrwt beam="2">  1       -1 0.43353445E-03 0.79569665E+02</pdfrwt>
<totfact> 0.32006375E+05</totfact>
</mgrwt>
</event>
<event>
 8    1  0.7667702E-014  0.8276592E+02  0.7818608E-02  0.1321380E+00
         -1   -1    0    0    0  501 -0.00000000000E+00  0.00000000000E+00  0.37134661175E+02  0.37134661517E+02  0.50400000000E-02 0.  1.
          2   -1    0    0  501    0  0.00000000000E+00 -0.00000000000E+00 -0.46117270083E+02  0.46117270153E+02  0.25500000000E-02 0. -1.
         24    2    1    2    0    0  0.00000000000E+00  0.00000000000E+00 -0.89826089080E+01  0.83251931670E+02  0.82765916076E+02 0.  0.
         66    2    3    3    0    0  0.13397156653E+02 -0.16035494972E+02 -0.40395571939E+02  0.45523874261E+02  0.19999975254E+01 0.  0.
        -13    1    3    3    0    0 -0.13397156653E+02  0.16035494972E+02  0.31412963031E+02  0.37728057408E+02  0.10566000000E+00 0.  1.
         13    1    4    4    0    0  0.38757581907E+01 -0.46273536080E+01 -0.13049729064E+02  0.14378473342E+02  0.10566000000E+00 0.  1.
        -13    1    4    4    0    0  0.37595416341E+01 -0.44368877361E+01 -0.11929332688E+02  0.13271784676E+02  0.10566000000E+00 0. -1.
        -14    1    4    4    0    0  0.57618568285E+01 -0.69712536279E+01 -0.15416510187E+02  0.17873616243E+02  0.00000000000E+00 0.  1.
<mgrwt>
<rscale>  0 0.82765916E+02</rscale>
<asrwt>0</asrwt>
<pdfrwt beam="1">  1        2 0.70949646E-02 0.82765916E+02</pdfrwt>
<pdfrwt beam="2">  1       -1 0.57130249E-02 0.82765916E+02</pdfrwt>
<totfact> 0.13372724E+05</totfact>
</mgrwt>
</event>
<event>
 8    1  0.7667702E-014  0.7942118E+02  0.7818608E-02  0.1330702E+00
         -1   -1    0    0    0  501 -0.00000000000E+00  0.00000000000E+00  0.52063194813E+01  0.52063219208E+01  0.50400000000E-02 0.  1.
          2   -1    0    0  501    0  0.00000000000E+00 -0.00000000000E+00 -0.30288782387E+03  0.30288782388E+03  0.25500000000E-02 0. -1.
         24    2    1    2    0    0  0.00000000000E+00  0.00000000000E+00 -0.29768150439E+03  0.30809414580E+03  0.79421184970E+02 0.  0.
         66    2    3    3    0    0 -0.28678409660E+02  0.17211908349E+02 -0.23179331182E+03  0.23420256270E+03  0.19999998835E+01 0.  0.
        -13    1    3    3    0    0  0.28678409660E+02 -0.17211908349E+02 -0.65888192563E+02  0.73891583099E+02  0.10566000000E+00 0.  1.
         13    1    4    4    0    0 -0.25242718458E+01  0.18592035175E+01 -0.22645792602E+02  0.22862013750E+02  0.10566000000E+00 0. -1.
        -13    1    4    4    0    0 -0.24564816390E+01  0.16915284388E+01 -0.23490887055E+02  0.23679706696E+02  0.10566000000E+00 0.  1.
         14    1    4    4    0    0 -0.23697656176E+02  0.13661176392E+02 -0.18565663217E+03  0.18766084226E+03  0.00000000000E+00 0. -1.
<mgrwt>
<rscale>  0 0.79421185E+02</rscale>
<asrwt>0</asrwt>
<pdfrwt beam="1">  1        2 0.46598113E-01 0.79421185E+02</pdfrwt>
<pdfrwt beam="2">  1       -1 0.80097266E-03 0.79421185E+02</pdfrwt>
<totfact> 0.26074525E+05</totfact>
</mgrwt>
</event>
<event>
 8    1  0.7667702E-014  0.8285950E+02  0.7818608E-02  0.1321127E+00
          2   -1    0    0  501    0  0.00000000000E+00  0.00000000000E+00  0.50925810743E+02  0.50925810806E+02  0.25500000000E-02 0. -1.
         -1   -1    0    0    0  501 -0.00000000000E+00 -0.00000000000E+00 -0.33704403349E+02  0.33704403726E+02  0.50400000000E-02 0.  1.
         24    2    1    2    0    0  0.00000000000E+00 -0.17763568394E-14  0.17221407393E+02  0.84630214533E+02  0.82859497580E+02 0.  0.
         66    2    3    3    0    0  0.34725991697E+02  0.13385003241E+02  0.27151991753E+02  0.46111641339E+02  0.19999999444E+01 0.  0.
        -13    1    3    3    0    0 -0.34725991697E+02 -0.13385003241E+02 -0.99305843597E+01  0.38518573193E+02  0.10566000000E+00 0.  1.
         13    1    4    4    0    0  0.13307244470E+02  0.48334414068E+01  0.10589548788E+02  0.17680345550E+02  0.10566000000E+00 0. -1.
        -13    1    4    4    0    0  0.16981725345E+02  0.65037589580E+01  0.12378500820E+02  0.21998098165E+02  0.10566000000E+00 0.  1.
        -14    1    4    4    0    0  0.44370218812E+01  0.20478028760E+01  0.41839421452E+01  0.64331976239E+01  0.00000000000E+00 0.  1.
<mgrwt>
<rscale>  0 0.82859498E+02</rscale>
<asrwt>0</asrwt>
<pdfrwt beam="1">  1        2 0.78347401E-02 0.82859498E+02</pdfrwt>
<pdfrwt beam="2">  1       -1 0.51852929E-02 0.82859498E+02</pdfrwt>
<totfact> 0.13624514E+05</totfact>
</mgrwt>
</event>
<event>
 8    1  0.7667702E-014  0.7580417E+02  0.7818608E-02  0.1341399E+00
         -1   -1    0    0    0  501 -0.00000000000E+00  0.00000000000E+00  0.95293261216E+01  0.95293274544E+01  0.50400000000E-02 0.  1.
          2   -1    0    0  501    0  0.00000000000E+00 -0.00000000000E+00 -0.15075229235E+03  0.15075229237E+03  0.25500000000E-02 0. -1.
         24    2    1    2    0    0  0.88817841970E-15  0.00000000000E+00 -0.14122296622E+03  0.16028161982E+03  0.75804165213E+02 0.  0.
         66    2    3    3    0    0 -0.61023331548E+01 -0.17057076497E+02 -0.14099087476E+03  0.14216402177E+03  0.19999981078E+01 0.  0.
        -13    1    3    3    0    0  0.61023331548E+01  0.17057076497E+02 -0.23209146282E+00  0.18117598048E+02  0.10566000000E+00 0.  1.
         13    1    4    4    0    0 -0.46764667335E+01 -0.12495056635E+02 -0.99400119389E+02  0.10029152846E+03  0.10566000000E+00 0. -1.
        -13    1    4    4    0    0 -0.10600198931E+00 -0.15221821941E+01 -0.14092918664E+02  0.14175676194E+02  0.10566000000E+00 0.  1.
         14    1    4    4    0    0 -0.13198644320E+01 -0.30398376670E+01 -0.27497836709E+02  0.27696817125E+02  0.00000000000E+00 0. -1.
<mgrwt>
<rscale>  0 0.75804165E+02</rscale>
<asrwt>0</asrwt>
<pdfrwt beam="1">  1        2 0.23192659E-01 0.75804165E+02</pdfrwt>
<pdfrwt beam="2">  1       -1 0.14660504E-02 0.75804165E+02</pdfrwt>
<totfact> 0.23135442E+05</totfact>
</mgrwt>
</event>
<event>
 8    1  0.7667702E-014  0.7693108E+02  0.7818608E-02  0.1337993E+00
          2   -1    0    0  501    0  0.00000000000E+00  0.00000000000E+00  0.40887328860E+02  0.40887328939E+02  0.25500000000E-02 0. -1.
         -1   -1    0    0    0  501 -0.00000000000E+00 -0.00000000000E+00 -0.36187198315E+02  0.36187198666E+02  0.50400000000E-02 0.  1.
         24    2    1    2    0    0  0.00000000000E+00  0.44408920985E-15  0.47001305446E+01  0.77074527605E+02  0.76931083305E+02 0.  0.
         66    2    3    3    0    0  0.37026795407E+02 -0.31980774625E+01  0.12187373216E+02  0.39163035358E+02  0.19999987403E+01 0.  0.
        -13    1    3    3    0    0 -0.37026795407E+02  0.31980774625E+01 -0.74872426719E+01  0.37911492247E+02  0.10566000000E+00 0.  1.
         13    1    4    4    0    0  0.21876816135E+02 -0.11429255866E+01  0.73916379850E+01  0.23120312265E+02  0.10566000000E+00 0. -1.
        -13    1    4    4    0    0  0.99715772095E+01 -0.98181004056E+00  0.31884601251E+01  0.10515405128E+02  0.10566000000E+00 0.  1.
        -14    1    4    4    0    0  0.51784020623E+01 -0.10733418353E+01  0.16072751064E+01  0.55273179646E+01  0.00000000000E+00 0.  1.
<mgrwt>
<rscale>  0 0.76931083E+02</rscale>
<asrwt>0</asrwt>
<pdfrwt beam="1">  1        2 0.62903583E-02 0.76931083E+02</pdfrwt>
<pdfrwt beam="2">  1       -1 0.55672613E-02 0.76931083E+02</pdfrwt>
<totfact> 0.15948299E+05</totfact>
</mgrwt>
</event>
<event>
 8    1  0.7667702E-014  0.7922492E+02  0.7818608E-02  0.1331265E+00
         -1   -1    0    0    0  501 -0.00000000000E+00  0.00000000000E+00  0.14007108228E+02  0.14007109134E+02  0.50400000000E-02 0.  1.
          2   -1    0    0  501    0  0.00000000000E+00 -0.00000000000E+00 -0.11202505578E+03  0.11202505581E+03  0.25500000000E-02 0. -1.
         24    2    1    2    0    0  0.35527136788E-14  0.00000000000E+00 -0.98017947552E+02  0.12603216494E+03  0.79224923843E+02 0.  0.
         66    2    3    3    0    0 -0.30899738398E+02 -0.24610408086E+02 -0.44929726459E+02  0.59859388047E+02  0.19999996511E+01 0.  0.
        -13    1    3    3    0    0  0.30899738398E+02  0.24610408086E+02 -0.53088221093E+02  0.66172776895E+02  0.10566000000E+00 0.  1.
         13    1    4    4    0    0 -0.63380863466E+01 -0.47878335321E+01 -0.99811063099E+01  0.12756501702E+02  0.10566000000E+00 0. -1.
        -13    1    4    4    0    0 -0.96951254251E+00 -0.92956794287E+00 -0.12894815791E+01  0.18649337546E+01  0.10566000000E+00 0.  1.
         14    1    4    4    0    0 -0.23592139508E+02 -0.18893006611E+02 -0.33659138569E+02  0.45237952591E+02  0.00000000000E+00 0. -1.
<mgrwt>
<rscale>  0 0.79224924E+02</rscale>
<asrwt>0</asrwt>
<pdfrwt beam="1">  1        2 0.17234623E-01 0.79224924E+02</pdfrwt>
<pdfrwt beam="2">  1       -1 0.21549399E-02 0.79224924E+02</pdfrwt>
<totfact> 0.18792854E+05</totfact>
</mgrwt>
</event>
<event>
 8    1  0.7667702E-014  0.7890547E+02  0.7818608E-02  0.1332187E+00
          2   -1    0    0  501    0  0.00000000000E+00  0.00000000000E+00  0.15390807162E+03  0.15390807164E+03  0.25500000000E-02 0. -1.
         -1   -1    0    0    0  501 -0.00000000000E+00 -0.00000000000E+00 -0.10113296778E+02  0.10113298034E+02  0.50400000000E-02 0.  1.
         24    2    1    2    0    0  0.00000000000E+00  0.00000000000E+00  0.14379477484E+03  0.16402136968E+03  0.78905465201E+02 0.  0.
         66    2    3    3    0    0  0.13967777418E+02 -0.95428983478E+01  0.14597425435E+03  0.14696478708E+03  0.19999990165E+01 0.  0.
        -13    1    3    3    0    0 -0.13967777418E+02  0.95428983478E+01 -0.21794795005E+01  0.17056582595E+02  0.10566000000E+00 0.  1.
         13    1    4    4    0    0  0.60307228211E+01 -0.40040266776E+01  0.65505860095E+02  0.65904709378E+02  0.10566000000E+00 0. -1.
        -13    1    4    4    0    0  0.40967484834E+01 -0.26513408291E+01  0.46044437082E+02  0.46302422253E+02  0.10566000000E+00 0.  1.
         14    1    4    4    0    0  0.38403061138E+01 -0.28875308411E+01  0.34423957169E+02  0.34757655453E+02  0.00000000000E+00 0. -1.
<mgrwt>
<rscale>  0 0.78905465E+02</rscale>
<asrwt>0</asrwt>
<pdfrwt beam="1">  1        2 0.23678164E-01 0.78905465E+02</pdfrwt>
<pdfrwt beam="2">  1       -1 0.15558919E-02 0.78905465E+02</pdfrwt>
<totfact> 0.20948320E+05</totfact>
</mgrwt>
</event>
<event>
 8    1  0.7667702E-014  0.7984650E+02  0.7818608E-02  0.1329488E+00
          2   -1    0    0  501    0  0.00000000000E+00  0.00000000000E+00  0.61446054498E+02  0.61446054551E+02  0.25500000000E-02 0. -1.
         -1   -1    0    0    0  501 -0.00000000000E+00 -0.00000000000E+00 -0.25939270769E+02  0.25939271258E+02  0.50400000000E-02 0.  1.
         24    2    1    2    0    0 -0.35527136788E-14  0.00000000000E+00  0.35506783730E+02  0.87385325810E+02  0.79846499460E+02 0.  0.
         66    2    3    3    0    0 -0.19061435171E+02  0.33686683596E+02  0.28360008229E+02  0.48025212414E+02  0.19999995395E+01 0.  0.
        -13    1    3    3    0    0  0.19061435171E+02 -0.33686683596E+02  0.71467755009E+01  0.39360113396E+02  0.10566000000E+00 0.  1.
         13    1    4    4    0    0 -0.87918633824E+01  0.15086576311E+02  0.12337377735E+02  0.21380451351E+02  0.10566000000E+00 0. -1.
        -13    1    4    4    0    0 -0.66498445765E+01  0.11387754052E+02  0.92298706712E+01  0.16096678287E+02  0.10566000000E+00 0.  1.
        -14    1    4    4    0    0 -0.36197272120E+01  0.72123532331E+01  0.67927598221E+01  0.10548082776E+02  0.00000000000E+00 0.  1.
<mgrwt>
<rscale>  0 0.79846499E+02</rscale>
<asrwt>0</asrwt>
<pdfrwt beam="1">  1        2 0.94532391E-02 0.79846499E+02</pdfrwt>
<pdfrwt beam="2">  1       -1 0.39906571E-02 0.79846499E+02</pdfrwt>
<totfact> 0.15734331E+05</totfact>
</mgrwt>
</event>
<event>
 8    1  0.7667702E-014  0.7792595E+02  0.7818608E-02  0.1335042E+00
         -1   -1    0    0    0  501 -0.00000000000E+00  0.00000000000E+00  0.17624133602E+01  0.17624205667E+01  0.50400000000E-02 0.  1.
          2   -1    0    0  501    0  0.00000000000E+00 -0.00000000000E+00 -0.86138159126E+03  0.86138159126E+03  0.25500000000E-02 0. -1.
         24    2    1    2    0    0  0.00000000000E+00  0.00000000000E+00 -0.85961917790E+03  0.86314401183E+03  0.77925952966E+02 0.  0.
         66    2    3    3    0    0 -0.93272458404E+01  0.10544952809E+02 -0.83220189870E+03  0.83232337090E+03  0.19999997244E+01 0.  0.
        -13    1    3    3    0    0  0.93272458404E+01 -0.10544952809E+02 -0.27417279198E+02  0.30820640930E+02  0.10566000000E+00 0.  1.
         13    1    4    4    0    0 -0.71260640626E+01  0.84159674285E+01 -0.64010152203E+03  0.64019651589E+03  0.10566000000E+00 0. -1.
        -13    1    4    4    0    0 -0.17479099251E+01  0.17357249274E+01 -0.17155419132E+03  0.17157190811E+03  0.10566000000E+00 0.  1.
         14    1    4    4    0    0 -0.45327185263E+00  0.39326045270E+00 -0.20546185349E+02  0.20554946888E+02  0.00000000000E+00 0. -1.
<mgrwt>
<rscale>  0 0.77925953E+02</rscale>
<asrwt>0</asrwt>
<pdfrwt beam="1">  1        2 0.13251991E+00 0.77925953E+02</pdfrwt>
<pdfrwt beam="2">  1       -1 0.27114176E-03 0.77925953E+02</pdfrwt>
<totfact> 0.37209683E+05</totfact>
</mgrwt>
</event>
<event>
 8    1  0.7667702E-014  0.7928729E+02  0.7818608E-02  0.1331086E+00
         -1   -1    0    0    0  501 -0.00000000000E+00  0.00000000000E+00  0.20041106356E+01  0.20041169729E+01  0.50400000000E-02 0.  1.
          2   -1    0    0  501    0  0.00000000000E+00 -0.00000000000E+00 -0.78419628908E+03  0.78419628908E+03  0.25500000000E-02 0. -1.
         24    2    1    2    0    0 -0.88817841970E-15  0.00000000000E+00 -0.78219217844E+03  0.78620040606E+03  0.79287290688E+02 0.  0.
         66    2    3    3    0    0  0.43480905663E+01 -0.27564615890E+02 -0.67020692493E+03  0.67079060531E+03  0.20000004262E+01 0.  0.
        -13    1    3    3    0    0 -0.43480905663E+01  0.27564615890E+02 -0.11198525352E+03  0.11540980075E+03  0.10566000000E+00 0.  1.
         13    1    4    4    0    0  0.15459486022E+01 -0.14065704411E+02 -0.33456347977E+03  0.33486260938E+03  0.10566000000E+00 0. -1.
        -13    1    4    4    0    0  0.21148713391E-01 -0.84311791330E+00 -0.17099732111E+02  0.17120843945E+02  0.10566000000E+00 0.  1.
         14    1    4    4    0    0  0.27809932507E+01 -0.12655793565E+02 -0.31854371305E+03  0.31880715198E+03  0.00000000000E+00 0. -1.
<mgrwt>
<rscale>  0 0.79287291E+02</rscale>
<asrwt>0</asrwt>
<pdfrwt beam="1">  1        2 0.12064534E+00 0.79287291E+02</pdfrwt>
<pdfrwt beam="2">  1       -1 0.30832583E-03 0.79287291E+02</pdfrwt>
<totfact> 0.35049470E+05</totfact>
</mgrwt>
</event>
<event>
 8    1  0.7667702E-014  0.7725214E+02  0.7818608E-02  0.1337035E+00
         -1   -1    0    0    0  501 -0.00000000000E+00  0.00000000000E+00  0.96895561325E+01  0.96895574433E+01  0.50400000000E-02 0.  1.
          2   -1    0    0  501    0  0.00000000000E+00 -0.00000000000E+00 -0.15397745682E+03  0.15397745685E+03  0.25500000000E-02 0. -1.
         24    2    1    2    0    0  0.00000000000E+00  0.00000000000E+00 -0.14428790069E+03  0.16366701429E+03  0.77252140942E+02 0.  0.
         66    2    3    3    0    0 -0.77981646646E+01 -0.10899640233E+02 -0.14888329360E+03  0.14949865766E+03  0.19999999648E+01 0.  0.
        -13    1    3    3    0    0  0.77981646646E+01  0.10899640233E+02  0.45953929127E+01  0.14168356623E+02  0.10566000000E+00 0.  1.
         13    1    4    4    0    0 -0.41010104628E+01 -0.45455689059E+01 -0.61453274707E+02  0.61757563260E+02  0.10566000000E+00 0. -1.
        -13    1    4    4    0    0 -0.28716091837E+01 -0.45686783802E+01 -0.66659857700E+02  0.66877999028E+02  0.10566000000E+00 0.  1.
         14    1    4    4    0    0 -0.82554501813E+00 -0.17853929471E+01 -0.20770161197E+02  0.20863095377E+02  0.00000000000E+00 0. -1.
<mgrwt>
<rscale>  0 0.77252141E+02</rscale>
<asrwt>0</asrwt>
<pdfrwt beam="1">  1        2 0.23688838E-01 0.77252141E+02</pdfrwt>
<pdfrwt beam="2">  1       -1 0.14907012E-02 0.77252141E+02</pdfrwt>
<totfact> 0.22158397E+05</totfact>
</mgrwt>
</event>
<event>
 8    1  0.7667702E-014  0.7998941E+02  0.7818608E-02  0.1329081E+00
          2   -1    0    0  501    0  0.00000000000E+00  0.00000000000E+00  0.38444638233E+02  0.38444638318E+02  0.25500000000E-02 0. -1.
         -1   -1    0    0    0  501 -0.00000000000E+00 -0.00000000000E+00 -0.41607274177E+02  0.41607274482E+02  0.50400000000E-02 0.  1.
         24    2    1    2    0    0  0.00000000000E+00 -0.35527136788E-14 -0.31626359439E+01  0.80051912800E+02  0.79989414780E+02 0.  0.
         66    2    3    3    0    0  0.22927675345E+02 -0.23030484269E+02  0.21705819925E+02  0.39130857538E+02  0.19999726491E+01 0.  0.
        -13    1    3    3    0    0 -0.22927675345E+02  0.23030484269E+02 -0.24868455869E+02  0.40921055262E+02  0.10566000000E+00 0.  1.
         13    1    4    4    0    0  0.69637147888E+01 -0.71426930175E+01  0.67600175756E+01  0.12050742253E+02  0.10566000000E+00 0. -1.
        -13    1    4    4    0    0  0.73370593446E+01 -0.61668028504E+01  0.62887921621E+01  0.11463942084E+02  0.10566000000E+00 0.  1.
        -14    1    4    4    0    0  0.86269012117E+01 -0.97209884015E+01  0.86570101874E+01  0.15616173200E+02  0.00000000000E+00 0.  1.
<mgrwt>
<rscale>  0 0.79989415E+02</rscale>
<asrwt>0</asrwt>
<pdfrwt beam="1">  1        2 0.59145598E-02 0.79989415E+02</pdfrwt>
<pdfrwt beam="2">  1       -1 0.64011191E-02 0.79989415E+02</pdfrwt>
<totfact> 0.14145126E+05</totfact>
</mgrwt>
</event>
<event>
 8    1  0.7667702E-014  0.7698233E+02  0.7818608E-02  0.1337840E+00
          2   -1    0    0  501    0  0.00000000000E+00  0.00000000000E+00  0.78502649793E+03  0.78502649794E+03  0.25500000000E-02 0. -1.
         -1   -1    0    0    0  501 -0.00000000000E+00 -0.00000000000E+00 -0.18872831349E+01  0.18872898646E+01  0.50400000000E-02 0.  1.
         24    2    1    2    0    0 -0.17763568394E-14  0.00000000000E+00  0.78313921480E+03  0.78691378780E+03  0.76982333544E+02 0.  0.
         66    2    3    3    0    0  0.74773080711E+01 -0.18234993008E+02  0.72949058696E+03  0.72975950940E+03  0.19999998474E+01 0.  0.
        -13    1    3    3    0    0 -0.74773080711E+01  0.18234993008E+02  0.53648627842E+02  0.57154278399E+02  0.10566000000E+00 0.  1.
         13    1    4    4    0    0  0.37919457911E+01 -0.88726037918E+01  0.33252690510E+03  0.33266688403E+03  0.10566000000E+00 0.  1.
        -13    1    4    4    0    0  0.29540622037E+01 -0.82815905342E+01  0.33658856134E+03  0.33670340363E+03  0.10566000000E+00 0. -1.
        -14    1    4    4    0    0  0.73130007629E+00 -0.10807986823E+01  0.60375120522E+02  0.60389221751E+02  0.00000000000E+00 0.  1.
<mgrwt>
<rscale>  0 0.76982334E+02</rscale>
<asrwt>0</asrwt>
<pdfrwt beam="1">  1        2 0.12077315E+00 0.76982334E+02</pdfrwt>
<pdfrwt beam="2">  1       -1 0.29035214E-03 0.76982334E+02</pdfrwt>
<totfact> 0.37841650E+05</totfact>
</mgrwt>
</event>
<event>
 8    1  0.7667702E-014  0.7765639E+02  0.7818608E-02  0.1335837E+00
         -1   -1    0    0    0  501 -0.00000000000E+00  0.00000000000E+00  0.48734420062E+01  0.48734446124E+01  0.50400000000E-02 0.  1.
          2   -1    0    0  501    0  0.00000000000E+00 -0.00000000000E+00 -0.30935594274E+03  0.30935594275E+03  0.25500000000E-02 0. -1.
         24    2    1    2    0    0  0.00000000000E+00  0.00000000000E+00 -0.30448250073E+03  0.31422938736E+03  0.77656388206E+02 0.  0.
         66    2    3    3    0    0 -0.95426170988E+01 -0.36913250655E+02 -0.18151374643E+03  0.18548555134E+03  0.19999993726E+01 0.  0.
        -13    1    3    3    0    0  0.95426170988E+01  0.36913250655E+02 -0.12296875430E+03  0.12874383602E+03  0.10566000000E+00 0.  1.
         13    1    4    4    0    0 -0.78704768991E+01 -0.30417979729E+02 -0.14712557475E+03  0.15044315806E+03  0.10566000000E+00 0. -1.
        -13    1    4    4    0    0 -0.13974577432E+01 -0.47006256423E+01 -0.23884799017E+02  0.24383263886E+02  0.10566000000E+00 0.  1.
         14    1    4    4    0    0 -0.27468245656E+00 -0.17946452839E+01 -0.10503372664E+02  0.10659129395E+02  0.00000000000E+00 0. -1.
<mgrwt>
<rscale>  0 0.77656388E+02</rscale>
<asrwt>0</asrwt>
<pdfrwt beam="1">  1        2 0.47593206E-01 0.77656388E+02</pdfrwt>
<pdfrwt beam="2">  1       -1 0.74976076E-03 0.77656388E+02</pdfrwt>
<totfact> 0.27865220E+05</totfact>
</mgrwt>
</event>
<event>
 8    1  0.7667702E-014  0.8048400E+02  0.7818608E-02  0.1327683E+00
         -1   -1    0    0    0  501 -0.00000000000E+00  0.00000000000E+00  0.50393052533E+02  0.50393052785E+02  0.50400000000E-02 0.  1.
          2   -1    0    0  501    0  0.00000000000E+00 -0.00000000000E+00 -0.32135753191E+02  0.32135753292E+02  0.25500000000E-02 0. -1.
         24    2    1    2    0    0  0.00000000000E+00  0.00000000000E+00  0.18257299341E+02  0.82528806077E+02  0.80484003711E+02 0.  0.
         66    2    3    3    0    0 -0.18110829892E+02 -0.11778587043E+02 -0.25649175205E+02  0.33594902255E+02  0.19999991890E+01 0.  0.
        -13    1    3    3    0    0  0.18110829892E+02  0.11778587043E+02  0.43906474546E+02  0.48933903822E+02  0.10566000000E+00 0.  1.
         13    1    4    4    0    0 -0.32150379490E+01 -0.24089656062E+01 -0.49152632303E+01  0.63490598488E+01  0.10566000000E+00 0. -1.
        -13    1    4    4    0    0 -0.19489789996E+01 -0.77791460579E+00 -0.30716109572E+01  0.37215088584E+01  0.10566000000E+00 0.  1.
         14    1    4    4    0    0 -0.12946812943E+02 -0.85917068314E+01 -0.17662301017E+02  0.23524333548E+02  0.00000000000E+00 0. -1.
<mgrwt>
<rscale>  0 0.80484004E+02</rscale>
<asrwt>0</asrwt>
<pdfrwt beam="1">  1        2 0.49439620E-02 0.80484004E+02</pdfrwt>
<pdfrwt beam="2">  1       -1 0.77527774E-02 0.80484004E+02</pdfrwt>
<totfact> 0.13411645E+05</totfact>
</mgrwt>
</event>
<event>
 8    1  0.7667702E-014  0.7977120E+02  0.7818608E-02  0.1329702E+00
          2   -1    0    0  501    0  0.00000000000E+00  0.00000000000E+00  0.24163770335E+03  0.24163770336E+03  0.25500000000E-02 0. -1.
         -1   -1    0    0    0  501 -0.00000000000E+00 -0.00000000000E+00 -0.65836622205E+01  0.65836641496E+01  0.50400000000E-02 0.  1.
         24    2    1    2    0    0 -0.44408920985E-15 -0.71054273576E-14  0.23505404113E+03  0.24822136751E+03  0.79771204320E+02 0.  0.
         66    2    3    3    0    0 -0.24857124397E+01  0.36713637577E+02  0.16527994207E+03  0.16933850490E+03  0.20000101269E+01 0.  0.
        -13    1    3    3    0    0  0.24857124397E+01 -0.36713637577E+02  0.69774099061E+02  0.78882862615E+02  0.10566000000E+00 0.  1.
         13    1    4    4    0    0 -0.73586114598E+00  0.88528549289E+01  0.37952133606E+02  0.38978072570E+02  0.10566000000E+00 0. -1.
        -13    1    4    4    0    0 -0.12958814250E+01  0.10945206398E+02  0.52019656870E+02  0.53174549520E+02  0.10566000000E+00 0.  1.
        -14    1    4    4    0    0 -0.45396986871E+00  0.16915576250E+02  0.75308151592E+02  0.77185882807E+02  0.00000000000E+00 0.  1.
<mgrwt>
<rscale>  0 0.79771204E+02</rscale>
<asrwt>0</asrwt>
<pdfrwt beam="1">  1        2 0.37175023E-01 0.79771204E+02</pdfrwt>
<pdfrwt beam="2">  1       -1 0.10128715E-02 0.79771204E+02</pdfrwt>
<totfact> 0.23758003E+05</totfact>
</mgrwt>
</event>
<event>
 8    1  0.7667702E-014  0.7976735E+02  0.7818608E-02  0.1329713E+00
          2   -1    0    0  501    0  0.00000000000E+00  0.00000000000E+00  0.48382876059E+02  0.48382876126E+02  0.25500000000E-02 0. -1.
         -1   -1    0    0    0  501 -0.00000000000E+00 -0.00000000000E+00 -0.32877489316E+02  0.32877489702E+02  0.50400000000E-02 0.  1.
         24    2    1    2    0    0  0.00000000000E+00 -0.35527136788E-14  0.15505386743E+02  0.81260365829E+02  0.79767349439E+02 0.  0.
         66    2    3    3    0    0  0.17098649340E+02 -0.17295869190E+02  0.39926951087E+02  0.46793934779E+02  0.20000021826E+01 0.  0.
        -13    1    3    3    0    0 -0.17098649340E+02  0.17295869190E+02 -0.24421564344E+02  0.34466431050E+02  0.10566000000E+00 0.  1.
         13    1    4    4    0    0  0.40201040938E+01 -0.48759064617E+01  0.10285249809E+02  0.12072001839E+02  0.10566000000E+00 0. -1.
        -13    1    4    4    0    0  0.22190219892E+01 -0.25592860481E+01  0.48719193605E+01  0.59347085822E+01  0.10566000000E+00 0.  1.
        -14    1    4    4    0    0  0.10859523257E+02 -0.98606766798E+01  0.24769781918E+02  0.28787224357E+02  0.00000000000E+00 0.  1.
<mgrwt>
<rscale>  0 0.79767349E+02</rscale>
<asrwt>0</asrwt>
<pdfrwt beam="1">  1        2 0.74435194E-02 0.79767349E+02</pdfrwt>
<pdfrwt beam="2">  1       -1 0.50580753E-02 0.79767349E+02</pdfrwt>
<totfact> 0.14955922E+05</totfact>
</mgrwt>
</event>
<event>
 8    1  0.7667702E-014  0.8094434E+02  0.7818608E-02  0.1326393E+00
         -1   -1    0    0    0  501 -0.00000000000E+00  0.00000000000E+00  0.73864324953E+02  0.73864325125E+02  0.50400000000E-02 0.  1.
          2   -1    0    0  501    0  0.00000000000E+00 -0.00000000000E+00 -0.22175748882E+02  0.22175749029E+02  0.25500000000E-02 0. -1.
         24    2    1    2    0    0  0.35527136788E-14 -0.17763568394E-14  0.51688576070E+02  0.96040074154E+02  0.80944344752E+02 0.  0.
         66    2    3    3    0    0  0.12581635998E+02 -0.15031824372E+02 -0.16118077485E+02  0.25456742277E+02  0.19999993062E+01 0.  0.
        -13    1    3    3    0    0 -0.12581635998E+02  0.15031824372E+02  0.67806653556E+02  0.70583331876E+02  0.10566000000E+00 0.  1.
         13    1    4    4    0    0  0.10404028510E+02 -0.13106387947E+02 -0.14117473065E+02  0.21893730245E+02  0.10566000000E+00 0. -1.
        -13    1    4    4    0    0  0.36820170150E+00 -0.39272294334E+00 -0.19395766485E+00  0.58188264673E+00  0.10566000000E+00 0.  1.
         14    1    4    4    0    0  0.18094057865E+01 -0.15327134815E+01 -0.18066467555E+01  0.29811293859E+01  0.00000000000E+00 0. -1.
<mgrwt>
<rscale>  0 0.80944345E+02</rscale>
<asrwt>0</asrwt>
<pdfrwt beam="1">  1        2 0.34116537E-02 0.80944345E+02</pdfrwt>
<pdfrwt beam="2">  1       -1 0.11363742E-01 0.80944345E+02</pdfrwt>
<totfact> 0.12257915E+05</totfact>
</mgrwt>
</event>
<event>
 8    1  0.7667702E-014  0.8809897E+02  0.7818608E-02  0.1307522E+00
          2   -1    0    0  501    0  0.00000000000E+00  0.00000000000E+00  0.24030928452E+02  0.24030928587E+02  0.25500000000E-02 0. -1.
         -1   -1    0    0    0  501 -0.00000000000E+00 -0.00000000000E+00 -0.80744154934E+02  0.80744155092E+02  0.50400000000E-02 0.  1.
         24    2    1    2    0    0 -0.17763568394E-14  0.00000000000E+00 -0.56713226483E+02  0.10477508368E+03  0.88098967654E+02 0.  0.
         66    2    3    3    0    0  0.71943069577E+01 -0.32310132958E+02  0.61519787804E+01  0.33727578858E+02  0.19999970948E+01 0.  0.
        -13    1    3    3    0    0 -0.71943069577E+01  0.32310132958E+02 -0.62865205263E+02  0.71047504820E+02  0.10566000000E+00 0.  1.
         13    1    4    4    0    0  0.86205201946E-01 -0.74972717956E+00  0.37924712236E+00  0.85118423154E+00  0.10566000000E+00 0. -1.
        -13    1    4    4    0    0  0.17283486678E+01 -0.83765277070E+01  0.19238518955E+01  0.87673129119E+01  0.10566000000E+00 0.  1.
         14    1    4    4    0    0  0.53797530880E+01 -0.23183878071E+02  0.38488797625E+01  0.24109081715E+02  0.00000000000E+00 0. -1.
<mgrwt>
<rscale>  0 0.88098968E+02</rscale>
<asrwt>0</asrwt>
<pdfrwt beam="1">  1        2 0.36970660E-02 0.88098968E+02</pdfrwt>
<pdfrwt beam="2">  1       -1 0.12422178E-01 0.88098968E+02</pdfrwt>
<totfact> 0.97704281E+04</totfact>
</mgrwt>
</event>
<event>
 8    1  0.7667702E-014  0.7957528E+02  0.7818608E-02  0.1330261E+00
          2   -1    0    0  501    0  0.00000000000E+00  0.00000000000E+00  0.23691754923E+03  0.23691754924E+03  0.25500000000E-02 0. -1.
         -1   -1    0    0    0  501 -0.00000000000E+00 -0.00000000000E+00 -0.66818857024E+01  0.66818876032E+01  0.50400000000E-02 0.  1.
         24    2    1    2    0    0 -0.22204460493E-15  0.00000000000E+00  0.23023566353E+03  0.24359943685E+03  0.79575278021E+02 0.  0.
         66    2    3    3    0    0  0.16934556282E+01 -0.27403127842E+02  0.20323785035E+03  0.20509369328E+03  0.19999998026E+01 0.  0.
        -13    1    3    3    0    0 -0.16934556282E+01  0.27403127842E+02  0.26997813174E+02  0.38505743568E+02  0.10566000000E+00 0.  1.
         13    1    4    4    0    0  0.15272022339E+01 -0.22627705236E+02  0.16222139344E+03  0.16379907522E+03  0.10566000000E+00 0. -1.
        -13    1    4    4    0    0  0.15139387347E+00 -0.17912232268E+01  0.15447995971E+02  0.15552592848E+02  0.10566000000E+00 0.  1.
         14    1    4    4    0    0  0.14859520810E-01 -0.29841993789E+01  0.25568460947E+02  0.25742025210E+02  0.00000000000E+00 0. -1.
<mgrwt>
<rscale>  0 0.79575278E+02</rscale>
<asrwt>0</asrwt>
<pdfrwt beam="1">  1        2 0.36448855E-01 0.79575278E+02</pdfrwt>
<pdfrwt beam="2">  1       -1 0.10279825E-02 0.79575278E+02</pdfrwt>
<totfact> 0.23744567E+05</totfact>
</mgrwt>
</event>
<event>
 8    1  0.7667702E-014  0.8095624E+02  0.7818608E-02  0.1326359E+00
         -1   -1    0    0    0  501 -0.00000000000E+00  0.00000000000E+00  0.11104934801E+03  0.11104934812E+03  0.50400000000E-02 0.  1.
          2   -1    0    0  501    0  0.00000000000E+00 -0.00000000000E+00 -0.14754504641E+02  0.14754504861E+02  0.25500000000E-02 0. -1.
         24    2    1    2    0    0  0.00000000000E+00  0.00000000000E+00  0.96294843368E+02  0.12580385298E+03  0.80956238588E+02 0.  0.
         66    2    3    3    0    0  0.55574381374E+01 -0.20947495885E+02 -0.49043922375E+01  0.22309992521E+02  0.20000001380E+01 0.  0.
        -13    1    3    3    0    0 -0.55574381374E+01  0.20947495885E+02  0.10119923561E+03  0.10349386046E+03  0.10566000000E+00 0.  1.
         13    1    4    4    0    0  0.11528626251E+01 -0.44461265532E+01 -0.15479893301E+01  0.48481510456E+01  0.10566000000E+00 0. -1.
        -13    1    4    4    0    0  0.31134293800E+01 -0.92011320421E+01 -0.16307868746E+01  0.98501219904E+01  0.10566000000E+00 0.  1.
        -14    1    4    4    0    0  0.12911461324E+01 -0.73002372896E+01 -0.17256160327E+01  0.76117194846E+01  0.00000000000E+00 0.  1.
<mgrwt>
<rscale>  0 0.80956239E+02</rscale>
<asrwt>0</asrwt>
<pdfrwt beam="1">  1        2 0.22699237E-02 0.80956239E+02</pdfrwt>
<pdfrwt beam="2">  1       -1 0.17084516E-01 0.80956239E+02</pdfrwt>
<totfact> 0.11245714E+05</totfact>
</mgrwt>
</event>
<event>
 8    1  0.7667702E-014  0.8471630E+02  0.7818608E-02  0.1316176E+00
         -1   -1    0    0    0  501 -0.00000000000E+00  0.00000000000E+00  0.46709968057E+02  0.46709968329E+02  0.50400000000E-02 0.  1.
          2   -1    0    0  501    0  0.00000000000E+00 -0.00000000000E+00 -0.38411780382E+02  0.38411780467E+02  0.25500000000E-02 0. -1.
         24    2    1    2    0    0  0.00000000000E+00  0.00000000000E+00  0.82981876748E+01  0.85121748796E+02  0.84716304213E+02 0.  0.
         66    2    3    3    0    0  0.34309630287E+02 -0.23870897574E+02  0.10909475147E+02  0.43243347827E+02  0.20000004713E+01 0.  0.
        -13    1    3    3    0    0 -0.34309630287E+02  0.23870897574E+02 -0.26112874721E+01  0.41878400969E+02  0.10566000000E+00 0.  1.
         13    1    4    4    0    0  0.11517150727E+02 -0.81946073068E+01  0.29361203518E+01  0.14437046670E+02  0.10566000000E+00 0. -1.
        -13    1    4    4    0    0  0.77883810230E+01 -0.54157932699E+01  0.22563131495E+01  0.97515028978E+01  0.10566000000E+00 0.  1.
        -14    1    4    4    0    0  0.15004098537E+02 -0.10260496998E+02  0.57170416457E+01  0.19054798260E+02  0.00000000000E+00 0.  1.
<mgrwt>
<rscale>  0 0.84716304E+02</rscale>
<asrwt>0</asrwt>
<pdfrwt beam="1">  1        2 0.59095047E-02 0.84716304E+02</pdfrwt>
<pdfrwt beam="2">  1       -1 0.71861490E-02 0.84716304E+02</pdfrwt>
<totfact> 0.12054791E+05</totfact>
</mgrwt>
</event>
<event>
 8    1  0.7667702E-014  0.7436887E+02  0.7818608E-02  0.1345837E+00
         -1   -1    0    0    0  501 -0.00000000000E+00  0.00000000000E+00  0.65674675462E+01  0.65674694801E+01  0.50400000000E-02 0.  1.
          2   -1    0    0  501    0  0.00000000000E+00 -0.00000000000E+00 -0.21053502390E+03  0.21053502392E+03  0.25500000000E-02 0. -1.
         24    2    1    2    0    0  0.00000000000E+00  0.00000000000E+00 -0.20396755636E+03  0.21710249340E+03  0.74368868445E+02 0.  0.
         66    2    3    3    0    0 -0.33625406265E+02  0.24107041266E+01 -0.14767620310E+03  0.15148841673E+03  0.20000005670E+01 0.  0.
        -13    1    3    3    0    0  0.33625406265E+02 -0.24107041266E+01 -0.56291353262E+02  0.65614076668E+02  0.10566000000E+00 0.  1.
         13    1    4    4    0    0 -0.15448280091E+02  0.91830043784E+00 -0.64591216600E+02  0.66419342509E+02  0.10566000000E+00 0. -1.
        -13    1    4    4    0    0 -0.72748206321E+01  0.10552776503E+01 -0.34181817276E+02  0.34963472689E+02  0.10566000000E+00 0.  1.
         14    1    4    4    0    0 -0.10902305542E+02  0.43712603847E+00 -0.48903169220E+02  0.50105601534E+02  0.00000000000E+00 0. -1.
<mgrwt>
<rscale>  0 0.74368868E+02</rscale>
<asrwt>0</asrwt>
<pdfrwt beam="1">  1        2 0.32389999E-01 0.74368868E+02</pdfrwt>
<pdfrwt beam="2">  1       -1 0.10103799E-02 0.74368868E+02</pdfrwt>
<totfact> 0.27200996E+05</totfact>
</mgrwt>
</event>
<event>
 8    1  0.7667702E-014  0.8048270E+02  0.7818608E-02  0.1327687E+00
         -1   -1    0    0    0  501 -0.00000000000E+00  0.00000000000E+00  0.76580387406E+02  0.76580387572E+02  0.50400000000E-02 0.  1.
          2   -1    0    0  501    0  0.00000000000E+00 -0.00000000000E+00 -0.21145964093E+02  0.21145964247E+02  0.25500000000E-02 0. -1.
         24    2    1    2    0    0  0.88817841970E-15  0.00000000000E+00  0.55434423313E+02  0.97726351819E+02  0.80482697220E+02 0.  0.
         66    2    3    3    0    0 -0.73350944739E+01  0.39532351852E+02  0.28786354844E+02  0.49490046290E+02  0.20000006623E+01 0.  0.
        -13    1    3    3    0    0  0.73350944739E+01 -0.39532351852E+02  0.26648068469E+02  0.48236305529E+02  0.10566000000E+00 0.  1.
         13    1    4    4    0    0 -0.40287510742E+01  0.19626877670E+02  0.13415503409E+02  0.24112902315E+02  0.10566000000E+00 0. -1.
        -13    1    4    4    0    0 -0.77288314425E+00  0.30870126323E+01  0.24679655314E+01  0.40285249468E+01  0.10566000000E+00 0. -1.
         14    1    4    4    0    0 -0.25334602555E+01  0.16818461550E+02  0.12902885903E+02  0.21348619028E+02  0.00000000000E+00 0. -1.
<mgrwt>
<rscale>  0 0.80482697E+02</rscale>
<asrwt>0</asrwt>
<pdfrwt beam="1">  1        2 0.32532252E-02 0.80482697E+02</pdfrwt>
<pdfrwt beam="2">  1       -1 0.11781598E-01 0.80482697E+02</pdfrwt>
<totfact> 0.12341408E+05</totfact>
</mgrwt>
</event>
<event>
 8    1  0.7667702E-014  0.8319376E+02  0.7818608E-02  0.1320225E+00
         -1   -1    0    0    0  501 -0.00000000000E+00  0.00000000000E+00  0.20107852421E+01  0.20107915584E+01  0.50400000000E-02 0.  1.
          2   -1    0    0  501    0  0.00000000000E+00 -0.00000000000E+00 -0.86050855231E+03  0.86050855232E+03  0.25500000000E-02 0. -1.
         24    2    1    2    0    0  0.35527136788E-14 -0.71054273576E-14 -0.85849776707E+03  0.86251934387E+03  0.83193764750E+02 0.  0.
         66    2    3    3    0    0  0.16189989240E+02 -0.23913245836E+02 -0.73954399683E+03  0.74011031767E+03  0.19999990224E+01 0.  0.
        -13    1    3    3    0    0 -0.16189989240E+02  0.23913245836E+02 -0.11895377024E+03  0.12240902621E+03  0.10566000000E+00 0.  1.
         13    1    4    4    0    0  0.86937841969E+01 -0.13119093056E+02 -0.40622495582E+03  0.40652972632E+03  0.10566000000E+00 0. -1.
        -13    1    4    4    0    0  0.66201801012E+01 -0.87317699173E+01 -0.27217968925E+03  0.27240019272E+03  0.10566000000E+00 0. -1.
         14    1    4    4    0    0  0.87602494182E+00 -0.20623828626E+01 -0.61139351755E+02  0.61180398624E+02  0.00000000000E+00 0. -1.
<mgrwt>
<rscale>  0 0.83193765E+02</rscale>
<asrwt>0</asrwt>
<pdfrwt beam="1">  1        2 0.13238564E+00 0.83193765E+02</pdfrwt>
<pdfrwt beam="2">  1       -1 0.30935275E-03 0.83193765E+02</pdfrwt>
<totfact> 0.31388678E+05</totfact>
</mgrwt>
</event>
<event>
 8    1  0.7667702E-014  0.7975919E+02  0.7818608E-02  0.1329736E+00
          2   -1    0    0  501    0  0.00000000000E+00  0.00000000000E+00  0.32242470189E+03  0.32242470190E+03  0.25500000000E-02 0. -1.
         -1   -1    0    0    0  501 -0.00000000000E+00 -0.00000000000E+00 -0.49325671428E+01  0.49325697177E+01  0.50400000000E-02 0.  1.
         24    2    1    2    0    0 -0.35527136788E-14  0.35527136788E-14  0.31749213475E+03  0.32735727162E+03  0.79759185394E+02 0.  0.
         66    2    3    3    0    0  0.22307131757E+02  0.31987054752E+02  0.19259029986E+03  0.19650904151E+03  0.19999994572E+01 0.  0.
        -13    1    3    3    0    0 -0.22307131757E+02 -0.31987054752E+02  0.12490183489E+03  0.13084823011E+03  0.10566000000E+00 0.  1.
         13    1    4    4    0    0  0.79610540681E+01  0.11753045576E+02  0.71021271130E+02  0.72426131880E+02  0.10566000000E+00 0. -1.
        -13    1    4    4    0    0  0.30381450341E+01  0.33462167238E+01  0.21141202109E+02  0.21619183200E+02  0.10566000000E+00 0.  1.
        -14    1    4    4    0    0  0.11307932655E+02  0.16887792452E+02  0.10042782662E+03  0.10246372643E+03  0.00000000000E+00 0.  1.
<mgrwt>
<rscale>  0 0.79759185E+02</rscale>
<asrwt>0</asrwt>
<pdfrwt beam="1">  1        2 0.49603799E-01 0.79759185E+02</pdfrwt>
<pdfrwt beam="2">  1       -1 0.75885671E-03 0.79759185E+02</pdfrwt>
<totfact> 0.26374787E+05</totfact>
</mgrwt>
</event>
<event>
 8    1  0.7667702E-014  0.7998940E+02  0.7818608E-02  0.1329082E+00
         -1   -1    0    0    0  501 -0.00000000000E+00  0.00000000000E+00  0.72790676936E+02  0.72790677110E+02  0.50400000000E-02 0.  1.
          2   -1    0    0  501    0  0.00000000000E+00 -0.00000000000E+00 -0.21975013723E+02  0.21975013871E+02  0.25500000000E-02 0. -1.
         24    2    1    2    0    0  0.00000000000E+00 -0.35527136788E-14  0.50815663213E+02  0.94765690981E+02  0.79989402794E+02 0.  0.
         66    2    3    3    0    0 -0.29958744710E+02  0.19806651926E+02  0.46405107163E+01  0.36267949852E+02  0.20000004171E+01 0.  0.
        -13    1    3    3    0    0  0.29958744710E+02 -0.19806651926E+02  0.46175152496E+02  0.58497741129E+02  0.10566000000E+00 0.  1.
         13    1    4    4    0    0 -0.45222334455E+00  0.16171674934E+00 -0.23673362938E-01  0.49232380004E+00  0.10566000000E+00 0.  1.
        -13    1    4    4    0    0 -0.19152548212E+01  0.10522858529E+01  0.71049137164E-01  0.21889994431E+01  0.10566000000E+00 0.  1.
         14    1    4    4    0    0 -0.27591266544E+02  0.18592649323E+02  0.45931349421E+01  0.33586626609E+02  0.00000000000E+00 0. -1.
<mgrwt>
<rscale>  0 0.79989403E+02</rscale>
<asrwt>0</asrwt>
<pdfrwt beam="1">  1        2 0.33807712E-02 0.79989403E+02</pdfrwt>
<pdfrwt beam="2">  1       -1 0.11198566E-01 0.79989403E+02</pdfrwt>
<totfact> 0.12657517E+05</totfact>
</mgrwt>
</event>
<event>
 8    1  0.7667702E-014  0.7951676E+02  0.7818608E-02  0.1330428E+00
          2   -1    0    0  501    0  0.00000000000E+00  0.00000000000E+00  0.28520820151E+02  0.28520820265E+02  0.25500000000E-02 0. -1.
         -1   -1    0    0    0  501 -0.00000000000E+00 -0.00000000000E+00 -0.55423677100E+02  0.55423677329E+02  0.50400000000E-02 0.  1.
         24    2    1    2    0    0  0.00000000000E+00 -0.35527136788E-14 -0.26902856949E+02  0.83944497594E+02  0.79516759016E+02 0.  0.
         66    2    3    3    0    0  0.19524557853E+02  0.22196065602E+02  0.14567429496E+02  0.33016415857E+02  0.20000065872E+01 0.  0.
        -13    1    3    3    0    0 -0.19524557853E+02 -0.22196065602E+02 -0.41470286445E+02  0.50928081737E+02  0.10566000000E+00 0.  1.
         13    1    4    4    0    0  0.35167635848E+01  0.48300877853E+01  0.29237772956E+01  0.66525943687E+01  0.10566000000E+00 0. -1.
        -13    1    4    4    0    0  0.47638928321E+01  0.52107968991E+01  0.41349477973E+01  0.81826668367E+01  0.10566000000E+00 0.  1.
         14    1    4    4    0    0  0.11243901436E+02  0.12155180918E+02  0.75087044032E+01  0.18181154651E+02  0.00000000000E+00 0. -1.
<mgrwt>
<rscale>  0 0.79516759E+02</rscale>
<asrwt>0</asrwt>
<pdfrwt beam="1">  1        2 0.43878185E-02 0.79516759E+02</pdfrwt>
<pdfrwt beam="2">  1       -1 0.85267196E-02 0.79516759E+02</pdfrwt>
<totfact> 0.13550436E+05</totfact>
</mgrwt>
</event>
<event>
 8    1  0.7667702E-014  0.8589605E+02  0.7818608E-02  0.1313106E+00
         -1   -1    0    0    0  501 -0.00000000000E+00  0.00000000000E+00  0.19657978021E+02  0.19657978667E+02  0.50400000000E-02 0.  1.
          2   -1    0    0  501    0  0.00000000000E+00 -0.00000000000E+00 -0.93831257969E+02  0.93831258004E+02  0.25500000000E-02 0. -1.
         24    2    1    2    0    0  0.88817841970E-15  0.00000000000E+00 -0.74173279948E+02  0.11348923667E+03  0.85896049862E+02 0.  0.
         66    2    3    3    0    0  0.67569836670E+01  0.91828452976E+01 -0.91783434438E+02  0.92510433530E+02  0.19999996328E+01 0.  0.
        -13    1    3    3    0    0 -0.67569836670E+01 -0.91828452976E+01  0.17610154490E+02  0.20978803141E+02  0.10566000000E+00 0.  1.
         13    1    4    4    0    0  0.55694708689E+01  0.67418581312E+01 -0.69714214327E+02  0.70260618415E+02  0.10566000000E+00 0. -1.
        -13    1    4    4    0    0  0.30305310859E+00  0.10159078825E+01 -0.11385902874E+02  0.11435639830E+02  0.10566000000E+00 0.  1.
        -14    1    4    4    0    0  0.88445968949E+00  0.14250792839E+01 -0.10683317237E+02  0.10814175285E+02  0.00000000000E+00 0.  1.
<mgrwt>
<rscale>  0 0.85896050E+02</rscale>
<asrwt>0</asrwt>
<pdfrwt beam="1">  1        2 0.14435578E-01 0.85896050E+02</pdfrwt>
<pdfrwt beam="2">  1       -1 0.30243044E-02 0.85896050E+02</pdfrwt>
<totfact> 0.14378960E+05</totfact>
</mgrwt>
</event>
<event>
 8    1  0.7667702E-014  0.7935960E+02  0.7818608E-02  0.1330879E+00
          2   -1    0    0  501    0  0.00000000000E+00  0.00000000000E+00  0.16766691731E+03  0.16766691733E+03  0.25500000000E-02 0. -1.
         -1   -1    0    0    0  501 -0.00000000000E+00 -0.00000000000E+00 -0.93905604914E+01  0.93905618439E+01  0.50400000000E-02 0.  1.
         24    2    1    2    0    0 -0.35527136788E-14  0.00000000000E+00  0.15827635682E+03  0.17705747917E+03  0.79359598054E+02 0.  0.
         66    2    3    3    0    0  0.24144783322E+02  0.19221451979E+02  0.13474379642E+03  0.13824733435E+03  0.20000011759E+01 0.  0.
        -13    1    3    3    0    0 -0.24144783322E+02 -0.19221451979E+02  0.23532560398E+02  0.38810144818E+02  0.10566000000E+00 0.  1.
         13    1    4    4    0    0  0.16864473176E+02  0.12450318164E+02  0.92152928301E+02  0.94507112094E+02  0.10566000000E+00 0. -1.
        -13    1    4    4    0    0  0.41820431767E+01  0.34869537199E+01  0.23399418349E+02  0.24024826212E+02  0.10566000000E+00 0.  1.
         14    1    4    4    0    0  0.30982669687E+01  0.32841800953E+01  0.19191449768E+02  0.19715396048E+02  0.00000000000E+00 0. -1.
<mgrwt>
<rscale>  0 0.79359598E+02</rscale>
<asrwt>0</asrwt>
<pdfrwt beam="1">  1        2 0.25794909E-01 0.79359598E+02</pdfrwt>
<pdfrwt beam="2">  1       -1 0.14447018E-02 0.79359598E+02</pdfrwt>
<totfact> 0.21220118E+05</totfact>
</mgrwt>
</event>
<event>
 8    1  0.7667702E-014  0.8109392E+02  0.7818608E-02  0.1325975E+00
         -1   -1    0    0    0  501 -0.00000000000E+00  0.00000000000E+00  0.32165204596E+01  0.32165244082E+01  0.50400000000E-02 0.  1.
          2   -1    0    0  501    0  0.00000000000E+00 -0.00000000000E+00 -0.51112833773E+03  0.51112833773E+03  0.25500000000E-02 0. -1.
         24    2    1    2    0    0  0.35527136788E-14  0.35527136788E-14 -0.50791181727E+03  0.51434486214E+03  0.81093915256E+02 0.  0.
         66    2    3    3    0    0 -0.25898556796E+02 -0.29036811877E+02 -0.32591826549E+03  0.32823861362E+03  0.19999999329E+01 0.  0.
        -13    1    3    3    0    0  0.25898556796E+02  0.29036811877E+02 -0.18199355177E+03  0.18610624852E+03  0.10566000000E+00 0.  1.
         13    1    4    4    0    0 -0.93692839860E+01 -0.10549862036E+02 -0.11982912128E+03  0.12065700371E+03  0.10566000000E+00 0. -1.
        -13    1    4    4    0    0 -0.43420400962E+01 -0.46395658006E+01 -0.58468470054E+02  0.58812856057E+02  0.10566000000E+00 0.  1.
        -14    1    4    4    0    0 -0.12187232713E+02 -0.13847384041E+02 -0.14762067415E+03  0.14876875385E+03  0.00000000000E+00 0.  1.
<mgrwt>
<rscale>  0 0.81093915E+02</rscale>
<asrwt>0</asrwt>
<pdfrwt beam="1">  1        2 0.78635064E-01 0.81093915E+02</pdfrwt>
<pdfrwt beam="2">  1       -1 0.49485001E-03 0.81093915E+02</pdfrwt>
<totfact> 0.29597406E+05</totfact>
</mgrwt>
</event>
<event>
 8    1  0.7667702E-014  0.7766797E+02  0.7818608E-02  0.1335803E+00
          2   -1    0    0  501    0  0.00000000000E+00  0.00000000000E+00  0.21382957569E+02  0.21382957721E+02  0.25500000000E-02 0. -1.
         -1   -1    0    0    0  501 -0.00000000000E+00 -0.00000000000E+00 -0.70527113028E+02  0.70527113208E+02  0.50400000000E-02 0.  1.
         24    2    1    2    0    0  0.00000000000E+00  0.00000000000E+00 -0.49144155459E+02  0.91910070929E+02  0.77667967158E+02 0.  0.
         66    2    3    3    0    0  0.12992051263E+02  0.25791065143E+02  0.60904768823E+01  0.29581520399E+02  0.20000008099E+01 0.  0.
        -13    1    3    3    0    0 -0.12992051263E+02 -0.25791065143E+02 -0.55234632341E+02  0.62328550530E+02  0.10566000000E+00 0.  1.
         13    1    4    4    0    0  0.50976653365E+01  0.85152915276E+01  0.19416345354E+01  0.10113233429E+02  0.10566000000E+00 0.  1.
        -13    1    4    4    0    0  0.40813831533E+01  0.79324322107E+01  0.16618197447E+01  0.90749092624E+01  0.10566000000E+00 0. -1.
        -14    1    4    4    0    0  0.38130027732E+01  0.93433414049E+01  0.24870226022E+01  0.10393377708E+02  0.00000000000E+00 0.  1.
<mgrwt>
<rscale>  0 0.77667967E+02</rscale>
<asrwt>0</asrwt>
<pdfrwt beam="1">  1        2 0.32896858E-02 0.77667967E+02</pdfrwt>
<pdfrwt beam="2">  1       -1 0.10850325E-01 0.77667967E+02</pdfrwt>
<totfact> 0.13691304E+05</totfact>
</mgrwt>
</event>
<event>
 8    1  0.7667702E-014  0.7873661E+02  0.7818608E-02  0.1332675E+00
          2   -1    0    0  501    0  0.00000000000E+00  0.00000000000E+00  0.10153519129E+02  0.10153519449E+02  0.25500000000E-02 0. -1.
         -1   -1    0    0    0  501 -0.00000000000E+00 -0.00000000000E+00 -0.15264298565E+03  0.15264298573E+03  0.50400000000E-02 0.  1.
         24    2    1    2    0    0  0.00000000000E+00 -0.71054273576E-14 -0.14248946652E+03  0.16279650518E+03  0.78736611750E+02 0.  0.
         66    2    3    3    0    0 -0.18884310854E+02  0.34406479940E+02 -0.76928555150E+02  0.86385332424E+02  0.20000005662E+01 0.  0.
        -13    1    3    3    0    0  0.18884310854E+02 -0.34406479940E+02 -0.65560911369E+02  0.76411172755E+02  0.10566000000E+00 0.  1.
         13    1    4    4    0    0 -0.14881478210E+02  0.26583121048E+02 -0.58483643689E+02  0.65942918206E+02  0.10566000000E+00 0. -1.
        -13    1    4    4    0    0 -0.19460249838E+01  0.39075875683E+01 -0.84133501283E+01  0.94790230645E+01  0.10566000000E+00 0.  1.
        -14    1    4    4    0    0 -0.20568076600E+01  0.39157713238E+01 -0.10031561332E+02  0.10963391153E+02  0.00000000000E+00 0.  1.
<mgrwt>
<rscale>  0 0.78736612E+02</rscale>
<asrwt>0</asrwt>
<pdfrwt beam="1">  1        2 0.15620800E-02 0.78736612E+02</pdfrwt>
<pdfrwt beam="2">  1       -1 0.23483535E-01 0.78736612E+02</pdfrwt>
<totfact> 0.11180132E+05</totfact>
</mgrwt>
</event>
<event>
 8    1  0.7856450E-014  0.7019498E+02  0.7818608E-02  0.1359431E+00
          2   -1    0    0  501    0  0.00000000000E+00  0.00000000000E+00  0.51770635948E+03  0.51770635948E+03  0.25500000000E-02 0. -1.
         -1   -1    0    0    0  501 -0.00000000000E+00 -0.00000000000E+00 -0.23794036748E+01  0.23794090126E+01  0.50400000000E-02 0.  1.
         24    2    1    2    0    0  0.00000000000E+00  0.00000000000E+00  0.51532695580E+03  0.52008576849E+03  0.70194979988E+02 0.  0.
         66    2    3    3    0    0 -0.14690091021E+02  0.12649906481E+02  0.47439326416E+03  0.47479341612E+03  0.20000005754E+01 0.  0.
        -13    1    3    3    0    0  0.14690091021E+02 -0.12649906481E+02  0.40933691638E+02  0.45292352372E+02  0.10566000000E+00 0.  1.
         13    1    4    4    0    0 -0.73358765318E+01  0.61959738446E+01  0.24043672587E+03  0.24062841788E+03  0.10566000000E+00 0. -1.
        -13    1    4    4    0    0 -0.93489743676E+00  0.30451832694E+00  0.23099225966E+02  0.23120384272E+02  0.10566000000E+00 0.  1.
        -14    1    4    4    0    0 -0.64193170529E+01  0.61494143097E+01  0.21085731232E+03  0.21104461398E+03  0.00000000000E+00 0.  1.
<mgrwt>
<rscale>  0 0.70194980E+02</rscale>
<asrwt>0</asrwt>
<pdfrwt beam="1">  1        2 0.79647069E-01 0.70194980E+02</pdfrwt>
<pdfrwt beam="2">  1       -1 0.36606281E-03 0.70194980E+02</pdfrwt>
<totfact> 0.43180786E+05</totfact>
</mgrwt>
</event>
<event>
 8    1  0.7667702E-014  0.7386296E+02  0.7818608E-02  0.1347429E+00
         -1   -1    0    0    0  501 -0.00000000000E+00  0.00000000000E+00  0.23563811498E+01  0.23563865397E+01  0.50400000000E-02 0.  1.
          2   -1    0    0  501    0  0.00000000000E+00 -0.00000000000E+00 -0.57882510217E+03  0.57882510218E+03  0.25500000000E-02 0. -1.
         24    2    1    2    0    0  0.00000000000E+00  0.17763568394E-14 -0.57646872102E+03  0.58118148872E+03  0.73862957636E+02 0.  0.
         66    2    3    3    0    0 -0.29722696969E+02 -0.80921931136E+01 -0.44835073122E+03  0.44941217218E+03  0.20000043886E+01 0.  0.
        -13    1    3    3    0    0  0.29722696969E+02  0.80921931136E+01 -0.12811798980E+03  0.13176931653E+03  0.10566000000E+00 0.  1.
         13    1    4    4    0    0 -0.23418764973E+02 -0.65068062450E+01 -0.35750073992E+03  0.35832606281E+03  0.10566000000E+00 0. -1.
        -13    1    4    4    0    0 -0.15995249532E+01 -0.23701196102E+00 -0.18524437084E+02  0.18595176473E+02  0.10566000000E+00 0.  1.
        -14    1    4    4    0    0 -0.47044070429E+01 -0.13483749076E+01 -0.72325554212E+02  0.72490932899E+02  0.00000000000E+00 0.  1.
<mgrwt>
<rscale>  0 0.73862958E+02</rscale>
<asrwt>0</asrwt>
<pdfrwt beam="1">  1        2 0.89049902E-01 0.73862958E+02</pdfrwt>
<pdfrwt beam="2">  1       -1 0.36252105E-03 0.73862958E+02</pdfrwt>
<totfact> 0.39155779E+05</totfact>
</mgrwt>
</event>
<event>
 8    1  0.7667702E-014  0.8112163E+02  0.7818608E-02  0.1325898E+00
          2   -1    0    0  501    0  0.00000000000E+00  0.00000000000E+00  0.40856685253E+03  0.40856685254E+03  0.25500000000E-02 0. -1.
         -1   -1    0    0    0  501 -0.00000000000E+00 -0.00000000000E+00 -0.40267071518E+01  0.40267103059E+01  0.50400000000E-02 0.  1.
         24    2    1    2    0    0  0.00000000000E+00  0.17763568394E-14  0.40454014538E+03  0.41259356285E+03  0.81121630147E+02 0.  0.
         66    2    3    3    0    0  0.36395561296E+02 -0.14027745040E+02  0.25851536967E+03  0.26144905981E+03  0.20000016305E+01 0.  0.
        -13    1    3    3    0    0 -0.36395561296E+02  0.14027745040E+02  0.14602477571E+03  0.15114450304E+03  0.10566000000E+00 0.  1.
         13    1    4    4    0    0  0.25707004416E+02 -0.94493174434E+01  0.18042157160E+03  0.18248861427E+03  0.10566000000E+00 0. -1.
        -13    1    4    4    0    0  0.61967946422E+01 -0.22594591710E+01  0.42223782127E+02  0.42735984378E+02  0.10566000000E+00 0.  1.
         14    1    4    4    0    0  0.44917622377E+01 -0.23189684261E+01  0.35870015948E+02  0.36224461165E+02  0.00000000000E+00 0. -1.
<mgrwt>
<rscale>  0 0.81121630E+02</rscale>
<asrwt>0</asrwt>
<pdfrwt beam="1">  1        2 0.62856454E-01 0.81121630E+02</pdfrwt>
<pdfrwt beam="2">  1       -1 0.61949350E-03 0.81121630E+02</pdfrwt>
<totfact> 0.27445997E+05</totfact>
</mgrwt>
</event>
<event>
 8    1  0.7667702E-014  0.8004238E+02  0.7818608E-02  0.1328931E+00
         -1   -1    0    0    0  501 -0.00000000000E+00  0.00000000000E+00  0.24988637349E+01  0.24988688176E+01  0.50400000000E-02 0.  1.
          2   -1    0    0  501    0  0.00000000000E+00 -0.00000000000E+00 -0.64096899613E+03  0.64096899613E+03  0.25500000000E-02 0. -1.
         24    2    1    2    0    0  0.00000000000E+00  0.00000000000E+00 -0.63847013239E+03  0.64346786495E+03  0.80042384186E+02 0.  0.
         66    2    3    3    0    0  0.40844963806E+01 -0.32755936872E+02 -0.50099204373E+03  0.50208232630E+03  0.19999995658E+01 0.  0.
        -13    1    3    3    0    0 -0.40844963806E+01  0.32755936872E+02 -0.13747808867E+03  0.14138553865E+03  0.10566000000E+00 0.  1.
         13    1    4    4    0    0  0.68450582977E+00 -0.54836025910E+01 -0.74112121133E+02  0.74317939344E+02  0.10566000000E+00 0. -1.
        -13    1    4    4    0    0  0.23184394729E+01 -0.15760076651E+02 -0.24883145235E+03  0.24934084708E+03  0.10566000000E+00 0.  1.
         14    1    4    4    0    0  0.10815510779E+01 -0.11512257630E+02 -0.17804847024E+03  0.17842353988E+03  0.00000000000E+00 0. -1.
<mgrwt>
<rscale>  0 0.80042384E+02</rscale>
<asrwt>0</asrwt>
<pdfrwt beam="1">  1        2 0.98610484E-01 0.80042384E+02</pdfrwt>
<pdfrwt beam="2">  1       -1 0.38444148E-03 0.80042384E+02</pdfrwt>
<totfact> 0.32694505E+05</totfact>
</mgrwt>
</event>
<event>
 8    1  0.7667702E-014  0.7939617E+02  0.7818608E-02  0.1330774E+00
          2   -1    0    0  501    0  0.00000000000E+00  0.00000000000E+00  0.21794831423E+02  0.21794831572E+02  0.25500000000E-02 0. -1.
         -1   -1    0    0    0  501 -0.00000000000E+00 -0.00000000000E+00 -0.72307868715E+02  0.72307868891E+02  0.50400000000E-02 0.  1.
         24    2    1    2    0    0  0.00000000000E+00  0.00000000000E+00 -0.50513037292E+02  0.94102700463E+02  0.79396166771E+02 0.  0.
         66    2    3    3    0    0  0.35785264225E+02  0.24835550368E+01 -0.51871500979E+01  0.36299582941E+02  0.20000035788E+01 0.  0.
        -13    1    3    3    0    0 -0.35785264225E+02 -0.24835550368E+01 -0.45325887194E+02  0.57803117522E+02  0.10566000000E+00 0.  1.
         13    1    4    4    0    0  0.43963857306E+01  0.95616695608E-01 -0.11133939684E+01  0.45374177909E+01  0.10566000000E+00 0.  1.
        -13    1    4    4    0    0  0.12807713093E+02  0.96173267249E+00 -0.11090599649E+01  0.12891998389E+02  0.10566000000E+00 0. -1.
         14    1    4    4    0    0  0.18581165401E+02  0.14262056687E+01 -0.29646961646E+01  0.18870166762E+02  0.00000000000E+00 0. -1.
<mgrwt>
<rscale>  0 0.79396167E+02</rscale>
<asrwt>0</asrwt>
<pdfrwt beam="1">  1        2 0.33530510E-02 0.79396167E+02</pdfrwt>
<pdfrwt beam="2">  1       -1 0.11124287E-01 0.79396167E+02</pdfrwt>
<totfact> 0.12908050E+05</totfact>
</mgrwt>
</event>
<event>
 8    1  0.7667702E-014  0.7925543E+02  0.7818608E-02  0.1331178E+00
          2   -1    0    0  501    0  0.00000000000E+00  0.00000000000E+00  0.71793017533E+02  0.71793017578E+02  0.25500000000E-02 0. -1.
         -1   -1    0    0    0  501 -0.00000000000E+00 -0.00000000000E+00 -0.21873375280E+02  0.21873375861E+02  0.50400000000E-02 0.  1.
         24    2    1    2    0    0  0.35527136788E-14  0.00000000000E+00  0.49919642252E+02  0.93666393439E+02  0.79255426169E+02 0.  0.
         66    2    3    3    0    0 -0.31357299626E+02  0.21083327680E+02  0.38987391524E+02  0.54330503772E+02  0.19999991019E+01 0.  0.
        -13    1    3    3    0    0  0.31357299626E+02 -0.21083327680E+02  0.10932250728E+02  0.39335889667E+02  0.10566000000E+00 0.  1.
         13    1    4    4    0    0 -0.18527357941E+02  0.12214730627E+02  0.23304712613E+02  0.32180482138E+02  0.10566000000E+00 0. -1.
        -13    1    4    4    0    0 -0.92319771356E+01  0.61899143929E+01  0.10430481292E+02  0.15243049106E+02  0.10566000000E+00 0.  1.
        -14    1    4    4    0    0 -0.35979645486E+01  0.26786826602E+01  0.52521976189E+01  0.69069725289E+01  0.00000000000E+00 0.  1.
<mgrwt>
<rscale>  0 0.79255426E+02</rscale>
<asrwt>0</asrwt>
<pdfrwt beam="1">  1        2 0.11045080E-01 0.79255426E+02</pdfrwt>
<pdfrwt beam="2">  1       -1 0.33651347E-02 0.79255426E+02</pdfrwt>
<totfact> 0.16662914E+05</totfact>
</mgrwt>
</event>
<event>
 8    1  0.7667702E-014  0.7969203E+02  0.7818608E-02  0.1329928E+00
          2   -1    0    0  501    0  0.00000000000E+00  0.00000000000E+00  0.17752300185E+03  0.17752300187E+03  0.25500000000E-02 0. -1.
         -1   -1    0    0    0  501 -0.00000000000E+00 -0.00000000000E+00 -0.89436561271E+01  0.89436575472E+01  0.50400000000E-02 0.  1.
         24    2    1    2    0    0  0.00000000000E+00 -0.35527136788E-14  0.16857934573E+03  0.18646665942E+03  0.79692027640E+02 0.  0.
         66    2    3    3    0    0  0.15653818407E+02 -0.28508991430E+02  0.13810272822E+03  0.14189491948E+03  0.20000018633E+01 0.  0.
        -13    1    3    3    0    0 -0.15653818407E+02  0.28508991430E+02  0.30476617504E+02  0.44571739944E+02  0.10566000000E+00 0.  1.
         13    1    4    4    0    0  0.26822935680E+01 -0.45864824054E+01  0.20453631031E+02  0.21132740145E+02  0.10566000000E+00 0. -1.
        -13    1    4    4    0    0  0.88068238441E+01 -0.16565096825E+02  0.83585486948E+02  0.85665088404E+02  0.10566000000E+00 0.  1.
        -14    1    4    4    0    0  0.41647009951E+01 -0.73574121998E+01  0.34063610245E+02  0.35097090928E+02  0.00000000000E+00 0.  1.
<mgrwt>
<rscale>  0 0.79692028E+02</rscale>
<asrwt>0</asrwt>
<pdfrwt beam="1">  1        2 0.27311229E-01 0.79692028E+02</pdfrwt>
<pdfrwt beam="2">  1       -1 0.13759473E-02 0.79692028E+02</pdfrwt>
<totfact> 0.21391776E+05</totfact>
</mgrwt>
</event>
<event>
 8    1  0.7667702E-014  0.7817323E+02  0.7818608E-02  0.1334317E+00
         -1   -1    0    0    0  501 -0.00000000000E+00  0.00000000000E+00  0.42399356805E+01  0.42399386760E+01  0.50400000000E-02 0.  1.
          2   -1    0    0  501    0  0.00000000000E+00 -0.00000000000E+00 -0.36032692362E+03  0.36032692363E+03  0.25500000000E-02 0. -1.
         24    2    1    2    0    0 -0.27755575616E-16  0.71054273576E-14 -0.35608698794E+03  0.36456686231E+03  0.78173231423E+02 0.  0.
         66    2    3    3    0    0 -0.13422782561E+00 -0.32775908250E+02 -0.27725170551E+03  0.27918951695E+03  0.19999981732E+01 0.  0.
        -13    1    3    3    0    0  0.13422782561E+00  0.32775908250E+02 -0.78835282436E+02  0.85377345352E+02  0.10566000000E+00 0.  1.
         13    1    4    4    0    0  0.23492057152E-01 -0.24863719820E+02 -0.20945164684E+03  0.21092228104E+03  0.10566000000E+00 0. -1.
        -13    1    4    4    0    0 -0.36996872644E+00 -0.62988243004E+01 -0.56314321435E+02  0.56666798278E+02  0.10566000000E+00 0.  1.
         14    1    4    4    0    0  0.21224884367E+00 -0.16133641295E+01 -0.11485737235E+02  0.11600437631E+02  0.00000000000E+00 0. -1.
<mgrwt>
<rscale>  0 0.78173231E+02</rscale>
<asrwt>0</asrwt>
<pdfrwt beam="1">  1        2 0.55434887E-01 0.78173231E+02</pdfrwt>
<pdfrwt beam="2">  1       -1 0.65229831E-03 0.78173231E+02</pdfrwt>
<totfact> 0.28924101E+05</totfact>
</mgrwt>
</event>
<event>
 8    1  0.7667702E-014  0.7959046E+02  0.7818608E-02  0.1330218E+00
          2   -1    0    0  501    0  0.00000000000E+00  0.00000000000E+00  0.89618078603E+02  0.89618078639E+02  0.25500000000E-02 0. -1.
         -1   -1    0    0    0  501 -0.00000000000E+00 -0.00000000000E+00 -0.17671215387E+02  0.17671216105E+02  0.50400000000E-02 0.  1.
         24    2    1    2    0    0 -0.35527136788E-14  0.00000000000E+00  0.71946863216E+02  0.10728929474E+03  0.79590461992E+02 0.  0.
         66    2    3    3    0    0 -0.18745363725E+02 -0.34414848759E+02  0.45127342137E+02  0.59801734782E+02  0.19999995618E+01 0.  0.
        -13    1    3    3    0    0  0.18745363725E+02  0.34414848759E+02  0.26819521079E+02  0.47487559963E+02  0.10566000000E+00 0.  1.
         13    1    4    4    0    0 -0.40545970257E+01 -0.81649472398E+01  0.10795530381E+02  0.14130136613E+02  0.10566000000E+00 0.  1.
        -13    1    4    4    0    0 -0.26625739241E+01 -0.44905443006E+01  0.68308971933E+01  0.85980584156E+01  0.10566000000E+00 0. -1.
         14    1    4    4    0    0 -0.12028192776E+02 -0.21759357218E+02  0.27500914563E+02  0.37073539753E+02  0.00000000000E+00 0. -1.
<mgrwt>
<rscale>  0 0.79590462E+02</rscale>
<asrwt>0</asrwt>
<pdfrwt beam="1">  1        2 0.13787397E-01 0.79590462E+02</pdfrwt>
<pdfrwt beam="2">  1       -1 0.27186486E-02 0.79590462E+02</pdfrwt>
<totfact> 0.17439798E+05</totfact>
</mgrwt>
</event>
<event>
 8    1  0.7667702E-014  0.8097206E+02  0.7818608E-02  0.1326315E+00
         -1   -1    0    0    0  501 -0.00000000000E+00  0.00000000000E+00  0.10869759083E+02  0.10869760251E+02  0.50400000000E-02 0.  1.
          2   -1    0    0  501    0  0.00000000000E+00 -0.00000000000E+00 -0.15079622539E+03  0.15079622541E+03  0.25500000000E-02 0. -1.
         24    2    1    2    0    0  0.00000000000E+00  0.00000000000E+00 -0.13992646631E+03  0.16166598566E+03  0.80972062756E+02 0.  0.
         66    2    3    3    0    0 -0.48446716031E+01  0.22575897005E+02 -0.13634380753E+03  0.13829958721E+03  0.20000005658E+01 0.  0.
        -13    1    3    3    0    0  0.48446716031E+01 -0.22575897005E+02 -0.35826587730E+01  0.23366398448E+02  0.10566000000E+00 0.  1.
         13    1    4    4    0    0 -0.22349507488E+01  0.11323683537E+02 -0.63074375759E+02  0.64121828227E+02  0.10566000000E+00 0. -1.
        -13    1    4    4    0    0 -0.25723413845E+01  0.10216422870E+02 -0.66498527403E+02  0.67327984874E+02  0.10566000000E+00 0.  1.
        -14    1    4    4    0    0 -0.37379469808E-01  0.10357905975E+01 -0.67709043717E+01  0.68497741128E+01  0.00000000000E+00 0.  1.
<mgrwt>
<rscale>  0 0.80972063E+02</rscale>
<asrwt>0</asrwt>
<pdfrwt beam="1">  1        2 0.23199418E-01 0.80972063E+02</pdfrwt>
<pdfrwt beam="2">  1       -1 0.16722708E-02 0.80972063E+02</pdfrwt>
<totfact> 0.19431081E+05</totfact>
</mgrwt>
</event>
<event>
 8    1  0.7667702E-014  0.7893504E+02  0.7818608E-02  0.1332101E+00
          2   -1    0    0  501    0  0.00000000000E+00  0.00000000000E+00  0.49974601179E+03  0.49974601179E+03  0.25500000000E-02 0. -1.
         -1   -1    0    0    0  501 -0.00000000000E+00 -0.00000000000E+00 -0.31169519285E+01  0.31169560032E+01  0.50400000000E-02 0.  1.
         24    2    1    2    0    0  0.00000000000E+00  0.00000000000E+00  0.49662905986E+03  0.50286296780E+03  0.78935044722E+02 0.  0.
         66    2    3    3    0    0 -0.50452389388E+01  0.19472008497E+02  0.46461096766E+03  0.46505049706E+03  0.19999997473E+01 0.  0.
        -13    1    3    3    0    0  0.50452389388E+01 -0.19472008497E+02  0.32018092201E+02  0.37812470735E+02  0.10566000000E+00 0.  1.
         13    1    4    4    0    0 -0.13378892961E+01  0.59209006027E+01  0.15859495746E+03  0.15871111715E+03  0.10566000000E+00 0. -1.
        -13    1    4    4    0    0 -0.15309298774E+01  0.60449761811E+01  0.12778708331E+03  0.12793918598E+03  0.10566000000E+00 0.  1.
        -14    1    4    4    0    0 -0.21764197653E+01  0.75061317129E+01  0.17822892688E+03  0.17840019393E+03  0.00000000000E+00 0.  1.
<mgrwt>
<rscale>  0 0.78935045E+02</rscale>
<asrwt>0</asrwt>
<pdfrwt beam="1">  1        2 0.76883959E-01 0.78935045E+02</pdfrwt>
<pdfrwt beam="2">  1       -1 0.47953165E-03 0.78935045E+02</pdfrwt>
<totfact> 0.31527868E+05</totfact>
</mgrwt>
</event>
<event>
 8    1  0.7667702E-014  0.7889520E+02  0.7818608E-02  0.1332216E+00
          2   -1    0    0  501    0  0.00000000000E+00  0.00000000000E+00  0.71582609994E+03  0.71582609994E+03  0.25500000000E-02 0. -1.
         -1   -1    0    0    0  501 -0.00000000000E+00 -0.00000000000E+00 -0.21738671749E+01  0.21738730174E+01  0.50400000000E-02 0.  1.
         24    2    1    2    0    0  0.00000000000E+00 -0.35527136788E-14  0.71365223276E+03  0.71799997296E+03  0.78895195308E+02 0.  0.
         66    2    3    3    0    0  0.18848569331E+02  0.22083551043E+02  0.59974729539E+03  0.60045297081E+03  0.20000084888E+01 0.  0.
        -13    1    3    3    0    0 -0.18848569331E+02 -0.22083551043E+02  0.11390493737E+03  0.11754700215E+03  0.10566000000E+00 0.  1.
         13    1    4    4    0    0  0.65003647991E+01  0.76696407033E+01  0.22055724095E+03  0.22078628995E+03  0.10566000000E+00 0. -1.
        -13    1    4    4    0    0  0.16416529300E+01  0.24406509200E+01  0.63951423838E+02  0.64019118834E+02  0.10566000000E+00 0. -1.
         14    1    4    4    0    0  0.10706551602E+02  0.11973259420E+02  0.31523863061E+03  0.31564756203E+03  0.00000000000E+00 0. -1.
<mgrwt>
<rscale>  0 0.78895195E+02</rscale>
<asrwt>0</asrwt>
<pdfrwt beam="1">  1        2 0.11012729E+00 0.78895195E+02</pdfrwt>
<pdfrwt beam="2">  1       -1 0.33444094E-03 0.78895195E+02</pdfrwt>
<totfact> 0.34856693E+05</totfact>
</mgrwt>
</event>
<event>
 8    1  0.7667702E-014  0.7990752E+02  0.7818608E-02  0.1329314E+00
          2   -1    0    0  501    0  0.00000000000E+00  0.00000000000E+00  0.65998236822E+03  0.65998236823E+03  0.25500000000E-02 0. -1.
         -1   -1    0    0    0  501 -0.00000000000E+00 -0.00000000000E+00 -0.24187028879E+01  0.24187081390E+01  0.50400000000E-02 0.  1.
         24    2    1    2    0    0 -0.35527136788E-14 -0.17763568394E-14  0.65756366534E+03  0.66240107637E+03  0.79907521568E+02 0.  0.
         66    2    3    3    0    0  0.27284476761E+02  0.91301165525E+01  0.55849024629E+03  0.55923443823E+03  0.19999984857E+01 0.  0.
        -13    1    3    3    0    0 -0.27284476761E+02 -0.91301165525E+01  0.99073419041E+02  0.10316663814E+03  0.10566000000E+00 0.  1.
         13    1    4    4    0    0  0.31107166244E+01  0.14239097267E+01  0.65715204872E+02  0.65804280957E+02  0.10566000000E+00 0.  1.
        -13    1    4    4    0    0  0.86155113416E+01  0.22508811230E+01  0.16236182067E+03  0.16260585929E+03  0.10566000000E+00 0. -1.
         14    1    4    4    0    0  0.15558248795E+02  0.54553257028E+01  0.33041322076E+03  0.33082429798E+03  0.00000000000E+00 0. -1.
<mgrwt>
<rscale>  0 0.79907522E+02</rscale>
<asrwt>0</asrwt>
<pdfrwt beam="1">  1        2 0.10153576E+00 0.79907522E+02</pdfrwt>
<pdfrwt beam="2">  1       -1 0.37210852E-03 0.79907522E+02</pdfrwt>
<totfact> 0.33083084E+05</totfact>
</mgrwt>
</event>
<event>
 8    1  0.7667702E-014  0.7814100E+02  0.7818608E-02  0.1334411E+00
          2   -1    0    0  501    0  0.00000000000E+00  0.00000000000E+00  0.18327314992E+03  0.18327314994E+03  0.25500000000E-02 0. -1.
         -1   -1    0    0    0  501 -0.00000000000E+00 -0.00000000000E+00 -0.83291177193E+01  0.83291192442E+01  0.50400000000E-02 0.  1.
         24    2    1    2    0    0  0.00000000000E+00  0.00000000000E+00  0.17494403220E+03  0.19160226918E+03  0.78140995341E+02 0.  0.
         66    2    3    3    0    0  0.67483674428E+01 -0.28162911316E+02  0.23316117510E+02  0.37233471446E+02  0.20000058124E+01 0.  0.
        -13    1    3    3    0    0 -0.67483674428E+01  0.28162911316E+02  0.15162791469E+03  0.15436879773E+03  0.10566000000E+00 0.  1.
         13    1    4    4    0    0  0.23280260540E+01 -0.79341096757E+01  0.71199279275E+01  0.10912118923E+02  0.10566000000E+00 0. -1.
        -13    1    4    4    0    0  0.27043628986E+01 -0.11423232511E+02  0.83901560608E+01  0.14429473395E+02  0.10566000000E+00 0.  1.
         14    1    4    4    0    0  0.17159784901E+01 -0.88055691290E+01  0.78060335217E+01  0.11891879128E+02  0.00000000000E+00 0. -1.
<mgrwt>
<rscale>  0 0.78140995E+02</rscale>
<asrwt>0</asrwt>
<pdfrwt beam="1">  1        2 0.28195871E-01 0.78140995E+02</pdfrwt>
<pdfrwt beam="2">  1       -1 0.12814028E-02 0.78140995E+02</pdfrwt>
<totfact> 0.22775796E+05</totfact>
</mgrwt>
</event>
<event>
 8    1  0.7667702E-014  0.8153196E+02  0.7818608E-02  0.1324759E+00
          2   -1    0    0  501    0  0.00000000000E+00  0.00000000000E+00  0.19944434317E+02  0.19944434480E+02  0.25500000000E-02 0. -1.
         -1   -1    0    0    0  501 -0.00000000000E+00 -0.00000000000E+00 -0.83324754895E+02  0.83324755048E+02  0.50400000000E-02 0.  1.
         24    2    1    2    0    0  0.00000000000E+00  0.00000000000E+00 -0.63380320578E+02  0.10326918953E+03  0.81531959802E+02 0.  0.
         66    2    3    3    0    0  0.77804855004E+01 -0.17578022372E+02  0.13789055239E+02  0.23741543057E+02  0.19999993010E+01 0.  0.
        -13    1    3    3    0    0 -0.77804855004E+01  0.17578022372E+02 -0.77169375817E+02  0.79527646471E+02  0.10566000000E+00 0.  1.
         13    1    4    4    0    0  0.34482119020E+01 -0.75164228083E+01  0.64892119833E+01  0.10512269658E+02  0.10566000000E+00 0. -1.
        -13    1    4    4    0    0  0.18665936366E+01 -0.33560396781E+01  0.19813635433E+01  0.43225154310E+01  0.10566000000E+00 0.  1.
        -14    1    4    4    0    0  0.24656799617E+01 -0.67055598861E+01  0.53184797122E+01  0.89067579684E+01  0.00000000000E+00 0.  1.
<mgrwt>
<rscale>  0 0.81531960E+02</rscale>
<asrwt>0</asrwt>
<pdfrwt beam="1">  1        2 0.30683746E-02 0.81531960E+02</pdfrwt>
<pdfrwt beam="2">  1       -1 0.12819193E-01 0.81531960E+02</pdfrwt>
<totfact> 0.11749405E+05</totfact>
</mgrwt>
</event>
<event>
 8    1  0.7667702E-014  0.8545293E+02  0.7818608E-02  0.1314252E+00
          2   -1    0    0  501    0  0.00000000000E+00  0.00000000000E+00  0.91572374083E+01  0.91572377633E+01  0.25500000000E-02 0. -1.
         -1   -1    0    0    0  501 -0.00000000000E+00 -0.00000000000E+00 -0.19935606320E+03  0.19935606327E+03  0.50400000000E-02 0.  1.
         24    2    1    2    0    0  0.00000000000E+00  0.00000000000E+00 -0.19019882579E+03  0.20851330103E+03  0.85452930744E+02 0.  0.
         66    2    3    3    0    0  0.36649072315E+02 -0.12179177116E+02 -0.50686759784E+02  0.63754485812E+02  0.19999967337E+01 0.  0.
        -13    1    3    3    0    0 -0.36649072315E+02  0.12179177116E+02 -0.13951206601E+03  0.14475881522E+03  0.10566000000E+00 0.  1.
         13    1    4    4    0    0  0.18577146286E+02 -0.55098332763E+01 -0.26091539592E+02  0.32499972756E+02  0.10566000000E+00 0. -1.
        -13    1    4    4    0    0  0.29776121190E+01 -0.10757987314E+01 -0.45902058359E+01  0.55771561296E+01  0.10566000000E+00 0.  1.
         14    1    4    4    0    0  0.15094313910E+02 -0.55935451087E+01 -0.20005014357E+02  0.25677356926E+02  0.00000000000E+00 0. -1.
<mgrwt>
<rscale>  0 0.85452931E+02</rscale>
<asrwt>0</asrwt>
<pdfrwt beam="1">  1        2 0.14088059E-02 0.85452931E+02</pdfrwt>
<pdfrwt beam="2">  1       -1 0.30670160E-01 0.85452931E+02</pdfrwt>
<totfact> 0.84281210E+04</totfact>
</mgrwt>
</event>
<event>
 8    1  0.7667702E-014  0.7581047E+02  0.7818608E-02  0.1341379E+00
          2   -1    0    0  501    0  0.00000000000E+00  0.00000000000E+00  0.81057658424E+01  0.81057662435E+01  0.25500000000E-02 0. -1.
         -1   -1    0    0    0  501 -0.00000000000E+00 -0.00000000000E+00 -0.17725735721E+03  0.17725735728E+03  0.50400000000E-02 0.  1.
         24    2    1    2    0    0 -0.35527136788E-14  0.00000000000E+00 -0.16915159137E+03  0.18536312353E+03  0.75810465642E+02 0.  0.
         66    2    3    3    0    0  0.26145680517E+02 -0.21646699290E+02 -0.43528997042E+02  0.55235403308E+02  0.19999988081E+01 0.  0.
        -13    1    3    3    0    0 -0.26145680517E+02  0.21646699290E+02 -0.12562259433E+03  0.13012772022E+03  0.10566000000E+00 0.  1.
         13    1    4    4    0    0  0.79905274097E+01 -0.63447915690E+01 -0.13715436956E+02  0.17094715069E+02  0.10566000000E+00 0. -1.
        -13    1    4    4    0    0  0.90542132764E+01 -0.84787309626E+01 -0.16059634509E+02  0.20292626281E+02  0.10566000000E+00 0.  1.
        -14    1    4    4    0    0  0.91009398313E+01 -0.68231767583E+01 -0.13753925577E+02  0.17848061958E+02  0.00000000000E+00 0.  1.
<mgrwt>
<rscale>  0 0.75810466E+02</rscale>
<asrwt>0</asrwt>
<pdfrwt beam="1">  1        2 0.12470411E-02 0.75810466E+02</pdfrwt>
<pdfrwt beam="2">  1       -1 0.27270360E-01 0.75810466E+02</pdfrwt>
<totfact> 0.11824862E+05</totfact>
</mgrwt>
</event>
<event>
 8    1  0.7667702E-014  0.8035742E+02  0.7818608E-02  0.1328040E+00
          2   -1    0    0  501    0  0.00000000000E+00  0.00000000000E+00  0.52134189856E+03  0.52134189856E+03  0.25500000000E-02 0. -1.
         -1   -1    0    0    0  501 -0.00000000000E+00 -0.00000000000E+00 -0.30964854412E+01  0.30964895429E+01  0.50400000000E-02 0.  1.
         24    2    1    2    0    0  0.00000000000E+00  0.00000000000E+00  0.51824541311E+03  0.52443838810E+03  0.80357418473E+02 0.  0.
         66    2    3    3    0    0  0.15709319119E+02  0.68007529557E+01  0.49633211701E+03  0.49663125488E+03  0.20000001309E+01 0.  0.
        -13    1    3    3    0    0 -0.15709319119E+02 -0.68007529557E+01  0.21913296104E+02  0.27807133224E+02  0.10566000000E+00 0.  1.
         13    1    4    4    0    0  0.10594108503E+02  0.44963953187E+01  0.31220036841E+03  0.31241244198E+03  0.10566000000E+00 0. -1.
        -13    1    4    4    0    0  0.37265826424E+01  0.19779632992E+01  0.13128376363E+03  0.13135157979E+03  0.10566000000E+00 0.  1.
         14    1    4    4    0    0  0.13886279738E+01  0.32639433783E+00  0.52847984970E+02  0.52867233106E+02  0.00000000000E+00 0. -1.
<mgrwt>
<rscale>  0 0.80357418E+02</rscale>
<asrwt>0</asrwt>
<pdfrwt beam="1">  1        2 0.80206412E-01 0.80357418E+02</pdfrwt>
<pdfrwt beam="2">  1       -1 0.47638289E-03 0.80357418E+02</pdfrwt>
<totfact> 0.30498219E+05</totfact>
</mgrwt>
</event>
<event>
 8    1  0.7667702E-014  0.8202683E+02  0.7818608E-02  0.1323396E+00
          2   -1    0    0  501    0  0.00000000000E+00  0.00000000000E+00  0.90227559701E+03  0.90227559702E+03  0.25500000000E-02 0. -1.
         -1   -1    0    0    0  501 -0.00000000000E+00 -0.00000000000E+00 -0.18642830903E+01  0.18642899030E+01  0.50400000000E-02 0.  1.
         24    2    1    2    0    0  0.00000000000E+00  0.00000000000E+00  0.90041131392E+03  0.90413988692E+03  0.82026830238E+02 0.  0.
         66    2    3    3    0    0  0.59250796453E+01 -0.27736880797E+02  0.77664404155E+03  0.77716433809E+03  0.20000008200E+01 0.  0.
        -13    1    3    3    0    0 -0.59250796453E+01  0.27736880797E+02  0.12376727237E+03  0.12697554882E+03  0.10566000000E+00 0.  1.
         13    1    4    4    0    0  0.29626687956E+01 -0.11967164104E+02  0.32785893114E+03  0.32809065868E+03  0.10566000000E+00 0. -1.
        -13    1    4    4    0    0  0.24869612064E+01 -0.99698827029E+01  0.28389650068E+03  0.28408241375E+03  0.10566000000E+00 0.  1.
         14    1    4    4    0    0  0.47544964331E+00 -0.57998339908E+01  0.16488860973E+03  0.16499126567E+03  0.00000000000E+00 0. -1.
<mgrwt>
<rscale>  0 0.82026830E+02</rscale>
<asrwt>0</asrwt>
<pdfrwt beam="1">  1        2 0.13881159E+00 0.82026830E+02</pdfrwt>
<pdfrwt beam="2">  1       -1 0.28681340E-03 0.82026830E+02</pdfrwt>
<totfact> 0.32754720E+05</totfact>
</mgrwt>
</event>
<event>
 8    1  0.7667702E-014  0.8001774E+02  0.7818608E-02  0.1329001E+00
         -1   -1    0    0    0  501 -0.00000000000E+00  0.00000000000E+00  0.30374546609E+01  0.30374588423E+01  0.50400000000E-02 0.  1.
          2   -1    0    0  501    0  0.00000000000E+00 -0.00000000000E+00 -0.52699016143E+03  0.52699016143E+03  0.25500000000E-02 0. -1.
         24    2    1    2    0    0  0.00000000000E+00  0.35527136788E-14 -0.52395270677E+03  0.53002762028E+03  0.80017743828E+02 0.  0.
         66    2    3    3    0    0  0.22582895424E+02  0.21717131333E+02 -0.42668441608E+03  0.42783783362E+03  0.19999986822E+01 0.  0.
        -13    1    3    3    0    0 -0.22582895424E+02 -0.21717131333E+02 -0.97268290689E+02  0.10218978666E+03  0.10566000000E+00 0.  1.
         13    1    4    4    0    0  0.21988644983E+01  0.21194950117E+01 -0.46241168709E+02  0.46342033963E+02  0.10566000000E+00 0. -1.
        -13    1    4    4    0    0  0.50452870792E+01  0.57986415144E+01 -0.10324346148E+03  0.10352923582E+03  0.10566000000E+00 0.  1.
        -14    1    4    4    0    0  0.15338743846E+02  0.13798994807E+02 -0.27719978588E+03  0.27796656384E+03  0.00000000000E+00 0.  1.
<mgrwt>
<rscale>  0 0.80017744E+02</rscale>
<asrwt>0</asrwt>
<pdfrwt beam="1">  1        2 0.81075337E-01 0.80017744E+02</pdfrwt>
<pdfrwt beam="2">  1       -1 0.46730146E-03 0.80017744E+02</pdfrwt>
<totfact> 0.30939774E+05</totfact>
</mgrwt>
</event>
<event>
 8    1  0.7667702E-014  0.7818933E+02  0.7818608E-02  0.1334270E+00
          2   -1    0    0  501    0  0.00000000000E+00  0.00000000000E+00  0.78846336024E+03  0.78846336025E+03  0.25500000000E-02 0. -1.
         -1   -1    0    0    0  501 -0.00000000000E+00 -0.00000000000E+00 -0.19384417325E+01  0.19384482846E+01  0.50400000000E-02 0.  1.
         24    2    1    2    0    0  0.00000000000E+00  0.00000000000E+00  0.78652491851E+03  0.79040180853E+03  0.78189331064E+02 0.  0.
         66    2    3    3    0    0 -0.11955174261E+02  0.15175783880E+02  0.73679604904E+03  0.73705199849E+03  0.19999996024E+01 0.  0.
        -13    1    3    3    0    0  0.11955174261E+02 -0.15175783880E+02  0.49728869474E+02  0.53349810039E+02  0.10566000000E+00 0.  1.
         13    1    4    4    0    0 -0.11487996667E+01  0.14718110080E+01  0.64144229383E+02  0.64171483507E+02  0.10566000000E+00 0. -1.
        -13    1    4    4    0    0 -0.74462635877E+01  0.89669204555E+01  0.41806641657E+03  0.41822887553E+03  0.10566000000E+00 0.  1.
         14    1    4    4    0    0 -0.33601110070E+01  0.47370524166E+01  0.25458540309E+03  0.25465163945E+03  0.00000000000E+00 0. -1.
<mgrwt>
<rscale>  0 0.78189331E+02</rscale>
<asrwt>0</asrwt>
<pdfrwt beam="1">  1        2 0.12130197E+00 0.78189331E+02</pdfrwt>
<pdfrwt beam="2">  1       -1 0.29822253E-03 0.78189331E+02</pdfrwt>
<totfact> 0.36375915E+05</totfact>
</mgrwt>
</event>
<event>
 8    1  0.7667702E-014  0.8240740E+02  0.7818608E-02  0.1322355E+00
          2   -1    0    0  501    0  0.00000000000E+00  0.00000000000E+00  0.13610614796E+02  0.13610615035E+02  0.25500000000E-02 0. -1.
         -1   -1    0    0    0  501 -0.00000000000E+00 -0.00000000000E+00 -0.12473681595E+03  0.12473681605E+03  0.50400000000E-02 0.  1.
         24    2    1    2    0    0 -0.44408920985E-15  0.00000000000E+00 -0.11112620116E+03  0.13834743109E+03  0.82407397153E+02 0.  0.
         66    2    3    3    0    0 -0.18366584185E+01 -0.39328916539E+02 -0.35338055203E+02  0.52942564593E+02  0.20000024544E+01 0.  0.
        -13    1    3    3    0    0  0.18366584185E+01  0.39328916539E+02 -0.75788145954E+02  0.85404866497E+02  0.10566000000E+00 0.  1.
         13    1    4    4    0    0 -0.15375055697E+01 -0.17649918600E+02 -0.16015949931E+02  0.23883160725E+02  0.10566000000E+00 0. -1.
        -13    1    4    4    0    0  0.37803530203E-01 -0.17622192739E+02 -0.15318283522E+02  0.23349605567E+02  0.10566000000E+00 0.  1.
        -14    1    4    4    0    0 -0.33695637901E+00 -0.40568051999E+01 -0.40038217505E+01  0.57097983012E+01  0.00000000000E+00 0.  1.
<mgrwt>
<rscale>  0 0.82407397E+02</rscale>
<asrwt>0</asrwt>
<pdfrwt beam="1">  1        2 0.20939408E-02 0.82407397E+02</pdfrwt>
<pdfrwt beam="2">  1       -1 0.19190279E-01 0.82407397E+02</pdfrwt>
<totfact> 0.10472750E+05</totfact>
</mgrwt>
</event>
<event>
 8    1  0.7667702E-014  0.7918364E+02  0.7818608E-02  0.1331384E+00
         -1   -1    0    0    0  501 -0.00000000000E+00  0.00000000000E+00  0.11419472873E+02  0.11419473985E+02  0.50400000000E-02 0.  1.
          2   -1    0    0  501    0  0.00000000000E+00 -0.00000000000E+00 -0.13726660373E+03  0.13726660375E+03  0.25500000000E-02 0. -1.
         24    2    1    2    0    0  0.17763568394E-14 -0.35527136788E-14 -0.12584713085E+03  0.14868607774E+03  0.79183643312E+02 0.  0.
         66    2    3    3    0    0  0.13584663042E+02 -0.18210405106E+02 -0.12379026984E+03  0.12587371781E+03  0.20000010527E+01 0.  0.
        -13    1    3    3    0    0 -0.13584663042E+02  0.18210405106E+02 -0.20568610142E+01  0.22812359925E+02  0.10566000000E+00 0.  1.
         13    1    4    4    0    0  0.80657022310E+01 -0.11960883188E+02 -0.80344877708E+02  0.81629827986E+02  0.10566000000E+00 0. -1.
        -13    1    4    4    0    0  0.53071988416E+01 -0.59255039143E+01 -0.40578330928E+02  0.41350816934E+02  0.10566000000E+00 0.  1.
        -14    1    4    4    0    0  0.21176196945E+00 -0.32401800431E+00 -0.28670612030E+01  0.28930728890E+01  0.00000000000E+00 0.  1.
<mgrwt>
<rscale>  0 0.79183643E+02</rscale>
<asrwt>0</asrwt>
<pdfrwt beam="1">  1        2 0.21117938E-01 0.79183643E+02</pdfrwt>
<pdfrwt beam="2">  1       -1 0.17568422E-02 0.79183643E+02</pdfrwt>
<totfact> 0.20010958E+05</totfact>
</mgrwt>
</event>
<event>
 8    1  0.7667702E-014  0.7874331E+02  0.7818608E-02  0.1332656E+00
          2   -1    0    0  501    0  0.00000000000E+00  0.00000000000E+00  0.51646606951E+02  0.51646607014E+02  0.25500000000E-02 0. -1.
         -1   -1    0    0    0  501 -0.00000000000E+00 -0.00000000000E+00 -0.30014116741E+02  0.30014117165E+02  0.50400000000E-02 0.  1.
         24    2    1    2    0    0  0.35527136788E-14  0.00000000000E+00  0.21632490210E+02  0.81660724179E+02  0.78743312356E+02 0.  0.
         66    2    3    3    0    0  0.31251514461E+02  0.23818889348E+02  0.87167599211E+01  0.40298617139E+02  0.19999984925E+01 0.  0.
        -13    1    3    3    0    0 -0.31251514461E+02 -0.23818889348E+02  0.12915730289E+02  0.41362107040E+02  0.10566000000E+00 0.  1.
         13    1    4    4    0    0  0.22083844354E+02  0.17323946175E+02  0.56212996701E+01  0.28625608579E+02  0.10566000000E+00 0. -1.
        -13    1    4    4    0    0  0.67120374530E+01  0.47059813199E+01  0.19562592076E+01  0.84282750950E+01  0.10566000000E+00 0.  1.
        -14    1    4    4    0    0  0.24556326535E+01  0.17889618527E+01  0.11392010434E+01  0.32447334647E+01  0.00000000000E+00 0.  1.
<mgrwt>
<rscale>  0 0.78743312E+02</rscale>
<asrwt>0</asrwt>
<pdfrwt beam="1">  1        2 0.79456319E-02 0.78743312E+02</pdfrwt>
<pdfrwt beam="2">  1       -1 0.46175565E-02 0.78743312E+02</pdfrwt>
<totfact> 0.15714761E+05</totfact>
</mgrwt>
</event>
<event>
 8    1  0.7667702E-014  0.8008525E+02  0.7818608E-02  0.1328810E+00
         -1   -1    0    0    0  501 -0.00000000000E+00  0.00000000000E+00  0.94051155342E+02  0.94051155477E+02  0.50400000000E-02 0.  1.
          2   -1    0    0  501    0  0.00000000000E+00 -0.00000000000E+00 -0.17048295280E+02  0.17048295471E+02  0.25500000000E-02 0. -1.
         24    2    1    2    0    0 -0.35527136788E-14  0.00000000000E+00  0.77002860062E+02  0.11109945095E+03  0.80085251720E+02 0.  0.
         66    2    3    3    0    0 -0.21295017747E+02  0.33216405868E+02  0.29260822479E+02  0.49163026153E+02  0.20000021860E+01 0.  0.
        -13    1    3    3    0    0  0.21295017747E+02 -0.33216405868E+02  0.47742037583E+02  0.61936424794E+02  0.10566000000E+00 0.  1.
         13    1    4    4    0    0 -0.14362864777E+02  0.21391655265E+02  0.18938183468E+02  0.31977503916E+02  0.10566000000E+00 0. -1.
        -13    1    4    4    0    0 -0.18393257896E+01  0.26526641133E+01  0.20530635692E+01  0.38270067041E+01  0.10566000000E+00 0.  1.
         14    1    4    4    0    0 -0.50928271809E+01  0.91720864898E+01  0.82695754417E+01  0.13358515533E+02  0.00000000000E+00 0. -1.
<mgrwt>
<rscale>  0 0.80085252E+02</rscale>
<asrwt>0</asrwt>
<pdfrwt beam="1">  1        2 0.26228147E-02 0.80085252E+02</pdfrwt>
<pdfrwt beam="2">  1       -1 0.14469408E-01 0.80085252E+02</pdfrwt>
<totfact> 0.11976603E+05</totfact>
</mgrwt>
</event>
<event>
 8    1  0.7667702E-014  0.8044505E+02  0.7818608E-02  0.1327793E+00
          2   -1    0    0  501    0  0.00000000000E+00  0.00000000000E+00  0.48670636086E+02  0.48670636153E+02  0.25500000000E-02 0. -1.
         -1   -1    0    0    0  501 -0.00000000000E+00 -0.00000000000E+00 -0.33240810885E+02  0.33240811267E+02  0.50400000000E-02 0.  1.
         24    2    1    2    0    0  0.71054273576E-14 -0.35527136788E-14  0.15429825201E+02  0.81911447420E+02  0.80445047782E+02 0.  0.
         66    2    3    3    0    0 -0.32210138925E+02  0.20925722674E+02  0.19787611481E+02  0.43254230962E+02  0.20000022522E+01 0.  0.
        -13    1    3    3    0    0  0.32210138925E+02 -0.20925722674E+02 -0.43577862799E+01  0.38657216458E+02  0.10566000000E+00 0.  1.
         13    1    4    4    0    0 -0.30039943101E+02  0.19605439309E+02  0.18194228290E+02  0.40222040464E+02  0.10566000000E+00 0. -1.
        -13    1    4    4    0    0 -0.63300424761E+00  0.61374197959E+00  0.54946974454E+00  0.10442483568E+01  0.10566000000E+00 0.  1.
         14    1    4    4    0    0 -0.15371915766E+01  0.70654138469E+00  0.10439134465E+01  0.19879421409E+01  0.00000000000E+00 0. -1.
<mgrwt>
<rscale>  0 0.80445048E+02</rscale>
<asrwt>0</asrwt>
<pdfrwt beam="1">  1        2 0.74877902E-02 0.80445048E+02</pdfrwt>
<pdfrwt beam="2">  1       -1 0.51139710E-02 0.80445048E+02</pdfrwt>
<totfact> 0.14631579E+05</totfact>
</mgrwt>
</event>
<event>
 8    1  0.7667702E-014  0.7858033E+02  0.7818608E-02  0.1333129E+00
          2   -1    0    0  501    0  0.00000000000E+00  0.00000000000E+00  0.39802835668E+03  0.39802835668E+03  0.25500000000E-02 0. -1.
         -1   -1    0    0    0  501 -0.00000000000E+00 -0.00000000000E+00 -0.38784077905E+01  0.38784110653E+01  0.50400000000E-02 0.  1.
         24    2    1    2    0    0  0.00000000000E+00  0.00000000000E+00  0.39414994888E+03  0.40190676775E+03  0.78580326777E+02 0.  0.
         66    2    3    3    0    0 -0.37490587860E+02  0.27968209559E+01  0.25514541897E+03  0.25790802857E+03  0.19999978916E+01 0.  0.
        -13    1    3    3    0    0  0.37490587860E+02 -0.27968209559E+01  0.13900452991E+03  0.14399873918E+03  0.10566000000E+00 0.  1.
         13    1    4    4    0    0 -0.13670625296E+02  0.98947938408E+00  0.94188515135E+02  0.95180631501E+02  0.10566000000E+00 0. -1.
        -13    1    4    4    0    0 -0.13935864866E+02  0.11632073410E+01  0.89021562411E+02  0.90113323760E+02  0.10566000000E+00 0.  1.
        -14    1    4    4    0    0 -0.98840976978E+01  0.64413423084E+00  0.71935341428E+02  0.72614073309E+02  0.00000000000E+00 0.  1.
<mgrwt>
<rscale>  0 0.78580327E+02</rscale>
<asrwt>0</asrwt>
<pdfrwt beam="1">  1        2 0.61235121E-01 0.78580327E+02</pdfrwt>
<pdfrwt beam="2">  1       -1 0.59667848E-03 0.78580327E+02</pdfrwt>
<totfact> 0.29554223E+05</totfact>
</mgrwt>
</event>
<event>
 8    1  0.7667702E-014  0.8031769E+02  0.7818608E-02  0.1328152E+00
         -1   -1    0    0    0  501 -0.00000000000E+00  0.00000000000E+00  0.16949554890E+02  0.16949555639E+02  0.50400000000E-02 0.  1.
          2   -1    0    0  501    0  0.00000000000E+00 -0.00000000000E+00 -0.95148981891E+02  0.95148981925E+02  0.25500000000E-02 0. -1.
         24    2    1    2    0    0 -0.17763568394E-14  0.00000000000E+00 -0.78199427001E+02  0.11209853756E+03  0.80317692576E+02 0.  0.
         66    2    3    3    0    0  0.89558078432E+01 -0.37608261826E+02 -0.54164998705E+02  0.66576534541E+02  0.20000037666E+01 0.  0.
        -13    1    3    3    0    0 -0.89558078432E+01  0.37608261826E+02 -0.24034428296E+02  0.45522003023E+02  0.10566000000E+00 0.  1.
         13    1    4    4    0    0  0.50883410680E+01 -0.19771473242E+02 -0.27505275599E+02  0.34254251106E+02  0.10566000000E+00 0. -1.
        -13    1    4    4    0    0  0.16437833986E+01 -0.65852866559E+01 -0.10613517986E+02  0.12598648828E+02  0.10566000000E+00 0.  1.
         14    1    4    4    0    0  0.22236833766E+01 -0.11251501928E+02 -0.16046205120E+02  0.19723634608E+02  0.00000000000E+00 0. -1.
<mgrwt>
<rscale>  0 0.80317693E+02</rscale>
<asrwt>0</asrwt>
<pdfrwt beam="1">  1        2 0.14638305E-01 0.80317693E+02</pdfrwt>
<pdfrwt beam="2">  1       -1 0.26076240E-02 0.80317693E+02</pdfrwt>
<totfact> 0.17298187E+05</totfact>
</mgrwt>
</event>
<event>
 8    1  0.7667702E-014  0.7960149E+02  0.7818608E-02  0.1330186E+00
         -1   -1    0    0    0  501 -0.00000000000E+00  0.00000000000E+00  0.24602754223E+01  0.24602805847E+01  0.50400000000E-02 0.  1.
          2   -1    0    0  501    0  0.00000000000E+00 -0.00000000000E+00 -0.64386997343E+03  0.64386997344E+03  0.25500000000E-02 0. -1.
         24    2    1    2    0    0 -0.17763568394E-14 -0.35527136788E-14 -0.64140969801E+03  0.64633025402E+03  0.79601485934E+02 0.  0.
         66    2    3    3    0    0  0.11343545282E+02  0.27953764836E+02 -0.53139099729E+03  0.53225039314E+03  0.20000005888E+01 0.  0.
        -13    1    3    3    0    0 -0.11343545282E+02 -0.27953764836E+02 -0.11001870072E+03  0.11407986089E+03  0.10566000000E+00 0.  1.
         13    1    4    4    0    0  0.65769896453E+01  0.14544856531E+02 -0.26983893081E+03  0.27031069048E+03  0.10566000000E+00 0. -1.
        -13    1    4    4    0    0  0.25794540582E+01  0.64058161744E+01 -0.12903155572E+03  0.12921625904E+03  0.10566000000E+00 0.  1.
         14    1    4    4    0    0  0.21871015788E+01  0.70030921299E+01 -0.13252051077E+03  0.13272344362E+03  0.00000000000E+00 0. -1.
<mgrwt>
<rscale>  0 0.79601486E+02</rscale>
<asrwt>0</asrwt>
<pdfrwt beam="1">  1        2 0.99056785E-01 0.79601486E+02</pdfrwt>
<pdfrwt beam="2">  1       -1 0.37850482E-03 0.79601486E+02</pdfrwt>
<totfact> 0.33206156E+05</totfact>
</mgrwt>
</event>
<event>
 8    1  0.7667702E-014  0.7989016E+02  0.7818608E-02  0.1329363E+00
         -1   -1    0    0    0  501 -0.00000000000E+00  0.00000000000E+00  0.72450034969E+02  0.72450035144E+02  0.50400000000E-02 0.  1.
          2   -1    0    0  501    0  0.00000000000E+00 -0.00000000000E+00 -0.22023581014E+02  0.22023581161E+02  0.25500000000E-02 0. -1.
         24    2    1    2    0    0 -0.44408920985E-15  0.00000000000E+00  0.50426453955E+02  0.94473616305E+02  0.79890155334E+02 0.  0.
         66    2    3    3    0    0 -0.21854141840E+01  0.23591265592E+02 -0.12765111687E+02  0.26986513984E+02  0.20000033107E+01 0.  0.
        -13    1    3    3    0    0  0.21854141840E+01 -0.23591265592E+02  0.63191565642E+02  0.67487102321E+02  0.10566000000E+00 0.  1.
         13    1    4    4    0    0 -0.83342228173E+00  0.90117422537E+01 -0.57681102186E+01  0.10732583597E+02  0.10566000000E+00 0. -1.
        -13    1    4    4    0    0 -0.48555009944E-01  0.48677169806E+01 -0.24728116817E+01  0.54610427430E+01  0.10566000000E+00 0.  1.
        -14    1    4    4    0    0 -0.13034368923E+01  0.97118063574E+01 -0.45241897867E+01  0.10792887643E+02  0.00000000000E+00 0.  1.
<mgrwt>
<rscale>  0 0.79890155E+02</rscale>
<asrwt>0</asrwt>
<pdfrwt beam="1">  1        2 0.33882433E-02 0.79890155E+02</pdfrwt>
<pdfrwt beam="2">  1       -1 0.11146159E-01 0.79890155E+02</pdfrwt>
<totfact> 0.12708031E+05</totfact>
</mgrwt>
</event>
<event>
 8    1  0.7667702E-014  0.7368163E+02  0.7818608E-02  0.1348003E+00
          2   -1    0    0  501    0  0.00000000000E+00  0.00000000000E+00  0.68194211842E+02  0.68194211889E+02  0.25500000000E-02 0. -1.
         -1   -1    0    0    0  501 -0.00000000000E+00 -0.00000000000E+00 -0.19902649208E+02  0.19902649846E+02  0.50400000000E-02 0.  1.
         24    2    1    2    0    0  0.00000000000E+00  0.35527136788E-14  0.48291562634E+02  0.88096861735E+02  0.73681626109E+02 0.  0.
         66    2    3    3    0    0  0.28796941420E+02  0.21612612305E+02  0.33337441151E+02  0.49109610497E+02  0.20000037330E+01 0.  0.
        -13    1    3    3    0    0 -0.28796941420E+02 -0.21612612305E+02  0.14954121482E+02  0.38987251238E+02  0.10566000000E+00 0.  1.
         13    1    4    4    0    0  0.23141746662E+02  0.18232318879E+02  0.26961590419E+02  0.39936154199E+02  0.10566000000E+00 0. -1.
        -13    1    4    4    0    0  0.36059162690E+01  0.22650528130E+01  0.42469425836E+01  0.60150462782E+01  0.10566000000E+00 0.  1.
         14    1    4    4    0    0  0.20492784888E+01  0.11152406126E+01  0.21289081483E+01  0.31584100197E+01  0.00000000000E+00 0. -1.
<mgrwt>
<rscale>  0 0.73681626E+02</rscale>
<asrwt>0</asrwt>
<pdfrwt beam="1">  1        2 0.10491417E-01 0.73681626E+02</pdfrwt>
<pdfrwt beam="2">  1       -1 0.30619461E-02 0.73681626E+02</pdfrwt>
<totfact> 0.20023760E+05</totfact>
</mgrwt>
</event>
<event>
 8    1  0.7667702E-014  0.8159450E+02  0.7818608E-02  0.1324586E+00
         -1   -1    0    0    0  501 -0.00000000000E+00  0.00000000000E+00  0.52395976932E+02  0.52395977174E+02  0.50400000000E-02 0.  1.
          2   -1    0    0  501    0  0.00000000000E+00 -0.00000000000E+00 -0.31766095074E+02  0.31766095176E+02  0.25500000000E-02 0. -1.
         24    2    1    2    0    0  0.00000000000E+00  0.11102230246E-15  0.20629881858E+02  0.84162072350E+02  0.81594499795E+02 0.  0.
         66    2    3    3    0    0 -0.37280661803E+02 -0.96528055725E+00 -0.66787368453E+01  0.37939228101E+02  0.19999980095E+01 0.  0.
        -13    1    3    3    0    0  0.37280661803E+02  0.96528055725E+00  0.27308618703E+02  0.46222844250E+02  0.10566000000E+00 0.  1.
         13    1    4    4    0    0 -0.27002536795E+02 -0.19719309679E+00 -0.44510943632E+01  0.27367851277E+02  0.10566000000E+00 0. -1.
        -13    1    4    4    0    0 -0.13003229535E+01 -0.65265724367E-01 -0.53310388233E-01  0.13073275914E+01  0.10566000000E+00 0. -1.
         14    1    4    4    0    0 -0.89778020544E+01 -0.70282173609E+00 -0.21743320938E+01  0.92640492321E+01  0.00000000000E+00 0. -1.
<mgrwt>
<rscale>  0 0.81594500E+02</rscale>
<asrwt>0</asrwt>
<pdfrwt beam="1">  1        2 0.48870916E-02 0.81594500E+02</pdfrwt>
<pdfrwt beam="2">  1       -1 0.80609195E-02 0.81594500E+02</pdfrwt>
<totfact> 0.12876947E+05</totfact>
</mgrwt>
</event>
<event>
 8    1  0.7667702E-014  0.7997005E+02  0.7818608E-02  0.1329136E+00
          2   -1    0    0  501    0  0.00000000000E+00  0.00000000000E+00  0.17196911854E+03  0.17196911856E+03  0.25500000000E-02 0. -1.
         -1   -1    0    0    0  501 -0.00000000000E+00 -0.00000000000E+00 -0.92970302963E+01  0.92970316624E+01  0.50400000000E-02 0.  1.
         24    2    1    2    0    0  0.35527136788E-14 -0.17763568394E-14  0.16267208824E+03  0.18126615022E+03  0.79970050159E+02 0.  0.
         66    2    3    3    0    0  0.17678330473E+02 -0.10412947459E+02  0.15911240964E+03  0.16044223803E+03  0.20000001770E+01 0.  0.
        -13    1    3    3    0    0 -0.17678330473E+02  0.10412947459E+02  0.35596786067E+01  0.20823912191E+02  0.10566000000E+00 0.  1.
         13    1    4    4    0    0  0.16852045075E+02 -0.97868607325E+01  0.15156753477E+03  0.15281525718E+03  0.10566000000E+00 0. -1.
        -13    1    4    4    0    0  0.49073948765E+00 -0.47739743437E+00  0.36735152866E+01  0.37382632533E+01  0.10566000000E+00 0.  1.
         14    1    4    4    0    0  0.33554591092E+00 -0.14868929192E+00  0.38713595773E+01  0.38887175959E+01  0.00000000000E+00 0. -1.
<mgrwt>
<rscale>  0 0.79970050E+02</rscale>
<asrwt>0</asrwt>
<pdfrwt beam="1">  1        2 0.26456786E-01 0.79970050E+02</pdfrwt>
<pdfrwt beam="2">  1       -1 0.14303125E-02 0.79970050E+02</pdfrwt>
<totfact> 0.20970532E+05</totfact>
</mgrwt>
</event>
<event>
 8    1  0.7667702E-014  0.8060704E+02  0.7818608E-02  0.1327338E+00
         -1   -1    0    0    0  501 -0.00000000000E+00  0.00000000000E+00  0.10721971187E+02  0.10721972371E+02  0.50400000000E-02 0.  1.
          2   -1    0    0  501    0  0.00000000000E+00 -0.00000000000E+00 -0.15149954560E+03  0.15149954562E+03  0.25500000000E-02 0. -1.
         24    2    1    2    0    0  0.00000000000E+00  0.00000000000E+00 -0.14077757441E+03  0.16222151799E+03  0.80607043378E+02 0.  0.
         66    2    3    3    0    0 -0.37097391737E+02  0.14987873362E+02 -0.79767054807E+02  0.89261614701E+02  0.20000012426E+01 0.  0.
        -13    1    3    3    0    0  0.37097391737E+02 -0.14987873362E+02 -0.61010519607E+02  0.72959903292E+02  0.10566000000E+00 0.  1.
         13    1    4    4    0    0 -0.22627425362E+02  0.94804912528E+01 -0.47721631706E+02  0.53658600332E+02  0.10566000000E+00 0. -1.
        -13    1    4    4    0    0 -0.55079404229E+00  0.39091021333E+00 -0.14214781050E+01  0.15773233373E+01  0.10566000000E+00 0. -1.
         14    1    4    4    0    0 -0.13919172332E+02  0.51164718959E+01 -0.30623944996E+02  0.34025691032E+02  0.00000000000E+00 0. -1.
<mgrwt>
<rscale>  0 0.80607043E+02</rscale>
<asrwt>0</asrwt>
<pdfrwt beam="1">  1        2 0.23307621E-01 0.80607043E+02</pdfrwt>
<pdfrwt beam="2">  1       -1 0.16495342E-02 0.80607043E+02</pdfrwt>
<totfact> 0.19695275E+05</totfact>
</mgrwt>
</event>
<event>
 8    1  0.7667702E-014  0.8236911E+02  0.7818608E-02  0.1322460E+00
         -1   -1    0    0    0  501 -0.00000000000E+00  0.00000000000E+00  0.98915205881E+02  0.98915206009E+02  0.50400000000E-02 0.  1.
          2   -1    0    0  501    0  0.00000000000E+00 -0.00000000000E+00 -0.17147693463E+02  0.17147693652E+02  0.25500000000E-02 0. -1.
         24    2    1    2    0    0 -0.35527136788E-14  0.00000000000E+00  0.81767512418E+02  0.11606289966E+03  0.82369111873E+02 0.  0.
         66    2    3    3    0    0 -0.31365295065E+02  0.21892124009E+02  0.19486588631E+02  0.42974108045E+02  0.19999994229E+01 0.  0.
        -13    1    3    3    0    0  0.31365295065E+02 -0.21892124009E+02  0.62280923787E+02  0.73088791616E+02  0.10566000000E+00 0.  1.
         13    1    4    4    0    0 -0.14433489746E+02  0.10288179432E+02  0.86066660927E+01  0.19704266734E+02  0.10566000000E+00 0. -1.
        -13    1    4    4    0    0 -0.33008463683E+01  0.18762915216E+01  0.24685336972E+01  0.45299977121E+01  0.10566000000E+00 0.  1.
        -14    1    4    4    0    0 -0.13630958950E+02  0.97276530550E+01  0.84113888410E+01  0.18739843599E+02  0.00000000000E+00 0.  1.
<mgrwt>
<rscale>  0 0.82369112E+02</rscale>
<asrwt>0</asrwt>
<pdfrwt beam="1">  1        2 0.26381067E-02 0.82369112E+02</pdfrwt>
<pdfrwt beam="2">  1       -1 0.15217724E-01 0.82369112E+02</pdfrwt>
<totfact> 0.11047599E+05</totfact>
</mgrwt>
</event>
<event>
 8    1  0.7667702E-014  0.7973959E+02  0.7818608E-02  0.1329792E+00
          2   -1    0    0  501    0  0.00000000000E+00  0.00000000000E+00  0.10946471311E+03  0.10946471314E+03  0.25500000000E-02 0. -1.
         -1   -1    0    0    0  501 -0.00000000000E+00 -0.00000000000E+00 -0.14521580220E+02  0.14521581094E+02  0.50400000000E-02 0.  1.
         24    2    1    2    0    0  0.00000000000E+00  0.35527136788E-14  0.94943132886E+02  0.12398629423E+03  0.79739592892E+02 0.  0.
         66    2    3    3    0    0 -0.17277443383E+02  0.22418806898E+02  0.91107147952E+02  0.95423400521E+02  0.20000016177E+01 0.  0.
        -13    1    3    3    0    0  0.17277443383E+02 -0.22418806898E+02  0.38359849347E+01  0.28562893709E+02  0.10566000000E+00 0.  1.
         13    1    4    4    0    0 -0.30177468292E+01  0.46937393242E+01  0.18544808432E+02  0.19366441815E+02  0.10566000000E+00 0.  1.
        -13    1    4    4    0    0 -0.47813411647E+01  0.66199655206E+01  0.24418973752E+02  0.25748448691E+02  0.10566000000E+00 0.  1.
         14    1    4    4    0    0 -0.94783553894E+01  0.11105102053E+02  0.48143365767E+02  0.50308510015E+02  0.00000000000E+00 0. -1.
<mgrwt>
<rscale>  0 0.79739593E+02</rscale>
<asrwt>0</asrwt>
<pdfrwt beam="1">  1        2 0.16840725E-01 0.79739593E+02</pdfrwt>
<pdfrwt beam="2">  1       -1 0.22340893E-02 0.79739593E+02</pdfrwt>
<totfact> 0.18347218E+05</totfact>
</mgrwt>
</event>
<event>
 8    1  0.7667702E-014  0.8835626E+02  0.7818608E-02  0.1306882E+00
         -1   -1    0    0    0  501 -0.00000000000E+00  0.00000000000E+00  0.82370201686E+01  0.82370217105E+01  0.50400000000E-02 0.  1.
          2   -1    0    0  501    0  0.00000000000E+00 -0.00000000000E+00 -0.23694332318E+03  0.23694332319E+03  0.25500000000E-02 0. -1.
         24    2    1    2    0    0  0.00000000000E+00  0.00000000000E+00 -0.22870630301E+03  0.24518034490E+03  0.88356258919E+02 0.  0.
         66    2    3    3    0    0 -0.91088192741E+01  0.20838083178E+02 -0.21943750538E+03  0.22062188256E+03  0.19999991899E+01 0.  0.
        -13    1    3    3    0    0  0.91088192741E+01 -0.20838083178E+02 -0.92687976265E+01  0.24558462342E+02  0.10566000000E+00 0.  1.
         13    1    4    4    0    0 -0.40382483691E+01  0.10819507490E+02 -0.11648760005E+03  0.11705870887E+03  0.10566000000E+00 0. -1.
        -13    1    4    4    0    0 -0.29390482384E+01  0.49915623962E+01 -0.53127802736E+02  0.53442757108E+02  0.10566000000E+00 0.  1.
        -14    1    4    4    0    0 -0.21315226666E+01  0.50270132919E+01 -0.49822102595E+02  0.50120416584E+02  0.00000000000E+00 0.  1.
<mgrwt>
<rscale>  0 0.88356259E+02</rscale>
<asrwt>0</asrwt>
<pdfrwt beam="1">  1        2 0.36452814E-01 0.88356259E+02</pdfrwt>
<pdfrwt beam="2">  1       -1 0.12672342E-02 0.88356259E+02</pdfrwt>
<totfact> 0.18005148E+05</totfact>
</mgrwt>
</event>
<event>
 8    1  0.7667702E-014  0.7840713E+02  0.7818608E-02  0.1333634E+00
          2   -1    0    0  501    0  0.00000000000E+00  0.00000000000E+00  0.14357949183E+03  0.14357949185E+03  0.25500000000E-02 0. -1.
         -1   -1    0    0    0  501 -0.00000000000E+00 -0.00000000000E+00 -0.10704309995E+02  0.10704311181E+02  0.50400000000E-02 0.  1.
         24    2    1    2    0    0  0.17763568394E-14  0.88817841970E-15  0.13287518183E+03  0.15428380303E+03  0.78407129337E+02 0.  0.
         66    2    3    3    0    0 -0.12319011546E+02 -0.46028238224E+01  0.13909942558E+03  0.13973401242E+03  0.19999994578E+01 0.  0.
        -13    1    3    3    0    0  0.12319011546E+02  0.46028238224E+01 -0.62242437465E+01  0.14549790612E+02  0.10566000000E+00 0.  1.
         13    1    4    4    0    0 -0.58173532343E+01 -0.16671664508E+01  0.66219641147E+02  0.66495662117E+02  0.10566000000E+00 0. -1.
        -13    1    4    4    0    0 -0.14688714974E+01 -0.10385975420E+01  0.22593626240E+02  0.22665378422E+02  0.10566000000E+00 0. -1.
        -14    1    4    4    0    0 -0.50327868139E+01 -0.18970598296E+01  0.50286158193E+02  0.50572971882E+02  0.00000000000E+00 0.  1.
<mgrwt>
<rscale>  0 0.78407129E+02</rscale>
<asrwt>0</asrwt>
<pdfrwt beam="1">  1        2 0.22089152E-01 0.78407129E+02</pdfrwt>
<pdfrwt beam="2">  1       -1 0.16468171E-02 0.78407129E+02</pdfrwt>
<totfact> 0.20833947E+05</totfact>
</mgrwt>
</event>
<event>
 8    1  0.7667702E-014  0.7954696E+02  0.7818608E-02  0.1330342E+00
          2   -1    0    0  501    0  0.00000000000E+00  0.00000000000E+00  0.86139409912E+01  0.86139413686E+01  0.25500000000E-02 0. -1.
         -1   -1    0    0    0  501 -0.00000000000E+00 -0.00000000000E+00 -0.18364761774E+03  0.18364761780E+03  0.50400000000E-02 0.  1.
         24    2    1    2    0    0  0.35527136788E-14  0.00000000000E+00 -0.17503367674E+03  0.19226155917E+03  0.79546961860E+02 0.  0.
         66    2    3    3    0    0 -0.21646689651E+02  0.32230471938E+02 -0.10815765931E+03  0.11493242258E+03  0.19999996902E+01 0.  0.
        -13    1    3    3    0    0  0.21646689651E+02 -0.32230471938E+02 -0.66876017436E+02  0.77329136593E+02  0.10566000000E+00 0.  1.
         13    1    4    4    0    0 -0.10796091137E+02  0.14854446629E+02 -0.50602252553E+02  0.53831304052E+02  0.10566000000E+00 0. -1.
        -13    1    4    4    0    0 -0.31554559803E+00  0.66608191419E+00 -0.17132573526E+01  0.18680602058E+01  0.10566000000E+00 0. -1.
         14    1    4    4    0    0 -0.10535052917E+02  0.16709943395E+02 -0.55842149403E+02  0.59233058322E+02  0.00000000000E+00 0. -1.
<mgrwt>
<rscale>  0 0.79546962E+02</rscale>
<asrwt>0</asrwt>
<pdfrwt beam="1">  1        2 0.13252219E-02 0.79546962E+02</pdfrwt>
<pdfrwt beam="2">  1       -1 0.28253477E-01 0.79546962E+02</pdfrwt>
<totfact> 0.10362227E+05</totfact>
</mgrwt>
</event>
<event>
 8    1  0.7667702E-014  0.7955964E+02  0.7818608E-02  0.1330306E+00
         -1   -1    0    0    0  501 -0.00000000000E+00  0.00000000000E+00  0.43665057010E+01  0.43665086097E+01  0.50400000000E-02 0.  1.
          2   -1    0    0  501    0  0.00000000000E+00 -0.00000000000E+00 -0.36240270014E+03  0.36240270015E+03  0.25500000000E-02 0. -1.
         24    2    1    2    0    0 -0.71054273576E-14  0.00000000000E+00 -0.35803619444E+03  0.36676920876E+03  0.79559637789E+02 0.  0.
         66    2    3    3    0    0  0.37704562870E+02  0.95532288943E+01 -0.21701448897E+03  0.22048171503E+03  0.19999992561E+01 0.  0.
        -13    1    3    3    0    0 -0.37704562870E+02 -0.95532288943E+01 -0.14102170547E+03  0.14628749373E+03  0.10566000000E+00 0.  1.
         13    1    4    4    0    0  0.11935465451E+02  0.33688858198E+01 -0.73121945552E+02  0.74166264652E+02  0.10566000000E+00 0. -1.
        -13    1    4    4    0    0  0.21352248031E+02  0.54463116253E+01 -0.11880071475E+03  0.12082715669E+03  0.10566000000E+00 0.  1.
        -14    1    4    4    0    0  0.44168493871E+01  0.73803144914E+00 -0.25091828670E+02  0.25488293684E+02  0.00000000000E+00 0.  1.
<mgrwt>
<rscale>  0 0.79559638E+02</rscale>
<asrwt>0</asrwt>
<pdfrwt beam="1">  1        2 0.55754238E-01 0.79559638E+02</pdfrwt>
<pdfrwt beam="2">  1       -1 0.67177062E-03 0.79559638E+02</pdfrwt>
<totfact> 0.27682487E+05</totfact>
</mgrwt>
</event>
<event>
 8    1  0.7667702E-014  0.7982701E+02  0.7818608E-02  0.1329543E+00
         -1   -1    0    0    0  501 -0.00000000000E+00  0.00000000000E+00  0.11509163938E+03  0.11509163949E+03  0.50400000000E-02 0.  1.
          2   -1    0    0  501    0  0.00000000000E+00 -0.00000000000E+00 -0.13841907980E+02  0.13841908215E+02  0.25500000000E-02 0. -1.
         24    2    1    2    0    0  0.00000000000E+00  0.00000000000E+00  0.10124973140E+03  0.12893354771E+03  0.79827010564E+02 0.  0.
         66    2    3    3    0    0  0.24346396017E+02 -0.26218340801E+02  0.22175861227E+02  0.42141632751E+02  0.19999990905E+01 0.  0.
        -13    1    3    3    0    0 -0.24346396017E+02  0.26218340801E+02  0.79073870176E+02  0.86791914957E+02  0.10566000000E+00 0.  1.
         13    1    4    4    0    0  0.18263254045E+02 -0.20248991996E+02  0.17486758745E+02  0.32393919501E+02  0.10566000000E+00 0. -1.
        -13    1    4    4    0    0  0.29787783991E+01 -0.26968087185E+01  0.25026805304E+01  0.47350260705E+01  0.10566000000E+00 0.  1.
        -14    1    4    4    0    0  0.31043635730E+01 -0.32725400867E+01  0.21864219511E+01  0.50126871797E+01  0.00000000000E+00 0.  1.
<mgrwt>
<rscale>  0 0.79827011E+02</rscale>
<asrwt>0</asrwt>
<pdfrwt beam="1">  1        2 0.21295242E-02 0.79827011E+02</pdfrwt>
<pdfrwt beam="2">  1       -1 0.17706407E-01 0.79827011E+02</pdfrwt>
<totfact> 0.11555453E+05</totfact>
</mgrwt>
</event>
<event>
 8    1  0.7667702E-014  0.7856100E+02  0.7818608E-02  0.1333185E+00
         -1   -1    0    0    0  501 -0.00000000000E+00  0.00000000000E+00  0.27943327287E+01  0.27943372739E+01  0.50400000000E-02 0.  1.
          2   -1    0    0  501    0  0.00000000000E+00 -0.00000000000E+00 -0.55217352359E+03  0.55217352360E+03  0.25500000000E-02 0. -1.
         24    2    1    2    0    0  0.83266726847E-16  0.00000000000E+00 -0.54937919086E+03  0.55496786087E+03  0.78561003347E+02 0.  0.
         66    2    3    3    0    0 -0.23468053570E+00 -0.26322484261E+02 -0.48058169178E+03  0.48130623385E+03  0.20000017817E+01 0.  0.
        -13    1    3    3    0    0  0.23468053570E+00  0.26322484261E+02 -0.68797499077E+02  0.73661627025E+02  0.10566000000E+00 0.  1.
         13    1    4    4    0    0 -0.88434774672E+00 -0.11960405722E+02 -0.22009816361E+03  0.22042469499E+03  0.10566000000E+00 0. -1.
        -13    1    4    4    0    0  0.44817768427E+00 -0.13100579836E+02 -0.24089176446E+03  0.24124816975E+03  0.10566000000E+00 0.  1.
        -14    1    4    4    0    0  0.20148952675E+00 -0.12614987032E+01 -0.19591763713E+02  0.19633369105E+02  0.00000000000E+00 0.  1.
<mgrwt>
<rscale>  0 0.78561003E+02</rscale>
<asrwt>0</asrwt>
<pdfrwt beam="1">  1        2 0.84949686E-01 0.78561003E+02</pdfrwt>
<pdfrwt beam="2">  1       -1 0.42989813E-03 0.78561003E+02</pdfrwt>
<totfact> 0.32918477E+05</totfact>
</mgrwt>
</event>
<event>
 8    1  0.7667702E-014  0.8009221E+02  0.7818608E-02  0.1328790E+00
         -1   -1    0    0    0  501 -0.00000000000E+00  0.00000000000E+00  0.12817161744E+02  0.12817162735E+02  0.50400000000E-02 0.  1.
          2   -1    0    0  501    0  0.00000000000E+00 -0.00000000000E+00 -0.12512056127E+03  0.12512056129E+03  0.25500000000E-02 0. -1.
         24    2    1    2    0    0  0.00000000000E+00 -0.44408920985E-15 -0.11230339952E+03  0.13793772403E+03  0.80092210392E+02 0.  0.
         66    2    3    3    0    0 -0.36913463314E+02 -0.22591630619E+01 -0.29842706168E+02  0.47563586664E+02  0.20000183448E+01 0.  0.
        -13    1    3    3    0    0  0.36913463314E+02  0.22591630619E+01 -0.82460693354E+02  0.90374137363E+02  0.10566000000E+00 0.  1.
         13    1    4    4    0    0 -0.24548934608E+02 -0.21938903025E+01 -0.20143318440E+02  0.31831239166E+02  0.10566000000E+00 0. -1.
        -13    1    4    4    0    0 -0.33832332143E+01 -0.17032509465E+00 -0.30143855750E+01  0.45357427231E+01  0.10566000000E+00 0.  1.
         14    1    4    4    0    0 -0.89812954916E+01  0.10505233526E+00 -0.66850021525E+01  0.11196604775E+02  0.00000000000E+00 0. -1.
<mgrwt>
<rscale>  0 0.80092210E+02</rscale>
<asrwt>0</asrwt>
<pdfrwt beam="1">  1        2 0.19249316E-01 0.80092210E+02</pdfrwt>
<pdfrwt beam="2">  1       -1 0.19718712E-02 0.80092210E+02</pdfrwt>
<totfact> 0.18865649E+05</totfact>
</mgrwt>
</event>
<event>
 8    1  0.7667702E-014  0.7987020E+02  0.7818608E-02  0.1329420E+00
          2   -1    0    0  501    0  0.00000000000E+00  0.00000000000E+00  0.68715323136E+02  0.68715323184E+02  0.25500000000E-02 0. -1.
         -1   -1    0    0    0  501 -0.00000000000E+00 -0.00000000000E+00 -0.23208977363E+02  0.23208977911E+02  0.50400000000E-02 0.  1.
         24    2    1    2    0    0 -0.44408920985E-15  0.00000000000E+00  0.45506345773E+02  0.91924301094E+02  0.79870204870E+02 0.  0.
         66    2    3    3    0    0  0.31512712110E+01 -0.23225221144E+02  0.59945286638E+02  0.64395487375E+02  0.19999991889E+01 0.  0.
        -13    1    3    3    0    0 -0.31512712110E+01  0.23225221144E+02 -0.14438940865E+02  0.27528813719E+02  0.10566000000E+00 0.  1.
         13    1    4    4    0    0  0.35572725156E+00 -0.43232588817E+01  0.12146420113E+02  0.12898208978E+02  0.10566000000E+00 0. -1.
        -13    1    4    4    0    0  0.21852627801E+00 -0.58320704300E+01  0.14036701213E+02  0.15202004612E+02  0.10566000000E+00 0.  1.
         14    1    4    4    0    0  0.25770176815E+01 -0.13069891833E+02  0.33762165311E+02  0.36295273785E+02  0.00000000000E+00 0. -1.
<mgrwt>
<rscale>  0 0.79870205E+02</rscale>
<asrwt>0</asrwt>
<pdfrwt beam="1">  1        2 0.10571588E-01 0.79870205E+02</pdfrwt>
<pdfrwt beam="2">  1       -1 0.35706119E-02 0.79870205E+02</pdfrwt>
<totfact> 0.16144721E+05</totfact>
</mgrwt>
</event>
<event>
 8    1  0.7667702E-014  0.7610233E+02  0.7818608E-02  0.1340491E+00
         -1   -1    0    0    0  501 -0.00000000000E+00  0.00000000000E+00  0.14130806268E+02  0.14130807166E+02  0.50400000000E-02 0.  1.
          2   -1    0    0  501    0  0.00000000000E+00 -0.00000000000E+00 -0.10246344022E+03  0.10246344025E+03  0.25500000000E-02 0. -1.
         24    2    1    2    0    0  0.00000000000E+00  0.00000000000E+00 -0.88332633955E+02  0.11659424742E+03  0.76102327889E+02 0.  0.
         66    2    3    3    0    0 -0.23972577486E+02 -0.24081916896E+02 -0.70343733706E+02  0.78146427080E+02  0.20000002534E+01 0.  0.
        -13    1    3    3    0    0  0.23972577486E+02  0.24081916896E+02 -0.17988900249E+02  0.38447820340E+02  0.10566000000E+00 0.  1.
         13    1    4    4    0    0 -0.44782825801E+01 -0.51219873669E+01 -0.14338584884E+02  0.15871230260E+02  0.10566000000E+00 0.  1.
        -13    1    4    4    0    0 -0.94389127508E+01 -0.10149034560E+02 -0.28971422388E+02  0.32116202385E+02  0.10566000000E+00 0. -1.
        -14    1    4    4    0    0 -0.10055382155E+02 -0.88108949693E+01 -0.27033726434E+02  0.30158994436E+02  0.00000000000E+00 0.  1.
<mgrwt>
<rscale>  0 0.76102328E+02</rscale>
<asrwt>0</asrwt>
<pdfrwt beam="1">  1        2 0.15763606E-01 0.76102328E+02</pdfrwt>
<pdfrwt beam="2">  1       -1 0.21739703E-02 0.76102328E+02</pdfrwt>
<totfact> 0.20393089E+05</totfact>
</mgrwt>
</event>
<event>
 8    1  0.7667702E-014  0.7896388E+02  0.7818608E-02  0.1332018E+00
          2   -1    0    0  501    0  0.00000000000E+00  0.00000000000E+00  0.82836850110E+02  0.82836850149E+02  0.25500000000E-02 0. -1.
         -1   -1    0    0    0  501 -0.00000000000E+00 -0.00000000000E+00 -0.18817994592E+02  0.18817995267E+02  0.50400000000E-02 0.  1.
         24    2    1    2    0    0  0.35527136788E-14  0.71054273576E-14  0.64018855518E+02  0.10165484542E+03  0.78963876137E+02 0.  0.
         66    2    3    3    0    0 -0.13165178820E+02 -0.32766979026E+02  0.54689675313E+02  0.65130310988E+02  0.19999939238E+01 0.  0.
        -13    1    3    3    0    0  0.13165178820E+02  0.32766979026E+02  0.93291802052E+01  0.36524534428E+02  0.10566000000E+00 0.  1.
         13    1    4    4    0    0 -0.31025045703E+01 -0.79092202817E+01  0.11941300933E+02  0.14655617765E+02  0.10566000000E+00 0. -1.
        -13    1    4    4    0    0 -0.50225762291E+01 -0.13348146229E+02  0.23442655746E+02  0.27440272451E+02  0.10566000000E+00 0.  1.
         14    1    4    4    0    0 -0.50400980206E+01 -0.11509612516E+02  0.19305718634E+02  0.23034420772E+02  0.00000000000E+00 0. -1.
<mgrwt>
<rscale>  0 0.78963876E+02</rscale>
<asrwt>0</asrwt>
<pdfrwt beam="1">  1        2 0.12744131E-01 0.78963876E+02</pdfrwt>
<pdfrwt beam="2">  1       -1 0.28950762E-02 0.78963876E+02</pdfrwt>
<totfact> 0.17448219E+05</totfact>
</mgrwt>
</event>
<event>
 8    1  0.7667702E-014  0.8051826E+02  0.7818608E-02  0.1327587E+00
         -1   -1    0    0    0  501 -0.00000000000E+00  0.00000000000E+00  0.58323379872E+02  0.58323380090E+02  0.50400000000E-02 0.  1.
          2   -1    0    0  501    0  0.00000000000E+00 -0.00000000000E+00 -0.27789839235E+02  0.27789839352E+02  0.25500000000E-02 0. -1.
         24    2    1    2    0    0  0.00000000000E+00  0.00000000000E+00  0.30533540637E+02  0.86113219441E+02  0.80518255438E+02 0.  0.
         66    2    3    3    0    0 -0.10671697809E+02 -0.60133234084E+00 -0.26207600804E+02  0.28374021051E+02  0.19999989991E+01 0.  0.
        -13    1    3    3    0    0  0.10671697809E+02  0.60133234084E+00  0.56741141441E+02  0.57739198391E+02  0.10566000000E+00 0.  1.
         13    1    4    4    0    0 -0.20150161332E+01 -0.61508112891E+00 -0.47061332692E+01  0.51572734265E+01  0.10566000000E+00 0. -1.
        -13    1    4    4    0    0 -0.18708756004E+01  0.63177160796E-01 -0.62171347353E+01  0.64936965758E+01  0.10566000000E+00 0.  1.
         14    1    4    4    0    0 -0.67858060757E+01 -0.49428372721E-01 -0.15284332799E+02  0.16723051049E+02  0.00000000000E+00 0. -1.
<mgrwt>
<rscale>  0 0.80518255E+02</rscale>
<asrwt>0</asrwt>
<pdfrwt beam="1">  1        2 0.42753599E-02 0.80518255E+02</pdfrwt>
<pdfrwt beam="2">  1       -1 0.89728278E-02 0.80518255E+02</pdfrwt>
<totfact> 0.13015032E+05</totfact>
</mgrwt>
</event>
<event>
 8    1  0.7667702E-014  0.8716492E+02  0.7818608E-02  0.1309866E+00
         -1   -1    0    0    0  501 -0.00000000000E+00  0.00000000000E+00  0.33306593255E+01  0.33306631388E+01  0.50400000000E-02 0.  1.
          2   -1    0    0  501    0  0.00000000000E+00 -0.00000000000E+00 -0.57028645032E+03  0.57028645032E+03  0.25500000000E-02 0. -1.
         24    2    1    2    0    0  0.00000000000E+00  0.00000000000E+00 -0.56695579099E+03  0.57361711346E+03  0.87164923662E+02 0.  0.
         66    2    3    3    0    0  0.24152382802E+02 -0.10311596429E+02 -0.51232902754E+03  0.51300555462E+03  0.19999987494E+01 0.  0.
        -13    1    3    3    0    0 -0.24152382802E+02  0.10311596429E+02 -0.54626763447E+02  0.60611558837E+02  0.10566000000E+00 0.  1.
         13    1    4    4    0    0  0.30405348898E+01 -0.13056773860E+01 -0.72893791206E+02  0.72968935899E+02  0.10566000000E+00 0. -1.
        -13    1    4    4    0    0  0.12938786209E+02 -0.62337291135E+01 -0.27009626725E+03  0.27047786659E+03  0.10566000000E+00 0.  1.
        -14    1    4    4    0    0  0.81730617026E+01 -0.27721899293E+01 -0.16933896909E+03  0.16955875214E+03  0.00000000000E+00 0.  1.
<mgrwt>
<rscale>  0 0.87164924E+02</rscale>
<asrwt>0</asrwt>
<pdfrwt beam="1">  1        2 0.87736300E-01 0.87164924E+02</pdfrwt>
<pdfrwt beam="2">  1       -1 0.51240987E-03 0.87164924E+02</pdfrwt>
<totfact> 0.25333336E+05</totfact>
</mgrwt>
</event>
<event>
 8    1  0.7667702E-014  0.7955198E+02  0.7818608E-02  0.1330328E+00
         -1   -1    0    0    0  501 -0.00000000000E+00  0.00000000000E+00  0.14825364169E+01  0.14825449838E+01  0.50400000000E-02 0.  1.
          2   -1    0    0  501    0  0.00000000000E+00 -0.00000000000E+00 -0.10671742074E+04  0.10671742074E+04  0.25500000000E-02 0. -1.
         24    2    1    2    0    0 -0.35527136788E-14 -0.17763568394E-14 -0.10656916710E+04  0.10686567524E+04  0.79551975584E+02 0.  0.
         66    2    3    3    0    0 -0.18978749654E+02 -0.10684322679E+02 -0.97988683143E+03  0.98013088417E+03  0.19999992694E+01 0.  0.
        -13    1    3    3    0    0  0.18978749654E+02  0.10684322679E+02 -0.85804839577E+02  0.88525868245E+02  0.10566000000E+00 0.  1.
         13    1    4    4    0    0 -0.12481434008E+02 -0.71465831522E+01 -0.65624254912E+03  0.65640014799E+03  0.10566000000E+00 0. -1.
        -13    1    4    4    0    0 -0.11558963996E+01 -0.36124520629E+00 -0.68463949835E+02  0.68474741224E+02  0.10566000000E+00 0.  1.
         14    1    4    4    0    0 -0.53414192472E+01 -0.31764943209E+01 -0.25518033248E+03  0.25525599495E+03  0.00000000000E+00 0. -1.
<mgrwt>
<rscale>  0 0.79551976E+02</rscale>
<asrwt>0</asrwt>
<pdfrwt beam="1">  1        2 0.16418003E+00 0.79551976E+02</pdfrwt>
<pdfrwt beam="2">  1       -1 0.22808404E-03 0.79551976E+02</pdfrwt>
<totfact> 0.35790243E+05</totfact>
</mgrwt>
</event>
<event>
 8    1  0.7667702E-014  0.7815787E+02  0.7818608E-02  0.1334362E+00
         -1   -1    0    0    0  501 -0.00000000000E+00  0.00000000000E+00  0.72167147735E+01  0.72167165334E+01  0.50400000000E-02 0.  1.
          2   -1    0    0  501    0  0.00000000000E+00 -0.00000000000E+00 -0.21161472211E+03  0.21161472212E+03  0.25500000000E-02 0. -1.
         24    2    1    2    0    0  0.00000000000E+00  0.17763568394E-14 -0.20439800733E+03  0.21883143865E+03  0.78157873194E+02 0.  0.
         66    2    3    3    0    0  0.18971677711E+02  0.96145223349E+01 -0.19397122095E+03  0.19514404468E+03  0.20000059512E+01 0.  0.
        -13    1    3    3    0    0 -0.18971677711E+02 -0.96145223349E+01 -0.10426786386E+02  0.23687393974E+02  0.10566000000E+00 0.  1.
         13    1    4    4    0    0  0.83342001869E+01  0.49639079739E+01 -0.92359373468E+02  0.92867455584E+02  0.10566000000E+00 0. -1.
        -13    1    4    4    0    0  0.49148852469E+01  0.22875783649E+01 -0.43896826277E+02  0.44230437857E+02  0.10566000000E+00 0.  1.
        -14    1    4    4    0    0  0.57225922777E+01  0.23630359960E+01 -0.57715021201E+02  0.58046151240E+02  0.00000000000E+00 0.  1.
<mgrwt>
<rscale>  0 0.78157873E+02</rscale>
<asrwt>0</asrwt>
<pdfrwt beam="1">  1        2 0.32556106E-01 0.78157873E+02</pdfrwt>
<pdfrwt beam="2">  1       -1 0.11102641E-02 0.78157873E+02</pdfrwt>
<totfact> 0.23920635E+05</totfact>
</mgrwt>
</event>
<event>
 8    1  0.7667702E-014  0.8072915E+02  0.7818608E-02  0.1326995E+00
          2   -1    0    0  501    0  0.00000000000E+00  0.00000000000E+00  0.56589484351E+03  0.56589484352E+03  0.25500000000E-02 0. -1.
         -1   -1    0    0    0  501 -0.00000000000E+00 -0.00000000000E+00 -0.28791528036E+01  0.28791572149E+01  0.50400000000E-02 0.  1.
         24    2    1    2    0    0  0.00000000000E+00  0.44408920985E-15  0.56301569071E+03  0.56877400073E+03  0.80729151647E+02 0.  0.
         66    2    3    3    0    0  0.21516360238E+02 -0.14132146565E+01  0.52188208338E+03  0.52233117837E+03  0.20000016200E+01 0.  0.
        -13    1    3    3    0    0 -0.21516360238E+02  0.14132146565E+01  0.41133607331E+02  0.46442822369E+02  0.10566000000E+00 0.  1.
         13    1    4    4    0    0  0.51173558014E+01 -0.10662888791E+00  0.11286993616E+03  0.11298598299E+03  0.10566000000E+00 0.  1.
        -13    1    4    4    0    0  0.29721381863E+01 -0.34974092963E+00  0.88036521794E+02  0.88087435300E+02  0.10566000000E+00 0. -1.
         14    1    4    4    0    0  0.13426866250E+02 -0.95684483894E+00  0.32097562542E+03  0.32125776007E+03  0.00000000000E+00 0. -1.
<mgrwt>
<rscale>  0 0.80729152E+02</rscale>
<asrwt>0</asrwt>
<pdfrwt beam="1">  1        2 0.87060785E-01 0.80729152E+02</pdfrwt>
<pdfrwt beam="2">  1       -1 0.44294672E-03 0.80729152E+02</pdfrwt>
<totfact> 0.30890873E+05</totfact>
</mgrwt>
</event>
<event>
 8    1  0.7667702E-014  0.7992301E+02  0.7818608E-02  0.1329270E+00
          2   -1    0    0  501    0  0.00000000000E+00  0.00000000000E+00  0.25493676025E+04  0.25493676025E+04  0.25500000000E-02 0. -1.
         -1   -1    0    0    0  501 -0.00000000000E+00 -0.00000000000E+00 -0.62638915498E+00  0.62640943087E+00  0.50400000000E-02 0.  1.
         24    2    1    2    0    0  0.00000000000E+00 -0.17763568394E-14  0.25487412134E+04  0.25499940120E+04  0.79923014748E+02 0.  0.
         66    2    3    3    0    0 -0.92533932753E+01 -0.83035522899E+01  0.24860439897E+04  0.24860758824E+04  0.20000001506E+01 0.  0.
        -13    1    3    3    0    0  0.92533932753E+01  0.83035522899E+01  0.62697223711E+02  0.63918129610E+02  0.10566000000E+00 0.  1.
         13    1    4    4    0    0 -0.14923610649E+01 -0.12477450381E+01  0.51368961295E+03  0.51369330697E+03  0.10566000000E+00 0. -1.
        -13    1    4    4    0    0 -0.48356571246E+01 -0.37771660113E+01  0.12023546159E+04  0.12023702774E+04  0.10566000000E+00 0.  1.
        -14    1    4    4    0    0 -0.29253750859E+01 -0.32786412406E+01  0.76999976086E+03  0.77001229798E+03  0.00000000000E+00 0.  1.
<mgrwt>
<rscale>  0 0.79923015E+02</rscale>
<asrwt>0</asrwt>
<pdfrwt beam="1">  1        2 0.39220891E+00 0.79923015E+02</pdfrwt>
<pdfrwt beam="2">  1       -1 0.96369488E-04 0.79923015E+02</pdfrwt>
<totfact> 0.20363136E+05</totfact>
</mgrwt>
</event>
<event>
 8    1  0.7667702E-014  0.8228630E+02  0.7818608E-02  0.1322686E+00
         -1   -1    0    0    0  501 -0.00000000000E+00  0.00000000000E+00  0.21981174877E+02  0.21981175455E+02  0.50400000000E-02 0.  1.
          2   -1    0    0  501    0  0.00000000000E+00 -0.00000000000E+00 -0.77009472079E+02  0.77009472121E+02  0.25500000000E-02 0. -1.
         24    2    1    2    0    0  0.00000000000E+00  0.00000000000E+00 -0.55028297202E+02  0.98990647576E+02  0.82286297854E+02 0.  0.
         66    2    3    3    0    0 -0.10900271741E+02  0.17284629910E+01 -0.75181269728E+02  0.76013333241E+02  0.20000010509E+01 0.  0.
        -13    1    3    3    0    0  0.10900271741E+02 -0.17284629910E+01  0.20152972526E+02  0.22977314334E+02  0.10566000000E+00 0.  1.
         13    1    4    4    0    0 -0.22727051607E+01  0.34234330198E+00 -0.20674624225E+02  0.20802250805E+02  0.10566000000E+00 0. -1.
        -13    1    4    4    0    0 -0.20736302898E+01  0.29612380340E+00 -0.10719388786E+02  0.10922641250E+02  0.10566000000E+00 0. -1.
         14    1    4    4    0    0 -0.65539362909E+01  0.10899958856E+01 -0.43787256717E+02  0.44288441186E+02  0.00000000000E+00 0. -1.
<mgrwt>
<rscale>  0 0.82286298E+02</rscale>
<asrwt>0</asrwt>
<pdfrwt beam="1">  1        2 0.11847611E-01 0.82286298E+02</pdfrwt>
<pdfrwt beam="2">  1       -1 0.33817193E-02 0.82286298E+02</pdfrwt>
<totfact> 0.15321330E+05</totfact>
</mgrwt>
</event>
<event>
 8    1  0.7667702E-014  0.7942104E+02  0.7818608E-02  0.1330703E+00
         -1   -1    0    0    0  501 -0.00000000000E+00  0.00000000000E+00  0.58292419196E+01  0.58292440984E+01  0.50400000000E-02 0.  1.
          2   -1    0    0  501    0  0.00000000000E+00 -0.00000000000E+00 -0.27051972291E+03  0.27051972292E+03  0.25500000000E-02 0. -1.
         24    2    1    2    0    0  0.00000000000E+00  0.17763568394E-14 -0.26469048099E+03  0.27634896702E+03  0.79421035288E+02 0.  0.
         66    2    3    3    0    0 -0.32847593118E+02  0.12561340526E+02 -0.68442344939E+02  0.76974711618E+02  0.19999996317E+01 0.  0.
        -13    1    3    3    0    0  0.32847593118E+02 -0.12561340526E+02 -0.19624813605E+03  0.19937425540E+03  0.10566000000E+00 0.  1.
         13    1    4    4    0    0 -0.65193504349E+01  0.20114140058E+01 -0.12483750104E+02  0.14226837213E+02  0.10566000000E+00 0. -1.
        -13    1    4    4    0    0 -0.15328328803E+02  0.55136270136E+01 -0.32336328919E+02  0.36207831732E+02  0.10566000000E+00 0.  1.
        -14    1    4    4    0    0 -0.10999913880E+02  0.50362995065E+01 -0.23622265916E+02  0.26540042673E+02  0.00000000000E+00 0.  1.
<mgrwt>
<rscale>  0 0.79421035E+02</rscale>
<asrwt>0</asrwt>
<pdfrwt beam="1">  1        2 0.41618409E-01 0.79421035E+02</pdfrwt>
<pdfrwt beam="2">  1       -1 0.89680683E-03 0.79421035E+02</pdfrwt>
<totfact> 0.25029590E+05</totfact>
</mgrwt>
</event>
<event>
 8    1  0.7667702E-014  0.7918417E+02  0.7818608E-02  0.1331383E+00
          2   -1    0    0  501    0  0.00000000000E+00  0.00000000000E+00  0.66656160340E+01  0.66656165217E+01  0.25500000000E-02 0. -1.
         -1   -1    0    0    0  501 -0.00000000000E+00 -0.00000000000E+00 -0.23516701596E+03  0.23516701602E+03  0.50400000000E-02 0.  1.
         24    2    1    2    0    0 -0.35527136788E-14  0.71054273576E-14 -0.22850139993E+03  0.24183263254E+03  0.79184167553E+02 0.  0.
         66    2    3    3    0    0 -0.22830094581E+02  0.22917369782E+02 -0.44739946437E+02  0.55245650116E+02  0.19999983111E+01 0.  0.
        -13    1    3    3    0    0  0.22830094581E+02 -0.22917369782E+02 -0.18376145349E+03  0.18658698242E+03  0.10566000000E+00 0.  1.
         13    1    4    4    0    0 -0.34847511988E+01  0.42404949607E+01 -0.68756508101E+01  0.87983536259E+01  0.10566000000E+00 0. -1.
        -13    1    4    4    0    0 -0.44015125377E+01  0.45752125929E+01 -0.92909264276E+01  0.11253371086E+02  0.10566000000E+00 0.  1.
         14    1    4    4    0    0 -0.14943830844E+02  0.14101662228E+02 -0.28573369200E+02  0.35193925403E+02  0.00000000000E+00 0. -1.
<mgrwt>
<rscale>  0 0.79184168E+02</rscale>
<asrwt>0</asrwt>
<pdfrwt beam="1">  1        2 0.10254796E-02 0.79184168E+02</pdfrwt>
<pdfrwt beam="2">  1       -1 0.36179535E-01 0.79184168E+02</pdfrwt>
<totfact> 0.97089294E+04</totfact>
</mgrwt>
</event>
<event>
 8    1  0.7667702E-014  0.8141193E+02  0.7818608E-02  0.1325092E+00
         -1   -1    0    0    0  501 -0.00000000000E+00  0.00000000000E+00  0.20491270389E+01  0.20491332371E+01  0.50400000000E-02 0.  1.
          2   -1    0    0  501    0  0.00000000000E+00 -0.00000000000E+00 -0.80862383462E+03  0.80862383462E+03  0.25500000000E-02 0. -1.
         24    2    1    2    0    0 -0.17763568394E-14  0.35527136788E-14 -0.80657470758E+03  0.81067296786E+03  0.81411927327E+02 0.  0.
         66    2    3    3    0    0  0.15590389012E+02 -0.31208732641E+02 -0.61191084241E+03  0.61290776164E+03  0.20000005684E+01 0.  0.
        -13    1    3    3    0    0 -0.15590389012E+02  0.31208732641E+02 -0.19466386517E+03  0.19776520621E+03  0.10566000000E+00 0.  1.
         13    1    4    4    0    0  0.96995350831E+01 -0.20527372257E+02 -0.39228261680E+03  0.39293907492E+03  0.10566000000E+00 0. -1.
        -13    1    4    4    0    0  0.37335370793E+01 -0.63549373368E+01 -0.13981648133E+03  0.14001065725E+03  0.10566000000E+00 0.  1.
        -14    1    4    4    0    0  0.21573168499E+01 -0.43264230467E+01 -0.79811744273E+02  0.79958029467E+02  0.00000000000E+00 0.  1.
<mgrwt>
<rscale>  0 0.81411927E+02</rscale>
<asrwt>0</asrwt>
<pdfrwt beam="1">  1        2 0.12440341E+00 0.81411927E+02</pdfrwt>
<pdfrwt beam="2">  1       -1 0.31525144E-03 0.81411927E+02</pdfrwt>
<totfact> 0.32897404E+05</totfact>
</mgrwt>
</event>
<event>
 8    1  0.7680960E-014  0.8032054E+02  0.7818608E-02  0.1328144E+00
         -1   -1    0    0    0  501 -0.00000000000E+00  0.00000000000E+00  0.34154853440E+01  0.34154890626E+01  0.50400000000E-02 0.  1.
          2   -1    0    0  501    0  0.00000000000E+00 -0.00000000000E+00 -0.47221587779E+03  0.47221587780E+03  0.25500000000E-02 0. -1.
         24    2    1    2    0    0  0.00000000000E+00  0.00000000000E+00 -0.46880039245E+03  0.47563136686E+03  0.80320540231E+02 0.  0.
         66    2    3    3    0    0 -0.18438070867E+02 -0.75769157725E+01 -0.44082574384E+03  0.44128075931E+03  0.20000004751E+01 0.  0.
        -13    1    3    3    0    0  0.18438070867E+02  0.75769157725E+01 -0.27974648612E+02  0.34350607548E+02  0.10566000000E+00 0.  1.
         13    1    4    4    0    0 -0.14624527358E+02 -0.61532086692E+01 -0.34859670994E+03  0.34895761364E+03  0.10566000000E+00 0. -1.
        -13    1    4    4    0    0 -0.36455511644E+00 -0.38340194526E+00 -0.15894206080E+02  0.15903359659E+02  0.10566000000E+00 0. -1.
        -14    1    4    4    0    0 -0.34489883924E+01 -0.10403051580E+01 -0.76334827818E+02  0.76419786010E+02  0.00000000000E+00 0.  1.
<mgrwt>
<rscale>  0 0.80320540E+02</rscale>
<asrwt>0</asrwt>
<pdfrwt beam="1">  1        2 0.72648545E-01 0.80320540E+02</pdfrwt>
<pdfrwt beam="2">  1       -1 0.52545995E-03 0.80320540E+02</pdfrwt>
<totfact> 0.29582928E+05</totfact>
</mgrwt>
</event>
<event>
 8    1  0.7667702E-014  0.7729516E+02  0.7818608E-02  0.1336907E+00
          2   -1    0    0  501    0  0.00000000000E+00  0.00000000000E+00  0.10774212940E+04  0.10774212940E+04  0.25500000000E-02 0. -1.
         -1   -1    0    0    0  501 -0.00000000000E+00 -0.00000000000E+00 -0.13863010849E+01  0.13863102465E+01  0.50400000000E-02 0.  1.
         24    2    1    2    0    0  0.71054273576E-14  0.00000000000E+00  0.10760349929E+04  0.10788076042E+04  0.77295155142E+02 0.  0.
         66    2    3    3    0    0  0.25526876158E+02 -0.10046874667E+02  0.91780898976E+03  0.91822105333E+03  0.20000001079E+01 0.  0.
        -13    1    3    3    0    0 -0.25526876158E+02  0.10046874667E+02  0.15822600311E+03  0.16058655088E+03  0.10566000000E+00 0.  1.
         13    1    4    4    0    0  0.76119500692E+01 -0.33871172263E+01  0.26038823701E+03  0.26052151444E+03  0.10566000000E+00 0. -1.
        -13    1    4    4    0    0  0.89274651047E+01 -0.30924203042E+01  0.30660311526E+03  0.30674866609E+03  0.10566000000E+00 0.  1.
        -14    1    4    4    0    0  0.89874609845E+01 -0.35673371366E+01  0.35081763749E+03  0.35095087280E+03  0.00000000000E+00 0.  1.
<mgrwt>
<rscale>  0 0.77295155E+02</rscale>
<asrwt>0</asrwt>
<pdfrwt beam="1">  1        2 0.16575727E+00 0.77295155E+02</pdfrwt>
<pdfrwt beam="2">  1       -1 0.21327760E-03 0.77295155E+02</pdfrwt>
<totfact> 0.38556759E+05</totfact>
</mgrwt>
</event>
<event>
 8    1  0.7667702E-014  0.7896194E+02  0.7818608E-02  0.1332023E+00
          2   -1    0    0  501    0  0.00000000000E+00  0.00000000000E+00  0.14252617640E+02  0.14252617868E+02  0.25500000000E-02 0. -1.
         -1   -1    0    0    0  501 -0.00000000000E+00 -0.00000000000E+00 -0.10936566703E+03  0.10936566714E+03  0.50400000000E-02 0.  1.
         24    2    1    2    0    0  0.00000000000E+00 -0.35527136788E-14 -0.95113049389E+02  0.12361828501E+03  0.78961941628E+02 0.  0.
         66    2    3    3    0    0  0.33622711636E+02  0.18860559750E+02 -0.60735144026E+02  0.71965027682E+02  0.20000093726E+01 0.  0.
        -13    1    3    3    0    0 -0.33622711636E+02 -0.18860559750E+02 -0.34377905362E+02  0.51653257331E+02  0.10566000000E+00 0.  1.
         13    1    4    4    0    0  0.16588858980E+02  0.99231386637E+01 -0.30502361648E+02  0.36111828441E+02  0.10566000000E+00 0. -1.
        -13    1    4    4    0    0  0.88066156747E+01  0.50299987481E+01 -0.15068975200E+02  0.18164320649E+02  0.10566000000E+00 0.  1.
        -14    1    4    4    0    0  0.82272369810E+01  0.39074223380E+01 -0.15163807179E+02  0.17688878592E+02  0.00000000000E+00 0.  1.
<mgrwt>
<rscale>  0 0.78961942E+02</rscale>
<asrwt>0</asrwt>
<pdfrwt beam="1">  1        2 0.21927105E-02 0.78961942E+02</pdfrwt>
<pdfrwt beam="2">  1       -1 0.16825487E-01 0.78961942E+02</pdfrwt>
<totfact> 0.12010506E+05</totfact>
</mgrwt>
</event>
<event>
 8    1  0.7667702E-014  0.8050124E+02  0.7818608E-02  0.1327635E+00
         -1   -1    0    0    0  501 -0.00000000000E+00  0.00000000000E+00  0.18622227474E+01  0.18622295676E+01  0.50400000000E-02 0.  1.
          2   -1    0    0  501    0  0.00000000000E+00 -0.00000000000E+00 -0.86998700742E+03  0.86998700742E+03  0.25500000000E-02 0. -1.
         24    2    1    2    0    0  0.00000000000E+00  0.00000000000E+00 -0.86812478467E+03  0.87184923699E+03  0.80501243963E+02 0.  0.
         66    2    3    3    0    0  0.29230970622E+01  0.14380758734E+02 -0.83995950695E+03  0.84009006900E+03  0.20000000239E+01 0.  0.
        -13    1    3    3    0    0 -0.29230970622E+01 -0.14380758734E+02 -0.28165277720E+02  0.31759167987E+02  0.10566000000E+00 0.  1.
         13    1    4    4    0    0  0.12583237776E+01  0.82840313870E+01 -0.43619196227E+03  0.43627244661E+03  0.10566000000E+00 0. -1.
        -13    1    4    4    0    0  0.11772981218E+01  0.49648892612E+01 -0.33805667016E+03  0.33809519304E+03  0.10566000000E+00 0.  1.
        -14    1    4    4    0    0  0.48747516272E+00  0.11318380857E+01 -0.65710874519E+02  0.65722429349E+02  0.00000000000E+00 0.  1.
<mgrwt>
<rscale>  0 0.80501244E+02</rscale>
<asrwt>0</asrwt>
<pdfrwt beam="1">  1        2 0.13384383E+00 0.80501244E+02</pdfrwt>
<pdfrwt beam="2">  1       -1 0.28649703E-03 0.80501244E+02</pdfrwt>
<totfact> 0.34244720E+05</totfact>
</mgrwt>
</event>
<event>
 8    1  0.7667702E-014  0.7586167E+02  0.7818608E-02  0.1341223E+00
         -1   -1    0    0    0  501 -0.00000000000E+00  0.00000000000E+00  0.50533545956E+02  0.50533546208E+02  0.50400000000E-02 0.  1.
          2   -1    0    0  501    0  0.00000000000E+00 -0.00000000000E+00 -0.28471149103E+02  0.28471149217E+02  0.25500000000E-02 0. -1.
         24    2    1    2    0    0  0.00000000000E+00  0.35527136788E-14  0.22062396853E+02  0.79004695425E+02  0.75861667160E+02 0.  0.
         66    2    3    3    0    0 -0.10456974548E+02  0.30363209729E+02 -0.99317197354E+01  0.33673608056E+02  0.20000002111E+01 0.  0.
        -13    1    3    3    0    0  0.10456974548E+02 -0.30363209729E+02  0.31994116589E+02  0.45331087369E+02  0.10566000000E+00 0.  1.
         13    1    4    4    0    0 -0.32566927231E+01  0.10049750333E+02 -0.23592226347E+01  0.10824999988E+02  0.10566000000E+00 0.  1.
        -13    1    4    4    0    0 -0.23303615781E+01  0.62674746068E+01 -0.21598629113E+01  0.70276592734E+01  0.10566000000E+00 0. -1.
         14    1    4    4    0    0 -0.48699202468E+01  0.14045984789E+02 -0.54126341893E+01  0.15820948795E+02  0.00000000000E+00 0. -1.
<mgrwt>
<rscale>  0 0.75861667E+02</rscale>
<asrwt>0</asrwt>
<pdfrwt beam="1">  1        2 0.43801769E-02 0.75861667E+02</pdfrwt>
<pdfrwt beam="2">  1       -1 0.77743916E-02 0.75861667E+02</pdfrwt>
<totfact> 0.15450828E+05</totfact>
</mgrwt>
</event>
<event>
 8    1  0.7667702E-014  0.7929227E+02  0.7818608E-02  0.1331072E+00
         -1   -1    0    0    0  501 -0.00000000000E+00  0.00000000000E+00  0.36760257917E+02  0.36760258263E+02  0.50400000000E-02 0.  1.
          2   -1    0    0  501    0  0.00000000000E+00 -0.00000000000E+00 -0.42758566476E+02  0.42758566552E+02  0.25500000000E-02 0. -1.
         24    2    1    2    0    0  0.35527136788E-14 -0.35527136788E-14 -0.59983085585E+01  0.79518824815E+02  0.79292268188E+02 0.  0.
         66    2    3    3    0    0 -0.19498487174E+02 -0.18553839707E+02 -0.32159465773E+02  0.41984130453E+02  0.20000002912E+01 0.  0.
        -13    1    3    3    0    0  0.19498487174E+02  0.18553839707E+02  0.26161157214E+02  0.37534694361E+02  0.10566000000E+00 0.  1.
         13    1    4    4    0    0 -0.79928069521E+01 -0.69428914628E+01 -0.13444875195E+02  0.17113285420E+02  0.10566000000E+00 0. -1.
        -13    1    4    4    0    0 -0.32709584227E+01 -0.26872709008E+01 -0.46195709067E+01  0.62667530105E+01  0.10566000000E+00 0.  1.
        -14    1    4    4    0    0 -0.82347217996E+01 -0.89236773435E+01 -0.14095019671E+02  0.18604092023E+02  0.00000000000E+00 0.  1.
<mgrwt>
<rscale>  0 0.79292268E+02</rscale>
<asrwt>0</asrwt>
<pdfrwt beam="1">  1        2 0.65782410E-02 0.79292268E+02</pdfrwt>
<pdfrwt beam="2">  1       -1 0.56554243E-02 0.79292268E+02</pdfrwt>
<totfact> 0.14811533E+05</totfact>
</mgrwt>
</event>
<event>
 8    1  0.7667702E-014  0.7768101E+02  0.7818608E-02  0.1335764E+00
         -1   -1    0    0    0  501 -0.00000000000E+00  0.00000000000E+00  0.17563519042E+01  0.17563591355E+01  0.50400000000E-02 0.  1.
          2   -1    0    0  501    0  0.00000000000E+00 -0.00000000000E+00 -0.85892905650E+03  0.85892905650E+03  0.25500000000E-02 0. -1.
         24    2    1    2    0    0  0.00000000000E+00  0.00000000000E+00 -0.85717270459E+03  0.86068541564E+03  0.77681009199E+02 0.  0.
         66    2    3    3    0    0  0.20543088143E+02  0.22468711295E+02 -0.69564036094E+03  0.69630910752E+03  0.19999996173E+01 0.  0.
        -13    1    3    3    0    0 -0.20543088143E+02 -0.22468711295E+02 -0.16153234366E+03  0.16437630812E+03  0.10566000000E+00 0.  1.
         13    1    4    4    0    0  0.24655925220E+01  0.25416916506E+01 -0.84917766286E+02  0.84991632165E+02  0.10566000000E+00 0. -1.
        -13    1    4    4    0    0  0.16751673673E+00  0.24159804334E+00 -0.43973023655E+01  0.44083856003E+01  0.10566000000E+00 0.  1.
         14    1    4    4    0    0  0.17909978885E+02  0.19685421601E+02 -0.60632529228E+03  0.60690908976E+03  0.00000000000E+00 0. -1.
<mgrwt>
<rscale>  0 0.77681009E+02</rscale>
<asrwt>0</asrwt>
<pdfrwt beam="1">  1        2 0.13214260E+00 0.77681009E+02</pdfrwt>
<pdfrwt beam="2">  1       -1 0.27020923E-03 0.77681009E+02</pdfrwt>
<totfact> 0.37499806E+05</totfact>
</mgrwt>
</event>
<event>
 8    1  0.7667702E-014  0.7203976E+02  0.7818608E-02  0.1353291E+00
          2   -1    0    0  501    0  0.00000000000E+00  0.00000000000E+00  0.91505091817E+03  0.91505091818E+03  0.25500000000E-02 0. -1.
         -1   -1    0    0    0  501 -0.00000000000E+00 -0.00000000000E+00 -0.14178749249E+01  0.14178838825E+01  0.50400000000E-02 0.  1.
         24    2    1    2    0    0  0.88817841970E-15 -0.17763568394E-14  0.91363304325E+03  0.91646880206E+03  0.72039762858E+02 0.  0.
         66    2    3    3    0    0 -0.61580381300E+01 -0.88039595180E+01  0.89417188282E+03  0.89423866337E+03  0.19999766893E+01 0.  0.
        -13    1    3    3    0    0  0.61580381300E+01  0.88039595180E+01  0.19461160429E+02  0.22230138688E+02  0.10566000000E+00 0.  1.
         13    1    4    4    0    0 -0.11640092421E+01 -0.11062188176E+01  0.11115146233E+03  0.11116311159E+03  0.10566000000E+00 0. -1.
        -13    1    4    4    0    0 -0.27487956632E+01 -0.55017115958E+01  0.51561560029E+03  0.51565228899E+03  0.10566000000E+00 0.  1.
        -14    1    4    4    0    0 -0.22452332247E+01 -0.21960291046E+01  0.26740482020E+03  0.26742326279E+03  0.00000000000E+00 0.  1.
<mgrwt>
<rscale>  0 0.72039763E+02</rscale>
<asrwt>0</asrwt>
<pdfrwt beam="1">  1        2 0.14077751E+00 0.72039763E+02</pdfrwt>
<pdfrwt beam="2">  1       -1 0.21813460E-03 0.72039763E+02</pdfrwt>
<totfact> 0.45889845E+05</totfact>
</mgrwt>
</event>
<event>
 8    1  0.7667702E-014  0.8016505E+02  0.7818608E-02  0.1328584E+00
         -1   -1    0    0    0  501 -0.00000000000E+00  0.00000000000E+00  0.37881664808E+01  0.37881698336E+01  0.50400000000E-02 0.  1.
          2   -1    0    0  501    0  0.00000000000E+00 -0.00000000000E+00 -0.42411232793E+03  0.42411232794E+03  0.25500000000E-02 0. -1.
         24    2    1    2    0    0  0.35527136788E-14  0.00000000000E+00 -0.42032416145E+03  0.42790049777E+03  0.80165050334E+02 0.  0.
         66    2    3    3    0    0 -0.31196803799E+02  0.44353224988E+01 -0.34230769825E+03  0.34376077857E+03  0.19999874203E+01 0.  0.
        -13    1    3    3    0    0  0.31196803799E+02 -0.44353224988E+01 -0.78016463199E+02  0.84139719200E+02  0.10566000000E+00 0.  1.
         13    1    4    4    0    0 -0.12629904522E+02  0.16838261060E+01 -0.13270238562E+03  0.13331273035E+03  0.10566000000E+00 0. -1.
        -13    1    4    4    0    0 -0.12332864750E+02  0.20841459802E+01 -0.14569894728E+03  0.14623487142E+03  0.10566000000E+00 0.  1.
        -14    1    4    4    0    0 -0.62340345269E+01  0.66735041258E+00 -0.63906365354E+02  0.64213176808E+02  0.00000000000E+00 0.  1.
<mgrwt>
<rscale>  0 0.80165050E+02</rscale>
<asrwt>0</asrwt>
<pdfrwt beam="1">  1        2 0.65248013E-01 0.80165050E+02</pdfrwt>
<pdfrwt beam="2">  1       -1 0.58279544E-03 0.80165050E+02</pdfrwt>
<totfact> 0.28677798E+05</totfact>
</mgrwt>
</event>
<event>
 8    1  0.7667702E-014  0.8051250E+02  0.7818608E-02  0.1327603E+00
         -1   -1    0    0    0  501 -0.00000000000E+00  0.00000000000E+00  0.82207947576E+01  0.82207963026E+01  0.50400000000E-02 0.  1.
          2   -1    0    0  501    0  0.00000000000E+00 -0.00000000000E+00 -0.19713005211E+03  0.19713005213E+03  0.25500000000E-02 0. -1.
         24    2    1    2    0    0  0.44408920985E-15  0.00000000000E+00 -0.18890925735E+03  0.20535084843E+03  0.80512504850E+02 0.  0.
         66    2    3    3    0    0  0.27517364937E+01 -0.17724849783E+02 -0.18636139902E+03  0.18723331273E+03  0.20000001645E+01 0.  0.
        -13    1    3    3    0    0 -0.27517364937E+01  0.17724849783E+02 -0.25478583374E+01  0.18117535696E+02  0.10566000000E+00 0.  1.
         13    1    4    4    0    0 -0.63421190915E-01 -0.37585535522E+01 -0.42931335815E+02  0.43095724915E+02  0.10566000000E+00 0. -1.
        -13    1    4    4    0    0  0.18473032865E+00 -0.14062599863E+01 -0.15936610471E+02  0.15999950305E+02  0.10566000000E+00 0. -1.
         14    1    4    4    0    0  0.26304273560E+01 -0.12560036244E+02 -0.12749345273E+03  0.12813763751E+03  0.00000000000E+00 0. -1.
<mgrwt>
<rscale>  0 0.80512505E+02</rscale>
<asrwt>0</asrwt>
<pdfrwt beam="1">  1        2 0.30327697E-01 0.80512505E+02</pdfrwt>
<pdfrwt beam="2">  1       -1 0.12647379E-02 0.80512505E+02</pdfrwt>
<totfact> 0.21581322E+05</totfact>
</mgrwt>
</event>
<event>
 8    1  0.7667702E-014  0.7999279E+02  0.7818608E-02  0.1329072E+00
          2   -1    0    0  501    0  0.00000000000E+00  0.00000000000E+00  0.23293525927E+03  0.23293525929E+03  0.25500000000E-02 0. -1.
         -1   -1    0    0    0  501 -0.00000000000E+00 -0.00000000000E+00 -0.68676220941E+01  0.68676239435E+01  0.50400000000E-02 0.  1.
         24    2    1    2    0    0  0.44408920985E-15  0.00000000000E+00  0.22606763718E+03  0.23980288323E+03  0.79992788588E+02 0.  0.
         66    2    3    3    0    0  0.36951035274E+01 -0.17111191297E+02  0.22082776707E+03  0.22152956770E+03  0.19999996771E+01 0.  0.
        -13    1    3    3    0    0 -0.36951035274E+01  0.17111191297E+02  0.52398701091E+01  0.18273315530E+02  0.10566000000E+00 0.  1.
         13    1    4    4    0    0  0.13775449745E+01 -0.65466441038E+01  0.84551462753E+02  0.84815783890E+02  0.10566000000E+00 0. -1.
        -13    1    4    4    0    0  0.11584461410E+01 -0.41519354604E+01  0.45483059932E+02  0.45686983599E+02  0.10566000000E+00 0.  1.
         14    1    4    4    0    0  0.11591124118E+01 -0.64126117326E+01  0.90793244386E+02  0.91026800212E+02  0.00000000000E+00 0. -1.
<mgrwt>
<rscale>  0 0.79992789E+02</rscale>
<asrwt>0</asrwt>
<pdfrwt beam="1">  1        2 0.35836190E-01 0.79992789E+02</pdfrwt>
<pdfrwt beam="2">  1       -1 0.10565575E-02 0.79992789E+02</pdfrwt>
<totfact> 0.23279073E+05</totfact>
</mgrwt>
</event>
<event>
 8    1  0.7667702E-014  0.8135667E+02  0.7818608E-02  0.1325245E+00
         -1   -1    0    0    0  501 -0.00000000000E+00  0.00000000000E+00  0.61287579327E+01  0.61287600050E+01  0.50400000000E-02 0.  1.
          2   -1    0    0  501    0  0.00000000000E+00 -0.00000000000E+00 -0.26999383117E+03  0.26999383118E+03  0.25500000000E-02 0. -1.
         24    2    1    2    0    0  0.00000000000E+00  0.35527136788E-14 -0.26386507324E+03  0.27612259119E+03  0.81356674522E+02 0.  0.
         66    2    3    3    0    0  0.16126967861E+02 -0.18949589222E+02 -0.24112486536E+03  0.24241362736E+03  0.20000027277E+01 0.  0.
        -13    1    3    3    0    0 -0.16126967861E+02  0.18949589222E+02 -0.22740207883E+02  0.33708963833E+02  0.10566000000E+00 0.  1.
         13    1    4    4    0    0  0.13434471156E+01 -0.18761448570E+01 -0.20130414404E+02  0.20262515090E+02  0.10566000000E+00 0. -1.
        -13    1    4    4    0    0  0.54795752629E+01 -0.59325439243E+01 -0.72179536235E+02  0.72630003701E+02  0.10566000000E+00 0.  1.
         14    1    4    4    0    0  0.93039454822E+01 -0.11140900441E+02 -0.14881491472E+03  0.14952110857E+03  0.00000000000E+00 0. -1.
<mgrwt>
<rscale>  0 0.81356675E+02</rscale>
<asrwt>0</asrwt>
<pdfrwt beam="1">  1        2 0.41537503E-01 0.81356675E+02</pdfrwt>
<pdfrwt beam="2">  1       -1 0.94288621E-03 0.81356675E+02</pdfrwt>
<totfact> 0.23478811E+05</totfact>
</mgrwt>
</event>
<event>
 8    1  0.7667702E-014  0.8015646E+02  0.7818608E-02  0.1328608E+00
          2   -1    0    0  501    0  0.00000000000E+00  0.00000000000E+00  0.68861094783E+03  0.68861094784E+03  0.25500000000E-02 0. -1.
         -1   -1    0    0    0  501 -0.00000000000E+00 -0.00000000000E+00 -0.23326128872E+01  0.23326183320E+01  0.50400000000E-02 0.  1.
         24    2    1    2    0    0  0.00000000000E+00  0.00000000000E+00  0.68627833495E+03  0.69094356617E+03  0.80156463341E+02 0.  0.
         66    2    3    3    0    0  0.30898734330E+02 -0.17438705597E+02  0.50355769891E+03  0.50481005970E+03  0.19999998045E+01 0.  0.
        -13    1    3    3    0    0 -0.30898734330E+02  0.17438705597E+02  0.18272063603E+03  0.18613350647E+03  0.10566000000E+00 0.  1.
         13    1    4    4    0    0  0.25856506080E+02 -0.14527343583E+02  0.42625942692E+03  0.42728996340E+03  0.10566000000E+00 0. -1.
        -13    1    4    4    0    0  0.10347823228E+01 -0.68294864276E+00  0.19977580164E+02  0.20016295025E+02  0.10566000000E+00 0.  1.
         14    1    4    4    0    0  0.40074459265E+01 -0.22284133713E+01  0.57320691831E+02  0.57503801274E+02  0.00000000000E+00 0. -1.
<mgrwt>
<rscale>  0 0.80156463E+02</rscale>
<asrwt>0</asrwt>
<pdfrwt beam="1">  1        2 0.10594007E+00 0.80156463E+02</pdfrwt>
<pdfrwt beam="2">  1       -1 0.35886420E-03 0.80156463E+02</pdfrwt>
<totfact> 0.33155860E+05</totfact>
</mgrwt>
</event>
<event>
 8    1  0.7667702E-014  0.7661550E+02  0.7818608E-02  0.1338940E+00
         -1   -1    0    0    0  501 -0.00000000000E+00  0.00000000000E+00  0.21175512022E+02  0.21175512622E+02  0.50400000000E-02 0.  1.
          2   -1    0    0  501    0  0.00000000000E+00 -0.00000000000E+00 -0.69300971598E+02  0.69300971645E+02  0.25500000000E-02 0. -1.
         24    2    1    2    0    0 -0.35527136788E-14  0.00000000000E+00 -0.48125459576E+02  0.90476484267E+02  0.76615496774E+02 0.  0.
         66    2    3    3    0    0 -0.24920663689E+02  0.17158203244E+02 -0.51774909822E+02  0.60000705878E+02  0.20000003739E+01 0.  0.
        -13    1    3    3    0    0  0.24920663689E+02 -0.17158203244E+02  0.36494502467E+01  0.30475778389E+02  0.10566000000E+00 0.  1.
         13    1    4    4    0    0 -0.18355569476E+01  0.12414532936E+01 -0.30288688278E+01  0.37544221925E+01  0.10566000000E+00 0.  1.
        -13    1    4    4    0    0 -0.62566965463E+01  0.44500784051E+01 -0.14300181233E+02  0.16231321475E+02  0.10566000000E+00 0. -1.
        -14    1    4    4    0    0 -0.16828410195E+02  0.11466671545E+02 -0.34445859761E+02  0.40014962211E+02  0.00000000000E+00 0.  1.
<mgrwt>
<rscale>  0 0.76615497E+02</rscale>
<asrwt>0</asrwt>
<pdfrwt beam="1">  1        2 0.10661688E-01 0.76615497E+02</pdfrwt>
<pdfrwt beam="2">  1       -1 0.32577712E-02 0.76615497E+02</pdfrwt>
<totfact> 0.18101207E+05</totfact>
</mgrwt>
</event>
<event>
 8    1  0.9931653E-014  0.7315316E+02  0.7818608E-02  0.1349687E+00
          2   -1    0    0  501    0  0.00000000000E+00  0.00000000000E+00  0.64670485803E+02  0.64670485853E+02  0.25500000000E-02 0. -1.
         -1   -1    0    0    0  501 -0.00000000000E+00 -0.00000000000E+00 -0.20687122753E+02  0.20687123367E+02  0.50400000000E-02 0.  1.
         24    2    1    2    0    0  0.44408920985E-15 -0.35527136788E-14  0.43983363050E+02  0.85357609220E+02  0.73153162793E+02 0.  0.
         66    2    3    3    0    0  0.35199948696E+01 -0.14689676651E+02  0.60842174630E+02  0.62721186006E+02  0.19999990602E+01 0.  0.
        -13    1    3    3    0    0 -0.35199948696E+01  0.14689676651E+02 -0.16858811580E+02  0.22636423214E+02  0.10566000000E+00 0.  1.
         13    1    4    4    0    0  0.18300224432E+01 -0.97407193989E+01  0.40276152964E+02  0.41477828513E+02  0.10566000000E+00 0. -1.
        -13    1    4    4    0    0  0.34726574109E+00 -0.18968603477E+01  0.90812553856E+01  0.92843436003E+01  0.10566000000E+00 0.  1.
        -14    1    4    4    0    0  0.13427066853E+01 -0.30520969046E+01  0.11484766281E+02  0.11959013892E+02  0.00000000000E+00 0.  1.
<mgrwt>
<rscale>  0 0.73153163E+02</rscale>
<asrwt>0</asrwt>
<pdfrwt beam="1">  1        2 0.99493055E-02 0.73153163E+02</pdfrwt>
<pdfrwt beam="2">  1       -1 0.31826344E-02 0.73153163E+02</pdfrwt>
<totfact> 0.20163039E+05</totfact>
</mgrwt>
</event>
<event>
 8    1  0.7667702E-014  0.8053105E+02  0.7818608E-02  0.1327551E+00
          2   -1    0    0  501    0  0.00000000000E+00  0.00000000000E+00  0.45274320304E+03  0.45274320304E+03  0.25500000000E-02 0. -1.
         -1   -1    0    0    0  501 -0.00000000000E+00 -0.00000000000E+00 -0.35810843072E+01  0.35810878539E+01  0.50400000000E-02 0.  1.
         24    2    1    2    0    0 -0.71054273576E-14  0.17763568394E-14  0.44916211873E+03  0.45632429090E+03  0.80531047192E+02 0.  0.
         66    2    3    3    0    0  0.37730921086E+02  0.10993938642E+02  0.27373252147E+03  0.27654652850E+03  0.20000060512E+01 0.  0.
        -13    1    3    3    0    0 -0.37730921086E+02 -0.10993938642E+02  0.17542959726E+03  0.17977776240E+03  0.10566000000E+00 0.  1.
         13    1    4    4    0    0  0.17623516276E+02  0.44592846653E+01  0.12659737596E+03  0.12789597456E+03  0.10566000000E+00 0. -1.
        -13    1    4    4    0    0  0.11992525610E+02  0.41273593589E+01  0.91666513683E+02  0.92539811220E+02  0.10566000000E+00 0.  1.
         14    1    4    4    0    0  0.81148791997E+01  0.24072946177E+01  0.55468631822E+02  0.56110742715E+02  0.00000000000E+00 0. -1.
<mgrwt>
<rscale>  0 0.80531047E+02</rscale>
<asrwt>0</asrwt>
<pdfrwt beam="1">  1        2 0.69652724E-01 0.80531047E+02</pdfrwt>
<pdfrwt beam="2">  1       -1 0.55093693E-03 0.80531047E+02</pdfrwt>
<totfact> 0.28973889E+05</totfact>
</mgrwt>
</event>
<event>
 8    1  0.7667702E-014  0.7847754E+02  0.7818608E-02  0.1333428E+00
         -1   -1    0    0    0  501 -0.00000000000E+00  0.00000000000E+00  0.90248288070E+01  0.90248302143E+01  0.50400000000E-02 0.  1.
          2   -1    0    0  501    0  0.00000000000E+00 -0.00000000000E+00 -0.17060499611E+03  0.17060499613E+03  0.25500000000E-02 0. -1.
         24    2    1    2    0    0  0.00000000000E+00  0.00000000000E+00 -0.16158016730E+03  0.17962982634E+03  0.78477538484E+02 0.  0.
         66    2    3    3    0    0  0.12460909340E+01  0.23997402923E+02 -0.15177156349E+03  0.15367509725E+03  0.19999850954E+01 0.  0.
        -13    1    3    3    0    0 -0.12460909340E+01 -0.23997402923E+02 -0.98086038154E+01  0.25954729097E+02  0.10566000000E+00 0.  1.
         13    1    4    4    0    0  0.15731833613E+01  0.14590905031E+02 -0.90956524939E+02  0.92132893195E+02  0.10566000000E+00 0. -1.
        -13    1    4    4    0    0 -0.21780866201E+00  0.29464888062E+01 -0.20752307630E+02  0.20961838490E+02  0.10566000000E+00 0.  1.
         14    1    4    4    0    0 -0.10928376529E+00  0.64600090859E+01 -0.40062730919E+02  0.40580365560E+02  0.00000000000E+00 0. -1.
<mgrwt>
<rscale>  0 0.78477538E+02</rscale>
<asrwt>0</asrwt>
<pdfrwt beam="1">  1        2 0.26246920E-01 0.78477538E+02</pdfrwt>
<pdfrwt beam="2">  1       -1 0.13884354E-02 0.78477538E+02</pdfrwt>
<totfact> 0.21982962E+05</totfact>
</mgrwt>
</event>
<event>
 8    1  0.7667702E-014  0.8023342E+02  0.7818608E-02  0.1328390E+00
         -1   -1    0    0    0  501 -0.00000000000E+00  0.00000000000E+00  0.43929675756E+02  0.43929676045E+02  0.50400000000E-02 0.  1.
          2   -1    0    0  501    0  0.00000000000E+00 -0.00000000000E+00 -0.36634696449E+02  0.36634696537E+02  0.25500000000E-02 0. -1.
         24    2    1    2    0    0  0.00000000000E+00  0.00000000000E+00  0.72949793070E+01  0.80564372582E+02  0.80233418265E+02 0.  0.
         66    2    3    3    0    0  0.13827041583E+02 -0.36640768784E+02 -0.49654059907E+01  0.39527057518E+02  0.20000008342E+01 0.  0.
        -13    1    3    3    0    0 -0.13827041583E+02  0.36640768784E+02  0.12260385298E+02  0.41037315065E+02  0.10566000000E+00 0.  1.
         13    1    4    4    0    0  0.53625311950E+01 -0.12481197969E+02 -0.17568639280E+01  0.13697984467E+02  0.10566000000E+00 0. -1.
        -13    1    4    4    0    0  0.62403347425E+01 -0.19095813535E+02 -0.22425316293E+01  0.20214647768E+02  0.10566000000E+00 0.  1.
        -14    1    4    4    0    0  0.22241756458E+01 -0.50637572803E+01 -0.96601043344E+00  0.56144252826E+01  0.00000000000E+00 0.  1.
<mgrwt>
<rscale>  0 0.80233418E+02</rscale>
<asrwt>0</asrwt>
<pdfrwt beam="1">  1        2 0.56361072E-02 0.80233418E+02</pdfrwt>
<pdfrwt beam="2">  1       -1 0.67584117E-02 0.80233418E+02</pdfrwt>
<totfact> 0.13889359E+05</totfact>
</mgrwt>
</event>
<event>
 8    1  0.7667702E-014  0.7700447E+02  0.7818608E-02  0.1337774E+00
         -1   -1    0    0    0  501 -0.00000000000E+00  0.00000000000E+00  0.67874753184E+02  0.67874753371E+02  0.50400000000E-02 0.  1.
          2   -1    0    0  501    0  0.00000000000E+00 -0.00000000000E+00 -0.21840550656E+02  0.21840550805E+02  0.25500000000E-02 0. -1.
         24    2    1    2    0    0  0.00000000000E+00 -0.44408920985E-15  0.46034202528E+02  0.89715304176E+02  0.77004467409E+02 0.  0.
         66    2    3    3    0    0 -0.37337518492E+02  0.36628546840E+01  0.32980796960E+02  0.49992397025E+02  0.20000001602E+01 0.  0.
        -13    1    3    3    0    0  0.37337518492E+02 -0.36628546840E+01  0.13053405569E+02  0.39722907151E+02  0.10566000000E+00 0.  1.
         13    1    4    4    0    0 -0.15723077335E+01 -0.25819622299E-01  0.10960239747E+01  0.19197007190E+01  0.10566000000E+00 0. -1.
        -13    1    4    4    0    0 -0.20006381388E+02  0.15601950605E+01  0.18281325807E+02  0.27146041004E+02  0.10566000000E+00 0.  1.
        -14    1    4    4    0    0 -0.15758829370E+02  0.21284792458E+01  0.13603447178E+02  0.20926655302E+02  0.00000000000E+00 0.  1.
<mgrwt>
<rscale>  0 0.77004467E+02</rscale>
<asrwt>0</asrwt>
<pdfrwt beam="1">  1        2 0.33600847E-02 0.77004467E+02</pdfrwt>
<pdfrwt beam="2">  1       -1 0.10442270E-01 0.77004467E+02</pdfrwt>
<totfact> 0.14086507E+05</totfact>
</mgrwt>
</event>
<event>
 8    1  0.8719496E-014  0.7881158E+02  0.7818608E-02  0.1332458E+00
          2   -1    0    0  501    0  0.00000000000E+00  0.00000000000E+00  0.24715276033E+03  0.24715276034E+03  0.25500000000E-02 0. -1.
         -1   -1    0    0    0  501 -0.00000000000E+00 -0.00000000000E+00 -0.62828182844E+01  0.62828203059E+01  0.50400000000E-02 0.  1.
         24    2    1    2    0    0  0.00000000000E+00  0.00000000000E+00  0.24086994204E+03  0.25343558064E+03  0.78811576293E+02 0.  0.
         66    2    3    3    0    0  0.99554926488E+01 -0.37878395866E+02  0.13374234971E+03  0.13937324282E+03  0.20000002516E+01 0.  0.
        -13    1    3    3    0    0 -0.99554926488E+01  0.37878395866E+02  0.10712759233E+03  0.11406233783E+03  0.10566000000E+00 0.  1.
         13    1    4    4    0    0  0.54991964967E+01 -0.21427500427E+02  0.75182685911E+02  0.78369805164E+02  0.10566000000E+00 0.  1.
        -13    1    4    4    0    0  0.37477031200E+01 -0.15192248456E+02  0.53425320848E+02  0.55669792200E+02  0.10566000000E+00 0. -1.
        -14    1    4    4    0    0  0.70859303209E+00 -0.12586469827E+01  0.51343429477E+01  0.53336454528E+01  0.00000000000E+00 0.  1.
<mgrwt>
<rscale>  0 0.78811576E+02</rscale>
<asrwt>0</asrwt>
<pdfrwt beam="1">  1        2 0.38023500E-01 0.78811576E+02</pdfrwt>
<pdfrwt beam="2">  1       -1 0.96658763E-03 0.78811576E+02</pdfrwt>
<totfact> 0.24724084E+05</totfact>
</mgrwt>
</event>
<event>
 8    1  0.7667702E-014  0.7942391E+02  0.7818608E-02  0.1330694E+00
          2   -1    0    0  501    0  0.00000000000E+00  0.00000000000E+00  0.12468380144E+04  0.12468380144E+04  0.25500000000E-02 0. -1.
         -1   -1    0    0    0  501 -0.00000000000E+00 -0.00000000000E+00 -0.12648259928E+01  0.12648360343E+01  0.50400000000E-02 0.  1.
         24    2    1    2    0    0 -0.35527136788E-14  0.88817841970E-15  0.12455731884E+04  0.12481028504E+04  0.79423910695E+02 0.  0.
         66    2    3    3    0    0 -0.19924125951E+02  0.58730451346E+01  0.11545915629E+04  0.11547801265E+04  0.20000117616E+01 0.  0.
        -13    1    3    3    0    0  0.19924125951E+02 -0.58730451346E+01  0.90981625503E+02  0.93322723906E+02  0.10566000000E+00 0.  1.
         13    1    4    4    0    0 -0.65771927019E+01  0.23632848655E+01  0.38008822382E+03  0.38015248734E+03  0.10566000000E+00 0. -1.
        -13    1    4    4    0    0 -0.60674844028E+01  0.10999505365E+01  0.31582887463E+03  0.31588908413E+03  0.10566000000E+00 0.  1.
        -14    1    4    4    0    0 -0.72794488458E+01  0.24098097326E+01  0.45867446446E+03  0.45873855507E+03  0.00000000000E+00 0.  1.
<mgrwt>
<rscale>  0 0.79423911E+02</rscale>
<asrwt>0</asrwt>
<pdfrwt beam="1">  1        2 0.19182188E+00 0.79423911E+02</pdfrwt>
<pdfrwt beam="2">  1       -1 0.19458873E-03 0.79423911E+02</pdfrwt>
<totfact> 0.35525153E+05</totfact>
</mgrwt>
</event>
<event>
 8    1  0.7667702E-014  0.8090780E+02  0.7818608E-02  0.1326495E+00
         -1   -1    0    0    0  501 -0.00000000000E+00  0.00000000000E+00  0.15297209495E+01  0.15297292522E+01  0.50400000000E-02 0.  1.
          2   -1    0    0  501    0  0.00000000000E+00 -0.00000000000E+00 -0.10698118687E+04  0.10698118687E+04  0.25500000000E-02 0. -1.
         24    2    1    2    0    0  0.00000000000E+00 -0.17763568394E-14 -0.10682821478E+04  0.10713415980E+04  0.80907801274E+02 0.  0.
         66    2    3    3    0    0  0.96498012592E+01  0.12311951538E+02 -0.10281122193E+04  0.10282331634E+04  0.20000024826E+01 0.  0.
        -13    1    3    3    0    0 -0.96498012592E+01 -0.12311951538E+02 -0.40169928496E+02  0.43108434609E+02  0.10566000000E+00 0.  1.
         13    1    4    4    0    0  0.51016314591E+01  0.64552859848E+01 -0.50366799214E+03  0.50373520309E+03  0.10566000000E+00 0. -1.
        -13    1    4    4    0    0  0.71122005094E+00  0.11051432516E+01 -0.67053064880E+02  0.67066026045E+02  0.10566000000E+00 0.  1.
         14    1    4    4    0    0  0.38369497492E+01  0.47515223015E+01 -0.45739116226E+03  0.45743193424E+03  0.00000000000E+00 0. -1.
<mgrwt>
<rscale>  0 0.80907801E+02</rscale>
<asrwt>0</asrwt>
<pdfrwt beam="1">  1        2 0.16458584E+00 0.80907801E+02</pdfrwt>
<pdfrwt beam="2">  1       -1 0.23534318E-03 0.80907801E+02</pdfrwt>
<totfact> 0.34252832E+05</totfact>
</mgrwt>
</event>
<event>
 8    1  0.7667702E-014  0.8388371E+02  0.7818608E-02  0.1318378E+00
          2   -1    0    0  501    0  0.00000000000E+00  0.00000000000E+00  0.32802712734E+03  0.32802712735E+03  0.25500000000E-02 0. -1.
         -1   -1    0    0    0  501 -0.00000000000E+00 -0.00000000000E+00 -0.53627238482E+01  0.53627262165E+01  0.50400000000E-02 0.  1.
         24    2    1    2    0    0  0.00000000000E+00  0.00000000000E+00  0.32266440349E+03  0.33338985357E+03  0.83883712247E+02 0.  0.
         66    2    3    3    0    0  0.30195225044E+02  0.47004922610E+01  0.27546054733E+03  0.27715764355E+03  0.19999997333E+01 0.  0.
        -13    1    3    3    0    0 -0.30195225044E+02 -0.47004922610E+01  0.47203856162E+02  0.56232210019E+02  0.10566000000E+00 0.  1.
         13    1    4    4    0    0  0.23399759591E+02  0.37228292147E+01  0.21179419612E+03  0.21311546373E+03  0.10566000000E+00 0. -1.
        -13    1    4    4    0    0  0.63430453268E+01  0.10731449437E+01  0.57600892326E+02  0.57959122016E+02  0.10566000000E+00 0.  1.
        -14    1    4    4    0    0  0.45242012677E+00 -0.95481897384E-01  0.60654588899E+01  0.60830578091E+01  0.00000000000E+00 0.  1.
<mgrwt>
<rscale>  0 0.83883712E+02</rscale>
<asrwt>0</asrwt>
<pdfrwt beam="1">  1        2 0.50465715E-01 0.83883712E+02</pdfrwt>
<pdfrwt beam="2">  1       -1 0.82503457E-03 0.83883712E+02</pdfrwt>
<totfact> 0.23249666E+05</totfact>
</mgrwt>
</event>
<event>
 8    1  0.7667702E-014  0.8276447E+02  0.7818608E-02  0.1321384E+00
         -1   -1    0    0    0  501 -0.00000000000E+00  0.00000000000E+00  0.18143259548E+01  0.18143329551E+01  0.50400000000E-02 0.  1.
          2   -1    0    0  501    0  0.00000000000E+00 -0.00000000000E+00 -0.94386893323E+03  0.94386893323E+03  0.25500000000E-02 0. -1.
         24    2    1    2    0    0  0.00000000000E+00 -0.17763568394E-14 -0.94205460727E+03  0.94568326619E+03  0.82764466170E+02 0.  0.
         66    2    3    3    0    0 -0.24903988348E+01 -0.13205556932E+02 -0.91822453796E+03  0.91832504644E+03  0.19999960501E+01 0.  0.
        -13    1    3    3    0    0  0.24903988348E+01  0.13205556932E+02 -0.23830069309E+02  0.27358219744E+02  0.10566000000E+00 0.  1.
         13    1    4    4    0    0 -0.77068306130E+00 -0.39897830302E+01 -0.26298429348E+03  0.26301570695E+03  0.10566000000E+00 0. -1.
        -13    1    4    4    0    0 -0.15117400121E+01 -0.43367641732E+01 -0.34714193511E+03  0.34717233064E+03  0.10566000000E+00 0.  1.
        -14    1    4    4    0    0 -0.20797576145E+00 -0.48790097286E+01 -0.30809830937E+03  0.30813700885E+03  0.00000000000E+00 0.  1.
<mgrwt>
<rscale>  0 0.82764466E+02</rscale>
<asrwt>0</asrwt>
<pdfrwt beam="1">  1        2 0.14521021E+00 0.82764466E+02</pdfrwt>
<pdfrwt beam="2">  1       -1 0.27912836E-03 0.82764466E+02</pdfrwt>
<totfact> 0.32137172E+05</totfact>
</mgrwt>
</event>
<event>
 8    1  0.7667702E-014  0.7886085E+02  0.7818608E-02  0.1332316E+00
         -1   -1    0    0    0  501 -0.00000000000E+00  0.00000000000E+00  0.24639656444E+02  0.24639656959E+02  0.50400000000E-02 0.  1.
          2   -1    0    0  501    0  0.00000000000E+00 -0.00000000000E+00 -0.63099844899E+02  0.63099844951E+02  0.25500000000E-02 0. -1.
         24    2    1    2    0    0 -0.71054273576E-14 -0.35527136788E-14 -0.38460188455E+02  0.87739501910E+02  0.78860852769E+02 0.  0.
         66    2    3    3    0    0 -0.27137700234E+02 -0.21257153377E+02 -0.40481820737E+02  0.53208074126E+02  0.19999995922E+01 0.  0.
        -13    1    3    3    0    0  0.27137700234E+02  0.21257153377E+02  0.20216322823E+01  0.34531427784E+02  0.10566000000E+00 0.  1.
         13    1    4    4    0    0 -0.15288696396E+02 -0.12894037121E+02 -0.23880038799E+02  0.31149122746E+02  0.10566000000E+00 0. -1.
        -13    1    4    4    0    0 -0.19731260636E+01 -0.12653823800E+01 -0.30892714548E+01  0.38793274143E+01  0.10566000000E+00 0.  1.
        -14    1    4    4    0    0 -0.98758777738E+01 -0.70977338758E+01 -0.13512510483E+02  0.18179623966E+02  0.00000000000E+00 0.  1.
<mgrwt>
<rscale>  0 0.78860853E+02</rscale>
<asrwt>0</asrwt>
<pdfrwt beam="1">  1        2 0.97076684E-02 0.78860853E+02</pdfrwt>
<pdfrwt beam="2">  1       -1 0.37907164E-02 0.78860853E+02</pdfrwt>
<totfact> 0.16374974E+05</totfact>
</mgrwt>
</event>
<event>
 8    1  0.9472572E-014  0.7946045E+02  0.7818608E-02  0.1330590E+00
          2   -1    0    0  501    0  0.00000000000E+00  0.00000000000E+00  0.44598343295E+03  0.44598343295E+03  0.25500000000E-02 0. -1.
         -1   -1    0    0    0  501 -0.00000000000E+00 -0.00000000000E+00 -0.35393470667E+01  0.35393506551E+01  0.50400000000E-02 0.  1.
         24    2    1    2    0    0  0.00000000000E+00  0.00000000000E+00  0.44244408588E+03  0.44952278361E+03  0.79460454652E+02 0.  0.
         66    2    3    3    0    0 -0.17647727236E+02 -0.24858650898E+02  0.36526929454E+03  0.36654474806E+03  0.19999989196E+01 0.  0.
        -13    1    3    3    0    0  0.17647727236E+02  0.24858650898E+02  0.77174791335E+02  0.82978035544E+02  0.10566000000E+00 0.  1.
         13    1    4    4    0    0 -0.11711527146E+02 -0.16021810283E+02  0.23440376881E+03  0.23524242021E+03  0.10566000000E+00 0. -1.
        -13    1    4    4    0    0 -0.31085614699E+01 -0.55781812319E+01  0.78196585680E+02  0.78456971879E+02  0.10566000000E+00 0.  1.
        -14    1    4    4    0    0 -0.28276386204E+01 -0.32586593838E+01  0.52668940058E+02  0.52845355973E+02  0.00000000000E+00 0.  1.
<mgrwt>
<rscale>  0 0.79460455E+02</rscale>
<asrwt>0</asrwt>
<pdfrwt beam="1">  1        2 0.68612810E-01 0.79460455E+02</pdfrwt>
<pdfrwt beam="2">  1       -1 0.54451541E-03 0.79460455E+02</pdfrwt>
<totfact> 0.29852224E+05</totfact>
</mgrwt>
</event>
<event>
 8    1  0.7667702E-014  0.8113847E+02  0.7818608E-02  0.1325851E+00
         -1   -1    0    0    0  501 -0.00000000000E+00  0.00000000000E+00  0.41427977835E+02  0.41427978142E+02  0.50400000000E-02 0.  1.
          2   -1    0    0  501    0  0.00000000000E+00 -0.00000000000E+00 -0.39728291386E+02  0.39728291468E+02  0.25500000000E-02 0. -1.
         24    2    1    2    0    0  0.00000000000E+00  0.00000000000E+00  0.16996864497E+01  0.81156269609E+02  0.81138469069E+02 0.  0.
         66    2    3    3    0    0 -0.64504917102E+01 -0.39208743551E+02 -0.72089156208E+01  0.40433932140E+02  0.19999974358E+01 0.  0.
        -13    1    3    3    0    0  0.64504917102E+01  0.39208743551E+02  0.89086020704E+01  0.40722337470E+02  0.10566000000E+00 0.  1.
         13    1    4    4    0    0 -0.34797998126E+01 -0.17708803947E+02 -0.34168987574E+01  0.18368372414E+02  0.10566000000E+00 0. -1.
        -13    1    4    4    0    0 -0.26623811982E+00 -0.54177018662E+01 -0.76448239494E+00  0.54788660885E+01  0.10566000000E+00 0.  1.
         14    1    4    4    0    0 -0.27044537778E+01 -0.16082237737E+02 -0.30275344685E+01  0.16586693638E+02  0.00000000000E+00 0. -1.
<mgrwt>
<rscale>  0 0.81138469E+02</rscale>
<asrwt>0</asrwt>
<pdfrwt beam="1">  1        2 0.61120449E-02 0.81138469E+02</pdfrwt>
<pdfrwt beam="2">  1       -1 0.63735351E-02 0.81138469E+02</pdfrwt>
<totfact> 0.13689158E+05</totfact>
</mgrwt>
</event>
<event>
 8    1  0.7667702E-014  0.8235638E+02  0.7818608E-02  0.1322494E+00
          2   -1    0    0  501    0  0.00000000000E+00  0.00000000000E+00  0.88632921101E+03  0.88632921101E+03  0.25500000000E-02 0. -1.
         -1   -1    0    0    0  501 -0.00000000000E+00 -0.00000000000E+00 -0.19131043475E+01  0.19131109864E+01  0.50400000000E-02 0.  1.
         24    2    1    2    0    0  0.00000000000E+00  0.35527136788E-14  0.88441610666E+03  0.88824232200E+03  0.82356377215E+02 0.  0.
         66    2    3    3    0    0  0.18429432310E+02 -0.27748668965E+02  0.70310912018E+03  0.70390060910E+03  0.20000006134E+01 0.  0.
        -13    1    3    3    0    0 -0.18429432310E+02  0.27748668965E+02  0.18130698648E+03  0.18434171290E+03  0.10566000000E+00 0.  1.
         13    1    4    4    0    0  0.64243246095E+01 -0.91388237013E+01  0.23042781344E+03  0.23069845777E+03  0.10566000000E+00 0. -1.
        -13    1    4    4    0    0  0.30329608331E+01 -0.51782680855E+01  0.14128272997E+03  0.14141016323E+03  0.10566000000E+00 0.  1.
        -14    1    4    4    0    0  0.89721468671E+01 -0.13431577178E+02  0.33139857677E+03  0.33179198810E+03  0.00000000000E+00 0.  1.
<mgrwt>
<rscale>  0 0.82356377E+02</rscale>
<asrwt>0</asrwt>
<pdfrwt beam="1">  1        2 0.13635826E+00 0.82356377E+02</pdfrwt>
<pdfrwt beam="2">  1       -1 0.29432444E-03 0.82356377E+02</pdfrwt>
<totfact> 0.32348778E+05</totfact>
</mgrwt>
</event>
<event>
 8    1  0.7667702E-014  0.8043516E+02  0.7818608E-02  0.1327821E+00
         -1   -1    0    0    0  501 -0.00000000000E+00  0.00000000000E+00  0.15529427912E+01  0.15529509697E+01  0.50400000000E-02 0.  1.
          2   -1    0    0  501    0  0.00000000000E+00 -0.00000000000E+00 -0.10415383271E+04  0.10415383271E+04  0.25500000000E-02 0. -1.
         24    2    1    2    0    0 -0.17763568394E-14  0.00000000000E+00 -0.10399853843E+04  0.10430912781E+04  0.80435159076E+02 0.  0.
         66    2    3    3    0    0 -0.11096603651E+02 -0.20300465078E+02 -0.94652906764E+03  0.94681387790E+03  0.19999998966E+01 0.  0.
        -13    1    3    3    0    0  0.11096603651E+02  0.20300465078E+02 -0.93456316685E+02  0.96277400191E+02  0.10566000000E+00 0.  1.
         13    1    4    4    0    0 -0.58334227948E+01 -0.96575713271E+01 -0.44208601338E+03  0.44222997625E+03  0.10566000000E+00 0. -1.
        -13    1    4    4    0    0 -0.39643327058E+01 -0.75044691932E+01 -0.34166973120E+03  0.34177514447E+03  0.10566000000E+00 0.  1.
        -14    1    4    4    0    0 -0.12988481509E+01 -0.31384245579E+01 -0.16277332306E+03  0.16280875718E+03  0.00000000000E+00 0.  1.
<mgrwt>
<rscale>  0 0.80435159E+02</rscale>
<asrwt>0</asrwt>
<pdfrwt beam="1">  1        2 0.16023611E+00 0.80435159E+02</pdfrwt>
<pdfrwt beam="2">  1       -1 0.23891574E-03 0.80435159E+02</pdfrwt>
<totfact> 0.34776724E+05</totfact>
</mgrwt>
</event>
<event>
 8    1  0.7667702E-014  0.8085149E+02  0.7818608E-02  0.1326652E+00
          2   -1    0    0  501    0  0.00000000000E+00  0.00000000000E+00  0.10811440383E+03  0.10811440386E+03  0.25500000000E-02 0. -1.
         -1   -1    0    0    0  501 -0.00000000000E+00 -0.00000000000E+00 -0.15115848604E+02  0.15115849445E+02  0.50400000000E-02 0.  1.
         24    2    1    2    0    0  0.00000000000E+00  0.00000000000E+00  0.92998555227E+02  0.12323025331E+03  0.80851493836E+02 0.  0.
         66    2    3    3    0    0 -0.69055692665E+01 -0.34814582255E+02  0.75944012151E+02  0.83852459715E+02  0.19999985451E+01 0.  0.
        -13    1    3    3    0    0  0.69055692665E+01  0.34814582255E+02  0.17054543076E+02  0.39377793590E+02  0.10566000000E+00 0.  1.
         13    1    4    4    0    0 -0.43727904082E+01 -0.25188491124E+02  0.54396350813E+02  0.60104538322E+02  0.10566000000E+00 0. -1.
        -13    1    4    4    0    0 -0.10219706385E+01 -0.28478459800E+01  0.60385398051E+01  0.67549816968E+01  0.10566000000E+00 0.  1.
         14    1    4    4    0    0 -0.15108082198E+01 -0.67782451509E+01  0.15509121533E+02  0.16992939697E+02  0.00000000000E+00 0. -1.
<mgrwt>
<rscale>  0 0.80851494E+02</rscale>
<asrwt>0</asrwt>
<pdfrwt beam="1">  1        2 0.16632986E-01 0.80851494E+02</pdfrwt>
<pdfrwt beam="2">  1       -1 0.23255151E-02 0.80851494E+02</pdfrwt>
<totfact> 0.17616877E+05</totfact>
</mgrwt>
</event>
<event>
 8    1  0.7667702E-014  0.8076390E+02  0.7818608E-02  0.1326897E+00
         -1   -1    0    0    0  501 -0.00000000000E+00  0.00000000000E+00  0.14591353503E+01  0.14591440546E+01  0.50400000000E-02 0.  1.
          2   -1    0    0  501    0  0.00000000000E+00 -0.00000000000E+00 -0.11175776493E+04  0.11175776493E+04  0.25500000000E-02 0. -1.
         24    2    1    2    0    0  0.00000000000E+00  0.00000000000E+00 -0.11161185139E+04  0.11190367933E+04  0.80763901010E+02 0.  0.
         66    2    3    3    0    0 -0.37456232953E+00  0.15235857643E+02 -0.10761693885E+04  0.10762791572E+04  0.19999978569E+01 0.  0.
        -13    1    3    3    0    0  0.37456232953E+00 -0.15235857643E+02 -0.39949125485E+02  0.42757636115E+02  0.10566000000E+00 0.  1.
         13    1    4    4    0    0 -0.43766864532E+00  0.11916079012E+02 -0.86754431880E+03  0.86762626789E+03  0.10566000000E+00 0. -1.
        -13    1    4    4    0    0  0.14906853826E+00  0.15888664612E+00 -0.12763046142E+02  0.12765342817E+02  0.10566000000E+00 0. -1.
         14    1    4    4    0    0 -0.85962222458E-01  0.31608919858E+01 -0.19586202351E+03  0.19588754652E+03  0.00000000000E+00 0. -1.
<mgrwt>
<rscale>  0 0.80763901E+02</rscale>
<asrwt>0</asrwt>
<pdfrwt beam="1">  1        2 0.17193434E+00 0.80763901E+02</pdfrwt>
<pdfrwt beam="2">  1       -1 0.22448393E-03 0.80763901E+02</pdfrwt>
<totfact> 0.34371482E+05</totfact>
</mgrwt>
</event>
<event>
 8    1  0.7667702E-014  0.8321735E+02  0.7818608E-02  0.1320161E+00
          2   -1    0    0  501    0  0.00000000000E+00  0.00000000000E+00  0.72308007960E+01  0.72308012456E+01  0.25500000000E-02 0. -1.
         -1   -1    0    0    0  501 -0.00000000000E+00 -0.00000000000E+00 -0.23943153138E+03  0.23943153143E+03  0.50400000000E-02 0.  1.
         24    2    1    2    0    0  0.00000000000E+00  0.71054273576E-14 -0.23220073059E+03  0.24666233268E+03  0.83217348424E+02 0.  0.
         66    2    3    3    0    0  0.45153742992E+01  0.39597111999E+02 -0.15135827846E+03  0.15653002374E+03  0.19999981270E+01 0.  0.
        -13    1    3    3    0    0 -0.45153742992E+01 -0.39597111999E+02 -0.80842452129E+02  0.90132308935E+02  0.10566000000E+00 0.  1.
         13    1    4    4    0    0  0.14873546331E+01  0.13802995766E+02 -0.54426326141E+02  0.56169129041E+02  0.10566000000E+00 0. -1.
        -13    1    4    4    0    0  0.21036986705E+01  0.22029278028E+02 -0.83046177244E+02  0.85944129278E+02  0.10566000000E+00 0.  1.
        -14    1    4    4    0    0  0.92432099561E+00  0.37648382047E+01 -0.13885775071E+02  0.14416765426E+02  0.00000000000E+00 0.  1.
<mgrwt>
<rscale>  0 0.83217348E+02</rscale>
<asrwt>0</asrwt>
<pdfrwt beam="1">  1        2 0.11124311E-02 0.83217348E+02</pdfrwt>
<pdfrwt beam="2">  1       -1 0.36835614E-01 0.83217348E+02</pdfrwt>
<totfact> 0.84991306E+04</totfact>
</mgrwt>
</event>
<event>
 8    1  0.7667702E-014  0.7837940E+02  0.7818608E-02  0.1333714E+00
         -1   -1    0    0    0  501 -0.00000000000E+00  0.00000000000E+00  0.31246445146E+01  0.31246485793E+01  0.50400000000E-02 0.  1.
          2   -1    0    0  501    0  0.00000000000E+00 -0.00000000000E+00 -0.49152197599E+03  0.49152197599E+03  0.25500000000E-02 0. -1.
         24    2    1    2    0    0  0.00000000000E+00  0.00000000000E+00 -0.48839733147E+03  0.49464662457E+03  0.78379396604E+02 0.  0.
         66    2    3    3    0    0  0.13865037864E+02  0.31955419458E+02 -0.35732799434E+03  0.35902741352E+03  0.20000020335E+01 0.  0.
        -13    1    3    3    0    0 -0.13865037864E+02 -0.31955419458E+02 -0.13106933713E+03  0.13561921106E+03  0.10566000000E+00 0.  1.
         13    1    4    4    0    0  0.14984947170E+01  0.32989868274E+01 -0.42932600513E+02  0.43085358898E+02  0.10566000000E+00 0. -1.
        -13    1    4    4    0    0  0.55014520752E+01  0.12161621884E+02 -0.13074967195E+03  0.13142929240E+03  0.10566000000E+00 0.  1.
         14    1    4    4    0    0  0.68650910716E+01  0.16494810747E+02 -0.18364572188E+03  0.18451276221E+03  0.00000000000E+00 0. -1.
<mgrwt>
<rscale>  0 0.78379397E+02</rscale>
<asrwt>0</asrwt>
<pdfrwt beam="1">  1        2 0.75618704E-01 0.78379397E+02</pdfrwt>
<pdfrwt beam="2">  1       -1 0.48071525E-03 0.78379397E+02</pdfrwt>
<totfact> 0.31942793E+05</totfact>
</mgrwt>
</event>
<event>
 8    1  0.7667702E-014  0.8027703E+02  0.7818608E-02  0.1328267E+00
         -1   -1    0    0    0  501 -0.00000000000E+00  0.00000000000E+00  0.10525080729E+03  0.10525080741E+03  0.50400000000E-02 0.  1.
          2   -1    0    0  501    0  0.00000000000E+00 -0.00000000000E+00 -0.15307247858E+02  0.15307248070E+02  0.25500000000E-02 0. -1.
         24    2    1    2    0    0 -0.35527136788E-14  0.00000000000E+00  0.89943559433E+02  0.12055805548E+03  0.80277025717E+02 0.  0.
         66    2    3    3    0    0  0.17168776487E+02 -0.28591526728E+02  0.11524745279E+02  0.35342071863E+02  0.20000007894E+01 0.  0.
        -13    1    3    3    0    0 -0.17168776487E+02  0.28591526728E+02  0.78418814154E+02  0.85215983618E+02  0.10566000000E+00 0.  1.
         13    1    4    4    0    0  0.55155228581E+01 -0.84969039876E+01  0.43962163416E+01  0.11043380458E+02  0.10566000000E+00 0. -1.
        -13    1    4    4    0    0  0.84171437301E+01 -0.14468877202E+02  0.51299330585E+01  0.17507829486E+02  0.10566000000E+00 0.  1.
         14    1    4    4    0    0  0.32361098986E+01 -0.56257455378E+01  0.19985958789E+01  0.67908619202E+01  0.00000000000E+00 0. -1.
<mgrwt>
<rscale>  0 0.80277026E+02</rscale>
<asrwt>0</asrwt>
<pdfrwt beam="1">  1        2 0.23549611E-02 0.80277026E+02</pdfrwt>
<pdfrwt beam="2">  1       -1 0.16192433E-01 0.80277026E+02</pdfrwt>
<totfact> 0.11621881E+05</totfact>
</mgrwt>
</event>
<event>
 8    1  0.7667702E-014  0.7974679E+02  0.7818608E-02  0.1329772E+00
         -1   -1    0    0    0  501 -0.00000000000E+00  0.00000000000E+00  0.10978383311E+01  0.10978499000E+01  0.50400000000E-02 0.  1.
          2   -1    0    0  501    0  0.00000000000E+00 -0.00000000000E+00 -0.14481905938E+04  0.14481905938E+04  0.25500000000E-02 0. -1.
         24    2    1    2    0    0  0.00000000000E+00  0.00000000000E+00 -0.14470927555E+04  0.14492884437E+04  0.79746787511E+02 0.  0.
         66    2    3    3    0    0 -0.17040049988E+02 -0.53554238086E+01 -0.13713586797E+04  0.13714764571E+04  0.20000069903E+01 0.  0.
        -13    1    3    3    0    0  0.17040049988E+02  0.53554238086E+01 -0.75734075764E+02  0.77811986632E+02  0.10566000000E+00 0.  1.
         13    1    4    4    0    0 -0.65248545226E+01 -0.13755150148E+01 -0.53845289756E+03  0.53849419665E+03  0.10566000000E+00 0. -1.
        -13    1    4    4    0    0 -0.29283700748E+01 -0.11987206021E+01 -0.20391840585E+03  0.20394298147E+03  0.10566000000E+00 0.  1.
         14    1    4    4    0    0 -0.75868253908E+01 -0.27811881917E+01 -0.62898737627E+03  0.62903927893E+03  0.00000000000E+00 0. -1.
<mgrwt>
<rscale>  0 0.79746788E+02</rscale>
<asrwt>0</asrwt>
<pdfrwt beam="1">  1        2 0.22279703E+00 0.79746788E+02</pdfrwt>
<pdfrwt beam="2">  1       -1 0.16890025E-03 0.79746788E+02</pdfrwt>
<totfact> 0.33943515E+05</totfact>
</mgrwt>
</event>
<event>
 8    1  0.7667702E-014  0.8493457E+02  0.7818608E-02  0.1315604E+00
         -1   -1    0    0    0  501 -0.00000000000E+00  0.00000000000E+00  0.39827071709E+01  0.39827103599E+01  0.50400000000E-02 0.  1.
          2   -1    0    0  501    0  0.00000000000E+00 -0.00000000000E+00 -0.45282508602E+03  0.45282508603E+03  0.25500000000E-02 0. -1.
         24    2    1    2    0    0  0.00000000000E+00  0.88817841970E-15 -0.44884237885E+03  0.45680779639E+03  0.84934573580E+02 0.  0.
         66    2    3    3    0    0 -0.38429662563E+02 -0.75376847415E+01 -0.31256139601E+03  0.31501155841E+03  0.20000005392E+01 0.  0.
        -13    1    3    3    0    0  0.38429662563E+02  0.75376847415E+01 -0.13628098284E+03  0.14179623798E+03  0.10566000000E+00 0.  1.
         13    1    4    4    0    0 -0.10697388349E+01 -0.36810584349E+00 -0.96769108363E+01  0.97433880378E+01  0.10566000000E+00 0. -1.
        -13    1    4    4    0    0 -0.19636433374E+02 -0.41727658264E+01 -0.15438488205E+03  0.15568463142E+03  0.10566000000E+00 0.  1.
        -14    1    4    4    0    0 -0.17723490354E+02 -0.29968130717E+01 -0.14849960313E+03  0.14958353896E+03  0.00000000000E+00 0.  1.
<mgrwt>
<rscale>  0 0.84934574E+02</rscale>
<asrwt>0</asrwt>
<pdfrwt beam="1">  1        2 0.69665357E-01 0.84934574E+02</pdfrwt>
<pdfrwt beam="2">  1       -1 0.61272479E-03 0.84934574E+02</pdfrwt>
<totfact> 0.25206936E+05</totfact>
</mgrwt>
</event>
<event>
 8    1  0.7667702E-014  0.7954309E+02  0.7818608E-02  0.1330353E+00
         -1   -1    0    0    0  501 -0.00000000000E+00  0.00000000000E+00  0.23002479232E+01  0.23002534447E+01  0.50400000000E-02 0.  1.
          2   -1    0    0  501    0  0.00000000000E+00 -0.00000000000E+00 -0.68765367180E+03  0.68765367180E+03  0.25500000000E-02 0. -1.
         24    2    1    2    0    0  0.00000000000E+00  0.00000000000E+00 -0.68535342388E+03  0.68995392525E+03  0.79543091136E+02 0.  0.
         66    2    3    3    0    0 -0.23605022919E+02  0.25201967775E+02 -0.51362549395E+03  0.51478877641E+03  0.19999990538E+01 0.  0.
        -13    1    3    3    0    0  0.23605022919E+02 -0.25201967775E+02 -0.17172792992E+03  0.17516514884E+03  0.10566000000E+00 0.  1.
         13    1    4    4    0    0 -0.76993492970E+01  0.75835125625E+01 -0.15165533573E+03  0.15203993443E+03  0.10566000000E+00 0. -1.
        -13    1    4    4    0    0 -0.39680967750E+01  0.38197294599E+01 -0.82623772482E+02  0.82807216282E+02  0.10566000000E+00 0.  1.
         14    1    4    4    0    0 -0.11937576847E+02  0.13798725752E+02 -0.27934638574E+03  0.27994162570E+03  0.00000000000E+00 0. -1.
<mgrwt>
<rscale>  0 0.79543091E+02</rscale>
<asrwt>0</asrwt>
<pdfrwt beam="1">  1        2 0.10579271E+00 0.79543091E+02</pdfrwt>
<pdfrwt beam="2">  1       -1 0.35388527E-03 0.79543091E+02</pdfrwt>
<totfact> 0.33813463E+05</totfact>
</mgrwt>
</event>
<event>
 8    1  0.7667702E-014  0.7788875E+02  0.7818608E-02  0.1335152E+00
         -1   -1    0    0    0  501 -0.00000000000E+00  0.00000000000E+00  0.20921117882E+03  0.20921117888E+03  0.50400000000E-02 0.  1.
          2   -1    0    0  501    0  0.00000000000E+00 -0.00000000000E+00 -0.72494428132E+01  0.72494432617E+01  0.25500000000E-02 0. -1.
         24    2    1    2    0    0  0.00000000000E+00  0.00000000000E+00  0.20196173601E+03  0.21646062215E+03  0.77888754820E+02 0.  0.
         66    2    3    3    0    0  0.38590352555E+02  0.49914463806E+01  0.10307001394E+03  0.11018873637E+03  0.20000007529E+01 0.  0.
        -13    1    3    3    0    0 -0.38590352555E+02 -0.49914463806E+01  0.98891722070E+02  0.10627188577E+03  0.10566000000E+00 0.  1.
         13    1    4    4    0    0  0.53473302695E+01  0.10281338943E+01  0.13320555185E+02  0.14390946974E+02  0.10566000000E+00 0.  1.
        -13    1    4    4    0    0  0.10455363537E+02  0.12499369379E+01  0.26673940960E+02  0.28677295190E+02  0.10566000000E+00 0. -1.
         14    1    4    4    0    0  0.22787658748E+02  0.27133755483E+01  0.63075517794E+02  0.67120494211E+02  0.00000000000E+00 0. -1.
<mgrwt>
<rscale>  0 0.77888755E+02</rscale>
<asrwt>0</asrwt>
<pdfrwt beam="1">  1        2 0.11152990E-02 0.77888755E+02</pdfrwt>
<pdfrwt beam="2">  1       -1 0.32186334E-01 0.77888755E+02</pdfrwt>
<totfact> 0.10515979E+05</totfact>
</mgrwt>
</event>
<event>
 8    1  0.7667702E-014  0.8052936E+02  0.7818608E-02  0.1327556E+00
          2   -1    0    0  501    0  0.00000000000E+00  0.00000000000E+00  0.23482301321E+02  0.23482301460E+02  0.25500000000E-02 0. -1.
         -1   -1    0    0    0  501 -0.00000000000E+00 -0.00000000000E+00 -0.69041125851E+02  0.69041126035E+02  0.50400000000E-02 0.  1.
         24    2    1    2    0    0  0.00000000000E+00  0.71054273576E-14 -0.45558824529E+02  0.92523427495E+02  0.80529361992E+02 0.  0.
         66    2    3    3    0    0 -0.16325528208E+02 -0.36297864599E+02 -0.29608270131E+02  0.49645820339E+02  0.19999928262E+01 0.  0.
        -13    1    3    3    0    0  0.16325528208E+02  0.36297864599E+02 -0.15950554398E+02  0.42877607155E+02  0.10566000000E+00 0.  1.
         13    1    4    4    0    0 -0.89691732551E+01 -0.19512864572E+02 -0.16193123226E+02  0.26896586336E+02  0.10566000000E+00 0. -1.
        -13    1    4    4    0    0 -0.41371363591E+01 -0.10700570780E+02 -0.88452614889E+01  0.14486819082E+02  0.10566000000E+00 0.  1.
        -14    1    4    4    0    0 -0.32192185938E+01 -0.60844292469E+01 -0.45698854162E+01  0.82624149214E+01  0.00000000000E+00 0.  1.
<mgrwt>
<rscale>  0 0.80529362E+02</rscale>
<asrwt>0</asrwt>
<pdfrwt beam="1">  1        2 0.36126618E-02 0.80529362E+02</pdfrwt>
<pdfrwt beam="2">  1       -1 0.10621712E-01 0.80529362E+02</pdfrwt>
<totfact> 0.12582411E+05</totfact>
</mgrwt>
</event>
<event>
 8    1  0.7667702E-014  0.8285651E+02  0.7818608E-02  0.1321135E+00
          2   -1    0    0  501    0  0.00000000000E+00  0.00000000000E+00  0.19718717045E+03  0.19718717046E+03  0.25500000000E-02 0. -1.
         -1   -1    0    0    0  501 -0.00000000000E+00 -0.00000000000E+00 -0.87039138622E+01  0.87039153215E+01  0.50400000000E-02 0.  1.
         24    2    1    2    0    0  0.00000000000E+00  0.00000000000E+00  0.18848325658E+03  0.20589108578E+03  0.82856509659E+02 0.  0.
         66    2    3    3    0    0  0.10589746476E+02 -0.39489116006E+02  0.78046834236E+02  0.88129684814E+02  0.19999994706E+01 0.  0.
        -13    1    3    3    0    0 -0.10589746476E+02  0.39489116006E+02  0.11043642235E+03  0.11776140097E+03  0.10566000000E+00 0.  1.
         13    1    4    4    0    0  0.45023261328E+01 -0.14675722903E+02  0.29251794258E+02  0.33035229902E+02  0.10566000000E+00 0. -1.
        -13    1    4    4    0    0  0.47599083903E+00 -0.34699619117E+01  0.72091374011E+01  0.80156115831E+01  0.10566000000E+00 0.  1.
        -14    1    4    4    0    0  0.56114295041E+01 -0.21343431191E+02  0.41585902577E+02  0.47078843329E+02  0.00000000000E+00 0.  1.
<mgrwt>
<rscale>  0 0.82856510E+02</rscale>
<asrwt>0</asrwt>
<pdfrwt beam="1">  1        2 0.30336489E-01 0.82856510E+02</pdfrwt>
<pdfrwt beam="2">  1       -1 0.13390637E-02 0.82856510E+02</pdfrwt>
<totfact> 0.20005806E+05</totfact>
</mgrwt>
</event>
<event>
 8    1  0.7667702E-014  0.7925176E+02  0.7818608E-02  0.1331188E+00
         -1   -1    0    0    0  501 -0.00000000000E+00  0.00000000000E+00  0.57439812628E+01  0.57439834739E+01  0.50400000000E-02 0.  1.
          2   -1    0    0  501    0  0.00000000000E+00 -0.00000000000E+00 -0.27336613945E+03  0.27336613946E+03  0.25500000000E-02 0. -1.
         24    2    1    2    0    0  0.17763568394E-14  0.00000000000E+00 -0.26762215818E+03  0.27911012293E+03  0.79251758166E+02 0.  0.
         66    2    3    3    0    0  0.15589327675E+02 -0.19018400727E+02 -0.24321306561E+03  0.24446128936E+03  0.20000022952E+01 0.  0.
        -13    1    3    3    0    0 -0.15589327675E+02  0.19018400727E+02 -0.24409092575E+02  0.34648833573E+02  0.10566000000E+00 0.  1.
         13    1    4    4    0    0  0.90114197205E+01 -0.11493970158E+02 -0.14416490486E+03  0.14490289160E+03  0.10566000000E+00 0. -1.
        -13    1    4    4    0    0  0.37229118312E+01 -0.37159137649E+01 -0.56710100691E+02  0.56953619482E+02  0.10566000000E+00 0.  1.
        -14    1    4    4    0    0  0.28549961231E+01 -0.38085168043E+01 -0.42338060054E+02  0.42604778280E+02  0.00000000000E+00 0.  1.
<mgrwt>
<rscale>  0 0.79251758E+02</rscale>
<asrwt>0</asrwt>
<pdfrwt beam="1">  1        2 0.42056319E-01 0.79251758E+02</pdfrwt>
<pdfrwt beam="2">  1       -1 0.88368981E-03 0.79251758E+02</pdfrwt>
<totfact> 0.25265549E+05</totfact>
</mgrwt>
</event>
<event>
 8    1  0.7667702E-014  0.8887014E+02  0.7818608E-02  0.1305611E+00
          2   -1    0    0  501    0  0.00000000000E+00  0.00000000000E+00  0.96493586668E+03  0.96493586669E+03  0.25500000000E-02 0. -1.
         -1   -1    0    0    0  501 -0.00000000000E+00 -0.00000000000E+00 -0.20462214728E+01  0.20462276797E+01  0.50400000000E-02 0.  1.
         24    2    1    2    0    0  0.17763568394E-14  0.88817841970E-15  0.96288964521E+03  0.96698209437E+03  0.88870141057E+02 0.  0.
         66    2    3    3    0    0 -0.12269964789E+02 -0.67021355784E+01  0.94036421987E+03  0.94047027421E+03  0.20000006835E+01 0.  0.
        -13    1    3    3    0    0  0.12269964789E+02  0.67021355784E+01  0.22525425343E+02  0.26511820160E+02  0.10566000000E+00 0.  1.
         13    1    4    4    0    0 -0.85706186948E+01 -0.54404797416E+01  0.68150404112E+03  0.68157965312E+03  0.10566000000E+00 0. -1.
        -13    1    4    4    0    0 -0.29654129898E+01 -0.92667621683E+00  0.18599498031E+03  0.18602095653E+03  0.10566000000E+00 0.  1.
         14    1    4    4    0    0 -0.73393310489E+00 -0.33497962000E+00  0.72865198439E+02  0.72869664558E+02  0.00000000000E+00 0. -1.
<mgrwt>
<rscale>  0 0.88870141E+02</rscale>
<asrwt>0</asrwt>
<pdfrwt beam="1">  1        2 0.14845169E+00 0.88870141E+02</pdfrwt>
<pdfrwt beam="2">  1       -1 0.31480375E-03 0.88870141E+02</pdfrwt>
<totfact> 0.26723712E+05</totfact>
</mgrwt>
</event>
<event>
 8    1  0.7667702E-014  0.8055272E+02  0.7818608E-02  0.1327490E+00
         -1   -1    0    0    0  501 -0.00000000000E+00  0.00000000000E+00  0.20862573538E+01  0.20862634416E+01  0.50400000000E-02 0.  1.
          2   -1    0    0  501    0  0.00000000000E+00 -0.00000000000E+00 -0.77755642894E+03  0.77755642894E+03  0.25500000000E-02 0. -1.
         24    2    1    2    0    0  0.17763568394E-14  0.00000000000E+00 -0.77547017159E+03  0.77964269239E+03  0.80552720442E+02 0.  0.
         66    2    3    3    0    0  0.12697338441E+02  0.26219363372E+02 -0.65680741486E+03  0.65745620206E+03  0.19999997810E+01 0.  0.
        -13    1    3    3    0    0 -0.12697338441E+02 -0.26219363372E+02 -0.11866275673E+03  0.12218649032E+03  0.10566000000E+00 0.  1.
         13    1    4    4    0    0  0.49994815533E+01  0.11263702225E+02 -0.28490456982E+03  0.28517098533E+03  0.10566000000E+00 0. -1.
        -13    1    4    4    0    0  0.70223374121E+01  0.12857506864E+02 -0.32815493079E+03  0.32848180843E+03  0.10566000000E+00 0.  1.
        -14    1    4    4    0    0  0.67551947594E+00  0.20981542825E+01 -0.43747914248E+02  0.43803408303E+02  0.00000000000E+00 0.  1.
<mgrwt>
<rscale>  0 0.80552720E+02</rscale>
<asrwt>0</asrwt>
<pdfrwt beam="1">  1        2 0.11962383E+00 0.80552720E+02</pdfrwt>
<pdfrwt beam="2">  1       -1 0.32096376E-03 0.80552720E+02</pdfrwt>
<totfact> 0.33584539E+05</totfact>
</mgrwt>
</event>
<event>
 8    1  0.7667702E-014  0.8071064E+02  0.7818608E-02  0.1327047E+00
          2   -1    0    0  501    0  0.00000000000E+00  0.00000000000E+00  0.43921658016E+02  0.43921658090E+02  0.25500000000E-02 0. -1.
         -1   -1    0    0    0  501 -0.00000000000E+00 -0.00000000000E+00 -0.37078556765E+02  0.37078557107E+02  0.50400000000E-02 0.  1.
         24    2    1    2    0    0  0.00000000000E+00  0.00000000000E+00  0.68431012509E+01  0.81000215197E+02  0.80710636395E+02 0.  0.
         66    2    3    3    0    0  0.18305286667E+02 -0.34909186018E+02  0.11987252333E+02  0.41248381997E+02  0.20000026260E+01 0.  0.
        -13    1    3    3    0    0 -0.18305286667E+02  0.34909186018E+02 -0.51441510824E+01  0.39751833200E+02  0.10566000000E+00 0.  1.
         13    1    4    4    0    0  0.76941187260E+01 -0.16216657850E+02  0.57830840819E+01  0.18858278827E+02  0.10566000000E+00 0. -1.
        -13    1    4    4    0    0  0.38164837520E+01 -0.75011567836E+01  0.22188957450E+01  0.87044565416E+01  0.10566000000E+00 0.  1.
         14    1    4    4    0    0  0.67946841888E+01 -0.11191371384E+02  0.39852725064E+01  0.13685646628E+02  0.00000000000E+00 0. -1.
<mgrwt>
<rscale>  0 0.80710636E+02</rscale>
<asrwt>0</asrwt>
<pdfrwt beam="1">  1        2 0.67571782E-02 0.80710636E+02</pdfrwt>
<pdfrwt beam="2">  1       -1 0.57043934E-02 0.80710636E+02</pdfrwt>
<totfact> 0.14184912E+05</totfact>
</mgrwt>
</event>
<event>
 8    1  0.7667702E-014  0.7898847E+02  0.7818608E-02  0.1331947E+00
          2   -1    0    0  501    0  0.00000000000E+00  0.00000000000E+00  0.70828984102E+03  0.70828984103E+03  0.25500000000E-02 0. -1.
         -1   -1    0    0    0  501 -0.00000000000E+00 -0.00000000000E+00 -0.22021955278E+01  0.22022012952E+01  0.50400000000E-02 0.  1.
         24    2    1    2    0    0  0.00000000000E+00  0.00000000000E+00  0.70608764550E+03  0.71049204232E+03  0.78988474369E+02 0.  0.
         66    2    3    3    0    0  0.17538876608E+02 -0.26880666806E+02  0.55987933604E+03  0.56080215168E+03  0.19999930827E+01 0.  0.
        -13    1    3    3    0    0 -0.17538876608E+02  0.26880666806E+02  0.14620830946E+03  0.14968989064E+03  0.10566000000E+00 0.  1.
         13    1    4    4    0    0  0.92158774193E+01 -0.14932718518E+02  0.31543141022E+03  0.31591914187E+03  0.10566000000E+00 0. -1.
        -13    1    4    4    0    0  0.12566689012E+01 -0.20843385006E+01  0.36162952199E+02  0.36244916326E+02  0.10566000000E+00 0. -1.
         14    1    4    4    0    0  0.70663302873E+01 -0.98636097870E+01  0.20828497361E+03  0.20863809349E+03  0.00000000000E+00 0. -1.
<mgrwt>
<rscale>  0 0.78988474E+02</rscale>
<asrwt>0</asrwt>
<pdfrwt beam="1">  1        2 0.10896769E+00 0.78988474E+02</pdfrwt>
<pdfrwt beam="2">  1       -1 0.33879969E-03 0.78988474E+02</pdfrwt>
<totfact> 0.34668299E+05</totfact>
</mgrwt>
</event>
<event>
 8    1  0.7667702E-014  0.8120516E+02  0.7818608E-02  0.1325666E+00
          2   -1    0    0  501    0  0.00000000000E+00  0.00000000000E+00  0.76470495724E+01  0.76470499976E+01  0.25500000000E-02 0. -1.
         -1   -1    0    0    0  501 -0.00000000000E+00 -0.00000000000E+00 -0.21558241148E+03  0.21558241154E+03  0.50400000000E-02 0.  1.
         24    2    1    2    0    0  0.00000000000E+00  0.00000000000E+00 -0.20793536191E+03  0.22322946154E+03  0.81205158495E+02 0.  0.
         66    2    3    3    0    0 -0.26504875108E+02 -0.24198935285E+02 -0.51983914970E+02  0.63201458239E+02  0.20000086340E+01 0.  0.
        -13    1    3    3    0    0  0.26504875108E+02  0.24198935285E+02 -0.15595144694E+03  0.16002800330E+03  0.10566000000E+00 0.  1.
         13    1    4    4    0    0 -0.32119641565E+00 -0.17332593996E+00 -0.54790160155E+00  0.66676024137E+00  0.10566000000E+00 0.  1.
        -13    1    4    4    0    0 -0.12323710011E+02 -0.12082788978E+02 -0.25746005185E+02  0.30995734625E+02  0.10566000000E+00 0.  1.
         14    1    4    4    0    0 -0.13859968681E+02 -0.11942820367E+02 -0.25690008183E+02  0.31538963373E+02  0.00000000000E+00 0. -1.
<mgrwt>
<rscale>  0 0.81205158E+02</rscale>
<asrwt>0</asrwt>
<pdfrwt beam="1">  1        2 0.11764694E-02 0.81205158E+02</pdfrwt>
<pdfrwt beam="2">  1       -1 0.33166520E-01 0.81205158E+02</pdfrwt>
<totfact> 0.93672471E+04</totfact>
</mgrwt>
</event>
<event>
 8    1  0.7667702E-014  0.7939257E+02  0.7818608E-02  0.1330784E+00
          2   -1    0    0  501    0  0.00000000000E+00  0.00000000000E+00  0.12603394241E+04  0.12603394241E+04  0.25500000000E-02 0. -1.
         -1   -1    0    0    0  501 -0.00000000000E+00 -0.00000000000E+00 -0.12502890968E+01  0.12502992551E+01  0.50400000000E-02 0.  1.
         24    2    1    2    0    0  0.88817841970E-15 -0.17763568394E-14  0.12590891350E+04  0.12615897233E+04  0.79392570172E+02 0.  0.
         66    2    3    3    0    0 -0.68846231375E+01  0.15649830582E+02  0.11987871526E+04  0.11989107358E+04  0.19999970605E+01 0.  0.
        -13    1    3    3    0    0  0.68846231375E+01 -0.15649830582E+02  0.60301982358E+02  0.62678987494E+02  0.10566000000E+00 0.  1.
         13    1    4    4    0    0 -0.30247993629E+01  0.74353532173E+01  0.52990056117E+03  0.52996136631E+03  0.10566000000E+00 0. -1.
        -13    1    4    4    0    0 -0.27622135949E+00  0.77039149656E+00  0.90712533857E+02  0.90716287204E+02  0.10566000000E+00 0.  1.
        -14    1    4    4    0    0 -0.35836024151E+01  0.74440858677E+01  0.57817405758E+03  0.57823308231E+03  0.00000000000E+00 0.  1.
<mgrwt>
<rscale>  0 0.79392570E+02</rscale>
<asrwt>0</asrwt>
<pdfrwt beam="1">  1        2 0.19389738E+00 0.79392570E+02</pdfrwt>
<pdfrwt beam="2">  1       -1 0.19235393E-03 0.79392570E+02</pdfrwt>
<totfact> 0.35502563E+05</totfact>
</mgrwt>
</event>
<event>
 8    1  0.7667702E-014  0.8224158E+02  0.7818608E-02  0.1322808E+00
          2   -1    0    0  501    0  0.00000000000E+00  0.00000000000E+00  0.12835074737E+03  0.12835074740E+03  0.25500000000E-02 0. -1.
         -1   -1    0    0    0  501 -0.00000000000E+00 -0.00000000000E+00 -0.13174206186E+02  0.13174207150E+02  0.50400000000E-02 0.  1.
         24    2    1    2    0    0  0.00000000000E+00  0.35527136788E-14  0.11517654119E+03  0.14152495455E+03  0.82241577807E+02 0.  0.
         66    2    3    3    0    0 -0.13786693189E+02  0.17174600967E+02  0.11733018708E+03  0.11939603270E+03  0.19999992992E+01 0.  0.
        -13    1    3    3    0    0  0.13786693189E+02 -0.17174600967E+02 -0.21536458924E+01  0.22128921848E+02  0.10566000000E+00 0.  1.
         13    1    4    4    0    0 -0.76641616800E+01  0.10194496888E+02  0.63848623629E+02  0.65110099404E+02  0.10566000000E+00 0. -1.
        -13    1    4    4    0    0 -0.45777936120E+01  0.48708556155E+01  0.39595188446E+02  0.40155591651E+02  0.10566000000E+00 0.  1.
        -14    1    4    4    0    0 -0.15447378971E+01  0.21092484635E+01  0.13886375004E+02  0.14130341645E+02  0.00000000000E+00 0.  1.
<mgrwt>
<rscale>  0 0.82241578E+02</rscale>
<asrwt>0</asrwt>
<pdfrwt beam="1">  1        2 0.19746268E-01 0.82241578E+02</pdfrwt>
<pdfrwt beam="2">  1       -1 0.20268011E-02 0.82241578E+02</pdfrwt>
<totfact> 0.17716705E+05</totfact>
</mgrwt>
</event>
<event>
 8    1  0.7667702E-014  0.7952001E+02  0.7818608E-02  0.1330419E+00
          2   -1    0    0  501    0  0.00000000000E+00  0.00000000000E+00  0.41543857153E+02  0.41543857232E+02  0.25500000000E-02 0. -1.
         -1   -1    0    0    0  501 -0.00000000000E+00 -0.00000000000E+00 -0.38052747725E+02  0.38052748059E+02  0.50400000000E-02 0.  1.
         24    2    1    2    0    0  0.71054273576E-14  0.00000000000E+00  0.34911094284E+01  0.79596605290E+02  0.79520008355E+02 0.  0.
         66    2    3    3    0    0 -0.28220195487E+02  0.23319407821E+02 -0.13717457528E+02  0.39145150988E+02  0.19999975964E+01 0.  0.
        -13    1    3    3    0    0  0.28220195487E+02 -0.23319407821E+02  0.17208566956E+02  0.40451454302E+02  0.10566000000E+00 0.  1.
         13    1    4    4    0    0 -0.72168325474E+01  0.57168124713E+01 -0.28079447312E+01  0.96260238156E+01  0.10566000000E+00 0. -1.
        -13    1    4    4    0    0 -0.24946068820E+01  0.18847635987E+01 -0.15975082000E+01  0.35126334570E+01  0.10566000000E+00 0.  1.
        -14    1    4    4    0    0 -0.18508756058E+02  0.15717831751E+02 -0.93120045964E+01  0.26006493715E+02  0.00000000000E+00 0.  1.
<mgrwt>
<rscale>  0 0.79520008E+02</rscale>
<asrwt>0</asrwt>
<pdfrwt beam="1">  1        2 0.63913626E-02 0.79520008E+02</pdfrwt>
<pdfrwt beam="2">  1       -1 0.58542690E-02 0.79520008E+02</pdfrwt>
<totfact> 0.14607555E+05</totfact>
</mgrwt>
</event>
<event>
 8    1  0.7667702E-014  0.7991160E+02  0.7818608E-02  0.1329302E+00
          2   -1    0    0  501    0  0.00000000000E+00  0.00000000000E+00  0.25741006587E+02  0.25741006713E+02  0.25500000000E-02 0. -1.
         -1   -1    0    0    0  501 -0.00000000000E+00 -0.00000000000E+00 -0.62020337457E+02  0.62020337662E+02  0.50400000000E-02 0.  1.
         24    2    1    2    0    0  0.35527136788E-14  0.35527136788E-14 -0.36279330870E+02  0.87761344375E+02  0.79911599397E+02 0.  0.
         66    2    3    3    0    0 -0.18027224689E+02 -0.24084812547E+02  0.10684650326E+02  0.31987822707E+02  0.20000058824E+01 0.  0.
        -13    1    3    3    0    0  0.18027224689E+02  0.24084812547E+02 -0.46963981197E+02  0.55773521668E+02  0.10566000000E+00 0.  1.
         13    1    4    4    0    0 -0.11368284479E+02 -0.16085910297E+02  0.64609018576E+01  0.20730383955E+02  0.10566000000E+00 0. -1.
        -13    1    4    4    0    0 -0.15125377235E+00 -0.17479863083E+00  0.55624593413E-01  0.26017378035E+00  0.10566000000E+00 0. -1.
        -14    1    4    4    0    0 -0.65076864377E+01 -0.78241036190E+01  0.41681238753E+01  0.10997264971E+02  0.00000000000E+00 0.  1.
<mgrwt>
<rscale>  0 0.79911599E+02</rscale>
<asrwt>0</asrwt>
<pdfrwt beam="1">  1        2 0.39601549E-02 0.79911599E+02</pdfrwt>
<pdfrwt beam="2">  1       -1 0.95415904E-02 0.79911599E+02</pdfrwt>
<totfact> 0.13096244E+05</totfact>
</mgrwt>
</event>
<event>
 8    1  0.7667702E-014  0.7991278E+02  0.7818608E-02  0.1329299E+00
         -1   -1    0    0    0  501 -0.00000000000E+00  0.00000000000E+00  0.21855151448E+01  0.21855209562E+01  0.50400000000E-02 0.  1.
          2   -1    0    0  501    0  0.00000000000E+00 -0.00000000000E+00 -0.73049639839E+03  0.73049639840E+03  0.25500000000E-02 0. -1.
         24    2    1    2    0    0  0.35527136788E-14 -0.17763568394E-14 -0.72831088325E+03  0.73268191936E+03  0.79912779266E+02 0.  0.
         66    2    3    3    0    0 -0.31096548155E+02  0.15342654639E+02 -0.54593713533E+03  0.54704090165E+03  0.19999981306E+01 0.  0.
        -13    1    3    3    0    0  0.31096548155E+02 -0.15342654639E+02 -0.18237374792E+03  0.18564101771E+03  0.10566000000E+00 0.  1.
         13    1    4    4    0    0 -0.19741492732E+02  0.95311122058E+01 -0.34427063960E+03  0.34496790153E+03  0.10566000000E+00 0. -1.
        -13    1    4    4    0    0 -0.82931117545E+00  0.12675502097E+00 -0.14372211390E+02  0.14397063872E+02  0.10566000000E+00 0.  1.
         14    1    4    4    0    0 -0.10525744248E+02  0.56847874125E+01 -0.18729428434E+03  0.18767593625E+03  0.00000000000E+00 0. -1.
<mgrwt>
<rscale>  0 0.79912779E+02</rscale>
<asrwt>0</asrwt>
<pdfrwt beam="1">  1        2 0.11238387E+00 0.79912779E+02</pdfrwt>
<pdfrwt beam="2">  1       -1 0.33623413E-03 0.79912779E+02</pdfrwt>
<totfact> 0.33863912E+05</totfact>
</mgrwt>
</event>
<event>
 8    1  0.7667702E-014  0.8221044E+02  0.7818608E-02  0.1322893E+00
         -1   -1    0    0    0  501 -0.00000000000E+00  0.00000000000E+00  0.63391416665E+02  0.63391416865E+02  0.50400000000E-02 0.  1.
          2   -1    0    0  501    0  0.00000000000E+00 -0.00000000000E+00 -0.26654068260E+02  0.26654068382E+02  0.25500000000E-02 0. -1.
         24    2    1    2    0    0  0.00000000000E+00  0.00000000000E+00  0.36737348405E+02  0.90045485247E+02  0.82210441220E+02 0.  0.
         66    2    3    3    0    0  0.27652692077E+02 -0.38513262737E+01 -0.14627708202E+02  0.31582810852E+02  0.20000002124E+01 0.  0.
        -13    1    3    3    0    0 -0.27652692077E+02  0.38513262737E+01  0.51365056607E+02  0.58462674396E+02  0.10566000000E+00 0.  1.
         13    1    4    4    0    0  0.60278099026E+01 -0.75059832961E+00 -0.24251063106E+01  0.65414214608E+01  0.10566000000E+00 0. -1.
        -13    1    4    4    0    0  0.15535144429E+02 -0.19088048614E+01 -0.90676379709E+01  0.18089153403E+02  0.10566000000E+00 0.  1.
         14    1    4    4    0    0  0.60897377459E+01 -0.11919230827E+01 -0.31349639210E+01  0.69522359881E+01  0.00000000000E+00 0. -1.
<mgrwt>
<rscale>  0 0.82210441E+02</rscale>
<asrwt>0</asrwt>
<pdfrwt beam="1">  1        2 0.41006259E-02 0.82210441E+02</pdfrwt>
<pdfrwt beam="2">  1       -1 0.97525256E-02 0.82210441E+02</pdfrwt>
<totfact> 0.12170139E+05</totfact>
</mgrwt>
</event>
<event>
 8    1  0.7667702E-014  0.8033306E+02  0.7818608E-02  0.1328109E+00
          2   -1    0    0  501    0  0.00000000000E+00  0.00000000000E+00  0.25015134260E+03  0.25015134261E+03  0.25500000000E-02 0. -1.
         -1   -1    0    0    0  501 -0.00000000000E+00 -0.00000000000E+00 -0.64494959779E+01  0.64494979472E+01  0.50400000000E-02 0.  1.
         24    2    1    2    0    0  0.00000000000E+00  0.00000000000E+00  0.24370184662E+03  0.25660084056E+03  0.80333064981E+02 0.  0.
         66    2    3    3    0    0 -0.19671917593E+02  0.63059714137E+01  0.23186448996E+03  0.23279151898E+03  0.19999973082E+01 0.  0.
        -13    1    3    3    0    0  0.19671917593E+02 -0.63059714137E+01  0.11837356668E+02  0.23809321582E+02  0.10566000000E+00 0.  1.
         13    1    4    4    0    0 -0.24625091102E+01  0.54563434309E+00  0.24484050624E+02  0.24613849089E+02  0.10566000000E+00 0. -1.
        -13    1    4    4    0    0 -0.47508458740E+01  0.11178895526E+01  0.60598427948E+02  0.60794743584E+02  0.10566000000E+00 0.  1.
         14    1    4    4    0    0 -0.12458562609E+02  0.46424475180E+01  0.14678201138E+03  0.14738292631E+03  0.00000000000E+00 0. -1.
<mgrwt>
<rscale>  0 0.80333065E+02</rscale>
<asrwt>0</asrwt>
<pdfrwt beam="1">  1        2 0.38484816E-01 0.80333065E+02</pdfrwt>
<pdfrwt beam="2">  1       -1 0.99223046E-03 0.80333065E+02</pdfrwt>
<totfact> 0.23614148E+05</totfact>
</mgrwt>
</event>
<event>
 8    1  0.7667702E-014  0.7920820E+02  0.7818608E-02  0.1331314E+00
          2   -1    0    0  501    0  0.00000000000E+00  0.00000000000E+00  0.41359711025E+03  0.41359711026E+03  0.25500000000E-02 0. -1.
         -1   -1    0    0    0  501 -0.00000000000E+00 -0.00000000000E+00 -0.37922991075E+01  0.37923024566E+01  0.50400000000E-02 0.  1.
         24    2    1    2    0    0  0.00000000000E+00  0.00000000000E+00  0.40980481114E+03  0.41738941272E+03  0.79208197875E+02 0.  0.
         66    2    3    3    0    0 -0.15489889632E+02 -0.19886525505E+02  0.36582387185E+03  0.36669676273E+03  0.20000008783E+01 0.  0.
        -13    1    3    3    0    0  0.15489889632E+02  0.19886525505E+02  0.43980939295E+02  0.50692649988E+02  0.10566000000E+00 0.  1.
         13    1    4    4    0    0 -0.74243699024E+01 -0.87544639972E+01  0.16693913881E+03  0.16733334736E+03  0.10566000000E+00 0. -1.
        -13    1    4    4    0    0 -0.21356676632E+01 -0.35414942495E+01  0.53205616068E+02  0.53366206565E+02  0.10566000000E+00 0.  1.
        -14    1    4    4    0    0 -0.59298520662E+01 -0.75905672579E+01  0.14567911697E+03  0.14599720881E+03  0.00000000000E+00 0.  1.
<mgrwt>
<rscale>  0 0.79208198E+02</rscale>
<asrwt>0</asrwt>
<pdfrwt beam="1">  1        2 0.63630267E-01 0.79208198E+02</pdfrwt>
<pdfrwt beam="2">  1       -1 0.58343142E-03 0.79208198E+02</pdfrwt>
<totfact> 0.29335846E+05</totfact>
</mgrwt>
</event>
<event>
 8    1  0.7667702E-014  0.7972807E+02  0.7818608E-02  0.1329825E+00
         -1   -1    0    0    0  501 -0.00000000000E+00  0.00000000000E+00  0.69372994187E+02  0.69372994370E+02  0.50400000000E-02 0.  1.
          2   -1    0    0  501    0  0.00000000000E+00 -0.00000000000E+00 -0.22907205778E+02  0.22907205920E+02  0.25500000000E-02 0. -1.
         24    2    1    2    0    0  0.00000000000E+00  0.71054273576E-14  0.46465788409E+02  0.92280200290E+02  0.79728074560E+02 0.  0.
         66    2    3    3    0    0 -0.15554090382E+02  0.34800458940E+02  0.98424350943E+01  0.39419223738E+02  0.20000003712E+01 0.  0.
        -13    1    3    3    0    0  0.15554090382E+02 -0.34800458940E+02  0.36623353314E+02  0.52860976552E+02  0.10566000000E+00 0.  1.
         13    1    4    4    0    0 -0.93673484298E+01  0.21881884744E+02  0.56921672014E+01  0.24473986762E+02  0.10566000000E+00 0. -1.
        -13    1    4    4    0    0 -0.14095193328E+01  0.37091999306E+01  0.14382424469E+01  0.42219206822E+01  0.10566000000E+00 0.  1.
         14    1    4    4    0    0 -0.47772226191E+01  0.92093742651E+01  0.27120254461E+01  0.10723316293E+02  0.00000000000E+00 0. -1.
<mgrwt>
<rscale>  0 0.79728075E+02</rscale>
<asrwt>0</asrwt>
<pdfrwt beam="1">  1        2 0.35241855E-02 0.79728075E+02</pdfrwt>
<pdfrwt beam="2">  1       -1 0.10672768E-01 0.79728075E+02</pdfrwt>
<totfact> 0.12881984E+05</totfact>
</mgrwt>
</event>
<event>
 8    1  0.7667702E-014  0.8256335E+02  0.7818608E-02  0.1321930E+00
          2   -1    0    0  501    0  0.00000000000E+00  0.00000000000E+00  0.20127848576E+02  0.20127848737E+02  0.25500000000E-02 0. -1.
         -1   -1    0    0    0  501 -0.00000000000E+00 -0.00000000000E+00 -0.84667595721E+02  0.84667595871E+02  0.50400000000E-02 0.  1.
         24    2    1    2    0    0  0.00000000000E+00  0.35527136788E-14 -0.64539747145E+02  0.10479544461E+03  0.82563346887E+02 0.  0.
         66    2    3    3    0    0  0.36256827799E+02  0.17829726494E+02 -0.21690906083E+02  0.45901548037E+02  0.19999991434E+01 0.  0.
        -13    1    3    3    0    0 -0.36256827799E+02 -0.17829726494E+02 -0.42848841063E+02  0.58893896572E+02  0.10566000000E+00 0.  1.
         13    1    4    4    0    0  0.19623848205E+02  0.92555459133E+01 -0.12196901549E+02  0.24890482518E+02  0.10566000000E+00 0. -1.
        -13    1    4    4    0    0  0.23425852055E+01  0.14088475155E+01 -0.17547513103E+01  0.32500573785E+01  0.10566000000E+00 0.  1.
         14    1    4    4    0    0  0.14290394388E+02  0.71653330653E+01 -0.77392532241E+01  0.17761008141E+02  0.00000000000E+00 0. -1.
<mgrwt>
<rscale>  0 0.82563347E+02</rscale>
<asrwt>0</asrwt>
<pdfrwt beam="1">  1        2 0.30965921E-02 0.82563347E+02</pdfrwt>
<pdfrwt beam="2">  1       -1 0.13025784E-01 0.82563347E+02</pdfrwt>
<totfact> 0.11352169E+05</totfact>
</mgrwt>
</event>
<event>
 8    1  0.7667702E-014  0.7942370E+02  0.7818608E-02  0.1330695E+00
          2   -1    0    0  501    0  0.00000000000E+00  0.00000000000E+00  0.24547513189E+03  0.24547513190E+03  0.25500000000E-02 0. -1.
         -1   -1    0    0    0  501 -0.00000000000E+00 -0.00000000000E+00 -0.64244020787E+01  0.64244040557E+01  0.50400000000E-02 0.  1.
         24    2    1    2    0    0  0.00000000000E+00  0.00000000000E+00  0.23905072981E+03  0.25189953595E+03  0.79423704226E+02 0.  0.
         66    2    3    3    0    0 -0.87400193659E+01 -0.34594666782E+02  0.64498494738E+02  0.73737607249E+02  0.19999977975E+01 0.  0.
        -13    1    3    3    0    0  0.87400193659E+01  0.34594666782E+02  0.17455223507E+03  0.17816192871E+03  0.10566000000E+00 0.  1.
         13    1    4    4    0    0 -0.34976576756E+01 -0.14299492025E+02  0.25161629272E+02  0.29151806685E+02  0.10566000000E+00 0. -1.
        -13    1    4    4    0    0 -0.57865671378E+00 -0.20898800163E+01  0.47595051164E+01  0.52312995579E+01  0.10566000000E+00 0.  1.
        -14    1    4    4    0    0 -0.46637049766E+01 -0.18205294740E+02  0.34577360349E+02  0.39354501006E+02  0.00000000000E+00 0.  1.
<mgrwt>
<rscale>  0 0.79423704E+02</rscale>
<asrwt>0</asrwt>
<pdfrwt beam="1">  1        2 0.37765398E-01 0.79423704E+02</pdfrwt>
<pdfrwt beam="2">  1       -1 0.98836988E-03 0.79423704E+02</pdfrwt>
<totfact> 0.24167828E+05</totfact>
</mgrwt>
</event>
<event>
 8    1  0.7667702E-014  0.7991429E+02  0.7818608E-02  0.1329295E+00
          2   -1    0    0  501    0  0.00000000000E+00  0.00000000000E+00  0.14615178278E+03  0.14615178280E+03  0.25500000000E-02 0. -1.
         -1   -1    0    0    0  501 -0.00000000000E+00 -0.00000000000E+00 -0.10924077593E+02  0.10924078756E+02  0.50400000000E-02 0.  1.
         24    2    1    2    0    0 -0.71054273576E-14 -0.44408920985E-15  0.13522770519E+03  0.15707586156E+03  0.79914291803E+02 0.  0.
         66    2    3    3    0    0  0.36375338243E+02  0.26990044089E+01  0.99599735583E+02  0.10608749780E+03  0.20000008200E+01 0.  0.
        -13    1    3    3    0    0 -0.36375338243E+02 -0.26990044089E+01  0.35627969604E+02  0.50988363763E+02  0.10566000000E+00 0.  1.
         13    1    4    4    0    0  0.10560831075E+02  0.35559099366E+00  0.29147477902E+02  0.31003938944E+02  0.10566000000E+00 0. -1.
        -13    1    4    4    0    0  0.21770677888E+02  0.15166001434E+01  0.60016219099E+02  0.63860944329E+02  0.10566000000E+00 0.  1.
        -14    1    4    4    0    0  0.40438292798E+01  0.82681327183E+00  0.10436038582E+02  0.11222614522E+02  0.00000000000E+00 0.  1.
<mgrwt>
<rscale>  0 0.79914292E+02</rscale>
<asrwt>0</asrwt>
<pdfrwt beam="1">  1        2 0.22484889E-01 0.79914292E+02</pdfrwt>
<pdfrwt beam="2">  1       -1 0.16806274E-02 0.79914292E+02</pdfrwt>
<totfact> 0.19920224E+05</totfact>
</mgrwt>
</event>
<event>
 8    1  0.7667702E-014  0.8090733E+02  0.7818608E-02  0.1326496E+00
         -1   -1    0    0    0  501 -0.00000000000E+00  0.00000000000E+00  0.10787324712E+01  0.10787442449E+01  0.50400000000E-02 0.  1.
          2   -1    0    0  501    0  0.00000000000E+00 -0.00000000000E+00 -0.15170491643E+04  0.15170491643E+04  0.25500000000E-02 0. -1.
         24    2    1    2    0    0  0.00000000000E+00  0.00000000000E+00 -0.15159704318E+04  0.15181279085E+04  0.80907332981E+02 0.  0.
         66    2    3    3    0    0 -0.15163745003E+02  0.36487740509E+01 -0.14583241147E+04  0.14584088851E+04  0.20000036191E+01 0.  0.
        -13    1    3    3    0    0  0.15163745003E+02 -0.36487740509E+01 -0.57646317135E+02  0.59719023417E+02  0.10566000000E+00 0.  1.
         13    1    4    4    0    0 -0.12515050833E+02  0.28861968841E+01 -0.11885610014E+04  0.11886303975E+04  0.10566000000E+00 0. -1.
        -13    1    4    4    0    0 -0.52587818370E+00  0.48482288615E+00 -0.81282791463E+02  0.81286007118E+02  0.10566000000E+00 0.  1.
         14    1    4    4    0    0 -0.21228159870E+01  0.27775428069E+00 -0.18848032181E+03  0.18849248050E+03  0.00000000000E+00 0. -1.
<mgrwt>
<rscale>  0 0.80907333E+02</rscale>
<asrwt>0</asrwt>
<pdfrwt beam="1">  1        2 0.23339047E+00 0.80907333E+02</pdfrwt>
<pdfrwt beam="2">  1       -1 0.16596096E-03 0.80907333E+02</pdfrwt>
<totfact> 0.32150393E+05</totfact>
</mgrwt>
</event>
<event>
 8    1  0.7667702E-014  0.8359529E+02  0.7818608E-02  0.1319147E+00
         -1   -1    0    0    0  501 -0.00000000000E+00  0.00000000000E+00  0.12550136867E+01  0.12550238067E+01  0.50400000000E-02 0.  1.
          2   -1    0    0  501    0  0.00000000000E+00 -0.00000000000E+00 -0.13920455380E+04  0.13920455380E+04  0.25500000000E-02 0. -1.
         24    2    1    2    0    0 -0.17763568394E-14  0.00000000000E+00 -0.13907905243E+04  0.13933005618E+04  0.83595293036E+02 0.  0.
         66    2    3    3    0    0 -0.89301491640E+01 -0.20027769325E+02 -0.12883999011E+04  0.12885880507E+04  0.20000004247E+01 0.  0.
        -13    1    3    3    0    0  0.89301491640E+01  0.20027769325E+02 -0.10239062320E+03  0.10471251115E+03  0.10566000000E+00 0.  1.
         13    1    4    4    0    0 -0.60314454507E+01 -0.15090618050E+02 -0.93126807929E+03  0.93140987313E+03  0.10566000000E+00 0. -1.
        -13    1    4    4    0    0 -0.21456475665E+01 -0.40907157809E+01 -0.28425213412E+03  0.28428968443E+03  0.10566000000E+00 0.  1.
         14    1    4    4    0    0 -0.75305614680E+00 -0.84643549383E+00 -0.72879687712E+02  0.72888493108E+02  0.00000000000E+00 0. -1.
<mgrwt>
<rscale>  0 0.83595293E+02</rscale>
<asrwt>0</asrwt>
<pdfrwt beam="1">  1        2 0.21415962E+00 0.83595293E+02</pdfrwt>
<pdfrwt beam="2">  1       -1 0.19308092E-03 0.83595293E+02</pdfrwt>
<totfact> 0.30383131E+05</totfact>
</mgrwt>
</event>
<event>
 8    1  0.7667702E-014  0.7817742E+02  0.7818608E-02  0.1334305E+00
          2   -1    0    0  501    0  0.00000000000E+00  0.00000000000E+00  0.10665468535E+03  0.10665468539E+03  0.25500000000E-02 0. -1.
         -1   -1    0    0    0  501 -0.00000000000E+00 -0.00000000000E+00 -0.14325925156E+02  0.14325926042E+02  0.50400000000E-02 0.  1.
         24    2    1    2    0    0  0.00000000000E+00  0.00000000000E+00  0.92328760199E+02  0.12098061143E+03  0.78177416057E+02 0.  0.
         66    2    3    3    0    0  0.14851017056E+02 -0.19497069017E+02  0.93266243578E+02  0.96453515248E+02  0.20000011867E+01 0.  0.
        -13    1    3    3    0    0 -0.14851017056E+02  0.19497069017E+02 -0.93748337866E+00  0.24527096179E+02  0.10566000000E+00 0.  1.
         13    1    4    4    0    0  0.62202462891E+01 -0.89776507110E+01  0.41423489677E+02  0.42839308319E+02  0.10566000000E+00 0.  1.
        -13    1    4    4    0    0  0.86062480784E+01 -0.10291976228E+02  0.50485692913E+02  0.52237999901E+02  0.10566000000E+00 0. -1.
        -14    1    4    4    0    0  0.24522688338E-01 -0.22744207822E+00  0.13570609879E+01  0.13762070288E+01  0.00000000000E+00 0.  1.
<mgrwt>
<rscale>  0 0.78177416E+02</rscale>
<asrwt>0</asrwt>
<pdfrwt beam="1">  1        2 0.16408413E-01 0.78177416E+02</pdfrwt>
<pdfrwt beam="2">  1       -1 0.22039886E-02 0.78177416E+02</pdfrwt>
<totfact> 0.19198419E+05</totfact>
</mgrwt>
</event>
<event>
 8    1  0.7667702E-014  0.8243031E+02  0.7818608E-02  0.1322293E+00
          2   -1    0    0  501    0  0.00000000000E+00  0.00000000000E+00  0.95364280214E+01  0.95364283623E+01  0.25500000000E-02 0. -1.
         -1   -1    0    0    0  501 -0.00000000000E+00 -0.00000000000E+00 -0.17812634410E+03  0.17812634417E+03  0.50400000000E-02 0.  1.
         24    2    1    2    0    0  0.35527136788E-14  0.71054273576E-14 -0.16858991608E+03  0.18766277253E+03  0.82430312335E+02 0.  0.
         66    2    3    3    0    0 -0.23056818378E+02 -0.34133076324E+02 -0.84303381739E+02  0.93849581521E+02  0.20000014662E+01 0.  0.
        -13    1    3    3    0    0  0.23056818378E+02  0.34133076324E+02 -0.84286534338E+02  0.93813191012E+02  0.10566000000E+00 0.  1.
         13    1    4    4    0    0 -0.54882602592E+01 -0.73250216395E+01 -0.19603216232E+02  0.21635022380E+02  0.10566000000E+00 0. -1.
        -13    1    4    4    0    0 -0.71500363930E+01 -0.11758247454E+02 -0.28631526326E+02  0.31767197979E+02  0.10566000000E+00 0.  1.
         14    1    4    4    0    0 -0.10418521725E+02 -0.15049807230E+02 -0.36068639181E+02  0.40447361162E+02  0.00000000000E+00 0. -1.
<mgrwt>
<rscale>  0 0.82430312E+02</rscale>
<asrwt>0</asrwt>
<pdfrwt beam="1">  1        2 0.14671429E-02 0.82430312E+02</pdfrwt>
<pdfrwt beam="2">  1       -1 0.27404051E-01 0.82430312E+02</pdfrwt>
<totfact> 0.95486575E+04</totfact>
</mgrwt>
</event>
<event>
 8    1  0.7667702E-014  0.7845789E+02  0.7818608E-02  0.1333486E+00
          2   -1    0    0  501    0  0.00000000000E+00  0.00000000000E+00  0.12170916812E+04  0.12170916812E+04  0.25500000000E-02 0. -1.
         -1   -1    0    0    0  501 -0.00000000000E+00 -0.00000000000E+00 -0.12644108931E+01  0.12644209379E+01  0.50400000000E-02 0.  1.
         24    2    1    2    0    0  0.00000000000E+00  0.00000000000E+00  0.12158272703E+04  0.12183561022E+04  0.78457889350E+02 0.  0.
         66    2    3    3    0    0  0.94847318215E+01  0.97421318398E+01  0.11793018086E+04  0.11793818827E+04  0.20000013396E+01 0.  0.
        -13    1    3    3    0    0 -0.94847318215E+01 -0.97421318398E+01  0.36525461688E+02  0.38974219506E+02  0.10566000000E+00 0.  1.
         13    1    4    4    0    0  0.47717951295E+01  0.55097039455E+01  0.58636438028E+03  0.58640968997E+03  0.10566000000E+00 0. -1.
        -13    1    4    4    0    0  0.45073040019E+01  0.36484295818E+01  0.53984571796E+03  0.53987687225E+03  0.10566000000E+00 0.  1.
        -14    1    4    4    0    0  0.20563269015E+00  0.58399831249E+00  0.53091710399E+02  0.53095320433E+02  0.00000000000E+00 0.  1.
<mgrwt>
<rscale>  0 0.78457889E+02</rscale>
<asrwt>0</asrwt>
<pdfrwt beam="1">  1        2 0.18724527E+00 0.78457889E+02</pdfrwt>
<pdfrwt beam="2">  1       -1 0.19452511E-03 0.78457889E+02</pdfrwt>
<totfact> 0.36791366E+05</totfact>
</mgrwt>
</event>
<event>
 8    1  0.7667702E-014  0.8012774E+02  0.7818608E-02  0.1328689E+00
          2   -1    0    0  501    0  0.00000000000E+00  0.00000000000E+00  0.51869044195E+03  0.51869044195E+03  0.25500000000E-02 0. -1.
         -1   -1    0    0    0  501 -0.00000000000E+00 -0.00000000000E+00 -0.30945480853E+01  0.30945521895E+01  0.50400000000E-02 0.  1.
         24    2    1    2    0    0  0.17763568394E-14  0.00000000000E+00  0.51559589386E+03  0.52178499414E+03  0.80127737679E+02 0.  0.
         66    2    3    3    0    0 -0.94377755121E+01  0.37991152365E+02  0.31271605619E+03  0.31516302299E+03  0.19999993880E+01 0.  0.
        -13    1    3    3    0    0  0.94377755121E+01 -0.37991152365E+02  0.20287983767E+03  0.20662197115E+03  0.10566000000E+00 0.  1.
         13    1    4    4    0    0 -0.67229797462E+01  0.25278741554E+02  0.20405213302E+03  0.20572189330E+03  0.10566000000E+00 0. -1.
        -13    1    4    4    0    0 -0.26115446824E+01  0.11441494328E+02  0.96790990541E+02  0.97499922933E+02  0.10566000000E+00 0.  1.
         14    1    4    4    0    0 -0.10325108344E+00  0.12709164834E+01  0.11872932633E+02  0.11941206757E+02  0.00000000000E+00 0. -1.
<mgrwt>
<rscale>  0 0.80127738E+02</rscale>
<asrwt>0</asrwt>
<pdfrwt beam="1">  1        2 0.79798560E-01 0.80127738E+02</pdfrwt>
<pdfrwt beam="2">  1       -1 0.47608446E-03 0.80127738E+02</pdfrwt>
<totfact> 0.30677853E+05</totfact>
</mgrwt>
</event>
<event>
 8    1  0.7667702E-014  0.7998423E+02  0.7818608E-02  0.1329096E+00
          2   -1    0    0  501    0  0.00000000000E+00  0.00000000000E+00  0.50585241795E+03  0.50585241796E+03  0.25500000000E-02 0. -1.
         -1   -1    0    0    0  501 -0.00000000000E+00 -0.00000000000E+00 -0.31617288211E+01  0.31617328381E+01  0.50400000000E-02 0.  1.
         24    2    1    2    0    0  0.00000000000E+00  0.17763568394E-14  0.50269068913E+03  0.50901415080E+03  0.79984228272E+02 0.  0.
         66    2    3    3    0    0  0.27411697725E+02  0.11350076361E+02  0.42192463080E+03  0.42297118044E+03  0.20000002239E+01 0.  0.
        -13    1    3    3    0    0 -0.27411697725E+02 -0.11350076361E+02  0.80766058334E+02  0.86042970360E+02  0.10566000000E+00 0.  1.
         13    1    4    4    0    0  0.11324359576E+02  0.50683228058E+01  0.16882246330E+03  0.16927777260E+03  0.10566000000E+00 0. -1.
        -13    1    4    4    0    0  0.51314807591E+01  0.15109949199E+01  0.74313531367E+02  0.74505887745E+02  0.10566000000E+00 0.  1.
        -14    1    4    4    0    0  0.10955857391E+02  0.47707586349E+01  0.17878863613E+03  0.17918752010E+03  0.00000000000E+00 0.  1.
<mgrwt>
<rscale>  0 0.79984228E+02</rscale>
<asrwt>0</asrwt>
<pdfrwt beam="1">  1        2 0.77823442E-01 0.79984228E+02</pdfrwt>
<pdfrwt beam="2">  1       -1 0.48642017E-03 0.79984228E+02</pdfrwt>
<totfact> 0.30579791E+05</totfact>
</mgrwt>
</event>
<event>
 8    1  0.7667702E-014  0.7917687E+02  0.7818608E-02  0.1331404E+00
          2   -1    0    0  501    0  0.00000000000E+00  0.00000000000E+00  0.27420600293E+03  0.27420600294E+03  0.25500000000E-02 0. -1.
         -1   -1    0    0    0  501 -0.00000000000E+00 -0.00000000000E+00 -0.57155708183E+01  0.57155730405E+01  0.50400000000E-02 0.  1.
         24    2    1    2    0    0  0.00000000000E+00  0.71054273576E-14  0.26849043211E+03  0.27992157598E+03  0.79176868876E+02 0.  0.
         66    2    3    3    0    0 -0.44722229988E+00  0.37959911046E+02  0.17371252206E+03  0.17782349445E+03  0.20000010487E+01 0.  0.
        -13    1    3    3    0    0  0.44722229988E+00 -0.37959911046E+02  0.94777910050E+02  0.10209808153E+03  0.10566000000E+00 0.  1.
         13    1    4    4    0    0  0.33021645652E+00  0.71352785529E+01  0.34048755701E+02  0.34790087263E+02  0.10566000000E+00 0. -1.
        -13    1    4    4    0    0 -0.57240835734E+00  0.18758834140E+02  0.81972015397E+02  0.84093067383E+02  0.10566000000E+00 0.  1.
        -14    1    4    4    0    0 -0.20503039905E+00  0.12065798353E+02  0.57691750964E+02  0.58940339807E+02  0.00000000000E+00 0.  1.
<mgrwt>
<rscale>  0 0.79176869E+02</rscale>
<asrwt>0</asrwt>
<pdfrwt beam="1">  1        2 0.42185531E-01 0.79176869E+02</pdfrwt>
<pdfrwt beam="2">  1       -1 0.87931892E-03 0.79176869E+02</pdfrwt>
<totfact> 0.25356391E+05</totfact>
</mgrwt>
</event>
<event>
 8    1  0.7667702E-014  0.7090171E+02  0.7818608E-02  0.1357053E+00
          2   -1    0    0  501    0  0.00000000000E+00  0.00000000000E+00  0.17193604067E+03  0.17193604069E+03  0.25500000000E-02 0. -1.
         -1   -1    0    0    0  501 -0.00000000000E+00 -0.00000000000E+00 -0.73094803986E+01  0.73094821362E+01  0.50400000000E-02 0.  1.
         24    2    1    2    0    0  0.00000000000E+00  0.17763568394E-14  0.16462656027E+03  0.17924552283E+03  0.70901714409E+02 0.  0.
         66    2    3    3    0    0 -0.27966808648E+02  0.93247127406E+01  0.32731118383E+02  0.44095563858E+02  0.19999969409E+01 0.  0.
        -13    1    3    3    0    0  0.27966808648E+02 -0.93247127406E+01  0.13189544189E+03  0.13514995897E+03  0.10566000000E+00 0.  1.
         13    1    4    4    0    0 -0.10593012435E+02  0.31430356186E+01  0.12392781516E+02  0.16603697874E+02  0.10566000000E+00 0. -1.
        -13    1    4    4    0    0 -0.76550051146E+01  0.29583254305E+01  0.80451193014E+01  0.11492863058E+02  0.10566000000E+00 0.  1.
        -14    1    4    4    0    0 -0.97187910980E+01  0.32233516916E+01  0.12293217565E+02  0.15999002926E+02  0.00000000000E+00 0.  1.
<mgrwt>
<rscale>  0 0.70901714E+02</rscale>
<asrwt>0</asrwt>
<pdfrwt beam="1">  1        2 0.26451697E-01 0.70901714E+02</pdfrwt>
<pdfrwt beam="2">  1       -1 0.11245357E-02 0.70901714E+02</pdfrwt>
<totfact> 0.28766373E+05</totfact>
</mgrwt>
</event>
<event>
 8    1  0.7667702E-014  0.8412715E+02  0.7818608E-02  0.1317731E+00
         -1   -1    0    0    0  501 -0.00000000000E+00  0.00000000000E+00  0.14335290109E+02  0.14335290995E+02  0.50400000000E-02 0.  1.
          2   -1    0    0  501    0  0.00000000000E+00 -0.00000000000E+00 -0.12342576709E+03  0.12342576712E+03  0.25500000000E-02 0. -1.
         24    2    1    2    0    0  0.00000000000E+00  0.00000000000E+00 -0.10909047698E+03  0.13776105811E+03  0.84127147604E+02 0.  0.
         66    2    3    3    0    0 -0.96551098381E+01  0.39395607978E+02 -0.72670852254E+02  0.83248350388E+02  0.20000002709E+01 0.  0.
        -13    1    3    3    0    0  0.96551098381E+01 -0.39395607978E+02 -0.36419624728E+02  0.54512707723E+02  0.10566000000E+00 0.  1.
         13    1    4    4    0    0 -0.44427243109E+01  0.18168848386E+02 -0.33373355590E+02  0.38257507477E+02  0.10566000000E+00 0. -1.
        -13    1    4    4    0    0 -0.39149092837E+01  0.15865108047E+02 -0.28036275827E+02  0.32451072313E+02  0.10566000000E+00 0.  1.
         14    1    4    4    0    0 -0.12974762434E+01  0.53616515456E+01 -0.11261220837E+02  0.12539770598E+02  0.00000000000E+00 0. -1.
<mgrwt>
<rscale>  0 0.84127148E+02</rscale>
<asrwt>0</asrwt>
<pdfrwt beam="1">  1        2 0.18988579E-01 0.84127148E+02</pdfrwt>
<pdfrwt beam="2">  1       -1 0.22054294E-02 0.84127148E+02</pdfrwt>
<totfact> 0.16474761E+05</totfact>
</mgrwt>
</event>
<event>
 8    1  0.7667702E-014  0.8122993E+02  0.7818608E-02  0.1325597E+00
         -1   -1    0    0    0  501 -0.00000000000E+00  0.00000000000E+00  0.45861153468E+02  0.45861153745E+02  0.50400000000E-02 0.  1.
          2   -1    0    0  501    0  0.00000000000E+00 -0.00000000000E+00 -0.35968898849E+02  0.35968898939E+02  0.25500000000E-02 0. -1.
         24    2    1    2    0    0  0.00000000000E+00  0.35527136788E-14  0.98922546190E+01  0.81830052684E+02  0.81229925648E+02 0.  0.
         66    2    3    3    0    0  0.24582081749E+02 -0.30906179071E+02 -0.45063645408E+01  0.39796708234E+02  0.20000042493E+01 0.  0.
        -13    1    3    3    0    0 -0.24582081749E+02  0.30906179071E+02  0.14398619160E+02  0.42033344450E+02  0.10566000000E+00 0.  1.
         13    1    4    4    0    0  0.60222786181E+01 -0.67898488040E+01 -0.75004032762E+00  0.91073383084E+01  0.10566000000E+00 0. -1.
        -13    1    4    4    0    0  0.13001620878E+02 -0.16920386118E+02 -0.20407284011E+01  0.21436355760E+02  0.10566000000E+00 0. -1.
        -14    1    4    4    0    0  0.55581822528E+01 -0.71959441497E+01 -0.17155958120E+01  0.92530141657E+01  0.00000000000E+00 0.  1.
<mgrwt>
<rscale>  0 0.81229926E+02</rscale>
<asrwt>0</asrwt>
<pdfrwt beam="1">  1        2 0.55336767E-02 0.81229926E+02</pdfrwt>
<pdfrwt beam="2">  1       -1 0.70555621E-02 0.81229926E+02</pdfrwt>
<totfact> 0.13370808E+05</totfact>
</mgrwt>
</event>
<event>
 8    1  0.7667702E-014  0.7944892E+02  0.7818608E-02  0.1330623E+00
          2   -1    0    0  501    0  0.00000000000E+00  0.00000000000E+00  0.47151474259E+03  0.47151474260E+03  0.25500000000E-02 0. -1.
         -1   -1    0    0    0  501 -0.00000000000E+00 -0.00000000000E+00 -0.33467280863E+01  0.33467318813E+01  0.50400000000E-02 0.  1.
         24    2    1    2    0    0  0.00000000000E+00  0.00000000000E+00  0.46816801450E+03  0.47486147448E+03  0.79448915281E+02 0.  0.
         66    2    3    3    0    0 -0.22175810445E+02  0.28140488441E+02  0.33643131774E+03  0.33833960041E+03  0.19999990822E+01 0.  0.
        -13    1    3    3    0    0  0.22175810445E+02 -0.28140488441E+02  0.13173669677E+03  0.13652187406E+03  0.10566000000E+00 0.  1.
         13    1    4    4    0    0 -0.26001750547E+01  0.27694148193E+01  0.38905882940E+02  0.39091040663E+02  0.10566000000E+00 0. -1.
        -13    1    4    4    0    0 -0.18871841029E+02  0.24053563008E+02  0.28392957304E+03  0.28557089118E+03  0.10566000000E+00 0.  1.
        -14    1    4    4    0    0 -0.70379436170E+00  0.13175106138E+01  0.13595861752E+02  0.13677668570E+02  0.00000000000E+00 0.  1.
<mgrwt>
<rscale>  0 0.79448915E+02</rscale>
<asrwt>0</asrwt>
<pdfrwt beam="1">  1        2 0.72540692E-01 0.79448915E+02</pdfrwt>
<pdfrwt beam="2">  1       -1 0.51488181E-03 0.79448915E+02</pdfrwt>
<totfact> 0.30421754E+05</totfact>
</mgrwt>
</event>
<event>
 8    1  0.7667702E-014  0.8024877E+02  0.7818608E-02  0.1328347E+00
         -1   -1    0    0    0  501 -0.00000000000E+00  0.00000000000E+00  0.22313231772E+02  0.22313232341E+02  0.50400000000E-02 0.  1.
          2   -1    0    0  501    0  0.00000000000E+00 -0.00000000000E+00 -0.72152975836E+02  0.72152975881E+02  0.25500000000E-02 0. -1.
         24    2    1    2    0    0  0.00000000000E+00  0.00000000000E+00 -0.49839744064E+02  0.94466208222E+02  0.80248765769E+02 0.  0.
         66    2    3    3    0    0 -0.22575319130E+02 -0.32273131556E+02 -0.33804078960E+02  0.51941465146E+02  0.19999982282E+01 0.  0.
        -13    1    3    3    0    0  0.22575319130E+02  0.32273131556E+02 -0.16035665104E+02  0.42524743075E+02  0.10566000000E+00 0.  1.
         13    1    4    4    0    0 -0.11711826617E+02 -0.17665467337E+02 -0.17315456854E+02  0.27369176623E+02  0.10566000000E+00 0. -1.
        -13    1    4    4    0    0 -0.20659662455E+01 -0.25913604649E+01 -0.26881609595E+01  0.42685757539E+01  0.10566000000E+00 0.  1.
        -14    1    4    4    0    0 -0.87975262673E+01 -0.12016303755E+02 -0.13800461147E+02  0.20303712769E+02  0.00000000000E+00 0.  1.
<mgrwt>
<rscale>  0 0.80248766E+02</rscale>
<asrwt>0</asrwt>
<pdfrwt beam="1">  1        2 0.11100458E-01 0.80248766E+02</pdfrwt>
<pdfrwt beam="2">  1       -1 0.34328050E-02 0.80248766E+02</pdfrwt>
<totfact> 0.16131046E+05</totfact>
</mgrwt>
</event>
<event>
 8    1  0.7667702E-014  0.7936918E+02  0.7818608E-02  0.1330851E+00
         -1   -1    0    0    0  501 -0.00000000000E+00  0.00000000000E+00  0.54730594072E+02  0.54730594304E+02  0.50400000000E-02 0.  1.
          2   -1    0    0  501    0  0.00000000000E+00 -0.00000000000E+00 -0.28774888123E+02  0.28774888236E+02  0.25500000000E-02 0. -1.
         24    2    1    2    0    0  0.27755575616E-16  0.00000000000E+00  0.25955705948E+02  0.83505482540E+02  0.79369181317E+02 0.  0.
         66    2    3    3    0    0  0.16525212812E+00 -0.27233681415E+02 -0.17346253512E+02  0.32351093004E+02  0.19999989935E+01 0.  0.
        -13    1    3    3    0    0 -0.16525212812E+00  0.27233681415E+02  0.43301959460E+02  0.51154389536E+02  0.10566000000E+00 0.  1.
         13    1    4    4    0    0 -0.10868237364E+00 -0.10282825706E+02 -0.60538940177E+01  0.11933528949E+02  0.10566000000E+00 0. -1.
        -13    1    4    4    0    0 -0.36333946280E+00 -0.74368185292E+01 -0.43649298662E+01  0.86314577085E+01  0.10566000000E+00 0.  1.
        -14    1    4    4    0    0  0.63727396456E+00 -0.95140371797E+01 -0.69274296280E+01  0.11786106347E+02  0.00000000000E+00 0.  1.
<mgrwt>
<rscale>  0 0.79369181E+02</rscale>
<asrwt>0</asrwt>
<pdfrwt beam="1">  1        2 0.44269059E-02 0.79369181E+02</pdfrwt>
<pdfrwt beam="2">  1       -1 0.84200914E-02 0.79369181E+02</pdfrwt>
<totfact> 0.13644945E+05</totfact>
</mgrwt>
</event>
<event>
 8    1  0.7667702E-014  0.8046435E+02  0.7818608E-02  0.1327739E+00
         -1   -1    0    0    0  501 -0.00000000000E+00  0.00000000000E+00  0.20131932924E+01  0.20131996012E+01  0.50400000000E-02 0.  1.
          2   -1    0    0  501    0  0.00000000000E+00 -0.00000000000E+00 -0.80400896485E+03  0.80400896486E+03  0.25500000000E-02 0. -1.
         24    2    1    2    0    0  0.17763568394E-14  0.00000000000E+00 -0.80199577156E+03  0.80602216446E+03  0.80464352337E+02 0.  0.
         66    2    3    3    0    0 -0.12662521779E+02 -0.90256685930E+01 -0.77266599292E+03  0.77282503762E+03  0.20000002611E+01 0.  0.
        -13    1    3    3    0    0  0.12662521779E+02  0.90256685930E+01 -0.29329778635E+02  0.33197126836E+02  0.10566000000E+00 0.  1.
         13    1    4    4    0    0 -0.48087311618E+01 -0.32805717812E+01 -0.30284994228E+03  0.30290590082E+03  0.10566000000E+00 0. -1.
        -13    1    4    4    0    0 -0.48058870424E+01 -0.43028204597E+01 -0.32212885071E+03  0.32219344878E+03  0.10566000000E+00 0.  1.
         14    1    4    4    0    0 -0.30479035744E+01 -0.14422763521E+01 -0.14768719994E+03  0.14772568802E+03  0.00000000000E+00 0. -1.
<mgrwt>
<rscale>  0 0.80464352E+02</rscale>
<asrwt>0</asrwt>
<pdfrwt beam="1">  1        2 0.12369343E+00 0.80464352E+02</pdfrwt>
<pdfrwt beam="2">  1       -1 0.30972317E-03 0.80464352E+02</pdfrwt>
<totfact> 0.33881695E+05</totfact>
</mgrwt>
</event>
<event>
 8    1  0.7667702E-014  0.8135796E+02  0.7818608E-02  0.1325241E+00
          2   -1    0    0  501    0  0.00000000000E+00  0.00000000000E+00  0.42604698347E+02  0.42604698423E+02  0.25500000000E-02 0. -1.
         -1   -1    0    0    0  501 -0.00000000000E+00 -0.00000000000E+00 -0.38840302089E+02  0.38840302416E+02  0.50400000000E-02 0.  1.
         24    2    1    2    0    0  0.00000000000E+00  0.00000000000E+00  0.37643962579E+01  0.81445000839E+02  0.81357958938E+02 0.  0.
         66    2    3    3    0    0 -0.23582089744E+02  0.95126263371E+01  0.33637441678E+02  0.42214718871E+02  0.19999975488E+01 0.  0.
        -13    1    3    3    0    0  0.23582089744E+02 -0.95126263371E+01 -0.29873045421E+02  0.39230281968E+02  0.10566000000E+00 0.  1.
         13    1    4    4    0    0 -0.12236392483E+02  0.59246684201E+01  0.18342634511E+02  0.22831872497E+02  0.10566000000E+00 0. -1.
        -13    1    4    4    0    0 -0.39656474575E+01  0.13080850580E+01  0.50989055816E+01  0.65914678518E+01  0.10566000000E+00 0.  1.
         14    1    4    4    0    0 -0.73800498032E+01  0.22798728590E+01  0.10195901586E+02  0.12791378522E+02  0.00000000000E+00 0. -1.
<mgrwt>
<rscale>  0 0.81357959E+02</rscale>
<asrwt>0</asrwt>
<pdfrwt beam="1">  1        2 0.65545690E-02 0.81357959E+02</pdfrwt>
<pdfrwt beam="2">  1       -1 0.59754311E-02 0.81357959E+02</pdfrwt>
<totfact> 0.13786841E+05</totfact>
</mgrwt>
</event>
<event>
 8    1  0.7667702E-014  0.8014285E+02  0.7818608E-02  0.1328647E+00
         -1   -1    0    0    0  501 -0.00000000000E+00  0.00000000000E+00  0.18782632747E+03  0.18782632754E+03  0.50400000000E-02 0.  1.
          2   -1    0    0  501    0  0.00000000000E+00 -0.00000000000E+00 -0.85489558594E+01  0.85489562397E+01  0.25500000000E-02 0. -1.
         24    2    1    2    0    0  0.00000000000E+00  0.88817841970E-15  0.17927737161E+03  0.19637528378E+03  0.80142848134E+02 0.  0.
         66    2    3    3    0    0  0.38440948824E+02  0.50429547375E+01  0.65120714177E+02  0.75814545809E+02  0.20000005814E+01 0.  0.
        -13    1    3    3    0    0 -0.38440948824E+02 -0.50429547375E+01  0.11415665743E+03  0.12056073797E+03  0.10566000000E+00 0.  1.
         13    1    4    4    0    0  0.62130377214E+01  0.63295930102E+00  0.10042018751E+02  0.11826063582E+02  0.10566000000E+00 0. -1.
        -13    1    4    4    0    0  0.21516645731E+02  0.25828385716E+01  0.38035407172E+02  0.43776026103E+02  0.10566000000E+00 0.  1.
        -14    1    4    4    0    0  0.10711265372E+02  0.18271568649E+01  0.17043288254E+02  0.20212456124E+02  0.00000000000E+00 0.  1.
<mgrwt>
<rscale>  0 0.80142848E+02</rscale>
<asrwt>0</asrwt>
<pdfrwt beam="1">  1        2 0.13152242E-02 0.80142848E+02</pdfrwt>
<pdfrwt beam="2">  1       -1 0.28896354E-01 0.80142848E+02</pdfrwt>
<totfact> 0.10101753E+05</totfact>
</mgrwt>
</event>
<event>
 8    1  0.7667702E-014  0.7851026E+02  0.7818608E-02  0.1333333E+00
          2   -1    0    0  501    0  0.00000000000E+00  0.00000000000E+00  0.31637470696E+03  0.31637470697E+03  0.25500000000E-02 0. -1.
         -1   -1    0    0    0  501 -0.00000000000E+00 -0.00000000000E+00 -0.48706948621E+01  0.48706974697E+01  0.50400000000E-02 0.  1.
         24    2    1    2    0    0  0.00000000000E+00  0.00000000000E+00  0.31150401210E+03  0.32124540444E+03  0.78510256151E+02 0.  0.
         66    2    3    3    0    0  0.31110265118E+02 -0.23468928375E+02  0.17429795404E+03  0.17861247442E+03  0.20000101494E+01 0.  0.
        -13    1    3    3    0    0 -0.31110265118E+02  0.23468928375E+02  0.13720605806E+03  0.14263293003E+03  0.10566000000E+00 0.  1.
         13    1    4    4    0    0  0.12254676263E+02 -0.87724246903E+01  0.65660062042E+02  0.67367554778E+02  0.10566000000E+00 0. -1.
        -13    1    4    4    0    0  0.42318208852E+01 -0.39610793031E+01  0.25464971579E+02  0.26116554114E+02  0.10566000000E+00 0.  1.
        -14    1    4    4    0    0  0.14623767969E+02 -0.10735424382E+02  0.83172920417E+02  0.85128365525E+02  0.00000000000E+00 0.  1.
<mgrwt>
<rscale>  0 0.78510256E+02</rscale>
<asrwt>0</asrwt>
<pdfrwt beam="1">  1        2 0.48673031E-01 0.78510256E+02</pdfrwt>
<pdfrwt beam="2">  1       -1 0.74933789E-03 0.78510256E+02</pdfrwt>
<totfact> 0.27299846E+05</totfact>
</mgrwt>
</event>
<event>
 8    1  0.7667702E-014  0.7588970E+02  0.7818608E-02  0.1341138E+00
         -1   -1    0    0    0  501 -0.00000000000E+00  0.00000000000E+00  0.31979156880E+02  0.31979157277E+02  0.50400000000E-02 0.  1.
          2   -1    0    0  501    0  0.00000000000E+00 -0.00000000000E+00 -0.45023444976E+02  0.45023445048E+02  0.25500000000E-02 0. -1.
         24    2    1    2    0    0  0.00000000000E+00  0.00000000000E+00 -0.13044288096E+02  0.77002602325E+02  0.75889704921E+02 0.  0.
         66    2    3    3    0    0 -0.56716818692E+01  0.23670994322E+02 -0.36027467072E+02  0.43525421630E+02  0.19999992646E+01 0.  0.
        -13    1    3    3    0    0  0.56716818692E+01 -0.23670994322E+02  0.22983178976E+02  0.33477180695E+02  0.10566000000E+00 0.  1.
         13    1    4    4    0    0 -0.72927435299E+00  0.18723177431E+01 -0.26466224935E+01  0.33246337350E+01  0.10566000000E+00 0. -1.
        -13    1    4    4    0    0 -0.22396801137E+01  0.76185736266E+01 -0.10960580800E+02  0.13535299281E+02  0.10566000000E+00 0.  1.
         14    1    4    4    0    0 -0.27027274026E+01  0.14180102952E+02 -0.22420263778E+02  0.26665488614E+02  0.00000000000E+00 0. -1.
<mgrwt>
<rscale>  0 0.75889705E+02</rscale>
<asrwt>0</asrwt>
<pdfrwt beam="1">  1        2 0.69266838E-02 0.75889705E+02</pdfrwt>
<pdfrwt beam="2">  1       -1 0.49198704E-02 0.75889705E+02</pdfrwt>
<totfact> 0.16882651E+05</totfact>
</mgrwt>
</event>
<event>
 8    1  0.7667702E-014  0.7840461E+02  0.7818608E-02  0.1333641E+00
         -1   -1    0    0    0  501 -0.00000000000E+00  0.00000000000E+00  0.46641662962E+02  0.46641663234E+02  0.50400000000E-02 0.  1.
          2   -1    0    0  501    0  0.00000000000E+00 -0.00000000000E+00 -0.32949524746E+02  0.32949524845E+02  0.25500000000E-02 0. -1.
         24    2    1    2    0    0  0.00000000000E+00 -0.35527136788E-14  0.13692138216E+02  0.79591188079E+02  0.78404608097E+02 0.  0.
         66    2    3    3    0    0  0.25727380401E+02  0.29339963530E+02  0.10379346508E+02  0.40428484965E+02  0.20000001066E+01 0.  0.
        -13    1    3    3    0    0 -0.25727380401E+02 -0.29339963530E+02  0.33127917085E+01  0.39162703114E+02  0.10566000000E+00 0.  1.
         13    1    4    4    0    0  0.14186315477E+02  0.16133149923E+02  0.50541590629E+01  0.22070019509E+02  0.10566000000E+00 0. -1.
        -13    1    4    4    0    0  0.70386579467E+01  0.77275351815E+01  0.36436705498E+01  0.11070004733E+02  0.10566000000E+00 0.  1.
        -14    1    4    4    0    0  0.45024069765E+01  0.54792784259E+01  0.16815168948E+01  0.72884607235E+01  0.00000000000E+00 0.  1.
<mgrwt>
<rscale>  0 0.78404608E+02</rscale>
<asrwt>0</asrwt>
<pdfrwt beam="1">  1        2 0.50691576E-02 0.78404608E+02</pdfrwt>
<pdfrwt beam="2">  1       -1 0.71756405E-02 0.78404608E+02</pdfrwt>
<totfact> 0.14498594E+05</totfact>
</mgrwt>
</event>
<event>
 8    1  0.7667702E-014  0.7858119E+02  0.7818608E-02  0.1333127E+00
         -1   -1    0    0    0  501 -0.00000000000E+00  0.00000000000E+00  0.87821444195E+02  0.87821444340E+02  0.50400000000E-02 0.  1.
          2   -1    0    0  501    0  0.00000000000E+00 -0.00000000000E+00 -0.17578290441E+02  0.17578290626E+02  0.25500000000E-02 0. -1.
         24    2    1    2    0    0 -0.71054273576E-14 -0.17763568394E-14  0.70243153755E+02  0.10539973497E+03  0.78581190379E+02 0.  0.
         66    2    3    3    0    0  0.34473925713E+02  0.14820976824E+02  0.50649479912E+02  0.63067287283E+02  0.20000004408E+01 0.  0.
        -13    1    3    3    0    0 -0.34473925713E+02 -0.14820976824E+02  0.19593673843E+02  0.42332447683E+02  0.10566000000E+00 0.  1.
         13    1    4    4    0    0  0.20480980271E+02  0.92561818785E+01  0.29659234314E+02  0.37213287949E+02  0.10566000000E+00 0. -1.
        -13    1    4    4    0    0  0.73808167331E+00  0.38084906877E+00  0.15363263500E+01  0.17496494675E+01  0.10566000000E+00 0.  1.
        -14    1    4    4    0    0  0.13254863769E+02  0.51839458765E+01  0.19453919247E+02  0.24104349866E+02  0.00000000000E+00 0.  1.
<mgrwt>
<rscale>  0 0.78581190E+02</rscale>
<asrwt>0</asrwt>
<pdfrwt beam="1">  1        2 0.27043524E-02 0.78581190E+02</pdfrwt>
<pdfrwt beam="2">  1       -1 0.13510991E-01 0.78581190E+02</pdfrwt>
<totfact> 0.12733670E+05</totfact>
</mgrwt>
</event>
<event>
 8    1  0.7667702E-014  0.7840134E+02  0.7818608E-02  0.1333650E+00
         -1   -1    0    0    0  501 -0.00000000000E+00  0.00000000000E+00  0.72890653336E+01  0.72890670760E+01  0.50400000000E-02 0.  1.
          2   -1    0    0  501    0  0.00000000000E+00 -0.00000000000E+00 -0.21082156814E+03  0.21082156815E+03  0.25500000000E-02 0. -1.
         24    2    1    2    0    0  0.35527136788E-14 -0.35527136788E-14 -0.20353250280E+03  0.21811063523E+03  0.78401336101E+02 0.  0.
         66    2    3    3    0    0 -0.27515107038E+02  0.27544049577E+02 -0.11393681511E+03  0.12042156624E+03  0.19999990094E+01 0.  0.
        -13    1    3    3    0    0  0.27515107038E+02 -0.27544049577E+02 -0.89595687697E+02  0.97689068992E+02  0.10566000000E+00 0.  1.
         13    1    4    4    0    0 -0.57516960235E+01  0.62996543905E+01 -0.23691895461E+02  0.25181039040E+02  0.10566000000E+00 0. -1.
        -13    1    4    4    0    0 -0.20946259644E+01  0.15869029944E+01 -0.81421457074E+01  0.85563672081E+01  0.10566000000E+00 0.  1.
        -14    1    4    4    0    0 -0.19668785050E+02  0.19657492192E+02 -0.82102773939E+02  0.86684159990E+02  0.00000000000E+00 0.  1.
<mgrwt>
<rscale>  0 0.78401336E+02</rscale>
<asrwt>0</asrwt>
<pdfrwt beam="1">  1        2 0.32434083E-01 0.78401336E+02</pdfrwt>
<pdfrwt beam="2">  1       -1 0.11213950E-02 0.78401336E+02</pdfrwt>
<totfact> 0.23694611E+05</totfact>
</mgrwt>
</event>
<event>
 8    1  0.7667702E-014  0.7999019E+02  0.7818608E-02  0.1329079E+00
         -1   -1    0    0    0  501 -0.00000000000E+00  0.00000000000E+00  0.16048347717E+02  0.16048348509E+02  0.50400000000E-02 0.  1.
          2   -1    0    0  501    0  0.00000000000E+00 -0.00000000000E+00 -0.99674279356E+02  0.99674279389E+02  0.25500000000E-02 0. -1.
         24    2    1    2    0    0  0.44408920985E-15  0.00000000000E+00 -0.83625931639E+02  0.11572262790E+03  0.79990187929E+02 0.  0.
         66    2    3    3    0    0  0.37231748241E+01 -0.29284592827E+02 -0.80823866404E+02  0.86069430069E+02  0.20000010384E+01 0.  0.
        -13    1    3    3    0    0 -0.37231748241E+01  0.29284592827E+02 -0.28020652345E+01  0.29653197828E+02  0.10566000000E+00 0.  1.
         13    1    4    4    0    0  0.10004331263E+01 -0.68798860976E+01 -0.19357608163E+02  0.20568467541E+02  0.10566000000E+00 0. -1.
        -13    1    4    4    0    0  0.15393744545E+01 -0.64209325611E+01 -0.18358055727E+02  0.19509675106E+02  0.10566000000E+00 0.  1.
        -14    1    4    4    0    0  0.11833672432E+01 -0.15983774168E+02 -0.43108202514E+02  0.45991287422E+02  0.00000000000E+00 0.  1.
<mgrwt>
<rscale>  0 0.79990188E+02</rscale>
<asrwt>0</asrwt>
<pdfrwt beam="1">  1        2 0.15334504E-01 0.79990188E+02</pdfrwt>
<pdfrwt beam="2">  1       -1 0.24689767E-02 0.79990188E+02</pdfrwt>
<totfact> 0.17715502E+05</totfact>
</mgrwt>
</event>
<event>
 8    1  0.7667702E-014  0.8084127E+02  0.7818608E-02  0.1326681E+00
          2   -1    0    0  501    0  0.00000000000E+00  0.00000000000E+00  0.73768286894E+02  0.73768286938E+02  0.25500000000E-02 0. -1.
         -1   -1    0    0    0  501 -0.00000000000E+00 -0.00000000000E+00 -0.22148101536E+02  0.22148102110E+02  0.50400000000E-02 0.  1.
         24    2    1    2    0    0  0.00000000000E+00  0.00000000000E+00  0.51620185358E+02  0.95916389048E+02  0.80841265154E+02 0.  0.
         66    2    3    3    0    0  0.28612544646E+02 -0.71220792065E+01 -0.69351502129E+01  0.30356186095E+02  0.20000006038E+01 0.  0.
        -13    1    3    3    0    0 -0.28612544646E+02  0.71220792065E+01  0.58555335570E+02  0.65560202953E+02  0.10566000000E+00 0.  1.
         13    1    4    4    0    0  0.18473947252E+02 -0.37538378592E+01 -0.41391138077E+01  0.19300814825E+02  0.10566000000E+00 0. -1.
        -13    1    4    4    0    0  0.31113763651E+01 -0.11891758073E+01 -0.69972407127E+00  0.34052283032E+01  0.10566000000E+00 0.  1.
         14    1    4    4    0    0  0.70272210291E+01 -0.21790655400E+01 -0.20963123339E+01  0.76501429673E+01  0.00000000000E+00 0. -1.
<mgrwt>
<rscale>  0 0.80841265E+02</rscale>
<asrwt>0</asrwt>
<pdfrwt beam="1">  1        2 0.11348967E-01 0.80841265E+02</pdfrwt>
<pdfrwt beam="2">  1       -1 0.34074003E-02 0.80841265E+02</pdfrwt>
<totfact> 0.15900427E+05</totfact>
</mgrwt>
</event>
<event>
 8    1  0.7667702E-014  0.8020954E+02  0.7818608E-02  0.1328458E+00
          2   -1    0    0  501    0  0.00000000000E+00  0.00000000000E+00  0.32130417384E+03  0.32130417385E+03  0.25500000000E-02 0. -1.
         -1   -1    0    0    0  501 -0.00000000000E+00 -0.00000000000E+00 -0.50058242552E+01  0.50058267924E+01  0.50400000000E-02 0.  1.
         24    2    1    2    0    0  0.17763568394E-14 -0.17763568394E-14  0.31629834959E+03  0.32631000065E+03  0.80209541635E+02 0.  0.
         66    2    3    3    0    0  0.97723495710E+01 -0.13349951884E+02  0.30676050339E+03  0.30721283579E+03  0.20000001130E+01 0.  0.
        -13    1    3    3    0    0 -0.97723495710E+01  0.13349951884E+02  0.95378461931E+01  0.19097164854E+02  0.10566000000E+00 0.  1.
         13    1    4    4    0    0  0.30764092561E+01 -0.48464289975E+01  0.99831130471E+02  0.99996089639E+02  0.10566000000E+00 0. -1.
        -13    1    4    4    0    0  0.91598590184E+00 -0.19835883589E+01  0.38273847744E+02  0.38336304440E+02  0.10566000000E+00 0.  1.
        -14    1    4    4    0    0  0.57799544130E+01 -0.65199345273E+01  0.16865552518E+03  0.16888044171E+03  0.00000000000E+00 0.  1.
<mgrwt>
<rscale>  0 0.80209542E+02</rscale>
<asrwt>0</asrwt>
<pdfrwt beam="1">  1        2 0.49431399E-01 0.80209542E+02</pdfrwt>
<pdfrwt beam="2">  1       -1 0.77012720E-03 0.80209542E+02</pdfrwt>
<totfact> 0.25956066E+05</totfact>
</mgrwt>
</event>
<event>
 8    1  0.7667702E-014  0.8030776E+02  0.7818608E-02  0.1328180E+00
          2   -1    0    0  501    0  0.00000000000E+00  0.00000000000E+00  0.90323154687E+03  0.90323154688E+03  0.25500000000E-02 0. -1.
         -1   -1    0    0    0  501 -0.00000000000E+00 -0.00000000000E+00 -0.17850694474E+01  0.17850765624E+01  0.50400000000E-02 0.  1.
         24    2    1    2    0    0  0.00000000000E+00  0.00000000000E+00  0.90144647743E+03  0.90501662344E+03  0.80307764493E+02 0.  0.
         66    2    3    3    0    0  0.71185719074E+01  0.29572168767E+02  0.74597980761E+03  0.74660234435E+03  0.19999989417E+01 0.  0.
        -13    1    3    3    0    0 -0.71185719074E+01 -0.29572168767E+02  0.15546666981E+03  0.15841427908E+03  0.10566000000E+00 0.  1.
         13    1    4    4    0    0  0.12390350516E+01  0.65447813433E+01  0.16628361282E+03  0.16641700762E+03  0.10566000000E+00 0. -1.
        -13    1    4    4    0    0  0.40454533136E+00  0.98967196986E+00  0.20240275645E+02  0.20268769814E+02  0.10566000000E+00 0.  1.
         14    1    4    4    0    0  0.54749915245E+01  0.22037715454E+02  0.55945591915E+03  0.55991656692E+03  0.00000000000E+00 0. -1.
<mgrwt>
<rscale>  0 0.80307764E+02</rscale>
<asrwt>0</asrwt>
<pdfrwt beam="1">  1        2 0.13895851E+00 0.80307764E+02</pdfrwt>
<pdfrwt beam="2">  1       -1 0.27462699E-03 0.80307764E+02</pdfrwt>
<totfact> 0.34613316E+05</totfact>
</mgrwt>
</event>
<event>
 8    1  0.7667702E-014  0.7920684E+02  0.7818608E-02  0.1331317E+00
          2   -1    0    0  501    0  0.00000000000E+00  0.00000000000E+00  0.15423170363E+03  0.15423170365E+03  0.25500000000E-02 0. -1.
         -1   -1    0    0    0  501 -0.00000000000E+00 -0.00000000000E+00 -0.10169315303E+02  0.10169316552E+02  0.50400000000E-02 0.  1.
         24    2    1    2    0    0  0.00000000000E+00  0.00000000000E+00  0.14406238833E+03  0.16440102020E+03  0.79206841331E+02 0.  0.
         66    2    3    3    0    0  0.19913211110E+02 -0.32110569527E+02  0.96530356460E+02  0.10368092576E+03  0.19999988950E+01 0.  0.
        -13    1    3    3    0    0 -0.19913211110E+02  0.32110569527E+02  0.47532031866E+02  0.60720094445E+02  0.10566000000E+00 0.  1.
         13    1    4    4    0    0  0.39692292049E+01 -0.58196277685E+01  0.16938656456E+02  0.18345356209E+02  0.10566000000E+00 0. -1.
        -13    1    4    4    0    0  0.50488002137E+01 -0.86228099982E+01  0.27610210896E+02  0.29362870187E+02  0.10566000000E+00 0.  1.
         14    1    4    4    0    0  0.10895181691E+02 -0.17668131761E+02  0.51981489108E+02  0.55972699363E+02  0.00000000000E+00 0. -1.
<mgrwt>
<rscale>  0 0.79206841E+02</rscale>
<asrwt>0</asrwt>
<pdfrwt beam="1">  1        2 0.23727953E-01 0.79206841E+02</pdfrwt>
<pdfrwt beam="2">  1       -1 0.15645103E-02 0.79206841E+02</pdfrwt>
<totfact> 0.20751990E+05</totfact>
</mgrwt>
</event>
<event>
 8    1  0.7667702E-014  0.8009126E+02  0.7818608E-02  0.1328793E+00
          2   -1    0    0  501    0  0.00000000000E+00  0.00000000000E+00  0.28214482944E+03  0.28214482945E+03  0.25500000000E-02 0. -1.
         -1   -1    0    0    0  501 -0.00000000000E+00 -0.00000000000E+00 -0.56837900368E+01  0.56837922713E+01  0.50400000000E-02 0.  1.
         24    2    1    2    0    0  0.00000000000E+00  0.17763568394E-14  0.27646103940E+03  0.28782862172E+03  0.80091255296E+02 0.  0.
         66    2    3    3    0    0 -0.13217267866E+02 -0.11731859230E+02  0.26735765908E+03  0.26794859687E+03  0.20000009752E+01 0.  0.
        -13    1    3    3    0    0  0.13217267866E+02  0.11731859230E+02  0.91033803208E+01  0.19880024853E+02  0.10566000000E+00 0.  1.
         13    1    4    4    0    0 -0.70768008011E+01 -0.72975994606E+01  0.15228375084E+03  0.15262269819E+03  0.10566000000E+00 0.  1.
        -13    1    4    4    0    0 -0.15781081059E+00 -0.15875400299E+00  0.25534818250E+01  0.25654513349E+01  0.10566000000E+00 0. -1.
         14    1    4    4    0    0 -0.59826562540E+01 -0.42755057668E+01  0.11252042641E+03  0.11276044734E+03  0.00000000000E+00 0. -1.
<mgrwt>
<rscale>  0 0.80091255E+02</rscale>
<asrwt>0</asrwt>
<pdfrwt beam="1">  1        2 0.43406908E-01 0.80091255E+02</pdfrwt>
<pdfrwt beam="2">  1       -1 0.87442918E-03 0.80091255E+02</pdfrwt>
<totfact> 0.24859539E+05</totfact>
</mgrwt>
</event>
<event>
 8    1  0.7667702E-014  0.7822127E+02  0.7818608E-02  0.1334176E+00
          2   -1    0    0  501    0  0.00000000000E+00  0.00000000000E+00  0.41147100952E+03  0.41147100952E+03  0.25500000000E-02 0. -1.
         -1   -1    0    0    0  501 -0.00000000000E+00 -0.00000000000E+00 -0.37174939624E+01  0.37174973788E+01  0.50400000000E-02 0.  1.
         24    2    1    2    0    0  0.00000000000E+00 -0.71054273576E-14  0.40775351555E+03  0.41518850690E+03  0.78221268321E+02 0.  0.
         66    2    3    3    0    0  0.43894106452E+01  0.38833899420E+02  0.20690766685E+03  0.21057569016E+03  0.20000037492E+01 0.  0.
        -13    1    3    3    0    0 -0.43894106452E+01 -0.38833899420E+02  0.20084584871E+03  0.20461281675E+03  0.10566000000E+00 0.  1.
         13    1    4    4    0    0  0.48309963236E+00  0.82983386005E+01  0.44747374727E+02  0.45513014817E+02  0.10566000000E+00 0. -1.
        -13    1    4    4    0    0  0.16763655231E+01  0.10112342469E+02  0.56965402849E+02  0.57880376272E+02  0.10566000000E+00 0.  1.
        -14    1    4    4    0    0  0.22299454897E+01  0.20423218350E+02  0.10519488927E+03  0.10718229907E+03  0.00000000000E+00 0.  1.
<mgrwt>
<rscale>  0 0.78221268E+02</rscale>
<asrwt>0</asrwt>
<pdfrwt beam="1">  1        2 0.63303233E-01 0.78221268E+02</pdfrwt>
<pdfrwt beam="2">  1       -1 0.57192241E-03 0.78221268E+02</pdfrwt>
<totfact> 0.30256666E+05</totfact>
</mgrwt>
</event>
<event>
 8    1  0.7667702E-014  0.7928752E+02  0.7818608E-02  0.1331086E+00
          2   -1    0    0  501    0  0.00000000000E+00  0.00000000000E+00  0.78389521855E+02  0.78389521896E+02  0.25500000000E-02 0. -1.
         -1   -1    0    0    0  501 -0.00000000000E+00 -0.00000000000E+00 -0.20048949255E+02  0.20048949889E+02  0.50400000000E-02 0.  1.
         24    2    1    2    0    0  0.00000000000E+00 -0.17763568394E-14  0.58340572599E+02  0.98438471785E+02  0.79287516774E+02 0.  0.
         66    2    3    3    0    0  0.17807087628E+02 -0.13871798329E+02  0.69612319396E+02  0.73207883236E+02  0.19999993741E+01 0.  0.
        -13    1    3    3    0    0 -0.17807087628E+02  0.13871798329E+02 -0.11271746796E+02  0.25230588549E+02  0.10566000000E+00 0.  1.
         13    1    4    4    0    0  0.10798882267E+02 -0.79992154293E+01  0.41841520102E+02  0.43946868765E+02  0.10566000000E+00 0. -1.
        -13    1    4    4    0    0  0.16060599458E+01 -0.87563574674E+00  0.46773152132E+01  0.50234060308E+01  0.10566000000E+00 0.  1.
        -14    1    4    4    0    0  0.54021454146E+01 -0.49969471531E+01  0.23093484080E+02  0.24237608440E+02  0.00000000000E+00 0.  1.
<mgrwt>
<rscale>  0 0.79287517E+02</rscale>
<asrwt>0</asrwt>
<pdfrwt beam="1">  1        2 0.12059926E-01 0.79287517E+02</pdfrwt>
<pdfrwt beam="2">  1       -1 0.30844538E-02 0.79287517E+02</pdfrwt>
<totfact> 0.17014445E+05</totfact>
</mgrwt>
</event>
<event>
 8    1  0.7667702E-014  0.8035373E+02  0.7818608E-02  0.1328051E+00
         -1   -1    0    0    0  501 -0.00000000000E+00  0.00000000000E+00  0.13613731347E+01  0.13613824640E+01  0.50400000000E-02 0.  1.
          2   -1    0    0  501    0  0.00000000000E+00 -0.00000000000E+00 -0.11856960669E+04  0.11856960669E+04  0.25500000000E-02 0. -1.
         24    2    1    2    0    0  0.00000000000E+00  0.00000000000E+00 -0.11843346937E+04  0.11870574493E+04  0.80353725743E+02 0.  0.
         66    2    3    3    0    0 -0.23191044484E+02 -0.79918056902E+01 -0.10621352179E+04  0.10624203097E+04  0.19999986291E+01 0.  0.
        -13    1    3    3    0    0  0.23191044484E+02  0.79918056902E+01 -0.12219947588E+03  0.12463713962E+03  0.10566000000E+00 0.  1.
         13    1    4    4    0    0 -0.11483516758E+02 -0.40332658548E+01 -0.51700053220E+03  0.51714379030E+03  0.10566000000E+00 0. -1.
        -13    1    4    4    0    0 -0.38439467341E+01 -0.19845719757E+01 -0.18603164618E+03  0.18608196849E+03  0.10566000000E+00 0. -1.
         14    1    4    4    0    0 -0.78635809922E+01 -0.19739678598E+01 -0.35910303949E+03  0.35919455094E+03  0.00000000000E+00 0. -1.
<mgrwt>
<rscale>  0 0.80353726E+02</rscale>
<asrwt>0</asrwt>
<pdfrwt beam="1">  1        2 0.18241395E+00 0.80353726E+02</pdfrwt>
<pdfrwt beam="2">  1       -1 0.20944369E-03 0.80353726E+02</pdfrwt>
<totfact> 0.34682382E+05</totfact>
</mgrwt>
</event>
<event>
 8    1  0.7667702E-014  0.7932495E+02  0.7818608E-02  0.1330978E+00
         -1   -1    0    0    0  501 -0.00000000000E+00  0.00000000000E+00  0.53016391175E+01  0.53016415131E+01  0.50400000000E-02 0.  1.
          2   -1    0    0  501    0  0.00000000000E+00 -0.00000000000E+00 -0.29672175950E+03  0.29672175952E+03  0.25500000000E-02 0. -1.
         24    2    1    2    0    0 -0.88817841970E-15  0.71054273576E-14 -0.29142012039E+03  0.30202340103E+03  0.79324953215E+02 0.  0.
         66    2    3    3    0    0  0.57691905438E+01 -0.39041194400E+02 -0.15984797974E+03  0.16465987683E+03  0.19999983950E+01 0.  0.
        -13    1    3    3    0    0 -0.57691905438E+01  0.39041194400E+02 -0.13157214065E+03  0.13736352420E+03  0.10566000000E+00 0.  1.
         13    1    4    4    0    0  0.40510425888E+01 -0.23363703771E+02 -0.94991303199E+02  0.97906243148E+02  0.10566000000E+00 0. -1.
        -13    1    4    4    0    0  0.16960552127E+00 -0.54272583071E+01 -0.21670214365E+02  0.22340395104E+02  0.10566000000E+00 0.  1.
         14    1    4    4    0    0  0.15485424338E+01 -0.10250232322E+02 -0.43186462172E+02  0.44413238581E+02  0.00000000000E+00 0. -1.
<mgrwt>
<rscale>  0 0.79324953E+02</rscale>
<asrwt>0</asrwt>
<pdfrwt beam="1">  1        2 0.45649489E-01 0.79324953E+02</pdfrwt>
<pdfrwt beam="2">  1       -1 0.81563721E-03 0.79324953E+02</pdfrwt>
<totfact> 0.25963566E+05</totfact>
</mgrwt>
</event>
<event>
 8    1  0.7667702E-014  0.7998038E+02  0.7818608E-02  0.1329107E+00
          2   -1    0    0  501    0  0.00000000000E+00  0.00000000000E+00  0.10332789136E+03  0.10332789139E+03  0.25500000000E-02 0. -1.
         -1   -1    0    0    0  501 -0.00000000000E+00 -0.00000000000E+00 -0.15477090859E+02  0.15477091679E+02  0.50400000000E-02 0.  1.
         24    2    1    2    0    0  0.00000000000E+00  0.00000000000E+00  0.87850800497E+02  0.11880498307E+03  0.79980377928E+02 0.  0.
         66    2    3    3    0    0 -0.18382209827E+02 -0.47962507036E+01  0.96181974790E+02  0.98060603391E+02  0.20000010067E+01 0.  0.
        -13    1    3    3    0    0  0.18382209827E+02  0.47962507036E+01 -0.83311742936E+01  0.20744379675E+02  0.10566000000E+00 0.  1.
         13    1    4    4    0    0 -0.25275595947E+01 -0.87003960112E+00  0.15595970950E+02  0.15823747986E+02  0.10566000000E+00 0. -1.
        -13    1    4    4    0    0 -0.13947966591E+01  0.17662809239E-01  0.61909662596E+01  0.63470463176E+01  0.10566000000E+00 0.  1.
         14    1    4    4    0    0 -0.14459853573E+02 -0.39438739117E+01  0.74395037580E+02  0.75889809087E+02  0.00000000000E+00 0. -1.
<mgrwt>
<rscale>  0 0.79980378E+02</rscale>
<asrwt>0</asrwt>
<pdfrwt beam="1">  1        2 0.15896599E-01 0.79980378E+02</pdfrwt>
<pdfrwt beam="2">  1       -1 0.23810910E-02 0.79980378E+02</pdfrwt>
<totfact> 0.17901775E+05</totfact>
</mgrwt>
</event>
<event>
 8    1  0.7667702E-014  0.7860733E+02  0.7818608E-02  0.1333051E+00
          2   -1    0    0  501    0  0.00000000000E+00  0.00000000000E+00  0.41376499076E+02  0.41376499155E+02  0.25500000000E-02 0. -1.
         -1   -1    0    0    0  501 -0.00000000000E+00 -0.00000000000E+00 -0.37334668769E+02  0.37334669109E+02  0.50400000000E-02 0.  1.
         24    2    1    2    0    0  0.17763568394E-14  0.10658141036E-13  0.40418303072E+01  0.78711168264E+02  0.78607325469E+02 0.  0.
         66    2    3    3    0    0  0.15734578619E+02  0.29862377336E+02  0.22134429655E+02  0.40413755040E+02  0.20000189561E+01 0.  0.
        -13    1    3    3    0    0 -0.15734578619E+02 -0.29862377336E+02 -0.18092599348E+02  0.38297413224E+02  0.10566000000E+00 0.  1.
         13    1    4    4    0    0  0.69115566073E+01  0.13367707039E+02  0.11031022868E+02  0.18659041663E+02  0.10566000000E+00 0. -1.
        -13    1    4    4    0    0  0.61115895859E+01  0.11633744366E+02  0.77959405866E+01  0.15280163249E+02  0.10566000000E+00 0.  1.
         14    1    4    4    0    0  0.27114324255E+01  0.48609259305E+01  0.33074662006E+01  0.64745501286E+01  0.00000000000E+00 0. -1.
<mgrwt>
<rscale>  0 0.78607325E+02</rscale>
<asrwt>0</asrwt>
<pdfrwt beam="1">  1        2 0.63656152E-02 0.78607325E+02</pdfrwt>
<pdfrwt beam="2">  1       -1 0.57437953E-02 0.78607325E+02</pdfrwt>
<totfact> 0.15067092E+05</totfact>
</mgrwt>
</event>
<event>
 8    1  0.7667702E-014  0.7938722E+02  0.7818608E-02  0.1330799E+00
          2   -1    0    0  501    0  0.00000000000E+00  0.00000000000E+00  0.18911044287E+02  0.18911044459E+02  0.25500000000E-02 0. -1.
         -1   -1    0    0    0  501 -0.00000000000E+00 -0.00000000000E+00 -0.83315470654E+02  0.83315470806E+02  0.50400000000E-02 0.  1.
         24    2    1    2    0    0 -0.88817841970E-15  0.00000000000E+00 -0.64404426367E+02  0.10222651527E+03  0.79387217407E+02 0.  0.
         66    2    3    3    0    0 -0.52350049969E+01  0.38864738073E+02 -0.24528203588E+02  0.46298012247E+02  0.20000059872E+01 0.  0.
        -13    1    3    3    0    0  0.52350049969E+01 -0.38864738073E+02 -0.39876222779E+02  0.55928503019E+02  0.10566000000E+00 0.  1.
         13    1    4    4    0    0 -0.25219874843E+01  0.15342882600E+02 -0.96259705270E+01  0.18287562439E+02  0.10566000000E+00 0. -1.
        -13    1    4    4    0    0 -0.11941499191E+01  0.56420415474E+01 -0.33783791800E+01  0.66845520995E+01  0.10566000000E+00 0.  1.
         14    1    4    4    0    0 -0.15188675936E+01  0.17879813925E+02 -0.11523853881E+02  0.21325897708E+02  0.00000000000E+00 0. -1.
<mgrwt>
<rscale>  0 0.79387217E+02</rscale>
<asrwt>0</asrwt>
<pdfrwt beam="1">  1        2 0.29093915E-02 0.79387217E+02</pdfrwt>
<pdfrwt beam="2">  1       -1 0.12817765E-01 0.79387217E+02</pdfrwt>
<totfact> 0.12550108E+05</totfact>
</mgrwt>
</event>
<event>
 8    1  0.7667702E-014  0.7691734E+02  0.7818608E-02  0.1338034E+00
          2   -1    0    0  501    0  0.00000000000E+00  0.00000000000E+00  0.11794372111E+04  0.11794372111E+04  0.25500000000E-02 0. -1.
         -1   -1    0    0    0  501 -0.00000000000E+00 -0.00000000000E+00 -0.12540415407E+01  0.12540516686E+01  0.50400000000E-02 0.  1.
         24    2    1    2    0    0  0.35527136788E-14 -0.17763568394E-14  0.11781831695E+04  0.11806912627E+04  0.76917338433E+02 0.  0.
         66    2    3    3    0    0 -0.23877903156E+02  0.94196745397E+01  0.10285615020E+04  0.10288836902E+04  0.20000000107E+01 0.  0.
        -13    1    3    3    0    0  0.23877903156E+02 -0.94196745397E+01  0.14962166747E+03  0.15180757249E+03  0.10566000000E+00 0.  1.
         13    1    4    4    0    0 -0.18085009324E+02  0.67945488180E+01  0.74860419863E+03  0.74885345083E+03  0.10566000000E+00 0. -1.
        -13    1    4    4    0    0 -0.27665945810E+00  0.40541953565E-01  0.12580134018E+02  0.12583684677E+02  0.10566000000E+00 0.  1.
         14    1    4    4    0    0 -0.55162343745E+01  0.25845837681E+01  0.26737716940E+03  0.26744655472E+03  0.00000000000E+00 0. -1.
<mgrwt>
<rscale>  0 0.76917338E+02</rscale>
<asrwt>0</asrwt>
<pdfrwt beam="1">  1        2 0.18145177E+00 0.76917338E+02</pdfrwt>
<pdfrwt beam="2">  1       -1 0.19293037E-03 0.76917338E+02</pdfrwt>
<totfact> 0.38861529E+05</totfact>
</mgrwt>
</event>
<event>
 8    1  0.7667702E-014  0.8016324E+02  0.7818608E-02  0.1328589E+00
          2   -1    0    0  501    0  0.00000000000E+00  0.00000000000E+00  0.45949101912E+03  0.45949101913E+03  0.25500000000E-02 0. -1.
         -1   -1    0    0    0  501 -0.00000000000E+00 -0.00000000000E+00 -0.34963367174E+01  0.34963403500E+01  0.50400000000E-02 0.  1.
         24    2    1    2    0    0  0.00000000000E+00 -0.35527136788E-14  0.45599468240E+03  0.46298735948E+03  0.80163237560E+02 0.  0.
         66    2    3    3    0    0 -0.20638360635E+01 -0.28483734746E+02  0.39036403852E+03  0.39141239776E+03  0.19999965120E+01 0.  0.
        -13    1    3    3    0    0  0.20638360635E+01  0.28483734746E+02  0.65630643883E+02  0.71574961718E+02  0.10566000000E+00 0.  1.
         13    1    4    4    0    0 -0.21907639119E+01 -0.20217086846E+02  0.27872850527E+03  0.27946935585E+03  0.10566000000E+00 0. -1.
        -13    1    4    4    0    0  0.23582066234E+00 -0.22860476686E+01  0.28665813504E+02  0.28757984165E+02  0.10566000000E+00 0. -1.
         14    1    4    4    0    0 -0.10889281386E+00 -0.59806002309E+01  0.82969719747E+02  0.83185057743E+02  0.00000000000E+00 0. -1.
<mgrwt>
<rscale>  0 0.80163238E+02</rscale>
<asrwt>0</asrwt>
<pdfrwt beam="1">  1        2 0.70690923E-01 0.80163238E+02</pdfrwt>
<pdfrwt beam="2">  1       -1 0.53789826E-03 0.80163238E+02</pdfrwt>
<totfact> 0.29467277E+05</totfact>
</mgrwt>
</event>
<event>
 8    1  0.7667702E-014  0.7766380E+02  0.7818608E-02  0.1335815E+00
         -1   -1    0    0    0  501 -0.00000000000E+00  0.00000000000E+00  0.16475774299E+02  0.16475775070E+02  0.50400000000E-02 0.  1.
          2   -1    0    0  501    0  0.00000000000E+00 -0.00000000000E+00 -0.91523245342E+02  0.91523245377E+02  0.25500000000E-02 0. -1.
         24    2    1    2    0    0  0.00000000000E+00  0.88817841970E-15 -0.75047471043E+02  0.10799902045E+03  0.77663797921E+02 0.  0.
         66    2    3    3    0    0 -0.34063951341E+02  0.68366595076E+01 -0.61586926437E+02  0.70739255025E+02  0.19999998526E+01 0.  0.
        -13    1    3    3    0    0  0.34063951341E+02 -0.68366595076E+01 -0.13460544606E+02  0.37259765422E+02  0.10566000000E+00 0.  1.
         13    1    4    4    0    0 -0.41178121982E+01  0.28401838046E+00 -0.70642901793E+01  0.81824448372E+01  0.10566000000E+00 0.  1.
        -13    1    4    4    0    0 -0.15754902492E+02  0.29661681750E+01 -0.28352970180E+02  0.32571723753E+02  0.10566000000E+00 0. -1.
        -14    1    4    4    0    0 -0.14191236651E+02  0.35864729522E+01 -0.26169666077E+02  0.29985086435E+02  0.00000000000E+00 0.  1.
<mgrwt>
<rscale>  0 0.77663798E+02</rscale>
<asrwt>0</asrwt>
<pdfrwt beam="1">  1        2 0.14080499E-01 0.77663798E+02</pdfrwt>
<pdfrwt beam="2">  1       -1 0.25347346E-02 0.77663798E+02</pdfrwt>
<totfact> 0.18729131E+05</totfact>
</mgrwt>
</event>
<event>
 8    1  0.7667702E-014  0.8111514E+02  0.7818608E-02  0.1325916E+00
         -1   -1    0    0    0  501 -0.00000000000E+00  0.00000000000E+00  0.92512138431E+01  0.92512152160E+01  0.50400000000E-02 0.  1.
          2   -1    0    0  501    0  0.00000000000E+00 -0.00000000000E+00 -0.17780547326E+03  0.17780547328E+03  0.25500000000E-02 0. -1.
         24    2    1    2    0    0  0.71054273576E-14 -0.17763568394E-14 -0.16855425942E+03  0.18705668850E+03  0.81115142501E+02 0.  0.
         66    2    3    3    0    0  0.38121774368E+02 -0.10100358770E+02 -0.62741607601E+02  0.74133637807E+02  0.20000004633E+01 0.  0.
        -13    1    3    3    0    0 -0.38121774368E+02  0.10100358770E+02 -0.10581265182E+03  0.11292305069E+03  0.10566000000E+00 0.  1.
         13    1    4    4    0    0  0.19498902409E+02 -0.51736231730E+01 -0.30758494482E+02  0.36784096003E+02  0.10566000000E+00 0. -1.
        -13    1    4    4    0    0  0.47241227315E+01 -0.87867197549E+00 -0.83975478996E+01  0.96757105571E+01  0.10566000000E+00 0.  1.
        -14    1    4    4    0    0  0.13898749228E+02 -0.40480636220E+01 -0.23585565219E+02  0.27673831247E+02  0.00000000000E+00 0.  1.
<mgrwt>
<rscale>  0 0.81115143E+02</rscale>
<asrwt>0</asrwt>
<pdfrwt beam="1">  1        2 0.27354686E-01 0.81115143E+02</pdfrwt>
<pdfrwt beam="2">  1       -1 0.14232639E-02 0.81115143E+02</pdfrwt>
<totfact> 0.20424014E+05</totfact>
</mgrwt>
</event>
<event>
 8    1  0.7667702E-014  0.7931352E+02  0.7818608E-02  0.1331011E+00
         -1   -1    0    0    0  501 -0.00000000000E+00  0.00000000000E+00  0.30204246449E+02  0.30204246870E+02  0.50400000000E-02 0.  1.
          2   -1    0    0  501    0  0.00000000000E+00 -0.00000000000E+00 -0.52067460337E+02  0.52067460400E+02  0.25500000000E-02 0. -1.
         24    2    1    2    0    0  0.00000000000E+00  0.71054273576E-14 -0.21863213888E+02  0.82271707270E+02  0.79313515214E+02 0.  0.
         66    2    3    3    0    0  0.10646020412E+02  0.37937826732E+02 -0.65331338751E+01  0.39991227553E+02  0.19999988027E+01 0.  0.
        -13    1    3    3    0    0 -0.10646020412E+02 -0.37937826732E+02 -0.15330080013E+02  0.42280479716E+02  0.10566000000E+00 0.  1.
         13    1    4    4    0    0  0.10457509232E+01  0.39044050148E+01 -0.10595031296E+01  0.41799144046E+01  0.10566000000E+00 0.  1.
        -13    1    4    4    0    0  0.54066225703E+01  0.16924019191E+02 -0.23748632348E+01  0.17924986266E+02  0.10566000000E+00 0. -1.
         14    1    4    4    0    0  0.41936469184E+01  0.17109402526E+02 -0.30987675108E+01  0.17886326883E+02  0.00000000000E+00 0. -1.
<mgrwt>
<rscale>  0 0.79313515E+02</rscale>
<asrwt>0</asrwt>
<pdfrwt beam="1">  1        2 0.80103785E-02 0.79313515E+02</pdfrwt>
<pdfrwt beam="2">  1       -1 0.46468072E-02 0.79313515E+02</pdfrwt>
<totfact> 0.15435556E+05</totfact>
</mgrwt>
</event>
<event>
 8    1  0.7667702E-014  0.7950607E+02  0.7818608E-02  0.1330459E+00
         -1   -1    0    0    0  501 -0.00000000000E+00  0.00000000000E+00  0.26870821260E+01  0.26870868526E+01  0.50400000000E-02 0.  1.
          2   -1    0    0  501    0  0.00000000000E+00 -0.00000000000E+00 -0.58811096604E+03  0.58811096605E+03  0.25500000000E-02 0. -1.
         24    2    1    2    0    0  0.35527136788E-14 -0.17763568394E-14 -0.58542388392E+03  0.59079805290E+03  0.79506071789E+02 0.  0.
         66    2    3    3    0    0 -0.19744234396E+02  0.12274512149E+02 -0.53228096466E+03  0.53279219569E+03  0.20000002326E+01 0.  0.
        -13    1    3    3    0    0  0.19744234396E+02 -0.12274512149E+02 -0.53142919253E+02  0.58005857214E+02  0.10566000000E+00 0.  1.
         13    1    4    4    0    0 -0.83861354393E+01  0.61838131807E+01 -0.22948772832E+03  0.22972417249E+03  0.10566000000E+00 0. -1.
        -13    1    4    4    0    0 -0.99606350705E+01  0.51261316210E+01 -0.26110266235E+03  0.26134288382E+03  0.10566000000E+00 0.  1.
        -14    1    4    4    0    0 -0.13974638863E+01  0.96456734737E+00 -0.41690574000E+02  0.41725139376E+02  0.00000000000E+00 0.  1.
<mgrwt>
<rscale>  0 0.79506072E+02</rscale>
<asrwt>0</asrwt>
<pdfrwt beam="1">  1        2 0.90478507E-01 0.79506072E+02</pdfrwt>
<pdfrwt beam="2">  1       -1 0.41339809E-03 0.79506072E+02</pdfrwt>
<totfact> 0.32502646E+05</totfact>
</mgrwt>
</event>
<event>
 8    1  0.7667702E-014  0.7999953E+02  0.7818608E-02  0.1329053E+00
         -1   -1    0    0    0  501 -0.00000000000E+00  0.00000000000E+00  0.76382345471E+02  0.76382345637E+02  0.50400000000E-02 0.  1.
          2   -1    0    0  501    0  0.00000000000E+00 -0.00000000000E+00 -0.20947002191E+02  0.20947002346E+02  0.25500000000E-02 0. -1.
         24    2    1    2    0    0 -0.35527136788E-14 -0.35527136788E-14  0.55435343280E+02  0.97329347983E+02  0.79999529337E+02 0.  0.
         66    2    3    3    0    0  0.25735746389E+02  0.28662555175E+02  0.14738947429E+02  0.41292944541E+02  0.19999965361E+01 0.  0.
        -13    1    3    3    0    0 -0.25735746389E+02 -0.28662555175E+02  0.40696395851E+02  0.56036403442E+02  0.10566000000E+00 0.  1.
         13    1    4    4    0    0  0.12370610856E+02  0.12789394229E+02  0.69053986452E+01  0.19086547938E+02  0.10566000000E+00 0. -1.
        -13    1    4    4    0    0  0.89104567902E+01  0.10567345339E+02  0.57572534812E+01  0.14974049533E+02  0.10566000000E+00 0.  1.
        -14    1    4    4    0    0  0.44546787428E+01  0.53058156076E+01  0.20762953027E+01  0.72323470704E+01  0.00000000000E+00 0.  1.
<mgrwt>
<rscale>  0 0.79999529E+02</rscale>
<asrwt>0</asrwt>
<pdfrwt beam="1">  1        2 0.32226158E-02 0.79999529E+02</pdfrwt>
<pdfrwt beam="2">  1       -1 0.11751130E-01 0.79999529E+02</pdfrwt>
<totfact> 0.12532231E+05</totfact>
</mgrwt>
</event>
<event>
 8    1  0.7667702E-014  0.7917432E+02  0.7818608E-02  0.1331411E+00
          2   -1    0    0  501    0  0.00000000000E+00  0.00000000000E+00  0.15628813027E+02  0.15628813235E+02  0.25500000000E-02 0. -1.
         -1   -1    0    0    0  501 -0.00000000000E+00 -0.00000000000E+00 -0.10027270492E+03  0.10027270504E+03  0.50400000000E-02 0.  1.
         24    2    1    2    0    0  0.00000000000E+00 -0.88817841970E-15 -0.84643891891E+02  0.11590151828E+03  0.79174323522E+02 0.  0.
         66    2    3    3    0    0  0.34511765388E+02  0.41338236544E+01 -0.14690189406E+02  0.37788253699E+02  0.20000011564E+01 0.  0.
        -13    1    3    3    0    0 -0.34511765388E+02 -0.41338236544E+01 -0.69953702484E+02  0.78113264581E+02  0.10566000000E+00 0.  1.
         13    1    4    4    0    0  0.22248671781E+02  0.30594186803E+01 -0.10021092407E+02  0.24592618725E+02  0.10566000000E+00 0. -1.
        -13    1    4    4    0    0  0.11932183440E+02  0.11662921290E+01 -0.44523150549E+01  0.12789507901E+02  0.10566000000E+00 0.  1.
         14    1    4    4    0    0  0.33091016733E+00 -0.91887154914E-01 -0.21678194431E+00  0.40612707304E+00  0.00000000000E+00 0. -1.
<mgrwt>
<rscale>  0 0.79174324E+02</rscale>
<asrwt>0</asrwt>
<pdfrwt beam="1">  1        2 0.24044329E-02 0.79174324E+02</pdfrwt>
<pdfrwt beam="2">  1       -1 0.15426570E-01 0.79174324E+02</pdfrwt>
<totfact> 0.12156452E+05</totfact>
</mgrwt>
</event>
<event>
 8    1  0.7667702E-014  0.8123408E+02  0.7818608E-02  0.1325585E+00
         -1   -1    0    0    0  501 -0.00000000000E+00  0.00000000000E+00  0.13676358231E+02  0.13676359159E+02  0.50400000000E-02 0.  1.
          2   -1    0    0  501    0  0.00000000000E+00 -0.00000000000E+00 -0.12062743902E+03  0.12062743905E+03  0.25500000000E-02 0. -1.
         24    2    1    2    0    0  0.00000000000E+00  0.00000000000E+00 -0.10695108079E+03  0.13430379821E+03  0.81234084784E+02 0.  0.
         66    2    3    3    0    0 -0.16923672565E+02  0.17853424610E+02 -0.10689117044E+03  0.10970359055E+03  0.19999997262E+01 0.  0.
        -13    1    3    3    0    0  0.16923672565E+02 -0.17853424610E+02 -0.59910351764E-01  0.24600207655E+02  0.10566000000E+00 0.  1.
         13    1    4    4    0    0 -0.98003123054E+00  0.15048935951E+01 -0.92207636649E+01  0.93946161468E+01  0.10566000000E+00 0. -1.
        -13    1    4    4    0    0 -0.21740594835E+01  0.26601762741E+01 -0.15250880068E+02  0.15633412274E+02  0.10566000000E+00 0.  1.
         14    1    4    4    0    0 -0.13769581851E+02  0.13688354741E+02 -0.82419526705E+02  0.84675562130E+02  0.00000000000E+00 0. -1.
<mgrwt>
<rscale>  0 0.81234085E+02</rscale>
<asrwt>0</asrwt>
<pdfrwt beam="1">  1        2 0.18558067E-01 0.81234085E+02</pdfrwt>
<pdfrwt beam="2">  1       -1 0.21040553E-02 0.81234085E+02</pdfrwt>
<totfact> 0.17966512E+05</totfact>
</mgrwt>
</event>
<event>
 8    1  0.7667702E-014  0.8225584E+02  0.7818608E-02  0.1322769E+00
          2   -1    0    0  501    0  0.00000000000E+00  0.00000000000E+00  0.44149435960E+03  0.44149435961E+03  0.25500000000E-02 0. -1.
         -1   -1    0    0    0  501 -0.00000000000E+00 -0.00000000000E+00 -0.38313170633E+01  0.38313203783E+01  0.50400000000E-02 0.  1.
         24    2    1    2    0    0  0.00000000000E+00  0.35527136788E-14  0.43766304254E+03  0.44532567999E+03  0.82255835369E+02 0.  0.
         66    2    3    3    0    0  0.82426979207E+01 -0.26840373159E+02  0.38148182420E+03  0.38251892750E+03  0.19999995771E+01 0.  0.
        -13    1    3    3    0    0 -0.82426979207E+01  0.26840373159E+02  0.56181218339E+02  0.62806752491E+02  0.10566000000E+00 0.  1.
         13    1    4    4    0    0  0.44360266320E+01 -0.13266077441E+02  0.18511256676E+03  0.18564035304E+03  0.10566000000E+00 0. -1.
        -13    1    4    4    0    0  0.19219346548E+01 -0.47907266587E+01  0.68963634935E+02  0.69156626597E+02  0.10566000000E+00 0.  1.
         14    1    4    4    0    0  0.18847366339E+01 -0.87835690599E+01  0.12740562251E+03  0.12772194786E+03  0.00000000000E+00 0. -1.
<mgrwt>
<rscale>  0 0.82255835E+02</rscale>
<asrwt>0</asrwt>
<pdfrwt beam="1">  1        2 0.67922158E-01 0.82255835E+02</pdfrwt>
<pdfrwt beam="2">  1       -1 0.58943410E-03 0.82255835E+02</pdfrwt>
<totfact> 0.27181395E+05</totfact>
</mgrwt>
</event>
<event>
 8    1  0.7667702E-014  0.7782619E+02  0.7818608E-02  0.1335336E+00
          2   -1    0    0  501    0  0.00000000000E+00  0.00000000000E+00  0.29151397693E+03  0.29151397695E+03  0.25500000000E-02 0. -1.
         -1   -1    0    0    0  501 -0.00000000000E+00 -0.00000000000E+00 -0.51943603223E+01  0.51943627674E+01  0.50400000000E-02 0.  1.
         24    2    1    2    0    0  0.00000000000E+00 -0.17763568394E-14  0.28631961661E+03  0.29670833971E+03  0.77826190953E+02 0.  0.
         66    2    3    3    0    0 -0.33848788113E+02 -0.88339537121E+01  0.20800343491E+03  0.21093413220E+03  0.19999988427E+01 0.  0.
        -13    1    3    3    0    0  0.33848788113E+02  0.88339537121E+01  0.78316181697E+02  0.85774207514E+02  0.10566000000E+00 0.  1.
         13    1    4    4    0    0 -0.18203168613E+02 -0.45540139553E+01  0.11028961032E+03  0.11187449977E+03  0.10566000000E+00 0. -1.
        -13    1    4    4    0    0 -0.24874151511E+01 -0.99147664629E+00  0.18499409054E+02  0.18692500086E+02  0.10566000000E+00 0.  1.
        -14    1    4    4    0    0 -0.13158204349E+02 -0.32884631105E+01  0.79214415546E+02  0.80367132346E+02  0.00000000000E+00 0.  1.
<mgrwt>
<rscale>  0 0.77826191E+02</rscale>
<asrwt>0</asrwt>
<pdfrwt beam="1">  1        2 0.44848319E-01 0.77826191E+02</pdfrwt>
<pdfrwt beam="2">  1       -1 0.79913229E-03 0.77826191E+02</pdfrwt>
<totfact> 0.27118763E+05</totfact>
</mgrwt>
</event>
<event>
 8    1  0.7667702E-014  0.8043789E+02  0.7818608E-02  0.1327813E+00
         -1   -1    0    0    0  501 -0.00000000000E+00  0.00000000000E+00  0.21593229722E+02  0.21593230310E+02  0.50400000000E-02 0.  1.
          2   -1    0    0  501    0  0.00000000000E+00 -0.00000000000E+00 -0.74910670492E+02  0.74910670535E+02  0.25500000000E-02 0. -1.
         24    2    1    2    0    0  0.00000000000E+00  0.00000000000E+00 -0.53317440770E+02  0.96503900845E+02  0.80437885278E+02 0.  0.
         66    2    3    3    0    0  0.25545928693E+02 -0.86772295784E+01 -0.62419710212E+02  0.68030206687E+02  0.20000032288E+01 0.  0.
        -13    1    3    3    0    0 -0.25545928693E+02  0.86772295784E+01  0.91022694427E+01  0.28473694158E+02  0.10566000000E+00 0.  1.
         13    1    4    4    0    0  0.56839734815E+01 -0.16123494221E+01 -0.14173849841E+02  0.15356314941E+02  0.10566000000E+00 0. -1.
        -13    1    4    4    0    0  0.12799614327E+02 -0.37709513296E+01 -0.30047281877E+02  0.32877051466E+02  0.10566000000E+00 0.  1.
        -14    1    4    4    0    0  0.70623408846E+01 -0.32939288267E+01 -0.18198578494E+02  0.19796840281E+02  0.00000000000E+00 0.  1.
<mgrwt>
<rscale>  0 0.80437885E+02</rscale>
<asrwt>0</asrwt>
<pdfrwt beam="1">  1        2 0.11524718E-01 0.80437885E+02</pdfrwt>
<pdfrwt beam="2">  1       -1 0.33220354E-02 0.80437885E+02</pdfrwt>
<totfact> 0.16179157E+05</totfact>
</mgrwt>
</event>
<event>
 8    1  0.7667702E-014  0.8108731E+02  0.7818608E-02  0.1325994E+00
          2   -1    0    0  501    0  0.00000000000E+00  0.00000000000E+00  0.12933965569E+03  0.12933965572E+03  0.25500000000E-02 0. -1.
         -1   -1    0    0    0  501 -0.00000000000E+00 -0.00000000000E+00 -0.12709077751E+02  0.12709078750E+02  0.50400000000E-02 0.  1.
         24    2    1    2    0    0 -0.17763568394E-14 -0.14210854715E-13  0.11663057794E+03  0.14204873447E+03  0.81087306361E+02 0.  0.
         66    2    3    3    0    0  0.10511397494E+02  0.37637703833E+02  0.77111830525E+02  0.86471501822E+02  0.19999983258E+01 0.  0.
        -13    1    3    3    0    0 -0.10511397494E+02 -0.37637703833E+02  0.39518747415E+02  0.55577232644E+02  0.10566000000E+00 0.  1.
         13    1    4    4    0    0  0.34763670769E+01  0.15132910753E+02  0.30053964457E+02  0.33828125273E+02  0.10566000000E+00 0. -1.
        -13    1    4    4    0    0  0.64485905249E+00  0.30136808288E+01  0.64249545345E+01  0.71266626230E+01  0.10566000000E+00 0.  1.
         14    1    4    4    0    0  0.63901713648E+01  0.19491112251E+02  0.40632911534E+02  0.45516713926E+02  0.00000000000E+00 0. -1.
<mgrwt>
<rscale>  0 0.81087306E+02</rscale>
<asrwt>0</asrwt>
<pdfrwt beam="1">  1        2 0.19898409E-01 0.81087306E+02</pdfrwt>
<pdfrwt beam="2">  1       -1 0.19552427E-02 0.81087306E+02</pdfrwt>
<totfact> 0.18441282E+05</totfact>
</mgrwt>
</event>
<event>
 8    1  0.7667702E-014  0.7901769E+02  0.7818608E-02  0.1331862E+00
          2   -1    0    0  501    0  0.00000000000E+00  0.00000000000E+00  0.46602218864E+01  0.46602225840E+01  0.25500000000E-02 0. -1.
         -1   -1    0    0    0  501 -0.00000000000E+00 -0.00000000000E+00 -0.33495159607E+03  0.33495159610E+03  0.50400000000E-02 0.  1.
         24    2    1    2    0    0 -0.35527136788E-14 -0.35527136788E-14 -0.33029137418E+03  0.33961181869E+03  0.79017691279E+02 0.  0.
         66    2    3    3    0    0 -0.30278393455E+02 -0.24390672196E+02 -0.19479700100E+03  0.19864933316E+03  0.19999909389E+01 0.  0.
        -13    1    3    3    0    0  0.30278393455E+02  0.24390672196E+02 -0.13549437318E+03  0.14096248553E+03  0.10566000000E+00 0.  1.
         13    1    4    4    0    0 -0.24897545327E+02 -0.20872681262E+02 -0.16102087083E+03  0.16426590819E+03  0.10566000000E+00 0. -1.
        -13    1    4    4    0    0 -0.40417269075E+01 -0.27094055313E+01 -0.25148019800E+02  0.25614653982E+02  0.10566000000E+00 0. -1.
         14    1    4    4    0    0 -0.13391212204E+01 -0.80858540306E+00 -0.86281103730E+01  0.87687709860E+01  0.00000000000E+00 0. -1.
<mgrwt>
<rscale>  0 0.79017691E+02</rscale>
<asrwt>0</asrwt>
<pdfrwt beam="1">  1        2 0.71695753E-03 0.79017691E+02</pdfrwt>
<pdfrwt beam="2">  1       -1 0.51530996E-01 0.79017691E+02</pdfrwt>
<totfact> 0.85149910E+04</totfact>
</mgrwt>
</event>
<event>
 8    1  0.7667702E-014  0.8063260E+02  0.7818608E-02  0.1327266E+00
         -1   -1    0    0    0  501 -0.00000000000E+00  0.00000000000E+00  0.18268228217E+01  0.18268297741E+01  0.50400000000E-02 0.  1.
          2   -1    0    0  501    0  0.00000000000E+00 -0.00000000000E+00 -0.88974193944E+03  0.88974193945E+03  0.25500000000E-02 0. -1.
         24    2    1    2    0    0  0.71054273576E-14 -0.11102230246E-15 -0.88791511662E+03  0.89156876922E+03  0.80632598403E+02 0.  0.
         66    2    3    3    0    0 -0.22271811711E+02  0.57478999448E+00 -0.81543414914E+03  0.81574089973E+03  0.19999820579E+01 0.  0.
        -13    1    3    3    0    0  0.22271811711E+02 -0.57478999448E+00 -0.72480967476E+02  0.75827869485E+02  0.10566000000E+00 0.  1.
         13    1    4    4    0    0 -0.10769447981E+01  0.21217346252E+00 -0.36039706165E+02  0.36056572385E+02  0.10566000000E+00 0. -1.
        -13    1    4    4    0    0 -0.20519762701E+01  0.46342062427E+00 -0.84589181243E+02  0.84615401155E+02  0.10566000000E+00 0.  1.
         14    1    4    4    0    0 -0.19142890642E+02 -0.10080409231E+00 -0.69480526174E+03  0.69506892619E+03  0.00000000000E+00 0. -1.
<mgrwt>
<rscale>  0 0.80632598E+02</rscale>
<asrwt>0</asrwt>
<pdfrwt beam="1">  1        2 0.13688303E+00 0.80632598E+02</pdfrwt>
<pdfrwt beam="2">  1       -1 0.28105091E-03 0.80632598E+02</pdfrwt>
<totfact> 0.34194325E+05</totfact>
</mgrwt>
</event>
<event>
 8    1  0.7667702E-014  0.7973153E+02  0.7818608E-02  0.1329815E+00
          2   -1    0    0  501    0  0.00000000000E+00  0.00000000000E+00  0.51592784290E+03  0.51592784291E+03  0.25500000000E-02 0. -1.
         -1   -1    0    0    0  501 -0.00000000000E+00 -0.00000000000E+00 -0.30804268584E+01  0.30804309814E+01  0.50400000000E-02 0.  1.
         24    2    1    2    0    0  0.00000000000E+00  0.00000000000E+00  0.51284741605E+03  0.51900827389E+03  0.79731525907E+02 0.  0.
         66    2    3    3    0    0  0.37496061669E+01  0.28701250392E+02  0.43478815014E+03  0.43575515697E+03  0.19999994641E+01 0.  0.
        -13    1    3    3    0    0 -0.37496061669E+01 -0.28701250392E+02  0.78059265903E+02  0.83253116925E+02  0.10566000000E+00 0.  1.
         13    1    4    4    0    0  0.28493286246E+01  0.16303214339E+02  0.25233761177E+03  0.25287980337E+03  0.10566000000E+00 0. -1.
        -13    1    4    4    0    0 -0.16001831961E-01  0.51871262198E+01  0.76910801975E+02  0.77085596313E+02  0.10566000000E+00 0.  1.
        -14    1    4    4    0    0  0.91627937421E+00  0.72109098330E+01  0.10553973640E+03  0.10578975729E+03  0.00000000000E+00 0.  1.
<mgrwt>
<rscale>  0 0.79731526E+02</rscale>
<asrwt>0</asrwt>
<pdfrwt beam="1">  1        2 0.79373463E-01 0.79731526E+02</pdfrwt>
<pdfrwt beam="2">  1       -1 0.47391245E-03 0.79731526E+02</pdfrwt>
<totfact> 0.31024817E+05</totfact>
</mgrwt>
</event>
<event>
 8    1  0.7667702E-014  0.8075744E+02  0.7818608E-02  0.1326916E+00
         -1   -1    0    0    0  501 -0.00000000000E+00  0.00000000000E+00  0.36979066730E+01  0.36979101076E+01  0.50400000000E-02 0.  1.
          2   -1    0    0  501    0  0.00000000000E+00 -0.00000000000E+00 -0.44090893071E+03  0.44090893072E+03  0.25500000000E-02 0. -1.
         24    2    1    2    0    0  0.00000000000E+00 -0.35527136788E-14 -0.43721102404E+03  0.44460684082E+03  0.80757435378E+02 0.  0.
         66    2    3    3    0    0 -0.24603621358E+02 -0.20896125461E+02 -0.35206341297E+03  0.35354580043E+03  0.20000016865E+01 0.  0.
        -13    1    3    3    0    0  0.24603621358E+02  0.20896125461E+02 -0.85147611065E+02  0.91061040392E+02  0.10566000000E+00 0.  1.
         13    1    4    4    0    0 -0.11229713120E+02 -0.99768187008E+01 -0.16840132560E+03  0.16906998846E+03  0.10566000000E+00 0. -1.
        -13    1    4    4    0    0 -0.66136031671E+01 -0.50333921495E+01 -0.82732460511E+02  0.83148938476E+02  0.10566000000E+00 0.  1.
        -14    1    4    4    0    0 -0.67603050717E+01 -0.58859146109E+01 -0.10092962686E+03  0.10132687350E+03  0.00000000000E+00 0.  1.
<mgrwt>
<rscale>  0 0.80757435E+02</rscale>
<asrwt>0</asrwt>
<pdfrwt beam="1">  1        2 0.67832101E-01 0.80757435E+02</pdfrwt>
<pdfrwt beam="2">  1       -1 0.56890934E-03 0.80757435E+02</pdfrwt>
<totfact> 0.28506820E+05</totfact>
</mgrwt>
</event>
<event>
 8    1  0.7667702E-014  0.7992412E+02  0.7818608E-02  0.1329267E+00
          2   -1    0    0  501    0  0.00000000000E+00  0.00000000000E+00  0.64175485752E+03  0.64175485752E+03  0.25500000000E-02 0. -1.
         -1   -1    0    0    0  501 -0.00000000000E+00 -0.00000000000E+00 -0.24884338536E+01  0.24884389575E+01  0.50400000000E-02 0.  1.
         24    2    1    2    0    0  0.00000000000E+00  0.35527136788E-14  0.63926642366E+03  0.64424329648E+03  0.79924117984E+02 0.  0.
         66    2    3    3    0    0  0.24025049245E+02  0.30026277581E+02  0.40671671403E+03  0.40853551351E+03  0.19999982664E+01 0.  0.
        -13    1    3    3    0    0 -0.24025049245E+02 -0.30026277581E+02  0.23254970964E+03  0.23570778297E+03  0.10566000000E+00 0.  1.
         13    1    4    4    0    0  0.59336739514E+01  0.70665521250E+01  0.93718063408E+02  0.94171286593E+02  0.10566000000E+00 0. -1.
        -13    1    4    4    0    0  0.42751242058E+01  0.64167731870E+01  0.79986224357E+02  0.80357071351E+02  0.10566000000E+00 0.  1.
         14    1    4    4    0    0  0.13816251088E+02  0.16542952269E+02  0.23301242626E+03  0.23400715557E+03  0.00000000000E+00 0. -1.
<mgrwt>
<rscale>  0 0.79924118E+02</rscale>
<asrwt>0</asrwt>
<pdfrwt beam="1">  1        2 0.98731534E-01 0.79924118E+02</pdfrwt>
<pdfrwt beam="2">  1       -1 0.38283631E-03 0.79924118E+02</pdfrwt>
<totfact> 0.32830896E+05</totfact>
</mgrwt>
</event>
<event>
 8    1  0.7667702E-014  0.8120552E+02  0.7818608E-02  0.1325665E+00
          2   -1    0    0  501    0  0.00000000000E+00  0.00000000000E+00  0.55599213424E+03  0.55599213424E+03  0.25500000000E-02 0. -1.
         -1   -1    0    0    0  501 -0.00000000000E+00 -0.00000000000E+00 -0.29651188432E+01  0.29651231266E+01  0.50400000000E-02 0.  1.
         24    2    1    2    0    0  0.00000000000E+00 -0.88817841970E-15  0.55302701539E+03  0.55895725737E+03  0.81205515888E+02 0.  0.
         66    2    3    3    0    0 -0.14315388702E+02  0.74210574966E+01  0.53299043704E+03  0.53323804112E+03  0.20000198288E+01 0.  0.
        -13    1    3    3    0    0  0.14315388702E+02 -0.74210574966E+01  0.20036578355E+02  0.25719216245E+02  0.10566000000E+00 0.  1.
         13    1    4    4    0    0 -0.69711795492E+01  0.40338133562E+01  0.28454833412E+03  0.28466231680E+03  0.10566000000E+00 0. -1.
        -13    1    4    4    0    0 -0.27013720112E+01  0.14286480697E+01  0.10789051676E+03  0.10793383722E+03  0.10566000000E+00 0.  1.
         14    1    4    4    0    0 -0.46428371414E+01  0.19585960707E+01  0.14055158616E+03  0.14064188710E+03  0.00000000000E+00 0. -1.
<mgrwt>
<rscale>  0 0.81205516E+02</rscale>
<asrwt>0</asrwt>
<pdfrwt beam="1">  1        2 0.85537223E-01 0.81205516E+02</pdfrwt>
<pdfrwt beam="2">  1       -1 0.45617261E-03 0.81205516E+02</pdfrwt>
<totfact> 0.30262225E+05</totfact>
</mgrwt>
</event>
<event>
 8    1  0.7667702E-014  0.8355846E+02  0.7818608E-02  0.1319246E+00
          2   -1    0    0  501    0  0.00000000000E+00  0.00000000000E+00  0.24640711714E+03  0.24640711716E+03  0.25500000000E-02 0. -1.
         -1   -1    0    0    0  501 -0.00000000000E+00 -0.00000000000E+00 -0.70838213580E+01  0.70838231510E+01  0.50400000000E-02 0.  1.
         24    2    1    2    0    0 -0.71054273576E-14  0.00000000000E+00  0.23932329579E+03  0.25349094031E+03  0.83558464039E+02 0.  0.
         66    2    3    3    0    0 -0.40909035389E+02 -0.20010247565E+01  0.95094247862E+02  0.10355901340E+03  0.20000009936E+01 0.  0.
        -13    1    3    3    0    0  0.40909035389E+02  0.20010247565E+01  0.14422904792E+03  0.14993192691E+03  0.10566000000E+00 0.  1.
         13    1    4    4    0    0 -0.25053466140E+02 -0.13384308241E+01  0.60153498079E+02  0.65176085015E+02  0.10566000000E+00 0. -1.
        -13    1    4    4    0    0 -0.14954466245E+01  0.94948053571E-01  0.30420164377E+01  0.33926985988E+01  0.10566000000E+00 0.  1.
        -14    1    4    4    0    0 -0.14360122624E+02 -0.75754198601E+00  0.31898733345E+02  0.34990229788E+02  0.00000000000E+00 0.  1.
<mgrwt>
<rscale>  0 0.83558464E+02</rscale>
<asrwt>0</asrwt>
<pdfrwt beam="1">  1        2 0.37908784E-01 0.83558464E+02</pdfrwt>
<pdfrwt beam="2">  1       -1 0.10898189E-02 0.83558464E+02</pdfrwt>
<totfact> 0.21172031E+05</totfact>
</mgrwt>
</event>
<event>
 8    1  0.7667702E-014  0.7967869E+02  0.7818608E-02  0.1329966E+00
          2   -1    0    0  501    0  0.00000000000E+00  0.00000000000E+00  0.17619595721E+03  0.17619595723E+03  0.25500000000E-02 0. -1.
         -1   -1    0    0    0  501 -0.00000000000E+00 -0.00000000000E+00 -0.90080014992E+01  0.90080029091E+01  0.50400000000E-02 0.  1.
         24    2    1    2    0    0  0.00000000000E+00 -0.44408920985E-15  0.16718795571E+03  0.18520396014E+03  0.79678694241E+02 0.  0.
         66    2    3    3    0    0  0.39713871113E+02 -0.20791518325E+01  0.88089779239E+02  0.96671214126E+02  0.20000007880E+01 0.  0.
        -13    1    3    3    0    0 -0.39713871113E+02  0.20791518325E+01  0.79098176476E+02  0.88532746016E+02  0.10566000000E+00 0.  1.
         13    1    4    4    0    0  0.25456783249E+02 -0.15260278372E+01  0.58411982136E+02  0.63736546780E+02  0.10566000000E+00 0. -1.
        -13    1    4    4    0    0  0.17582946014E+01 -0.11170649669E+00  0.33095153947E+01  0.37507511821E+01  0.10566000000E+00 0.  1.
         14    1    4    4    0    0  0.12498793263E+02 -0.44141749867E+00  0.26368281708E+02  0.29183916164E+02  0.00000000000E+00 0. -1.
<mgrwt>
<rscale>  0 0.79678694E+02</rscale>
<asrwt>0</asrwt>
<pdfrwt beam="1">  1        2 0.27107069E-01 0.79678694E+02</pdfrwt>
<pdfrwt beam="2">  1       -1 0.13858465E-02 0.79678694E+02</pdfrwt>
<totfact> 0.21347132E+05</totfact>
</mgrwt>
</event>
<event>
 8    1  0.7667702E-014  0.7507685E+02  0.7818608E-02  0.1343633E+00
         -1   -1    0    0    0  501 -0.00000000000E+00  0.00000000000E+00  0.97828060586E+02  0.97828060716E+02  0.50400000000E-02 0.  1.
          2   -1    0    0  501    0  0.00000000000E+00 -0.00000000000E+00 -0.14404182945E+02  0.14404183171E+02  0.25500000000E-02 0. -1.
         24    2    1    2    0    0  0.55511151231E-16  0.71054273576E-14  0.83423877641E+02  0.11223224389E+03  0.75076848676E+02 0.  0.
         66    2    3    3    0    0  0.46423957480E+00  0.37166604050E+02  0.34184240959E+02  0.50538443877E+02  0.20000011422E+01 0.  0.
        -13    1    3    3    0    0 -0.46423957480E+00 -0.37166604050E+02  0.49239636682E+02  0.61693800009E+02  0.10566000000E+00 0.  1.
         13    1    4    4    0    0  0.37572217036E+00  0.58977698574E+01  0.54835215516E+01  0.80625696327E+01  0.10566000000E+00 0. -1.
        -13    1    4    4    0    0 -0.26820239359E+00  0.14673091570E+02  0.14499108476E+02  0.20630241379E+02  0.10566000000E+00 0.  1.
         14    1    4    4    0    0  0.35671979802E+00  0.16595742623E+02  0.14201610932E+02  0.21845632865E+02  0.00000000000E+00 0. -1.
<mgrwt>
<rscale>  0 0.75076849E+02</rscale>
<asrwt>0</asrwt>
<pdfrwt beam="1">  1        2 0.22160282E-02 0.75076849E+02</pdfrwt>
<pdfrwt beam="2">  1       -1 0.15050470E-01 0.75076849E+02</pdfrwt>
<totfact> 0.13949296E+05</totfact>
</mgrwt>
</event>
<event>
 8    1  0.7667702E-014  0.8009210E+02  0.7818608E-02  0.1328790E+00
          2   -1    0    0  501    0  0.00000000000E+00  0.00000000000E+00  0.16046582206E+03  0.16046582208E+03  0.25500000000E-02 0. -1.
         -1   -1    0    0    0  501 -0.00000000000E+00 -0.00000000000E+00 -0.99939410925E+01  0.99939423633E+01  0.50400000000E-02 0.  1.
         24    2    1    2    0    0  0.00000000000E+00  0.00000000000E+00  0.15047188097E+03  0.17045976445E+03  0.80092099063E+02 0.  0.
         66    2    3    3    0    0  0.18037466511E+02  0.26604974325E+02  0.12602849270E+03  0.13007826805E+03  0.19999975141E+01 0.  0.
        -13    1    3    3    0    0 -0.18037466511E+02 -0.26604974325E+02  0.24443388271E+02  0.40381496395E+02  0.10566000000E+00 0.  1.
         13    1    4    4    0    0  0.70405302845E+01  0.11014734491E+02  0.51511488502E+02  0.53144501637E+02  0.10566000000E+00 0. -1.
        -13    1    4    4    0    0  0.86480106027E+01  0.11181732038E+02  0.54874598989E+02  0.56666145069E+02  0.10566000000E+00 0.  1.
         14    1    4    4    0    0  0.23489256237E+01  0.44085077961E+01  0.19642405209E+02  0.20267621345E+02  0.00000000000E+00 0. -1.
<mgrwt>
<rscale>  0 0.80092099E+02</rscale>
<asrwt>0</asrwt>
<pdfrwt beam="1">  1        2 0.24687049E-01 0.80092099E+02</pdfrwt>
<pdfrwt beam="2">  1       -1 0.15375295E-02 0.80092099E+02</pdfrwt>
<totfact> 0.20412071E+05</totfact>
</mgrwt>
</event>
<event>
 8    1  0.7667702E-014  0.7830722E+02  0.7818608E-02  0.1333925E+00
          2   -1    0    0  501    0  0.00000000000E+00  0.00000000000E+00  0.42202810796E+02  0.42202810873E+02  0.25500000000E-02 0. -1.
         -1   -1    0    0    0  501 -0.00000000000E+00 -0.00000000000E+00 -0.36324715678E+02  0.36324716028E+02  0.50400000000E-02 0.  1.
         24    2    1    2    0    0  0.00000000000E+00  0.00000000000E+00  0.58780951175E+01  0.78527526901E+02  0.78307218562E+02 0.  0.
         66    2    3    3    0    0  0.18428171149E+02 -0.22378349819E+02  0.29294394470E+02  0.41261962744E+02  0.19999974022E+01 0.  0.
        -13    1    3    3    0    0 -0.18428171149E+02  0.22378349819E+02 -0.23416299352E+02  0.37265564157E+02  0.10566000000E+00 0.  1.
         13    1    4    4    0    0  0.57977616606E+01 -0.80806031220E+01  0.10921832261E+02  0.14771857401E+02  0.10566000000E+00 0. -1.
        -13    1    4    4    0    0  0.35110141389E+01 -0.36911849602E+01  0.49145072680E+01  0.70792381240E+01  0.10566000000E+00 0.  1.
         14    1    4    4    0    0  0.91193953493E+01 -0.10606561737E+02  0.13458054940E+02  0.19410867219E+02  0.00000000000E+00 0. -1.
<mgrwt>
<rscale>  0 0.78307219E+02</rscale>
<asrwt>0</asrwt>
<pdfrwt beam="1">  1        2 0.64927401E-02 0.78307219E+02</pdfrwt>
<pdfrwt beam="2">  1       -1 0.55884179E-02 0.78307219E+02</pdfrwt>
<totfact> 0.15288387E+05</totfact>
</mgrwt>
</event>
<event>
 8    1  0.7667702E-014  0.7865572E+02  0.7818608E-02  0.1332910E+00
         -1   -1    0    0    0  501 -0.00000000000E+00  0.00000000000E+00  0.90801992219E+01  0.90802006206E+01  0.50400000000E-02 0.  1.
          2   -1    0    0  501    0  0.00000000000E+00 -0.00000000000E+00 -0.17033550452E+03  0.17033550454E+03  0.25500000000E-02 0. -1.
         24    2    1    2    0    0  0.00000000000E+00  0.00000000000E+00 -0.16125530529E+03  0.17941570516E+03  0.78655716709E+02 0.  0.
         66    2    3    3    0    0 -0.17729618647E+02 -0.21241795619E+02 -0.14434936042E+03  0.14699078581E+03  0.20000001035E+01 0.  0.
        -13    1    3    3    0    0  0.17729618647E+02  0.21241795619E+02 -0.16905944871E+02  0.32424919345E+02  0.10566000000E+00 0.  1.
         13    1    4    4    0    0 -0.53794663906E+01 -0.72282436926E+01 -0.45019423978E+02  0.45912371589E+02  0.10566000000E+00 0. -1.
        -13    1    4    4    0    0 -0.72250865447E+01 -0.76143798922E+01 -0.58267633147E+02  0.59205649167E+02  0.10566000000E+00 0.  1.
        -14    1    4    4    0    0 -0.51250657114E+01 -0.63991720342E+01 -0.41062303298E+02  0.41872765056E+02  0.00000000000E+00 0.  1.
<mgrwt>
<rscale>  0 0.78655717E+02</rscale>
<asrwt>0</asrwt>
<pdfrwt beam="1">  1        2 0.26205460E-01 0.78655717E+02</pdfrwt>
<pdfrwt beam="2">  1       -1 0.13969540E-02 0.78655717E+02</pdfrwt>
<totfact> 0.21840164E+05</totfact>
</mgrwt>
</event>
<event>
 8    1  0.7667702E-014  0.8149080E+02  0.7818608E-02  0.1324873E+00
          2   -1    0    0  501    0  0.00000000000E+00  0.00000000000E+00  0.12298836898E+04  0.12298836898E+04  0.25500000000E-02 0. -1.
         -1   -1    0    0    0  501 -0.00000000000E+00 -0.00000000000E+00 -0.13498690274E+01  0.13498784362E+01  0.50400000000E-02 0.  1.
         24    2    1    2    0    0  0.22204460493E-15 -0.35527136788E-14  0.12285338207E+04  0.12312335682E+04  0.81490801787E+02 0.  0.
         66    2    3    3    0    0  0.11312128678E+01 -0.28175029005E+02  0.10585051377E+04  0.10588825423E+04  0.20000001436E+01 0.  0.
        -13    1    3    3    0    0 -0.11312128678E+01  0.28175029005E+02  0.17002868302E+03  0.17235102586E+03  0.10566000000E+00 0.  1.
         13    1    4    4    0    0  0.38129299277E+00 -0.23175211478E+01  0.93551135260E+02  0.93580673010E+02  0.10566000000E+00 0. -1.
        -13    1    4    4    0    0  0.12044204185E+01 -0.19833161475E+02  0.74407918197E+03  0.74434443985E+03  0.10566000000E+00 0.  1.
         14    1    4    4    0    0 -0.45450054351E+00 -0.60243463821E+01  0.22087482049E+03  0.22095742949E+03  0.00000000000E+00 0. -1.
<mgrwt>
<rscale>  0 0.81490802E+02</rscale>
<asrwt>0</asrwt>
<pdfrwt beam="1">  1        2 0.18921318E+00 0.81490802E+02</pdfrwt>
<pdfrwt beam="2">  1       -1 0.20767255E-03 0.81490802E+02</pdfrwt>
<totfact> 0.33296021E+05</totfact>
</mgrwt>
</event>
<event>
 8    1  0.7667702E-014  0.8443818E+02  0.7818608E-02  0.1316908E+00
          2   -1    0    0  501    0  0.00000000000E+00  0.00000000000E+00  0.39903754008E+02  0.39903754089E+02  0.25500000000E-02 0. -1.
         -1   -1    0    0    0  501 -0.00000000000E+00 -0.00000000000E+00 -0.44668767724E+02  0.44668768009E+02  0.50400000000E-02 0.  1.
         24    2    1    2    0    0  0.17763568394E-14 -0.88817841970E-15 -0.47650137162E+01  0.84572522098E+02  0.84438179388E+02 0.  0.
         66    2    3    3    0    0 -0.95171794664E+01  0.78482164566E+01  0.38032254165E+02  0.40032781319E+02  0.20000041705E+01 0.  0.
        -13    1    3    3    0    0  0.95171794664E+01 -0.78482164566E+01 -0.42797267881E+02  0.44539740779E+02  0.10566000000E+00 0.  1.
         13    1    4    4    0    0 -0.22252810541E+01  0.13998732680E+01  0.99228607464E+01  0.10265761071E+02  0.10566000000E+00 0. -1.
        -13    1    4    4    0    0 -0.23767901035E+01  0.19551855274E+01  0.74682033094E+01  0.80781870707E+01  0.10566000000E+00 0.  1.
         14    1    4    4    0    0 -0.49151083089E+01  0.44931576612E+01  0.20641190109E+02  0.21688833177E+02  0.00000000000E+00 0. -1.
<mgrwt>
<rscale>  0 0.84438179E+02</rscale>
<asrwt>0</asrwt>
<pdfrwt beam="1">  1        2 0.61390391E-02 0.84438179E+02</pdfrwt>
<pdfrwt beam="2">  1       -1 0.68721182E-02 0.84438179E+02</pdfrwt>
<totfact> 0.12264546E+05</totfact>
</mgrwt>
</event>
<event>
 8    1  0.7667702E-014  0.8054785E+02  0.7818608E-02  0.1327504E+00
          2   -1    0    0  501    0  0.00000000000E+00  0.00000000000E+00  0.15745911644E+03  0.15745911646E+03  0.25500000000E-02 0. -1.
         -1   -1    0    0    0  501 -0.00000000000E+00 -0.00000000000E+00 -0.10301016036E+02  0.10301017269E+02  0.50400000000E-02 0.  1.
         24    2    1    2    0    0  0.00000000000E+00  0.00000000000E+00  0.14715810040E+03  0.16776013373E+03  0.80547848851E+02 0.  0.
         66    2    3    3    0    0 -0.22046753475E+02  0.67046736365E+01  0.14235378640E+03  0.14422070756E+03  0.19999995987E+01 0.  0.
        -13    1    3    3    0    0  0.22046753475E+02 -0.67046736365E+01  0.48043140012E+01  0.23539426171E+02  0.10566000000E+00 0.  1.
         13    1    4    4    0    0 -0.42988807023E+01  0.90610935657E+00  0.26055639515E+02  0.26423643277E+02  0.10566000000E+00 0. -1.
        -13    1    4    4    0    0 -0.61875669023E+01  0.13413518044E+01  0.41181131142E+02  0.41665116524E+02  0.10566000000E+00 0.  1.
         14    1    4    4    0    0 -0.11560305871E+02  0.44572124755E+01  0.75117015744E+02  0.76131947757E+02  0.00000000000E+00 0. -1.
<mgrwt>
<rscale>  0 0.80547849E+02</rscale>
<asrwt>0</asrwt>
<pdfrwt beam="1">  1        2 0.24224480E-01 0.80547849E+02</pdfrwt>
<pdfrwt beam="2">  1       -1 0.15847718E-02 0.80547849E+02</pdfrwt>
<totfact> 0.19982980E+05</totfact>
</mgrwt>
</event>
<event>
 8    1  0.7667702E-014  0.8090188E+02  0.7818608E-02  0.1326511E+00
          2   -1    0    0  501    0  0.00000000000E+00  0.00000000000E+00  0.75437793192E+02  0.75437793236E+02  0.25500000000E-02 0. -1.
         -1   -1    0    0    0  501 -0.00000000000E+00 -0.00000000000E+00 -0.21690434098E+02  0.21690434683E+02  0.50400000000E-02 0.  1.
         24    2    1    2    0    0  0.00000000000E+00 -0.35527136788E-14  0.53747359095E+02  0.97128227919E+02  0.80901879143E+02 0.  0.
         66    2    3    3    0    0  0.93115840207E+01 -0.23777943630E+02  0.64515516693E+02  0.69414321980E+02  0.20000003772E+01 0.  0.
        -13    1    3    3    0    0 -0.93115840207E+01  0.23777943630E+02 -0.10768157598E+02  0.27713905938E+02  0.10566000000E+00 0.  1.
         13    1    4    4    0    0  0.83945910744E+01 -0.21413906312E+02  0.58516065129E+02  0.62874204449E+02  0.10566000000E+00 0. -1.
        -13    1    4    4    0    0 -0.40113891783E-01 -0.13575295999E+00  0.47606355081E+00  0.50777803268E+00  0.10566000000E+00 0.  1.
         14    1    4    4    0    0  0.95710683808E+00 -0.22282843584E+01  0.55233880132E+01  0.60323394985E+01  0.00000000000E+00 0. -1.
<mgrwt>
<rscale>  0 0.80901879E+02</rscale>
<asrwt>0</asrwt>
<pdfrwt beam="1">  1        2 0.11605814E-01 0.80901879E+02</pdfrwt>
<pdfrwt beam="2">  1       -1 0.33369899E-02 0.80901879E+02</pdfrwt>
<totfact> 0.15957615E+05</totfact>
</mgrwt>
</event>
<event>
 8    1  0.7667702E-014  0.8054794E+02  0.7818608E-02  0.1327504E+00
          2   -1    0    0  501    0  0.00000000000E+00  0.00000000000E+00  0.27592502972E+02  0.27592503090E+02  0.25500000000E-02 0. -1.
         -1   -1    0    0    0  501 -0.00000000000E+00 -0.00000000000E+00 -0.58783813728E+02  0.58783813945E+02  0.50400000000E-02 0.  1.
         24    2    1    2    0    0  0.35527136788E-14  0.00000000000E+00 -0.31191310757E+02  0.86376317034E+02  0.80547937762E+02 0.  0.
         66    2    3    3    0    0  0.27037631515E+02 -0.22063555528E+02  0.58995974714E+01  0.35449107826E+02  0.19999987159E+01 0.  0.
        -13    1    3    3    0    0 -0.27037631515E+02  0.22063555528E+02 -0.37090908228E+02  0.50927209208E+02  0.10566000000E+00 0.  1.
         13    1    4    4    0    0  0.54078218475E+01 -0.50182417941E+01  0.63524127103E+00  0.74055373435E+01  0.10566000000E+00 0. -1.
        -13    1    4    4    0    0  0.20974856072E+02 -0.16647998401E+02  0.51099640570E+01  0.27262122711E+02  0.10566000000E+00 0.  1.
         14    1    4    4    0    0  0.65495359535E+00 -0.39731533273E+00  0.15439214334E+00  0.78144777152E+00  0.00000000000E+00 0. -1.
<mgrwt>
<rscale>  0 0.80547938E+02</rscale>
<asrwt>0</asrwt>
<pdfrwt beam="1">  1        2 0.42450005E-02 0.80547938E+02</pdfrwt>
<pdfrwt beam="2">  1       -1 0.90436636E-02 0.80547938E+02</pdfrwt>
<totfact> 0.12983189E+05</totfact>
</mgrwt>
</event>
<event>
 8    1  0.7667702E-014  0.7946436E+02  0.7818608E-02  0.1330578E+00
          2   -1    0    0  501    0  0.00000000000E+00  0.00000000000E+00  0.28964661304E+02  0.28964661416E+02  0.25500000000E-02 0. -1.
         -1   -1    0    0    0  501 -0.00000000000E+00 -0.00000000000E+00 -0.54502484184E+02  0.54502484417E+02  0.50400000000E-02 0.  1.
         24    2    1    2    0    0  0.00000000000E+00  0.00000000000E+00 -0.25537822880E+02  0.83467145833E+02  0.79464357017E+02 0.  0.
         66    2    3    3    0    0  0.10182868899E+02 -0.34540771231E+02  0.47955116889E+01  0.36383411419E+02  0.19999994694E+01 0.  0.
        -13    1    3    3    0    0 -0.10182868899E+02  0.34540771231E+02 -0.30333334569E+02  0.47083734414E+02  0.10566000000E+00 0.  1.
         13    1    4    4    0    0  0.32849348966E+01 -0.99140416465E+01  0.21068493379E+01  0.10654998696E+02  0.10566000000E+00 0. -1.
        -13    1    4    4    0    0  0.13324630092E+00 -0.41404621238E+00  0.51753642688E-01  0.45058996641E+00  0.10566000000E+00 0. -1.
        -14    1    4    4    0    0  0.67646877019E+01 -0.24212683372E+02  0.26369087083E+01  0.25277822757E+02  0.00000000000E+00 0.  1.
<mgrwt>
<rscale>  0 0.79464357E+02</rscale>
<asrwt>0</asrwt>
<pdfrwt beam="1">  1        2 0.44561017E-02 0.79464357E+02</pdfrwt>
<pdfrwt beam="2">  1       -1 0.83849976E-02 0.79464357E+02</pdfrwt>
<totfact> 0.13616677E+05</totfact>
</mgrwt>
</event>
<event>
 8    1  0.7667702E-014  0.7965528E+02  0.7818608E-02  0.1330033E+00
          2   -1    0    0  501    0  0.00000000000E+00  0.00000000000E+00  0.24022603983E+02  0.24022604118E+02  0.25500000000E-02 0. -1.
         -1   -1    0    0    0  501 -0.00000000000E+00 -0.00000000000E+00 -0.66031174169E+02  0.66031174361E+02  0.50400000000E-02 0.  1.
         24    2    1    2    0    0 -0.35527136788E-14 -0.35527136788E-14 -0.42008570186E+02  0.90053778479E+02  0.79655276343E+02 0.  0.
         66    2    3    3    0    0  0.11056014393E+02 -0.24094315722E+02  0.12547750208E+02  0.29397577120E+02  0.20000002099E+01 0.  0.
        -13    1    3    3    0    0 -0.11056014393E+02  0.24094315722E+02 -0.54556320394E+02  0.60656201359E+02  0.10566000000E+00 0.  1.
         13    1    4    4    0    0  0.82491078073E+01 -0.17872275829E+02  0.88900381792E+01  0.21598841769E+02  0.10566000000E+00 0. -1.
        -13    1    4    4    0    0  0.14771614092E+01 -0.42362933472E+01  0.25873824428E+01  0.51801446980E+01  0.10566000000E+00 0.  1.
        -14    1    4    4    0    0  0.13297451768E+01 -0.19857465462E+01  0.10703295863E+01  0.26185906523E+01  0.00000000000E+00 0.  1.
<mgrwt>
<rscale>  0 0.79655276E+02</rscale>
<asrwt>0</asrwt>
<pdfrwt beam="1">  1        2 0.36957853E-02 0.79655276E+02</pdfrwt>
<pdfrwt beam="2">  1       -1 0.10158642E-01 0.79655276E+02</pdfrwt>
<totfact> 0.13037282E+05</totfact>
</mgrwt>
</event>
<event>
 8    1  0.7667702E-014  0.8772038E+02  0.7818608E-02  0.1308468E+00
          2   -1    0    0  501    0  0.00000000000E+00  0.00000000000E+00  0.21223709988E+03  0.21223709989E+03  0.25500000000E-02 0. -1.
         -1   -1    0    0    0  501 -0.00000000000E+00 -0.00000000000E+00 -0.90639957246E+01  0.90639971259E+01  0.50400000000E-02 0.  1.
         24    2    1    2    0    0  0.00000000000E+00  0.00000000000E+00  0.20317310416E+03  0.22130109702E+03  0.87720381273E+02 0.  0.
         66    2    3    3    0    0  0.25634750589E+02 -0.12051765642E+02  0.18604287739E+03  0.18819760286E+03  0.19999999865E+01 0.  0.
        -13    1    3    3    0    0 -0.25634750589E+02  0.12051765642E+02  0.17130226762E+02  0.33103494163E+02  0.10566000000E+00 0.  1.
         13    1    4    4    0    0  0.58662997809E+01 -0.21801242064E+01  0.38396528717E+02  0.38903354562E+02  0.10566000000E+00 0.  1.
        -13    1    4    4    0    0  0.14438447979E+02 -0.67310106056E+01  0.10754818967E+03  0.10872166090E+03  0.10566000000E+00 0. -1.
        -14    1    4    4    0    0  0.53300028295E+01 -0.31406308302E+01  0.40098159007E+02  0.40572587395E+02  0.00000000000E+00 0.  1.
<mgrwt>
<rscale>  0 0.87720381E+02</rscale>
<asrwt>0</asrwt>
<pdfrwt beam="1">  1        2 0.32651857E-01 0.87720381E+02</pdfrwt>
<pdfrwt beam="2">  1       -1 0.13944612E-02 0.87720381E+02</pdfrwt>
<totfact> 0.17644685E+05</totfact>
</mgrwt>
</event>
<event>
 8    1  0.7667702E-014  0.7962330E+02  0.7818608E-02  0.1330124E+00
          2   -1    0    0  501    0  0.00000000000E+00  0.00000000000E+00  0.44911003503E+03  0.44911003504E+03  0.25500000000E-02 0. -1.
         -1   -1    0    0    0  501 -0.00000000000E+00 -0.00000000000E+00 -0.35291276546E+01  0.35291312535E+01  0.50400000000E-02 0.  1.
         24    2    1    2    0    0  0.00000000000E+00  0.00000000000E+00  0.44558090737E+03  0.45263916629E+03  0.79623299623E+02 0.  0.
         66    2    3    3    0    0 -0.22132693628E+02  0.21210198141E+02  0.36710776828E+03  0.36839088230E+03  0.19999988113E+01 0.  0.
        -13    1    3    3    0    0  0.22132693628E+02 -0.21210198141E+02  0.78473139090E+02  0.84248283989E+02  0.10566000000E+00 0.  1.
         13    1    4    4    0    0 -0.39371669264E+01  0.39739906772E+01  0.69789199336E+02  0.70013123008E+02  0.10566000000E+00 0. -1.
        -13    1    4    4    0    0 -0.31308315610E+01  0.30219578048E+01  0.44621414228E+02  0.44833203176E+02  0.10566000000E+00 0.  1.
         14    1    4    4    0    0 -0.15064695141E+02  0.14214249659E+02  0.25269715472E+03  0.25354455612E+03  0.00000000000E+00 0. -1.
<mgrwt>
<rscale>  0 0.79623300E+02</rscale>
<asrwt>0</asrwt>
<pdfrwt beam="1">  1        2 0.69093856E-01 0.79623300E+02</pdfrwt>
<pdfrwt beam="2">  1       -1 0.54294296E-03 0.79623300E+02</pdfrwt>
<totfact> 0.29763121E+05</totfact>
</mgrwt>
</event>
<event>
 8    1  0.7667702E-014  0.8268671E+02  0.7818608E-02  0.1321595E+00
         -1   -1    0    0    0  501 -0.00000000000E+00  0.00000000000E+00  0.70473707439E+02  0.70473707620E+02  0.50400000000E-02 0.  1.
          2   -1    0    0  501    0  0.00000000000E+00 -0.00000000000E+00 -0.24254053522E+02  0.24254053656E+02  0.25500000000E-02 0. -1.
         24    2    1    2    0    0  0.27755575616E-16 -0.35527136788E-14  0.46219653917E+02  0.94727761276E+02  0.82686712041E+02 0.  0.
         66    2    3    3    0    0  0.15916916699E+00 -0.31951641959E+02 -0.68897112012E+01  0.32747533896E+02  0.20000242857E+01 0.  0.
        -13    1    3    3    0    0 -0.15916916699E+00  0.31951641959E+02  0.53109365118E+02  0.61980227380E+02  0.10566000000E+00 0.  1.
         13    1    4    4    0    0  0.25872635955E+00 -0.52356395083E+01 -0.17832357814E+01  0.55380460704E+01  0.10566000000E+00 0. -1.
        -13    1    4    4    0    0 -0.29935491738E+00 -0.14860737505E+02 -0.25804728512E+01  0.15086455407E+02  0.10566000000E+00 0.  1.
         14    1    4    4    0    0  0.19979772482E+00 -0.11855264946E+02 -0.25260025686E+01  0.12123032419E+02  0.00000000000E+00 0. -1.
<mgrwt>
<rscale>  0 0.82686712E+02</rscale>
<asrwt>0</asrwt>
<pdfrwt beam="1">  1        2 0.37313929E-02 0.82686712E+02</pdfrwt>
<pdfrwt beam="2">  1       -1 0.10842109E-01 0.82686712E+02</pdfrwt>
<totfact> 0.11745365E+05</totfact>
</mgrwt>
</event>
<event>
 8    1  0.9734140E-014  0.7878737E+02  0.7818608E-02  0.1332528E+00
          2   -1    0    0  501    0  0.00000000000E+00  0.00000000000E+00  0.76098663364E+02  0.76098663407E+02  0.25500000000E-02 0. -1.
         -1   -1    0    0    0  501 -0.00000000000E+00 -0.00000000000E+00 -0.20392766441E+02  0.20392767064E+02  0.50400000000E-02 0.  1.
         24    2    1    2    0    0  0.00000000000E+00  0.00000000000E+00  0.55705896924E+02  0.96491430471E+02  0.78787367022E+02 0.  0.
         66    2    3    3    0    0  0.66223789016E+01 -0.18727840641E+02  0.69497720638E+02  0.72308513302E+02  0.20000011687E+01 0.  0.
        -13    1    3    3    0    0 -0.66223789016E+01  0.18727840641E+02 -0.13791823714E+02  0.24182917169E+02  0.10566000000E+00 0.  1.
         13    1    4    4    0    0  0.31174273725E+01 -0.82198934391E+01  0.30675896761E+02  0.31910919882E+02  0.10566000000E+00 0. -1.
        -13    1    4    4    0    0  0.32538996447E+01 -0.79170229552E+01  0.30455293484E+02  0.31635473453E+02  0.10566000000E+00 0.  1.
        -14    1    4    4    0    0  0.25105188440E+00 -0.25909242469E+01  0.83665303931E+01  0.87621199673E+01  0.00000000000E+00 0.  1.
<mgrwt>
<rscale>  0 0.78787367E+02</rscale>
<asrwt>0</asrwt>
<pdfrwt beam="1">  1        2 0.11707487E-01 0.78787367E+02</pdfrwt>
<pdfrwt beam="2">  1       -1 0.31373488E-02 0.78787367E+02</pdfrwt>
<totfact> 0.17177935E+05</totfact>
</mgrwt>
</event>
<event>
 8    1  0.7667702E-014  0.8119884E+02  0.7818608E-02  0.1325683E+00
          2   -1    0    0  501    0  0.00000000000E+00  0.00000000000E+00  0.11248840284E+03  0.11248840287E+03  0.25500000000E-02 0. -1.
         -1   -1    0    0    0  501 -0.00000000000E+00 -0.00000000000E+00 -0.14653181034E+02  0.14653181901E+02  0.50400000000E-02 0.  1.
         24    2    1    2    0    0  0.00000000000E+00 -0.88817841970E-15  0.97835221803E+02  0.12714158477E+03  0.81198842060E+02 0.  0.
         66    2    3    3    0    0 -0.18297418268E+02  0.24491692362E+01  0.10552272642E+03  0.10714401400E+03  0.20000001051E+01 0.  0.
        -13    1    3    3    0    0  0.18297418268E+02 -0.24491692362E+01 -0.76875046160E+01  0.19997570765E+02  0.10566000000E+00 0.  1.
         13    1    4    4    0    0 -0.10105907384E+02  0.83420190362E+00  0.60062407324E+02  0.60912471584E+02  0.10566000000E+00 0. -1.
        -13    1    4    4    0    0 -0.33332148590E+01  0.30428253078E+00  0.16333288645E+02  0.16673043847E+02  0.10566000000E+00 0.  1.
        -14    1    4    4    0    0 -0.48582960254E+01  0.13106848018E+01  0.29127030451E+02  0.29558498572E+02  0.00000000000E+00 0.  1.
<mgrwt>
<rscale>  0 0.81198842E+02</rscale>
<asrwt>0</asrwt>
<pdfrwt beam="1">  1        2 0.17305909E-01 0.81198842E+02</pdfrwt>
<pdfrwt beam="2">  1       -1 0.22543355E-02 0.81198842E+02</pdfrwt>
<totfact> 0.17618103E+05</totfact>
</mgrwt>
</event>
<event>
 8    1  0.7667702E-014  0.7867695E+02  0.7818608E-02  0.1332849E+00
         -1   -1    0    0    0  501 -0.00000000000E+00  0.00000000000E+00  0.27054140326E+03  0.27054140331E+03  0.50400000000E-02 0.  1.
          2   -1    0    0  501    0  0.00000000000E+00 -0.00000000000E+00 -0.57200690518E+01  0.57200696202E+01  0.25500000000E-02 0. -1.
         24    2    1    2    0    0  0.00000000000E+00  0.00000000000E+00  0.26482133421E+03  0.27626147293E+03  0.78676949433E+02 0.  0.
         66    2    3    3    0    0  0.33732418576E+02 -0.87144756154E+01  0.68545978232E+02  0.76917938606E+02  0.19999998305E+01 0.  0.
        -13    1    3    3    0    0 -0.33732418576E+02  0.87144756154E+01  0.19627535598E+03  0.19934353432E+03  0.10566000000E+00 0.  1.
         13    1    4    4    0    0  0.61614591404E+01 -0.14627018842E+01  0.11848316446E+02  0.13434911320E+02  0.10566000000E+00 0. -1.
        -13    1    4    4    0    0  0.11037798227E+02 -0.37345292587E+01  0.23291655769E+02  0.26044041372E+02  0.10566000000E+00 0.  1.
        -14    1    4    4    0    0  0.16533161208E+02 -0.35172444724E+01  0.33406006017E+02  0.37438985913E+02  0.00000000000E+00 0.  1.
<mgrwt>
<rscale>  0 0.78676949E+02</rscale>
<asrwt>0</asrwt>
<pdfrwt beam="1">  1        2 0.88001049E-03 0.78676949E+02</pdfrwt>
<pdfrwt beam="2">  1       -1 0.41621763E-01 0.78676949E+02</pdfrwt>
<totfact> 0.93908754E+04</totfact>
</mgrwt>
</event>
<event>
 8    1  0.7667702E-014  0.8231234E+02  0.7818608E-02  0.1322615E+00
         -1   -1    0    0    0  501 -0.00000000000E+00  0.00000000000E+00  0.83729019100E+01  0.83729034269E+01  0.50400000000E-02 0.  1.
          2   -1    0    0  501    0  0.00000000000E+00 -0.00000000000E+00 -0.20229907927E+03  0.20229907929E+03  0.25500000000E-02 0. -1.
         24    2    1    2    0    0  0.00000000000E+00  0.00000000000E+00 -0.19392617736E+03  0.21067198272E+03  0.82312344365E+02 0.  0.
         66    2    3    3    0    0 -0.15252888043E+02 -0.34749061471E+02 -0.13762373573E+03  0.14277408905E+03  0.20000000424E+01 0.  0.
        -13    1    3    3    0    0  0.15252888043E+02  0.34749061471E+02 -0.56302441633E+02  0.67897893669E+02  0.10566000000E+00 0.  1.
         13    1    4    4    0    0 -0.12003993869E+01 -0.26305615220E+01 -0.11552326707E+02  0.11909165755E+02  0.10566000000E+00 0. -1.
        -13    1    4    4    0    0 -0.30296074438E+01 -0.64792372804E+01 -0.28074531030E+02  0.28971529017E+02  0.10566000000E+00 0.  1.
        -14    1    4    4    0    0 -0.11022881212E+02 -0.25639262669E+02 -0.97996877993E+02  0.10189339427E+03  0.00000000000E+00 0.  1.
<mgrwt>
<rscale>  0 0.82312344E+02</rscale>
<asrwt>0</asrwt>
<pdfrwt beam="1">  1        2 0.31122931E-01 0.82312344E+02</pdfrwt>
<pdfrwt beam="2">  1       -1 0.12881390E-02 0.82312344E+02</pdfrwt>
<totfact> 0.20540342E+05</totfact>
</mgrwt>
</event>
<event>
 8    1  0.7667702E-014  0.7946542E+02  0.7818608E-02  0.1330575E+00
         -1   -1    0    0    0  501 -0.00000000000E+00  0.00000000000E+00  0.18968146354E+01  0.18968213312E+01  0.50400000000E-02 0.  1.
          2   -1    0    0  501    0  0.00000000000E+00 -0.00000000000E+00 -0.83228238581E+03  0.83228238581E+03  0.25500000000E-02 0. -1.
         24    2    1    2    0    0  0.00000000000E+00  0.35527136788E-14 -0.83038557117E+03  0.83417920714E+03  0.79465419009E+02 0.  0.
         66    2    3    3    0    0  0.21315473507E+02  0.19405600765E+02 -0.70212337354E+03  0.70271769468E+03  0.20000004494E+01 0.  0.
        -13    1    3    3    0    0 -0.21315473507E+02 -0.19405600765E+02 -0.12826219763E+03  0.13146151246E+03  0.10566000000E+00 0.  1.
         13    1    4    4    0    0  0.15288666657E+01  0.14229747791E+01 -0.55515471089E+02  0.55554846636E+02  0.10566000000E+00 0. -1.
        -13    1    4    4    0    0  0.33626515792E+01  0.27233773476E+01 -0.91137344795E+02  0.91240073378E+02  0.10566000000E+00 0.  1.
         14    1    4    4    0    0  0.16423955263E+02  0.15259248639E+02 -0.55547055765E+03  0.55592277467E+03  0.00000000000E+00 0. -1.
<mgrwt>
<rscale>  0 0.79465419E+02</rscale>
<asrwt>0</asrwt>
<pdfrwt beam="1">  1        2 0.12804315E+00 0.79465419E+02</pdfrwt>
<pdfrwt beam="2">  1       -1 0.29181882E-03 0.79465419E+02</pdfrwt>
<totfact> 0.35195040E+05</totfact>
</mgrwt>
</event>
<event>
 8    1  0.7667702E-014  0.7883003E+02  0.7818608E-02  0.1332405E+00
         -1   -1    0    0    0  501 -0.00000000000E+00  0.00000000000E+00  0.13611384151E+03  0.13611384160E+03  0.50400000000E-02 0.  1.
          2   -1    0    0  501    0  0.00000000000E+00 -0.00000000000E+00 -0.11413559313E+02  0.11413559598E+02  0.25500000000E-02 0. -1.
         24    2    1    2    0    0  0.00000000000E+00 -0.35527136788E-14  0.12470028219E+03  0.14752740120E+03  0.78830030605E+02 0.  0.
         66    2    3    3    0    0 -0.97791126648E+01 -0.29232867018E+02  0.16497469850E+02  0.35019395610E+02  0.19999997010E+01 0.  0.
        -13    1    3    3    0    0  0.97791126648E+01  0.29232867018E+02  0.10820281234E+03  0.11250800559E+03  0.10566000000E+00 0.  1.
         13    1    4    4    0    0 -0.22554860332E-01 -0.10036536026E+00  0.68973429153E-01  0.16279833167E+00  0.10566000000E+00 0. -1.
        -13    1    4    4    0    0 -0.42996124685E+01 -0.12185256346E+02  0.63533211726E+01  0.14399409486E+02  0.10566000000E+00 0. -1.
         14    1    4    4    0    0 -0.54569453360E+01 -0.16947245311E+02  0.10075175249E+02  0.20457187791E+02  0.00000000000E+00 0. -1.
<mgrwt>
<rscale>  0 0.78830031E+02</rscale>
<asrwt>0</asrwt>
<pdfrwt beam="1">  1        2 0.17559323E-02 0.78830031E+02</pdfrwt>
<pdfrwt beam="2">  1       -1 0.20940590E-01 0.78830031E+02</pdfrwt>
<totfact> 0.11469045E+05</totfact>
</mgrwt>
</event>
<event>
 8    1  0.1024763E-013  0.8007079E+02  0.7818608E-02  0.1328851E+00
         -1   -1    0    0    0  501 -0.00000000000E+00  0.00000000000E+00  0.13254427049E+03  0.13254427059E+03  0.50400000000E-02 0.  1.
          2   -1    0    0  501    0  0.00000000000E+00 -0.00000000000E+00 -0.12092810236E+02  0.12092810505E+02  0.25500000000E-02 0. -1.
         24    2    1    2    0    0  0.00000000000E+00  0.00000000000E+00  0.12045146025E+03  0.14463708109E+03  0.80070787116E+02 0.  0.
         66    2    3    3    0    0 -0.13751826389E+02 -0.21098478102E+02  0.41038537800E+01  0.25594923838E+02  0.20000007971E+01 0.  0.
        -13    1    3    3    0    0  0.13751826389E+02  0.21098478102E+02  0.11634760647E+03  0.11904215725E+03  0.10566000000E+00 0.  1.
         13    1    4    4    0    0 -0.79546867999E+01 -0.12508099652E+02  0.23114355737E+01  0.15002782990E+02  0.10566000000E+00 0. -1.
        -13    1    4    4    0    0 -0.57507391460E+01 -0.85660407781E+01  0.16611112136E+01  0.10450765993E+02  0.10566000000E+00 0.  1.
        -14    1    4    4    0    0 -0.46400443339E-01 -0.24337671198E-01  0.13130699275E+00  0.14137485536E+00  0.00000000000E+00 0.  1.
<mgrwt>
<rscale>  0 0.80070787E+02</rscale>
<asrwt>0</asrwt>
<pdfrwt beam="1">  1        2 0.18604323E-02 0.80070787E+02</pdfrwt>
<pdfrwt beam="2">  1       -1 0.20391427E-01 0.80070787E+02</pdfrwt>
<totfact> 0.11097432E+05</totfact>
</mgrwt>
</event>
<event>
 8    1  0.7667702E-014  0.8013683E+02  0.7818608E-02  0.1328664E+00
         -1   -1    0    0    0  501 -0.00000000000E+00  0.00000000000E+00  0.52887619047E+02  0.52887619288E+02  0.50400000000E-02 0.  1.
          2   -1    0    0  501    0  0.00000000000E+00 -0.00000000000E+00 -0.30356399123E+02  0.30356399230E+02  0.25500000000E-02 0. -1.
         24    2    1    2    0    0  0.00000000000E+00 -0.17763568394E-14  0.22531219924E+02  0.83244018518E+02  0.80136825166E+02 0.  0.
         66    2    3    3    0    0 -0.36285185669E+02  0.15464236473E+02  0.18448076120E+02  0.43590008178E+02  0.19999979303E+01 0.  0.
        -13    1    3    3    0    0  0.36285185669E+02 -0.15464236473E+02  0.40831438045E+01  0.39654010340E+02  0.10566000000E+00 0.  1.
         13    1    4    4    0    0 -0.96101808043E+01  0.46872970306E+01  0.54788992726E+01  0.12014817095E+02  0.10566000000E+00 0. -1.
        -13    1    4    4    0    0 -0.69799564924E+01  0.28040025319E+01  0.38892816264E+01  0.84687601477E+01  0.10566000000E+00 0.  1.
        -14    1    4    4    0    0 -0.19695048372E+02  0.79729369107E+01  0.90798952207E+01  0.23106430935E+02  0.00000000000E+00 0.  1.
<mgrwt>
<rscale>  0 0.80136825E+02</rscale>
<asrwt>0</asrwt>
<pdfrwt beam="1">  1        2 0.46702153E-02 0.80136825E+02</pdfrwt>
<pdfrwt beam="2">  1       -1 0.81365567E-02 0.80136825E+02</pdfrwt>
<totfact> 0.13422227E+05</totfact>
</mgrwt>
</event>
<event>
 8    1  0.7667702E-014  0.7508031E+02  0.7818608E-02  0.1343623E+00
         -1   -1    0    0    0  501 -0.00000000000E+00  0.00000000000E+00  0.16482720734E+03  0.16482720742E+03  0.50400000000E-02 0.  1.
          2   -1    0    0  501    0  0.00000000000E+00 -0.00000000000E+00 -0.85499432095E+01  0.85499435898E+01  0.25500000000E-02 0. -1.
         24    2    1    2    0    0  0.00000000000E+00  0.00000000000E+00  0.15627726413E+03  0.17337715101E+03  0.75080311715E+02 0.  0.
         66    2    3    3    0    0 -0.27209172263E+02 -0.24330871003E+02  0.58205061326E+02  0.68732521590E+02  0.20000052717E+01 0.  0.
        -13    1    3    3    0    0  0.27209172263E+02  0.24330871003E+02  0.98072202809E+02  0.10464462942E+03  0.10566000000E+00 0.  1.
         13    1    4    4    0    0 -0.12584613651E+02 -0.11164172693E+02  0.26929752855E+02  0.31752700760E+02  0.10566000000E+00 0. -1.
        -13    1    4    4    0    0 -0.44578328894E+01 -0.48711258748E+01  0.10019861060E+02  0.12000371705E+02  0.10566000000E+00 0.  1.
        -14    1    4    4    0    0 -0.10166725723E+02 -0.82955724353E+01  0.21255447411E+02  0.24979449125E+02  0.00000000000E+00 0.  1.
<mgrwt>
<rscale>  0 0.75080312E+02</rscale>
<asrwt>0</asrwt>
<pdfrwt beam="1">  1        2 0.13153759E-02 0.75080312E+02</pdfrwt>
<pdfrwt beam="2">  1       -1 0.25358031E-01 0.75080312E+02</pdfrwt>
<totfact> 0.12358708E+05</totfact>
</mgrwt>
</event>
<event>
 8    1  0.7667702E-014  0.8453888E+02  0.7818608E-02  0.1316643E+00
         -1   -1    0    0    0  501 -0.00000000000E+00  0.00000000000E+00  0.15185796377E+02  0.15185797214E+02  0.50400000000E-02 0.  1.
          2   -1    0    0  501    0  0.00000000000E+00 -0.00000000000E+00 -0.11765634970E+03  0.11765634973E+03  0.25500000000E-02 0. -1.
         24    2    1    2    0    0 -0.35527136788E-14  0.00000000000E+00 -0.10247055333E+03  0.13284214694E+03  0.84538876891E+02 0.  0.
         66    2    3    3    0    0 -0.31420801276E+02  0.25881338983E+02 -0.69013434119E+02  0.80149638463E+02  0.19999991387E+01 0.  0.
        -13    1    3    3    0    0  0.31420801276E+02 -0.25881338983E+02 -0.33457119207E+02  0.52692508481E+02  0.10566000000E+00 0.  1.
         13    1    4    4    0    0 -0.10672785060E+02  0.89416640701E+01 -0.21889588515E+02  0.25942762896E+02  0.10566000000E+00 0.  1.
        -13    1    4    4    0    0 -0.88439923827E+01  0.73099898677E+01 -0.19687251055E+02  0.22787083430E+02  0.10566000000E+00 0. -1.
        -14    1    4    4    0    0 -0.11904023833E+02  0.96296850455E+01 -0.27436594549E+02  0.31419792137E+02  0.00000000000E+00 0.  1.
<mgrwt>
<rscale>  0 0.84538877E+02</rscale>
<asrwt>0</asrwt>
<pdfrwt beam="1">  1        2 0.18100976E-01 0.84538877E+02</pdfrwt>
<pdfrwt beam="2">  1       -1 0.23362765E-02 0.84538877E+02</pdfrwt>
<totfact> 0.16026113E+05</totfact>
</mgrwt>
</event>
<event>
 8    1  0.7667702E-014  0.7997222E+02  0.7818608E-02  0.1329130E+00
          2   -1    0    0  501    0  0.00000000000E+00  0.00000000000E+00  0.29033910534E+03  0.29033910536E+03  0.25500000000E-02 0. -1.
         -1   -1    0    0    0  501 -0.00000000000E+00 -0.00000000000E+00 -0.55069694924E+01  0.55069717987E+01  0.50400000000E-02 0.  1.
         24    2    1    2    0    0  0.00000000000E+00  0.00000000000E+00  0.28483213585E+03  0.29584607715E+03  0.79972218636E+02 0.  0.
         66    2    3    3    0    0 -0.31978351207E+02 -0.83909275939E+01  0.22554390856E+03  0.22796288578E+03  0.19999980736E+01 0.  0.
        -13    1    3    3    0    0  0.31978351207E+02  0.83909275939E+01  0.59288227290E+02  0.67883191374E+02  0.10566000000E+00 0.  1.
         13    1    4    4    0    0 -0.13801060470E+02 -0.43463908363E+01  0.10055886782E+03  0.10159457389E+03  0.10566000000E+00 0.  1.
        -13    1    4    4    0    0 -0.81434794266E+01 -0.22890487347E+01  0.57159620062E+02  0.57782257925E+02  0.10566000000E+00 0. -1.
        -14    1    4    4    0    0 -0.10033811310E+02 -0.17554880229E+01  0.67825420682E+02  0.68586053963E+02  0.00000000000E+00 0.  1.
<mgrwt>
<rscale>  0 0.79972219E+02</rscale>
<asrwt>0</asrwt>
<pdfrwt beam="1">  1        2 0.44667562E-01 0.79972219E+02</pdfrwt>
<pdfrwt beam="2">  1       -1 0.84722611E-03 0.79972219E+02</pdfrwt>
<totfact> 0.25216976E+05</totfact>
</mgrwt>
</event>
<event>
 8    1  0.7667702E-014  0.7967724E+02  0.7818608E-02  0.1329970E+00
          2   -1    0    0  501    0  0.00000000000E+00  0.00000000000E+00  0.11181534667E+02  0.11181534958E+02  0.25500000000E-02 0. -1.
         -1   -1    0    0    0  501 -0.00000000000E+00 -0.00000000000E+00 -0.14194075268E+03  0.14194075277E+03  0.50400000000E-02 0.  1.
         24    2    1    2    0    0  0.00000000000E+00  0.00000000000E+00 -0.13075921802E+03  0.15312228773E+03  0.79677235794E+02 0.  0.
         66    2    3    3    0    0  0.30704260590E+02 -0.25234532583E+01 -0.16955526846E+02  0.35222284666E+02  0.20000029399E+01 0.  0.
        -13    1    3    3    0    0 -0.30704260590E+02  0.25234532583E+01 -0.11380369117E+03  0.11790000307E+03  0.10566000000E+00 0.  1.
         13    1    4    4    0    0  0.19890770485E+02 -0.15668006089E+01 -0.11736508515E+02  0.23148529344E+02  0.10566000000E+00 0.  1.
        -13    1    4    4    0    0  0.84346494745E+01 -0.10869118232E+01 -0.40898071449E+01  0.94372864525E+01  0.10566000000E+00 0. -1.
        -14    1    4    4    0    0  0.23788406301E+01  0.13025917392E+00 -0.11292111859E+01  0.26364688692E+01  0.00000000000E+00 0.  1.
<mgrwt>
<rscale>  0 0.79677236E+02</rscale>
<asrwt>0</asrwt>
<pdfrwt beam="1">  1        2 0.17202362E-02 0.79677236E+02</pdfrwt>
<pdfrwt beam="2">  1       -1 0.21837038E-01 0.79677236E+02</pdfrwt>
<totfact> 0.11050177E+05</totfact>
</mgrwt>
</event>
<event>
 8    1  0.7667702E-014  0.7927482E+02  0.7818608E-02  0.1331122E+00
         -1   -1    0    0    0  501 -0.00000000000E+00  0.00000000000E+00  0.51183071796E+01  0.51183096610E+01  0.50400000000E-02 0.  1.
          2   -1    0    0  501    0  0.00000000000E+00 -0.00000000000E+00 -0.30696161817E+03  0.30696161818E+03  0.25500000000E-02 0. -1.
         24    2    1    2    0    0  0.00000000000E+00  0.17763568394E-14 -0.30184331099E+03  0.31207992784E+03  0.79274819280E+02 0.  0.
         66    2    3    3    0    0 -0.38141747152E+02  0.64243796309E+01 -0.11737001819E+03  0.12359525353E+03  0.19999989959E+01 0.  0.
        -13    1    3    3    0    0  0.38141747152E+02 -0.64243796309E+01 -0.18447329280E+03  0.18848467431E+03  0.10566000000E+00 0.  1.
         13    1    4    4    0    0 -0.98087994317E+01  0.15504246179E+01 -0.29659454893E+02  0.31277960154E+02  0.10566000000E+00 0. -1.
        -13    1    4    4    0    0 -0.15346396358E+02  0.28754587589E+01 -0.50187840186E+02  0.52560542338E+02  0.10566000000E+00 0.  1.
        -14    1    4    4    0    0 -0.12986551361E+02  0.19984962540E+01 -0.37522723113E+02  0.39756751041E+02  0.00000000000E+00 0.  1.
<mgrwt>
<rscale>  0 0.79274819E+02</rscale>
<asrwt>0</asrwt>
<pdfrwt beam="1">  1        2 0.47224850E-01 0.79274819E+02</pdfrwt>
<pdfrwt beam="2">  1       -1 0.78743231E-03 0.79274819E+02</pdfrwt>
<totfact> 0.26327657E+05</totfact>
</mgrwt>
</event>
<event>
 8    1  0.7667702E-014  0.7727632E+02  0.7818608E-02  0.1336963E+00
          2   -1    0    0  501    0  0.00000000000E+00  0.00000000000E+00  0.37027340066E+03  0.37027340066E+03  0.25500000000E-02 0. -1.
         -1   -1    0    0    0  501 -0.00000000000E+00 -0.00000000000E+00 -0.40319039249E+01  0.40319070749E+01  0.50400000000E-02 0.  1.
         24    2    1    2    0    0  0.44408920985E-15  0.00000000000E+00  0.36624149673E+03  0.37430530774E+03  0.77276318974E+02 0.  0.
         66    2    3    3    0    0  0.37572574416E+01  0.17321995554E+02  0.34940008814E+03  0.34985509873E+03  0.19999993993E+01 0.  0.
        -13    1    3    3    0    0 -0.37572574416E+01 -0.17321995554E+02  0.16841408586E+02  0.24450209010E+02  0.10566000000E+00 0.  1.
         13    1    4    4    0    0  0.19904758960E+01  0.74995052913E+01  0.14043203926E+03  0.14064627044E+03  0.10566000000E+00 0. -1.
        -13    1    4    4    0    0  0.35040651522E+00  0.47866711121E+01  0.97667161057E+02  0.97785073084E+02  0.10566000000E+00 0.  1.
        -14    1    4    4    0    0  0.14163750304E+01  0.50358191506E+01  0.11130088783E+03  0.11142375521E+03  0.00000000000E+00 0.  1.
<mgrwt>
<rscale>  0 0.77276319E+02</rscale>
<asrwt>0</asrwt>
<pdfrwt beam="1">  1        2 0.56965128E-01 0.77276319E+02</pdfrwt>
<pdfrwt beam="2">  1       -1 0.62029327E-03 0.77276319E+02</pdfrwt>
<totfact> 0.30096021E+05</totfact>
</mgrwt>
</event>
<event>
 8    1  0.7667702E-014  0.8135209E+02  0.7818608E-02  0.1325258E+00
          2   -1    0    0  501    0  0.00000000000E+00  0.00000000000E+00  0.47876637221E+03  0.47876637222E+03  0.25500000000E-02 0. -1.
         -1   -1    0    0    0  501 -0.00000000000E+00 -0.00000000000E+00 -0.34558393643E+01  0.34558430394E+01  0.50400000000E-02 0.  1.
         24    2    1    2    0    0  0.88817841970E-15  0.00000000000E+00  0.47531053285E+03  0.48222221526E+03  0.81352088188E+02 0.  0.
         66    2    3    3    0    0 -0.78123081955E+01 -0.33525771562E+02  0.36596703935E+03  0.36758792609E+03  0.20000000612E+01 0.  0.
        -13    1    3    3    0    0  0.78123081955E+01  0.33525771562E+02  0.10934349350E+03  0.11463428916E+03  0.10566000000E+00 0.  1.
         13    1    4    4    0    0 -0.25277465082E+01 -0.13457676682E+02  0.15216999247E+03  0.15278486946E+03  0.10566000000E+00 0. -1.
        -13    1    4    4    0    0 -0.41336214893E+01 -0.15156473790E+02  0.15896366404E+03  0.15973810808E+03  0.10566000000E+00 0.  1.
        -14    1    4    4    0    0 -0.11509401980E+01 -0.49116210901E+01  0.54833382845E+02  0.55064948554E+02  0.00000000000E+00 0.  1.
<mgrwt>
<rscale>  0 0.81352088E+02</rscale>
<asrwt>0</asrwt>
<pdfrwt beam="1">  1        2 0.73656337E-01 0.81352088E+02</pdfrwt>
<pdfrwt beam="2">  1       -1 0.53166808E-03 0.81352088E+02</pdfrwt>
<totfact> 0.28743224E+05</totfact>
</mgrwt>
</event>
<event>
 8    1  0.7667702E-014  0.7985081E+02  0.7818608E-02  0.1329475E+00
          2   -1    0    0  501    0  0.00000000000E+00  0.00000000000E+00  0.84499534171E+02  0.84499534210E+02  0.25500000000E-02 0. -1.
         -1   -1    0    0    0  501 -0.00000000000E+00 -0.00000000000E+00 -0.18864457163E+02  0.18864457836E+02  0.50400000000E-02 0.  1.
         24    2    1    2    0    0 -0.35527136788E-14  0.35527136788E-14  0.65635077008E+02  0.10336399205E+03  0.79850807872E+02 0.  0.
         66    2    3    3    0    0  0.26629912304E+02  0.24534159193E+02  0.54535529018E+02  0.65491992809E+02  0.20000000425E+01 0.  0.
        -13    1    3    3    0    0 -0.26629912304E+02 -0.24534159193E+02  0.11099547990E+02  0.37871999238E+02  0.10566000000E+00 0.  1.
         13    1    4    4    0    0  0.64167640001E+01  0.59147221028E+01  0.12526928899E+02  0.15267413319E+02  0.10566000000E+00 0. -1.
        -13    1    4    4    0    0  0.17147458343E+02  0.15696728642E+02  0.34448323193E+02  0.41558642333E+02  0.10566000000E+00 0.  1.
         14    1    4    4    0    0  0.30656899613E+01  0.29227084478E+01  0.75602769258E+01  0.86659371567E+01  0.00000000000E+00 0. -1.
<mgrwt>
<rscale>  0 0.79850808E+02</rscale>
<asrwt>0</asrwt>
<pdfrwt beam="1">  1        2 0.12999928E-01 0.79850808E+02</pdfrwt>
<pdfrwt beam="2">  1       -1 0.29022242E-02 0.79850808E+02</pdfrwt>
<totfact> 0.17019814E+05</totfact>
</mgrwt>
</event>
<event>
 8    1  0.7667702E-014  0.8286750E+02  0.7818608E-02  0.1321105E+00
         -1   -1    0    0    0  501 -0.00000000000E+00  0.00000000000E+00  0.92583324135E+00  0.92584695948E+00  0.50400000000E-02 0.  1.
          2   -1    0    0  501    0  0.00000000000E+00 -0.00000000000E+00 -0.18542678026E+04  0.18542678026E+04  0.25500000000E-02 0. -1.
         24    2    1    2    0    0  0.00000000000E+00 -0.17763568394E-14 -0.18533419694E+04  0.18551936496E+04  0.82867496561E+02 0.  0.
         66    2    3    3    0    0  0.15613364023E+02  0.13324188438E+02 -0.17323616115E+04  0.17324843618E+04  0.20000000367E+01 0.  0.
        -13    1    3    3    0    0 -0.15613364023E+02 -0.13324188438E+02 -0.12098035792E+03  0.12270928776E+03  0.10566000000E+00 0.  1.
         13    1    4    4    0    0  0.56402134868E+01  0.45513265879E+01 -0.59999361798E+03  0.60003739830E+03  0.10566000000E+00 0. -1.
        -13    1    4    4    0    0  0.37850093972E+01  0.31428883728E+01 -0.35908155516E+03  0.35911527183E+03  0.10566000000E+00 0. -1.
         14    1    4    4    0    0  0.61881411394E+01  0.56299734776E+01 -0.77328643833E+03  0.77333169171E+03  0.00000000000E+00 0. -1.
<mgrwt>
<rscale>  0 0.82867497E+02</rscale>
<asrwt>0</asrwt>
<pdfrwt beam="1">  1        2 0.28526900E+00 0.82867497E+02</pdfrwt>
<pdfrwt beam="2">  1       -1 0.14243842E-03 0.82867497E+02</pdfrwt>
<totfact> 0.26981113E+05</totfact>
</mgrwt>
</event>
<event>
 8    1  0.7667702E-014  0.7996710E+02  0.7818608E-02  0.1329145E+00
         -1   -1    0    0    0  501 -0.00000000000E+00  0.00000000000E+00  0.15856001643E+02  0.15856002444E+02  0.50400000000E-02 0.  1.
          2   -1    0    0  501    0  0.00000000000E+00 -0.00000000000E+00 -0.10082517613E+03  0.10082517616E+03  0.25500000000E-02 0. -1.
         24    2    1    2    0    0  0.17763568394E-14  0.35527136788E-14 -0.84969174486E+02  0.11668117860E+03  0.79967098408E+02 0.  0.
         66    2    3    3    0    0  0.15149730808E+02 -0.28865115176E+02 -0.76228009011E+02  0.82930202981E+02  0.19999977559E+01 0.  0.
        -13    1    3    3    0    0 -0.15149730808E+02  0.28865115176E+02 -0.87411654750E+01  0.33750975624E+02  0.10566000000E+00 0.  1.
         13    1    4    4    0    0  0.54548911635E+01 -0.93042074621E+01 -0.26180425994E+02  0.28315189976E+02  0.10566000000E+00 0. -1.
        -13    1    4    4    0    0  0.40354670289E+01 -0.86984420738E+01 -0.23312035582E+02  0.25207341305E+02  0.10566000000E+00 0.  1.
         14    1    4    4    0    0  0.56593726154E+01 -0.10862465640E+02 -0.26735547435E+02  0.29407671700E+02  0.00000000000E+00 0. -1.
<mgrwt>
<rscale>  0 0.79967098E+02</rscale>
<asrwt>0</asrwt>
<pdfrwt beam="1">  1        2 0.15511565E-01 0.79967098E+02</pdfrwt>
<pdfrwt beam="2">  1       -1 0.24393850E-02 0.79967098E+02</pdfrwt>
<totfact> 0.17786317E+05</totfact>
</mgrwt>
</event>
<event>
 8    1  0.7667702E-014  0.8598702E+02  0.7818608E-02  0.1312871E+00
          2   -1    0    0  501    0  0.00000000000E+00  0.00000000000E+00  0.11863945356E+04  0.11863945356E+04  0.25500000000E-02 0. -1.
         -1   -1    0    0    0  501 -0.00000000000E+00 -0.00000000000E+00 -0.15580288939E+01  0.15580370457E+01  0.50400000000E-02 0.  1.
         24    2    1    2    0    0  0.00000000000E+00  0.35527136788E-14  0.11848365067E+04  0.11879525726E+04  0.85987017847E+02 0.  0.
         66    2    3    3    0    0 -0.56954497681E+01 -0.28018261215E+02  0.10359062340E+04  0.10363026521E+04  0.20000005065E+01 0.  0.
        -13    1    3    3    0    0  0.56954497681E+01  0.28018261215E+02  0.14893027269E+03  0.15164992053E+03  0.10566000000E+00 0.  1.
         13    1    4    4    0    0 -0.29519074706E+01 -0.17644246540E+02  0.66544216651E+03  0.66568259804E+03  0.10566000000E+00 0. -1.
        -13    1    4    4    0    0 -0.94603230089E+00 -0.28408526500E+01  0.96000700245E+02  0.96047441572E+02  0.10566000000E+00 0.  1.
         14    1    4    4    0    0 -0.17975099965E+01 -0.75331620254E+01  0.27446336722E+03  0.27457261247E+03  0.00000000000E+00 0. -1.
<mgrwt>
<rscale>  0 0.85987018E+02</rscale>
<asrwt>0</asrwt>
<pdfrwt beam="1">  1        2 0.18252329E+00 0.85987018E+02</pdfrwt>
<pdfrwt beam="2">  1       -1 0.23969600E-03 0.85987018E+02</pdfrwt>
<totfact> 0.29065471E+05</totfact>
</mgrwt>
</event>
<event>
 8    1  0.7667702E-014  0.8018715E+02  0.7818608E-02  0.1328521E+00
         -1   -1    0    0    0  501 -0.00000000000E+00  0.00000000000E+00  0.63276822083E+01  0.63276842155E+01  0.50400000000E-02 0.  1.
          2   -1    0    0  501    0  0.00000000000E+00 -0.00000000000E+00 -0.25404157399E+03  0.25404157400E+03  0.25500000000E-02 0. -1.
         24    2    1    2    0    0  0.00000000000E+00  0.00000000000E+00 -0.24771389178E+03  0.26036925822E+03  0.80187146373E+02 0.  0.
         66    2    3    3    0    0 -0.12124451166E+02 -0.16699731580E+02 -0.23545396730E+03  0.23636508643E+03  0.20000037315E+01 0.  0.
        -13    1    3    3    0    0  0.12124451166E+02  0.16699731580E+02 -0.12259924482E+02  0.24004171789E+02  0.10566000000E+00 0.  1.
         13    1    4    4    0    0 -0.77948576523E+01 -0.10259297149E+02 -0.13750159749E+03  0.13810399509E+03  0.10566000000E+00 0.  1.
        -13    1    4    4    0    0 -0.76148456108E+00 -0.15329748658E+01 -0.22081748102E+02  0.22148242232E+02  0.10566000000E+00 0. -1.
         14    1    4    4    0    0 -0.35681089527E+01 -0.49074595652E+01 -0.75870621704E+02  0.76112849103E+02  0.00000000000E+00 0. -1.
<mgrwt>
<rscale>  0 0.80187146E+02</rscale>
<asrwt>0</asrwt>
<pdfrwt beam="1">  1        2 0.39083311E-01 0.80187146E+02</pdfrwt>
<pdfrwt beam="2">  1       -1 0.97348992E-03 0.80187146E+02</pdfrwt>
<totfact> 0.23858969E+05</totfact>
</mgrwt>
</event>
<event>
 8    1  0.7667702E-014  0.7578096E+02  0.7818608E-02  0.1341470E+00
          2   -1    0    0  501    0  0.00000000000E+00  0.00000000000E+00  0.17476240931E+03  0.17476240933E+03  0.25500000000E-02 0. -1.
         -1   -1    0    0    0  501 -0.00000000000E+00 -0.00000000000E+00 -0.82150857080E+01  0.82150872541E+01  0.50400000000E-02 0.  1.
         24    2    1    2    0    0  0.00000000000E+00  0.00000000000E+00  0.16654732360E+03  0.18297749658E+03  0.75780955766E+02 0.  0.
         66    2    3    3    0    0 -0.14778970074E+02 -0.19785251199E+02  0.15263432927E+03  0.15463218486E+03  0.20000002050E+01 0.  0.
        -13    1    3    3    0    0  0.14778970074E+02  0.19785251199E+02  0.13912994332E+02  0.28345311725E+02  0.10566000000E+00 0.  1.
         13    1    4    4    0    0 -0.77675820748E+01 -0.10783916235E+02  0.77698378681E+02  0.78826882435E+02  0.10566000000E+00 0. -1.
        -13    1    4    4    0    0 -0.10618631519E+01 -0.99960184885E+00  0.83885439406E+01  0.85150214731E+01  0.10566000000E+00 0.  1.
         14    1    4    4    0    0 -0.59495248475E+01 -0.80017331153E+01  0.66547406650E+02  0.67290280952E+02  0.00000000000E+00 0. -1.
<mgrwt>
<rscale>  0 0.75780956E+02</rscale>
<asrwt>0</asrwt>
<pdfrwt beam="1">  1        2 0.26886521E-01 0.75780956E+02</pdfrwt>
<pdfrwt beam="2">  1       -1 0.12638596E-02 0.75780956E+02</pdfrwt>
<totfact> 0.24298996E+05</totfact>
</mgrwt>
</event>
<event>
 8    1  0.7667702E-014  0.7558111E+02  0.7818608E-02  0.1342081E+00
         -1   -1    0    0    0  501 -0.00000000000E+00  0.00000000000E+00  0.55808100410E+01  0.55808123168E+01  0.50400000000E-02 0.  1.
          2   -1    0    0  501    0  0.00000000000E+00 -0.00000000000E+00 -0.25589933531E+03  0.25589933532E+03  0.25500000000E-02 0. -1.
         24    2    1    2    0    0 -0.71054273576E-14  0.00000000000E+00 -0.25031852527E+03  0.26148014764E+03  0.75581105553E+02 0.  0.
         66    2    3    3    0    0  0.23844777528E+02  0.27046333525E+02 -0.16408722341E+03  0.16801397110E+03  0.20000064640E+01 0.  0.
        -13    1    3    3    0    0 -0.23844777528E+02 -0.27046333525E+02 -0.86231301855E+02  0.93466176536E+02  0.10566000000E+00 0.  1.
         13    1    4    4    0    0  0.29267420756E+01  0.28628630442E+01 -0.16744550134E+02  0.17238124237E+02  0.10566000000E+00 0. -1.
        -13    1    4    4    0    0  0.93014479161E+01  0.10306840655E+02 -0.65947353392E+02  0.67392970562E+02  0.10566000000E+00 0.  1.
         14    1    4    4    0    0  0.11616587536E+02  0.13876629826E+02 -0.81395319887E+02  0.83382876304E+02  0.00000000000E+00 0. -1.
<mgrwt>
<rscale>  0 0.75581106E+02</rscale>
<asrwt>0</asrwt>
<pdfrwt beam="1">  1        2 0.39369120E-01 0.75581106E+02</pdfrwt>
<pdfrwt beam="2">  1       -1 0.85858654E-03 0.75581106E+02</pdfrwt>
<totfact> 0.27932848E+05</totfact>
</mgrwt>
</event>
<event>
 8    1  0.7667702E-014  0.8121890E+02  0.7818608E-02  0.1325628E+00
          2   -1    0    0  501    0  0.00000000000E+00  0.00000000000E+00  0.12726326627E+02  0.12726326883E+02  0.25500000000E-02 0. -1.
         -1   -1    0    0    0  501 -0.00000000000E+00 -0.00000000000E+00 -0.12958391403E+03  0.12958391413E+03  0.50400000000E-02 0.  1.
         24    2    1    2    0    0  0.00000000000E+00  0.00000000000E+00 -0.11685758740E+03  0.14231024101E+03  0.81218895357E+02 0.  0.
         66    2    3    3    0    0 -0.35246378432E+02 -0.93371336118E+01 -0.27236289224E+02  0.45555512403E+02  0.20000007403E+01 0.  0.
        -13    1    3    3    0    0  0.35246378432E+02  0.93371336118E+01 -0.89621298180E+02  0.96754728609E+02  0.10566000000E+00 0.  1.
         13    1    4    4    0    0 -0.19874875948E+02 -0.53837851413E+01 -0.15166797221E+02  0.25574181089E+02  0.10566000000E+00 0. -1.
        -13    1    4    4    0    0 -0.13600433233E+02 -0.32166893538E+01 -0.10996107622E+02  0.17783262395E+02  0.10566000000E+00 0.  1.
        -14    1    4    4    0    0 -0.17710692508E+01 -0.73665911668E+00 -0.10733843819E+01  0.21980689199E+01  0.00000000000E+00 0.  1.
<mgrwt>
<rscale>  0 0.81218895E+02</rscale>
<asrwt>0</asrwt>
<pdfrwt beam="1">  1        2 0.19578965E-02 0.81218895E+02</pdfrwt>
<pdfrwt beam="2">  1       -1 0.19935986E-01 0.81218895E+02</pdfrwt>
<totfact> 0.10764765E+05</totfact>
</mgrwt>
</event>
<event>
 8    1  0.7667702E-014  0.8043895E+02  0.7818608E-02  0.1327810E+00
         -1   -1    0    0    0  501 -0.00000000000E+00  0.00000000000E+00  0.90270840526E+02  0.90270840667E+02  0.50400000000E-02 0.  1.
          2   -1    0    0  501    0  0.00000000000E+00 -0.00000000000E+00 -0.17919474064E+02  0.17919474246E+02  0.25500000000E-02 0. -1.
         24    2    1    2    0    0  0.00000000000E+00  0.00000000000E+00  0.72351366462E+02  0.10819031491E+03  0.80438945866E+02 0.  0.
         66    2    3    3    0    0  0.18304613384E+02 -0.35545901686E+02  0.30647350683E+02  0.50416565736E+02  0.19999997363E+01 0.  0.
        -13    1    3    3    0    0 -0.18304613384E+02  0.35545901686E+02  0.41704015779E+02  0.57773749177E+02  0.10566000000E+00 0.  1.
         13    1    4    4    0    0  0.99574883338E+00 -0.19672943602E+01  0.17218524521E+01  0.27995897452E+01  0.10566000000E+00 0. -1.
        -13    1    4    4    0    0  0.10056020616E+02 -0.18473409141E+02  0.17113052434E+02  0.27115643521E+02  0.10566000000E+00 0.  1.
        -14    1    4    4    0    0  0.72528439350E+01 -0.15105198184E+02  0.11812445797E+02  0.20501332470E+02  0.00000000000E+00 0.  1.
<mgrwt>
<rscale>  0 0.80438946E+02</rscale>
<asrwt>0</asrwt>
<pdfrwt beam="1">  1        2 0.27568421E-02 0.80438946E+02</pdfrwt>
<pdfrwt beam="2">  1       -1 0.13887822E-01 0.80438946E+02</pdfrwt>
<totfact> 0.11948561E+05</totfact>
</mgrwt>
</event>
<event>
 8    1  0.7667702E-014  0.7836686E+02  0.7818608E-02  0.1333751E+00
         -1   -1    0    0    0  501 -0.00000000000E+00  0.00000000000E+00  0.57174475831E+03  0.57174475833E+03  0.50400000000E-02 0.  1.
          2   -1    0    0  501    0  0.00000000000E+00 -0.00000000000E+00 -0.26853607563E+01  0.26853619670E+01  0.25500000000E-02 0. -1.
         24    2    1    2    0    0  0.17763568394E-14 -0.71054273576E-14  0.56905939755E+03  0.57443012030E+03  0.78366862657E+02 0.  0.
         66    2    3    3    0    0  0.13579379498E+02 -0.35377964893E+02  0.35703183483E+03  0.35904279832E+03  0.20000003283E+01 0.  0.
        -13    1    3    3    0    0 -0.13579379498E+02  0.35377964893E+02  0.21202756272E+03  0.21538732197E+03  0.10566000000E+00 0.  1.
         13    1    4    4    0    0  0.99045379429E+01 -0.24359074839E+02  0.24826592792E+03  0.24965465453E+03  0.10566000000E+00 0. -1.
        -13    1    4    4    0    0  0.78349897328E+00 -0.33702277964E+01  0.30101852167E+02  0.30300247094E+02  0.10566000000E+00 0.  1.
        -14    1    4    4    0    0  0.28913425814E+01 -0.76486622572E+01  0.78664054742E+02  0.79087896701E+02  0.00000000000E+00 0.  1.
<mgrwt>
<rscale>  0 0.78366863E+02</rscale>
<asrwt>0</asrwt>
<pdfrwt beam="1">  1        2 0.41313238E-03 0.78366863E+02</pdfrwt>
<pdfrwt beam="2">  1       -1 0.87960762E-01 0.78366863E+02</pdfrwt>
<totfact> 0.64443029E+04</totfact>
</mgrwt>
</event>
<event>
 8    1  0.7667702E-014  0.8029030E+02  0.7818608E-02  0.1328230E+00
          2   -1    0    0  501    0  0.00000000000E+00  0.00000000000E+00  0.14305398338E+03  0.14305398340E+03  0.25500000000E-02 0. -1.
         -1   -1    0    0    0  501 -0.00000000000E+00 -0.00000000000E+00 -0.11265908967E+02  0.11265910095E+02  0.50400000000E-02 0.  1.
         24    2    1    2    0    0  0.35527136788E-14  0.35527136788E-14  0.13178807441E+03  0.15431989350E+03  0.80290304343E+02 0.  0.
         66    2    3    3    0    0  0.27450924790E+02  0.12742585403E+02  0.11655748976E+03  0.12043909322E+03  0.20000002652E+01 0.  0.
        -13    1    3    3    0    0 -0.27450924790E+02 -0.12742585403E+02  0.15230584647E+02  0.33880800276E+02  0.10566000000E+00 0.  1.
         13    1    4    4    0    0  0.31158577439E+01  0.15666074303E+01  0.15772563999E+02  0.16153877784E+02  0.10566000000E+00 0. -1.
        -13    1    4    4    0    0  0.18244890699E+01  0.67169154616E+00  0.68708361711E+01  0.71413922749E+01  0.10566000000E+00 0.  1.
         14    1    4    4    0    0  0.22510577976E+02  0.10504286426E+02  0.93914089593E+02  0.97143823161E+02  0.00000000000E+00 0. -1.
<mgrwt>
<rscale>  0 0.80290304E+02</rscale>
<asrwt>0</asrwt>
<pdfrwt beam="1">  1        2 0.22008306E-01 0.80290304E+02</pdfrwt>
<pdfrwt beam="2">  1       -1 0.17332168E-02 0.80290304E+02</pdfrwt>
<totfact> 0.19539526E+05</totfact>
</mgrwt>
</event>
<event>
 8    1  0.7667702E-014  0.7753884E+02  0.7818608E-02  0.1336185E+00
         -1   -1    0    0    0  501 -0.00000000000E+00  0.00000000000E+00  0.58912445979E+01  0.58912467538E+01  0.50400000000E-02 0.  1.
          2   -1    0    0  501    0  0.00000000000E+00 -0.00000000000E+00 -0.25513581836E+03  0.25513581837E+03  0.25500000000E-02 0. -1.
         24    2    1    2    0    0  0.00000000000E+00  0.00000000000E+00 -0.24924457376E+03  0.26102706512E+03  0.77538836583E+02 0.  0.
         66    2    3    3    0    0 -0.16984917181E+02  0.96240551466E+01 -0.23736403788E+03  0.23817387834E+03  0.19999998891E+01 0.  0.
        -13    1    3    3    0    0  0.16984917181E+02 -0.96240551466E+01 -0.11880535884E+02  0.22853186781E+02  0.10566000000E+00 0.  1.
         13    1    4    4    0    0 -0.94404207489E+01  0.60375377790E+01 -0.14075454096E+03  0.14119994820E+03  0.10566000000E+00 0. -1.
        -13    1    4    4    0    0 -0.23916896007E+00  0.77635451127E-02 -0.34845398062E+01  0.34943445395E+01  0.10566000000E+00 0.  1.
         14    1    4    4    0    0 -0.73053274716E+01  0.35787538224E+01 -0.93124957111E+02  0.93479585607E+02  0.00000000000E+00 0. -1.
<mgrwt>
<rscale>  0 0.77538837E+02</rscale>
<asrwt>0</asrwt>
<pdfrwt beam="1">  1        2 0.39251656E-01 0.77538837E+02</pdfrwt>
<pdfrwt beam="2">  1       -1 0.90634569E-03 0.77538837E+02</pdfrwt>
<totfact> 0.26097334E+05</totfact>
</mgrwt>
</event>
<event>
 8    1  0.7667702E-014  0.8348625E+02  0.7818608E-02  0.1319439E+00
         -1   -1    0    0    0  501 -0.00000000000E+00  0.00000000000E+00  0.53909339318E+01  0.53909362877E+01  0.50400000000E-02 0.  1.
          2   -1    0    0  501    0  0.00000000000E+00 -0.00000000000E+00 -0.32322567894E+03  0.32322567895E+03  0.25500000000E-02 0. -1.
         24    2    1    2    0    0  0.00000000000E+00  0.35527136788E-14 -0.31783474501E+03  0.32861661524E+03  0.83486254413E+02 0.  0.
         66    2    3    3    0    0 -0.54130335820E+01 -0.20187734778E+02 -0.30112761999E+03  0.30185872372E+03  0.19999993931E+01 0.  0.
        -13    1    3    3    0    0  0.54130335820E+01  0.20187734778E+02 -0.16707125019E+02  0.26757891518E+02  0.10566000000E+00 0.  1.
         13    1    4    4    0    0 -0.80256117515E+00 -0.51413175799E+01 -0.69839043601E+02  0.70032709687E+02  0.10566000000E+00 0. -1.
        -13    1    4    4    0    0 -0.25521544891E+01 -0.79847889331E+01 -0.11518935875E+03  0.11549402530E+03  0.10566000000E+00 0.  1.
        -14    1    4    4    0    0 -0.20583179177E+01 -0.70616282653E+01 -0.11609921764E+03  0.11633198874E+03  0.00000000000E+00 0.  1.
<mgrwt>
<rscale>  0 0.83486254E+02</rscale>
<asrwt>0</asrwt>
<pdfrwt beam="1">  1        2 0.49727012E-01 0.83486254E+02</pdfrwt>
<pdfrwt beam="2">  1       -1 0.82937489E-03 0.83486254E+02</pdfrwt>
<totfact> 0.23416725E+05</totfact>
</mgrwt>
</event>
<event>
 8    1  0.7667702E-014  0.8165211E+02  0.7818608E-02  0.1324427E+00
          2   -1    0    0  501    0  0.00000000000E+00  0.00000000000E+00  0.60474181412E+02  0.60474181466E+02  0.25500000000E-02 0. -1.
         -1   -1    0    0    0  501 -0.00000000000E+00 -0.00000000000E+00 -0.27561622642E+02  0.27561623103E+02  0.50400000000E-02 0.  1.
         24    2    1    2    0    0  0.00000000000E+00 -0.35527136788E-14  0.32912558770E+02  0.88035804569E+02  0.81652105676E+02 0.  0.
         66    2    3    3    0    0  0.75015490294E+01 -0.20684296232E+02  0.53513054049E+02  0.57894389236E+02  0.20000007366E+01 0.  0.
        -13    1    3    3    0    0 -0.75015490294E+01  0.20684296232E+02 -0.20600495279E+02  0.30141415332E+02  0.10566000000E+00 0.  1.
         13    1    4    4    0    0  0.45210657083E+01 -0.13093097615E+02  0.32232371286E+02  0.35082847135E+02  0.10566000000E+00 0. -1.
        -13    1    4    4    0    0  0.25441893878E+00 -0.17271559556E+01  0.44912985718E+01  0.48198260952E+01  0.10566000000E+00 0.  1.
        -14    1    4    4    0    0  0.27260643824E+01 -0.58640426612E+01  0.16789384191E+02  0.17991716006E+02  0.00000000000E+00 0.  1.
<mgrwt>
<rscale>  0 0.81652106E+02</rscale>
<asrwt>0</asrwt>
<pdfrwt beam="1">  1        2 0.93037202E-02 0.81652106E+02</pdfrwt>
<pdfrwt beam="2">  1       -1 0.42402497E-02 0.81652106E+02</pdfrwt>
<totfact> 0.14750045E+05</totfact>
</mgrwt>
</event>
<event>
 8    1  0.7667702E-014  0.7807534E+02  0.7818608E-02  0.1334604E+00
         -1   -1    0    0    0  501 -0.00000000000E+00  0.00000000000E+00  0.92724711743E+01  0.92724725441E+01  0.50400000000E-02 0.  1.
          2   -1    0    0  501    0  0.00000000000E+00 -0.00000000000E+00 -0.16435094890E+03  0.16435094892E+03  0.25500000000E-02 0. -1.
         24    2    1    2    0    0  0.17763568394E-14  0.35527136788E-14 -0.15507847772E+03  0.17362342146E+03  0.78075336868E+02 0.  0.
         66    2    3    3    0    0 -0.13521238194E+02 -0.29627608816E+02 -0.12535318545E+03  0.12953007444E+03  0.19999991598E+01 0.  0.
        -13    1    3    3    0    0  0.13521238194E+02  0.29627608816E+02 -0.29725292273E+02  0.44093347017E+02  0.10566000000E+00 0.  1.
         13    1    4    4    0    0 -0.26256629225E+01 -0.51434817767E+01 -0.24398939995E+02  0.25073271575E+02  0.10566000000E+00 0. -1.
        -13    1    4    4    0    0 -0.71147009346E+01 -0.14841528377E+02 -0.63068124274E+02  0.65180437229E+02  0.10566000000E+00 0.  1.
        -14    1    4    4    0    0 -0.37808743366E+01 -0.96425986623E+01 -0.37886121182E+02  0.39276365641E+02  0.00000000000E+00 0.  1.
<mgrwt>
<rscale>  0 0.78075337E+02</rscale>
<asrwt>0</asrwt>
<pdfrwt beam="1">  1        2 0.25284759E-01 0.78075337E+02</pdfrwt>
<pdfrwt beam="2">  1       -1 0.14265343E-02 0.78075337E+02</pdfrwt>
<totfact> 0.22009508E+05</totfact>
</mgrwt>
</event>
<event>
 8    1  0.7667702E-014  0.8027495E+02  0.7818608E-02  0.1328273E+00
         -1   -1    0    0    0  501 -0.00000000000E+00  0.00000000000E+00  0.10019362923E+02  0.10019364190E+02  0.50400000000E-02 0.  1.
          2   -1    0    0  501    0  0.00000000000E+00 -0.00000000000E+00 -0.16079033064E+03  0.16079033066E+03  0.25500000000E-02 0. -1.
         24    2    1    2    0    0  0.00000000000E+00  0.71054273576E-14 -0.15077096772E+03  0.17080969485E+03  0.80274947204E+02 0.  0.
         66    2    3    3    0    0 -0.29975219181E+02 -0.25768823535E+02 -0.89936526831E+02  0.98260495039E+02  0.19999989016E+01 0.  0.
        -13    1    3    3    0    0  0.29975219181E+02  0.25768823535E+02 -0.60834440888E+02  0.72549199813E+02  0.10566000000E+00 0.  1.
         13    1    4    4    0    0 -0.11858474283E+02 -0.97680860407E+01 -0.34355809039E+02  0.37634713975E+02  0.10566000000E+00 0. -1.
        -13    1    4    4    0    0 -0.25496205559E+00 -0.40994111243E+00 -0.14017463054E+01  0.14863088864E+01  0.10566000000E+00 0.  1.
         14    1    4    4    0    0 -0.17861782842E+02 -0.15590796382E+02 -0.54178971487E+02  0.59139472178E+02  0.00000000000E+00 0. -1.
<mgrwt>
<rscale>  0 0.80274947E+02</rscale>
<asrwt>0</asrwt>
<pdfrwt beam="1">  1        2 0.24736972E-01 0.80274947E+02</pdfrwt>
<pdfrwt beam="2">  1       -1 0.15414407E-02 0.80274947E+02</pdfrwt>
<totfact> 0.20302547E+05</totfact>
</mgrwt>
</event>
<event>
 8    1  0.7667702E-014  0.7726670E+02  0.7818608E-02  0.1336992E+00
          2   -1    0    0  501    0  0.00000000000E+00  0.00000000000E+00  0.14355333477E+03  0.14355333480E+03  0.25500000000E-02 0. -1.
         -1   -1    0    0    0  501 -0.00000000000E+00 -0.00000000000E+00 -0.10397080717E+02  0.10397081938E+02  0.50400000000E-02 0.  1.
         24    2    1    2    0    0  0.00000000000E+00  0.00000000000E+00  0.13315625406E+03  0.15395041673E+03  0.77266699284E+02 0.  0.
         66    2    3    3    0    0  0.27364619701E+02  0.17598344223E+02  0.10803532799E+03  0.11284571845E+03  0.19999868270E+01 0.  0.
        -13    1    3    3    0    0 -0.27364619701E+02 -0.17598344223E+02  0.25120926067E+02  0.41104698287E+02  0.10566000000E+00 0.  1.
         13    1    4    4    0    0  0.15037913816E+02  0.90078846251E+01  0.56656561401E+02  0.59306474783E+02  0.10566000000E+00 0. -1.
        -13    1    4    4    0    0  0.75737368106E+01  0.49885576091E+01  0.32410651643E+02  0.33655737999E+02  0.10566000000E+00 0.  1.
         14    1    4    4    0    0  0.47529690737E+01  0.36019019887E+01  0.18968114945E+02  0.19883505665E+02  0.00000000000E+00 0. -1.
<mgrwt>
<rscale>  0 0.77266699E+02</rscale>
<asrwt>0</asrwt>
<pdfrwt beam="1">  1        2 0.22085127E-01 0.77266699E+02</pdfrwt>
<pdfrwt beam="2">  1       -1 0.15995511E-02 0.77266699E+02</pdfrwt>
<totfact> 0.21656883E+05</totfact>
</mgrwt>
</event>
<event>
 8    1  0.7667702E-014  0.7878799E+02  0.7818608E-02  0.1332527E+00
          2   -1    0    0  501    0  0.00000000000E+00  0.00000000000E+00  0.68292387848E+02  0.68292387896E+02  0.25500000000E-02 0. -1.
         -1   -1    0    0    0  501 -0.00000000000E+00 -0.00000000000E+00 -0.22724154636E+02  0.22724155195E+02  0.50400000000E-02 0.  1.
         24    2    1    2    0    0  0.00000000000E+00 -0.71054273576E-14  0.45568233213E+02  0.91016543090E+02  0.78787989174E+02 0.  0.
         66    2    3    3    0    0  0.19315406399E+01  0.34729097196E+02  0.44101025642E+02  0.56202682297E+02  0.19999983427E+01 0.  0.
        -13    1    3    3    0    0 -0.19315406399E+01 -0.34729097196E+02  0.14672075708E+01  0.34813860794E+02  0.10566000000E+00 0.  1.
         13    1    4    4    0    0  0.34521209759E+00  0.23838665862E+01  0.37039520505E+01  0.44195493120E+01  0.10566000000E+00 0. -1.
        -13    1    4    4    0    0  0.92684700678E-01  0.41861319879E+01  0.48042042698E+01  0.63736829365E+01  0.10566000000E+00 0.  1.
         14    1    4    4    0    0  0.14936438416E+01  0.28159098622E+02  0.35592869322E+02  0.45409450048E+02  0.00000000000E+00 0. -1.
<mgrwt>
<rscale>  0 0.78787989E+02</rscale>
<asrwt>0</asrwt>
<pdfrwt beam="1">  1        2 0.10506521E-01 0.78787989E+02</pdfrwt>
<pdfrwt beam="2">  1       -1 0.34960239E-02 0.78787989E+02</pdfrwt>
<totfact> 0.16726842E+05</totfact>
</mgrwt>
</event>
<event>
 8    1  0.7667702E-014  0.7998314E+02  0.7818608E-02  0.1329099E+00
         -1   -1    0    0    0  501 -0.00000000000E+00  0.00000000000E+00  0.21134521189E+01  0.21134581284E+01  0.50400000000E-02 0.  1.
          2   -1    0    0  501    0  0.00000000000E+00 -0.00000000000E+00 -0.75673510771E+03  0.75673510772E+03  0.25500000000E-02 0. -1.
         24    2    1    2    0    0  0.00000000000E+00 -0.71054273576E-14 -0.75462165559E+03  0.75884856584E+03  0.79983140690E+02 0.  0.
         66    2    3    3    0    0  0.24104719276E+01  0.33426113576E+02 -0.58415062919E+03  0.58511458112E+03  0.20000011368E+01 0.  0.
        -13    1    3    3    0    0 -0.24104719276E+01 -0.33426113576E+02 -0.17047102640E+03  0.17373398473E+03  0.10566000000E+00 0.  1.
         13    1    4    4    0    0  0.85194382666E+00  0.12806722474E+02 -0.23573636203E+03  0.23608553851E+03  0.10566000000E+00 0. -1.
        -13    1    4    4    0    0 -0.65355423941E-01  0.14808189464E+01 -0.28463532242E+02  0.28502296886E+02  0.10566000000E+00 0.  1.
         14    1    4    4    0    0  0.16238835249E+01  0.19138572155E+02 -0.31995073493E+03  0.32052674572E+03  0.00000000000E+00 0. -1.
<mgrwt>
<rscale>  0 0.79983141E+02</rscale>
<asrwt>0</asrwt>
<pdfrwt beam="1">  1        2 0.11642057E+00 0.79983141E+02</pdfrwt>
<pdfrwt beam="2">  1       -1 0.32514755E-03 0.79983141E+02</pdfrwt>
<totfact> 0.34032044E+05</totfact>
</mgrwt>
</event>
<event>
 8    1  0.7667702E-014  0.7986324E+02  0.7818608E-02  0.1329440E+00
          2   -1    0    0  501    0  0.00000000000E+00  0.00000000000E+00  0.27799477294E+03  0.27799477295E+03  0.25500000000E-02 0. -1.
         -1   -1    0    0    0  501 -0.00000000000E+00 -0.00000000000E+00 -0.57358411932E+01  0.57358434075E+01  0.50400000000E-02 0.  1.
         24    2    1    2    0    0  0.00000000000E+00  0.00000000000E+00  0.27225893174E+03  0.28373061636E+03  0.79863237748E+02 0.  0.
         66    2    3    3    0    0  0.78899621073E+01  0.15130259179E+02  0.26437588256E+03  0.26493354548E+03  0.20000000175E+01 0.  0.
        -13    1    3    3    0    0 -0.78899621073E+01 -0.15130259179E+02  0.78830491874E+01  0.18797070873E+02  0.10566000000E+00 0.  1.
         13    1    4    4    0    0  0.13759369393E+01  0.29565962929E+01  0.54366172633E+02  0.54463993196E+02  0.10566000000E+00 0. -1.
        -13    1    4    4    0    0  0.33706561947E+01  0.76812366017E+01  0.11977578696E+03  0.12006920099E+03  0.10566000000E+00 0.  1.
        -14    1    4    4    0    0  0.31433689733E+01  0.44924262841E+01  0.90233922960E+02  0.90400351300E+02  0.00000000000E+00 0.  1.
<mgrwt>
<rscale>  0 0.79863238E+02</rscale>
<asrwt>0</asrwt>
<pdfrwt beam="1">  1        2 0.42768432E-01 0.79863238E+02</pdfrwt>
<pdfrwt beam="2">  1       -1 0.88243717E-03 0.79863238E+02</pdfrwt>
<totfact> 0.24912137E+05</totfact>
</mgrwt>
</event>
<event>
 8    1  0.7667702E-014  0.7960375E+02  0.7818608E-02  0.1330180E+00
         -1   -1    0    0    0  501 -0.00000000000E+00  0.00000000000E+00  0.92916244153E+01  0.92916257822E+01  0.50400000000E-02 0.  1.
          2   -1    0    0  501    0  0.00000000000E+00 -0.00000000000E+00 -0.17049645782E+03  0.17049645784E+03  0.25500000000E-02 0. -1.
         24    2    1    2    0    0  0.00000000000E+00 -0.35527136788E-14 -0.16120483340E+03  0.17978808362E+03  0.79603748022E+02 0.  0.
         66    2    3    3    0    0 -0.20396808286E+01 -0.26245636366E+02 -0.14800116782E+03  0.15033741852E+03  0.20000012306E+01 0.  0.
        -13    1    3    3    0    0  0.20396808286E+01  0.26245636366E+02 -0.13203665589E+02  0.29450665106E+02  0.10566000000E+00 0.  1.
         13    1    4    4    0    0 -0.12724175444E+01 -0.19441672968E+02 -0.11236862208E+03  0.11404523702E+03  0.10566000000E+00 0. -1.
        -13    1    4    4    0    0 -0.59183047960E+00 -0.47030781910E+01 -0.26357798016E+02  0.26780849279E+02  0.10566000000E+00 0.  1.
        -14    1    4    4    0    0 -0.17543280466E+00 -0.21008852077E+01 -0.92747477171E+01  0.95113322169E+01  0.00000000000E+00 0.  1.
<mgrwt>
<rscale>  0 0.79603748E+02</rscale>
<asrwt>0</asrwt>
<pdfrwt beam="1">  1        2 0.26230222E-01 0.79603748E+02</pdfrwt>
<pdfrwt beam="2">  1       -1 0.14294809E-02 0.79603748E+02</pdfrwt>
<totfact> 0.21165916E+05</totfact>
</mgrwt>
</event>
<event>
 8    1  0.7667702E-014  0.7998353E+02  0.7818608E-02  0.1329098E+00
         -1   -1    0    0    0  501 -0.00000000000E+00  0.00000000000E+00  0.12423979288E+03  0.12423979299E+03  0.50400000000E-02 0.  1.
          2   -1    0    0  501    0  0.00000000000E+00 -0.00000000000E+00 -0.12873019403E+02  0.12873019655E+02  0.25500000000E-02 0. -1.
         24    2    1    2    0    0 -0.35527136788E-14  0.00000000000E+00  0.11136677348E+03  0.13711281264E+03  0.79983530522E+02 0.  0.
         66    2    3    3    0    0  0.31430642128E+02  0.21262445260E+02  0.77222337707E+02  0.86065476752E+02  0.20000011379E+01 0.  0.
        -13    1    3    3    0    0 -0.31430642128E+02 -0.21262445260E+02  0.34144435774E+02  0.51047335889E+02  0.10566000000E+00 0.  1.
         13    1    4    4    0    0  0.78133139005E+01  0.44889078490E+01  0.17996491344E+02  0.20126674651E+02  0.10566000000E+00 0. -1.
        -13    1    4    4    0    0  0.47107734042E+01  0.38153103424E+01  0.12028028217E+02  0.13469692123E+02  0.10566000000E+00 0.  1.
         14    1    4    4    0    0  0.18906554823E+02  0.12958227069E+02  0.47197818147E+02  0.52469109978E+02  0.00000000000E+00 0. -1.
<mgrwt>
<rscale>  0 0.79983531E+02</rscale>
<asrwt>0</asrwt>
<pdfrwt beam="1">  1        2 0.19804645E-02 0.79983531E+02</pdfrwt>
<pdfrwt beam="2">  1       -1 0.19113815E-01 0.79983531E+02</pdfrwt>
<totfact> 0.11299379E+05</totfact>
</mgrwt>
</event>
<event>
 8    1  0.7667702E-014  0.8106398E+02  0.7818608E-02  0.1326059E+00
         -1   -1    0    0    0  501 -0.00000000000E+00  0.00000000000E+00  0.15551802596E+01  0.15551884264E+01  0.50400000000E-02 0.  1.
          2   -1    0    0  501    0  0.00000000000E+00 -0.00000000000E+00 -0.10563649317E+04  0.10563649317E+04  0.25500000000E-02 0. -1.
         24    2    1    2    0    0  0.00000000000E+00  0.00000000000E+00 -0.10548097515E+04  0.10579201202E+04  0.81063979924E+02 0.  0.
         66    2    3    3    0    0  0.29058840497E+02  0.39570402707E+01 -0.89238198796E+03  0.89286599600E+03  0.20000000520E+01 0.  0.
        -13    1    3    3    0    0 -0.29058840497E+02 -0.39570402707E+01 -0.16242776351E+03  0.16505412416E+03  0.10566000000E+00 0.  1.
         13    1    4    4    0    0  0.20258636158E+02  0.33356972331E+01 -0.63685296995E+03  0.63718384766E+03  0.10566000000E+00 0. -1.
        -13    1    4    4    0    0  0.76662657568E+01  0.59119193102E+00 -0.22844353957E+03  0.22857292725E+03  0.10566000000E+00 0.  1.
        -14    1    4    4    0    0  0.11339385829E+01  0.30151106667E-01 -0.27085478442E+02  0.27109221092E+02  0.00000000000E+00 0.  1.
<mgrwt>
<rscale>  0 0.81063980E+02</rscale>
<asrwt>0</asrwt>
<pdfrwt beam="1">  1        2 0.16251711E+00 0.81063980E+02</pdfrwt>
<pdfrwt beam="2">  1       -1 0.23925997E-03 0.81063980E+02</pdfrwt>
<totfact> 0.34083220E+05</totfact>
</mgrwt>
</event>
<event>
 8    1  0.7667702E-014  0.8062439E+02  0.7818608E-02  0.1327289E+00
         -1   -1    0    0    0  501 -0.00000000000E+00  0.00000000000E+00  0.11505322865E+01  0.11505433255E+01  0.50400000000E-02 0.  1.
          2   -1    0    0  501    0  0.00000000000E+00 -0.00000000000E+00 -0.14124464415E+04  0.14124464415E+04  0.25500000000E-02 0. -1.
         24    2    1    2    0    0  0.00000000000E+00  0.35527136788E-14 -0.14112959092E+04  0.14135969848E+04  0.80624389309E+02 0.  0.
         66    2    3    3    0    0 -0.18606779938E+01  0.23880702072E+02 -0.12740344107E+04  0.12742611309E+04  0.19999994711E+01 0.  0.
        -13    1    3    3    0    0  0.18606779938E+01 -0.23880702072E+02 -0.13726149850E+03  0.13933585392E+03  0.10566000000E+00 0.  1.
         13    1    4    4    0    0 -0.26273760597E+00  0.37089310379E+01 -0.21665302837E+03  0.21668495810E+03  0.10566000000E+00 0.  1.
        -13    1    4    4    0    0 -0.18738882974E+01  0.18820324364E+02 -0.97995733675E+03  0.98013984159E+03  0.10566000000E+00 0. -1.
         14    1    4    4    0    0  0.27594790958E+00  0.13514466699E+01 -0.77424045568E+02  0.77436331186E+02  0.00000000000E+00 0. -1.
<mgrwt>
<rscale>  0 0.80624389E+02</rscale>
<asrwt>0</asrwt>
<pdfrwt beam="1">  1        2 0.21729807E+00 0.80624389E+02</pdfrwt>
<pdfrwt beam="2">  1       -1 0.17700695E-03 0.80624389E+02</pdfrwt>
<totfact> 0.33248497E+05</totfact>
</mgrwt>
</event>
<event>
 8    1  0.7667702E-014  0.7992788E+02  0.7818608E-02  0.1329256E+00
         -1   -1    0    0    0  501 -0.00000000000E+00  0.00000000000E+00  0.17421141916E+01  0.17421214821E+01  0.50400000000E-02 0.  1.
          2   -1    0    0  501    0  0.00000000000E+00 -0.00000000000E+00 -0.91676724882E+03  0.91676724882E+03  0.25500000000E-02 0. -1.
         24    2    1    2    0    0  0.35527136788E-14 -0.88817841970E-15 -0.91502513463E+03  0.91850937030E+03  0.79927882103E+02 0.  0.
         66    2    3    3    0    0 -0.30090155905E+02  0.79748323698E+01 -0.74534322716E+03  0.74599567137E+03  0.19999995331E+01 0.  0.
        -13    1    3    3    0    0  0.30090155905E+02 -0.79748323698E+01 -0.16968190746E+03  0.17251369893E+03  0.10566000000E+00 0.  1.
         13    1    4    4    0    0 -0.40263298608E+01  0.14596676217E+01 -0.10744324729E+03  0.10752862183E+03  0.10566000000E+00 0. -1.
        -13    1    4    4    0    0 -0.11071710335E+02  0.32317929309E+01 -0.26110264109E+03  0.26135727961E+03  0.10566000000E+00 0.  1.
         14    1    4    4    0    0 -0.14992115709E+02  0.32833718172E+01 -0.37679733878E+03  0.37710976993E+03  0.00000000000E+00 0. -1.
<mgrwt>
<rscale>  0 0.79927882E+02</rscale>
<asrwt>0</asrwt>
<pdfrwt beam="1">  1        2 0.14104073E+00 0.79927882E+02</pdfrwt>
<pdfrwt beam="2">  1       -1 0.26801886E-03 0.79927882E+02</pdfrwt>
<totfact> 0.35096129E+05</totfact>
</mgrwt>
</event>
<event>
 8    1  0.7667702E-014  0.8020428E+02  0.7818608E-02  0.1328473E+00
         -1   -1    0    0    0  501 -0.00000000000E+00  0.00000000000E+00  0.88000830924E+01  0.88000845356E+01  0.50400000000E-02 0.  1.
          2   -1    0    0  501    0  0.00000000000E+00 -0.00000000000E+00 -0.18274619060E+03  0.18274619062E+03  0.25500000000E-02 0. -1.
         24    2    1    2    0    0  0.00000000000E+00  0.00000000000E+00 -0.17394610751E+03  0.19154627516E+03  0.80204284226E+02 0.  0.
         66    2    3    3    0    0 -0.25008606357E+02 -0.20072143568E+02 -0.14443674938E+03  0.14796721229E+03  0.20000003346E+01 0.  0.
        -13    1    3    3    0    0  0.25008606357E+02  0.20072143568E+02 -0.29509358135E+02  0.43579062873E+02  0.10566000000E+00 0.  1.
         13    1    4    4    0    0 -0.32015076750E+01 -0.26289385457E+01 -0.17693799425E+02  0.18172580208E+02  0.10566000000E+00 0. -1.
        -13    1    4    4    0    0 -0.17316803407E+01 -0.18941000869E+01 -0.13072691190E+02  0.13322640539E+02  0.10566000000E+00 0.  1.
        -14    1    4    4    0    0 -0.20075418341E+02 -0.15549104936E+02 -0.11367025876E+03  0.11647199154E+03  0.00000000000E+00 0.  1.
<mgrwt>
<rscale>  0 0.80204284E+02</rscale>
<asrwt>0</asrwt>
<pdfrwt beam="1">  1        2 0.28114796E-01 0.80204284E+02</pdfrwt>
<pdfrwt beam="2">  1       -1 0.13538592E-02 0.80204284E+02</pdfrwt>
<totfact> 0.21240611E+05</totfact>
</mgrwt>
</event>
<event>
 8    1  0.7667702E-014  0.7793537E+02  0.7818608E-02  0.1335015E+00
          2   -1    0    0  501    0  0.00000000000E+00  0.00000000000E+00  0.33053013413E+02  0.33053013511E+02  0.25500000000E-02 0. -1.
         -1   -1    0    0    0  501 -0.00000000000E+00 -0.00000000000E+00 -0.45940759498E+02  0.45940759775E+02  0.50400000000E-02 0.  1.
         24    2    1    2    0    0  0.00000000000E+00  0.00000000000E+00 -0.12887746085E+02  0.78993773286E+02  0.77935372064E+02 0.  0.
         66    2    3    3    0    0 -0.32843515867E+02  0.84444683465E+01  0.12955279616E+02  0.36357184285E+02  0.19999997553E+01 0.  0.
        -13    1    3    3    0    0  0.32843515867E+02 -0.84444683465E+01 -0.25843025702E+02  0.42636589001E+02  0.10566000000E+00 0.  1.
         13    1    4    4    0    0 -0.50900064471E+01  0.17814115199E+01  0.21671336736E+01  0.58128499920E+01  0.10566000000E+00 0. -1.
        -13    1    4    4    0    0 -0.78213500578E+01  0.25070294334E+01  0.32103697726E+01  0.88190901696E+01  0.10566000000E+00 0.  1.
         14    1    4    4    0    0 -0.19932159362E+02  0.41560273932E+01  0.75777761703E+01  0.21725244124E+02  0.00000000000E+00 0. -1.
<mgrwt>
<rscale>  0 0.77935372E+02</rscale>
<asrwt>0</asrwt>
<pdfrwt beam="1">  1        2 0.50850790E-02 0.77935372E+02</pdfrwt>
<pdfrwt beam="2">  1       -1 0.70678092E-02 0.77935372E+02</pdfrwt>
<totfact> 0.14751536E+05</totfact>
</mgrwt>
</event>
<event>
 8    1  0.7667702E-014  0.7954623E+02  0.7818608E-02  0.1330344E+00
          2   -1    0    0  501    0  0.00000000000E+00  0.00000000000E+00  0.14871747427E+04  0.14871747427E+04  0.25500000000E-02 0. -1.
         -1   -1    0    0    0  501 -0.00000000000E+00 -0.00000000000E+00 -0.10636893527E+01  0.10637012929E+01  0.50400000000E-02 0.  1.
         24    2    1    2    0    0  0.00000000000E+00  0.00000000000E+00  0.14861110533E+04  0.14882384440E+04  0.79546233749E+02 0.  0.
         66    2    3    3    0    0  0.11337418701E+02  0.72941781473E+01  0.14430926334E+04  0.14431569875E+04  0.20000010281E+01 0.  0.
        -13    1    3    3    0    0 -0.11337418701E+02 -0.72941781473E+01  0.43018419952E+02  0.45081456464E+02  0.10566000000E+00 0.  1.
         13    1    4    4    0    0  0.24791549460E+01  0.13881330358E+01  0.28545123682E+03  0.28546539701E+03  0.10566000000E+00 0. -1.
        -13    1    4    4    0    0  0.66478589347E+00  0.49092155072E+00  0.53151631714E+02  0.53158160823E+02  0.10566000000E+00 0.  1.
         14    1    4    4    0    0  0.81934778621E+01  0.54151235608E+01  0.11044897648E+04  0.11045334297E+04  0.00000000000E+00 0. -1.
<mgrwt>
<rscale>  0 0.79546234E+02</rscale>
<asrwt>0</asrwt>
<pdfrwt beam="1">  1        2 0.22879482E+00 0.79546234E+02</pdfrwt>
<pdfrwt beam="2">  1       -1 0.16364636E-03 0.79546234E+02</pdfrwt>
<totfact> 0.33854226E+05</totfact>
</mgrwt>
</event>
<event>
 8    1  0.7667702E-014  0.7892329E+02  0.7818608E-02  0.1332135E+00
          2   -1    0    0  501    0  0.00000000000E+00  0.00000000000E+00  0.32821555073E+03  0.32821555074E+03  0.25500000000E-02 0. -1.
         -1   -1    0    0    0  501 -0.00000000000E+00 -0.00000000000E+00 -0.47445067472E+01  0.47445094241E+01  0.50400000000E-02 0.  1.
         24    2    1    2    0    0  0.00000000000E+00  0.00000000000E+00  0.32347104398E+03  0.33296006017E+03  0.78923287876E+02 0.  0.
         66    2    3    3    0    0  0.10539056006E+02 -0.34975782085E+02  0.22453298380E+03  0.22749381935E+03  0.19999990033E+01 0.  0.
        -13    1    3    3    0    0 -0.10539056006E+02  0.34975782085E+02  0.98938060184E+02  0.10546624081E+03  0.10566000000E+00 0.  1.
         13    1    4    4    0    0  0.78148437432E+01 -0.23474928132E+02  0.15269669551E+03  0.15468818965E+03  0.10566000000E+00 0. -1.
        -13    1    4    4    0    0  0.79039960685E+00 -0.41648595217E+01  0.24093938588E+02  0.24464256111E+02  0.10566000000E+00 0.  1.
         14    1    4    4    0    0  0.19338126560E+01 -0.73359944309E+01  0.47742349704E+02  0.48341373594E+02  0.00000000000E+00 0. -1.
<mgrwt>
<rscale>  0 0.78923288E+02</rscale>
<asrwt>0</asrwt>
<pdfrwt beam="1">  1        2 0.50494700E-01 0.78923288E+02</pdfrwt>
<pdfrwt beam="2">  1       -1 0.72992433E-03 0.78923288E+02</pdfrwt>
<totfact> 0.27286305E+05</totfact>
</mgrwt>
</event>
<event>
 8    1  0.7667702E-014  0.7475985E+02  0.7818608E-02  0.1344616E+00
         -1   -1    0    0    0  501 -0.00000000000E+00  0.00000000000E+00  0.91155718582E+01  0.91155732515E+01  0.50400000000E-02 0.  1.
          2   -1    0    0  501    0  0.00000000000E+00 -0.00000000000E+00 -0.15328259344E+03  0.15328259346E+03  0.25500000000E-02 0. -1.
         24    2    1    2    0    0  0.00000000000E+00  0.00000000000E+00 -0.14416702158E+03  0.16239816671E+03  0.74759845103E+02 0.  0.
         66    2    3    3    0    0 -0.32610217089E+02 -0.17442096557E+02 -0.60722655741E+02  0.71125901782E+02  0.19999983046E+01 0.  0.
        -13    1    3    3    0    0  0.32610217089E+02  0.17442096557E+02 -0.83444365837E+02  0.91272264927E+02  0.10566000000E+00 0.  1.
         13    1    4    4    0    0 -0.37955612748E+01 -0.23791921017E+01 -0.78508513827E+01  0.90395725516E+01  0.10566000000E+00 0. -1.
        -13    1    4    4    0    0 -0.26536086352E+02 -0.13557423375E+02 -0.48962317044E+02  0.57317425464E+02  0.10566000000E+00 0.  1.
        -14    1    4    4    0    0 -0.22785694616E+01 -0.15054810805E+01 -0.39094873148E+01  0.47689037671E+01  0.00000000000E+00 0.  1.
<mgrwt>
<rscale>  0 0.74759845E+02</rscale>
<asrwt>0</asrwt>
<pdfrwt beam="1">  1        2 0.23581935E-01 0.74759845E+02</pdfrwt>
<pdfrwt beam="2">  1       -1 0.14023959E-02 0.74759845E+02</pdfrwt>
<totfact> 0.24124119E+05</totfact>
</mgrwt>
</event>
<event>
 8    1  0.7667702E-014  0.7878163E+02  0.7818608E-02  0.1332545E+00
         -1   -1    0    0    0  501 -0.00000000000E+00  0.00000000000E+00  0.15065035729E+01  0.15065120035E+01  0.50400000000E-02 0.  1.
          2   -1    0    0  501    0  0.00000000000E+00 -0.00000000000E+00 -0.10299557590E+04  0.10299557590E+04  0.25500000000E-02 0. -1.
         24    2    1    2    0    0  0.00000000000E+00  0.00000000000E+00 -0.10284492554E+04  0.10314622710E+04  0.78781631879E+02 0.  0.
         66    2    3    3    0    0 -0.11131977447E+02 -0.16208434601E+02 -0.96105124406E+03  0.96125445538E+03  0.20000027635E+01 0.  0.
        -13    1    3    3    0    0  0.11131977447E+02  0.16208434601E+02 -0.67398011331E+02  0.70207815587E+02  0.10566000000E+00 0.  1.
         13    1    4    4    0    0 -0.39825612640E+01 -0.44219857433E+01 -0.28773267989E+03  0.28779423377E+03  0.10566000000E+00 0. -1.
        -13    1    4    4    0    0 -0.10615587663E+00 -0.34887438313E+00 -0.19398563128E+02  0.19402278162E+02  0.10566000000E+00 0.  1.
         14    1    4    4    0    0 -0.70432603069E+01 -0.11437574475E+02 -0.65392000104E+03  0.65405794345E+03  0.00000000000E+00 0. -1.
<mgrwt>
<rscale>  0 0.78781632E+02</rscale>
<asrwt>0</asrwt>
<pdfrwt beam="1">  1        2 0.15845417E+00 0.78781632E+02</pdfrwt>
<pdfrwt beam="2">  1       -1 0.23177125E-03 0.78781632E+02</pdfrwt>
<totfact> 0.36695889E+05</totfact>
</mgrwt>
</event>
<event>
 8    1  0.7667702E-014  0.7889325E+02  0.7818608E-02  0.1332222E+00
          2   -1    0    0  501    0  0.00000000000E+00  0.00000000000E+00  0.10307488365E+03  0.10307488368E+03  0.25500000000E-02 0. -1.
         -1   -1    0    0    0  501 -0.00000000000E+00 -0.00000000000E+00 -0.15096170593E+02  0.15096171434E+02  0.50400000000E-02 0.  1.
         24    2    1    2    0    0  0.71054273576E-14 -0.88817841970E-15  0.87978713055E+02  0.11817105511E+03  0.78893246326E+02 0.  0.
         66    2    3    3    0    0  0.38791521670E+02 -0.61178181089E+01  0.49167507859E+02  0.62957554367E+02  0.19999927553E+01 0.  0.
        -13    1    3    3    0    0 -0.38791521670E+02  0.61178181089E+01  0.38811205196E+02  0.55213500747E+02  0.10566000000E+00 0.  1.
         13    1    4    4    0    0  0.13152442182E+02 -0.19473489959E+01  0.16321527057E+02  0.21051895710E+02  0.10566000000E+00 0. -1.
        -13    1    4    4    0    0  0.18671621767E+01  0.86894953782E-01  0.24708551214E+01  0.31000216763E+01  0.10566000000E+00 0.  1.
        -14    1    4    4    0    0  0.23771917311E+02 -0.42573640668E+01  0.30375125680E+02  0.38805636981E+02  0.00000000000E+00 0.  1.
<mgrwt>
<rscale>  0 0.78893246E+02</rscale>
<asrwt>0</asrwt>
<pdfrwt beam="1">  1        2 0.15857674E-01 0.78893246E+02</pdfrwt>
<pdfrwt beam="2">  1       -1 0.23224880E-02 0.78893246E+02</pdfrwt>
<totfact> 0.18556292E+05</totfact>
</mgrwt>
</event>
<event>
 8    1  0.7667702E-014  0.8027483E+02  0.7818608E-02  0.1328273E+00
         -1   -1    0    0    0  501 -0.00000000000E+00  0.00000000000E+00  0.14306366346E+01  0.14306455123E+01  0.50400000000E-02 0.  1.
          2   -1    0    0  501    0  0.00000000000E+00 -0.00000000000E+00 -0.11260769521E+04  0.11260769521E+04  0.25500000000E-02 0. -1.
         24    2    1    2    0    0  0.00000000000E+00  0.27755575616E-16 -0.11246463155E+04  0.11275075976E+04  0.80274826628E+02 0.  0.
         66    2    3    3    0    0  0.10946313835E+02 -0.24864832351E+00 -0.11046789134E+04  0.11047349842E+04  0.19999996505E+01 0.  0.
        -13    1    3    3    0    0 -0.10946313835E+02  0.24864832351E+00 -0.19967402103E+02  0.22772613450E+02  0.10566000000E+00 0.  1.
         13    1    4    4    0    0  0.62806617710E+01  0.60721695775E+00 -0.64347996850E+03  0.64351091401E+03  0.10566000000E+00 0. -1.
        -13    1    4    4    0    0  0.14519414731E+01 -0.61744925503E+00 -0.16633264456E+03  0.16634016108E+03  0.10566000000E+00 0.  1.
        -14    1    4    4    0    0  0.32137105908E+01 -0.23841602623E+00 -0.29486630030E+03  0.29488390907E+03  0.00000000000E+00 0.  1.
<mgrwt>
<rscale>  0 0.80274827E+02</rscale>
<asrwt>0</asrwt>
<pdfrwt beam="1">  1        2 0.17324190E+00 0.80274827E+02</pdfrwt>
<pdfrwt beam="2">  1       -1 0.22009953E-03 0.80274827E+02</pdfrwt>
<totfact> 0.34905378E+05</totfact>
</mgrwt>
</event>
<event>
 8    1  0.7667702E-014  0.7661396E+02  0.7818608E-02  0.1338945E+00
         -1   -1    0    0    0  501 -0.00000000000E+00  0.00000000000E+00  0.45537019778E+01  0.45537047669E+01  0.50400000000E-02 0.  1.
          2   -1    0    0  501    0  0.00000000000E+00 -0.00000000000E+00 -0.32224867210E+03  0.32224867211E+03  0.25500000000E-02 0. -1.
         24    2    1    2    0    0 -0.71054273576E-14  0.22204460493E-15 -0.31769497013E+03  0.32680237688E+03  0.76613964077E+02 0.  0.
         66    2    3    3    0    0 -0.37601795426E+02  0.17067001228E+01 -0.18869602241E+03  0.19242400243E+03  0.19999981719E+01 0.  0.
        -13    1    3    3    0    0  0.37601795426E+02 -0.17067001228E+01 -0.12899894771E+03  0.13437837445E+03  0.10566000000E+00 0.  1.
         13    1    4    4    0    0 -0.19559925874E+02  0.10232049517E+00 -0.97017787558E+02  0.98970012814E+02  0.10566000000E+00 0. -1.
        -13    1    4    4    0    0 -0.63762688352E+01  0.23886055120E+00 -0.33286003260E+02  0.33892226774E+02  0.10566000000E+00 0.  1.
         14    1    4    4    0    0 -0.11665600717E+02  0.13655190764E+01 -0.58392231594E+02  0.59561762843E+02  0.00000000000E+00 0. -1.
<mgrwt>
<rscale>  0 0.76613964E+02</rscale>
<asrwt>0</asrwt>
<pdfrwt beam="1">  1        2 0.49576701E-01 0.76613964E+02</pdfrwt>
<pdfrwt beam="2">  1       -1 0.70057000E-03 0.76613964E+02</pdfrwt>
<totfact> 0.29293031E+05</totfact>
</mgrwt>
</event>
<event>
 8    1  0.7667702E-014  0.7008079E+02  0.7818608E-02  0.1359819E+00
         -1   -1    0    0    0  501 -0.00000000000E+00  0.00000000000E+00  0.29857059385E+01  0.29857101924E+01  0.50400000000E-02 0.  1.
          2   -1    0    0  501    0  0.00000000000E+00 -0.00000000000E+00 -0.41123558753E+03  0.41123558754E+03  0.25500000000E-02 0. -1.
         24    2    1    2    0    0  0.00000000000E+00 -0.17763568394E-14 -0.40824988159E+03  0.41422129773E+03  0.70080793902E+02 0.  0.
         66    2    3    3    0    0 -0.47955614010E+01  0.10132400429E+02 -0.40033838973E+03  0.40050029867E+03  0.20000001146E+01 0.  0.
        -13    1    3    3    0    0  0.47955614010E+01 -0.10132400429E+02 -0.79114918684E+01  0.13720999061E+02  0.10566000000E+00 0.  1.
         13    1    4    4    0    0 -0.33994791016E+01  0.73766873985E+01 -0.27374832670E+03  0.27386881806E+03  0.10566000000E+00 0. -1.
        -13    1    4    4    0    0 -0.54792562883E+00  0.43262728149E+00 -0.19282219428E+02  0.19295142886E+02  0.10566000000E+00 0.  1.
        -14    1    4    4    0    0 -0.84815667054E+00  0.23230857494E+01 -0.10730784360E+03  0.10733633772E+03  0.00000000000E+00 0.  1.
<mgrwt>
<rscale>  0 0.70080794E+02</rscale>
<asrwt>0</asrwt>
<pdfrwt beam="1">  1        2 0.63266968E-01 0.70080794E+02</pdfrwt>
<pdfrwt beam="2">  1       -1 0.45934003E-03 0.70080794E+02</pdfrwt>
<totfact> 0.40209394E+05</totfact>
</mgrwt>
</event>
<event>
 8    1  0.7667702E-014  0.7767318E+02  0.7818608E-02  0.1335787E+00
         -1   -1    0    0    0  501 -0.00000000000E+00  0.00000000000E+00  0.42582844025E+02  0.42582844324E+02  0.50400000000E-02 0.  1.
          2   -1    0    0  501    0  0.00000000000E+00 -0.00000000000E+00 -0.35419918875E+02  0.35419918967E+02  0.25500000000E-02 0. -1.
         24    2    1    2    0    0  0.00000000000E+00  0.00000000000E+00  0.71629251501E+01  0.78002763291E+02  0.77673184461E+02 0.  0.
         66    2    3    3    0    0  0.19612576362E+01 -0.37188735734E+02 -0.73908232120E+01  0.38019374835E+02  0.19999995270E+01 0.  0.
        -13    1    3    3    0    0 -0.19612576362E+01  0.37188735734E+02  0.14553748362E+02  0.39983388456E+02  0.10566000000E+00 0.  1.
         13    1    4    4    0    0  0.16401214642E+01 -0.15215114010E+02 -0.34654890599E+01  0.15691095284E+02  0.10566000000E+00 0. -1.
        -13    1    4    4    0    0 -0.76071816015E-01 -0.86772006779E+01 -0.15443755154E+01  0.88145254151E+01  0.10566000000E+00 0.  1.
         14    1    4    4    0    0  0.39720798802E+00 -0.13296421046E+02 -0.23809586367E+01  0.13513754136E+02  0.00000000000E+00 0. -1.
<mgrwt>
<rscale>  0 0.77673184E+02</rscale>
<asrwt>0</asrwt>
<pdfrwt beam="1">  1        2 0.54492183E-02 0.77673184E+02</pdfrwt>
<pdfrwt beam="2">  1       -1 0.65512068E-02 0.77673184E+02</pdfrwt>
<totfact> 0.15093654E+05</totfact>
</mgrwt>
</event>
<event>
 8    1  0.7667702E-014  0.8064379E+02  0.7818608E-02  0.1327234E+00
         -1   -1    0    0    0  501 -0.00000000000E+00  0.00000000000E+00  0.91726634051E+01  0.91726647897E+01  0.50400000000E-02 0.  1.
          2   -1    0    0  501    0  0.00000000000E+00 -0.00000000000E+00 -0.17725006900E+03  0.17725006902E+03  0.25500000000E-02 0. -1.
         24    2    1    2    0    0  0.00000000000E+00 -0.17763568394E-14 -0.16807740559E+03  0.18642273381E+03  0.80643793369E+02 0.  0.
         66    2    3    3    0    0 -0.71327057901E+01  0.96013027907E+01 -0.17304612378E+03  0.17347052042E+03  0.19999976988E+01 0.  0.
        -13    1    3    3    0    0  0.71327057901E+01 -0.96013027907E+01  0.49687181895E+01  0.12952213388E+02  0.10566000000E+00 0.  1.
         13    1    4    4    0    0 -0.61590203630E+00  0.10493221082E+01 -0.19631129918E+02  0.19669083306E+02  0.10566000000E+00 0. -1.
        -13    1    4    4    0    0 -0.28368824520E+01  0.32095917147E+01 -0.72705230744E+02  0.72831388306E+02  0.10566000000E+00 0.  1.
         14    1    4    4    0    0 -0.36799213018E+01  0.53423889679E+01 -0.80709763121E+02  0.80970048806E+02  0.00000000000E+00 0. -1.
<mgrwt>
<rscale>  0 0.80643793E+02</rscale>
<asrwt>0</asrwt>
<pdfrwt beam="1">  1        2 0.27269239E-01 0.80643793E+02</pdfrwt>
<pdfrwt beam="2">  1       -1 0.14111792E-02 0.80643793E+02</pdfrwt>
<totfact> 0.20719617E+05</totfact>
</mgrwt>
</event>
<event>
 8    1  0.7667702E-014  0.7741618E+02  0.7818608E-02  0.1336548E+00
          2   -1    0    0  501    0  0.00000000000E+00  0.00000000000E+00  0.11834095250E+04  0.11834095250E+04  0.25500000000E-02 0. -1.
         -1   -1    0    0    0  501 -0.00000000000E+00 -0.00000000000E+00 -0.12660962827E+01  0.12661063141E+01  0.50400000000E-02 0.  1.
         24    2    1    2    0    0 -0.35527136788E-14 -0.88817841970E-15  0.11821434287E+04  0.11846756313E+04  0.77416182911E+02 0.  0.
         66    2    3    3    0    0 -0.21487241098E+02 -0.78298754451E+01  0.10688753332E+04  0.10691218295E+04  0.19999977855E+01 0.  0.
        -13    1    3    3    0    0  0.21487241098E+02  0.78298754451E+01  0.11326809552E+03  0.11555380179E+03  0.10566000000E+00 0.  1.
         13    1    4    4    0    0 -0.42473495143E+01 -0.97138642170E+00  0.21774604009E+03  0.21778965244E+03  0.10566000000E+00 0. -1.
        -13    1    4    4    0    0 -0.10694783155E+02 -0.44872870062E+01  0.51018803672E+03  0.51031985863E+03  0.10566000000E+00 0.  1.
         14    1    4    4    0    0 -0.65451084285E+01 -0.23712020172E+01  0.34094125636E+03  0.34101231845E+03  0.00000000000E+00 0. -1.
<mgrwt>
<rscale>  0 0.77416183E+02</rscale>
<asrwt>0</asrwt>
<pdfrwt beam="1">  1        2 0.18206308E+00 0.77416183E+02</pdfrwt>
<pdfrwt beam="2">  1       -1 0.19478474E-03 0.77416183E+02</pdfrwt>
<totfact> 0.38204960E+05</totfact>
</mgrwt>
</event>
<event>
 8    1  0.7667702E-014  0.7955616E+02  0.7818608E-02  0.1330316E+00
         -1   -1    0    0    0  501 -0.00000000000E+00  0.00000000000E+00  0.11676210558E+02  0.11676211645E+02  0.50400000000E-02 0.  1.
          2   -1    0    0  501    0  0.00000000000E+00 -0.00000000000E+00 -0.13551447649E+03  0.13551447651E+03  0.25500000000E-02 0. -1.
         24    2    1    2    0    0 -0.35527136788E-14  0.00000000000E+00 -0.12383826593E+03  0.14719068816E+03  0.79556159861E+02 0.  0.
         66    2    3    3    0    0  0.22322664313E+02 -0.26555427822E+02 -0.97871940036E+02  0.10385763688E+03  0.20000006287E+01 0.  0.
        -13    1    3    3    0    0 -0.22322664313E+02  0.26555427822E+02 -0.25966325897E+02  0.43333051283E+02  0.10566000000E+00 0.  1.
         13    1    4    4    0    0  0.14391293526E+02 -0.16209155230E+02 -0.62158271614E+02  0.65829385054E+02  0.10566000000E+00 0. -1.
        -13    1    4    4    0    0  0.52822284683E+00 -0.74759145958E+00 -0.20160008085E+01  0.22166045344E+01  0.10566000000E+00 0. -1.
        -14    1    4    4    0    0  0.74031479400E+01 -0.95986811330E+01 -0.33697667614E+02  0.35811647289E+02  0.00000000000E+00 0.  1.
<mgrwt>
<rscale>  0 0.79556160E+02</rscale>
<asrwt>0</asrwt>
<pdfrwt beam="1">  1        2 0.20848380E-01 0.79556160E+02</pdfrwt>
<pdfrwt beam="2">  1       -1 0.17963403E-02 0.79556160E+02</pdfrwt>
<totfact> 0.19683834E+05</totfact>
</mgrwt>
</event>
<event>
 8    1  0.7667702E-014  0.8043299E+02  0.7818608E-02  0.1327827E+00
          2   -1    0    0  501    0  0.00000000000E+00  0.00000000000E+00  0.41295205905E+02  0.41295205984E+02  0.25500000000E-02 0. -1.
         -1   -1    0    0    0  501 -0.00000000000E+00 -0.00000000000E+00 -0.39165963345E+02  0.39165963670E+02  0.50400000000E-02 0.  1.
         24    2    1    2    0    0 -0.35527136788E-14  0.00000000000E+00  0.21292425596E+01  0.80461169653E+02  0.80432991664E+02 0.  0.
         66    2    3    3    0    0 -0.19182104029E+02 -0.13720316096E+02  0.33621438661E+02  0.41116922703E+02  0.20000015577E+01 0.  0.
        -13    1    3    3    0    0  0.19182104029E+02  0.13720316096E+02 -0.31492196101E+02  0.39344246950E+02  0.10566000000E+00 0.  1.
         13    1    4    4    0    0 -0.16427188071E+02 -0.11242729701E+02  0.27877227885E+02  0.34254962818E+02  0.10566000000E+00 0. -1.
        -13    1    4    4    0    0 -0.16168644392E+01 -0.11313937134E+01  0.33379409996E+01  0.38790870707E+01  0.10566000000E+00 0.  1.
         14    1    4    4    0    0 -0.11380515188E+01 -0.13461926821E+01  0.24062697756E+01  0.29828728149E+01  0.00000000000E+00 0. -1.
<mgrwt>
<rscale>  0 0.80432992E+02</rscale>
<asrwt>0</asrwt>
<pdfrwt beam="1">  1        2 0.63531086E-02 0.80432992E+02</pdfrwt>
<pdfrwt beam="2">  1       -1 0.60255328E-02 0.80432992E+02</pdfrwt>
<totfact> 0.14136901E+05</totfact>
</mgrwt>
</event>
<event>
 8    1  0.7667702E-014  0.7771000E+02  0.7818608E-02  0.1335679E+00
          2   -1    0    0  501    0  0.00000000000E+00  0.00000000000E+00  0.35818272908E+01  0.35818281985E+01  0.25500000000E-02 0. -1.
         -1   -1    0    0    0  501 -0.00000000000E+00 -0.00000000000E+00 -0.42149182909E+03  0.42149182912E+03  0.50400000000E-02 0.  1.
         24    2    1    2    0    0  0.00000000000E+00 -0.71054273576E-14 -0.41791000180E+03  0.42507365732E+03  0.77710002846E+02 0.  0.
         66    2    3    3    0    0  0.20125795754E+02 -0.33004533222E+02 -0.22908611318E+03  0.23233336847E+03  0.19999962532E+01 0.  0.
        -13    1    3    3    0    0 -0.20125795754E+02  0.33004533222E+02 -0.18882388862E+03  0.19274028885E+03  0.10566000000E+00 0.  1.
         13    1    4    4    0    0  0.55920334586E+01 -0.79661480451E+01 -0.55043479004E+02  0.55897460566E+02  0.10566000000E+00 0.  1.
        -13    1    4    4    0    0  0.11016465728E+02 -0.18368565978E+02 -0.12971027132E+03  0.13146684899E+03  0.10566000000E+00 0. -1.
        -14    1    4    4    0    0  0.35172965680E+01 -0.66698191982E+01 -0.44332362860E+02  0.44969058919E+02  0.00000000000E+00 0.  1.
<mgrwt>
<rscale>  0 0.77710003E+02</rscale>
<asrwt>0</asrwt>
<pdfrwt beam="1">  1        2 0.55105076E-03 0.77710003E+02</pdfrwt>
<pdfrwt beam="2">  1       -1 0.64844858E-01 0.77710003E+02</pdfrwt>
<totfact> 0.79460647E+04</totfact>
</mgrwt>
</event>
<event>
 8    1  0.7667702E-014  0.7886239E+02  0.7818608E-02  0.1332311E+00
          2   -1    0    0  501    0  0.00000000000E+00  0.00000000000E+00  0.28883211258E+03  0.28883211259E+03  0.25500000000E-02 0. -1.
         -1   -1    0    0    0  501 -0.00000000000E+00 -0.00000000000E+00 -0.53831227244E+01  0.53831250838E+01  0.50400000000E-02 0.  1.
         24    2    1    2    0    0  0.00000000000E+00 -0.35527136788E-14  0.28344898986E+03  0.29421523768E+03  0.78862387930E+02 0.  0.
         66    2    3    3    0    0  0.30677082931E+01 -0.31629110934E+02  0.22875070105E+03  0.23095604503E+03  0.20000023598E+01 0.  0.
        -13    1    3    3    0    0 -0.30677082931E+01  0.31629110934E+02  0.54698288806E+02  0.63259192652E+02  0.10566000000E+00 0.  1.
         13    1    4    4    0    0  0.68803967000E+00 -0.93162420105E+01  0.66115511428E+02  0.66772283017E+02  0.10566000000E+00 0. -1.
        -13    1    4    4    0    0  0.75819425398E+00 -0.13775693871E+02  0.97388067567E+02  0.98360517834E+02  0.10566000000E+00 0.  1.
        -14    1    4    4    0    0  0.16214743691E+01 -0.85371750521E+01  0.65247122056E+02  0.65823244174E+02  0.00000000000E+00 0.  1.
<mgrwt>
<rscale>  0 0.78862388E+02</rscale>
<asrwt>0</asrwt>
<pdfrwt beam="1">  1        2 0.44435694E-01 0.78862388E+02</pdfrwt>
<pdfrwt beam="2">  1       -1 0.82817319E-03 0.78862388E+02</pdfrwt>
<totfact> 0.26108570E+05</totfact>
</mgrwt>
</event>
<event>
 8    1  0.7667702E-014  0.7898234E+02  0.7818608E-02  0.1331964E+00
         -1   -1    0    0    0  501 -0.00000000000E+00  0.00000000000E+00  0.60347684471E+01  0.60347705517E+01  0.50400000000E-02 0.  1.
          2   -1    0    0  501    0  0.00000000000E+00 -0.00000000000E+00 -0.25842786175E+03  0.25842786176E+03  0.25500000000E-02 0. -1.
         24    2    1    2    0    0 -0.71054273576E-14 -0.55511151231E-16 -0.25239309330E+03  0.26446263232E+03  0.78982341973E+02 0.  0.
         66    2    3    3    0    0 -0.36538600571E+02  0.27973190753E+00 -0.17621186020E+03  0.17997157348E+03  0.20000011720E+01 0.  0.
        -13    1    3    3    0    0  0.36538600571E+02 -0.27973190753E+00 -0.76181233108E+02  0.84491058837E+02  0.10566000000E+00 0.  1.
         13    1    4    4    0    0 -0.16491396108E+02 -0.75966546223E+00 -0.79335900123E+02  0.81035420956E+02  0.10566000000E+00 0. -1.
        -13    1    4    4    0    0 -0.66934856778E+01  0.14208501253E+00 -0.31229212178E+02  0.31938969864E+02  0.10566000000E+00 0.  1.
        -14    1    4    4    0    0 -0.13353718785E+02  0.89731235723E+00 -0.65646747896E+02  0.66997182659E+02  0.00000000000E+00 0.  1.
<mgrwt>
<rscale>  0 0.78982342E+02</rscale>
<asrwt>0</asrwt>
<pdfrwt beam="1">  1        2 0.39758124E-01 0.78982342E+02</pdfrwt>
<pdfrwt beam="2">  1       -1 0.92842628E-03 0.78982342E+02</pdfrwt>
<totfact> 0.24980055E+05</totfact>
</mgrwt>
</event>
<event>
 8    1  0.7667702E-014  0.7933465E+02  0.7818608E-02  0.1330950E+00
          2   -1    0    0  501    0  0.00000000000E+00  0.00000000000E+00  0.24690033815E+03  0.24690033817E+03  0.25500000000E-02 0. -1.
         -1   -1    0    0    0  501 -0.00000000000E+00 -0.00000000000E+00 -0.63730024341E+01  0.63730044270E+01  0.50400000000E-02 0.  1.
         24    2    1    2    0    0  0.17763568394E-14  0.00000000000E+00  0.24052733572E+03  0.25327334259E+03  0.79334650943E+02 0.  0.
         66    2    3    3    0    0 -0.10806442813E+02 -0.37723727413E+02  0.13829533966E+03  0.14376877192E+03  0.19999978417E+01 0.  0.
        -13    1    3    3    0    0  0.10806442813E+02  0.37723727413E+02  0.10223199606E+03  0.10950457067E+03  0.10566000000E+00 0.  1.
         13    1    4    4    0    0 -0.83972960979E+01 -0.28445958815E+02  0.10503030196E+03  0.10913781493E+03  0.10566000000E+00 0. -1.
        -13    1    4    4    0    0 -0.56228102575E+00 -0.17660281258E+01  0.77417567952E+01  0.79612170932E+01  0.10566000000E+00 0.  1.
         14    1    4    4    0    0 -0.18468656892E+01 -0.75117404725E+01  0.25523280911E+02  0.26669739899E+02  0.00000000000E+00 0. -1.
<mgrwt>
<rscale>  0 0.79334651E+02</rscale>
<asrwt>0</asrwt>
<pdfrwt beam="1">  1        2 0.37984672E-01 0.79334651E+02</pdfrwt>
<pdfrwt beam="2">  1       -1 0.98046195E-03 0.79334651E+02</pdfrwt>
<totfact> 0.24289376E+05</totfact>
</mgrwt>
</event>
<event>
 8    1  0.7667702E-014  0.8338542E+02  0.7818608E-02  0.1319710E+00
          2   -1    0    0  501    0  0.00000000000E+00  0.00000000000E+00  0.29733055333E+03  0.29733055335E+03  0.25500000000E-02 0. -1.
         -1   -1    0    0    0  501 -0.00000000000E+00 -0.00000000000E+00 -0.58462931502E+01  0.58462953227E+01  0.50400000000E-02 0.  1.
         24    2    1    2    0    0 -0.35527136788E-14  0.88817841970E-15  0.29148426018E+03  0.30317684867E+03  0.83385416190E+02 0.  0.
         66    2    3    3    0    0  0.28310390664E+02 -0.74243965998E+01  0.25366267869E+03  0.25535339130E+03  0.20000001259E+01 0.  0.
        -13    1    3    3    0    0 -0.28310390664E+02  0.74243965998E+01  0.37821581492E+02  0.47823457372E+02  0.10566000000E+00 0.  1.
         13    1    4    4    0    0  0.13036159419E+02 -0.26867532900E+01  0.11446731361E+03  0.11523860961E+03  0.10566000000E+00 0.  1.
        -13    1    4    4    0    0  0.14701220404E+02 -0.46310496361E+01  0.13547569712E+03  0.13634972745E+03  0.10566000000E+00 0. -1.
         14    1    4    4    0    0  0.57301084127E+00 -0.10659367376E+00  0.37196679653E+01  0.37650542370E+01  0.00000000000E+00 0. -1.
<mgrwt>
<rscale>  0 0.83385416E+02</rscale>
<asrwt>0</asrwt>
<pdfrwt beam="1">  1        2 0.45743148E-01 0.83385416E+02</pdfrwt>
<pdfrwt beam="2">  1       -1 0.89943016E-03 0.83385416E+02</pdfrwt>
<totfact> 0.22790041E+05</totfact>
</mgrwt>
</event>
<event>
 8    1  0.7667702E-014  0.7960955E+02  0.7818608E-02  0.1330163E+00
          2   -1    0    0  501    0  0.00000000000E+00  0.00000000000E+00  0.11342489167E+03  0.11342489170E+03  0.25500000000E-02 0. -1.
         -1   -1    0    0    0  501 -0.00000000000E+00 -0.00000000000E+00 -0.13968893275E+02  0.13968894184E+02  0.50400000000E-02 0.  1.
         24    2    1    2    0    0  0.00000000000E+00  0.00000000000E+00  0.99455998400E+02  0.12739378589E+03  0.79609553855E+02 0.  0.
         66    2    3    3    0    0 -0.16187040804E+01 -0.26789355696E+02  0.96745278994E+02  0.10041881702E+03  0.20000058033E+01 0.  0.
        -13    1    3    3    0    0  0.16187040804E+01  0.26789355696E+02  0.27107194061E+01  0.26974968864E+02  0.10566000000E+00 0.  1.
         13    1    4    4    0    0 -0.13951164176E+01 -0.15571400806E+02  0.55760208511E+02  0.57910507597E+02  0.10566000000E+00 0. -1.
        -13    1    4    4    0    0 -0.42786080638E+00 -0.41377189706E+01  0.16770552514E+02  0.17279073436E+02  0.10566000000E+00 0.  1.
        -14    1    4    4    0    0  0.20427314363E+00 -0.70802359194E+01  0.24214517968E+02  0.25229235990E+02  0.00000000000E+00 0.  1.
<mgrwt>
<rscale>  0 0.79609554E+02</rscale>
<asrwt>0</asrwt>
<pdfrwt beam="1">  1        2 0.17449983E-01 0.79609554E+02</pdfrwt>
<pdfrwt beam="2">  1       -1 0.21490606E-02 0.79609554E+02</pdfrwt>
<totfact> 0.18618928E+05</totfact>
</mgrwt>
</event>
<event>
 8    1  0.7667702E-014  0.8018457E+02  0.7818608E-02  0.1328528E+00
         -1   -1    0    0    0  501 -0.00000000000E+00  0.00000000000E+00  0.23482544170E+03  0.23482544176E+03  0.50400000000E-02 0.  1.
          2   -1    0    0  501    0  0.00000000000E+00 -0.00000000000E+00 -0.68450476544E+01  0.68450481294E+01  0.25500000000E-02 0. -1.
         24    2    1    2    0    0  0.00000000000E+00  0.00000000000E+00  0.22798039405E+03  0.24167048989E+03  0.80184572153E+02 0.  0.
         66    2    3    3    0    0 -0.68150520725E+00 -0.34868982485E+02  0.54611162663E+02  0.64828153484E+02  0.20000019683E+01 0.  0.
        -13    1    3    3    0    0  0.68150520725E+00  0.34868982485E+02  0.17336923138E+03  0.17684233640E+03  0.10566000000E+00 0.  1.
         13    1    4    4    0    0 -0.11661810585E+00 -0.20173290690E+01  0.28378201934E+01  0.34853412804E+01  0.10566000000E+00 0. -1.
        -13    1    4    4    0    0  0.36353988073E+00 -0.13952707548E+02  0.20895137373E+02  0.25128233902E+02  0.10566000000E+00 0.  1.
         14    1    4    4    0    0 -0.92842698213E+00 -0.18898945869E+02  0.30878205096E+02  0.36214578302E+02  0.00000000000E+00 0. -1.
<mgrwt>
<rscale>  0 0.80184572E+02</rscale>
<asrwt>0</asrwt>
<pdfrwt beam="1">  1        2 0.10530844E-02 0.80184572E+02</pdfrwt>
<pdfrwt beam="2">  1       -1 0.36126988E-01 0.80184572E+02</pdfrwt>
<totfact> 0.94072505E+04</totfact>
</mgrwt>
</event>
<event>
 8    1  0.7667702E-014  0.7963258E+02  0.7818608E-02  0.1330097E+00
          2   -1    0    0  501    0  0.00000000000E+00  0.00000000000E+00  0.23927102326E+02  0.23927102462E+02  0.25500000000E-02 0. -1.
         -1   -1    0    0    0  501 -0.00000000000E+00 -0.00000000000E+00 -0.66256957278E+02  0.66256957470E+02  0.50400000000E-02 0.  1.
         24    2    1    2    0    0 -0.17763568394E-14  0.00000000000E+00 -0.42329854952E+02  0.90184059932E+02  0.79632581558E+02 0.  0.
         66    2    3    3    0    0  0.10298695146E+02 -0.21019773144E+02  0.15263662658E+02  0.28015591884E+02  0.20000015338E+01 0.  0.
        -13    1    3    3    0    0 -0.10298695146E+02  0.21019773144E+02 -0.57593517610E+02  0.62168468048E+02  0.10566000000E+00 0.  1.
         13    1    4    4    0    0  0.33200024238E+01 -0.70965897718E+01  0.46165469003E+01  0.90943758335E+01  0.10566000000E+00 0. -1.
        -13    1    4    4    0    0  0.20538190452E+01 -0.40138835936E+01  0.23156728464E+01  0.50698065979E+01  0.10566000000E+00 0. -1.
         14    1    4    4    0    0  0.49248736771E+01 -0.99092997790E+01  0.83314429111E+01  0.13851409453E+02  0.00000000000E+00 0. -1.
<mgrwt>
<rscale>  0 0.79632582E+02</rscale>
<asrwt>0</asrwt>
<pdfrwt beam="1">  1        2 0.36810927E-02 0.79632582E+02</pdfrwt>
<pdfrwt beam="2">  1       -1 0.10193378E-01 0.79632582E+02</pdfrwt>
<totfact> 0.13037586E+05</totfact>
</mgrwt>
</event>
<event>
 8    1  0.7667702E-014  0.7995048E+02  0.7818608E-02  0.1329192E+00
          2   -1    0    0  501    0  0.00000000000E+00  0.00000000000E+00  0.14949726089E+03  0.14949726091E+03  0.25500000000E-02 0. -1.
         -1   -1    0    0    0  501 -0.00000000000E+00 -0.00000000000E+00 -0.10689290427E+02  0.10689291615E+02  0.50400000000E-02 0.  1.
         24    2    1    2    0    0 -0.88817841970E-15  0.35527136788E-14  0.13880797046E+03  0.16018655253E+03  0.79950478086E+02 0.  0.
         66    2    3    3    0    0 -0.54602324960E+01  0.25227897797E+02  0.13053994660E+03  0.13308245046E+03  0.19999989527E+01 0.  0.
        -13    1    3    3    0    0  0.54602324960E+01 -0.25227897797E+02  0.82680238618E+01  0.27104102065E+02  0.10566000000E+00 0.  1.
         13    1    4    4    0    0 -0.10420842394E+01  0.52048208647E+01  0.30328169430E+02  0.30789367074E+02  0.10566000000E+00 0. -1.
        -13    1    4    4    0    0 -0.27151053107E+01  0.14414776740E+02  0.71511001112E+02  0.72999945406E+02  0.10566000000E+00 0.  1.
        -14    1    4    4    0    0 -0.17030429459E+01  0.56083001923E+01  0.28700776060E+02  0.29293137981E+02  0.00000000000E+00 0.  1.
<mgrwt>
<rscale>  0 0.79950478E+02</rscale>
<asrwt>0</asrwt>
<pdfrwt beam="1">  1        2 0.22999579E-01 0.79950478E+02</pdfrwt>
<pdfrwt beam="2">  1       -1 0.16445063E-02 0.79950478E+02</pdfrwt>
<totfact> 0.20041271E+05</totfact>
</mgrwt>
</event>
<event>
 8    1  0.7667702E-014  0.7521729E+02  0.7818608E-02  0.1343199E+00
          2   -1    0    0  501    0  0.00000000000E+00  0.00000000000E+00  0.50557676895E+03  0.50557676896E+03  0.25500000000E-02 0. -1.
         -1   -1    0    0    0  501 -0.00000000000E+00 -0.00000000000E+00 -0.27976147030E+01  0.27976192428E+01  0.50400000000E-02 0.  1.
         24    2    1    2    0    0  0.00000000000E+00  0.00000000000E+00  0.50277915425E+03  0.50837438820E+03  0.75217289446E+02 0.  0.
         66    2    3    3    0    0  0.24417724278E+02 -0.24742667131E+02  0.34809635839E+03  0.34983353122E+03  0.20000002518E+01 0.  0.
        -13    1    3    3    0    0 -0.24417724278E+02  0.24742667131E+02  0.15468279585E+03  0.15854085698E+03  0.10566000000E+00 0.  1.
         13    1    4    4    0    0  0.74856441182E+01 -0.83404109352E+01  0.11303326808E+03  0.11358753532E+03  0.10566000000E+00 0. -1.
        -13    1    4    4    0    0  0.56544690621E+01 -0.52793692779E+01  0.83308273735E+02  0.83666746065E+02  0.10566000000E+00 0.  1.
         14    1    4    4    0    0  0.11277611097E+02 -0.11122886918E+02  0.15175481658E+03  0.15257924984E+03  0.00000000000E+00 0. -1.
<mgrwt>
<rscale>  0 0.75217289E+02</rscale>
<asrwt>0</asrwt>
<pdfrwt beam="1">  1        2 0.77781028E-01 0.75217289E+02</pdfrwt>
<pdfrwt beam="2">  1       -1 0.43040269E-03 0.75217289E+02</pdfrwt>
<totfact> 0.35866344E+05</totfact>
</mgrwt>
</event>
<event>
 8    1  0.7667702E-014  0.7972630E+02  0.7818608E-02  0.1329830E+00
          2   -1    0    0  501    0  0.00000000000E+00  0.00000000000E+00  0.69239037131E+02  0.69239037178E+02  0.25500000000E-02 0. -1.
         -1   -1    0    0    0  501 -0.00000000000E+00 -0.00000000000E+00 -0.22950503024E+02  0.22950503578E+02  0.50400000000E-02 0.  1.
         24    2    1    2    0    0  0.00000000000E+00  0.00000000000E+00  0.46288534107E+02  0.92189540756E+02  0.79726300773E+02 0.  0.
         66    2    3    3    0    0 -0.31584167641E+02  0.20308202087E+02  0.38546309283E+02  0.53849797319E+02  0.19999985807E+01 0.  0.
        -13    1    3    3    0    0  0.31584167641E+02 -0.20308202087E+02  0.77422248237E+01  0.38339743437E+02  0.10566000000E+00 0.  1.
         13    1    4    4    0    0 -0.95381161043E+01  0.60062683257E+01  0.11401326720E+02  0.16032851681E+02  0.10566000000E+00 0. -1.
        -13    1    4    4    0    0 -0.11905772329E+02  0.67852980354E+01  0.14445355557E+02  0.19911482752E+02  0.10566000000E+00 0.  1.
        -14    1    4    4    0    0 -0.10140279208E+02  0.75166357258E+01  0.12699627006E+02  0.17905462885E+02  0.00000000000E+00 0.  1.
<mgrwt>
<rscale>  0 0.79726301E+02</rscale>
<asrwt>0</asrwt>
<pdfrwt beam="1">  1        2 0.10652160E-01 0.79726301E+02</pdfrwt>
<pdfrwt beam="2">  1       -1 0.35308466E-02 0.79726301E+02</pdfrwt>
<totfact> 0.16253652E+05</totfact>
</mgrwt>
</event>
<event>
 8    1  0.7667702E-014  0.7873188E+02  0.7818608E-02  0.1332689E+00
          2   -1    0    0  501    0  0.00000000000E+00  0.00000000000E+00  0.98788032656E+03  0.98788032656E+03  0.25500000000E-02 0. -1.
         -1   -1    0    0    0  501 -0.00000000000E+00 -0.00000000000E+00 -0.15686851210E+01  0.15686932175E+01  0.50400000000E-02 0.  1.
         24    2    1    2    0    0  0.17763568394E-14  0.00000000000E+00  0.98631164144E+03  0.98944901978E+03  0.78731878595E+02 0.  0.
         66    2    3    3    0    0 -0.15270762768E+02  0.22516822224E+02  0.85058617391E+03  0.85102352654E+03  0.20000003458E+01 0.  0.
        -13    1    3    3    0    0  0.15270762768E+02 -0.22516822224E+02  0.13572546753E+03  0.13842549324E+03  0.10566000000E+00 0.  1.
         13    1    4    4    0    0 -0.73090562292E+01  0.97216965198E+01  0.36613687232E+03  0.36633885151E+03  0.10566000000E+00 0. -1.
        -13    1    4    4    0    0 -0.17670696937E+01  0.21345779250E+01  0.90457335891E+02  0.90499832810E+02  0.10566000000E+00 0.  1.
        -14    1    4    4    0    0 -0.61946368448E+01  0.10660547779E+02  0.39399196570E+03  0.39418484222E+03  0.00000000000E+00 0.  1.
<mgrwt>
<rscale>  0 0.78731879E+02</rscale>
<asrwt>0</asrwt>
<pdfrwt beam="1">  1        2 0.15198190E+00 0.78731879E+02</pdfrwt>
<pdfrwt beam="2">  1       -1 0.24133631E-03 0.78731879E+02</pdfrwt>
<totfact> 0.36701532E+05</totfact>
</mgrwt>
</event>
<event>
 8    1  0.7667702E-014  0.8022434E+02  0.7818608E-02  0.1328416E+00
          2   -1    0    0  501    0  0.00000000000E+00  0.00000000000E+00  0.81536223273E+03  0.81536223273E+03  0.25500000000E-02 0. -1.
         -1   -1    0    0    0  501 -0.00000000000E+00 -0.00000000000E+00 -0.19733359961E+01  0.19733424323E+01  0.50400000000E-02 0.  1.
         24    2    1    2    0    0  0.00000000000E+00 -0.10658141036E-13  0.81338889673E+03  0.81733557516E+03  0.80224342330E+02 0.  0.
         66    2    3    3    0    0  0.15920434005E+02 -0.26272384492E+02  0.66933430770E+03  0.67004187472E+03  0.20000015613E+01 0.  0.
        -13    1    3    3    0    0 -0.15920434005E+02  0.26272384492E+02  0.14405458903E+03  0.14729370045E+03  0.10566000000E+00 0.  1.
         13    1    4    4    0    0  0.10829418550E+01 -0.19148257316E+01  0.51871624429E+02  0.51918358078E+02  0.10566000000E+00 0. -1.
        -13    1    4    4    0    0  0.11796179308E+02 -0.20570890014E+02  0.51660657365E+03  0.51715053366E+03  0.10566000000E+00 0.  1.
         14    1    4    4    0    0  0.30413128425E+01 -0.37866687466E+01  0.10085610962E+03  0.10097298298E+03  0.00000000000E+00 0. -1.
<mgrwt>
<rscale>  0 0.80224342E+02</rscale>
<asrwt>0</asrwt>
<pdfrwt beam="1">  1        2 0.12544043E+00 0.80224342E+02</pdfrwt>
<pdfrwt beam="2">  1       -1 0.30359044E-03 0.80224342E+02</pdfrwt>
<totfact> 0.34225658E+05</totfact>
</mgrwt>
</event>
<event>
 8    1  0.7667702E-014  0.8233947E+02  0.7818608E-02  0.1322540E+00
          2   -1    0    0  501    0  0.00000000000E+00  0.00000000000E+00  0.40784767287E+03  0.40784767288E+03  0.25500000000E-02 0. -1.
         -1   -1    0    0    0  501 -0.00000000000E+00 -0.00000000000E+00 -0.41558318712E+01  0.41558349273E+01  0.50400000000E-02 0.  1.
         24    2    1    2    0    0  0.35527136788E-14  0.88817841970E-15  0.40369184100E+03  0.41200350781E+03  0.82339467784E+02 0.  0.
         66    2    3    3    0    0 -0.23948084874E+02 -0.65373413790E+01  0.36615179446E+03  0.36699779862E+03  0.20000003804E+01 0.  0.
        -13    1    3    3    0    0  0.23948084874E+02  0.65373413790E+01  0.37540046541E+02  0.45005709191E+02  0.10566000000E+00 0.  1.
         13    1    4    4    0    0 -0.72894532242E+01 -0.16748826108E+01  0.12024845577E+03  0.12048088496E+03  0.10566000000E+00 0. -1.
        -13    1    4    4    0    0 -0.35399319184E+01 -0.73745084070E+00  0.47496230124E+02  0.47633790440E+02  0.10566000000E+00 0.  1.
        -14    1    4    4    0    0 -0.13118699732E+02 -0.41250079275E+01  0.19840710857E+03  0.19888312322E+03  0.00000000000E+00 0.  1.
<mgrwt>
<rscale>  0 0.82339468E+02</rscale>
<asrwt>0</asrwt>
<pdfrwt beam="1">  1        2 0.62745776E-01 0.82339468E+02</pdfrwt>
<pdfrwt beam="2">  1       -1 0.63935919E-03 0.82339468E+02</pdfrwt>
<totfact> 0.26380096E+05</totfact>
</mgrwt>
</event>
<event>
 8    1  0.7667702E-014  0.7952155E+02  0.7818608E-02  0.1330415E+00
         -1   -1    0    0    0  501 -0.00000000000E+00  0.00000000000E+00  0.87369831678E+01  0.87369846215E+01  0.50400000000E-02 0.  1.
          2   -1    0    0  501    0  0.00000000000E+00 -0.00000000000E+00 -0.18094566481E+03  0.18094566483E+03  0.25500000000E-02 0. -1.
         24    2    1    2    0    0 -0.88817841970E-15  0.00000000000E+00 -0.17220868164E+03  0.18968264945E+03  0.79521553488E+02 0.  0.
         66    2    3    3    0    0 -0.60097910848E+01 -0.22465804903E+02 -0.16301134672E+03  0.16467400869E+03  0.20000000039E+01 0.  0.
        -13    1    3    3    0    0  0.60097910848E+01  0.22465804903E+02 -0.91973349199E+01  0.25008640756E+02  0.10566000000E+00 0.  1.
         13    1    4    4    0    0 -0.71476986430E+00 -0.23934906738E+01 -0.17861705336E+02  0.18035835858E+02  0.10566000000E+00 0. -1.
        -13    1    4    4    0    0 -0.53139452800E+01 -0.20040065699E+02 -0.14511012416E+03  0.14658376972E+03  0.10566000000E+00 0.  1.
        -14    1    4    4    0    0  0.18924059462E-01 -0.32248529763E-01 -0.39517227129E-01  0.54403115154E-01  0.00000000000E+00 0.  1.
<mgrwt>
<rscale>  0 0.79521553E+02</rscale>
<asrwt>0</asrwt>
<pdfrwt beam="1">  1        2 0.27837792E-01 0.79521553E+02</pdfrwt>
<pdfrwt beam="2">  1       -1 0.13441515E-02 0.79521553E+02</pdfrwt>
<totfact> 0.21652870E+05</totfact>
</mgrwt>
</event>
<event>
 8    1  0.7667702E-014  0.7943161E+02  0.7818608E-02  0.1330672E+00
         -1   -1    0    0    0  501 -0.00000000000E+00  0.00000000000E+00  0.29085094328E+02  0.29085094765E+02  0.50400000000E-02 0.  1.
          2   -1    0    0  501    0  0.00000000000E+00 -0.00000000000E+00 -0.54232083747E+02  0.54232083807E+02  0.25500000000E-02 0. -1.
         24    2    1    2    0    0 -0.71054273576E-14  0.00000000000E+00 -0.25146989419E+02  0.83317178572E+02  0.79431613154E+02 0.  0.
         66    2    3    3    0    0 -0.30308483166E+02 -0.48257161090E+01 -0.38981015523E+02  0.49652907749E+02  0.19999972313E+01 0.  0.
        -13    1    3    3    0    0  0.30308483166E+02  0.48257161090E+01  0.13834026103E+02  0.33664270823E+02  0.10566000000E+00 0.  1.
         13    1    4    4    0    0 -0.11306882412E+02 -0.18956062270E+01 -0.14260158382E+02  0.18297600771E+02  0.10566000000E+00 0. -1.
        -13    1    4    4    0    0 -0.74423894099E+01 -0.18135612051E+01 -0.92391503867E+01  0.12002134322E+02  0.10566000000E+00 0.  1.
        -14    1    4    4    0    0 -0.11559211344E+02 -0.11165486768E+01 -0.15481706754E+02  0.19353172656E+02  0.00000000000E+00 0.  1.
<mgrwt>
<rscale>  0 0.79431613E+02</rscale>
<asrwt>0</asrwt>
<pdfrwt beam="1">  1        2 0.83433975E-02 0.79431613E+02</pdfrwt>
<pdfrwt beam="2">  1       -1 0.44746300E-02 0.79431613E+02</pdfrwt>
<totfact> 0.15512013E+05</totfact>
</mgrwt>
</event>
<event>
 8    1  0.7667702E-014  0.8251751E+02  0.7818608E-02  0.1322055E+00
          2   -1    0    0  501    0  0.00000000000E+00  0.00000000000E+00  0.69143092481E+02  0.69143092528E+02  0.25500000000E-02 0. -1.
         -1   -1    0    0    0  501 -0.00000000000E+00 -0.00000000000E+00 -0.24619737506E+02  0.24619738021E+02  0.50400000000E-02 0.  1.
         24    2    1    2    0    0 -0.35527136788E-14  0.00000000000E+00  0.44523354976E+02  0.93762830550E+02  0.82517508775E+02 0.  0.
         66    2    3    3    0    0 -0.23312617334E+02 -0.85295051550E+01  0.59686561595E+02  0.64673922282E+02  0.20000008133E+01 0.  0.
        -13    1    3    3    0    0  0.23312617334E+02  0.85295051550E+01 -0.15163206619E+02  0.29088908267E+02  0.10566000000E+00 0.  1.
         13    1    4    4    0    0 -0.81255852699E+01 -0.31838603921E+01  0.21565264569E+02  0.23264434292E+02  0.10566000000E+00 0. -1.
        -13    1    4    4    0    0 -0.74318465790E+01 -0.30839353533E+01  0.20586016610E+02  0.22102901274E+02  0.10566000000E+00 0.  1.
         14    1    4    4    0    0 -0.77551854855E+01 -0.22617094096E+01  0.17535280416E+02  0.19306586717E+02  0.00000000000E+00 0. -1.
<mgrwt>
<rscale>  0 0.82517509E+02</rscale>
<asrwt>0</asrwt>
<pdfrwt beam="1">  1        2 0.10637399E-01 0.82517509E+02</pdfrwt>
<pdfrwt beam="2">  1       -1 0.37876520E-02 0.82517509E+02</pdfrwt>
<totfact> 0.14800050E+05</totfact>
</mgrwt>
</event>
<event>
 8    1  0.7667702E-014  0.8185971E+02  0.7818608E-02  0.1323855E+00
         -1   -1    0    0    0  501 -0.00000000000E+00  0.00000000000E+00  0.12114087933E+01  0.12114192775E+01  0.50400000000E-02 0.  1.
          2   -1    0    0  501    0  0.00000000000E+00 -0.00000000000E+00 -0.13828904675E+04  0.13828904675E+04  0.25500000000E-02 0. -1.
         24    2    1    2    0    0  0.00000000000E+00 -0.88817841970E-15 -0.13816790587E+04  0.13841018868E+04  0.81859707542E+02 0.  0.
         66    2    3    3    0    0  0.20354707215E+02 -0.51574824885E+01 -0.12848073383E+04  0.12849804708E+04  0.19999999705E+01 0.  0.
        -13    1    3    3    0    0 -0.20354707215E+02  0.51574824885E+01 -0.96871720365E+02  0.99121415960E+02  0.10566000000E+00 0.  1.
         13    1    4    4    0    0  0.25795270488E+01 -0.62056950490E+00 -0.17024068460E+03  0.17026139000E+03  0.10566000000E+00 0. -1.
        -13    1    4    4    0    0  0.29180621059E+01 -0.11064535240E+00 -0.16424747820E+03  0.16427346891E+03  0.10566000000E+00 0.  1.
         14    1    4    4    0    0  0.14857118060E+02 -0.44262676312E+01 -0.95031917553E+03  0.95044561190E+03  0.00000000000E+00 0. -1.
<mgrwt>
<rscale>  0 0.81859708E+02</rscale>
<asrwt>0</asrwt>
<pdfrwt beam="1">  1        2 0.21275112E+00 0.81859708E+02</pdfrwt>
<pdfrwt beam="2">  1       -1 0.18637250E-03 0.81859708E+02</pdfrwt>
<totfact> 0.32148770E+05</totfact>
</mgrwt>
</event>
<event>
 8    1  0.7667702E-014  0.8258081E+02  0.7818608E-02  0.1321883E+00
         -1   -1    0    0    0  501 -0.00000000000E+00  0.00000000000E+00  0.10256833403E+02  0.10256834641E+02  0.50400000000E-02 0.  1.
          2   -1    0    0  501    0  0.00000000000E+00 -0.00000000000E+00 -0.16622066109E+03  0.16622066111E+03  0.25500000000E-02 0. -1.
         24    2    1    2    0    0  0.71054273576E-14 -0.17763568394E-14 -0.15596382769E+03  0.17647749576E+03  0.82580814721E+02 0.  0.
         66    2    3    3    0    0  0.35569246033E+02 -0.14215731608E+02 -0.11083173533E+03  0.11728142145E+03  0.19999929476E+01 0.  0.
        -13    1    3    3    0    0 -0.35569246033E+02  0.14215731608E+02 -0.45132092358E+02  0.59196074306E+02  0.10566000000E+00 0.  1.
         13    1    4    4    0    0  0.17425567538E+02 -0.69909565126E+01 -0.53884616942E+02  0.57062132662E+02  0.10566000000E+00 0. -1.
        -13    1    4    4    0    0  0.63121201087E+01 -0.24387273787E+01 -0.17736126231E+02  0.18983455671E+02  0.10566000000E+00 0.  1.
        -14    1    4    4    0    0  0.11831558386E+02 -0.47860477170E+01 -0.39210992160E+02  0.41235833116E+02  0.00000000000E+00 0.  1.
<mgrwt>
<rscale>  0 0.82580815E+02</rscale>
<asrwt>0</asrwt>
<pdfrwt beam="1">  1        2 0.25572408E-01 0.82580815E+02</pdfrwt>
<pdfrwt beam="2">  1       -1 0.15779746E-02 0.82580815E+02</pdfrwt>
<totfact> 0.19040811E+05</totfact>
</mgrwt>
</event>
<event>
 8    1  0.7667702E-014  0.8588328E+02  0.7818608E-02  0.1313139E+00
         -1   -1    0    0    0  501 -0.00000000000E+00  0.00000000000E+00  0.26834072118E+02  0.26834072591E+02  0.50400000000E-02 0.  1.
          2   -1    0    0  501    0  0.00000000000E+00 -0.00000000000E+00 -0.68718019597E+02  0.68718019645E+02  0.25500000000E-02 0. -1.
         24    2    1    2    0    0  0.17763568394E-14  0.00000000000E+00 -0.41883947479E+02  0.95552092236E+02  0.85883277035E+02 0.  0.
         66    2    3    3    0    0 -0.10181287738E+02  0.39662866841E+02 -0.35252350008E+02  0.54069675778E+02  0.20000079148E+01 0.  0.
        -13    1    3    3    0    0  0.10181287738E+02 -0.39662866841E+02 -0.66315974719E+01  0.41482416457E+02  0.10566000000E+00 0.  1.
         13    1    4    4    0    0 -0.20678364451E+01  0.71195783819E+01 -0.64134266392E+01  0.98034457815E+01  0.10566000000E+00 0. -1.
        -13    1    4    4    0    0 -0.27677110732E+01  0.11375343606E+02 -0.90130420969E+01  0.14775139885E+02  0.10566000000E+00 0.  1.
        -14    1    4    4    0    0 -0.53457402199E+01  0.21167944854E+02 -0.19825881271E+02  0.29491090112E+02  0.00000000000E+00 0.  1.
<mgrwt>
<rscale>  0 0.85883277E+02</rscale>
<asrwt>0</asrwt>
<pdfrwt beam="1">  1        2 0.10572003E-01 0.85883277E+02</pdfrwt>
<pdfrwt beam="2">  1       -1 0.41283189E-02 0.85883277E+02</pdfrwt>
<totfact> 0.13251454E+05</totfact>
</mgrwt>
</event>
<event>
 8    1  0.7667702E-014  0.8196428E+02  0.7818608E-02  0.1323568E+00
          2   -1    0    0  501    0  0.00000000000E+00  0.00000000000E+00  0.73569219654E+02  0.73569219699E+02  0.25500000000E-02 0. -1.
         -1   -1    0    0    0  501 -0.00000000000E+00 -0.00000000000E+00 -0.22829324499E+02  0.22829325055E+02  0.50400000000E-02 0.  1.
         24    2    1    2    0    0  0.00000000000E+00  0.00000000000E+00  0.50739895156E+02  0.96398544754E+02  0.81964275573E+02 0.  0.
         66    2    3    3    0    0  0.25107167901E+02  0.21580678249E+02  0.53744374912E+02  0.63154994757E+02  0.19999936141E+01 0.  0.
        -13    1    3    3    0    0 -0.25107167901E+02 -0.21580678249E+02 -0.30044797558E+01  0.33243549996E+02  0.10566000000E+00 0.  1.
         13    1    4    4    0    0  0.24007598103E+02  0.20270785077E+02  0.50772406453E+02  0.59708608386E+02  0.10566000000E+00 0. -1.
        -13    1    4    4    0    0  0.56841320782E+00  0.46265696102E+00  0.11427361766E+01  0.13616736185E+01  0.10566000000E+00 0. -1.
         14    1    4    4    0    0  0.53115659023E+00  0.84723621160E+00  0.18292322819E+01  0.20847127530E+01  0.00000000000E+00 0. -1.
<mgrwt>
<rscale>  0 0.81964276E+02</rscale>
<asrwt>0</asrwt>
<pdfrwt beam="1">  1        2 0.11318342E-01 0.81964276E+02</pdfrwt>
<pdfrwt beam="2">  1       -1 0.35122037E-02 0.81964276E+02</pdfrwt>
<totfact> 0.15306869E+05</totfact>
</mgrwt>
</event>
<event>
 8    1  0.7667702E-014  0.8518014E+02  0.7818608E-02  0.1314962E+00
          2   -1    0    0  501    0  0.00000000000E+00  0.00000000000E+00  0.95670039095E+03  0.95670039095E+03  0.25500000000E-02 0. -1.
         -1   -1    0    0    0  501 -0.00000000000E+00 -0.00000000000E+00 -0.18960071144E+01  0.18960138131E+01  0.50400000000E-02 0.  1.
         24    2    1    2    0    0 -0.17763568394E-14  0.88817841970E-15  0.95480438383E+03  0.95859640476E+03  0.85180137588E+02 0.  0.
         66    2    3    3    0    0  0.15848044249E+02 -0.41138951624E+01  0.91984189489E+03  0.91998978050E+03  0.19999976547E+01 0.  0.
        -13    1    3    3    0    0 -0.15848044249E+02  0.41138951624E+01  0.34962488947E+02  0.38606624268E+02  0.10566000000E+00 0.  1.
         13    1    4    4    0    0  0.12085896791E+01 -0.69185582396E+00  0.65138543003E+02  0.65153513352E+02  0.10566000000E+00 0. -1.
        -13    1    4    4    0    0  0.16723917233E+01 -0.53965665129E+00  0.11866778666E+03  0.11868084461E+03  0.10566000000E+00 0.  1.
         14    1    4    4    0    0  0.12967062846E+02 -0.28823826871E+01  0.73603556523E+03  0.73615542253E+03  0.00000000000E+00 0. -1.
<mgrwt>
<rscale>  0 0.85180138E+02</rscale>
<asrwt>0</asrwt>
<pdfrwt beam="1">  1        2 0.14718465E+00 0.85180138E+02</pdfrwt>
<pdfrwt beam="2">  1       -1 0.29169396E-03 0.85180138E+02</pdfrwt>
<totfact> 0.29844116E+05</totfact>
</mgrwt>
</event>
<event>
 8    1  0.7667702E-014  0.8185592E+02  0.7818608E-02  0.1323866E+00
         -1   -1    0    0    0  501 -0.00000000000E+00  0.00000000000E+00  0.98969186321E+01  0.98969199154E+01  0.50400000000E-02 0.  1.
          2   -1    0    0  501    0  0.00000000000E+00 -0.00000000000E+00 -0.16925447393E+03  0.16925447395E+03  0.25500000000E-02 0. -1.
         24    2    1    2    0    0  0.17763568394E-14  0.71054273576E-14 -0.15935755529E+03  0.17915139386E+03  0.81855919108E+02 0.  0.
         66    2    3    3    0    0 -0.14530934582E+02  0.37869739571E+02 -0.68180828767E+02  0.79359250587E+02  0.20000018469E+01 0.  0.
        -13    1    3    3    0    0  0.14530934582E+02 -0.37869739571E+02 -0.91176726527E+02  0.99792143274E+02  0.10566000000E+00 0.  1.
         13    1    4    4    0    0 -0.10863529995E+02  0.28296329196E+02 -0.51079375219E+02  0.59395389271E+02  0.10566000000E+00 0. -1.
        -13    1    4    4    0    0 -0.18819419329E+00  0.17718627152E+00 -0.51886520827E+00  0.58923439238E+00  0.10566000000E+00 0.  1.
        -14    1    4    4    0    0 -0.34792103939E+01  0.93962241035E+01 -0.16582588339E+02  0.19374626923E+02  0.00000000000E+00 0.  1.
<mgrwt>
<rscale>  0 0.81855919E+02</rscale>
<asrwt>0</asrwt>
<pdfrwt beam="1">  1        2 0.26039148E-01 0.81855919E+02</pdfrwt>
<pdfrwt beam="2">  1       -1 0.15226031E-02 0.81855919E+02</pdfrwt>
<totfact> 0.19609871E+05</totfact>
</mgrwt>
</event>
<event>
 8    1  0.7667702E-014  0.7877932E+02  0.7818608E-02  0.1332552E+00
         -1   -1    0    0    0  501 -0.00000000000E+00  0.00000000000E+00  0.92672788998E+01  0.92672802703E+01  0.50400000000E-02 0.  1.
          2   -1    0    0  501    0  0.00000000000E+00 -0.00000000000E+00 -0.16742187135E+03  0.16742187137E+03  0.25500000000E-02 0. -1.
         24    2    1    2    0    0 -0.35527136788E-14  0.35527136788E-14 -0.15815459245E+03  0.17668915164E+03  0.78779319583E+02 0.  0.
         66    2    3    3    0    0 -0.23880930766E+02  0.31292809098E+02 -0.79038398954E+02  0.88321046574E+02  0.20000007905E+01 0.  0.
        -13    1    3    3    0    0  0.23880930766E+02 -0.31292809098E+02 -0.79116193493E+02  0.88368105063E+02  0.10566000000E+00 0.  1.
         13    1    4    4    0    0 -0.48681681068E+01  0.59932725898E+01 -0.15223531927E+02  0.17070016562E+02  0.10566000000E+00 0. -1.
        -13    1    4    4    0    0 -0.42264900887E+00  0.73266434544E+00 -0.12592010977E+01  0.15205856332E+01  0.10566000000E+00 0.  1.
        -14    1    4    4    0    0 -0.18590113651E+02  0.24566872163E+02 -0.62555665929E+02  0.69730444379E+02  0.00000000000E+00 0.  1.
<mgrwt>
<rscale>  0 0.78779320E+02</rscale>
<asrwt>0</asrwt>
<pdfrwt beam="1">  1        2 0.25757209E-01 0.78779320E+02</pdfrwt>
<pdfrwt beam="2">  1       -1 0.14257355E-02 0.78779320E+02</pdfrwt>
<totfact> 0.21625448E+05</totfact>
</mgrwt>
</event>
<event>
 8    1  0.7667702E-014  0.7401289E+02  0.7818608E-02  0.1346955E+00
         -1   -1    0    0    0  501 -0.00000000000E+00  0.00000000000E+00  0.56610017612E+02  0.56610017837E+02  0.50400000000E-02 0.  1.
          2   -1    0    0  501    0  0.00000000000E+00 -0.00000000000E+00 -0.24191425763E+02  0.24191425898E+02  0.25500000000E-02 0. -1.
         24    2    1    2    0    0  0.35527136788E-14  0.00000000000E+00  0.32418591849E+02  0.80801443734E+02  0.74012892202E+02 0.  0.
         66    2    3    3    0    0 -0.19063245013E+02  0.26128871561E+02 -0.33492621256E+01  0.32578256558E+02  0.20000010318E+01 0.  0.
        -13    1    3    3    0    0  0.19063245013E+02 -0.26128871561E+02  0.35767853975E+02  0.48223187176E+02  0.10566000000E+00 0.  1.
         13    1    4    4    0    0 -0.12763951464E+02  0.17545104569E+02 -0.14544406000E+01  0.21745705618E+02  0.10566000000E+00 0. -1.
        -13    1    4    4    0    0 -0.32229140273E+00  0.51388336885E+00 -0.15435332663E-01  0.61591407692E+00  0.10566000000E+00 0. -1.
         14    1    4    4    0    0 -0.59770021462E+01  0.80698836225E+01 -0.18793861930E+01  0.10216636863E+02  0.00000000000E+00 0. -1.
<mgrwt>
<rscale>  0 0.74012892E+02</rscale>
<asrwt>0</asrwt>
<pdfrwt beam="1">  1        2 0.37217579E-02 0.74012892E+02</pdfrwt>
<pdfrwt beam="2">  1       -1 0.87092334E-02 0.74012892E+02</pdfrwt>
<totfact> 0.16053984E+05</totfact>
</mgrwt>
</event>
<event>
 8    1  0.7667702E-014  0.7961430E+02  0.7818608E-02  0.1330150E+00
         -1   -1    0    0    0  501 -0.00000000000E+00  0.00000000000E+00  0.55566960914E+02  0.55566961142E+02  0.50400000000E-02 0.  1.
          2   -1    0    0  501    0  0.00000000000E+00 -0.00000000000E+00 -0.28517108965E+02  0.28517109079E+02  0.25500000000E-02 0. -1.
         24    2    1    2    0    0  0.00000000000E+00  0.00000000000E+00  0.27049851949E+02  0.84084070221E+02  0.79614297551E+02 0.  0.
         66    2    3    3    0    0 -0.50259834205E+01  0.35353341256E+02 -0.49862884929E+01  0.36110695254E+02  0.19999978732E+01 0.  0.
        -13    1    3    3    0    0  0.50259834205E+01 -0.35353341256E+02  0.32036140442E+02  0.47973374967E+02  0.10566000000E+00 0.  1.
         13    1    4    4    0    0 -0.34092656551E+01  0.19418641387E+02 -0.24964791194E+01  0.19873356477E+02  0.10566000000E+00 0. -1.
        -13    1    4    4    0    0 -0.30490444535E+00  0.10641857429E+01 -0.27646714172E+00  0.11458866141E+01  0.10566000000E+00 0. -1.
        -14    1    4    4    0    0 -0.13118133201E+01  0.14870514126E+02 -0.22133422318E+01  0.15091452163E+02  0.00000000000E+00 0.  1.
<mgrwt>
<rscale>  0 0.79614298E+02</rscale>
<asrwt>0</asrwt>
<pdfrwt beam="1">  1        2 0.43872476E-02 0.79614298E+02</pdfrwt>
<pdfrwt beam="2">  1       -1 0.85487631E-02 0.79614298E+02</pdfrwt>
<totfact> 0.13503532E+05</totfact>
</mgrwt>
</event>
<event>
 8    1  0.7667702E-014  0.8810092E+02  0.7818608E-02  0.1307517E+00
          2   -1    0    0  501    0  0.00000000000E+00  0.00000000000E+00  0.73251017027E+01  0.73251021465E+01  0.25500000000E-02 0. -1.
         -1   -1    0    0    0  501 -0.00000000000E+00 -0.00000000000E+00 -0.26490319060E+03  0.26490319065E+03  0.50400000000E-02 0.  1.
         24    2    1    2    0    0  0.00000000000E+00  0.00000000000E+00 -0.25757808890E+03  0.27222829279E+03  0.88100916668E+02 0.  0.
         66    2    3    3    0    0  0.34606894143E+02  0.20417088949E+02 -0.73240831967E+02  0.83562635877E+02  0.20000010371E+01 0.  0.
        -13    1    3    3    0    0 -0.34606894143E+02 -0.20417088949E+02 -0.18433725693E+03  0.18866565692E+03  0.10566000000E+00 0.  1.
         13    1    4    4    0    0  0.13357594918E+02  0.71008977009E+01 -0.27888271208E+02  0.31727195356E+02  0.10566000000E+00 0. -1.
        -13    1    4    4    0    0  0.18331020735E+02  0.11188029619E+02 -0.38212856143E+02  0.43834140423E+02  0.10566000000E+00 0.  1.
        -14    1    4    4    0    0  0.29182784900E+01  0.21281616288E+01 -0.71397046153E+01  0.80013000979E+01  0.00000000000E+00 0.  1.
<mgrwt>
<rscale>  0 0.88100917E+02</rscale>
<asrwt>0</asrwt>
<pdfrwt beam="1">  1        2 0.11269390E-02 0.88100917E+02</pdfrwt>
<pdfrwt beam="2">  1       -1 0.40754330E-01 0.88100917E+02</pdfrwt>
<totfact> 0.70817975E+04</totfact>
</mgrwt>
</event>
<event>
 8    1  0.7667702E-014  0.8060388E+02  0.7818608E-02  0.1327346E+00
         -1   -1    0    0    0  501 -0.00000000000E+00  0.00000000000E+00  0.35533639906E+02  0.35533640264E+02  0.50400000000E-02 0.  1.
          2   -1    0    0  501    0  0.00000000000E+00 -0.00000000000E+00 -0.45710099008E+02  0.45710099079E+02  0.25500000000E-02 0. -1.
         24    2    1    2    0    0  0.00000000000E+00  0.35527136788E-14 -0.10176459102E+02  0.81243739343E+02  0.80603876225E+02 0.  0.
         66    2    3    3    0    0 -0.32942277282E+02 -0.23107245705E+02 -0.68668159755E+01  0.40869201101E+02  0.20000001037E+01 0.  0.
        -13    1    3    3    0    0  0.32942277282E+02  0.23107245705E+02 -0.33096431262E+01  0.40374538242E+02  0.10566000000E+00 0.  1.
         13    1    4    4    0    0 -0.16509101550E+02 -0.11570982665E+02 -0.34738510091E+01  0.20457685076E+02  0.10566000000E+00 0. -1.
        -13    1    4    4    0    0 -0.90693393712E+01 -0.64128299379E+01 -0.11708238440E+01  0.11169570133E+02  0.10566000000E+00 0.  1.
        -14    1    4    4    0    0 -0.73638363612E+01 -0.51234331019E+01 -0.22221411224E+01  0.92419458920E+01  0.00000000000E+00 0.  1.
<mgrwt>
<rscale>  0 0.80603876E+02</rscale>
<asrwt>0</asrwt>
<pdfrwt beam="1">  1        2 0.70323229E-02 0.80603876E+02</pdfrwt>
<pdfrwt beam="2">  1       -1 0.54667139E-02 0.80603876E+02</pdfrwt>
<totfact> 0.14357684E+05</totfact>
</mgrwt>
</event>
<event>
 8    1  0.7667702E-014  0.7998553E+02  0.7818608E-02  0.1329093E+00
          2   -1    0    0  501    0  0.00000000000E+00  0.00000000000E+00  0.99344339384E+01  0.99344342657E+01  0.25500000000E-02 0. -1.
         -1   -1    0    0    0  501 -0.00000000000E+00 -0.00000000000E+00 -0.16099771627E+03  0.16099771635E+03  0.50400000000E-02 0.  1.
         24    2    1    2    0    0  0.35527136788E-14  0.00000000000E+00 -0.15106328234E+03  0.17093215062E+03  0.79985528973E+02 0.  0.
         66    2    3    3    0    0 -0.30291521774E+02 -0.21124395963E+02 -0.10824117331E+03  0.11438517385E+03  0.20000002855E+01 0.  0.
        -13    1    3    3    0    0  0.30291521774E+02  0.21124395963E+02 -0.42822109026E+02  0.56546976769E+02  0.10566000000E+00 0.  1.
         13    1    4    4    0    0 -0.64783410638E+01 -0.46277619436E+01 -0.21637404690E+02  0.23055878411E+02  0.10566000000E+00 0. -1.
        -13    1    4    4    0    0 -0.58759486466E+01 -0.46195590246E+01 -0.21358295681E+02  0.22628633553E+02  0.10566000000E+00 0. -1.
         14    1    4    4    0    0 -0.17937232064E+02 -0.11877074994E+02 -0.65245472938E+02  0.68700661885E+02  0.00000000000E+00 0. -1.
<mgrwt>
<rscale>  0 0.79985529E+02</rscale>
<asrwt>0</asrwt>
<pdfrwt beam="1">  1        2 0.15283746E-02 0.79985529E+02</pdfrwt>
<pdfrwt beam="2">  1       -1 0.24768878E-01 0.79985529E+02</pdfrwt>
<totfact> 0.10595636E+05</totfact>
</mgrwt>
</event>
<event>
 8    1  0.7667702E-014  0.8009606E+02  0.7818608E-02  0.1328779E+00
          2   -1    0    0  501    0  0.00000000000E+00  0.00000000000E+00  0.29797963753E+03  0.29797963754E+03  0.25500000000E-02 0. -1.
         -1   -1    0    0    0  501 -0.00000000000E+00 -0.00000000000E+00 -0.53823958403E+01  0.53823982000E+01  0.50400000000E-02 0.  1.
         24    2    1    2    0    0  0.00000000000E+00  0.35527136788E-14  0.29259724168E+03  0.30336203574E+03  0.80096060355E+02 0.  0.
         66    2    3    3    0    0 -0.10523247864E+02 -0.16232914945E+02  0.27909155135E+03  0.27976836903E+03  0.20000001892E+01 0.  0.
        -13    1    3    3    0    0  0.10523247864E+02  0.16232914945E+02  0.13505690333E+02  0.23593666706E+02  0.10566000000E+00 0.  1.
         13    1    4    4    0    0 -0.65492504518E+00 -0.13056643396E+01  0.15767663111E+02  0.15835531258E+02  0.10566000000E+00 0. -1.
        -13    1    4    4    0    0 -0.21972500605E+01 -0.35193648752E+01  0.66623825653E+02  0.66752971062E+02  0.10566000000E+00 0.  1.
         14    1    4    4    0    0 -0.76710727583E+01 -0.11407885730E+02  0.19670006259E+03  0.19717986671E+03  0.00000000000E+00 0. -1.
<mgrwt>
<rscale>  0 0.80096060E+02</rscale>
<asrwt>0</asrwt>
<pdfrwt beam="1">  1        2 0.45843028E-01 0.80096060E+02</pdfrwt>
<pdfrwt beam="2">  1       -1 0.82806096E-03 0.80096060E+02</pdfrwt>
<totfact> 0.25352286E+05</totfact>
</mgrwt>
</event>
<event>
 8    1  0.7667702E-014  0.7099448E+02  0.7818608E-02  0.1356744E+00
         -1   -1    0    0    0  501 -0.00000000000E+00  0.00000000000E+00  0.32596481244E+02  0.32596481634E+02  0.50400000000E-02 0.  1.
          2   -1    0    0  501    0  0.00000000000E+00 -0.00000000000E+00 -0.38656131384E+02  0.38656131468E+02  0.25500000000E-02 0. -1.
         24    2    1    2    0    0  0.17763568394E-14  0.71054273576E-14 -0.60596501401E+01  0.71252613102E+02  0.70994475236E+02 0.  0.
         66    2    3    3    0    0 -0.92498190347E+01 -0.32594423621E+02  0.74984722679E+01  0.34758922543E+02  0.20000016579E+01 0.  0.
        -13    1    3    3    0    0  0.92498190347E+01  0.32594423621E+02 -0.13558122408E+02  0.36493690559E+02  0.10566000000E+00 0.  1.
         13    1    4    4    0    0 -0.43615825132E+01 -0.15587991832E+02  0.41933166793E+01  0.16721362390E+02  0.10566000000E+00 0. -1.
        -13    1    4    4    0    0 -0.20644328128E+01 -0.53825911315E+01  0.12627264490E+01  0.59025259210E+01  0.10566000000E+00 0.  1.
        -14    1    4    4    0    0 -0.28238037087E+01 -0.11623840657E+02  0.20424291396E+01  0.12135034232E+02  0.00000000000E+00 0.  1.
<mgrwt>
<rscale>  0 0.70994475E+02</rscale>
<asrwt>0</asrwt>
<pdfrwt beam="1">  1        2 0.59470971E-02 0.70994475E+02</pdfrwt>
<pdfrwt beam="2">  1       -1 0.50148433E-02 0.70994475E+02</pdfrwt>
<totfact> 0.19636371E+05</totfact>
</mgrwt>
</event>
<event>
 8    1  0.7667702E-014  0.8092187E+02  0.7818608E-02  0.1326455E+00
          2   -1    0    0  501    0  0.00000000000E+00  0.00000000000E+00  0.36421807869E+03  0.36421807870E+03  0.25500000000E-02 0. -1.
         -1   -1    0    0    0  501 -0.00000000000E+00 -0.00000000000E+00 -0.44947980225E+01  0.44948008482E+01  0.50400000000E-02 0.  1.
         24    2    1    2    0    0  0.35527136788E-14  0.00000000000E+00  0.35972328066E+03  0.36871287954E+03  0.80921869045E+02 0.  0.
         66    2    3    3    0    0  0.23403271564E+02 -0.18267531265E+02  0.30505814626E+03  0.30650593538E+03  0.20000017254E+01 0.  0.
        -13    1    3    3    0    0 -0.23403271564E+02  0.18267531265E+02  0.54665134405E+02  0.62206944161E+02  0.10566000000E+00 0.  1.
         13    1    4    4    0    0  0.10627456015E+02 -0.90604012040E+01  0.14812694663E+03  0.14878386059E+03  0.10566000000E+00 0. -1.
        -13    1    4    4    0    0  0.12286652559E+02 -0.89770177541E+01  0.15274254980E+03  0.15349868522E+03  0.10566000000E+00 0.  1.
        -14    1    4    4    0    0  0.48916299017E+00 -0.23011230661E+00  0.41886498252E+01  0.42233895703E+01  0.00000000000E+00 0.  1.
<mgrwt>
<rscale>  0 0.80921869E+02</rscale>
<asrwt>0</asrwt>
<pdfrwt beam="1">  1        2 0.56033538E-01 0.80921869E+02</pdfrwt>
<pdfrwt beam="2">  1       -1 0.69150776E-03 0.80921869E+02</pdfrwt>
<totfact> 0.26526934E+05</totfact>
</mgrwt>
</event>
<event>
 8    1  0.7667702E-014  0.8076525E+02  0.7818608E-02  0.1326894E+00
         -1   -1    0    0    0  501 -0.00000000000E+00  0.00000000000E+00  0.30428248234E+01  0.30428289974E+01  0.50400000000E-02 0.  1.
          2   -1    0    0  501    0  0.00000000000E+00 -0.00000000000E+00 -0.53593465105E+03  0.53593465105E+03  0.25500000000E-02 0. -1.
         24    2    1    2    0    0  0.00000000000E+00  0.00000000000E+00 -0.53289182623E+03  0.53897748005E+03  0.80765249616E+02 0.  0.
         66    2    3    3    0    0  0.36944114792E+01 -0.34675720911E+02 -0.40217828420E+03  0.40369224239E+03  0.19999964005E+01 0.  0.
        -13    1    3    3    0    0 -0.36944114792E+01  0.34675720911E+02 -0.13071354202E+03  0.13528523766E+03  0.10566000000E+00 0.  1.
         13    1    4    4    0    0  0.10253539988E+01 -0.97373493351E+01 -0.10381165840E+03  0.10427242639E+03  0.10566000000E+00 0. -1.
        -13    1    4    4    0    0  0.32799701550E-01 -0.17916918112E+01 -0.21174696545E+02  0.21250651124E+02  0.10566000000E+00 0.  1.
         14    1    4    4    0    0  0.26362577788E+01 -0.23146679765E+02 -0.27719192926E+03  0.27816916487E+03  0.00000000000E+00 0. -1.
<mgrwt>
<rscale>  0 0.80765250E+02</rscale>
<asrwt>0</asrwt>
<pdfrwt beam="1">  1        2 0.82451410E-01 0.80765250E+02</pdfrwt>
<pdfrwt beam="2">  1       -1 0.46812765E-03 0.80765250E+02</pdfrwt>
<totfact> 0.30355425E+05</totfact>
</mgrwt>
</event>
<event>
 8    1  0.7667702E-014  0.7884650E+02  0.7818608E-02  0.1332357E+00
          2   -1    0    0  501    0  0.00000000000E+00  0.00000000000E+00  0.56601238225E+03  0.56601238225E+03  0.25500000000E-02 0. -1.
         -1   -1    0    0    0  501 -0.00000000000E+00 -0.00000000000E+00 -0.27458610537E+01  0.27458656791E+01  0.50400000000E-02 0.  1.
         24    2    1    2    0    0  0.00000000000E+00  0.00000000000E+00  0.56326652119E+03  0.56875824793E+03  0.78846500831E+02 0.  0.
         66    2    3    3    0    0  0.72829894816E+01  0.20615437863E+02  0.51823039154E+03  0.51869526408E+03  0.20000118997E+01 0.  0.
        -13    1    3    3    0    0 -0.72829894816E+01 -0.20615437863E+02  0.45036129650E+02  0.50062983850E+02  0.10566000000E+00 0.  1.
         13    1    4    4    0    0  0.33518033501E+01  0.99360663160E+01  0.22893811499E+03  0.22917816576E+03  0.10566000000E+00 0. -1.
        -13    1    4    4    0    0  0.15301671590E+01  0.31798955506E+01  0.86791065798E+02  0.86862842537E+02  0.10566000000E+00 0.  1.
         14    1    4    4    0    0  0.24010189725E+01  0.74994759967E+01  0.20250121075E+03  0.20265425578E+03  0.00000000000E+00 0. -1.
<mgrwt>
<rscale>  0 0.78846501E+02</rscale>
<asrwt>0</asrwt>
<pdfrwt beam="1">  1        2 0.87078865E-01 0.78846501E+02</pdfrwt>
<pdfrwt beam="2">  1       -1 0.42244034E-03 0.78846501E+02</pdfrwt>
<totfact> 0.32849461E+05</totfact>
</mgrwt>
</event>
<event>
 8    1  0.7667702E-014  0.8001881E+02  0.7818608E-02  0.1328998E+00
         -1   -1    0    0    0  501 -0.00000000000E+00  0.00000000000E+00  0.10023968562E+02  0.10023969829E+02  0.50400000000E-02 0.  1.
          2   -1    0    0  501    0  0.00000000000E+00 -0.00000000000E+00 -0.15969249253E+03  0.15969249255E+03  0.25500000000E-02 0. -1.
         24    2    1    2    0    0  0.17763568394E-14  0.00000000000E+00 -0.14966852396E+03  0.16971646238E+03  0.80018813637E+02 0.  0.
         66    2    3    3    0    0 -0.13574401744E+02 -0.76430888415E+01 -0.15298471495E+03  0.15378882990E+03  0.20000009724E+01 0.  0.
        -13    1    3    3    0    0  0.13574401744E+02  0.76430888415E+01  0.33161909821E+01  0.15927632480E+02  0.10566000000E+00 0.  1.
         13    1    4    4    0    0 -0.43444082352E+01 -0.16375315435E+01 -0.44553939991E+02  0.44795313652E+02  0.10566000000E+00 0. -1.
        -13    1    4    4    0    0 -0.21120033688E+01 -0.16751428514E+01 -0.23124346108E+02  0.23281177134E+02  0.10566000000E+00 0.  1.
         14    1    4    4    0    0 -0.71179901403E+01 -0.43304144466E+01 -0.85306428848E+02  0.85712339110E+02  0.00000000000E+00 0. -1.
<mgrwt>
<rscale>  0 0.80018814E+02</rscale>
<asrwt>0</asrwt>
<pdfrwt beam="1">  1        2 0.24568074E-01 0.80018814E+02</pdfrwt>
<pdfrwt beam="2">  1       -1 0.15421492E-02 0.80018814E+02</pdfrwt>
<totfact> 0.20429228E+05</totfact>
</mgrwt>
</event>
<event>
 8    1  0.7667702E-014  0.7939129E+02  0.7818608E-02  0.1330788E+00
         -1   -1    0    0    0  501 -0.00000000000E+00  0.00000000000E+00  0.11641893426E+02  0.11641894517E+02  0.50400000000E-02 0.  1.
          2   -1    0    0  501    0  0.00000000000E+00 -0.00000000000E+00 -0.13535119042E+03  0.13535119045E+03  0.25500000000E-02 0. -1.
         24    2    1    2    0    0  0.00000000000E+00 -0.71054273576E-14 -0.12370929699E+03  0.14699308496E+03  0.79391289597E+02 0.  0.
         66    2    3    3    0    0 -0.11398665901E+01  0.34755699871E+02 -0.97241534396E+02  0.10329169379E+03  0.20000062386E+01 0.  0.
        -13    1    3    3    0    0  0.11398665901E+01 -0.34755699871E+02 -0.26467762599E+02  0.43701391172E+02  0.10566000000E+00 0.  1.
         13    1    4    4    0    0 -0.59072140866E+00  0.98366115547E+01 -0.26887870472E+02  0.28636979960E+02  0.10566000000E+00 0. -1.
        -13    1    4    4    0    0 -0.39579731588E+00  0.10157438109E+02 -0.26497513735E+02  0.28380620195E+02  0.10566000000E+00 0.  1.
        -14    1    4    4    0    0 -0.15334786555E+00  0.14761650208E+02 -0.43856150189E+02  0.46274093636E+02  0.00000000000E+00 0.  1.
<mgrwt>
<rscale>  0 0.79391290E+02</rscale>
<asrwt>0</asrwt>
<pdfrwt beam="1">  1        2 0.20823259E-01 0.79391290E+02</pdfrwt>
<pdfrwt beam="2">  1       -1 0.17910607E-02 0.79391290E+02</pdfrwt>
<totfact> 0.19785202E+05</totfact>
</mgrwt>
</event>
<event>
 8    1  0.7667702E-014  0.7923776E+02  0.7818608E-02  0.1331229E+00
          2   -1    0    0  501    0  0.00000000000E+00  0.00000000000E+00  0.54922883866E+03  0.54922883867E+03  0.25500000000E-02 0. -1.
         -1   -1    0    0    0  501 -0.00000000000E+00 -0.00000000000E+00 -0.28579243062E+01  0.28579287503E+01  0.50400000000E-02 0.  1.
         24    2    1    2    0    0 -0.88817841970E-15 -0.71054273576E-14  0.54637091436E+03  0.55208676742E+03  0.79237760596E+02 0.  0.
         66    2    3    3    0    0  0.65313533808E+01  0.38267247437E+02  0.32760242911E+03  0.32990057950E+03  0.19999971445E+01 0.  0.
        -13    1    3    3    0    0 -0.65313533808E+01 -0.38267247437E+02  0.21876848524E+03  0.22218618792E+03  0.10566000000E+00 0.  1.
         13    1    4    4    0    0  0.16736164548E+01  0.11954045110E+02  0.10198301367E+03  0.10269491919E+03  0.10566000000E+00 0. -1.
        -13    1    4    4    0    0  0.47547209622E+01  0.24833387313E+02  0.21545613618E+03  0.21693469588E+03  0.10566000000E+00 0.  1.
        -14    1    4    4    0    0  0.10301596375E+00  0.14798150129E+01  0.10163279267E+02  0.10270964425E+02  0.00000000000E+00 0.  1.
<mgrwt>
<rscale>  0 0.79237761E+02</rscale>
<asrwt>0</asrwt>
<pdfrwt beam="1">  1        2 0.84496769E-01 0.79237761E+02</pdfrwt>
<pdfrwt beam="2">  1       -1 0.43968088E-03 0.79237761E+02</pdfrwt>
<totfact> 0.32140841E+05</totfact>
</mgrwt>
</event>
<event>
 8    1  0.7667702E-014  0.8358902E+02  0.7818608E-02  0.1319164E+00
         -1   -1    0    0    0  501 -0.00000000000E+00  0.00000000000E+00  0.26960022285E+02  0.26960022757E+02  0.50400000000E-02 0.  1.
          2   -1    0    0  501    0  0.00000000000E+00 -0.00000000000E+00 -0.64791522551E+02  0.64791522601E+02  0.25500000000E-02 0. -1.
         24    2    1    2    0    0  0.00000000000E+00  0.00000000000E+00 -0.37831500266E+02  0.91751545358E+02  0.83589016403E+02 0.  0.
         66    2    3    3    0    0  0.68601765717E+01  0.37606879288E+02 -0.37406127613E+02  0.53521563690E+02  0.20000011054E+01 0.  0.
        -13    1    3    3    0    0 -0.68601765717E+01 -0.37606879288E+02 -0.42537265288E+00  0.38229981668E+02  0.10566000000E+00 0.  1.
         13    1    4    4    0    0  0.13871690004E+01  0.50977779863E+01 -0.49738744371E+01  0.72568704814E+01  0.10566000000E+00 0. -1.
        -13    1    4    4    0    0  0.13060945687E+01  0.93980267191E+01 -0.10086577759E+02  0.13848429664E+02  0.10566000000E+00 0.  1.
         14    1    4    4    0    0  0.41669130025E+01  0.23111074583E+02 -0.22345675416E+02  0.32416263544E+02  0.00000000000E+00 0. -1.
<mgrwt>
<rscale>  0 0.83589016E+02</rscale>
<asrwt>0</asrwt>
<pdfrwt beam="1">  1        2 0.99679265E-02 0.83589016E+02</pdfrwt>
<pdfrwt beam="2">  1       -1 0.41476958E-02 0.83589016E+02</pdfrwt>
<totfact> 0.14064458E+05</totfact>
</mgrwt>
</event>
<event>
 8    1  0.7667702E-014  0.7979152E+02  0.7818608E-02  0.1329644E+00
         -1   -1    0    0    0  501 -0.00000000000E+00  0.00000000000E+00  0.46268878753E+01  0.46268906203E+01  0.50400000000E-02 0.  1.
          2   -1    0    0  501    0  0.00000000000E+00 -0.00000000000E+00 -0.34400473234E+03  0.34400473235E+03  0.25500000000E-02 0. -1.
         24    2    1    2    0    0  0.17763568394E-14 -0.35527136788E-14 -0.33937784446E+03  0.34863162297E+03  0.79791523491E+02 0.  0.
         66    2    3    3    0    0 -0.14296336241E+02  0.30899751048E+02 -0.26044987637E+03  0.26267340546E+03  0.19999984047E+01 0.  0.
        -13    1    3    3    0    0  0.14296336241E+02 -0.30899751048E+02 -0.78927968098E+02  0.85958217507E+02  0.10566000000E+00 0.  1.
         13    1    4    4    0    0 -0.63889233441E+01  0.15007569080E+02 -0.12567159028E+03  0.12672570867E+03  0.10566000000E+00 0. -1.
        -13    1    4    4    0    0 -0.48136514092E+00  0.11549525614E+01 -0.11946104559E+02  0.12011919330E+02  0.10566000000E+00 0.  1.
        -14    1    4    4    0    0 -0.74260477556E+01  0.14737229407E+02 -0.12283218153E+03  0.12393577746E+03  0.00000000000E+00 0.  1.
<mgrwt>
<rscale>  0 0.79791523E+02</rscale>
<asrwt>0</asrwt>
<pdfrwt beam="1">  1        2 0.52923785E-01 0.79791523E+02</pdfrwt>
<pdfrwt beam="2">  1       -1 0.71182939E-03 0.79791523E+02</pdfrwt>
<totfact> 0.26967139E+05</totfact>
</mgrwt>
</event>
<event>
 8    1  0.7667702E-014  0.7940592E+02  0.7818608E-02  0.1330746E+00
         -1   -1    0    0    0  501 -0.00000000000E+00  0.00000000000E+00  0.20512642715E+01  0.20512704632E+01  0.50400000000E-02 0.  1.
          2   -1    0    0  501    0  0.00000000000E+00 -0.00000000000E+00 -0.76846393340E+03  0.76846393341E+03  0.25500000000E-02 0. -1.
         24    2    1    2    0    0  0.17763568394E-14  0.44408920985E-15 -0.76641266913E+03  0.77051520387E+03  0.79405919113E+02 0.  0.
         66    2    3    3    0    0  0.12408024635E+02  0.31887512252E+01 -0.74783971177E+03  0.74795211190E+03  0.19999997467E+01 0.  0.
        -13    1    3    3    0    0 -0.12408024635E+02 -0.31887512252E+01 -0.18572957367E+02  0.22563091967E+02  0.10566000000E+00 0.  1.
         13    1    4    4    0    0  0.39821713259E+01  0.84503955187E+00 -0.22005815567E+03  0.22009583100E+03  0.10566000000E+00 0. -1.
        -13    1    4    4    0    0  0.28345623135E+01  0.23499546233E+00 -0.20009965268E+03  0.20011989439E+03  0.10566000000E+00 0.  1.
        -14    1    4    4    0    0  0.55912909956E+01  0.21087162110E+01 -0.32768190341E+03  0.32773638651E+03  0.00000000000E+00 0.  1.
<mgrwt>
<rscale>  0 0.79405919E+02</rscale>
<asrwt>0</asrwt>
<pdfrwt beam="1">  1        2 0.11822499E+00 0.79405919E+02</pdfrwt>
<pdfrwt beam="2">  1       -1 0.31558021E-03 0.79405919E+02</pdfrwt>
<totfact> 0.34782154E+05</totfact>
</mgrwt>
</event>
<event>
 8    1  0.7667702E-014  0.7855316E+02  0.7818608E-02  0.1333208E+00
         -1   -1    0    0    0  501 -0.00000000000E+00  0.00000000000E+00  0.95267033492E+02  0.95267033625E+02  0.50400000000E-02 0.  1.
          2   -1    0    0  501    0  0.00000000000E+00 -0.00000000000E+00 -0.16192902662E+02  0.16192902863E+02  0.25500000000E-02 0. -1.
         24    2    1    2    0    0 -0.17763568394E-14  0.00000000000E+00  0.79074130830E+02  0.11145993649E+03  0.78553162096E+02 0.  0.
         66    2    3    3    0    0 -0.13573614434E+02  0.32971538672E+02  0.62846579417E+02  0.72284562079E+02  0.19999998477E+01 0.  0.
        -13    1    3    3    0    0  0.13573614434E+02 -0.32971538672E+02  0.16227551413E+02  0.39175374409E+02  0.10566000000E+00 0.  1.
         13    1    4    4    0    0 -0.95845228014E+01  0.24005079489E+02  0.45461452674E+02  0.52295905785E+02  0.10566000000E+00 0. -1.
        -13    1    4    4    0    0 -0.71323064172E+00  0.26069495741E+01  0.50804000922E+01  0.57555636703E+01  0.10566000000E+00 0.  1.
         14    1    4    4    0    0 -0.32758609904E+01  0.63595096081E+01  0.12304726651E+02  0.14233092624E+02  0.00000000000E+00 0. -1.
<mgrwt>
<rscale>  0 0.78553162E+02</rscale>
<asrwt>0</asrwt>
<pdfrwt beam="1">  1        2 0.24912158E-02 0.78553162E+02</pdfrwt>
<pdfrwt beam="2">  1       -1 0.14656467E-01 0.78553162E+02</pdfrwt>
<totfact> 0.12532141E+05</totfact>
</mgrwt>
</event>
<event>
 8    1  0.7667702E-014  0.7885351E+02  0.7818608E-02  0.1332337E+00
          2   -1    0    0  501    0  0.00000000000E+00  0.00000000000E+00  0.10779864685E+04  0.10779864685E+04  0.25500000000E-02 0. -1.
         -1   -1    0    0    0  501 -0.00000000000E+00 -0.00000000000E+00 -0.14420072553E+01  0.14420160630E+01  0.50400000000E-02 0.  1.
         24    2    1    2    0    0  0.00000000000E+00 -0.17763568394E-14  0.10765444612E+04  0.10794284846E+04  0.78853511372E+02 0.  0.
         66    2    3    3    0    0 -0.19445204710E+02 -0.15578142289E+02  0.95645156463E+03  0.95677812996E+03  0.19999961783E+01 0.  0.
        -13    1    3    3    0    0  0.19445204710E+02  0.15578142289E+02  0.12009289661E+03  0.12265035460E+03  0.10566000000E+00 0.  1.
         13    1    4    4    0    0 -0.10646117837E+02 -0.79916775311E+01  0.50393972960E+03  0.50411553137E+03  0.10566000000E+00 0. -1.
        -13    1    4    4    0    0 -0.36484308962E+01 -0.23761912537E+01  0.17009849916E+03  0.17015424742E+03  0.10566000000E+00 0.  1.
         14    1    4    4    0    0 -0.51506559767E+01 -0.52102735044E+01  0.28241333587E+03  0.28250835118E+03  0.00000000000E+00 0. -1.
<mgrwt>
<rscale>  0 0.78853511E+02</rscale>
<asrwt>0</asrwt>
<pdfrwt beam="1">  1        2 0.16584421E+00 0.78853511E+02</pdfrwt>
<pdfrwt beam="2">  1       -1 0.22184776E-03 0.78853511E+02</pdfrwt>
<totfact> 0.36614200E+05</totfact>
</mgrwt>
</event>
<event>
 8    1  0.7667702E-014  0.8002381E+02  0.7818608E-02  0.1328984E+00
          2   -1    0    0  501    0  0.00000000000E+00  0.00000000000E+00  0.43255826990E+03  0.43255826991E+03  0.25500000000E-02 0. -1.
         -1   -1    0    0    0  501 -0.00000000000E+00 -0.00000000000E+00 -0.37011236704E+01  0.37011271020E+01  0.50400000000E-02 0.  1.
         24    2    1    2    0    0  0.00000000000E+00  0.00000000000E+00  0.42885714623E+03  0.43625939701E+03  0.80023806501E+02 0.  0.
         66    2    3    3    0    0  0.20072852582E+02  0.23182147601E+02  0.35446987968E+03  0.35579941959E+03  0.19999999577E+01 0.  0.
        -13    1    3    3    0    0 -0.20072852582E+02 -0.23182147601E+02  0.74387266555E+02  0.80459977428E+02  0.10566000000E+00 0.  1.
         13    1    4    4    0    0  0.83292915811E+01  0.10336166840E+02  0.15560276598E+03  0.15616800373E+03  0.10566000000E+00 0. -1.
        -13    1    4    4    0    0  0.50439878027E+01  0.61326784665E+01  0.85179465044E+02  0.85548839778E+02  0.10566000000E+00 0.  1.
        -14    1    4    4    0    0  0.66995731983E+01  0.67133022945E+01  0.11368764865E+03  0.11408257608E+03  0.00000000000E+00 0.  1.
<mgrwt>
<rscale>  0 0.80023807E+02</rscale>
<asrwt>0</asrwt>
<pdfrwt beam="1">  1        2 0.66547413E-01 0.80023807E+02</pdfrwt>
<pdfrwt beam="2">  1       -1 0.56940402E-03 0.80023807E+02</pdfrwt>
<totfact> 0.29005149E+05</totfact>
</mgrwt>
</event>
<event>
 8    1  0.7667702E-014  0.7987559E+02  0.7818608E-02  0.1329405E+00
         -1   -1    0    0    0  501 -0.00000000000E+00  0.00000000000E+00  0.44325470450E+02  0.44325470737E+02  0.50400000000E-02 0.  1.
          2   -1    0    0  501    0  0.00000000000E+00 -0.00000000000E+00 -0.35984441644E+02  0.35984441735E+02  0.25500000000E-02 0. -1.
         24    2    1    2    0    0  0.35527136788E-14  0.00000000000E+00  0.83410288056E+01  0.80309912471E+02  0.79875586255E+02 0.  0.
         66    2    3    3    0    0 -0.31101451024E+02 -0.10794040957E+02 -0.18515279570E+02  0.37823631868E+02  0.19999935346E+01 0.  0.
        -13    1    3    3    0    0  0.31101451024E+02  0.10794040957E+02  0.26856308375E+02  0.42486280604E+02  0.10566000000E+00 0.  1.
         13    1    4    4    0    0 -0.12727863954E+02 -0.49165008393E+01 -0.70896025153E+01  0.15376739876E+02  0.10566000000E+00 0. -1.
        -13    1    4    4    0    0 -0.92901797756E+01 -0.34080210813E+01 -0.54574070183E+01  0.11301172654E+02  0.10566000000E+00 0.  1.
        -14    1    4    4    0    0 -0.90834072940E+01 -0.24695190360E+01 -0.59682700359E+01  0.11145719338E+02  0.00000000000E+00 0.  1.
<mgrwt>
<rscale>  0 0.79875586E+02</rscale>
<asrwt>0</asrwt>
<pdfrwt beam="1">  1        2 0.55360680E-02 0.79875586E+02</pdfrwt>
<pdfrwt beam="2">  1       -1 0.68193031E-02 0.79875586E+02</pdfrwt>
<totfact> 0.14012069E+05</totfact>
</mgrwt>
</event>
<event>
 8    1  0.7667702E-014  0.8249325E+02  0.7818608E-02  0.1322121E+00
          2   -1    0    0  501    0  0.00000000000E+00  0.00000000000E+00  0.51767918819E+03  0.51767918820E+03  0.25500000000E-02 0. -1.
         -1   -1    0    0    0  501 -0.00000000000E+00 -0.00000000000E+00 -0.32863657404E+01  0.32863696051E+01  0.50400000000E-02 0.  1.
         24    2    1    2    0    0  0.35527136788E-14 -0.35527136788E-14  0.51439282245E+03  0.52096555780E+03  0.82493252013E+02 0.  0.
         66    2    3    3    0    0  0.31694933290E+02 -0.25488109146E+02  0.29974252053E+03  0.30249593570E+03  0.19999988933E+01 0.  0.
        -13    1    3    3    0    0 -0.31694933290E+02  0.25488109146E+02  0.21465030192E+03  0.21846962211E+03  0.10566000000E+00 0.  1.
         13    1    4    4    0    0  0.28778054955E+02 -0.22547372838E+02  0.26849276245E+03  0.27097035838E+03  0.10566000000E+00 0. -1.
        -13    1    4    4    0    0  0.16219742822E+01 -0.17549276278E+01  0.19248206380E+02  0.19396267281E+02  0.10566000000E+00 0.  1.
         14    1    4    4    0    0  0.12949040531E+01 -0.11858086807E+01  0.12001551697E+02  0.12129310033E+02  0.00000000000E+00 0. -1.
<mgrwt>
<rscale>  0 0.82493252E+02</rscale>
<asrwt>0</asrwt>
<pdfrwt beam="1">  1        2 0.79642985E-01 0.82493252E+02</pdfrwt>
<pdfrwt beam="2">  1       -1 0.50559482E-03 0.82493252E+02</pdfrwt>
<totfact> 0.28417629E+05</totfact>
</mgrwt>
</event>
<event>
 8    1  0.7667702E-014  0.8042518E+02  0.7818608E-02  0.1327849E+00
         -1   -1    0    0    0  501 -0.00000000000E+00  0.00000000000E+00  0.47454773730E+01  0.47454800494E+01  0.50400000000E-02 0.  1.
          2   -1    0    0  501    0  0.00000000000E+00 -0.00000000000E+00 -0.34075645016E+03  0.34075645017E+03  0.25500000000E-02 0. -1.
         24    2    1    2    0    0  0.00000000000E+00  0.00000000000E+00 -0.33601097278E+03  0.34550193022E+03  0.80425182323E+02 0.  0.
         66    2    3    3    0    0 -0.18722705323E+02 -0.12277309253E+02 -0.31147875237E+03  0.31228878493E+03  0.19999999651E+01 0.  0.
        -13    1    3    3    0    0  0.18722705323E+02  0.12277309253E+02 -0.24532220412E+02  0.33213145281E+02  0.10566000000E+00 0.  1.
         13    1    4    4    0    0 -0.13027122137E+01 -0.50080535891E+00 -0.19554867164E+02  0.19604893750E+02  0.10566000000E+00 0. -1.
        -13    1    4    4    0    0 -0.14212727813E+02 -0.95913259890E+01 -0.22969227040E+03  0.23033138174E+03  0.10566000000E+00 0.  1.
         14    1    4    4    0    0 -0.32072652955E+01 -0.21851779050E+01 -0.62231614803E+02  0.62352509445E+02  0.00000000000E+00 0. -1.
<mgrwt>
<rscale>  0 0.80425182E+02</rscale>
<asrwt>0</asrwt>
<pdfrwt beam="1">  1        2 0.52424050E-01 0.80425182E+02</pdfrwt>
<pdfrwt beam="2">  1       -1 0.73007392E-03 0.80425182E+02</pdfrwt>
<totfact> 0.26324906E+05</totfact>
</mgrwt>
</event>
<event>
 8    1  0.9290809E-014  0.8020801E+02  0.7818608E-02  0.1328462E+00
          2   -1    0    0  501    0  0.00000000000E+00  0.00000000000E+00  0.29854532615E+03  0.29854532616E+03  0.25500000000E-02 0. -1.
         -1   -1    0    0    0  501 -0.00000000000E+00 -0.00000000000E+00 -0.53872246023E+01  0.53872269599E+01  0.50400000000E-02 0.  1.
         24    2    1    2    0    0 -0.35527136788E-14  0.00000000000E+00  0.29315810155E+03  0.30393255312E+03  0.80208006729E+02 0.  0.
         66    2    3    3    0    0 -0.21254205980E+02  0.16260911877E+02  0.25972639468E+03  0.26110909326E+03  0.19999897562E+01 0.  0.
        -13    1    3    3    0    0  0.21254205980E+02 -0.16260911877E+02  0.33431706868E+02  0.42823459868E+02  0.10566000000E+00 0.  1.
         13    1    4    4    0    0 -0.12301951987E+02  0.96477769578E+01  0.14766673317E+03  0.14849206333E+03  0.10566000000E+00 0. -1.
        -13    1    4    4    0    0 -0.47871206561E+01  0.40455556505E+01  0.58873663008E+02  0.59206438878E+02  0.10566000000E+00 0.  1.
        -14    1    4    4    0    0 -0.41651333369E+01  0.25675792688E+01  0.53185998501E+02  0.53410591043E+02  0.00000000000E+00 0.  1.
<mgrwt>
<rscale>  0 0.80208007E+02</rscale>
<asrwt>0</asrwt>
<pdfrwt beam="1">  1        2 0.45930048E-01 0.80208007E+02</pdfrwt>
<pdfrwt beam="2">  1       -1 0.82880401E-03 0.80208007E+02</pdfrwt>
<totfact> 0.25276952E+05</totfact>
</mgrwt>
</event>
<event>
 8    1  0.7667702E-014  0.8028483E+02  0.7818608E-02  0.1328245E+00
         -1   -1    0    0    0  501 -0.00000000000E+00  0.00000000000E+00  0.17223366818E+03  0.17223366826E+03  0.50400000000E-02 0.  1.
          2   -1    0    0  501    0  0.00000000000E+00 -0.00000000000E+00 -0.93559730225E+01  0.93559733700E+01  0.25500000000E-02 0. -1.
         24    2    1    2    0    0  0.00000000000E+00  0.00000000000E+00  0.16287769516E+03  0.18158964163E+03  0.80284832722E+02 0.  0.
         66    2    3    3    0    0 -0.28156245700E+01 -0.37043678845E+02  0.47243300471E+02  0.60133944834E+02  0.19999994689E+01 0.  0.
        -13    1    3    3    0    0  0.28156245700E+01  0.37043678845E+02  0.11563439469E+03  0.12145569679E+03  0.10566000000E+00 0.  1.
         13    1    4    4    0    0  0.12417251684E+00 -0.64080906624E+01  0.78649276249E+01  0.10146294660E+02  0.10566000000E+00 0. -1.
        -13    1    4    4    0    0 -0.11180760291E+01 -0.74551716253E+01  0.97196815366E+01  0.12300937004E+02  0.10566000000E+00 0.  1.
         14    1    4    4    0    0 -0.18217210577E+01 -0.23180416557E+02  0.29658691310E+02  0.37686713170E+02  0.00000000000E+00 0. -1.
<mgrwt>
<rscale>  0 0.80284833E+02</rscale>
<asrwt>0</asrwt>
<pdfrwt beam="1">  1        2 0.14393806E-02 0.80284833E+02</pdfrwt>
<pdfrwt beam="2">  1       -1 0.26497486E-01 0.80284833E+02</pdfrwt>
<totfact> 0.10306302E+05</totfact>
</mgrwt>
</event>
<event>
 8    1  0.7667702E-014  0.7823476E+02  0.7818608E-02  0.1334137E+00
         -1   -1    0    0    0  501 -0.00000000000E+00  0.00000000000E+00  0.10504380007E+01  0.10504500915E+01  0.50400000000E-02 0.  1.
          2   -1    0    0  501    0  0.00000000000E+00 -0.00000000000E+00 -0.14566881743E+04  0.14566881743E+04  0.25500000000E-02 0. -1.
         24    2    1    2    0    0  0.55511151231E-16  0.35527136788E-14 -0.14556377363E+04  0.14577386244E+04  0.78234760245E+02 0.  0.
         66    2    3    3    0    0  0.34755534242E+00 -0.22258053943E+02 -0.13270503833E+04  0.13272385850E+04  0.20000002953E+01 0.  0.
        -13    1    3    3    0    0 -0.34755534242E+00  0.22258053943E+02 -0.12858735302E+03  0.13050003939E+03  0.10566000000E+00 0.  1.
         13    1    4    4    0    0  0.87026845570E-01 -0.17265274127E+02 -0.10429065605E+04  0.10430494726E+04  0.10566000000E+00 0. -1.
        -13    1    4    4    0    0 -0.77807992163E-01 -0.41414891844E+01 -0.22412906454E+03  0.22416736320E+03  0.10566000000E+00 0.  1.
        -14    1    4    4    0    0  0.33833648901E+00 -0.85129063167E+00 -0.60014758255E+02  0.60021749189E+02  0.00000000000E+00 0.  1.
<mgrwt>
<rscale>  0 0.78234760E+02</rscale>
<asrwt>0</asrwt>
<pdfrwt beam="1">  1        2 0.22410426E+00 0.78234760E+02</pdfrwt>
<pdfrwt beam="2">  1       -1 0.16160794E-03 0.78234760E+02</pdfrwt>
<totfact> 0.35603370E+05</totfact>
</mgrwt>
</event>
<event>
 8    1  0.7667702E-014  0.7960240E+02  0.7818608E-02  0.1330184E+00
         -1   -1    0    0    0  501 -0.00000000000E+00  0.00000000000E+00  0.68860602472E+01  0.68860620916E+01  0.50400000000E-02 0.  1.
          2   -1    0    0  501    0  0.00000000000E+00 -0.00000000000E+00 -0.23004958793E+03  0.23004958795E+03  0.25500000000E-02 0. -1.
         24    2    1    2    0    0 -0.22204460493E-15  0.00000000000E+00 -0.22316352769E+03  0.23693565004E+03  0.79602400530E+02 0.  0.
         66    2    3    3    0    0 -0.13361381876E+01 -0.37512162435E+02 -0.72481706939E+02  0.81648915694E+02  0.19999993570E+01 0.  0.
        -13    1    3    3    0    0  0.13361381876E+01  0.37512162435E+02 -0.15068182075E+03  0.15528673435E+03  0.10566000000E+00 0.  1.
         13    1    4    4    0    0 -0.11753914407E+01 -0.14720849394E+02 -0.29277040895E+02  0.32790871283E+02  0.10566000000E+00 0. -1.
        -13    1    4    4    0    0 -0.22064897658E+00 -0.16472752707E+02 -0.32132760687E+02  0.36109911951E+02  0.10566000000E+00 0.  1.
         14    1    4    4    0    0  0.59902229680E-01 -0.63185603347E+01 -0.11071905356E+02  0.12748132459E+02  0.00000000000E+00 0. -1.
<mgrwt>
<rscale>  0 0.79602401E+02</rscale>
<asrwt>0</asrwt>
<pdfrwt beam="1">  1        2 0.35392239E-01 0.79602401E+02</pdfrwt>
<pdfrwt beam="2">  1       -1 0.10593942E-02 0.79602401E+02</pdfrwt>
<totfact> 0.23476526E+05</totfact>
</mgrwt>
</event>
<event>
 8    1  0.7667702E-014  0.7952130E+02  0.7818608E-02  0.1330415E+00
          2   -1    0    0  501    0  0.00000000000E+00  0.00000000000E+00  0.98210572199E+01  0.98210575510E+01  0.25500000000E-02 0. -1.
         -1   -1    0    0    0  501 -0.00000000000E+00 -0.00000000000E+00 -0.16097140433E+03  0.16097140441E+03  0.50400000000E-02 0.  1.
         24    2    1    2    0    0  0.00000000000E+00  0.55511151231E-16 -0.15115034711E+03  0.17079246196E+03  0.79521302999E+02 0.  0.
         66    2    3    3    0    0  0.38249329376E+02  0.31243283629E+00 -0.52511175635E+02  0.64996402840E+02  0.20000008900E+01 0.  0.
        -13    1    3    3    0    0 -0.38249329376E+02 -0.31243283629E+00 -0.98639171473E+02  0.10579605912E+03  0.10566000000E+00 0.  1.
         13    1    4    4    0    0  0.12633078872E+02  0.68042062034E+00 -0.18412456509E+02  0.22340263488E+02  0.10566000000E+00 0. -1.
        -13    1    4    4    0    0  0.25146388723E+02 -0.41205672016E+00 -0.33330954929E+02  0.41754932369E+02  0.10566000000E+00 0.  1.
        -14    1    4    4    0    0  0.46986178080E+00  0.44068936116E-01 -0.76776419664E+00  0.90120698279E+00  0.00000000000E+00 0.  1.
<mgrwt>
<rscale>  0 0.79521303E+02</rscale>
<asrwt>0</asrwt>
<pdfrwt beam="1">  1        2 0.15109320E-02 0.79521303E+02</pdfrwt>
<pdfrwt beam="2">  1       -1 0.24764830E-01 0.79521303E+02</pdfrwt>
<totfact> 0.10753430E+05</totfact>
</mgrwt>
</event>
<event>
 8    1  0.7667702E-014  0.7972620E+02  0.7818608E-02  0.1329830E+00
         -1   -1    0    0    0  501 -0.00000000000E+00  0.00000000000E+00  0.31845821467E+01  0.31845861350E+01  0.50400000000E-02 0.  1.
          2   -1    0    0  501    0  0.00000000000E+00 -0.00000000000E+00 -0.49898718408E+03  0.49898718409E+03  0.25500000000E-02 0. -1.
         24    2    1    2    0    0  0.00000000000E+00 -0.35527136788E-14 -0.49580260194E+03  0.50217177022E+03  0.79726198477E+02 0.  0.
         66    2    3    3    0    0 -0.88373465479E+01  0.11331735179E+02 -0.48209039010E+03  0.48230866791E+03  0.19999991006E+01 0.  0.
        -13    1    3    3    0    0  0.88373465479E+01 -0.11331735179E+02 -0.13712211839E+02  0.19863102319E+02  0.10566000000E+00 0.  1.
         13    1    4    4    0    0 -0.48881228550E+01  0.50066711953E+01 -0.24852782173E+03  0.24862632572E+03  0.10566000000E+00 0. -1.
        -13    1    4    4    0    0 -0.32710244500E+01  0.52827143506E+01 -0.20098152112E+03  0.20107757127E+03  0.10566000000E+00 0.  1.
        -14    1    4    4    0    0 -0.67819924294E+00  0.10423496335E+01 -0.32581047246E+02  0.32604770918E+02  0.00000000000E+00 0.  1.
<mgrwt>
<rscale>  0 0.79726198E+02</rscale>
<asrwt>0</asrwt>
<pdfrwt beam="1">  1        2 0.76767197E-01 0.79726198E+02</pdfrwt>
<pdfrwt beam="2">  1       -1 0.48993642E-03 0.79726198E+02</pdfrwt>
<totfact> 0.30704741E+05</totfact>
</mgrwt>
</event>
<event>
 8    1  0.7667702E-014  0.8295918E+02  0.7818608E-02  0.1320857E+00
         -1   -1    0    0    0  501 -0.00000000000E+00  0.00000000000E+00  0.94172762900E+00  0.94174111561E+00  0.50400000000E-02 0.  1.
          2   -1    0    0  501    0  0.00000000000E+00 -0.00000000000E+00 -0.18270081607E+04  0.18270081607E+04  0.25500000000E-02 0. -1.
         24    2    1    2    0    0 -0.22204460493E-15  0.00000000000E+00 -0.18260664331E+04  0.18279499019E+04  0.82959180117E+02 0.  0.
         66    2    3    3    0    0 -0.15382452538E+01  0.16293522171E+02 -0.17528089958E+04  0.17528865397E+04  0.19999996633E+01 0.  0.
        -13    1    3    3    0    0  0.15382452538E+01 -0.16293522171E+02 -0.73257437275E+02  0.75063362190E+02  0.10566000000E+00 0.  1.
         13    1    4    4    0    0 -0.38632925170E+00  0.12510968012E+01 -0.13402926610E+03  0.13403570356E+03  0.10566000000E+00 0. -1.
        -13    1    4    4    0    0 -0.47985761636E+00  0.10354160781E+02 -0.11808624257E+04  0.11809079212E+04  0.10566000000E+00 0.  1.
        -14    1    4    4    0    0 -0.67205838577E+00  0.46882645893E+01 -0.43791730408E+03  0.43794291488E+03  0.00000000000E+00 0.  1.
<mgrwt>
<rscale>  0 0.82959180E+02</rscale>
<asrwt>0</asrwt>
<pdfrwt beam="1">  1        2 0.28107534E+00 0.82959180E+02</pdfrwt>
<pdfrwt beam="2">  1       -1 0.14488367E-03 0.82959180E+02</pdfrwt>
<totfact> 0.27198916E+05</totfact>
</mgrwt>
</event>
<event>
 8    1  0.7667702E-014  0.8206394E+02  0.7818608E-02  0.1323294E+00
          2   -1    0    0  501    0  0.00000000000E+00  0.00000000000E+00  0.52129466464E+01  0.52129472701E+01  0.25500000000E-02 0. -1.
         -1   -1    0    0    0  501 -0.00000000000E+00 -0.00000000000E+00 -0.32296945129E+03  0.32296945133E+03  0.50400000000E-02 0.  1.
         24    2    1    2    0    0 -0.71054273576E-14  0.00000000000E+00 -0.31775650465E+03  0.32818239860E+03  0.82063941577E+02 0.  0.
         66    2    3    3    0    0  0.34891784636E+02  0.21129980372E+02 -0.14214524277E+03  0.14789585122E+03  0.20000149890E+01 0.  0.
        -13    1    3    3    0    0 -0.34891784636E+02 -0.21129980372E+02 -0.17561126188E+03  0.18028654739E+03  0.10566000000E+00 0.  1.
         13    1    4    4    0    0  0.18597059685E+02  0.10546152812E+02 -0.73714508883E+02  0.76752276526E+02  0.10566000000E+00 0. -1.
        -13    1    4    4    0    0  0.99021704066E+01  0.68098843123E+01 -0.43734228697E+02  0.45355500514E+02  0.10566000000E+00 0.  1.
        -14    1    4    4    0    0  0.63925545441E+01  0.37739432477E+01 -0.24696505187E+02  0.25788074176E+02  0.00000000000E+00 0.  1.
<mgrwt>
<rscale>  0 0.82063942E+02</rscale>
<asrwt>0</asrwt>
<pdfrwt beam="1">  1        2 0.80199209E-03 0.82063942E+02</pdfrwt>
<pdfrwt beam="2">  1       -1 0.49687592E-01 0.82063942E+02</pdfrwt>
<totfact> 0.78504443E+04</totfact>
</mgrwt>
</event>
<event>
 8    1  0.7667702E-014  0.8326337E+02  0.7818608E-02  0.1320038E+00
         -1   -1    0    0    0  501 -0.00000000000E+00  0.00000000000E+00  0.62897999409E+01  0.62898019602E+01  0.50400000000E-02 0.  1.
          2   -1    0    0  501    0  0.00000000000E+00 -0.00000000000E+00 -0.27555675199E+03  0.27555675200E+03  0.25500000000E-02 0. -1.
         24    2    1    2    0    0  0.00000000000E+00  0.00000000000E+00 -0.26926695205E+03  0.28184655396E+03  0.83263368382E+02 0.  0.
         66    2    3    3    0    0  0.32357285245E+02  0.23850184837E+02 -0.98352991364E+02  0.10626916833E+03  0.20000003979E+01 0.  0.
        -13    1    3    3    0    0 -0.32357285245E+02 -0.23850184837E+02 -0.17091396068E+03  0.17557738563E+03  0.10566000000E+00 0.  1.
         13    1    4    4    0    0  0.23939959500E+02  0.17452825265E+02 -0.70900940298E+02  0.76841897879E+02  0.10566000000E+00 0. -1.
        -13    1    4    4    0    0  0.13122824710E+01  0.12626224626E+01 -0.42832198975E+01  0.46554739279E+01  0.10566000000E+00 0.  1.
         14    1    4    4    0    0  0.71050432741E+01  0.51347371084E+01 -0.23168831169E+02  0.24771796520E+02  0.00000000000E+00 0. -1.
<mgrwt>
<rscale>  0 0.83263368E+02</rscale>
<asrwt>0</asrwt>
<pdfrwt beam="1">  1        2 0.42393337E-01 0.83263368E+02</pdfrwt>
<pdfrwt beam="2">  1       -1 0.96766190E-03 0.83263368E+02</pdfrwt>
<totfact> 0.22253788E+05</totfact>
</mgrwt>
</event>
<event>
 8    1  0.7667702E-014  0.8026286E+02  0.7818608E-02  0.1328307E+00
         -1   -1    0    0    0  501 -0.00000000000E+00  0.00000000000E+00  0.17834656406E+03  0.17834656413E+03  0.50400000000E-02 0.  1.
          2   -1    0    0  501    0  0.00000000000E+00 -0.00000000000E+00 -0.90303486111E+01  0.90303489711E+01  0.25500000000E-02 0. -1.
         24    2    1    2    0    0  0.00000000000E+00  0.88817841970E-15  0.16931621545E+03  0.18737691310E+03  0.80262860338E+02 0.  0.
         66    2    3    3    0    0  0.30840311921E+02 -0.73823706113E+01  0.27388044308E+02  0.41949126339E+02  0.19999985952E+01 0.  0.
        -13    1    3    3    0    0 -0.30840311921E+02  0.73823706113E+01  0.14192817114E+03  0.14542778676E+03  0.10566000000E+00 0.  1.
         13    1    4    4    0    0  0.12255067563E+02 -0.23092740978E+01  0.10379003761E+02  0.16225113588E+02  0.10566000000E+00 0. -1.
        -13    1    4    4    0    0  0.57614668865E+01 -0.17159636197E+01  0.46562956401E+01  0.76046883534E+01  0.10566000000E+00 0.  1.
        -14    1    4    4    0    0  0.12823777472E+02 -0.33571328938E+01  0.12352744907E+02  0.18119324398E+02  0.00000000000E+00 0.  1.
<mgrwt>
<rscale>  0 0.80262860E+02</rscale>
<asrwt>0</asrwt>
<pdfrwt beam="1">  1        2 0.13892845E-02 0.80262860E+02</pdfrwt>
<pdfrwt beam="2">  1       -1 0.27437931E-01 0.80262860E+02</pdfrwt>
<totfact> 0.10213784E+05</totfact>
</mgrwt>
</event>
<event>
 8    1  0.7667702E-014  0.8042129E+02  0.7818608E-02  0.1327860E+00
         -1   -1    0    0    0  501 -0.00000000000E+00  0.00000000000E+00  0.21605383446E+02  0.21605384034E+02  0.50400000000E-02 0.  1.
          2   -1    0    0  501    0  0.00000000000E+00 -0.00000000000E+00 -0.74837635801E+02  0.74837635845E+02  0.25500000000E-02 0. -1.
         24    2    1    2    0    0  0.00000000000E+00  0.17763568394E-14 -0.53232252355E+02  0.96443019879E+02  0.80421286937E+02 0.  0.
         66    2    3    3    0    0 -0.38298061807E+02  0.10351767830E+02 -0.34310398945E+02  0.52489085631E+02  0.19999997980E+01 0.  0.
        -13    1    3    3    0    0  0.38298061807E+02 -0.10351767830E+02 -0.18921853409E+02  0.43953934248E+02  0.10566000000E+00 0.  1.
         13    1    4    4    0    0 -0.19759924028E+02  0.45985263630E+01 -0.18017119957E+02  0.27133536774E+02  0.10566000000E+00 0. -1.
        -13    1    4    4    0    0 -0.23130130274E+01  0.70732415028E+00 -0.17126611127E+01  0.29655874361E+01  0.10566000000E+00 0.  1.
         14    1    4    4    0    0 -0.16225124752E+02  0.50459173166E+01 -0.14580617876E+02  0.22389961421E+02  0.00000000000E+00 0. -1.
<mgrwt>
<rscale>  0 0.80421287E+02</rscale>
<asrwt>0</asrwt>
<pdfrwt beam="1">  1        2 0.11513482E-01 0.80421287E+02</pdfrwt>
<pdfrwt beam="2">  1       -1 0.33239052E-02 0.80421287E+02</pdfrwt>
<totfact> 0.16184223E+05</totfact>
</mgrwt>
</event>
<event>
 8    1  0.7667702E-014  0.8735204E+02  0.7818608E-02  0.1309394E+00
         -1   -1    0    0    0  501 -0.00000000000E+00  0.00000000000E+00  0.10570939238E+03  0.10570939250E+03  0.50400000000E-02 0.  1.
          2   -1    0    0  501    0  0.00000000000E+00 -0.00000000000E+00 -0.18045648191E+02  0.18045648371E+02  0.25500000000E-02 0. -1.
         24    2    1    2    0    0  0.00000000000E+00  0.00000000000E+00  0.87663744185E+02  0.12375504087E+03  0.87352035440E+02 0.  0.
         66    2    3    3    0    0  0.15660746226E+02  0.39276901290E+02  0.28487540593E+02  0.51024248331E+02  0.20000003496E+01 0.  0.
        -13    1    3    3    0    0 -0.15660746226E+02 -0.39276901290E+02  0.59176203591E+02  0.72730792536E+02  0.10566000000E+00 0.  1.
         13    1    4    4    0    0  0.12973883578E+02  0.33455980241E+02  0.24340518142E+02  0.43360076758E+02  0.10566000000E+00 0. -1.
        -13    1    4    4    0    0  0.15440918711E+01  0.38023019440E+01  0.23532829809E+01  0.47318943990E+01  0.10566000000E+00 0.  1.
         14    1    4    4    0    0  0.11427707768E+01  0.20186191052E+01  0.17937394698E+01  0.29322771741E+01  0.00000000000E+00 0. -1.
<mgrwt>
<rscale>  0 0.87352035E+02</rscale>
<asrwt>0</asrwt>
<pdfrwt beam="1">  1        2 0.27762535E-02 0.87352035E+02</pdfrwt>
<pdfrwt beam="2">  1       -1 0.16262984E-01 0.87352035E+02</pdfrwt>
<totfact> 0.94027174E+04</totfact>
</mgrwt>
</event>
<event>
 8    1  0.7667702E-014  0.8038637E+02  0.7818608E-02  0.1327959E+00
          2   -1    0    0  501    0  0.00000000000E+00  0.00000000000E+00  0.10778587772E+03  0.10778587775E+03  0.25500000000E-02 0. -1.
         -1   -1    0    0    0  501 -0.00000000000E+00 -0.00000000000E+00 -0.14987975936E+02  0.14987976784E+02  0.50400000000E-02 0.  1.
         24    2    1    2    0    0  0.71054273576E-14  0.44408920985E-15  0.92797901783E+02  0.12277385453E+03  0.80386371865E+02 0.  0.
         66    2    3    3    0    0 -0.33993947984E+02 -0.27429378805E+01  0.78839948875E+02  0.85923510963E+02  0.19999974584E+01 0.  0.
        -13    1    3    3    0    0  0.33993947984E+02  0.27429378805E+01  0.13957952908E+02  0.36850343569E+02  0.10566000000E+00 0.  1.
         13    1    4    4    0    0 -0.13899136344E+02 -0.32909767278E+00  0.30925951336E+02  0.33907520205E+02  0.10566000000E+00 0. -1.
        -13    1    4    4    0    0 -0.10909843985E+02 -0.14170133477E+01  0.26640789312E+02  0.28823175429E+02  0.10566000000E+00 0.  1.
         14    1    4    4    0    0 -0.91849676550E+01 -0.99682685996E+00  0.21273208227E+02  0.23192815329E+02  0.00000000000E+00 0. -1.
<mgrwt>
<rscale>  0 0.80386372E+02</rscale>
<asrwt>0</asrwt>
<pdfrwt beam="1">  1        2 0.16582443E-01 0.80386372E+02</pdfrwt>
<pdfrwt beam="2">  1       -1 0.23058425E-02 0.80386372E+02</pdfrwt>
<totfact> 0.17875283E+05</totfact>
</mgrwt>
</event>
<event>
 8    1  0.7667702E-014  0.7982285E+02  0.7818608E-02  0.1329555E+00
          2   -1    0    0  501    0  0.00000000000E+00  0.00000000000E+00  0.10172724453E+03  0.10172724456E+03  0.25500000000E-02 0. -1.
         -1   -1    0    0    0  501 -0.00000000000E+00 -0.00000000000E+00 -0.15658753614E+02  0.15658754425E+02  0.50400000000E-02 0.  1.
         24    2    1    2    0    0 -0.44408920985E-15  0.00000000000E+00  0.86068490918E+02  0.11738599899E+03  0.79822851550E+02 0.  0.
         66    2    3    3    0    0  0.23131186328E+01  0.15014838174E+02  0.97295961346E+02  0.98495177422E+02  0.19999994734E+01 0.  0.
        -13    1    3    3    0    0 -0.23131186328E+01 -0.15014838174E+02 -0.11227470428E+02  0.18890821566E+02  0.10566000000E+00 0.  1.
         13    1    4    4    0    0  0.18639274929E+01  0.94524934583E+01  0.57444210681E+02  0.58246651089E+02  0.10566000000E+00 0. -1.
        -13    1    4    4    0    0  0.54446351898E-03  0.89102753017E-01  0.13603754255E+01  0.13673788542E+01  0.10566000000E+00 0. -1.
         14    1    4    4    0    0  0.44864667631E+00  0.54732419627E+01  0.38491375240E+02  0.38881147479E+02  0.00000000000E+00 0. -1.
<mgrwt>
<rscale>  0 0.79822852E+02</rscale>
<asrwt>0</asrwt>
<pdfrwt beam="1">  1        2 0.15650346E-01 0.79822852E+02</pdfrwt>
<pdfrwt beam="2">  1       -1 0.24090390E-02 0.79822852E+02</pdfrwt>
<totfact> 0.17917319E+05</totfact>
</mgrwt>
</event>
<event>
 8    1  0.7667702E-014  0.7920411E+02  0.7818608E-02  0.1331325E+00
         -1   -1    0    0    0  501 -0.00000000000E+00  0.00000000000E+00  0.90294043777E+01  0.90294057843E+01  0.50400000000E-02 0.  1.
          2   -1    0    0  501    0  0.00000000000E+00 -0.00000000000E+00 -0.17369059875E+03  0.17369059877E+03  0.25500000000E-02 0. -1.
         24    2    1    2    0    0 -0.35527136788E-14  0.00000000000E+00 -0.16466119437E+03  0.18272000455E+03  0.79204110574E+02 0.  0.
         66    2    3    3    0    0  0.26912305392E+02 -0.26416451982E+02 -0.54678710954E+02  0.66451956751E+02  0.20000018972E+01 0.  0.
        -13    1    3    3    0    0 -0.26912305392E+02  0.26416451982E+02 -0.10998248342E+03  0.11626804780E+03  0.10566000000E+00 0.  1.
         13    1    4    4    0    0  0.10006411769E+02 -0.88722030717E+01 -0.18701626408E+02  0.22991438802E+02  0.10566000000E+00 0. -1.
        -13    1    4    4    0    0  0.13762508737E+02 -0.13875701426E+02 -0.28424955828E+02  0.34495376715E+02  0.10566000000E+00 0.  1.
        -14    1    4    4    0    0  0.31433848862E+01 -0.36685474843E+01 -0.75521287176E+01  0.89651412345E+01  0.00000000000E+00 0.  1.
<mgrwt>
<rscale>  0 0.79204111E+02</rscale>
<asrwt>0</asrwt>
<pdfrwt beam="1">  1        2 0.26721628E-01 0.79204111E+02</pdfrwt>
<pdfrwt beam="2">  1       -1 0.13891394E-02 0.79204111E+02</pdfrwt>
<totfact> 0.21582936E+05</totfact>
</mgrwt>
</event>
<event>
 8    1  0.7667702E-014  0.7845194E+02  0.7818608E-02  0.1333503E+00
          2   -1    0    0  501    0  0.00000000000E+00  0.00000000000E+00  0.65209418290E+03  0.65209418290E+03  0.25500000000E-02 0. -1.
         -1   -1    0    0    0  501 -0.00000000000E+00 -0.00000000000E+00 -0.23595898244E+01  0.23595952071E+01  0.50400000000E-02 0.  1.
         24    2    1    2    0    0  0.00000000000E+00  0.00000000000E+00  0.64973459307E+03  0.65445377811E+03  0.78451935897E+02 0.  0.
         66    2    3    3    0    0 -0.11613759998E+02  0.19658840816E+01  0.63697946782E+03  0.63709150563E+03  0.19999984430E+01 0.  0.
        -13    1    3    3    0    0  0.11613759998E+02 -0.19658840816E+01  0.12755125247E+02  0.17362272478E+02  0.10566000000E+00 0.  1.
         13    1    4    4    0    0 -0.82138305159E+01  0.15288430962E+01  0.46618894582E+03  0.46626381882E+03  0.10566000000E+00 0. -1.
        -13    1    4    4    0    0 -0.13673954785E+01 -0.25183312387E+00  0.58091721966E+02  0.58108454766E+02  0.10566000000E+00 0.  1.
         14    1    4    4    0    0 -0.20325340037E+01  0.68887410923E+00  0.11269880004E+03  0.11271923204E+03  0.00000000000E+00 0. -1.
<mgrwt>
<rscale>  0 0.78451936E+02</rscale>
<asrwt>0</asrwt>
<pdfrwt beam="1">  1        2 0.10032231E+00 0.78451936E+02</pdfrwt>
<pdfrwt beam="2">  1       -1 0.36301376E-03 0.78451936E+02</pdfrwt>
<totfact> 0.34596769E+05</totfact>
</mgrwt>
</event>
<event>
 8    1  0.7667702E-014  0.8220412E+02  0.7818608E-02  0.1322910E+00
          2   -1    0    0  501    0  0.00000000000E+00  0.00000000000E+00  0.36561781769E+03  0.36561781770E+03  0.25500000000E-02 0. -1.
         -1   -1    0    0    0  501 -0.00000000000E+00 -0.00000000000E+00 -0.46206142827E+01  0.46206170314E+01  0.50400000000E-02 0.  1.
         24    2    1    2    0    0  0.35527136788E-14 -0.35527136788E-14  0.36099720340E+03  0.37023843473E+03  0.82204122060E+02 0.  0.
         66    2    3    3    0    0 -0.29032169131E+02  0.27109324556E+02  0.22775469571E+03  0.23120117590E+03  0.19999989776E+01 0.  0.
        -13    1    3    3    0    0  0.29032169131E+02 -0.27109324556E+02  0.13324250770E+03  0.13903725883E+03  0.10566000000E+00 0.  1.
         13    1    4    4    0    0 -0.13935865299E+02  0.12770117160E+02  0.10508313233E+03  0.10676965907E+03  0.10566000000E+00 0. -1.
        -13    1    4    4    0    0 -0.10435632406E+02  0.10539471615E+02  0.88873964150E+02  0.90103138422E+02  0.10566000000E+00 0.  1.
        -14    1    4    4    0    0 -0.46606714251E+01  0.37997357822E+01  0.33797599233E+02  0.34328378407E+02  0.00000000000E+00 0.  1.
<mgrwt>
<rscale>  0 0.82204122E+02</rscale>
<asrwt>0</asrwt>
<pdfrwt beam="1">  1        2 0.56248928E-01 0.82204122E+02</pdfrwt>
<pdfrwt beam="2">  1       -1 0.71086353E-03 0.82204122E+02</pdfrwt>
<totfact> 0.25491158E+05</totfact>
</mgrwt>
</event>
<event>
 8    1  0.7667702E-014  0.7940117E+02  0.7818608E-02  0.1330759E+00
          2   -1    0    0  501    0  0.00000000000E+00  0.00000000000E+00  0.11798917715E+03  0.11798917718E+03  0.25500000000E-02 0. -1.
         -1   -1    0    0    0  501 -0.00000000000E+00 -0.00000000000E+00 -0.13358313656E+02  0.13358314607E+02  0.50400000000E-02 0.  1.
         24    2    1    2    0    0  0.00000000000E+00  0.35527136788E-14  0.10463086349E+03  0.13134749178E+03  0.79401171292E+02 0.  0.
         66    2    3    3    0    0  0.96389815641E+00  0.26582099702E+02  0.10104560005E+03  0.10450717878E+03  0.20000007615E+01 0.  0.
        -13    1    3    3    0    0 -0.96389815641E+00 -0.26582099702E+02  0.35852634456E+01  0.26840313005E+02  0.10566000000E+00 0.  1.
         13    1    4    4    0    0 -0.50765411268E-01  0.29224373796E+01  0.11133501838E+02  0.11511265985E+02  0.10566000000E+00 0. -1.
        -13    1    4    4    0    0  0.65255656099E+00  0.33551918811E+01  0.11598200422E+02  0.12091838557E+02  0.10566000000E+00 0.  1.
         14    1    4    4    0    0  0.36210700669E+00  0.20304470441E+02  0.78313897787E+02  0.80904074236E+02  0.00000000000E+00 0. -1.
<mgrwt>
<rscale>  0 0.79401171E+02</rscale>
<asrwt>0</asrwt>
<pdfrwt beam="1">  1        2 0.18152182E-01 0.79401171E+02</pdfrwt>
<pdfrwt beam="2">  1       -1 0.20551251E-02 0.79401171E+02</pdfrwt>
<totfact> 0.18968918E+05</totfact>
</mgrwt>
</event>
<event>
 8    1  0.7667702E-014  0.8083283E+02  0.7818608E-02  0.1326704E+00
         -1   -1    0    0    0  501 -0.00000000000E+00  0.00000000000E+00  0.19176896091E+01  0.19176962320E+01  0.50400000000E-02 0.  1.
          2   -1    0    0  501    0  0.00000000000E+00 -0.00000000000E+00 -0.85179773013E+03  0.85179773014E+03  0.25500000000E-02 0. -1.
         24    2    1    2    0    0  0.00000000000E+00  0.00000000000E+00 -0.84988004053E+03  0.85371542637E+03  0.80832827114E+02 0.  0.
         66    2    3    3    0    0 -0.14172778054E+02  0.13416724379E+02 -0.79869505190E+03  0.79893595617E+03  0.20000001639E+01 0.  0.
        -13    1    3    3    0    0  0.14172778054E+02 -0.13416724379E+02 -0.51184988625E+02  0.54779470200E+02  0.10566000000E+00 0.  1.
         13    1    4    4    0    0 -0.88087187314E+01  0.76614080088E+01 -0.45233560858E+03  0.45248624803E+03  0.10566000000E+00 0. -1.
        -13    1    4    4    0    0 -0.28260138093E+01  0.25755539085E+01 -0.17832295498E+03  0.17836397413E+03  0.10566000000E+00 0. -1.
         14    1    4    4    0    0 -0.25380455132E+01  0.31797624616E+01 -0.16803648834E+03  0.16808573401E+03  0.00000000000E+00 0. -1.
<mgrwt>
<rscale>  0 0.80832827E+02</rscale>
<asrwt>0</asrwt>
<pdfrwt beam="1">  1        2 0.13104550E+00 0.80832827E+02</pdfrwt>
<pdfrwt beam="2">  1       -1 0.29503036E-03 0.80832827E+02</pdfrwt>
<totfact> 0.33784161E+05</totfact>
</mgrwt>
</event>
<event>
 8    1  0.7667702E-014  0.8028736E+02  0.7818608E-02  0.1328238E+00
          2   -1    0    0  501    0  0.00000000000E+00  0.00000000000E+00  0.80253595607E+02  0.80253595648E+02  0.25500000000E-02 0. -1.
         -1   -1    0    0    0  501 -0.00000000000E+00 -0.00000000000E+00 -0.20080283103E+02  0.20080283736E+02  0.50400000000E-02 0.  1.
         24    2    1    2    0    0 -0.44408920985E-15 -0.17763568394E-14  0.60173312504E+02  0.10033387938E+03  0.80287357750E+02 0.  0.
         66    2    3    3    0    0 -0.26162637506E+01  0.11689921617E+02  0.77953852034E+02  0.78894246610E+02  0.19999994586E+01 0.  0.
        -13    1    3    3    0    0  0.26162637506E+01 -0.11689921617E+02 -0.17780539530E+02  0.21439632773E+02  0.10566000000E+00 0.  1.
         13    1    4    4    0    0 -0.42362850174E+00  0.38989724115E+01  0.29344925154E+02  0.29606033900E+02  0.10566000000E+00 0. -1.
        -13    1    4    4    0    0 -0.16968158820E+00  0.42573337529E+00  0.43164188502E+01  0.43419668900E+01  0.10566000000E+00 0.  1.
        -14    1    4    4    0    0 -0.20229536607E+01  0.73652158298E+01  0.44292508030E+02  0.44946245820E+02  0.00000000000E+00 0.  1.
<mgrwt>
<rscale>  0 0.80287358E+02</rscale>
<asrwt>0</asrwt>
<pdfrwt beam="1">  1        2 0.12346707E-01 0.80287358E+02</pdfrwt>
<pdfrwt beam="2">  1       -1 0.30892744E-02 0.80287358E+02</pdfrwt>
<totfact> 0.16548481E+05</totfact>
</mgrwt>
</event>
<event>
 8    1  0.7667702E-014  0.7908248E+02  0.7818608E-02  0.1331676E+00
         -1   -1    0    0    0  501 -0.00000000000E+00  0.00000000000E+00  0.71033624718E+01  0.71033642598E+01  0.50400000000E-02 0.  1.
          2   -1    0    0  501    0  0.00000000000E+00 -0.00000000000E+00 -0.22010835535E+03  0.22010835537E+03  0.25500000000E-02 0. -1.
         24    2    1    2    0    0  0.00000000000E+00  0.00000000000E+00 -0.21300499288E+03  0.22721171963E+03  0.79082479373E+02 0.  0.
         66    2    3    3    0    0 -0.46515959004E+01 -0.15559635758E+02 -0.21007236483E+03  0.21070865686E+03  0.19999999986E+01 0.  0.
        -13    1    3    3    0    0  0.46515959004E+01  0.15559635758E+02 -0.29326280467E+01  0.16503062766E+02  0.10566000000E+00 0.  1.
         13    1    4    4    0    0 -0.20677928289E+01 -0.67868343813E+01 -0.90090344816E+02  0.90369343702E+02  0.10566000000E+00 0. -1.
        -13    1    4    4    0    0 -0.27118914807E+01 -0.83047205670E+01 -0.11582691838E+03  0.11615596809E+03  0.10566000000E+00 0.  1.
         14    1    4    4    0    0  0.12808840914E+00 -0.46808081009E+00 -0.41551016418E+01  0.41833450657E+01  0.00000000000E+00 0. -1.
<mgrwt>
<rscale>  0 0.79082479E+02</rscale>
<asrwt>0</asrwt>
<pdfrwt beam="1">  1        2 0.33862819E-01 0.79082479E+02</pdfrwt>
<pdfrwt beam="2">  1       -1 0.10928253E-02 0.79082479E+02</pdfrwt>
<totfact> 0.23514591E+05</totfact>
</mgrwt>
</event>
<event>
 8    1  0.7667702E-014  0.7998626E+02  0.7818608E-02  0.1329090E+00
         -1   -1    0    0    0  501 -0.00000000000E+00  0.00000000000E+00  0.14643752646E+01  0.14643839378E+01  0.50400000000E-02 0.  1.
          2   -1    0    0  501    0  0.00000000000E+00 -0.00000000000E+00 -0.10922375888E+04  0.10922375888E+04  0.25500000000E-02 0. -1.
         24    2    1    2    0    0 -0.17763568394E-14  0.00000000000E+00 -0.10907732135E+04  0.10937019727E+04  0.79986260136E+02 0.  0.
         66    2    3    3    0    0 -0.13385570018E+02  0.19780346727E+02 -0.98392517059E+03  0.98421703749E+03  0.19999910507E+01 0.  0.
        -13    1    3    3    0    0  0.13385570018E+02 -0.19780346727E+02 -0.10684804291E+03  0.10948493522E+03  0.10566000000E+00 0.  1.
         13    1    4    4    0    0 -0.87188706744E+01  0.12728772774E+02 -0.63481547356E+03  0.63500294251E+03  0.10566000000E+00 0. -1.
        -13    1    4    4    0    0 -0.17070864781E+01  0.22506841067E+01 -0.96209641186E+02  0.96251160743E+02  0.10566000000E+00 0. -1.
        -14    1    4    4    0    0 -0.29596128650E+01  0.48008898466E+01 -0.25290005585E+03  0.25296293424E+03  0.00000000000E+00 0.  1.
<mgrwt>
<rscale>  0 0.79986260E+02</rscale>
<asrwt>0</asrwt>
<pdfrwt beam="1">  1        2 0.16803590E+00 0.79986260E+02</pdfrwt>
<pdfrwt beam="2">  1       -1 0.22529004E-03 0.79986260E+02</pdfrwt>
<totfact> 0.35274787E+05</totfact>
</mgrwt>
</event>
<event>
 8    1  0.7667702E-014  0.8292530E+02  0.7818608E-02  0.1320949E+00
         -1   -1    0    0    0  501 -0.00000000000E+00  0.00000000000E+00  0.26072382509E+01  0.26072431222E+01  0.50400000000E-02 0.  1.
          2   -1    0    0  501    0  0.00000000000E+00 -0.00000000000E+00 -0.65937569496E+03  0.65937569496E+03  0.25500000000E-02 0. -1.
         24    2    1    2    0    0  0.22204460493E-15  0.00000000000E+00 -0.65676845671E+03  0.66198293809E+03  0.82925295239E+02 0.  0.
         66    2    3    3    0    0  0.15122920196E+01  0.21425502665E+02 -0.61146706562E+03  0.61184745773E+03  0.20000014249E+01 0.  0.
        -13    1    3    3    0    0 -0.15122920196E+01 -0.21425502665E+02 -0.45301391089E+02  0.50135480353E+02  0.10566000000E+00 0.  1.
         13    1    4    4    0    0  0.71776477508E+00  0.16283353597E+02 -0.47415598287E+03  0.47443605475E+03  0.10566000000E+00 0. -1.
        -13    1    4    4    0    0  0.57776791365E+00  0.37433554462E+01 -0.10744993937E+03  0.10751672968E+03  0.10566000000E+00 0.  1.
         14    1    4    4    0    0  0.21675933090E+00  0.13987936220E+01 -0.29861143379E+02  0.29894673307E+02  0.00000000000E+00 0. -1.
<mgrwt>
<rscale>  0 0.82925295E+02</rscale>
<asrwt>0</asrwt>
<pdfrwt beam="1">  1        2 0.10144228E+00 0.82925295E+02</pdfrwt>
<pdfrwt beam="2">  1       -1 0.40111448E-03 0.82925295E+02</pdfrwt>
<totfact> 0.30030901E+05</totfact>
</mgrwt>
</event>
<event>
 8    1  0.7667702E-014  0.7969655E+02  0.7818608E-02  0.1329915E+00
         -1   -1    0    0    0  501 -0.00000000000E+00  0.00000000000E+00  0.10780287482E+01  0.10780405296E+01  0.50400000000E-02 0.  1.
          2   -1    0    0  501    0  0.00000000000E+00 -0.00000000000E+00 -0.14729442459E+04  0.14729442459E+04  0.25500000000E-02 0. -1.
         24    2    1    2    0    0  0.00000000000E+00  0.88817841970E-15 -0.14718662171E+04  0.14740222864E+04  0.79696547634E+02 0.  0.
         66    2    3    3    0    0  0.12747500817E+02  0.46908303729E+01 -0.14287714031E+04  0.14288373683E+04  0.19999984532E+01 0.  0.
        -13    1    3    3    0    0 -0.12747500817E+02 -0.46908303729E+01 -0.43094814042E+02  0.45184918148E+02  0.10566000000E+00 0.  1.
         13    1    4    4    0    0  0.17770238387E+01  0.38138946639E+00 -0.20924525134E+03  0.20925317117E+03  0.10566000000E+00 0. -1.
        -13    1    4    4    0    0  0.16307105807E+01  0.62134411189E+00 -0.24766100601E+03  0.24766717656E+03  0.10566000000E+00 0.  1.
        -14    1    4    4    0    0  0.93397663978E+01  0.36880967946E+01 -0.97186514575E+03  0.97191702054E+03  0.00000000000E+00 0.  1.
<mgrwt>
<rscale>  0 0.79696548E+02</rscale>
<asrwt>0</asrwt>
<pdfrwt beam="1">  1        2 0.22660520E+00 0.79696548E+02</pdfrwt>
<pdfrwt beam="2">  1       -1 0.16585266E-03 0.79696548E+02</pdfrwt>
<totfact> 0.33804524E+05</totfact>
</mgrwt>
</event>
<event>
 8    1  0.7667702E-014  0.8068061E+02  0.7818608E-02  0.1327131E+00
          2   -1    0    0  501    0  0.00000000000E+00  0.00000000000E+00  0.32151849319E+02  0.32151849420E+02  0.25500000000E-02 0. -1.
         -1   -1    0    0    0  501 -0.00000000000E+00 -0.00000000000E+00 -0.50614198986E+02  0.50614199237E+02  0.50400000000E-02 0.  1.
         24    2    1    2    0    0  0.00000000000E+00 -0.88817841970E-15 -0.18462349667E+02  0.82766048656E+02  0.80680607676E+02 0.  0.
         66    2    3    3    0    0  0.11292410021E+02  0.68595222503E+01  0.29836584597E+02  0.32692405043E+02  0.19999993808E+01 0.  0.
        -13    1    3    3    0    0 -0.11292410021E+02 -0.68595222503E+01 -0.48298934264E+02  0.50073643613E+02  0.10566000000E+00 0.  1.
         13    1    4    4    0    0  0.25076129177E+01  0.19589163150E+01  0.72038489797E+01  0.78760446820E+01  0.10566000000E+00 0. -1.
        -13    1    4    4    0    0  0.47200821482E+01  0.33239073676E+01  0.11725129906E+02  0.13069711971E+02  0.10566000000E+00 0.  1.
        -14    1    4    4    0    0  0.40647149547E+01  0.15766985676E+01  0.10907605712E+02  0.11746648390E+02  0.00000000000E+00 0.  1.
<mgrwt>
<rscale>  0 0.80680608E+02</rscale>
<asrwt>0</asrwt>
<pdfrwt beam="1">  1        2 0.49464384E-02 0.80680608E+02</pdfrwt>
<pdfrwt beam="2">  1       -1 0.77867999E-02 0.80680608E+02</pdfrwt>
<totfact> 0.13321785E+05</totfact>
</mgrwt>
</event>
<event>
 8    1  0.7667702E-014  0.7707186E+02  0.7818608E-02  0.1337573E+00
         -1   -1    0    0    0  501 -0.00000000000E+00  0.00000000000E+00  0.59285591769E+01  0.59285613193E+01  0.50400000000E-02 0.  1.
          2   -1    0    0  501    0  0.00000000000E+00 -0.00000000000E+00 -0.25048543983E+03  0.25048543985E+03  0.25500000000E-02 0. -1.
         24    2    1    2    0    0  0.00000000000E+00  0.00000000000E+00 -0.24455688066E+03  0.25641400117E+03  0.77071863331E+02 0.  0.
         66    2    3    3    0    0  0.17107277942E+02  0.10019557729E+02 -0.23219831482E+03  0.23305172796E+03  0.20000010955E+01 0.  0.
        -13    1    3    3    0    0 -0.17107277942E+02 -0.10019557729E+02 -0.12358565832E+02  0.23362273201E+02  0.10566000000E+00 0.  1.
         13    1    4    4    0    0  0.11800577189E+02  0.74935124881E+01 -0.16015473787E+03  0.16076366995E+03  0.10566000000E+00 0. -1.
        -13    1    4    4    0    0  0.51747702960E+01  0.22748365691E+01 -0.68096629800E+02  0.68330924794E+02  0.10566000000E+00 0.  1.
        -14    1    4    4    0    0  0.13193045704E+00  0.25120867166E+00 -0.39469471562E+01  0.39571332169E+01  0.00000000000E+00 0.  1.
<mgrwt>
<rscale>  0 0.77071863E+02</rscale>
<asrwt>0</asrwt>
<pdfrwt beam="1">  1        2 0.38536213E-01 0.77071863E+02</pdfrwt>
<pdfrwt beam="2">  1       -1 0.91208639E-03 0.77071863E+02</pdfrwt>
<totfact> 0.26339952E+05</totfact>
</mgrwt>
</event>
<event>
 8    1  0.7667702E-014  0.7814036E+02  0.7818608E-02  0.1334413E+00
         -1   -1    0    0    0  501 -0.00000000000E+00  0.00000000000E+00  0.49267731122E+02  0.49267731379E+02  0.50400000000E-02 0.  1.
          2   -1    0    0  501    0  0.00000000000E+00 -0.00000000000E+00 -0.30983341526E+02  0.30983341631E+02  0.25500000000E-02 0. -1.
         24    2    1    2    0    0  0.11102230246E-15  0.00000000000E+00  0.18284389595E+02  0.80251073011E+02  0.78140359716E+02 0.  0.
         66    2    3    3    0    0  0.62735548798E+00  0.14964198274E+02 -0.27883452602E+02  0.31714472161E+02  0.20000026264E+01 0.  0.
        -13    1    3    3    0    0 -0.62735548798E+00 -0.14964198274E+02  0.46167842197E+02  0.48536600850E+02  0.10566000000E+00 0.  1.
         13    1    4    4    0    0  0.11390566186E+01  0.11523297905E+02 -0.21395256386E+02  0.24328008641E+02  0.10566000000E+00 0. -1.
        -13    1    4    4    0    0 -0.43887049634E+00  0.20148529167E+01 -0.32942710371E+01  0.38878818513E+01  0.10566000000E+00 0.  1.
         14    1    4    4    0    0 -0.72830634260E-01  0.14260474524E+01 -0.31939251793E+01  0.34985816681E+01  0.00000000000E+00 0. -1.
<mgrwt>
<rscale>  0 0.78140360E+02</rscale>
<asrwt>0</asrwt>
<pdfrwt beam="1">  1        2 0.47666680E-02 0.78140360E+02</pdfrwt>
<pdfrwt beam="2">  1       -1 0.75796509E-02 0.78140360E+02</pdfrwt>
<totfact> 0.14460558E+05</totfact>
</mgrwt>
</event>
<event>
 8    1  0.7667702E-014  0.7944640E+02  0.7818608E-02  0.1330630E+00
          2   -1    0    0  501    0  0.00000000000E+00  0.00000000000E+00  0.25102143785E+02  0.25102143914E+02  0.25500000000E-02 0. -1.
         -1   -1    0    0    0  501 -0.00000000000E+00 -0.00000000000E+00 -0.62860466656E+02  0.62860466858E+02  0.50400000000E-02 0.  1.
         24    2    1    2    0    0  0.00000000000E+00  0.00000000000E+00 -0.37758322872E+02  0.87962610773E+02  0.79446396695E+02 0.  0.
         66    2    3    3    0    0 -0.95770096850E+01  0.38132715295E+02 -0.12816191259E+02  0.41401423249E+02  0.19999995966E+01 0.  0.
        -13    1    3    3    0    0  0.95770096850E+01 -0.38132715295E+02 -0.24942131612E+02  0.46561187524E+02  0.10566000000E+00 0.  1.
         13    1    4    4    0    0 -0.90886925410E+01  0.35440008778E+02 -0.11895253236E+02  0.38472155747E+02  0.10566000000E+00 0. -1.
        -13    1    4    4    0    0 -0.47582401646E+00  0.22263308674E+01 -0.58081788318E+00  0.23519079648E+01  0.10566000000E+00 0.  1.
         14    1    4    4    0    0 -0.12493127549E-01  0.46637564952E+00 -0.34012014054E+00  0.57735953678E+00  0.00000000000E+00 0. -1.
<mgrwt>
<rscale>  0 0.79446397E+02</rscale>
<asrwt>0</asrwt>
<pdfrwt beam="1">  1        2 0.38618683E-02 0.79446397E+02</pdfrwt>
<pdfrwt beam="2">  1       -1 0.96708411E-02 0.79446397E+02</pdfrwt>
<totfact> 0.13248575E+05</totfact>
</mgrwt>
</event>
<event>
 8    1  0.7667702E-014  0.8430368E+02  0.7818608E-02  0.1317264E+00
          2   -1    0    0  501    0  0.00000000000E+00  0.00000000000E+00  0.13847794044E+02  0.13847794278E+02  0.25500000000E-02 0. -1.
         -1   -1    0    0    0  501 -0.00000000000E+00 -0.00000000000E+00 -0.12830764009E+03  0.12830764019E+03  0.50400000000E-02 0.  1.
         24    2    1    2    0    0  0.00000000000E+00 -0.35527136788E-14 -0.11445984605E+03  0.14215543447E+03  0.84303684330E+02 0.  0.
         66    2    3    3    0    0 -0.22464464561E+02  0.24887196142E+02 -0.14246703190E+02  0.36482780176E+02  0.19999994420E+01 0.  0.
        -13    1    3    3    0    0  0.22464464561E+02 -0.24887196142E+02 -0.10021314286E+03  0.10567265429E+03  0.10566000000E+00 0.  1.
         13    1    4    4    0    0 -0.26006111665E+01  0.33192221482E+01 -0.19361073671E+01  0.46411302374E+01  0.10566000000E+00 0.  1.
        -13    1    4    4    0    0 -0.57096806126E+01  0.52914747515E+01 -0.36391095500E+01  0.85938606049E+01  0.10566000000E+00 0.  1.
         14    1    4    4    0    0 -0.14154172782E+02  0.16276499242E+02 -0.86714862732E+01  0.23247789334E+02  0.00000000000E+00 0. -1.
<mgrwt>
<rscale>  0 0.84303684E+02</rscale>
<asrwt>0</asrwt>
<pdfrwt beam="1">  1        2 0.21304300E-02 0.84303684E+02</pdfrwt>
<pdfrwt beam="2">  1       -1 0.19739636E-01 0.84303684E+02</pdfrwt>
<totfact> 0.98240005E+04</totfact>
</mgrwt>
</event>
<event>
 8    1  0.7667702E-014  0.7918410E+02  0.7818608E-02  0.1331383E+00
          2   -1    0    0  501    0  0.00000000000E+00  0.00000000000E+00  0.98898073890E+01  0.98898077178E+01  0.25500000000E-02 0. -1.
         -1   -1    0    0    0  501 -0.00000000000E+00 -0.00000000000E+00 -0.15849960088E+03  0.15849960096E+03  0.50400000000E-02 0.  1.
         24    2    1    2    0    0 -0.35527136788E-14  0.00000000000E+00 -0.14860979349E+03  0.16838940867E+03  0.79184103413E+02 0.  0.
         66    2    3    3    0    0  0.20583329026E+02  0.33275767144E+02 -0.61847821147E+02  0.73212724969E+02  0.20000009533E+01 0.  0.
        -13    1    3    3    0    0 -0.20583329026E+02 -0.33275767144E+02 -0.86761972340E+02  0.95176683706E+02  0.10566000000E+00 0.  1.
         13    1    4    4    0    0  0.54124048387E+01  0.75437681388E+01 -0.15288262436E+02  0.17886997965E+02  0.10566000000E+00 0. -1.
        -13    1    4    4    0    0  0.92607279023E+01  0.14845388811E+02 -0.27446730819E+02  0.32549667386E+02  0.10566000000E+00 0.  1.
        -14    1    4    4    0    0  0.59101962852E+01  0.10886610194E+02 -0.19112827892E+02  0.22776059617E+02  0.00000000000E+00 0.  1.
<mgrwt>
<rscale>  0 0.79184103E+02</rscale>
<asrwt>0</asrwt>
<pdfrwt beam="1">  1        2 0.15215090E-02 0.79184103E+02</pdfrwt>
<pdfrwt beam="2">  1       -1 0.24384552E-01 0.79184103E+02</pdfrwt>
<totfact> 0.10914076E+05</totfact>
</mgrwt>
</event>
<event>
 8    1  0.7667702E-014  0.7795602E+02  0.7818608E-02  0.1334954E+00
         -1   -1    0    0    0  501 -0.00000000000E+00  0.00000000000E+00  0.20475867340E+01  0.20475929368E+01  0.50400000000E-02 0.  1.
          2   -1    0    0  501    0  0.00000000000E+00 -0.00000000000E+00 -0.74198702910E+03  0.74198702910E+03  0.25500000000E-02 0. -1.
         24    2    1    2    0    0  0.17763568394E-14  0.35527136788E-14 -0.73993944237E+03  0.74403462204E+03  0.77956015977E+02 0.  0.
         66    2    3    3    0    0  0.97839246059E+01  0.24226057617E+02 -0.64595049399E+03  0.64648176135E+03  0.20000055920E+01 0.  0.
        -13    1    3    3    0    0 -0.97839246059E+01 -0.24226057617E+02 -0.93988948373E+02  0.97552860689E+02  0.10566000000E+00 0.  1.
         13    1    4    4    0    0  0.18574260176E+01  0.50063863966E+01 -0.13403824193E+03  0.13414460630E+03  0.10566000000E+00 0. -1.
        -13    1    4    4    0    0  0.95603609592E+00  0.16254903621E+01 -0.37376448221E+02  0.37424140199E+02  0.10566000000E+00 0.  1.
        -14    1    4    4    0    0  0.69704624923E+01  0.17594180859E+02 -0.47453580385E+03  0.47491301486E+03  0.00000000000E+00 0.  1.
<mgrwt>
<rscale>  0 0.77956016E+02</rscale>
<asrwt>0</asrwt>
<pdfrwt beam="1">  1        2 0.11415164E+00 0.77956016E+02</pdfrwt>
<pdfrwt beam="2">  1       -1 0.31501441E-03 0.77956016E+02</pdfrwt>
<totfact> 0.36232329E+05</totfact>
</mgrwt>
</event>
<event>
 8    1  0.7667702E-014  0.8010182E+02  0.7818608E-02  0.1328763E+00
          2   -1    0    0  501    0  0.00000000000E+00  0.00000000000E+00  0.14303325639E+03  0.14303325641E+03  0.25500000000E-02 0. -1.
         -1   -1    0    0    0  501 -0.00000000000E+00 -0.00000000000E+00 -0.11214702087E+02  0.11214703220E+02  0.50400000000E-02 0.  1.
         24    2    1    2    0    0 -0.35527136788E-14  0.00000000000E+00  0.13181855430E+03  0.15424795963E+03  0.80101821403E+02 0.  0.
         66    2    3    3    0    0 -0.15449738906E+02 -0.12807475129E+02  0.13263845717E+03  0.13416290906E+03  0.19999991551E+01 0.  0.
        -13    1    3    3    0    0  0.15449738906E+02  0.12807475129E+02 -0.81990287062E+00  0.20085050565E+02  0.10566000000E+00 0.  1.
         13    1    4    4    0    0 -0.13852104786E+02 -0.11676054539E+02  0.12101387504E+03  0.12236249496E+03  0.10566000000E+00 0. -1.
        -13    1    4    4    0    0 -0.68660947080E-01 -0.39288797405E-01  0.12598173647E+01  0.12667129758E+01  0.10566000000E+00 0.  1.
        -14    1    4    4    0    0 -0.15289731727E+01 -0.10921317923E+01  0.10364764763E+02  0.10533701126E+02  0.00000000000E+00 0.  1.
<mgrwt>
<rscale>  0 0.80101821E+02</rscale>
<asrwt>0</asrwt>
<pdfrwt beam="1">  1        2 0.22005115E-01 0.80101821E+02</pdfrwt>
<pdfrwt beam="2">  1       -1 0.17253390E-02 0.80101821E+02</pdfrwt>
<totfact> 0.19661011E+05</totfact>
</mgrwt>
</event>
<event>
 8    1  0.7667702E-014  0.7436431E+02  0.7818608E-02  0.1345851E+00
         -1   -1    0    0    0  501 -0.00000000000E+00  0.00000000000E+00  0.50393210103E+01  0.50393235306E+01  0.50400000000E-02 0.  1.
          2   -1    0    0  501    0  0.00000000000E+00 -0.00000000000E+00 -0.27434495700E+03  0.27434495701E+03  0.25500000000E-02 0. -1.
         24    2    1    2    0    0  0.00000000000E+00  0.17763568394E-14 -0.26930563599E+03  0.27938428054E+03  0.74364310246E+02 0.  0.
         66    2    3    3    0    0  0.32460634638E+02 -0.90257958461E+01 -0.19359777274E+03  0.19651782464E+03  0.20000000354E+01 0.  0.
        -13    1    3    3    0    0 -0.32460634638E+02  0.90257958461E+01 -0.75707863249E+02  0.82866455901E+02  0.10566000000E+00 0.  1.
         13    1    4    4    0    0  0.13486643604E+02 -0.28796611837E+01 -0.80569793443E+02  0.81741573166E+02  0.10566000000E+00 0.  1.
        -13    1    4    4    0    0  0.16865677958E+01 -0.66121123555E+00 -0.95482875876E+01  0.97191908675E+01  0.10566000000E+00 0. -1.
         14    1    4    4    0    0  0.17287423238E+02 -0.54849234268E+01 -0.10347969171E+03  0.10505706060E+03  0.00000000000E+00 0. -1.
<mgrwt>
<rscale>  0 0.74364310E+02</rscale>
<asrwt>0</asrwt>
<pdfrwt beam="1">  1        2 0.42206905E-01 0.74364310E+02</pdfrwt>
<pdfrwt beam="2">  1       -1 0.77528057E-03 0.74364310E+02</pdfrwt>
<totfact> 0.29877012E+05</totfact>
</mgrwt>
</event>
<event>
 8    1  0.7667702E-014  0.8013980E+02  0.7818608E-02  0.1328655E+00
          2   -1    0    0  501    0  0.00000000000E+00  0.00000000000E+00  0.64166374297E+02  0.64166374348E+02  0.25500000000E-02 0. -1.
         -1   -1    0    0    0  501 -0.00000000000E+00 -0.00000000000E+00 -0.25022399687E+02  0.25022400195E+02  0.50400000000E-02 0.  1.
         24    2    1    2    0    0  0.00000000000E+00  0.88817841970E-15  0.39143974609E+02  0.89188774543E+02  0.80139795085E+02 0.  0.
         66    2    3    3    0    0  0.20333644746E+02 -0.66102449548E+01  0.57266451368E+02  0.61160435760E+02  0.20000007771E+01 0.  0.
        -13    1    3    3    0    0 -0.20333644746E+02  0.66102449548E+01 -0.18122476758E+02  0.28028338783E+02  0.10566000000E+00 0.  1.
         13    1    4    4    0    0  0.13187352170E+01 -0.62365872600E+00  0.52902528717E+01  0.54887113480E+01  0.10566000000E+00 0. -1.
        -13    1    4    4    0    0  0.18043719623E+01 -0.62272195747E+00  0.45765562572E+01  0.49597955629E+01  0.10566000000E+00 0. -1.
         14    1    4    4    0    0  0.17210537567E+02 -0.53638642714E+01  0.47399642239E+02  0.50711928849E+02  0.00000000000E+00 0. -1.
<mgrwt>
<rscale>  0 0.80139795E+02</rscale>
<asrwt>0</asrwt>
<pdfrwt beam="1">  1        2 0.98717499E-02 0.80139795E+02</pdfrwt>
<pdfrwt beam="2">  1       -1 0.38496000E-02 0.80139795E+02</pdfrwt>
<totfact> 0.15737582E+05</totfact>
</mgrwt>
</event>
<event>
 8    1  0.7667702E-014  0.8026685E+02  0.7818608E-02  0.1328296E+00
          2   -1    0    0  501    0  0.00000000000E+00  0.00000000000E+00  0.63635248396E+01  0.63635253505E+01  0.25500000000E-02 0. -1.
         -1   -1    0    0    0  501 -0.00000000000E+00 -0.00000000000E+00 -0.25311312486E+03  0.25311312491E+03  0.50400000000E-02 0.  1.
         24    2    1    2    0    0  0.35527136788E-14  0.00000000000E+00 -0.24674960002E+03  0.25947665026E+03  0.80266848202E+02 0.  0.
         66    2    3    3    0    0 -0.31358063079E+02 -0.10105862875E+02 -0.49506243325E+02  0.59500627926E+02  0.20000027152E+01 0.  0.
        -13    1    3    3    0    0  0.31358063079E+02  0.10105862875E+02 -0.19724335669E+03  0.19997602233E+03  0.10566000000E+00 0.  1.
         13    1    4    4    0    0 -0.25092934233E+02 -0.88143555947E+01 -0.39959062486E+02  0.48000896364E+02  0.10566000000E+00 0. -1.
        -13    1    4    4    0    0 -0.26089909539E+01 -0.72460345939E+00 -0.41325907254E+01  0.49417966480E+01  0.10566000000E+00 0.  1.
         14    1    4    4    0    0 -0.36561378927E+01 -0.56690382049E+00 -0.54145901142E+01  0.65579349140E+01  0.00000000000E+00 0. -1.
<mgrwt>
<rscale>  0 0.80266848E+02</rscale>
<asrwt>0</asrwt>
<pdfrwt beam="1">  1        2 0.97900406E-03 0.80266848E+02</pdfrwt>
<pdfrwt beam="2">  1       -1 0.38940473E-01 0.80266848E+02</pdfrwt>
<totfact> 0.91420802E+04</totfact>
</mgrwt>
</event>
<event>
 8    1  0.7667702E-014  0.8002341E+02  0.7818608E-02  0.1328985E+00
          2   -1    0    0  501    0  0.00000000000E+00  0.00000000000E+00  0.11705805347E+03  0.11705805350E+03  0.25500000000E-02 0. -1.
         -1   -1    0    0    0  501 -0.00000000000E+00 -0.00000000000E+00 -0.13676432036E+02  0.13676432965E+02  0.50400000000E-02 0.  1.
         24    2    1    2    0    0 -0.88817841970E-15  0.00000000000E+00  0.10338162143E+03  0.13073448646E+03  0.80023410953E+02 0.  0.
         66    2    3    3    0    0  0.64146032499E+01  0.35834406370E+02  0.78749799095E+02  0.86780082241E+02  0.20000003679E+01 0.  0.
        -13    1    3    3    0    0 -0.64146032499E+01 -0.35834406370E+02  0.24631822339E+02  0.43954404222E+02  0.10566000000E+00 0.  1.
         13    1    4    4    0    0  0.24855686590E+01  0.11988517285E+02  0.26826667154E+02  0.29488706870E+02  0.10566000000E+00 0. -1.
        -13    1    4    4    0    0  0.34297663166E+01  0.22767488607E+02  0.49299030954E+02  0.54410729195E+02  0.10566000000E+00 0.  1.
        -14    1    4    4    0    0  0.49926827436E+00  0.10784004780E+01  0.26241009871E+01  0.28806461759E+01  0.00000000000E+00 0.  1.
<mgrwt>
<rscale>  0 0.80023411E+02</rscale>
<asrwt>0</asrwt>
<pdfrwt beam="1">  1        2 0.18008932E-01 0.80023411E+02</pdfrwt>
<pdfrwt beam="2">  1       -1 0.21040665E-02 0.80023411E+02</pdfrwt>
<totfact> 0.18534461E+05</totfact>
</mgrwt>
</event>
<event>
 8    1  0.7667702E-014  0.8004395E+02  0.7818608E-02  0.1328927E+00
          2   -1    0    0  501    0  0.00000000000E+00  0.00000000000E+00  0.72765898200E+02  0.72765898245E+02  0.25500000000E-02 0. -1.
         -1   -1    0    0    0  501 -0.00000000000E+00 -0.00000000000E+00 -0.22012487015E+02  0.22012487592E+02  0.50400000000E-02 0.  1.
         24    2    1    2    0    0 -0.17763568394E-14 -0.35527136788E-14  0.50753411185E+02  0.94778385836E+02  0.80043948396E+02 0.  0.
         66    2    3    3    0    0 -0.11156020236E+02 -0.28147786331E+02  0.56337524758E+02  0.63989619195E+02  0.20000015084E+01 0.  0.
        -13    1    3    3    0    0  0.11156020236E+02  0.28147786331E+02 -0.55841135728E+01  0.30788766641E+02  0.10566000000E+00 0.  1.
         13    1    4    4    0    0 -0.27232976189E+01 -0.69104797490E+01  0.13319898063E+02  0.15251292690E+02  0.10566000000E+00 0. -1.
        -13    1    4    4    0    0 -0.80253950550E+01 -0.19964944950E+02  0.39594771509E+02  0.45063988811E+02  0.10566000000E+00 0.  1.
        -14    1    4    4    0    0 -0.40732756183E+00 -0.12723616319E+01  0.34228551858E+01  0.36743376938E+01  0.00000000000E+00 0.  1.
<mgrwt>
<rscale>  0 0.80043948E+02</rscale>
<asrwt>0</asrwt>
<pdfrwt beam="1">  1        2 0.11194754E-01 0.80043948E+02</pdfrwt>
<pdfrwt beam="2">  1       -1 0.33865365E-02 0.80043948E+02</pdfrwt>
<totfact> 0.16276973E+05</totfact>
</mgrwt>
</event>
<event>
 8    1  0.7667702E-014  0.7933940E+02  0.7818608E-02  0.1330937E+00
         -1   -1    0    0    0  501 -0.00000000000E+00  0.00000000000E+00  0.84355751700E+01  0.84355766756E+01  0.50400000000E-02 0.  1.
          2   -1    0    0  501    0  0.00000000000E+00 -0.00000000000E+00 -0.18655335458E+03  0.18655335460E+03  0.25500000000E-02 0. -1.
         24    2    1    2    0    0  0.00000000000E+00 -0.35527136788E-14 -0.17811777941E+03  0.19498893128E+03  0.79339397383E+02 0.  0.
         66    2    3    3    0    0  0.16826159329E+02  0.30817598297E+02 -0.13435462274E+03  0.13888127539E+03  0.20000002564E+01 0.  0.
        -13    1    3    3    0    0 -0.16826159329E+02 -0.30817598297E+02 -0.43763156675E+02  0.56107655884E+02  0.10566000000E+00 0.  1.
         13    1    4    4    0    0  0.13942034745E+00  0.16290272378E+00 -0.12810110577E+01  0.13031226712E+01  0.10566000000E+00 0. -1.
        -13    1    4    4    0    0  0.26080845578E+01  0.53216416584E+01 -0.21584586299E+02  0.22383643688E+02  0.10566000000E+00 0.  1.
         14    1    4    4    0    0  0.14078654424E+02  0.25333053915E+02 -0.11148902538E+03  0.11519450903E+03  0.00000000000E+00 0. -1.
<mgrwt>
<rscale>  0 0.79339397E+02</rscale>
<asrwt>0</asrwt>
<pdfrwt beam="1">  1        2 0.28700513E-01 0.79339397E+02</pdfrwt>
<pdfrwt beam="2">  1       -1 0.12977811E-02 0.79339397E+02</pdfrwt>
<totfact> 0.22012171E+05</totfact>
</mgrwt>
</event>
<event>
 8    1  0.7667702E-014  0.8063072E+02  0.7818608E-02  0.1327271E+00
         -1   -1    0    0    0  501 -0.00000000000E+00  0.00000000000E+00  0.62742245002E+01  0.62742265245E+01  0.50400000000E-02 0.  1.
          2   -1    0    0  501    0  0.00000000000E+00 -0.00000000000E+00 -0.25904841327E+03  0.25904841328E+03  0.25500000000E-02 0. -1.
         24    2    1    2    0    0  0.00000000000E+00  0.00000000000E+00 -0.25277418877E+03  0.26532263980E+03  0.80630718004E+02 0.  0.
         66    2    3    3    0    0  0.20145832667E+02  0.33137369867E+02 -0.16241851049E+03  0.16699614482E+03  0.19999945880E+01 0.  0.
        -13    1    3    3    0    0 -0.20145832667E+02 -0.33137369867E+02 -0.90355678273E+02  0.98326494983E+02  0.10566000000E+00 0.  1.
         13    1    4    4    0    0  0.10820864386E+02  0.18595139833E+02 -0.89874351297E+02  0.92413638152E+02  0.10566000000E+00 0. -1.
        -13    1    4    4    0    0  0.55960849637E+01  0.86748814964E+01 -0.45853627762E+02  0.47001447625E+02  0.10566000000E+00 0.  1.
        -14    1    4    4    0    0  0.37288833179E+01  0.58673485376E+01 -0.26690531435E+02  0.27581059043E+02  0.00000000000E+00 0.  1.
<mgrwt>
<rscale>  0 0.80630718E+02</rscale>
<asrwt>0</asrwt>
<pdfrwt beam="1">  1        2 0.39853594E-01 0.80630718E+02</pdfrwt>
<pdfrwt beam="2">  1       -1 0.96526567E-03 0.80630718E+02</pdfrwt>
<totfact> 0.23681310E+05</totfact>
</mgrwt>
</event>
<event>
 8    1  0.7667702E-014  0.7933662E+02  0.7818608E-02  0.1330945E+00
          2   -1    0    0  501    0  0.00000000000E+00  0.00000000000E+00  0.34496104903E+03  0.34496104904E+03  0.25500000000E-02 0. -1.
         -1   -1    0    0    0  501 -0.00000000000E+00 -0.00000000000E+00 -0.45616005736E+01  0.45616033579E+01  0.50400000000E-02 0.  1.
         24    2    1    2    0    0  0.35527136788E-14  0.00000000000E+00  0.34039944846E+03  0.34952265240E+03  0.79336624767E+02 0.  0.
         66    2    3    3    0    0 -0.27080062710E+02 -0.22917570872E+02  0.24825312160E+03  0.25078308805E+03  0.20000037626E+01 0.  0.
        -13    1    3    3    0    0  0.27080062710E+02  0.22917570872E+02  0.92146326859E+02  0.98739564354E+02  0.10566000000E+00 0.  1.
         13    1    4    4    0    0 -0.57588539875E+01 -0.46294411464E+01  0.48269784630E+02  0.48832155358E+02  0.10566000000E+00 0. -1.
        -13    1    4    4    0    0 -0.10363506310E+02 -0.87161315211E+01  0.10109389710E+03  0.10199686469E+03  0.10566000000E+00 0.  1.
        -14    1    4    4    0    0 -0.10957702413E+02 -0.95719982042E+01  0.98889439869E+02  0.99954067999E+02  0.00000000000E+00 0.  1.
<mgrwt>
<rscale>  0 0.79336625E+02</rscale>
<asrwt>0</asrwt>
<pdfrwt beam="1">  1        2 0.53070937E-01 0.79336625E+02</pdfrwt>
<pdfrwt beam="2">  1       -1 0.70178483E-03 0.79336625E+02</pdfrwt>
<totfact> 0.27400648E+05</totfact>
</mgrwt>
</event>
<event>
 8    1  0.7667702E-014  0.7817787E+02  0.7818608E-02  0.1334303E+00
          2   -1    0    0  501    0  0.00000000000E+00  0.00000000000E+00  0.56610319408E+02  0.56610319465E+02  0.25500000000E-02 0. -1.
         -1   -1    0    0    0  501 -0.00000000000E+00 -0.00000000000E+00 -0.26990573118E+02  0.26990573589E+02  0.50400000000E-02 0.  1.
         24    2    1    2    0    0  0.17763568394E-14  0.00000000000E+00  0.29619746289E+02  0.83600893054E+02  0.78177873783E+02 0.  0.
         66    2    3    3    0    0 -0.10248354555E+02 -0.10099256906E+02  0.53655644867E+02  0.55587336593E+02  0.20000005602E+01 0.  0.
        -13    1    3    3    0    0  0.10248354555E+02  0.10099256906E+02 -0.24035898578E+02  0.28013556461E+02  0.10566000000E+00 0.  1.
         13    1    4    4    0    0 -0.51299134457E+01 -0.49144153810E+01  0.28204128453E+02  0.29085245681E+02  0.10566000000E+00 0. -1.
        -13    1    4    4    0    0 -0.36645529820E+01 -0.34995793622E+01  0.15615743208E+02  0.16417630896E+02  0.10566000000E+00 0.  1.
        -14    1    4    4    0    0 -0.14538881274E+01 -0.16852621628E+01  0.98357732058E+01  0.10084460015E+02  0.00000000000E+00 0.  1.
<mgrwt>
<rscale>  0 0.78177874E+02</rscale>
<asrwt>0</asrwt>
<pdfrwt beam="1">  1        2 0.87092798E-02 0.78177874E+02</pdfrwt>
<pdfrwt beam="2">  1       -1 0.41523960E-02 0.78177874E+02</pdfrwt>
<totfact> 0.16354808E+05</totfact>
</mgrwt>
</event>
<event>
 8    1  0.7667702E-014  0.8054480E+02  0.7818608E-02  0.1327512E+00
         -1   -1    0    0    0  501 -0.00000000000E+00  0.00000000000E+00  0.20604794881E+01  0.20604856521E+01  0.50400000000E-02 0.  1.
          2   -1    0    0  501    0  0.00000000000E+00 -0.00000000000E+00 -0.78712933847E+03  0.78712933848E+03  0.25500000000E-02 0. -1.
         24    2    1    2    0    0  0.88817841970E-15  0.00000000000E+00 -0.78506885899E+03  0.78918982413E+03  0.80544802199E+02 0.  0.
         66    2    3    3    0    0 -0.72916704627E+01 -0.74794809755E+01 -0.77361379431E+03  0.77368689652E+03  0.20000003875E+01 0.  0.
        -13    1    3    3    0    0  0.72916704627E+01  0.74794809755E+01 -0.11455064674E+02  0.15502927611E+02  0.10566000000E+00 0.  1.
         13    1    4    4    0    0 -0.19616593054E+01 -0.22496863316E+01 -0.24293730697E+03  0.24295566566E+03  0.10566000000E+00 0. -1.
        -13    1    4    4    0    0 -0.36119413262E+01 -0.44499777480E+01 -0.39211080526E+03  0.39215270392E+03  0.10566000000E+00 0.  1.
        -14    1    4    4    0    0 -0.17180698311E+01 -0.77981689593E+00 -0.13856568209E+03  0.13857852694E+03  0.00000000000E+00 0.  1.
<mgrwt>
<rscale>  0 0.80544802E+02</rscale>
<asrwt>0</asrwt>
<pdfrwt beam="1">  1        2 0.12109658E+00 0.80544802E+02</pdfrwt>
<pdfrwt beam="2">  1       -1 0.31699795E-03 0.80544802E+02</pdfrwt>
<totfact> 0.33668422E+05</totfact>
</mgrwt>
</event>
<event>
 8    1  0.7667702E-014  0.7955713E+02  0.7818608E-02  0.1330313E+00
         -1   -1    0    0    0  501 -0.00000000000E+00  0.00000000000E+00  0.20646401329E+02  0.20646401944E+02  0.50400000000E-02 0.  1.
          2   -1    0    0  501    0  0.00000000000E+00 -0.00000000000E+00 -0.76639711566E+02  0.76639711609E+02  0.25500000000E-02 0. -1.
         24    2    1    2    0    0  0.00000000000E+00  0.00000000000E+00 -0.55993310238E+02  0.97286113553E+02  0.79557131037E+02 0.  0.
         66    2    3    3    0    0 -0.24223324042E+02 -0.27826785660E+01 -0.66408868572E+02  0.70771820292E+02  0.19999986882E+01 0.  0.
        -13    1    3    3    0    0  0.24223324042E+02  0.27826785660E+01  0.10415558335E+02  0.26514293261E+02  0.10566000000E+00 0.  1.
         13    1    4    4    0    0 -0.78571620581E+01 -0.17845838489E+01 -0.21182198617E+02  0.22663107409E+02  0.10566000000E+00 0. -1.
        -13    1    4    4    0    0 -0.76727945666E+01 -0.40150843089E+00 -0.20713509895E+02  0.22092841413E+02  0.10566000000E+00 0.  1.
         14    1    4    4    0    0 -0.86933674177E+01 -0.59658628618E+00 -0.24513160059E+02  0.26015871470E+02  0.00000000000E+00 0. -1.
<mgrwt>
<rscale>  0 0.79557131E+02</rscale>
<asrwt>0</asrwt>
<pdfrwt beam="1">  1        2 0.11790725E-01 0.79557131E+02</pdfrwt>
<pdfrwt beam="2">  1       -1 0.31763695E-02 0.79557131E+02</pdfrwt>
<totfact> 0.16763345E+05</totfact>
</mgrwt>
</event>
<event>
 8    1  0.7667702E-014  0.7918306E+02  0.7818608E-02  0.1331386E+00
          2   -1    0    0  501    0  0.00000000000E+00  0.00000000000E+00  0.95647854144E+02  0.95647854178E+02  0.25500000000E-02 0. -1.
         -1   -1    0    0    0  501 -0.00000000000E+00 -0.00000000000E+00 -0.16388125410E+02  0.16388126185E+02  0.50400000000E-02 0.  1.
         24    2    1    2    0    0  0.00000000000E+00  0.00000000000E+00  0.79259728734E+02  0.11203598036E+03  0.79183055616E+02 0.  0.
         66    2    3    3    0    0 -0.36201176552E+02  0.15870299723E+02  0.37166894614E+02  0.54293366589E+02  0.20000008141E+01 0.  0.
        -13    1    3    3    0    0  0.36201176552E+02 -0.15870299723E+02  0.42092834120E+02  0.57742613773E+02  0.10566000000E+00 0.  1.
         13    1    4    4    0    0 -0.11175741291E+02  0.56759930858E+01  0.12494035331E+02  0.17698196908E+02  0.10566000000E+00 0. -1.
        -13    1    4    4    0    0 -0.60388022458E+01  0.24868973559E+01  0.56994428466E+01  0.86687140811E+01  0.10566000000E+00 0.  1.
         14    1    4    4    0    0 -0.18986633016E+02  0.77074092813E+01  0.18973416436E+02  0.27926455600E+02  0.00000000000E+00 0. -1.
<mgrwt>
<rscale>  0 0.79183056E+02</rscale>
<asrwt>0</asrwt>
<pdfrwt beam="1">  1        2 0.14715054E-01 0.79183056E+02</pdfrwt>
<pdfrwt beam="2">  1       -1 0.25212502E-02 0.79183056E+02</pdfrwt>
<totfact> 0.17996638E+05</totfact>
</mgrwt>
</event>
<event>
 8    1  0.7667702E-014  0.7798622E+02  0.7818608E-02  0.1334865E+00
          2   -1    0    0  501    0  0.00000000000E+00  0.00000000000E+00  0.94236194696E+02  0.94236194730E+02  0.25500000000E-02 0. -1.
         -1   -1    0    0    0  501 -0.00000000000E+00 -0.00000000000E+00 -0.16134593798E+02  0.16134594586E+02  0.50400000000E-02 0.  1.
         24    2    1    2    0    0  0.00000000000E+00  0.00000000000E+00  0.78101600897E+02  0.11037078932E+03  0.77986223601E+02 0.  0.
         66    2    3    3    0    0 -0.30325637267E+02 -0.16085299164E+02  0.12977361939E+02  0.36753136618E+02  0.20000008676E+01 0.  0.
        -13    1    3    3    0    0  0.30325637267E+02  0.16085299164E+02  0.65124238958E+02  0.73617652698E+02  0.10566000000E+00 0.  1.
         13    1    4    4    0    0 -0.19752611980E+02 -0.11091137907E+02  0.79772515832E+01  0.24017217303E+02  0.10566000000E+00 0. -1.
        -13    1    4    4    0    0 -0.91799714935E+01 -0.44573684069E+01  0.41419015022E+01  0.11013923998E+02  0.10566000000E+00 0. -1.
         14    1    4    4    0    0 -0.13930537939E+01 -0.53679284989E+00  0.85820885346E+00  0.17219953173E+01  0.00000000000E+00 0. -1.
<mgrwt>
<rscale>  0 0.77986224E+02</rscale>
<asrwt>0</asrwt>
<pdfrwt beam="1">  1        2 0.14497876E-01 0.77986224E+02</pdfrwt>
<pdfrwt beam="2">  1       -1 0.24822453E-02 0.77986224E+02</pdfrwt>
<totfact> 0.18669487E+05</totfact>
</mgrwt>
</event>
<event>
 8    1  0.7667702E-014  0.7024401E+02  0.7818608E-02  0.1359265E+00
          2   -1    0    0  501    0  0.00000000000E+00  0.00000000000E+00  0.32019915041E+03  0.32019915042E+03  0.25500000000E-02 0. -1.
         -1   -1    0    0    0  501 -0.00000000000E+00 -0.00000000000E+00 -0.38524611011E+01  0.38524643979E+01  0.50400000000E-02 0.  1.
         24    2    1    2    0    0  0.88817841970E-15  0.00000000000E+00  0.31634668931E+03  0.32405161482E+03  0.70244012054E+02 0.  0.
         66    2    3    3    0    0  0.75912704475E+01  0.27160992223E+02  0.25465072604E+03  0.25621541554E+03  0.19999998109E+01 0.  0.
        -13    1    3    3    0    0 -0.75912704475E+01 -0.27160992223E+02  0.61695963272E+02  0.67836199286E+02  0.10566000000E+00 0.  1.
         13    1    4    4    0    0  0.33977450048E+01  0.95113003150E+01  0.86077908555E+02  0.86668489141E+02  0.10566000000E+00 0. -1.
        -13    1    4    4    0    0  0.23583977753E+01  0.89700753588E+01  0.87216428462E+02  0.87708271273E+02  0.10566000000E+00 0.  1.
         14    1    4    4    0    0  0.18351276674E+01  0.86796165494E+01  0.81356389025E+02  0.81838655122E+02  0.00000000000E+00 0. -1.
<mgrwt>
<rscale>  0 0.70244012E+02</rscale>
<asrwt>0</asrwt>
<pdfrwt beam="1">  1        2 0.49261403E-01 0.70244012E+02</pdfrwt>
<pdfrwt beam="2">  1       -1 0.59268664E-03 0.70244012E+02</pdfrwt>
<totfact> 0.36607095E+05</totfact>
</mgrwt>
</event>
<event>
 8    1  0.7667702E-014  0.8174513E+02  0.7818608E-02  0.1324171E+00
         -1   -1    0    0    0  501 -0.00000000000E+00  0.00000000000E+00  0.97570172731E+00  0.97571474431E+00  0.50400000000E-02 0.  1.
          2   -1    0    0  501    0  0.00000000000E+00 -0.00000000000E+00 -0.17121576932E+04  0.17121576932E+04  0.25500000000E-02 0. -1.
         24    2    1    2    0    0  0.71054273576E-14 -0.88817841970E-15 -0.17111819915E+04  0.17131334080E+04  0.81745125121E+02 0.  0.
         66    2    3    3    0    0  0.19513352982E+02 -0.60636593695E+01 -0.15973468944E+04  0.15974788386E+04  0.19999939782E+01 0.  0.
        -13    1    3    3    0    0 -0.19513352982E+02  0.60636593695E+01 -0.11383509708E+03  0.11565456931E+03  0.10566000000E+00 0.  1.
         13    1    4    4    0    0  0.17631740665E+01  0.33668324540E-02 -0.13769428303E+03  0.13770561186E+03  0.10566000000E+00 0. -1.
        -13    1    4    4    0    0  0.25545815299E+01 -0.97311439397E+00 -0.22173149814E+03  0.22174837377E+03  0.10566000000E+00 0.  1.
         14    1    4    4    0    0  0.15195597385E+02 -0.50939118080E+01 -0.12379211132E+04  0.12380248530E+04  0.00000000000E+00 0. -1.
<mgrwt>
<rscale>  0 0.81745125E+02</rscale>
<asrwt>0</asrwt>
<pdfrwt beam="1">  1        2 0.26340647E+00 0.81745125E+02</pdfrwt>
<pdfrwt beam="2">  1       -1 0.15011033E-03 0.81745125E+02</pdfrwt>
<totfact> 0.29498069E+05</totfact>
</mgrwt>
</event>
<event>
 8    1  0.7667702E-014  0.8147107E+02  0.7818608E-02  0.1324928E+00
          2   -1    0    0  501    0  0.00000000000E+00  0.00000000000E+00  0.13663964013E+03  0.13663964016E+03  0.25500000000E-02 0. -1.
         -1   -1    0    0    0  501 -0.00000000000E+00 -0.00000000000E+00 -0.12144235121E+02  0.12144236166E+02  0.50400000000E-02 0.  1.
         24    2    1    2    0    0  0.00000000000E+00  0.00000000000E+00  0.12449540501E+03  0.14878387632E+03  0.81471074527E+02 0.  0.
         66    2    3    3    0    0 -0.39669113985E+02 -0.84319460271E+01  0.68778514453E+02  0.79870021578E+02  0.19999945948E+01 0.  0.
        -13    1    3    3    0    0  0.39669113985E+02  0.84319460271E+01  0.55716890559E+02  0.68913854745E+02  0.10566000000E+00 0.  1.
         13    1    4    4    0    0 -0.28330514190E+02 -0.64778349167E+01  0.48596276508E+02  0.56623225217E+02  0.10566000000E+00 0. -1.
        -13    1    4    4    0    0 -0.71278927038E+01 -0.10602346698E+01  0.13362819527E+02  0.15182459014E+02  0.10566000000E+00 0.  1.
        -14    1    4    4    0    0 -0.42107070912E+01 -0.89387644069E+00  0.68194184176E+01  0.80643373474E+01  0.00000000000E+00 0.  1.
<mgrwt>
<rscale>  0 0.81471075E+02</rscale>
<asrwt>0</asrwt>
<pdfrwt beam="1">  1        2 0.21021485E-01 0.81471075E+02</pdfrwt>
<pdfrwt beam="2">  1       -1 0.18683438E-02 0.81471075E+02</pdfrwt>
<totfact> 0.18524599E+05</totfact>
</mgrwt>
</event>
<event>
 8    1  0.7667702E-014  0.7612500E+02  0.7818608E-02  0.1340422E+00
          2   -1    0    0  501    0  0.00000000000E+00  0.00000000000E+00  0.18304722777E+03  0.18304722779E+03  0.25500000000E-02 0. -1.
         -1   -1    0    0    0  501 -0.00000000000E+00 -0.00000000000E+00 -0.79146452035E+01  0.79146468082E+01  0.50400000000E-02 0.  1.
         24    2    1    2    0    0  0.00000000000E+00 -0.17763568394E-14  0.17513258257E+03  0.19096187460E+03  0.76125002942E+02 0.  0.
         66    2    3    3    0    0 -0.66044196857E+00 -0.13266712884E+02  0.17703402122E+03  0.17754291461E+03  0.20000011139E+01 0.  0.
        -13    1    3    3    0    0  0.66044196857E+00  0.13266712884E+02 -0.19014386460E+01  0.13418959994E+02  0.10566000000E+00 0.  1.
         13    1    4    4    0    0 -0.81054642778E+00 -0.69935091652E+01  0.98034351657E+02  0.98286883279E+02  0.10566000000E+00 0. -1.
        -13    1    4    4    0    0  0.30380376134E+00 -0.47064704789E+01  0.53382908908E+02  0.53590944091E+02  0.10566000000E+00 0.  1.
         14    1    4    4    0    0 -0.15369930214E+00 -0.15667332402E+01  0.25616760652E+02  0.25665087236E+02  0.00000000000E+00 0. -1.
<mgrwt>
<rscale>  0 0.76125003E+02</rscale>
<asrwt>0</asrwt>
<pdfrwt beam="1">  1        2 0.28161110E-01 0.76125003E+02</pdfrwt>
<pdfrwt beam="2">  1       -1 0.12176379E-02 0.76125003E+02</pdfrwt>
<totfact> 0.24388073E+05</totfact>
</mgrwt>
</event>
<event>
 8    1  0.7667702E-014  0.8015222E+02  0.7818608E-02  0.1328620E+00
         -1   -1    0    0    0  501 -0.00000000000E+00  0.00000000000E+00  0.34864983317E+02  0.34864983682E+02  0.50400000000E-02 0.  1.
          2   -1    0    0  501    0  0.00000000000E+00 -0.00000000000E+00 -0.46066120784E+02  0.46066120855E+02  0.25500000000E-02 0. -1.
         24    2    1    2    0    0  0.71054273576E-14 -0.44408920985E-15 -0.11201137467E+02  0.80931104537E+02  0.80152218940E+02 0.  0.
         66    2    3    3    0    0 -0.34620492080E+02  0.27185161713E+01 -0.25750905054E+02  0.43279070025E+02  0.19999972699E+01 0.  0.
        -13    1    3    3    0    0  0.34620492080E+02 -0.27185161713E+01  0.14549767587E+02  0.37652034512E+02  0.10566000000E+00 0.  1.
         13    1    4    4    0    0 -0.19725668637E+01  0.15762367112E-01 -0.10632421811E+01  0.22434162465E+01  0.10566000000E+00 0. -1.
        -13    1    4    4    0    0 -0.10898831237E+01  0.23446022083E+00 -0.72331071596E+00  0.13331013637E+01  0.10566000000E+00 0.  1.
         14    1    4    4    0    0 -0.31558042093E+02  0.24682935833E+01 -0.23964352157E+02  0.39702552414E+02  0.00000000000E+00 0. -1.
<mgrwt>
<rscale>  0 0.80152219E+02</rscale>
<asrwt>0</asrwt>
<pdfrwt beam="1">  1        2 0.70870955E-02 0.80152219E+02</pdfrwt>
<pdfrwt beam="2">  1       -1 0.53638436E-02 0.80152219E+02</pdfrwt>
<totfact> 0.14605412E+05</totfact>
</mgrwt>
</event>
<event>
 8    1  0.7667702E-014  0.7967926E+02  0.7818608E-02  0.1329964E+00
          2   -1    0    0  501    0  0.00000000000E+00  0.00000000000E+00  0.96332523928E+01  0.96332527303E+01  0.25500000000E-02 0. -1.
         -1   -1    0    0    0  501 -0.00000000000E+00 -0.00000000000E+00 -0.16476222192E+03  0.16476222199E+03  0.50400000000E-02 0.  1.
         24    2    1    2    0    0  0.00000000000E+00  0.00000000000E+00 -0.15512896952E+03  0.17439547472E+03  0.79679259652E+02 0.  0.
         66    2    3    3    0    0 -0.33557411088E+02 -0.20994201135E+02 -0.68241301298E+02  0.78915977585E+02  0.19999987428E+01 0.  0.
        -13    1    3    3    0    0  0.33557411088E+02  0.20994201135E+02 -0.86887668225E+02  0.95479497138E+02  0.10566000000E+00 0.  1.
         13    1    4    4    0    0 -0.52383973329E+01 -0.36370360493E+01 -0.11739648307E+02  0.13360364675E+02  0.10566000000E+00 0. -1.
        -13    1    4    4    0    0 -0.21096616025E+02 -0.13085200885E+02 -0.43341914421E+02  0.49948197161E+02  0.10566000000E+00 0.  1.
        -14    1    4    4    0    0 -0.72223977308E+01 -0.42719642014E+01 -0.13159738570E+02  0.15607415748E+02  0.00000000000E+00 0.  1.
<mgrwt>
<rscale>  0 0.79679260E+02</rscale>
<asrwt>0</asrwt>
<pdfrwt beam="1">  1        2 0.14820390E-02 0.79679260E+02</pdfrwt>
<pdfrwt beam="2">  1       -1 0.25348032E-01 0.79679260E+02</pdfrwt>
<totfact> 0.10633424E+05</totfact>
</mgrwt>
</event>
<event>
 8    1  0.7667702E-014  0.7937142E+02  0.7818608E-02  0.1330845E+00
         -1   -1    0    0    0  501 -0.00000000000E+00  0.00000000000E+00  0.16834096066E+01  0.16834171513E+01  0.50400000000E-02 0.  1.
          2   -1    0    0  501    0  0.00000000000E+00 -0.00000000000E+00 -0.93557273985E+03  0.93557273985E+03  0.25500000000E-02 0. -1.
         24    2    1    2    0    0  0.00000000000E+00  0.00000000000E+00 -0.93388933024E+03  0.93725615700E+03  0.79371422444E+02 0.  0.
         66    2    3    3    0    0  0.24842085392E+02  0.14369029994E+02 -0.79048933901E+03  0.79101263790E+03  0.20000009293E+01 0.  0.
        -13    1    3    3    0    0 -0.24842085392E+02 -0.14369029994E+02 -0.14339999123E+03  0.14624351910E+03  0.10566000000E+00 0.  1.
         13    1    4    4    0    0  0.15917414663E+02  0.96015340057E+01 -0.52204537534E+03  0.52237624240E+03  0.10566000000E+00 0. -1.
        -13    1    4    4    0    0  0.29984649107E+00  0.35912984797E+00 -0.12159518255E+02  0.12168974089E+02  0.10566000000E+00 0.  1.
        -14    1    4    4    0    0  0.86248242374E+01  0.44083661399E+01 -0.25628444541E+03  0.25646742141E+03  0.00000000000E+00 0.  1.
<mgrwt>
<rscale>  0 0.79371422E+02</rscale>
<asrwt>0</asrwt>
<pdfrwt beam="1">  1        2 0.14393385E+00 0.79371422E+02</pdfrwt>
<pdfrwt beam="2">  1       -1 0.25898742E-03 0.79371422E+02</pdfrwt>
<totfact> 0.35805619E+05</totfact>
</mgrwt>
</event>
<event>
 8    1  0.7667702E-014  0.7979683E+02  0.7818608E-02  0.1329629E+00
          2   -1    0    0  501    0  0.00000000000E+00  0.00000000000E+00  0.10153736252E+04  0.10153736252E+04  0.25500000000E-02 0. -1.
         -1   -1    0    0    0  501 -0.00000000000E+00 -0.00000000000E+00 -0.15677768196E+01  0.15677849208E+01  0.50400000000E-02 0.  1.
         24    2    1    2    0    0  0.00000000000E+00 -0.35527136788E-14  0.10138058483E+04  0.10169414101E+04  0.79796825842E+02 0.  0.
         66    2    3    3    0    0  0.11548682681E+01 -0.27192194090E+02  0.87858225650E+03  0.87900599007E+03  0.20000006561E+01 0.  0.
        -13    1    3    3    0    0 -0.11548682681E+01  0.27192194090E+02  0.13522359184E+03  0.13793542002E+03  0.10566000000E+00 0.  1.
         13    1    4    4    0    0  0.13036083075E+01 -0.10773365946E+02  0.33529940963E+03  0.33547499172E+03  0.10566000000E+00 0. -1.
        -13    1    4    4    0    0 -0.13597402974E+00 -0.96329085380E+01  0.31457824165E+03  0.31472574204E+03  0.10566000000E+00 0.  1.
         14    1    4    4    0    0 -0.12766009708E-01 -0.67859196054E+01  0.22870460522E+03  0.22880525631E+03  0.00000000000E+00 0. -1.
<mgrwt>
<rscale>  0 0.79796826E+02</rscale>
<asrwt>0</asrwt>
<pdfrwt beam="1">  1        2 0.15621119E+00 0.79796826E+02</pdfrwt>
<pdfrwt beam="2">  1       -1 0.24119726E-03 0.79796826E+02</pdfrwt>
<totfact> 0.35484220E+05</totfact>
</mgrwt>
</event>
<event>
 8    1  0.7667702E-014  0.7813157E+02  0.7818608E-02  0.1334439E+00
         -1   -1    0    0    0  501 -0.00000000000E+00  0.00000000000E+00  0.37007267936E+01  0.37007302256E+01  0.50400000000E-02 0.  1.
          2   -1    0    0  501    0  0.00000000000E+00 -0.00000000000E+00 -0.41238784023E+03  0.41238784024E+03  0.25500000000E-02 0. -1.
         24    2    1    2    0    0 -0.35527136788E-14  0.00000000000E+00 -0.40868711343E+03  0.41608857046E+03  0.78131567124E+02 0.  0.
         66    2    3    3    0    0 -0.15614249806E+02 -0.34355706898E+02 -0.25773490050E+03  0.26049068761E+03  0.20000008251E+01 0.  0.
        -13    1    3    3    0    0  0.15614249806E+02  0.34355706898E+02 -0.15095221293E+03  0.15559788285E+03  0.10566000000E+00 0.  1.
         13    1    4    4    0    0 -0.24562140611E+00 -0.80913202086E+00 -0.69390377175E+01  0.69911682130E+01  0.10566000000E+00 0. -1.
        -13    1    4    4    0    0 -0.65943603583E+01 -0.15268438489E+02 -0.11694700501E+03  0.11812376538E+03  0.10566000000E+00 0.  1.
         14    1    4    4    0    0 -0.87742680416E+01 -0.18278136388E+02 -0.13384885778E+03  0.13537575402E+03  0.00000000000E+00 0. -1.
<mgrwt>
<rscale>  0 0.78131567E+02</rscale>
<asrwt>0</asrwt>
<pdfrwt beam="1">  1        2 0.63444247E-01 0.78131567E+02</pdfrwt>
<pdfrwt beam="2">  1       -1 0.56934318E-03 0.78131567E+02</pdfrwt>
<totfact> 0.30370620E+05</totfact>
</mgrwt>
</event>
<event>
 8    1  0.7667702E-014  0.7985433E+02  0.7818608E-02  0.1329465E+00
          2   -1    0    0  501    0  0.00000000000E+00  0.00000000000E+00  0.54821016178E+03  0.54821016179E+03  0.25500000000E-02 0. -1.
         -1   -1    0    0    0  501 -0.00000000000E+00 -0.00000000000E+00 -0.29079674124E+01  0.29079717800E+01  0.50400000000E-02 0.  1.
         24    2    1    2    0    0  0.00000000000E+00  0.00000000000E+00  0.54530219437E+03  0.55111813357E+03  0.79854329645E+02 0.  0.
         66    2    3    3    0    0  0.35748927942E+02 -0.54210363280E+01  0.38929223667E+03  0.39097291338E+03  0.19999951426E+01 0.  0.
        -13    1    3    3    0    0 -0.35748927942E+02  0.54210363280E+01  0.15600995770E+03  0.16014522018E+03  0.10566000000E+00 0.  1.
         13    1    4    4    0    0  0.24503021347E+02 -0.41071657252E+01  0.26777472174E+03  0.26892485871E+03  0.10566000000E+00 0. -1.
        -13    1    4    4    0    0  0.64284311518E+01 -0.25572685196E+00  0.68046014344E+02  0.68349552708E+02  0.10566000000E+00 0.  1.
        -14    1    4    4    0    0  0.48174754431E+01 -0.10581437509E+01  0.53471500589E+02  0.53698501963E+02  0.00000000000E+00 0.  1.
<mgrwt>
<rscale>  0 0.79854330E+02</rscale>
<asrwt>0</asrwt>
<pdfrwt beam="1">  1        2 0.84340079E-01 0.79854330E+02</pdfrwt>
<pdfrwt beam="2">  1       -1 0.44737965E-03 0.79854330E+02</pdfrwt>
<totfact> 0.31481401E+05</totfact>
</mgrwt>
</event>
<event>
 8    1  0.7667702E-014  0.7858890E+02  0.7818608E-02  0.1333104E+00
         -1   -1    0    0    0  501 -0.00000000000E+00  0.00000000000E+00  0.12534617343E+03  0.12534617353E+03  0.50400000000E-02 0.  1.
          2   -1    0    0  501    0  0.00000000000E+00 -0.00000000000E+00 -0.12318315696E+02  0.12318315960E+02  0.25500000000E-02 0. -1.
         24    2    1    2    0    0  0.00000000000E+00  0.00000000000E+00  0.11302785773E+03  0.13766448949E+03  0.78588898981E+02 0.  0.
         66    2    3    3    0    0  0.20764800535E+02  0.16579899762E+02  0.59028877393E+01  0.27293114680E+02  0.20000019785E+01 0.  0.
        -13    1    3    3    0    0 -0.20764800535E+02 -0.16579899762E+02  0.10712496999E+03  0.11037137481E+03  0.10566000000E+00 0.  1.
         13    1    4    4    0    0  0.10691498315E+02  0.92729928834E+01  0.25615487264E+01  0.14382949251E+02  0.10566000000E+00 0. -1.
        -13    1    4    4    0    0  0.32247877411E+01  0.20464745048E+01  0.74586020027E+00  0.38929147625E+01  0.10566000000E+00 0.  1.
         14    1    4    4    0    0  0.68485144786E+01  0.52604323733E+01  0.25954788126E+01  0.90172506667E+01  0.00000000000E+00 0. -1.
<mgrwt>
<rscale>  0 0.78588899E+02</rscale>
<asrwt>0</asrwt>
<pdfrwt beam="1">  1        2 0.18951256E-02 0.78588899E+02</pdfrwt>
<pdfrwt beam="2">  1       -1 0.19284026E-01 0.78588899E+02</pdfrwt>
<totfact> 0.11785682E+05</totfact>
</mgrwt>
</event>
<event>
 8    1  0.7667702E-014  0.7796681E+02  0.7818608E-02  0.1334922E+00
         -1   -1    0    0    0  501 -0.00000000000E+00  0.00000000000E+00  0.29914854167E+02  0.29914854591E+02  0.50400000000E-02 0.  1.
          2   -1    0    0  501    0  0.00000000000E+00 -0.00000000000E+00 -0.50801043607E+02  0.50801043671E+02  0.25500000000E-02 0. -1.
         24    2    1    2    0    0 -0.71054273576E-14  0.17763568394E-14 -0.20886189441E+02  0.80715898263E+02  0.77966809111E+02 0.  0.
         66    2    3    3    0    0  0.37314706871E+02 -0.10698935658E+02 -0.70404458343E+01  0.39502182667E+02  0.19999962105E+01 0.  0.
        -13    1    3    3    0    0 -0.37314706871E+02  0.10698935658E+02 -0.13845743606E+02  0.41213715595E+02  0.10566000000E+00 0.  1.
         13    1    4    4    0    0  0.13583907794E+02 -0.40627300783E+01 -0.26626171323E+01  0.14426677395E+02  0.10566000000E+00 0. -1.
        -13    1    4    4    0    0  0.20921238981E+02 -0.62945480891E+01 -0.36223680477E+01  0.22146157465E+02  0.10566000000E+00 0.  1.
        -14    1    4    4    0    0  0.28095600962E+01 -0.34165749097E+00 -0.75546065419E+00  0.29293478072E+01  0.00000000000E+00 0.  1.
<mgrwt>
<rscale>  0 0.77966809E+02</rscale>
<asrwt>0</asrwt>
<pdfrwt beam="1">  1        2 0.78155452E-02 0.77966809E+02</pdfrwt>
<pdfrwt beam="2">  1       -1 0.46022853E-02 0.77966809E+02</pdfrwt>
<totfact> 0.16087744E+05</totfact>
</mgrwt>
</event>
<event>
 8    1  0.7667702E-014  0.7964068E+02  0.7818608E-02  0.1330074E+00
         -1   -1    0    0    0  501 -0.00000000000E+00  0.00000000000E+00  0.15953081232E+02  0.15953082028E+02  0.50400000000E-02 0.  1.
          2   -1    0    0  501    0  0.00000000000E+00 -0.00000000000E+00 -0.99395183945E+02  0.99395183978E+02  0.25500000000E-02 0. -1.
         24    2    1    2    0    0  0.00000000000E+00  0.00000000000E+00 -0.83442102713E+02  0.11534826601E+03  0.79640680343E+02 0.  0.
         66    2    3    3    0    0 -0.33358404621E+02  0.83504753347E+01 -0.70755744622E+02  0.78694910869E+02  0.20000006137E+01 0.  0.
        -13    1    3    3    0    0  0.33358404621E+02 -0.83504753347E+01 -0.12686358091E+02  0.36653355137E+02  0.10566000000E+00 0.  1.
         13    1    4    4    0    0 -0.15987052035E+02  0.38247188924E+01 -0.32353442237E+02  0.36290090879E+02  0.10566000000E+00 0. -1.
        -13    1    4    4    0    0 -0.15942637367E+02  0.38506078964E+01 -0.35227300125E+02  0.38858315783E+02  0.10566000000E+00 0.  1.
         14    1    4    4    0    0 -0.14287152184E+01  0.67514854594E+00 -0.31750022609E+01  0.35465042071E+01  0.00000000000E+00 0. -1.
<mgrwt>
<rscale>  0 0.79640680E+02</rscale>
<asrwt>0</asrwt>
<pdfrwt beam="1">  1        2 0.15291566E-01 0.79640680E+02</pdfrwt>
<pdfrwt beam="2">  1       -1 0.24543203E-02 0.79640680E+02</pdfrwt>
<totfact> 0.17910478E+05</totfact>
</mgrwt>
</event>
<event>
 8    1  0.7667702E-014  0.8029855E+02  0.7818608E-02  0.1328206E+00
         -1   -1    0    0    0  501 -0.00000000000E+00  0.00000000000E+00  0.33600495077E+02  0.33600495455E+02  0.50400000000E-02 0.  1.
          2   -1    0    0  501    0  0.00000000000E+00 -0.00000000000E+00 -0.47974423934E+02  0.47974424002E+02  0.25500000000E-02 0. -1.
         24    2    1    2    0    0  0.00000000000E+00  0.00000000000E+00 -0.14373928857E+02  0.81574919457E+02  0.80298553247E+02 0.  0.
         66    2    3    3    0    0 -0.93460262841E+01  0.29259640726E+02 -0.33418132642E+02  0.45433978067E+02  0.19999977507E+01 0.  0.
        -13    1    3    3    0    0  0.93460262841E+01 -0.29259640726E+02  0.19044203786E+02  0.36140941390E+02  0.10566000000E+00 0.  1.
         13    1    4    4    0    0 -0.61679005972E+00  0.27416505657E+01 -0.24274715316E+01  0.37149508576E+01  0.10566000000E+00 0. -1.
        -13    1    4    4    0    0 -0.59596269977E+00  0.23653859137E+01 -0.25500805311E+01  0.35304811020E+01  0.10566000000E+00 0.  1.
        -14    1    4    4    0    0 -0.81332735247E+01  0.24152604246E+02 -0.28440580580E+02  0.38188546107E+02  0.00000000000E+00 0.  1.
<mgrwt>
<rscale>  0 0.80298553E+02</rscale>
<asrwt>0</asrwt>
<pdfrwt beam="1">  1        2 0.73806806E-02 0.80298553E+02</pdfrwt>
<pdfrwt beam="2">  1       -1 0.51693070E-02 0.80298553E+02</pdfrwt>
<totfact> 0.14659271E+05</totfact>
</mgrwt>
</event>
<event>
 8    1  0.7667702E-014  0.8052499E+02  0.7818608E-02  0.1327568E+00
         -1   -1    0    0    0  501 -0.00000000000E+00  0.00000000000E+00  0.52729606518E+01  0.52729630605E+01  0.50400000000E-02 0.  1.
          2   -1    0    0  501    0  0.00000000000E+00 -0.00000000000E+00 -0.30743035792E+03  0.30743035793E+03  0.25500000000E-02 0. -1.
         24    2    1    2    0    0  0.00000000000E+00  0.00000000000E+00 -0.30215739727E+03  0.31270332099E+03  0.80524991369E+02 0.  0.
         66    2    3    3    0    0 -0.11656400917E+02 -0.84773531287E+01 -0.29705828084E+03  0.29741445737E+03  0.20000102702E+01 0.  0.
        -13    1    3    3    0    0  0.11656400917E+02  0.84773531287E+01 -0.50991164322E+01  0.15288863621E+02  0.10566000000E+00 0.  1.
         13    1    4    4    0    0 -0.28961587790E+01 -0.15219311076E+01 -0.79525525419E+02  0.79592866308E+02  0.10566000000E+00 0. -1.
        -13    1    4    4    0    0 -0.36933146596E+00 -0.20824522744E+00 -0.69082709546E+01  0.69220765254E+01  0.10566000000E+00 0. -1.
        -14    1    4    4    0    0 -0.83909106717E+01 -0.67471767937E+01 -0.21062448446E+03  0.21089951454E+03  0.00000000000E+00 0.  1.
<mgrwt>
<rscale>  0 0.80524991E+02</rscale>
<asrwt>0</asrwt>
<pdfrwt beam="1">  1        2 0.47296964E-01 0.80524991E+02</pdfrwt>
<pdfrwt beam="2">  1       -1 0.81122515E-03 0.80524991E+02</pdfrwt>
<totfact> 0.25283878E+05</totfact>
</mgrwt>
</event>
<event>
 8    1  0.7667702E-014  0.7828253E+02  0.7818608E-02  0.1333997E+00
          2   -1    0    0  501    0  0.00000000000E+00  0.00000000000E+00  0.21660874448E+03  0.21660874450E+03  0.25500000000E-02 0. -1.
         -1   -1    0    0    0  501 -0.00000000000E+00 -0.00000000000E+00 -0.70728379271E+01  0.70728397228E+01  0.50400000000E-02 0.  1.
         24    2    1    2    0    0  0.00000000000E+00  0.00000000000E+00  0.20953590655E+03  0.22368158422E+03  0.78282533066E+02 0.  0.
         66    2    3    3    0    0  0.24426805785E+02 -0.43297676086E+01  0.19125037448E+03  0.19286296037E+03  0.20000044012E+01 0.  0.
        -13    1    3    3    0    0 -0.24426805785E+02  0.43297676086E+01  0.18285532076E+02  0.30818623845E+02  0.10566000000E+00 0.  1.
         13    1    4    4    0    0  0.19161497297E+02 -0.36076078155E+01  0.15232948730E+03  0.15357233370E+03  0.10566000000E+00 0. -1.
        -13    1    4    4    0    0  0.29549068631E+01 -0.61264146216E+00  0.19483584916E+02  0.19716187495E+02  0.10566000000E+00 0.  1.
         14    1    4    4    0    0  0.23104016247E+01 -0.10951833095E+00  0.19437302267E+02  0.19574439183E+02  0.00000000000E+00 0. -1.
<mgrwt>
<rscale>  0 0.78282533E+02</rscale>
<asrwt>0</asrwt>
<pdfrwt beam="1">  1        2 0.33324424E-01 0.78282533E+02</pdfrwt>
<pdfrwt beam="2">  1       -1 0.10881290E-02 0.78282533E+02</pdfrwt>
<totfact> 0.24016105E+05</totfact>
</mgrwt>
</event>
<event>
 8    1  0.7667702E-014  0.7823028E+02  0.7818608E-02  0.1334150E+00
          2   -1    0    0  501    0  0.00000000000E+00  0.00000000000E+00  0.94983637842E+03  0.94983637842E+03  0.25500000000E-02 0. -1.
         -1   -1    0    0    0  501 -0.00000000000E+00 -0.00000000000E+00 -0.16107937035E+01  0.16108015883E+01  0.50400000000E-02 0.  1.
         24    2    1    2    0    0  0.00000000000E+00  0.00000000000E+00  0.94822558472E+03  0.95144718001E+03  0.78230280846E+02 0.  0.
         66    2    3    3    0    0  0.24292584325E+02 -0.16077530510E+02  0.79142513385E+03  0.79196360970E+03  0.19999934008E+01 0.  0.
        -13    1    3    3    0    0 -0.24292584325E+02  0.16077530510E+02  0.15680045087E+03  0.15948357031E+03  0.10566000000E+00 0.  1.
         13    1    4    4    0    0  0.12799191178E+02 -0.88616940437E+01  0.43017325970E+03  0.43045486806E+03  0.10566000000E+00 0. -1.
        -13    1    4    4    0    0  0.93699854864E+00 -0.99485780727E+00  0.34675107858E+02  0.34702189806E+02  0.10566000000E+00 0.  1.
        -14    1    4    4    0    0  0.10556394598E+02 -0.62209786595E+01  0.32657676629E+03  0.32680655184E+03  0.00000000000E+00 0.  1.
<mgrwt>
<rscale>  0 0.78230281E+02</rscale>
<asrwt>0</asrwt>
<pdfrwt beam="1">  1        2 0.14612835E+00 0.78230281E+02</pdfrwt>
<pdfrwt beam="2">  1       -1 0.24781557E-03 0.78230281E+02</pdfrwt>
<totfact> 0.37221247E+05</totfact>
</mgrwt>
</event>
<event>
 8    1  0.7667702E-014  0.8052381E+02  0.7818608E-02  0.1327571E+00
         -1   -1    0    0    0  501 -0.00000000000E+00  0.00000000000E+00  0.41640086683E+01  0.41640117185E+01  0.50400000000E-02 0.  1.
          2   -1    0    0  501    0  0.00000000000E+00 -0.00000000000E+00 -0.38929323334E+03  0.38929323335E+03  0.25500000000E-02 0. -1.
         24    2    1    2    0    0  0.35527136788E-14 -0.35527136788E-14 -0.38512922467E+03  0.39345724507E+03  0.80523810139E+02 0.  0.
         66    2    3    3    0    0 -0.13489171386E+02  0.21600401236E+02 -0.34490132787E+03  0.34584600771E+03  0.19999997095E+01 0.  0.
        -13    1    3    3    0    0  0.13489171386E+02 -0.21600401236E+02 -0.40227896798E+02  0.47611237361E+02  0.10566000000E+00 0.  1.
         13    1    4    4    0    0 -0.45031482372E+01  0.66861253739E+01 -0.10781573315E+03  0.10811672440E+03  0.10566000000E+00 0. -1.
        -13    1    4    4    0    0 -0.40030345456E+01  0.61501712445E+01 -0.10987039181E+03  0.11011522625E+03  0.10566000000E+00 0.  1.
         14    1    4    4    0    0 -0.49829886028E+01  0.87641046172E+01 -0.12721520292E+03  0.12761405706E+03  0.00000000000E+00 0. -1.
<mgrwt>
<rscale>  0 0.80523810E+02</rscale>
<asrwt>0</asrwt>
<pdfrwt beam="1">  1        2 0.59891238E-01 0.80523810E+02</pdfrwt>
<pdfrwt beam="2">  1       -1 0.64061726E-03 0.80523810E+02</pdfrwt>
<totfact> 0.27512628E+05</totfact>
</mgrwt>
</event>
<event>
 8    1  0.7667702E-014  0.8120938E+02  0.7818608E-02  0.1325654E+00
         -1   -1    0    0    0  501 -0.00000000000E+00  0.00000000000E+00  0.42455892112E+01  0.42455922027E+01  0.50400000000E-02 0.  1.
          2   -1    0    0  501    0  0.00000000000E+00 -0.00000000000E+00 -0.38834192618E+03  0.38834192619E+03  0.25500000000E-02 0. -1.
         24    2    1    2    0    0  0.00000000000E+00 -0.17763568394E-14 -0.38409633697E+03  0.39258751839E+03  0.81209380761E+02 0.  0.
         66    2    3    3    0    0 -0.26278995187E+02  0.15687307395E+02 -0.32098258128E+03  0.32244456063E+03  0.19999994944E+01 0.  0.
        -13    1    3    3    0    0  0.26278995187E+02 -0.15687307395E+02 -0.63113755692E+02  0.70142957757E+02  0.10566000000E+00 0.  1.
         13    1    4    4    0    0 -0.17187808292E+02  0.11220591894E+02 -0.21249488089E+03  0.21348397599E+03  0.10566000000E+00 0. -1.
        -13    1    4    4    0    0 -0.13917946185E+01  0.74543045575E+00 -0.18404884328E+02  0.18472782411E+02  0.10566000000E+00 0. -1.
         14    1    4    4    0    0 -0.76993922760E+01  0.37212850447E+01 -0.90082816054E+02  0.90487802228E+02  0.00000000000E+00 0. -1.
<mgrwt>
<rscale>  0 0.81209381E+02</rscale>
<asrwt>0</asrwt>
<pdfrwt beam="1">  1        2 0.59744884E-01 0.81209381E+02</pdfrwt>
<pdfrwt beam="2">  1       -1 0.65316811E-03 0.81209381E+02</pdfrwt>
<totfact> 0.26886018E+05</totfact>
</mgrwt>
</event>
<event>
 8    1  0.7667702E-014  0.8017210E+02  0.7818608E-02  0.1328564E+00
          2   -1    0    0  501    0  0.00000000000E+00  0.00000000000E+00  0.43024429418E+02  0.43024429493E+02  0.25500000000E-02 0. -1.
         -1   -1    0    0    0  501 -0.00000000000E+00 -0.00000000000E+00 -0.37348349874E+02  0.37348350214E+02  0.50400000000E-02 0.  1.
         24    2    1    2    0    0  0.00000000000E+00  0.00000000000E+00  0.56760795432E+01  0.80372779708E+02  0.80172101375E+02 0.  0.
         66    2    3    3    0    0  0.36238883380E+02  0.13773169183E+02  0.12961093270E+02  0.40926113854E+02  0.19999996176E+01 0.  0.
        -13    1    3    3    0    0 -0.36238883380E+02 -0.13773169183E+02 -0.72850137268E+01  0.39446665854E+02  0.10566000000E+00 0.  1.
         13    1    4    4    0    0  0.46995526657E+01  0.22940112527E+01  0.20791049615E+01  0.56286876234E+01  0.10566000000E+00 0. -1.
        -13    1    4    4    0    0  0.44832326671E+01  0.18403511073E+01  0.12867505065E+01  0.50152924389E+01  0.10566000000E+00 0.  1.
         14    1    4    4    0    0  0.27056098047E+02  0.96388068232E+01  0.95952378019E+01  0.30282133791E+02  0.00000000000E+00 0. -1.
<mgrwt>
<rscale>  0 0.80172101E+02</rscale>
<asrwt>0</asrwt>
<pdfrwt beam="1">  1        2 0.66191430E-02 0.80172101E+02</pdfrwt>
<pdfrwt beam="2">  1       -1 0.57459000E-02 0.80172101E+02</pdfrwt>
<totfact> 0.14386635E+05</totfact>
</mgrwt>
</event>
<event>
 8    1  0.7667702E-014  0.7992996E+02  0.7818608E-02  0.1329250E+00
          2   -1    0    0  501    0  0.00000000000E+00  0.00000000000E+00  0.13250820831E+03  0.13250820833E+03  0.25500000000E-02 0. -1.
         -1   -1    0    0    0  501 -0.00000000000E+00 -0.00000000000E+00 -0.12053588294E+02  0.12053589348E+02  0.50400000000E-02 0.  1.
         24    2    1    2    0    0 -0.35527136788E-14 -0.35527136788E-14  0.12045462002E+03  0.14456179768E+03  0.79929956000E+02 0.  0.
         66    2    3    3    0    0  0.16050661483E+02  0.27094505446E+02  0.10469403046E+03  0.10934612920E+03  0.19999994254E+01 0.  0.
        -13    1    3    3    0    0 -0.16050661483E+02 -0.27094505446E+02  0.15760589553E+02  0.35215668480E+02  0.10566000000E+00 0.  1.
         13    1    4    4    0    0  0.26345437599E+01  0.49080461581E+01  0.16507821568E+02  0.17422659810E+02  0.10566000000E+00 0.  1.
        -13    1    4    4    0    0  0.36637732952E+01  0.55386479440E+01  0.21546809689E+02  0.22547195560E+02  0.10566000000E+00 0. -1.
         14    1    4    4    0    0  0.97523444281E+01  0.16647811344E+02  0.66639399206E+02  0.69376273833E+02  0.00000000000E+00 0. -1.
<mgrwt>
<rscale>  0 0.79929956E+02</rscale>
<asrwt>0</asrwt>
<pdfrwt beam="1">  1        2 0.20385879E-01 0.79929956E+02</pdfrwt>
<pdfrwt beam="2">  1       -1 0.18543983E-02 0.79929956E+02</pdfrwt>
<totfact> 0.19304881E+05</totfact>
</mgrwt>
</event>
<event>
 8    1  0.7667702E-014  0.8451364E+02  0.7818608E-02  0.1316709E+00
          2   -1    0    0  501    0  0.00000000000E+00  0.00000000000E+00  0.32430733195E+03  0.32430733196E+03  0.25500000000E-02 0. -1.
         -1   -1    0    0    0  501 -0.00000000000E+00 -0.00000000000E+00 -0.55060068965E+01  0.55060092032E+01  0.50400000000E-02 0.  1.
         24    2    1    2    0    0  0.00000000000E+00  0.35527136788E-14  0.31880132505E+03  0.32981334116E+03  0.84513638860E+02 0.  0.
         66    2    3    3    0    0 -0.15925371435E+02 -0.24385497615E+02  0.27884223094E+03  0.28036629560E+03  0.19999997047E+01 0.  0.
        -13    1    3    3    0    0  0.15925371435E+02  0.24385497615E+02  0.39959094110E+02  0.49447045568E+02  0.10566000000E+00 0.  1.
         13    1    4    4    0    0 -0.39638652108E+01 -0.54188573223E+01  0.62742853028E+02  0.63101133209E+02  0.10566000000E+00 0. -1.
        -13    1    4    4    0    0 -0.52285554505E+01 -0.97173684622E+01  0.10493796721E+03  0.10551660139E+03  0.10566000000E+00 0.  1.
        -14    1    4    4    0    0 -0.67329507738E+01 -0.92492718306E+01  0.11116141071E+03  0.11174856100E+03  0.00000000000E+00 0.  1.
<mgrwt>
<rscale>  0 0.84513639E+02</rscale>
<asrwt>0</asrwt>
<pdfrwt beam="1">  1        2 0.49893428E-01 0.84513639E+02</pdfrwt>
<pdfrwt beam="2">  1       -1 0.84707830E-03 0.84513639E+02</pdfrwt>
<totfact> 0.22702423E+05</totfact>
</mgrwt>
</event>
<event>
 8    1  0.7667702E-014  0.7607517E+02  0.7818608E-02  0.1340574E+00
         -1   -1    0    0    0  501 -0.00000000000E+00  0.00000000000E+00  0.42115954001E+01  0.42115984158E+01  0.50400000000E-02 0.  1.
          2   -1    0    0  501    0  0.00000000000E+00 -0.00000000000E+00 -0.34354142010E+03  0.34354142011E+03  0.25500000000E-02 0. -1.
         24    2    1    2    0    0 -0.17763568394E-14  0.71054273576E-14 -0.33932982470E+03  0.34775301853E+03  0.76075173102E+02 0.  0.
         66    2    3    3    0    0 -0.89065803585E+01  0.26869837494E+02 -0.28574365658E+03  0.28714935595E+03  0.20000004791E+01 0.  0.
        -13    1    3    3    0    0  0.89065803585E+01 -0.26869837494E+02 -0.53586168120E+02  0.60603662583E+02  0.10566000000E+00 0.  1.
         13    1    4    4    0    0 -0.40385506956E+01  0.11276369753E+02 -0.12051050299E+03  0.12110433065E+03  0.10566000000E+00 0. -1.
        -13    1    4    4    0    0 -0.42427562700E+01  0.14351564430E+02 -0.15421358897E+03  0.15493808624E+03  0.10566000000E+00 0.  1.
         14    1    4    4    0    0 -0.62527339290E+00  0.12419033113E+01 -0.11019564627E+02  0.11106939057E+02  0.00000000000E+00 0. -1.
<mgrwt>
<rscale>  0 0.76075173E+02</rscale>
<asrwt>0</asrwt>
<pdfrwt beam="1">  1        2 0.52852504E-01 0.76075173E+02</pdfrwt>
<pdfrwt beam="2">  1       -1 0.64793826E-03 0.76075173E+02</pdfrwt>
<totfact> 0.30527628E+05</totfact>
</mgrwt>
</event>
<event>
 8    1  0.7667702E-014  0.7679801E+02  0.7818608E-02  0.1338392E+00
          2   -1    0    0  501    0  0.00000000000E+00  0.00000000000E+00  0.25894719615E+02  0.25894719741E+02  0.25500000000E-02 0. -1.
         -1   -1    0    0    0  501 -0.00000000000E+00 -0.00000000000E+00 -0.56941479172E+02  0.56941479395E+02  0.50400000000E-02 0.  1.
         24    2    1    2    0    0 -0.71054273576E-14  0.00000000000E+00 -0.31046759556E+02  0.82836199135E+02  0.76798011747E+02 0.  0.
         66    2    3    3    0    0 -0.37892005411E+02 -0.71028443797E+00 -0.90468553255E+01  0.39014794226E+02  0.19999997832E+01 0.  0.
        -13    1    3    3    0    0  0.37892005411E+02  0.71028443797E+00 -0.21999904231E+02  0.43821404910E+02  0.10566000000E+00 0.  1.
         13    1    4    4    0    0 -0.18135367612E+02 -0.56882461337E+00 -0.39110264695E+01  0.18561314930E+02  0.10566000000E+00 0. -1.
        -13    1    4    4    0    0 -0.26311646599E+01  0.37308119959E+00 -0.52817385213E+00  0.27115214738E+01  0.10566000000E+00 0.  1.
         14    1    4    4    0    0 -0.17125473140E+02 -0.51454102420E+00 -0.46076550038E+01  0.17741957822E+02  0.00000000000E+00 0. -1.
<mgrwt>
<rscale>  0 0.76798012E+02</rscale>
<asrwt>0</asrwt>
<pdfrwt beam="1">  1        2 0.39838030E-02 0.76798012E+02</pdfrwt>
<pdfrwt beam="2">  1       -1 0.87602276E-02 0.76798012E+02</pdfrwt>
<totfact> 0.14663769E+05</totfact>
</mgrwt>
</event>
<event>
 8    1  0.7667702E-014  0.8065775E+02  0.7818608E-02  0.1327195E+00
         -1   -1    0    0    0  501 -0.00000000000E+00  0.00000000000E+00  0.46772310562E+02  0.46772310833E+02  0.50400000000E-02 0.  1.
          2   -1    0    0  501    0  0.00000000000E+00 -0.00000000000E+00 -0.34773101654E+02  0.34773101748E+02  0.25500000000E-02 0. -1.
         24    2    1    2    0    0 -0.35527136788E-14 -0.35527136788E-14  0.11999208907E+02  0.81545412581E+02  0.80657754114E+02 0.  0.
         66    2    3    3    0    0  0.24475052032E+02  0.31808420646E+02  0.97329966924E+01  0.41346523569E+02  0.19999976645E+01 0.  0.
        -13    1    3    3    0    0 -0.24475052032E+02 -0.31808420646E+02  0.22662122150E+01  0.40198889012E+02  0.10566000000E+00 0.  1.
         13    1    4    4    0    0  0.21109349456E+02  0.26550910490E+02  0.83709126342E+01  0.34937641945E+02  0.10566000000E+00 0. -1.
        -13    1    4    4    0    0  0.27397876813E+01  0.45828462389E+01  0.12153092954E+01  0.54769569021E+01  0.10566000000E+00 0.  1.
         14    1    4    4    0    0  0.62591489442E+00  0.67466391691E+00  0.14677476278E+00  0.93192472166E+00  0.00000000000E+00 0. -1.
<mgrwt>
<rscale>  0 0.80657754E+02</rscale>
<asrwt>0</asrwt>
<pdfrwt beam="1">  1        2 0.53497080E-02 0.80657754E+02</pdfrwt>
<pdfrwt beam="2">  1       -1 0.71957401E-02 0.80657754E+02</pdfrwt>
<totfact> 0.13543602E+05</totfact>
</mgrwt>
</event>
<event>
 8    1  0.7667702E-014  0.8033997E+02  0.7818608E-02  0.1328089E+00
          2   -1    0    0  501    0  0.00000000000E+00  0.00000000000E+00  0.53456438287E+02  0.53456438347E+02  0.25500000000E-02 0. -1.
         -1   -1    0    0    0  501 -0.00000000000E+00 -0.00000000000E+00 -0.30185844143E+02  0.30185844564E+02  0.50400000000E-02 0.  1.
         24    2    1    2    0    0  0.00000000000E+00 -0.55511151231E-16  0.23270594143E+02  0.83642282911E+02  0.80339970991E+02 0.  0.
         66    2    3    3    0    0  0.39682410426E+02 -0.21756552902E+00  0.17965148732E+02  0.43606049983E+02  0.19999985434E+01 0.  0.
        -13    1    3    3    0    0 -0.39682410426E+02  0.21756552902E+00  0.53054454118E+01  0.40036232928E+02  0.10566000000E+00 0.  1.
         13    1    4    4    0    0  0.11529870211E+02 -0.53202024061E+00  0.47992312446E+01  0.12500589474E+02  0.10566000000E+00 0. -1.
        -13    1    4    4    0    0  0.18171223500E+02 -0.38640553102E+00  0.84396006204E+01  0.20039478421E+02  0.10566000000E+00 0.  1.
        -14    1    4    4    0    0  0.99813167154E+01  0.70086024261E+00  0.47263168666E+01  0.11065982088E+02  0.00000000000E+00 0.  1.
<mgrwt>
<rscale>  0 0.80339971E+02</rscale>
<asrwt>0</asrwt>
<pdfrwt beam="1">  1        2 0.82240673E-02 0.80339971E+02</pdfrwt>
<pdfrwt beam="2">  1       -1 0.46439761E-02 0.80339971E+02</pdfrwt>
<totfact> 0.14989542E+05</totfact>
</mgrwt>
</event>
<event>
 8    1  0.7667702E-014  0.8129939E+02  0.7818608E-02  0.1325404E+00
          2   -1    0    0  501    0  0.00000000000E+00  0.00000000000E+00  0.18102392995E+03  0.18102392997E+03  0.25500000000E-02 0. -1.
         -1   -1    0    0    0  501 -0.00000000000E+00 -0.00000000000E+00 -0.91280611522E+01  0.91280625436E+01  0.50400000000E-02 0.  1.
         24    2    1    2    0    0 -0.22204460493E-15  0.00000000000E+00  0.17189586880E+03  0.19015199252E+03  0.81299388353E+02 0.  0.
         66    2    3    3    0    0 -0.15568523959E+01 -0.39721248890E+02  0.10559524678E+03  0.11284749687E+03  0.20000010579E+01 0.  0.
        -13    1    3    3    0    0  0.15568523959E+01  0.39721248890E+02  0.66300622026E+02  0.77304495650E+02  0.10566000000E+00 0.  1.
         13    1    4    4    0    0 -0.13825272644E-01 -0.37430925054E+01  0.11018497052E+02  0.11637412684E+02  0.10566000000E+00 0. -1.
        -13    1    4    4    0    0  0.23272939285E+00 -0.47631352461E+01  0.12908777432E+02  0.13761879202E+02  0.10566000000E+00 0.  1.
        -14    1    4    4    0    0 -0.17757565161E+01 -0.31215021139E+02  0.81667972293E+02  0.87448204981E+02  0.00000000000E+00 0.  1.
<mgrwt>
<rscale>  0 0.81299388E+02</rscale>
<asrwt>0</asrwt>
<pdfrwt beam="1">  1        2 0.27849834E-01 0.81299388E+02</pdfrwt>
<pdfrwt beam="2">  1       -1 0.14043173E-02 0.81299388E+02</pdfrwt>
<totfact> 0.20425922E+05</totfact>
</mgrwt>
</event>
<event>
 8    1  0.7667702E-014  0.8960753E+02  0.7818608E-02  0.1303805E+00
         -1   -1    0    0    0  501 -0.00000000000E+00  0.00000000000E+00  0.84338468405E+01  0.84338483464E+01  0.50400000000E-02 0.  1.
          2   -1    0    0  501    0  0.00000000000E+00 -0.00000000000E+00 -0.23801440584E+03  0.23801440586E+03  0.25500000000E-02 0. -1.
         24    2    1    2    0    0 -0.71054273576E-14  0.17763568394E-14 -0.22958055900E+03  0.24644825420E+03  0.89607527183E+02 0.  0.
         66    2    3    3    0    0  0.41670498966E+02 -0.14002221013E+02 -0.13832653309E+03  0.14515757799E+03  0.20000038562E+01 0.  0.
        -13    1    3    3    0    0 -0.41670498966E+02  0.14002221013E+02 -0.91254025913E+02  0.10129067621E+03  0.10566000000E+00 0.  1.
         13    1    4    4    0    0  0.11323305371E+02 -0.40068333111E+01 -0.37029545456E+02  0.38929042608E+02  0.10566000000E+00 0. -1.
        -13    1    4    4    0    0  0.28946880153E+02 -0.92734144826E+01 -0.95449927025E+02  0.10017293956E+03  0.10566000000E+00 0.  1.
        -14    1    4    4    0    0  0.14003134409E+01 -0.72197321903E+00 -0.58470606086E+01  0.60555958272E+01  0.00000000000E+00 0.  1.
<mgrwt>
<rscale>  0 0.89607527E+02</rscale>
<asrwt>0</asrwt>
<pdfrwt beam="1">  1        2 0.36617596E-01 0.89607527E+02</pdfrwt>
<pdfrwt beam="2">  1       -1 0.12975152E-02 0.89607527E+02</pdfrwt>
<totfact> 0.17372453E+05</totfact>
</mgrwt>
</event>
<event>
 8    1  0.7667702E-014  0.8129631E+02  0.7818608E-02  0.1325412E+00
         -1   -1    0    0    0  501 -0.00000000000E+00  0.00000000000E+00  0.35891138321E+01  0.35891173708E+01  0.50400000000E-02 0.  1.
          2   -1    0    0  501    0  0.00000000000E+00 -0.00000000000E+00 -0.46035642320E+03  0.46035642320E+03  0.25500000000E-02 0. -1.
         24    2    1    2    0    0  0.71054273576E-14  0.00000000000E+00 -0.45676730936E+03  0.46394554057E+03  0.81296308126E+02 0.  0.
         66    2    3    3    0    0 -0.34774866043E+02  0.20165748080E+02 -0.26195345812E+03  0.26502747577E+03  0.19999972848E+01 0.  0.
        -13    1    3    3    0    0  0.34774866043E+02 -0.20165748080E+02 -0.19481385124E+03  0.19891806480E+03  0.10566000000E+00 0.  1.
         13    1    4    4    0    0 -0.21617874761E+02  0.12089127150E+02 -0.16535189726E+03  0.16719671228E+03  0.10566000000E+00 0. -1.
        -13    1    4    4    0    0 -0.82177305085E+01  0.45908965008E+01 -0.58481805201E+02  0.59234619346E+02  0.10566000000E+00 0.  1.
        -14    1    4    4    0    0 -0.49392607734E+01  0.34857244290E+01 -0.38119755658E+02  0.38596144149E+02  0.00000000000E+00 0.  1.
<mgrwt>
<rscale>  0 0.81296308E+02</rscale>
<asrwt>0</asrwt>
<pdfrwt beam="1">  1        2 0.70824018E-01 0.81296308E+02</pdfrwt>
<pdfrwt beam="2">  1       -1 0.55217200E-03 0.81296308E+02</pdfrwt>
<totfact> 0.28424864E+05</totfact>
</mgrwt>
</event>
<event>
 8    1  0.7667702E-014  0.7826354E+02  0.7818608E-02  0.1334053E+00
          2   -1    0    0  501    0  0.00000000000E+00  0.00000000000E+00  0.83602071998E+03  0.83602071998E+03  0.25500000000E-02 0. -1.
         -1   -1    0    0    0  501 -0.00000000000E+00 -0.00000000000E+00 -0.18316442298E+01  0.18316511639E+01  0.50400000000E-02 0.  1.
         24    2    1    2    0    0  0.00000000000E+00  0.00000000000E+00  0.83418907575E+03  0.83785237114E+03  0.78263540279E+02 0.  0.
         66    2    3    3    0    0 -0.18783277717E+02  0.21695761748E+02  0.70177330334E+03  0.70236264627E+03  0.19999998183E+01 0.  0.
        -13    1    3    3    0    0  0.18783277717E+02 -0.21695761748E+02  0.13241577240E+03  0.13548972487E+03  0.10566000000E+00 0.  1.
         13    1    4    4    0    0 -0.74880536310E+01  0.89325989618E+01  0.30057575242E+03  0.30080168945E+03  0.10566000000E+00 0. -1.
        -13    1    4    4    0    0 -0.11119865651E+02  0.12461693410E+02  0.38894117191E+03  0.38929961673E+03  0.10566000000E+00 0.  1.
         14    1    4    4    0    0 -0.17535843491E+00  0.30146937651E+00  0.12256379015E+02  0.12261340095E+02  0.00000000000E+00 0. -1.
<mgrwt>
<rscale>  0 0.78263540E+02</rscale>
<asrwt>0</asrwt>
<pdfrwt beam="1">  1        2 0.12861851E+00 0.78263540E+02</pdfrwt>
<pdfrwt beam="2">  1       -1 0.28179209E-03 0.78263540E+02</pdfrwt>
<totfact> 0.36638864E+05</totfact>
</mgrwt>
</event>
<event>
 8    1  0.7667702E-014  0.7941942E+02  0.7818608E-02  0.1330707E+00
          2   -1    0    0  501    0  0.00000000000E+00  0.00000000000E+00  0.18518242237E+03  0.18518242239E+03  0.25500000000E-02 0. -1.
         -1   -1    0    0    0  501 -0.00000000000E+00 -0.00000000000E+00 -0.85151750108E+01  0.85151765023E+01  0.50400000000E-02 0.  1.
         24    2    1    2    0    0  0.00000000000E+00  0.00000000000E+00  0.17666724736E+03  0.19369759889E+03  0.79419415297E+02 0.  0.
         66    2    3    3    0    0  0.12337307857E+02  0.32717313817E+02  0.13416224745E+03  0.13865835861E+03  0.19999961884E+01 0.  0.
        -13    1    3    3    0    0 -0.12337307857E+02 -0.32717313817E+02  0.42504999908E+02  0.55039240273E+02  0.10566000000E+00 0.  1.
         13    1    4    4    0    0  0.75513986034E+01  0.18786184254E+02  0.74343971609E+02  0.77051811259E+02  0.10566000000E+00 0. -1.
        -13    1    4    4    0    0  0.70420027025E+00  0.21108427184E+01  0.86230352985E+01  0.89061471354E+01  0.10566000000E+00 0.  1.
         14    1    4    4    0    0  0.40817089831E+01  0.11820286845E+02  0.51195240541E+02  0.52700400220E+02  0.00000000000E+00 0. -1.
<mgrwt>
<rscale>  0 0.79419415E+02</rscale>
<asrwt>0</asrwt>
<pdfrwt beam="1">  1        2 0.28489603E-01 0.79419415E+02</pdfrwt>
<pdfrwt beam="2">  1       -1 0.13100271E-02 0.79419415E+02</pdfrwt>
<totfact> 0.21898413E+05</totfact>
</mgrwt>
</event>
<event>
 8    1  0.7667702E-014  0.8005342E+02  0.7818608E-02  0.1328900E+00
          2   -1    0    0  501    0  0.00000000000E+00  0.00000000000E+00  0.15066124528E+03  0.15066124530E+03  0.25500000000E-02 0. -1.
         -1   -1    0    0    0  501 -0.00000000000E+00 -0.00000000000E+00 -0.10634039201E+02  0.10634040396E+02  0.50400000000E-02 0.  1.
         24    2    1    2    0    0  0.00000000000E+00  0.00000000000E+00  0.14002720608E+03  0.16129528570E+03  0.80053424324E+02 0.  0.
         66    2    3    3    0    0 -0.21883846801E+02  0.31001877840E+02  0.95552226925E+02  0.10283115896E+03  0.20000005471E+01 0.  0.
        -13    1    3    3    0    0  0.21883846801E+02 -0.31001877840E+02  0.44474979154E+02  0.58464126738E+02  0.10566000000E+00 0.  1.
         13    1    4    4    0    0 -0.24475573600E+01  0.40035975619E+01  0.11220706830E+02  0.12162843264E+02  0.10566000000E+00 0. -1.
        -13    1    4    4    0    0 -0.78135333309E+01  0.11949306909E+02  0.37179346592E+02  0.39826526534E+02  0.10566000000E+00 0.  1.
         14    1    4    4    0    0 -0.11622756110E+02  0.15048973369E+02  0.47152173502E+02  0.50841789161E+02  0.00000000000E+00 0. -1.
<mgrwt>
<rscale>  0 0.80053424E+02</rscale>
<asrwt>0</asrwt>
<pdfrwt beam="1">  1        2 0.23178652E-01 0.80053424E+02</pdfrwt>
<pdfrwt beam="2">  1       -1 0.16360062E-02 0.80053424E+02</pdfrwt>
<totfact> 0.20022940E+05</totfact>
</mgrwt>
</event>
<event>
 8    1  0.7667702E-014  0.8023569E+02  0.7818608E-02  0.1328384E+00
         -1   -1    0    0    0  501 -0.00000000000E+00  0.00000000000E+00  0.27447934201E+01  0.27447980473E+01  0.50400000000E-02 0.  1.
          2   -1    0    0  501    0  0.00000000000E+00 -0.00000000000E+00 -0.58636115598E+03  0.58636115599E+03  0.25500000000E-02 0. -1.
         24    2    1    2    0    0  0.35527136788E-14 -0.17763568394E-14 -0.58361636256E+03  0.58910595403E+03  0.80235692988E+02 0.  0.
         66    2    3    3    0    0  0.22509769714E+02 -0.15858467369E+02 -0.50595514726E+03  0.50670779723E+03  0.20000017257E+01 0.  0.
        -13    1    3    3    0    0 -0.22509769714E+02  0.15858467369E+02 -0.77661215297E+02  0.82398156808E+02  0.10566000000E+00 0.  1.
         13    1    4    4    0    0  0.16144211764E+02 -0.10312012749E+02 -0.35392664421E+03  0.35444471194E+03  0.10566000000E+00 0. -1.
        -13    1    4    4    0    0  0.40669969989E+01 -0.33719736852E+01 -0.95892336176E+02  0.96037815325E+02  0.10566000000E+00 0.  1.
         14    1    4    4    0    0  0.22985609507E+01 -0.21744809350E+01 -0.56136166884E+02  0.56225269961E+02  0.00000000000E+00 0. -1.
<mgrwt>
<rscale>  0 0.80235693E+02</rscale>
<asrwt>0</asrwt>
<pdfrwt beam="1">  1        2 0.90209309E-01 0.80235693E+02</pdfrwt>
<pdfrwt beam="2">  1       -1 0.42227673E-03 0.80235693E+02</pdfrwt>
<totfact> 0.31712283E+05</totfact>
</mgrwt>
</event>
<event>
 8    1  0.7667702E-014  0.7991678E+02  0.7818608E-02  0.1329288E+00
          2   -1    0    0  501    0  0.00000000000E+00  0.00000000000E+00  0.16631641578E+02  0.16631641773E+02  0.25500000000E-02 0. -1.
         -1   -1    0    0    0  501 -0.00000000000E+00 -0.00000000000E+00 -0.96002121427E+02  0.96002121559E+02  0.50400000000E-02 0.  1.
         24    2    1    2    0    0  0.00000000000E+00  0.00000000000E+00 -0.79370479849E+02  0.11263376333E+03  0.79916779033E+02 0.  0.
         66    2    3    3    0    0 -0.29078577332E+02 -0.76726811961E+01 -0.26821434755E+01  0.30259338927E+02  0.20000005776E+01 0.  0.
        -13    1    3    3    0    0  0.29078577332E+02  0.76726811961E+01 -0.76688336374E+02  0.82374424406E+02  0.10566000000E+00 0.  1.
         13    1    4    4    0    0 -0.18589707454E+02 -0.50071071984E+01 -0.80386654969E+00  0.19269294517E+02  0.10566000000E+00 0. -1.
        -13    1    4    4    0    0 -0.41964108313E+01 -0.10828349883E+01 -0.91172702313E+00  0.44299893541E+01  0.10566000000E+00 0.  1.
         14    1    4    4    0    0 -0.62924590462E+01 -0.15827390094E+01 -0.96654990273E+00  0.65600550558E+01  0.00000000000E+00 0. -1.
<mgrwt>
<rscale>  0 0.79916779E+02</rscale>
<asrwt>0</asrwt>
<pdfrwt beam="1">  1        2 0.25587142E-02 0.79916779E+02</pdfrwt>
<pdfrwt beam="2">  1       -1 0.14769557E-01 0.79916779E+02</pdfrwt>
<totfact> 0.11987440E+05</totfact>
</mgrwt>
</event>
<event>
 8    1  0.7667702E-014  0.7742456E+02  0.7818608E-02  0.1336523E+00
         -1   -1    0    0    0  501 -0.00000000000E+00  0.00000000000E+00  0.32455622378E+01  0.32455661511E+01  0.50400000000E-02 0.  1.
          2   -1    0    0  501    0  0.00000000000E+00 -0.00000000000E+00 -0.46175039493E+03  0.46175039494E+03  0.25500000000E-02 0. -1.
         24    2    1    2    0    0  0.00000000000E+00  0.00000000000E+00 -0.45850483270E+03  0.46499596109E+03  0.77424558289E+02 0.  0.
         66    2    3    3    0    0 -0.27489685436E+02  0.58686010163E+00 -0.39284737777E+03  0.39381352111E+03  0.19999948738E+01 0.  0.
        -13    1    3    3    0    0  0.27489685436E+02 -0.58686010163E+00 -0.65657454927E+02  0.71182439982E+02  0.10566000000E+00 0.  1.
         13    1    4    4    0    0 -0.10874212336E+02 -0.27637060604E-01 -0.15818396094E+03  0.15855732692E+03  0.10566000000E+00 0. -1.
        -13    1    4    4    0    0 -0.11007641969E+01 -0.30685789691E+00 -0.15730537377E+02  0.15772343319E+02  0.10566000000E+00 0.  1.
        -14    1    4    4    0    0 -0.15514708904E+02  0.92135505914E+00 -0.21893287945E+03  0.21948385087E+03  0.00000000000E+00 0.  1.
<mgrwt>
<rscale>  0 0.77424558E+02</rscale>
<asrwt>0</asrwt>
<pdfrwt beam="1">  1        2 0.71038470E-01 0.77424558E+02</pdfrwt>
<pdfrwt beam="2">  1       -1 0.49931794E-03 0.77424558E+02</pdfrwt>
<totfact> 0.32311965E+05</totfact>
</mgrwt>
</event>
<event>
 8    1  0.7667702E-014  0.8206598E+02  0.7818608E-02  0.1323289E+00
         -1   -1    0    0    0  501 -0.00000000000E+00  0.00000000000E+00  0.73695040497E+02  0.73695040669E+02  0.50400000000E-02 0.  1.
          2   -1    0    0  501    0  0.00000000000E+00 -0.00000000000E+00 -0.22846942648E+02  0.22846942790E+02  0.25500000000E-02 0. -1.
         24    2    1    2    0    0  0.00000000000E+00  0.17763568394E-14  0.50848097849E+02  0.96541983459E+02  0.82065982693E+02 0.  0.
         66    2    3    3    0    0  0.12767813931E+01 -0.12271032575E+02 -0.20568196763E+02  0.24067803841E+02  0.20000131164E+01 0.  0.
        -13    1    3    3    0    0 -0.12767813931E+01  0.12271032575E+02  0.71416294612E+02  0.72474179618E+02  0.10566000000E+00 0.  1.
         13    1    4    4    0    0  0.46117696008E+00 -0.12730153535E+01 -0.16591031373E+01  0.21440707858E+01  0.10566000000E+00 0. -1.
        -13    1    4    4    0    0  0.10410939804E+01 -0.84756312060E+01 -0.13977650390E+02  0.16380051144E+02  0.10566000000E+00 0.  1.
        -14    1    4    4    0    0 -0.22548954737E+00 -0.25223860156E+01 -0.49314432352E+01  0.55436819109E+01  0.00000000000E+00 0.  1.
<mgrwt>
<rscale>  0 0.82065983E+02</rscale>
<asrwt>0</asrwt>
<pdfrwt beam="1">  1        2 0.35149142E-02 0.82065983E+02</pdfrwt>
<pdfrwt beam="2">  1       -1 0.11337699E-01 0.82065983E+02</pdfrwt>
<totfact> 0.11856103E+05</totfact>
</mgrwt>
</event>
<event>
 8    1  0.7667702E-014  0.8031977E+02  0.7818608E-02  0.1328146E+00
         -1   -1    0    0    0  501 -0.00000000000E+00  0.00000000000E+00  0.46430897309E+01  0.46430924663E+01  0.50400000000E-02 0.  1.
          2   -1    0    0  501    0  0.00000000000E+00 -0.00000000000E+00 -0.34735831220E+03  0.34735831221E+03  0.25500000000E-02 0. -1.
         24    2    1    2    0    0 -0.35527136788E-14 -0.71054273576E-14 -0.34271522247E+03  0.35200140468E+03  0.80319768312E+02 0.  0.
         66    2    3    3    0    0 -0.24217030767E+02 -0.28842452056E+02 -0.23226192118E+03  0.23530395590E+03  0.20000037199E+01 0.  0.
        -13    1    3    3    0    0  0.24217030767E+02  0.28842452056E+02 -0.11045330129E+03  0.11669744878E+03  0.10566000000E+00 0.  1.
         13    1    4    4    0    0 -0.21030155415E+01 -0.27102424721E+01 -0.21645345645E+02  0.21915753255E+02  0.10566000000E+00 0.  1.
        -13    1    4    4    0    0 -0.22707323167E+01 -0.33149743792E+01 -0.27318319015E+02  0.27612442815E+02  0.10566000000E+00 0.  1.
         14    1    4    4    0    0 -0.19843282909E+02 -0.22817235205E+02 -0.18329825652E+03  0.18577575983E+03  0.00000000000E+00 0. -1.
<mgrwt>
<rscale>  0 0.80319768E+02</rscale>
<asrwt>0</asrwt>
<pdfrwt beam="1">  1        2 0.53439720E-01 0.80319768E+02</pdfrwt>
<pdfrwt beam="2">  1       -1 0.71432199E-03 0.80319768E+02</pdfrwt>
<totfact> 0.26597589E+05</totfact>
</mgrwt>
</event>
<event>
 8    1  0.7667702E-014  0.8013623E+02  0.7818608E-02  0.1328665E+00
          2   -1    0    0  501    0  0.00000000000E+00  0.00000000000E+00  0.24886075950E+02  0.24886076080E+02  0.25500000000E-02 0. -1.
         -1   -1    0    0    0  501 -0.00000000000E+00 -0.00000000000E+00 -0.64512139386E+02  0.64512139583E+02  0.50400000000E-02 0.  1.
         24    2    1    2    0    0  0.00000000000E+00  0.00000000000E+00 -0.39626063437E+02  0.89398215664E+02  0.80136234379E+02 0.  0.
         66    2    3    3    0    0 -0.33639735901E+02  0.14530081697E+02 -0.18131950787E+01  0.36742928340E+02  0.20000002533E+01 0.  0.
        -13    1    3    3    0    0  0.33639735901E+02 -0.14530081697E+02 -0.37812868358E+02  0.52655287323E+02  0.10566000000E+00 0.  1.
         13    1    4    4    0    0 -0.14429381637E+02  0.66675626787E+01 -0.20233671422E+00  0.15897029619E+02  0.10566000000E+00 0. -1.
        -13    1    4    4    0    0 -0.19366055981E+01  0.10177901269E+01  0.54311040655E-01  0.21909933158E+01  0.10566000000E+00 0.  1.
        -14    1    4    4    0    0 -0.17273748666E+02  0.68447288911E+01 -0.16651694052E+01  0.18654905406E+02  0.00000000000E+00 0.  1.
<mgrwt>
<rscale>  0 0.80136234E+02</rscale>
<asrwt>0</asrwt>
<pdfrwt beam="1">  1        2 0.38286271E-02 0.80136234E+02</pdfrwt>
<pdfrwt beam="2">  1       -1 0.99249445E-02 0.80136234E+02</pdfrwt>
<totfact> 0.12906325E+05</totfact>
</mgrwt>
</event>
<event>
 8    1  0.7667702E-014  0.7809968E+02  0.7818608E-02  0.1334532E+00
          2   -1    0    0  501    0  0.00000000000E+00  0.00000000000E+00  0.32411780414E+03  0.32411780415E+03  0.25500000000E-02 0. -1.
         -1   -1    0    0    0  501 -0.00000000000E+00 -0.00000000000E+00 -0.47047389286E+01  0.47047416281E+01  0.50400000000E-02 0.  1.
         24    2    1    2    0    0 -0.17763568394E-14  0.35527136788E-14  0.31941306521E+03  0.32882254578E+03  0.78099682357E+02 0.  0.
         66    2    3    3    0    0  0.64032432570E+01 -0.15867351036E+02  0.30747830860E+03  0.30796052448E+03  0.20000063313E+01 0.  0.
        -13    1    3    3    0    0 -0.64032432570E+01  0.15867351036E+02  0.11934756604E+02  0.20862021291E+02  0.10566000000E+00 0.  1.
         13    1    4    4    0    0  0.49531274963E+01 -0.13595747927E+02  0.25670588441E+03  0.25711339927E+03  0.10566000000E+00 0. -1.
        -13    1    4    4    0    0  0.25269681404E+00 -0.79047979790E+00  0.13236348269E+02  0.13262759650E+02  0.10566000000E+00 0.  1.
        -14    1    4    4    0    0  0.11974189467E+01 -0.14811233113E+01  0.37536075929E+02  0.37584365560E+02  0.00000000000E+00 0.  1.
<mgrwt>
<rscale>  0 0.78099682E+02</rscale>
<asrwt>0</asrwt>
<pdfrwt beam="1">  1        2 0.49864271E-01 0.78099682E+02</pdfrwt>
<pdfrwt beam="2">  1       -1 0.72380629E-03 0.78099682E+02</pdfrwt>
<totfact> 0.27918517E+05</totfact>
</mgrwt>
</event>
<event>
 8    1  0.7667702E-014  0.8133762E+02  0.7818608E-02  0.1325298E+00
          2   -1    0    0  501    0  0.00000000000E+00  0.00000000000E+00  0.16672313712E+03  0.16672313714E+03  0.25500000000E-02 0. -1.
         -1   -1    0    0    0  501 -0.00000000000E+00 -0.00000000000E+00 -0.99203513821E+01  0.99203526624E+01  0.50400000000E-02 0.  1.
         24    2    1    2    0    0  0.00000000000E+00  0.00000000000E+00  0.15680278573E+03  0.17664348980E+03  0.81337622747E+02 0.  0.
         66    2    3    3    0    0  0.39992323856E+02 -0.51794053316E+01  0.89465793836E+02  0.98154676271E+02  0.20000000420E+01 0.  0.
        -13    1    3    3    0    0 -0.39992323856E+02  0.51794053316E+01  0.67336991899E+02  0.78488813528E+02  0.10566000000E+00 0.  1.
         13    1    4    4    0    0  0.11422240202E+02 -0.14488011976E+01  0.25557797471E+02  0.28031745784E+02  0.10566000000E+00 0. -1.
        -13    1    4    4    0    0  0.14636342993E+02 -0.27222577151E+01  0.32407095587E+02  0.35663205572E+02  0.10566000000E+00 0.  1.
        -14    1    4    4    0    0  0.13933740662E+02 -0.10083464189E+01  0.31500900778E+02  0.34459724914E+02  0.00000000000E+00 0.  1.
<mgrwt>
<rscale>  0 0.81337623E+02</rscale>
<asrwt>0</asrwt>
<pdfrwt beam="1">  1        2 0.25649712E-01 0.81337623E+02</pdfrwt>
<pdfrwt beam="2">  1       -1 0.15262081E-02 0.81337623E+02</pdfrwt>
<totfact> 0.19843159E+05</totfact>
</mgrwt>
</event>
<event>
 8    1  0.8420080E-014  0.7948630E+02  0.7818608E-02  0.1330516E+00
          2   -1    0    0  501    0  0.00000000000E+00  0.00000000000E+00  0.10555904258E+04  0.10555904258E+04  0.25500000000E-02 0. -1.
         -1   -1    0    0    0  501 -0.00000000000E+00 -0.00000000000E+00 -0.14963319433E+01  0.14963404312E+01  0.50400000000E-02 0.  1.
         24    2    1    2    0    0  0.00000000000E+00  0.17763568394E-14  0.10540940939E+04  0.10570867663E+04  0.79486304760E+02 0.  0.
         66    2    3    3    0    0  0.11372467104E+02  0.14131649216E+02  0.99728314854E+03  0.99745010646E+03  0.19999986512E+01 0.  0.
        -13    1    3    3    0    0 -0.11372467104E+02 -0.14131649216E+02  0.56810945354E+02  0.59636659813E+02  0.10566000000E+00 0.  1.
         13    1    4    4    0    0  0.42298262339E+01  0.50076439865E+01  0.36480848579E+03  0.36486738741E+03  0.10566000000E+00 0. -1.
        -13    1    4    4    0    0  0.41637477573E+01  0.43817076616E+01  0.35625281336E+03  0.35630410375E+03  0.10566000000E+00 0.  1.
        -14    1    4    4    0    0  0.29788931133E+01  0.47422975681E+01  0.27622184939E+03  0.27627861530E+03  0.00000000000E+00 0.  1.
<mgrwt>
<rscale>  0 0.79486305E+02</rscale>
<asrwt>0</asrwt>
<pdfrwt beam="1">  1        2 0.16239894E+00 0.79486305E+02</pdfrwt>
<pdfrwt beam="2">  1       -1 0.23020499E-03 0.79486305E+02</pdfrwt>
<totfact> 0.35868024E+05</totfact>
</mgrwt>
</event>
<event>
 8    1  0.7667702E-014  0.7793323E+02  0.7818608E-02  0.1335021E+00
          2   -1    0    0  501    0  0.00000000000E+00  0.00000000000E+00  0.96995046759E+02  0.96995046792E+02  0.25500000000E-02 0. -1.
         -1   -1    0    0    0  501 -0.00000000000E+00 -0.00000000000E+00 -0.15654378402E+02  0.15654379213E+02  0.50400000000E-02 0.  1.
         24    2    1    2    0    0  0.00000000000E+00  0.00000000000E+00  0.81340668357E+02  0.11264942601E+03  0.77933233287E+02 0.  0.
         66    2    3    3    0    0  0.10864970394E+02  0.43325155113E+00  0.94745620798E+02  0.95388510545E+02  0.19999987639E+01 0.  0.
        -13    1    3    3    0    0 -0.10864970394E+02 -0.43325155113E+00 -0.13404952441E+02  0.17260915461E+02  0.10566000000E+00 0.  1.
         13    1    4    4    0    0  0.42328720003E+01  0.33051085131E+00  0.36273630398E+02  0.36521416581E+02  0.10566000000E+00 0. -1.
        -13    1    4    4    0    0  0.50487736931E+01 -0.39002479788E+00  0.47711125654E+02  0.47979213315E+02  0.10566000000E+00 0.  1.
        -14    1    4    4    0    0  0.15833247003E+01  0.49276549771E+00  0.10760864746E+02  0.10887880649E+02  0.00000000000E+00 0.  1.
<mgrwt>
<rscale>  0 0.77933233E+02</rscale>
<asrwt>0</asrwt>
<pdfrwt beam="1">  1        2 0.14922315E-01 0.77933233E+02</pdfrwt>
<pdfrwt beam="2">  1       -1 0.24083660E-02 0.77933233E+02</pdfrwt>
<totfact> 0.18851582E+05</totfact>
</mgrwt>
</event>
<event>
 8    1  0.7667702E-014  0.8066582E+02  0.7818608E-02  0.1327172E+00
         -1   -1    0    0    0  501 -0.00000000000E+00  0.00000000000E+00  0.26378071453E+02  0.26378071935E+02  0.50400000000E-02 0.  1.
          2   -1    0    0  501    0  0.00000000000E+00 -0.00000000000E+00 -0.61670296974E+02  0.61670297027E+02  0.25500000000E-02 0. -1.
         24    2    1    2    0    0  0.00000000000E+00  0.00000000000E+00 -0.35292225521E+02  0.88048368962E+02  0.80665817386E+02 0.  0.
         66    2    3    3    0    0  0.82473019912E+01 -0.33116035403E+02 -0.41068670956E+02  0.53435246062E+02  0.19999991782E+01 0.  0.
        -13    1    3    3    0    0 -0.82473019912E+01  0.33116035403E+02  0.57764454345E+01  0.34613122900E+02  0.10566000000E+00 0.  1.
         13    1    4    4    0    0  0.95957068055E+00 -0.35021288171E+01 -0.37289127177E+01  0.52059231875E+01  0.10566000000E+00 0. -1.
        -13    1    4    4    0    0  0.37831005586E+01 -0.17269260513E+02 -0.22353323555E+02  0.28499499057E+02  0.10566000000E+00 0.  1.
         14    1    4    4    0    0  0.35046307521E+01 -0.12344646073E+02 -0.14986434683E+02  0.19729823818E+02  0.00000000000E+00 0. -1.
<mgrwt>
<rscale>  0 0.80665817E+02</rscale>
<asrwt>0</asrwt>
<pdfrwt beam="1">  1        2 0.94877380E-02 0.80665817E+02</pdfrwt>
<pdfrwt beam="2">  1       -1 0.40581649E-02 0.80665817E+02</pdfrwt>
<totfact> 0.15316527E+05</totfact>
</mgrwt>
</event>
<event>
 8    1  0.7667702E-014  0.8094754E+02  0.7818608E-02  0.1326384E+00
          2   -1    0    0  501    0  0.00000000000E+00  0.00000000000E+00  0.62276428974E+02  0.62276429027E+02  0.25500000000E-02 0. -1.
         -1   -1    0    0    0  501 -0.00000000000E+00 -0.00000000000E+00 -0.26304106793E+02  0.26304107276E+02  0.50400000000E-02 0.  1.
         24    2    1    2    0    0  0.44408920985E-15  0.00000000000E+00  0.35972322182E+02  0.88580536302E+02  0.80947535160E+02 0.  0.
         66    2    3    3    0    0  0.17197833425E+01  0.11161963622E+02  0.60499950806E+02  0.61577521348E+02  0.20000002897E+01 0.  0.
        -13    1    3    3    0    0 -0.17197833425E+01 -0.11161963622E+02 -0.24527628624E+02  0.27003014954E+02  0.10566000000E+00 0.  1.
         13    1    4    4    0    0  0.12672284962E+01  0.59761675410E+01  0.33312795475E+02  0.33868480227E+02  0.10566000000E+00 0. -1.
        -13    1    4    4    0    0 -0.41156447576E+00  0.13191138045E+01  0.65529398140E+01  0.66978825601E+01  0.10566000000E+00 0.  1.
        -14    1    4    4    0    0  0.86411932199E+00  0.38666822768E+01  0.20634215517E+02  0.21011158560E+02  0.00000000000E+00 0.  1.
<mgrwt>
<rscale>  0 0.80947535E+02</rscale>
<asrwt>0</asrwt>
<pdfrwt beam="1">  1        2 0.95809890E-02 0.80947535E+02</pdfrwt>
<pdfrwt beam="2">  1       -1 0.40467858E-02 0.80947535E+02</pdfrwt>
<totfact> 0.15206740E+05</totfact>
</mgrwt>
</event>
<event>
 8    1  0.7667702E-014  0.7948412E+02  0.7818608E-02  0.1330522E+00
          2   -1    0    0  501    0  0.00000000000E+00  0.00000000000E+00  0.21868066957E+03  0.21868066959E+03  0.25500000000E-02 0. -1.
         -1   -1    0    0    0  501 -0.00000000000E+00 -0.00000000000E+00 -0.72225459242E+01  0.72225476826E+01  0.50400000000E-02 0.  1.
         24    2    1    2    0    0  0.35527136788E-14  0.00000000000E+00  0.21145812365E+03  0.22590321727E+03  0.79484121156E+02 0.  0.
         66    2    3    3    0    0 -0.27332334019E+02 -0.23740690069E+02  0.15221461651E+03  0.15647353233E+03  0.19999986837E+01 0.  0.
        -13    1    3    3    0    0  0.27332334019E+02  0.23740690069E+02  0.59243507140E+02  0.69429684935E+02  0.10566000000E+00 0.  1.
         13    1    4    4    0    0 -0.26529926697E+01 -0.22159914521E+01  0.15263696890E+02  0.15650578104E+02  0.10566000000E+00 0. -1.
        -13    1    4    4    0    0 -0.10770039763E+02 -0.90275687200E+01  0.62365240156E+02  0.63929063009E+02  0.10566000000E+00 0.  1.
         14    1    4    4    0    0 -0.13909301586E+02 -0.12497129897E+02  0.74585679462E+02  0.76893891221E+02  0.00000000000E+00 0. -1.
<mgrwt>
<rscale>  0 0.79484121E+02</rscale>
<asrwt>0</asrwt>
<pdfrwt beam="1">  1        2 0.33643179E-01 0.79484121E+02</pdfrwt>
<pdfrwt beam="2">  1       -1 0.11111611E-02 0.79484121E+02</pdfrwt>
<totfact> 0.23149992E+05</totfact>
</mgrwt>
</event>
<event>
 8    1  0.8123371E-014  0.8305827E+02  0.7818608E-02  0.1320590E+00
         -1   -1    0    0    0  501 -0.00000000000E+00  0.00000000000E+00  0.44554376135E+01  0.44554404642E+01  0.50400000000E-02 0.  1.
          2   -1    0    0  501    0  0.00000000000E+00 -0.00000000000E+00 -0.38709291436E+03  0.38709291437E+03  0.25500000000E-02 0. -1.
         24    2    1    2    0    0  0.71054273576E-14 -0.17763568394E-14 -0.38263747675E+03  0.39154835483E+03  0.83058266062E+02 0.  0.
         66    2    3    3    0    0  0.38352556624E+02 -0.80296774518E+01 -0.25594071061E+03  0.25893057310E+03  0.20000040101E+01 0.  0.
        -13    1    3    3    0    0 -0.38352556624E+02  0.80296774518E+01 -0.12669676614E+03  0.13261778174E+03  0.10566000000E+00 0.  1.
         13    1    4    4    0    0  0.25524044838E+02 -0.56806569588E+01 -0.16824302150E+03  0.17026295010E+03  0.10566000000E+00 0. -1.
        -13    1    4    4    0    0  0.10602635880E+02 -0.21898411308E+01 -0.70745416773E+02  0.71569102623E+02  0.10566000000E+00 0.  1.
        -14    1    4    4    0    0  0.22258759057E+01 -0.15917936222E+00 -0.16952272339E+02  0.17098520377E+02  0.00000000000E+00 0.  1.
<mgrwt>
<rscale>  0 0.83058266E+02</rscale>
<asrwt>0</asrwt>
<pdfrwt beam="1">  1        2 0.59552730E-01 0.83058266E+02</pdfrwt>
<pdfrwt beam="2">  1       -1 0.68545247E-03 0.83058266E+02</pdfrwt>
<totfact> 0.25317311E+05</totfact>
</mgrwt>
</event>
<event>
 8    1  0.7667702E-014  0.7441702E+02  0.7818608E-02  0.1345686E+00
          2   -1    0    0  501    0  0.00000000000E+00  0.00000000000E+00  0.12702125177E+03  0.12702125180E+03  0.25500000000E-02 0. -1.
         -1   -1    0    0    0  501 -0.00000000000E+00 -0.00000000000E+00 -0.10899540141E+02  0.10899541306E+02  0.50400000000E-02 0.  1.
         24    2    1    2    0    0  0.00000000000E+00  0.00000000000E+00  0.11612171163E+03  0.13792079310E+03  0.74417022638E+02 0.  0.
         66    2    3    3    0    0 -0.23193711138E+02 -0.21419229318E+02  0.94502812132E+02  0.99656977291E+02  0.20000002879E+01 0.  0.
        -13    1    3    3    0    0  0.23193711138E+02  0.21419229318E+02  0.21618899498E+02  0.38263815812E+02  0.10566000000E+00 0.  1.
         13    1    4    4    0    0 -0.72780377595E+01 -0.71493754482E+01  0.29790803968E+02  0.31489467573E+02  0.10566000000E+00 0. -1.
        -13    1    4    4    0    0 -0.93984328111E+01 -0.89342932773E+01  0.41179708591E+02  0.43173275291E+02  0.10566000000E+00 0.  1.
        -14    1    4    4    0    0 -0.65172405669E+01 -0.53355605928E+01  0.23532299573E+02  0.24994234428E+02  0.00000000000E+00 0.  1.
<mgrwt>
<rscale>  0 0.74417023E+02</rscale>
<asrwt>0</asrwt>
<pdfrwt beam="1">  1        2 0.19541730E-01 0.74417023E+02</pdfrwt>
<pdfrwt beam="2">  1       -1 0.16768525E-02 0.74417023E+02</pdfrwt>
<totfact> 0.23030281E+05</totfact>
</mgrwt>
</event>
<event>
 8    1  0.7667702E-014  0.7878230E+02  0.7818608E-02  0.1332543E+00
         -1   -1    0    0    0  501 -0.00000000000E+00  0.00000000000E+00  0.12373893899E+03  0.12373893910E+03  0.50400000000E-02 0.  1.
          2   -1    0    0  501    0  0.00000000000E+00 -0.00000000000E+00 -0.12539807554E+02  0.12539807813E+02  0.25500000000E-02 0. -1.
         24    2    1    2    0    0  0.71054273576E-14 -0.35527136788E-14  0.11119913144E+03  0.13627874691E+03  0.78782295132E+02 0.  0.
         66    2    3    3    0    0  0.30076511857E+02 -0.24284701518E+02  0.42770051672E+02  0.57685532092E+02  0.19999998705E+01 0.  0.
        -13    1    3    3    0    0 -0.30076511857E+02  0.24284701518E+02  0.68429079769E+02  0.78593214817E+02  0.10566000000E+00 0.  1.
         13    1    4    4    0    0  0.27655749811E+00 -0.38535522956E+00  0.61707268318E+00  0.78544601000E+00  0.10566000000E+00 0. -1.
        -13    1    4    4    0    0  0.77682570607E+00 -0.56852019209E+00  0.84588290131E+00  0.12858286452E+01  0.10566000000E+00 0. -1.
         14    1    4    4    0    0  0.29023128653E+02 -0.23330826097E+02  0.41307096087E+02  0.55614257437E+02  0.00000000000E+00 0. -1.
<mgrwt>
<rscale>  0 0.78782295E+02</rscale>
<asrwt>0</asrwt>
<pdfrwt beam="1">  1        2 0.19292012E-02 0.78782295E+02</pdfrwt>
<pdfrwt beam="2">  1       -1 0.19036760E-01 0.78782295E+02</pdfrwt>
<totfact> 0.11748218E+05</totfact>
</mgrwt>
</event>
<event>
 8    1  0.7667702E-014  0.8206989E+02  0.7818608E-02  0.1323278E+00
          2   -1    0    0  501    0  0.00000000000E+00  0.00000000000E+00  0.51505971924E+03  0.51505971925E+03  0.25500000000E-02 0. -1.
         -1   -1    0    0    0  501 -0.00000000000E+00 -0.00000000000E+00 -0.32692633432E+01  0.32692672281E+01  0.50400000000E-02 0.  1.
         24    2    1    2    0    0  0.35527136788E-14 -0.11102230246E-15  0.51179045590E+03  0.51832898648E+03  0.82069893825E+02 0.  0.
         66    2    3    3    0    0  0.24620540662E+02 -0.72388579777E+00  0.46313697700E+03  0.46379581119E+03  0.19999964954E+01 0.  0.
        -13    1    3    3    0    0 -0.24620540662E+02  0.72388579777E+00  0.48653478903E+02  0.54533175284E+02  0.10566000000E+00 0.  1.
         13    1    4    4    0    0  0.69185684850E+01 -0.53967855967E-01  0.13712822698E+03  0.13730269954E+03  0.10566000000E+00 0. -1.
        -13    1    4    4    0    0  0.54058951177E+01 -0.85714123187E+00  0.96627141848E+02  0.96782095963E+02  0.10566000000E+00 0.  1.
        -14    1    4    4    0    0  0.12296077059E+02  0.18722329007E+00  0.22938160816E+03  0.22971101569E+03  0.00000000000E+00 0.  1.
<mgrwt>
<rscale>  0 0.82069894E+02</rscale>
<asrwt>0</asrwt>
<pdfrwt beam="1">  1        2 0.79239931E-01 0.82069894E+02</pdfrwt>
<pdfrwt beam="2">  1       -1 0.50296406E-03 0.82069894E+02</pdfrwt>
<totfact> 0.28756483E+05</totfact>
</mgrwt>
</event>
<event>
 8    1  0.1037198E-013  0.7769382E+02  0.7818608E-02  0.1335726E+00
          2   -1    0    0  501    0  0.00000000000E+00  0.00000000000E+00  0.22778951583E+03  0.22778951584E+03  0.25500000000E-02 0. -1.
         -1   -1    0    0    0  501 -0.00000000000E+00 -0.00000000000E+00 -0.66248983031E+01  0.66249002202E+01  0.50400000000E-02 0.  1.
         24    2    1    2    0    0 -0.35527136788E-14  0.35527136788E-14  0.22116461752E+03  0.23441441606E+03  0.77693824806E+02 0.  0.
         66    2    3    3    0    0 -0.27554673108E+02  0.19742376077E+02  0.16774714431E+03  0.17114942549E+03  0.19999996452E+01 0.  0.
        -13    1    3    3    0    0  0.27554673108E+02 -0.19742376077E+02  0.53417473213E+02  0.63264990569E+02  0.10566000000E+00 0.  1.
         13    1    4    4    0    0 -0.16167440469E+02  0.11883030938E+02  0.10117291710E+03  0.10314340926E+03  0.10566000000E+00 0. -1.
        -13    1    4    4    0    0 -0.65423371412E+01  0.43949437442E+01  0.40540519523E+02  0.41299668195E+02  0.10566000000E+00 0.  1.
        -14    1    4    4    0    0 -0.48448954978E+01  0.34644013945E+01  0.26033707691E+02  0.26706348039E+02  0.00000000000E+00 0.  1.
<mgrwt>
<rscale>  0 0.77693825E+02</rscale>
<asrwt>0</asrwt>
<pdfrwt beam="1">  1        2 0.35044541E-01 0.77693825E+02</pdfrwt>
<pdfrwt beam="2">  1       -1 0.10192153E-02 0.77693825E+02</pdfrwt>
<totfact> 0.24935305E+05</totfact>
</mgrwt>
</event>
<event>
 8    1  0.7667702E-014  0.7813135E+02  0.7818608E-02  0.1334440E+00
         -1   -1    0    0    0  501 -0.00000000000E+00  0.00000000000E+00  0.27694826890E+02  0.27694827349E+02  0.50400000000E-02 0.  1.
          2   -1    0    0  501    0  0.00000000000E+00 -0.00000000000E+00 -0.55105132196E+02  0.55105132255E+02  0.25500000000E-02 0. -1.
         24    2    1    2    0    0 -0.71054273576E-14 -0.71054273576E-14 -0.27410305306E+02  0.82799959604E+02  0.78131353972E+02 0.  0.
         66    2    3    3    0    0 -0.20408071645E+02 -0.29582953927E+02  0.24443199160E+01  0.36077905256E+02  0.19999991243E+01 0.  0.
        -13    1    3    3    0    0  0.20408071645E+02  0.29582953927E+02 -0.29854625222E+02  0.46722054348E+02  0.10566000000E+00 0.  1.
         13    1    4    4    0    0 -0.78005721666E+01 -0.11978212328E+02  0.22212092263E+00  0.14296398093E+02  0.10566000000E+00 0. -1.
        -13    1    4    4    0    0 -0.68256817619E+01 -0.10189270003E+02  0.12329254152E+01  0.12326492762E+02  0.10566000000E+00 0.  1.
         14    1    4    4    0    0 -0.57818177162E+01 -0.74154715966E+01  0.98927357821E+00  0.94550144006E+01  0.00000000000E+00 0. -1.
<mgrwt>
<rscale>  0 0.78131354E+02</rscale>
<asrwt>0</asrwt>
<pdfrwt beam="1">  1        2 0.84777127E-02 0.78131354E+02</pdfrwt>
<pdfrwt beam="2">  1       -1 0.42607427E-02 0.78131354E+02</pdfrwt>
<totfact> 0.16283145E+05</totfact>
</mgrwt>
</event>
<event>
 8    1  0.7667702E-014  0.8118311E+02  0.7818608E-02  0.1325727E+00
          2   -1    0    0  501    0  0.00000000000E+00  0.00000000000E+00  0.60458393747E+02  0.60458393800E+02  0.25500000000E-02 0. -1.
         -1   -1    0    0    0  501 -0.00000000000E+00 -0.00000000000E+00 -0.27253029030E+02  0.27253029496E+02  0.50400000000E-02 0.  1.
         24    2    1    2    0    0  0.00000000000E+00  0.88817841970E-15  0.33205364717E+02  0.87711423296E+02  0.81183111117E+02 0.  0.
         66    2    3    3    0    0 -0.21720051561E+02  0.74274936653E+01  0.52749994366E+02  0.57562923929E+02  0.20000009131E+01 0.  0.
        -13    1    3    3    0    0  0.21720051561E+02 -0.74274936653E+01 -0.19544629649E+02  0.30148499368E+02  0.10566000000E+00 0.  1.
         13    1    4    4    0    0 -0.36084516863E+01  0.18773362219E+01  0.10282035808E+02  0.11057881319E+02  0.10566000000E+00 0. -1.
        -13    1    4    4    0    0 -0.48103823932E+01  0.13253187254E+01  0.11688192831E+02  0.12709101628E+02  0.10566000000E+00 0.  1.
         14    1    4    4    0    0 -0.13301217482E+02  0.42248387179E+01  0.30779765726E+02  0.33795940982E+02  0.00000000000E+00 0. -1.
<mgrwt>
<rscale>  0 0.81183111E+02</rscale>
<asrwt>0</asrwt>
<pdfrwt beam="1">  1        2 0.93012914E-02 0.81183111E+02</pdfrwt>
<pdfrwt beam="2">  1       -1 0.41927737E-02 0.81183111E+02</pdfrwt>
<totfact> 0.14982625E+05</totfact>
</mgrwt>
</event>
<event>
 8    1  0.7667702E-014  0.8257749E+02  0.7818608E-02  0.1321892E+00
         -1   -1    0    0    0  501 -0.00000000000E+00  0.00000000000E+00  0.11061873191E+03  0.11061873202E+03  0.50400000000E-02 0.  1.
          2   -1    0    0  501    0  0.00000000000E+00 -0.00000000000E+00 -0.15411135500E+02  0.15411135711E+02  0.25500000000E-02 0. -1.
         24    2    1    2    0    0 -0.17763568394E-14 -0.17763568394E-14  0.95207596406E+02  0.12602986773E+03  0.82577485716E+02 0.  0.
         66    2    3    3    0    0  0.11784641429E+02  0.13539833077E+02 -0.90755242407E+01  0.20213114478E+02  0.20000008264E+01 0.  0.
        -13    1    3    3    0    0 -0.11784641429E+02 -0.13539833077E+02  0.10428312065E+03  0.10581675325E+03  0.10566000000E+00 0.  1.
         13    1    4    4    0    0  0.26496644342E+01  0.36578519492E+01 -0.19656249756E+01  0.49270120840E+01  0.10566000000E+00 0. -1.
        -13    1    4    4    0    0  0.13265403389E+01  0.22093572954E+01 -0.11845125420E+01  0.28381689392E+01  0.10566000000E+00 0.  1.
        -14    1    4    4    0    0  0.78084366560E+01  0.76726238319E+01 -0.59253867231E+01  0.12447933455E+02  0.00000000000E+00 0.  1.
<mgrwt>
<rscale>  0 0.82577486E+02</rscale>
<asrwt>0</asrwt>
<pdfrwt beam="1">  1        2 0.23709440E-02 0.82577486E+02</pdfrwt>
<pdfrwt beam="2">  1       -1 0.17018266E-01 0.82577486E+02</pdfrwt>
<totfact> 0.10710579E+05</totfact>
</mgrwt>
</event>
<event>
 8    1  0.7667702E-014  0.7877294E+02  0.7818608E-02  0.1332570E+00
          2   -1    0    0  501    0  0.00000000000E+00  0.00000000000E+00  0.45595518150E+02  0.45595518221E+02  0.25500000000E-02 0. -1.
         -1   -1    0    0    0  501 -0.00000000000E+00 -0.00000000000E+00 -0.34022949583E+02  0.34022949956E+02  0.50400000000E-02 0.  1.
         24    2    1    2    0    0  0.00000000000E+00  0.00000000000E+00  0.11572568567E+02  0.79618468177E+02  0.78772940352E+02 0.  0.
         66    2    3    3    0    0  0.30491284471E+02 -0.17738442038E+02  0.23439346357E+02  0.42400161744E+02  0.20000009158E+01 0.  0.
        -13    1    3    3    0    0 -0.30491284471E+02  0.17738442038E+02 -0.11866777790E+02  0.37218306433E+02  0.10566000000E+00 0.  1.
         13    1    4    4    0    0  0.67049281164E+01 -0.40810914773E+01  0.45267678709E+01  0.90616863820E+01  0.10566000000E+00 0.  1.
        -13    1    4    4    0    0  0.13863602811E+01 -0.10234744329E+01  0.96524423216E+00  0.19779674434E+01  0.10566000000E+00 0.  1.
         14    1    4    4    0    0  0.22399996073E+02 -0.12633876128E+02  0.17947334254E+02  0.31360507918E+02  0.00000000000E+00 0. -1.
<mgrwt>
<rscale>  0 0.78772940E+02</rscale>
<asrwt>0</asrwt>
<pdfrwt beam="1">  1        2 0.70146951E-02 0.78772940E+02</pdfrwt>
<pdfrwt beam="2">  1       -1 0.52343000E-02 0.78772940E+02</pdfrwt>
<totfact> 0.15285166E+05</totfact>
</mgrwt>
</event>
<event>
 8    1  0.7667702E-014  0.8447068E+02  0.7818608E-02  0.1316823E+00
         -1   -1    0    0    0  501 -0.00000000000E+00  0.00000000000E+00  0.17719306581E+01  0.17719378259E+01  0.50400000000E-02 0.  1.
          2   -1    0    0  501    0  0.00000000000E+00 -0.00000000000E+00 -0.10067101033E+04  0.10067101033E+04  0.25500000000E-02 0. -1.
         24    2    1    2    0    0  0.00000000000E+00  0.00000000000E+00 -0.10049381727E+04  0.10084820412E+04  0.84470683952E+02 0.  0.
         66    2    3    3    0    0  0.13981877416E+02 -0.94299424810E+01 -0.96473874917E+03  0.96488821677E+03  0.19999987413E+01 0.  0.
        -13    1    3    3    0    0 -0.13981877416E+02  0.94299424810E+01 -0.40199423515E+02  0.43593824405E+02  0.10566000000E+00 0.  1.
         13    1    4    4    0    0  0.61073522844E+01 -0.38251034145E+01 -0.38665074908E+03  0.38671791282E+03  0.10566000000E+00 0. -1.
        -13    1    4    4    0    0  0.55612883036E+01 -0.32086724105E+01 -0.38766085251E+03  0.38771403281E+03  0.10566000000E+00 0.  1.
         14    1    4    4    0    0  0.23132368281E+01 -0.23961666560E+01 -0.19042714758E+03  0.19045627113E+03  0.00000000000E+00 0. -1.
<mgrwt>
<rscale>  0 0.84470684E+02</rscale>
<asrwt>0</asrwt>
<pdfrwt beam="1">  1        2 0.15487802E+00 0.84470684E+02</pdfrwt>
<pdfrwt beam="2">  1       -1 0.27260607E-03 0.84470684E+02</pdfrwt>
<totfact> 0.30588691E+05</totfact>
</mgrwt>
</event>
<event>
 8    1  0.7983427E-014  0.8088609E+02  0.7818608E-02  0.1326555E+00
          2   -1    0    0  501    0  0.00000000000E+00  0.00000000000E+00  0.20604733462E+03  0.20604733464E+03  0.25500000000E-02 0. -1.
         -1   -1    0    0    0  501 -0.00000000000E+00 -0.00000000000E+00 -0.79381739195E+01  0.79381755195E+01  0.50400000000E-02 0.  1.
         24    2    1    2    0    0  0.00000000000E+00  0.00000000000E+00  0.19810916070E+03  0.21398551016E+03  0.80886086585E+02 0.  0.
         66    2    3    3    0    0 -0.11811548364E+02  0.16927015471E+02  0.19104804503E+03  0.19217021630E+03  0.19999988445E+01 0.  0.
        -13    1    3    3    0    0  0.11811548364E+02 -0.16927015471E+02  0.70611156717E+01  0.21815293857E+02  0.10566000000E+00 0.  1.
         13    1    4    4    0    0 -0.82186371500E+01  0.12534199534E+02  0.13776421125E+03  0.13857720311E+03  0.10566000000E+00 0. -1.
        -13    1    4    4    0    0 -0.32550178227E+01  0.39921730752E+01  0.45309595198E+02  0.45601569797E+02  0.10566000000E+00 0.  1.
        -14    1    4    4    0    0 -0.33789339127E+00  0.40064286135E+00  0.79742385801E+01  0.79914433977E+01  0.00000000000E+00 0.  1.
<mgrwt>
<rscale>  0 0.80886087E+02</rscale>
<asrwt>0</asrwt>
<pdfrwt beam="1">  1        2 0.31699589E-01 0.80886087E+02</pdfrwt>
<pdfrwt beam="2">  1       -1 0.12212577E-02 0.80886087E+02</pdfrwt>
<totfact> 0.21650034E+05</totfact>
</mgrwt>
</event>
<event>
 8    1  0.7667702E-014  0.7973070E+02  0.7818608E-02  0.1329817E+00
         -1   -1    0    0    0  501 -0.00000000000E+00  0.00000000000E+00  0.39880397538E+03  0.39880397541E+03  0.50400000000E-02 0.  1.
          2   -1    0    0  501    0  0.00000000000E+00 -0.00000000000E+00 -0.39850299088E+01  0.39850307247E+01  0.25500000000E-02 0. -1.
         24    2    1    2    0    0  0.00000000000E+00  0.00000000000E+00  0.39481894547E+03  0.40278900614E+03  0.79730695228E+02 0.  0.
         66    2    3    3    0    0  0.27621086654E+02 -0.28083800265E+02  0.16738391585E+03  0.17196801895E+03  0.19999973412E+01 0.  0.
        -13    1    3    3    0    0 -0.27621086654E+02  0.28083800265E+02  0.22743502962E+03  0.23082098719E+03  0.10566000000E+00 0.  1.
         13    1    4    4    0    0  0.12845881544E+02 -0.13940135155E+02  0.81875319756E+02  0.84041199360E+02  0.10566000000E+00 0. -1.
        -13    1    4    4    0    0  0.70949697622E+01 -0.66176342025E+01  0.38454117860E+02  0.39659324537E+02  0.10566000000E+00 0. -1.
        -14    1    4    4    0    0  0.76802353480E+01 -0.75260309071E+01  0.47054478238E+02  0.48267495051E+02  0.00000000000E+00 0.  1.
<mgrwt>
<rscale>  0 0.79730695E+02</rscale>
<asrwt>0</asrwt>
<pdfrwt beam="1">  1        2 0.61308127E-03 0.79730695E+02</pdfrwt>
<pdfrwt beam="2">  1       -1 0.61354490E-01 0.79730695E+02</pdfrwt>
<totfact> 0.76576494E+04</totfact>
</mgrwt>
</event>
<event>
 8    1  0.7667702E-014  0.8131843E+02  0.7818608E-02  0.1325351E+00
          2   -1    0    0  501    0  0.00000000000E+00  0.00000000000E+00  0.47016609190E+03  0.47016609191E+03  0.25500000000E-02 0. -1.
         -1   -1    0    0    0  501 -0.00000000000E+00 -0.00000000000E+00 -0.35161425557E+01  0.35161461679E+01  0.50400000000E-02 0.  1.
         24    2    1    2    0    0  0.00000000000E+00  0.35527136788E-14  0.46664994935E+03  0.47368223808E+03  0.81318432379E+02 0.  0.
         66    2    3    3    0    0  0.82663506036E+01  0.28384631282E+02  0.39585213598E+03  0.39695961178E+03  0.19999935713E+01 0.  0.
        -13    1    3    3    0    0 -0.82663506036E+01 -0.28384631282E+02  0.70797813362E+02  0.76722626299E+02  0.10566000000E+00 0.  1.
         13    1    4    4    0    0  0.84662332076E+00  0.32918533108E+01  0.48878912992E+02  0.48997064897E+02  0.10566000000E+00 0. -1.
        -13    1    4    4    0    0  0.19557629018E+01  0.43802918074E+01  0.64811392496E+02  0.64988766154E+02  0.10566000000E+00 0.  1.
        -14    1    4    4    0    0  0.54639643810E+01  0.20712486164E+02  0.28216183050E+03  0.28297378073E+03  0.00000000000E+00 0.  1.
<mgrwt>
<rscale>  0 0.81318432E+02</rscale>
<asrwt>0</asrwt>
<pdfrwt beam="1">  1        2 0.72333211E-01 0.81318432E+02</pdfrwt>
<pdfrwt beam="2">  1       -1 0.54094554E-03 0.81318432E+02</pdfrwt>
<totfact> 0.28603695E+05</totfact>
</mgrwt>
</event>
<event>
 8    1  0.7667702E-014  0.7364425E+02  0.7818608E-02  0.1348121E+00
         -1   -1    0    0    0  501 -0.00000000000E+00  0.00000000000E+00  0.26296995125E+01  0.26297043423E+01  0.50400000000E-02 0.  1.
          2   -1    0    0  501    0  0.00000000000E+00 -0.00000000000E+00 -0.51559793890E+03  0.51559793890E+03  0.25500000000E-02 0. -1.
         24    2    1    2    0    0  0.00000000000E+00  0.00000000000E+00 -0.51296823938E+03  0.51822764325E+03  0.73644250330E+02 0.  0.
         66    2    3    3    0    0  0.17858409221E+02 -0.28450091415E+02 -0.36235142420E+03  0.36391054549E+03  0.20000031658E+01 0.  0.
        -13    1    3    3    0    0 -0.17858409221E+02  0.28450091415E+02 -0.15061681518E+03  0.15431709776E+03  0.10566000000E+00 0.  1.
         13    1    4    4    0    0  0.11269250216E+01 -0.14530430170E+01 -0.21364106572E+02  0.21443355793E+02  0.10566000000E+00 0. -1.
        -13    1    4    4    0    0  0.39026038790E+00 -0.31276059767E+00 -0.58978294154E+01  0.59199390377E+01  0.10566000000E+00 0. -1.
         14    1    4    4    0    0  0.16341223812E+02 -0.26684287800E+02 -0.33508948822E+03  0.33654725066E+03  0.00000000000E+00 0. -1.
<mgrwt>
<rscale>  0 0.73644250E+02</rscale>
<asrwt>0</asrwt>
<pdfrwt beam="1">  1        2 0.79322680E-01 0.73644250E+02</pdfrwt>
<pdfrwt beam="2">  1       -1 0.40456994E-03 0.73644250E+02</pdfrwt>
<totfact> 0.38113757E+05</totfact>
</mgrwt>
</event>
<event>
 8    1  0.7667702E-014  0.7980972E+02  0.7818608E-02  0.1329592E+00
         -1   -1    0    0    0  501 -0.00000000000E+00  0.00000000000E+00  0.34974725397E+02  0.34974725761E+02  0.50400000000E-02 0.  1.
          2   -1    0    0  501    0  0.00000000000E+00 -0.00000000000E+00 -0.45529958635E+02  0.45529958706E+02  0.25500000000E-02 0. -1.
         24    2    1    2    0    0  0.00000000000E+00  0.00000000000E+00 -0.10555233237E+02  0.80504684467E+02  0.79809719160E+02 0.  0.
         66    2    3    3    0    0  0.16020030843E+02  0.34511784325E+02  0.67683120205E+01  0.38697734926E+02  0.19999988196E+01 0.  0.
        -13    1    3    3    0    0 -0.16020030843E+02 -0.34511784325E+02 -0.17323545258E+02  0.41806949540E+02  0.10566000000E+00 0.  1.
         13    1    4    4    0    0  0.96525838215E+01  0.19304975059E+02  0.35508831778E+01  0.21874057051E+02  0.10566000000E+00 0. -1.
        -13    1    4    4    0    0  0.34276470576E+01  0.92474828236E+01  0.17129917469E+01  0.10010504867E+02  0.10566000000E+00 0.  1.
         14    1    4    4    0    0  0.29397999643E+01  0.59593264422E+01  0.15044370958E+01  0.68131730090E+01  0.00000000000E+00 0. -1.
<mgrwt>
<rscale>  0 0.79809719E+02</rscale>
<asrwt>0</asrwt>
<pdfrwt beam="1">  1        2 0.70046090E-02 0.79809719E+02</pdfrwt>
<pdfrwt beam="2">  1       -1 0.53807270E-02 0.79809719E+02</pdfrwt>
<totfact> 0.14741659E+05</totfact>
</mgrwt>
</event>
<event>
 8    1  0.7667702E-014  0.7980650E+02  0.7818608E-02  0.1329601E+00
         -1   -1    0    0    0  501 -0.00000000000E+00  0.00000000000E+00  0.17293131110E+02  0.17293131844E+02  0.50400000000E-02 0.  1.
          2   -1    0    0  501    0  0.00000000000E+00 -0.00000000000E+00 -0.92075249832E+02  0.92075249867E+02  0.25500000000E-02 0. -1.
         24    2    1    2    0    0 -0.17763568394E-14  0.00000000000E+00 -0.74782118722E+02  0.10936838171E+03  0.79806501224E+02 0.  0.
         66    2    3    3    0    0  0.15525889777E+02 -0.32495811783E+02 -0.60881621011E+02  0.70764417700E+02  0.19999996824E+01 0.  0.
        -13    1    3    3    0    0 -0.15525889777E+02  0.32495811783E+02 -0.13900497711E+02  0.38603964012E+02  0.10566000000E+00 0.  1.
         13    1    4    4    0    0  0.31995224790E+01 -0.63947220468E+01 -0.11676205266E+02  0.13692127212E+02  0.10566000000E+00 0. -1.
        -13    1    4    4    0    0  0.10631077786E+02 -0.21185045262E+02 -0.39716484257E+02  0.46251878269E+02  0.10566000000E+00 0.  1.
        -14    1    4    4    0    0  0.16952895117E+01 -0.49160444740E+01 -0.94889314882E+01  0.10820412219E+02  0.00000000000E+00 0.  1.
<mgrwt>
<rscale>  0 0.79806501E+02</rscale>
<asrwt>0</asrwt>
<pdfrwt beam="1">  1        2 0.14165423E-01 0.79806501E+02</pdfrwt>
<pdfrwt beam="2">  1       -1 0.26604818E-02 0.79806501E+02</pdfrwt>
<totfact> 0.17440082E+05</totfact>
</mgrwt>
</event>
<event>
 8    1  0.7667702E-014  0.7767121E+02  0.7818608E-02  0.1335793E+00
         -1   -1    0    0    0  501 -0.00000000000E+00  0.00000000000E+00  0.93903312595E+01  0.93903326121E+01  0.50400000000E-02 0.  1.
          2   -1    0    0  501    0  0.00000000000E+00 -0.00000000000E+00 -0.16061246687E+03  0.16061246689E+03  0.25500000000E-02 0. -1.
         24    2    1    2    0    0  0.00000000000E+00  0.00000000000E+00 -0.15122213561E+03  0.17000279950E+03  0.77671214360E+02 0.  0.
         66    2    3    3    0    0 -0.33802649110E+02 -0.19002989790E+02 -0.79098682883E+02  0.88115460401E+02  0.20000049960E+01 0.  0.
        -13    1    3    3    0    0  0.33802649110E+02  0.19002989790E+02 -0.72123452729E+02  0.81887339103E+02  0.10566000000E+00 0.  1.
         13    1    4    4    0    0 -0.12123139587E+02 -0.72305207323E+01 -0.28001336049E+02  0.31358203522E+02  0.10566000000E+00 0. -1.
        -13    1    4    4    0    0 -0.90885207825E+01 -0.50192561522E+01 -0.23041189586E+02  0.25272548821E+02  0.10566000000E+00 0.  1.
         14    1    4    4    0    0 -0.12590988740E+02 -0.67532129056E+01 -0.28056157248E+02  0.31484708058E+02  0.00000000000E+00 0. -1.
<mgrwt>
<rscale>  0 0.77671214E+02</rscale>
<asrwt>0</asrwt>
<pdfrwt beam="1">  1        2 0.24709608E-01 0.77671214E+02</pdfrwt>
<pdfrwt beam="2">  1       -1 0.14446666E-02 0.77671214E+02</pdfrwt>
<totfact> 0.22145449E+05</totfact>
</mgrwt>
</event>
<event>
 8    1  0.7667702E-014  0.8041431E+02  0.7818608E-02  0.1327880E+00
          2   -1    0    0  501    0  0.00000000000E+00  0.00000000000E+00  0.45430331433E+02  0.45430331504E+02  0.25500000000E-02 0. -1.
         -1   -1    0    0    0  501 -0.00000000000E+00 -0.00000000000E+00 -0.35584491308E+02  0.35584491664E+02  0.50400000000E-02 0.  1.
         24    2    1    2    0    0  0.00000000000E+00 -0.17763568394E-14  0.98458401252E+01  0.81014823169E+02  0.80414308461E+02 0.  0.
         66    2    3    3    0    0  0.20665248144E+02 -0.14475005346E+02  0.36433003308E+02  0.44361492205E+02  0.19999999831E+01 0.  0.
        -13    1    3    3    0    0 -0.20665248144E+02  0.14475005346E+02 -0.26587163183E+02  0.36653330964E+02  0.10566000000E+00 0.  1.
         13    1    4    4    0    0  0.33637402212E+01 -0.18686196243E+01  0.55525991378E+01  0.67564050202E+01  0.10566000000E+00 0. -1.
        -13    1    4    4    0    0  0.56067418080E+01 -0.32351165481E+01  0.93203471197E+01  0.11348196652E+02  0.10566000000E+00 0.  1.
        -14    1    4    4    0    0  0.11694766115E+02 -0.93712691737E+01  0.21560057051E+02  0.26256890533E+02  0.00000000000E+00 0.  1.
<mgrwt>
<rscale>  0 0.80414308E+02</rscale>
<asrwt>0</asrwt>
<pdfrwt beam="1">  1        2 0.69892818E-02 0.80414308E+02</pdfrwt>
<pdfrwt beam="2">  1       -1 0.54745371E-02 0.80414308E+02</pdfrwt>
<totfact> 0.14432158E+05</totfact>
</mgrwt>
</event>
<event>
 8    1  0.7667702E-014  0.7889806E+02  0.7818608E-02  0.1332208E+00
         -1   -1    0    0    0  501 -0.00000000000E+00  0.00000000000E+00  0.79763357750E+01  0.79763373673E+01  0.50400000000E-02 0.  1.
          2   -1    0    0  501    0  0.00000000000E+00 -0.00000000000E+00 -0.19510537226E+03  0.19510537227E+03  0.25500000000E-02 0. -1.
         24    2    1    2    0    0  0.00000000000E+00  0.00000000000E+00 -0.18712903648E+03  0.20308170964E+03  0.78898063956E+02 0.  0.
         66    2    3    3    0    0 -0.16598284318E+02 -0.26373451510E+02 -0.15578261577E+03  0.15888135622E+03  0.19999979978E+01 0.  0.
        -13    1    3    3    0    0  0.16598284318E+02  0.26373451510E+02 -0.31346420710E+02  0.44200353417E+02  0.10566000000E+00 0.  1.
         13    1    4    4    0    0 -0.27769731858E+01 -0.51281110621E+01 -0.30370546064E+02  0.30925561197E+02  0.10566000000E+00 0. -1.
        -13    1    4    4    0    0 -0.65105774980E+01 -0.95163261905E+01 -0.60416267347E+02  0.61506785054E+02  0.10566000000E+00 0.  1.
        -14    1    4    4    0    0 -0.73107336339E+01 -0.11729014257E+02 -0.64995802360E+02  0.66449009971E+02  0.00000000000E+00 0.  1.
<mgrwt>
<rscale>  0 0.78898064E+02</rscale>
<asrwt>0</asrwt>
<pdfrwt beam="1">  1        2 0.30016208E-01 0.78898064E+02</pdfrwt>
<pdfrwt beam="2">  1       -1 0.12271289E-02 0.78898064E+02</pdfrwt>
<totfact> 0.22685015E+05</totfact>
</mgrwt>
</event>
<event>
 8    1  0.9663360E-014  0.8227933E+02  0.7818608E-02  0.1322705E+00
         -1   -1    0    0    0  501 -0.00000000000E+00  0.00000000000E+00  0.30765588442E+01  0.30765629725E+01  0.50400000000E-02 0.  1.
          2   -1    0    0  501    0  0.00000000000E+00 -0.00000000000E+00 -0.55011819881E+03  0.55011819881E+03  0.25500000000E-02 0. -1.
         24    2    1    2    0    0  0.00000000000E+00  0.35527136788E-14 -0.54704163996E+03  0.55319476179E+03  0.82279332847E+02 0.  0.
         66    2    3    3    0    0  0.98364649192E+01  0.23259632971E+02 -0.49182420036E+03  0.49247620310E+03  0.19999989301E+01 0.  0.
        -13    1    3    3    0    0 -0.98364649192E+01 -0.23259632971E+02 -0.55217439603E+02  0.60718558682E+02  0.10566000000E+00 0.  1.
         13    1    4    4    0    0  0.70960606601E+01  0.16962416073E+02 -0.35482134318E+03  0.35529744493E+03  0.10566000000E+00 0. -1.
        -13    1    4    4    0    0  0.18647402997E+01  0.49508445073E+01 -0.11137104286E+03  0.11149667470E+03  0.10566000000E+00 0.  1.
        -14    1    4    4    0    0  0.87566395936E+00  0.13463723910E+01 -0.25631814328E+02  0.25682083477E+02  0.00000000000E+00 0.  1.
<mgrwt>
<rscale>  0 0.82279333E+02</rscale>
<asrwt>0</asrwt>
<pdfrwt beam="1">  1        2 0.84633491E-01 0.82279333E+02</pdfrwt>
<pdfrwt beam="2">  1       -1 0.47331750E-03 0.82279333E+02</pdfrwt>
<totfact> 0.29149548E+05</totfact>
</mgrwt>
</event>
<event>
 8    1  0.7667702E-014  0.8354395E+02  0.7818608E-02  0.1319285E+00
          2   -1    0    0  501    0  0.00000000000E+00  0.00000000000E+00  0.14355528394E+04  0.14355528394E+04  0.25500000000E-02 0. -1.
         -1   -1    0    0    0  501 -0.00000000000E+00 -0.00000000000E+00 -0.12154833174E+01  0.12154937666E+01  0.50400000000E-02 0.  1.
         24    2    1    2    0    0  0.00000000000E+00  0.00000000000E+00  0.14343373561E+04  0.14367683332E+04  0.83543953358E+02 0.  0.
         66    2    3    3    0    0  0.19221172008E+02 -0.14219514257E+02  0.13061451180E+04  0.13063654608E+04  0.20000003163E+01 0.  0.
        -13    1    3    3    0    0 -0.19221172008E+02  0.14219514257E+02  0.12819223811E+03  0.13040287234E+03  0.10566000000E+00 0.  1.
         13    1    4    4    0    0  0.13570058199E+02 -0.99800562830E+01  0.91730146355E+03  0.91745612113E+03  0.10566000000E+00 0. -1.
        -13    1    4    4    0    0  0.43544401019E+01 -0.28797064752E+01  0.26506779351E+03  0.26511921880E+03  0.10566000000E+00 0.  1.
         14    1    4    4    0    0  0.12966737073E+01 -0.13597514987E+01  0.12377586090E+03  0.12379012089E+03  0.00000000000E+00 0. -1.
<mgrwt>
<rscale>  0 0.83543953E+02</rscale>
<asrwt>0</asrwt>
<pdfrwt beam="1">  1        2 0.22085431E+00 0.83543953E+02</pdfrwt>
<pdfrwt beam="2">  1       -1 0.18699821E-03 0.83543953E+02</pdfrwt>
<totfact> 0.30156036E+05</totfact>
</mgrwt>
</event>
<event>
 8    1  0.7667702E-014  0.6983987E+02  0.7818608E-02  0.1360638E+00
         -1   -1    0    0    0  501 -0.00000000000E+00  0.00000000000E+00  0.10120332853E+02  0.10120334108E+02  0.50400000000E-02 0.  1.
          2   -1    0    0  501    0  0.00000000000E+00 -0.00000000000E+00 -0.12049029163E+03  0.12049029166E+03  0.25500000000E-02 0. -1.
         24    2    1    2    0    0  0.00000000000E+00  0.00000000000E+00 -0.11036995878E+03  0.13061062577E+03  0.69839872298E+02 0.  0.
         66    2    3    3    0    0 -0.26725541128E+02 -0.59880962605E+01 -0.95656609194E+02  0.99520343276E+02  0.19999994575E+01 0.  0.
        -13    1    3    3    0    0  0.26725541128E+02  0.59880962605E+01 -0.14713349586E+02  0.31090282493E+02  0.10566000000E+00 0.  1.
         13    1    4    4    0    0 -0.23705404843E+02 -0.58759364254E+01 -0.84875427409E+02  0.88319432683E+02  0.10566000000E+00 0. -1.
        -13    1    4    4    0    0 -0.15720090218E+01 -0.98692370109E-01 -0.60901814797E+01  0.62914566707E+01  0.10566000000E+00 0.  1.
         14    1    4    4    0    0 -0.14481272639E+01 -0.13467465000E-01 -0.46910003055E+01  0.49094539219E+01  0.00000000000E+00 0. -1.
<mgrwt>
<rscale>  0 0.69839872E+02</rscale>
<asrwt>0</asrwt>
<pdfrwt beam="1">  1        2 0.18536967E-01 0.69839872E+02</pdfrwt>
<pdfrwt beam="2">  1       -1 0.15569745E-02 0.69839872E+02</pdfrwt>
<totfact> 0.26789453E+05</totfact>
</mgrwt>
</event>
<event>
 8    1  0.7667702E-014  0.8084504E+02  0.7818608E-02  0.1326670E+00
          2   -1    0    0  501    0  0.00000000000E+00  0.00000000000E+00  0.38959822219E+02  0.38959822302E+02  0.25500000000E-02 0. -1.
         -1   -1    0    0    0  501 -0.00000000000E+00 -0.00000000000E+00 -0.41940131946E+02  0.41940132249E+02  0.50400000000E-02 0.  1.
         24    2    1    2    0    0  0.00000000000E+00  0.17763568394E-14 -0.29803097270E+01  0.80899954551E+02  0.80845039429E+02 0.  0.
         66    2    3    3    0    0 -0.92174536068E+01  0.12422768854E+02  0.35853026820E+02  0.39098927908E+02  0.19999985929E+01 0.  0.
        -13    1    3    3    0    0  0.92174536068E+01 -0.12422768854E+02 -0.38833336547E+02  0.41801026643E+02  0.10566000000E+00 0.  1.
         13    1    4    4    0    0 -0.32615336610E+01  0.35339657652E+01  0.10716207597E+02  0.11746266860E+02  0.10566000000E+00 0. -1.
        -13    1    4    4    0    0 -0.22818658954E+01  0.35526997598E+01  0.11609588160E+02  0.12354039373E+02  0.10566000000E+00 0.  1.
        -14    1    4    4    0    0 -0.36740540504E+01  0.53361033290E+01  0.13527231063E+02  0.14998621675E+02  0.00000000000E+00 0.  1.
<mgrwt>
<rscale>  0 0.80845039E+02</rscale>
<asrwt>0</asrwt>
<pdfrwt beam="1">  1        2 0.59938188E-02 0.80845039E+02</pdfrwt>
<pdfrwt beam="2">  1       -1 0.64523280E-02 0.80845039E+02</pdfrwt>
<totfact> 0.13771686E+05</totfact>
</mgrwt>
</event>
<event>
 8    1  0.7667702E-014  0.7910365E+02  0.7818608E-02  0.1331615E+00
         -1   -1    0    0    0  501 -0.00000000000E+00  0.00000000000E+00  0.58970426109E+01  0.58970447646E+01  0.50400000000E-02 0.  1.
          2   -1    0    0  501    0  0.00000000000E+00 -0.00000000000E+00 -0.26527645715E+03  0.26527645716E+03  0.25500000000E-02 0. -1.
         24    2    1    2    0    0  0.00000000000E+00  0.00000000000E+00 -0.25937941454E+03  0.27117350192E+03  0.79103650109E+02 0.  0.
         66    2    3    3    0    0 -0.11549727763E+02  0.36058657064E+02 -0.90879328839E+02  0.98471698214E+02  0.19999945539E+01 0.  0.
        -13    1    3    3    0    0  0.11549727763E+02 -0.36058657064E+02 -0.16850008570E+03  0.17270180371E+03  0.10566000000E+00 0.  1.
         13    1    4    4    0    0 -0.71466923369E+01  0.20858251400E+02 -0.53198324438E+02  0.57586584808E+02  0.10566000000E+00 0. -1.
        -13    1    4    4    0    0 -0.41216108498E+01  0.13850132959E+02 -0.35108036109E+02  0.37965763820E+02  0.10566000000E+00 0.  1.
        -14    1    4    4    0    0 -0.28142457629E+00  0.13502727057E+01 -0.25729682919E+01  0.29193495856E+01  0.00000000000E+00 0.  1.
<mgrwt>
<rscale>  0 0.79103650E+02</rscale>
<asrwt>0</asrwt>
<pdfrwt beam="1">  1        2 0.40811753E-01 0.79103650E+02</pdfrwt>
<pdfrwt beam="2">  1       -1 0.90723770E-03 0.79103650E+02</pdfrwt>
<totfact> 0.25115622E+05</totfact>
</mgrwt>
</event>
<event>
 8    1  0.7667702E-014  0.8065708E+02  0.7818608E-02  0.1327197E+00
          2   -1    0    0  501    0  0.00000000000E+00  0.00000000000E+00  0.10685679935E+04  0.10685679935E+04  0.25500000000E-02 0. -1.
         -1   -1    0    0    0  501 -0.00000000000E+00 -0.00000000000E+00 -0.15220245419E+01  0.15220328865E+01  0.50400000000E-02 0.  1.
         24    2    1    2    0    0  0.00000000000E+00  0.00000000000E+00  0.10670459690E+04  0.10700900264E+04  0.80657080960E+02 0.  0.
         66    2    3    3    0    0  0.19788998709E+02  0.22307474058E+02  0.89357315410E+03  0.89407282119E+03  0.19999969581E+01 0.  0.
        -13    1    3    3    0    0 -0.19788998709E+02 -0.22307474058E+02  0.17347281489E+03  0.17601720524E+03  0.10566000000E+00 0.  1.
         13    1    4    4    0    0  0.81890094900E+01  0.84357579774E+01  0.34345164013E+03  0.34365282214E+03  0.10566000000E+00 0. -1.
        -13    1    4    4    0    0  0.78902959714E+01  0.92355091009E+01  0.38609619288E+03  0.38628724121E+03  0.10566000000E+00 0.  1.
         14    1    4    4    0    0  0.37096932474E+01  0.46362069801E+01  0.16402532109E+03  0.16413275784E+03  0.00000000000E+00 0. -1.
<mgrwt>
<rscale>  0 0.80657081E+02</rscale>
<asrwt>0</asrwt>
<pdfrwt beam="1">  1        2 0.16439521E+00 0.80657081E+02</pdfrwt>
<pdfrwt beam="2">  1       -1 0.23415807E-03 0.80657081E+02</pdfrwt>
<totfact> 0.34530555E+05</totfact>
</mgrwt>
</event>
<event>
 8    1  0.7667702E-014  0.8133425E+02  0.7818608E-02  0.1325307E+00
          2   -1    0    0  501    0  0.00000000000E+00  0.00000000000E+00  0.22349865229E+02  0.22349865374E+02  0.25500000000E-02 0. -1.
         -1   -1    0    0    0  501 -0.00000000000E+00 -0.00000000000E+00 -0.73996652876E+02  0.73996653048E+02  0.50400000000E-02 0.  1.
         24    2    1    2    0    0 -0.71054273576E-14  0.88817841970E-15 -0.51646787648E+02  0.96346518422E+02  0.81334254394E+02 0.  0.
         66    2    3    3    0    0 -0.39745311293E+02  0.78413020240E+01 -0.29701925810E+02  0.50273056296E+02  0.20000013351E+01 0.  0.
        -13    1    3    3    0    0  0.39745311293E+02 -0.78413020240E+01 -0.21944861838E+02  0.46073462126E+02  0.10566000000E+00 0.  1.
         13    1    4    4    0    0 -0.15233944687E+02  0.34175555415E+01 -0.11607659906E+02  0.19455119870E+02  0.10566000000E+00 0. -1.
        -13    1    4    4    0    0 -0.50366950529E+01  0.10170078519E+01 -0.30697900055E+01  0.59864327224E+01  0.10566000000E+00 0.  1.
         14    1    4    4    0    0 -0.19474671552E+02  0.34067386307E+01 -0.15024475898E+02  0.24831503704E+02  0.00000000000E+00 0. -1.
<mgrwt>
<rscale>  0 0.81334254E+02</rscale>
<asrwt>0</asrwt>
<pdfrwt beam="1">  1        2 0.34384408E-02 0.81334254E+02</pdfrwt>
<pdfrwt beam="2">  1       -1 0.11384100E-01 0.81334254E+02</pdfrwt>
<totfact> 0.12109707E+05</totfact>
</mgrwt>
</event>
<event>
 8    1  0.7667702E-014  0.8105792E+02  0.7818608E-02  0.1326076E+00
          2   -1    0    0  501    0  0.00000000000E+00  0.00000000000E+00  0.12153990622E+02  0.12153990890E+02  0.25500000000E-02 0. -1.
         -1   -1    0    0    0  501 -0.00000000000E+00 -0.00000000000E+00 -0.13514875201E+03  0.13514875210E+03  0.50400000000E-02 0.  1.
         24    2    1    2    0    0 -0.35527136788E-14  0.35527136788E-14 -0.12299476138E+03  0.14730274299E+03  0.81057922281E+02 0.  0.
         66    2    3    3    0    0  0.23666924149E+02 -0.30898966983E+02 -0.81910833451E+02  0.90709724360E+02  0.19999993644E+01 0.  0.
        -13    1    3    3    0    0 -0.23666924149E+02  0.30898966983E+02 -0.41083927931E+02  0.56593018629E+02  0.10566000000E+00 0.  1.
         13    1    4    4    0    0  0.19503241570E+02 -0.26178413539E+02 -0.67521375016E+02  0.74998886760E+02  0.10566000000E+00 0. -1.
        -13    1    4    4    0    0  0.10501322561E+01 -0.10474510658E+01 -0.36528493325E+01  0.39439071708E+01  0.10566000000E+00 0.  1.
         14    1    4    4    0    0  0.31135503226E+01 -0.36731023781E+01 -0.10736609103E+02  0.11766930429E+02  0.00000000000E+00 0. -1.
<mgrwt>
<rscale>  0 0.81057922E+02</rscale>
<asrwt>0</asrwt>
<pdfrwt beam="1">  1        2 0.18698448E-02 0.81057922E+02</pdfrwt>
<pdfrwt beam="2">  1       -1 0.20792115E-01 0.81057922E+02</pdfrwt>
<totfact> 0.10709698E+05</totfact>
</mgrwt>
</event>
<event>
 8    1  0.7667702E-014  0.8054456E+02  0.7818608E-02  0.1327513E+00
         -1   -1    0    0    0  501 -0.00000000000E+00  0.00000000000E+00  0.33241819825E+02  0.33241820207E+02  0.50400000000E-02 0.  1.
          2   -1    0    0  501    0  0.00000000000E+00 -0.00000000000E+00 -0.48789642630E+02  0.48789642696E+02  0.25500000000E-02 0. -1.
         24    2    1    2    0    0 -0.88817841970E-15 -0.17763568394E-14 -0.15547822805E+02  0.82031462903E+02  0.80544559792E+02 0.  0.
         66    2    3    3    0    0 -0.47153311440E+01 -0.12412119043E+02 -0.46474251596E+02  0.48375108248E+02  0.19999974207E+01 0.  0.
        -13    1    3    3    0    0  0.47153311440E+01  0.12412119043E+02  0.30926428791E+02  0.33656354656E+02  0.10566000000E+00 0.  1.
         13    1    4    4    0    0 -0.26698244204E+00 -0.82774241676E+00 -0.23598496959E+01  0.25172389151E+01  0.10566000000E+00 0. -1.
        -13    1    4    4    0    0 -0.21500159288E+01 -0.57534640635E+01 -0.18752998291E+02  0.19733500099E+02  0.10566000000E+00 0.  1.
         14    1    4    4    0    0 -0.22983327732E+01 -0.58309125624E+01 -0.25361403608E+02  0.26124369233E+02  0.00000000000E+00 0. -1.
<mgrwt>
<rscale>  0 0.80544560E+02</rscale>
<asrwt>0</asrwt>
<pdfrwt beam="1">  1        2 0.75060988E-02 0.80544560E+02</pdfrwt>
<pdfrwt beam="2">  1       -1 0.51141262E-02 0.80544560E+02</pdfrwt>
<totfact> 0.14589739E+05</totfact>
</mgrwt>
</event>
<event>
 8    1  0.7667702E-014  0.7607131E+02  0.7818608E-02  0.1340585E+00
          2   -1    0    0  501    0  0.00000000000E+00  0.00000000000E+00  0.10189980636E+03  0.10189980639E+03  0.25500000000E-02 0. -1.
         -1   -1    0    0    0  501 -0.00000000000E+00 -0.00000000000E+00 -0.14197387490E+02  0.14197388384E+02  0.50400000000E-02 0.  1.
         24    2    1    2    0    0  0.17763568394E-14  0.00000000000E+00  0.87702418873E+02  0.11609719478E+03  0.76071311013E+02 0.  0.
         66    2    3    3    0    0  0.91261723523E+01 -0.36153678982E+02  0.32632191452E+02  0.49590679023E+02  0.20000003176E+01 0.  0.
        -13    1    3    3    0    0 -0.91261723523E+01  0.36153678982E+02  0.55070227421E+02  0.66506515756E+02  0.10566000000E+00 0.  1.
         13    1    4    4    0    0  0.41961088497E+01 -0.18627992807E+02  0.17203655368E+02  0.25701874787E+02  0.10566000000E+00 0. -1.
        -13    1    4    4    0    0  0.16651607452E+01 -0.54378310436E+01  0.42020872230E+01  0.70718786636E+01  0.10566000000E+00 0.  1.
        -14    1    4    4    0    0  0.32649027573E+01 -0.12087855132E+02  0.11226448861E+02  0.16816925573E+02  0.00000000000E+00 0.  1.
<mgrwt>
<rscale>  0 0.76071311E+02</rscale>
<asrwt>0</asrwt>
<pdfrwt beam="1">  1        2 0.15676894E-01 0.76071311E+02</pdfrwt>
<pdfrwt beam="2">  1       -1 0.21842135E-02 0.76071311E+02</pdfrwt>
<totfact> 0.20383854E+05</totfact>
</mgrwt>
</event>
<event>
 8    1  0.7667702E-014  0.8024590E+02  0.7818608E-02  0.1328355E+00
          2   -1    0    0  501    0  0.00000000000E+00  0.00000000000E+00  0.96345369153E+02  0.96345369187E+02  0.25500000000E-02 0. -1.
         -1   -1    0    0    0  501 -0.00000000000E+00 -0.00000000000E+00 -0.16709170038E+02  0.16709170798E+02  0.50400000000E-02 0.  1.
         24    2    1    2    0    0  0.00000000000E+00 -0.88817841970E-15  0.79636199115E+02  0.11305453998E+03  0.80245902087E+02 0.  0.
         66    2    3    3    0    0  0.85216948983E+01 -0.74539878252E+01  0.94036220436E+02  0.94736434282E+02  0.20000020231E+01 0.  0.
        -13    1    3    3    0    0 -0.85216948983E+01  0.74539878252E+01 -0.14400021321E+02  0.18318105703E+02  0.10566000000E+00 0.  1.
         13    1    4    4    0    0  0.84521877348E+01 -0.71080469840E+01  0.89538883227E+02  0.90217440570E+02  0.10566000000E+00 0. -1.
        -13    1    4    4    0    0  0.19233120333E-01 -0.15404402448E+00  0.32996649317E+01  0.33050041106E+01  0.10566000000E+00 0.  1.
         14    1    4    4    0    0  0.50274043238E-01 -0.19189681673E+00  0.11976722780E+01  0.12139896018E+01  0.00000000000E+00 0. -1.
<mgrwt>
<rscale>  0 0.80245902E+02</rscale>
<asrwt>0</asrwt>
<pdfrwt beam="1">  1        2 0.14822364E-01 0.80245902E+02</pdfrwt>
<pdfrwt beam="2">  1       -1 0.25706417E-02 0.80245902E+02</pdfrwt>
<totfact> 0.17399557E+05</totfact>
</mgrwt>
</event>
<event>
 8    1  0.7667702E-014  0.7897351E+02  0.7818608E-02  0.1331990E+00
          2   -1    0    0  501    0  0.00000000000E+00  0.00000000000E+00  0.68602769531E+02  0.68602769579E+02  0.25500000000E-02 0. -1.
         -1   -1    0    0    0  501 -0.00000000000E+00 -0.00000000000E+00 -0.22728002561E+02  0.22728003120E+02  0.50400000000E-02 0.  1.
         24    2    1    2    0    0 -0.17763568394E-14 -0.71054273576E-14  0.45874766970E+02  0.91330772699E+02  0.78973513263E+02 0.  0.
         66    2    3    3    0    0  0.99683860895E+01  0.37911719018E+02  0.28192275062E+02  0.48326716562E+02  0.20000000743E+01 0.  0.
        -13    1    3    3    0    0 -0.99683860895E+01 -0.37911719018E+02  0.17682491908E+02  0.43004056137E+02  0.10566000000E+00 0.  1.
         13    1    4    4    0    0  0.65427608866E+01  0.23708885943E+02  0.16640677445E+02  0.29695829716E+02  0.10566000000E+00 0. -1.
        -13    1    4    4    0    0  0.20427475607E+01  0.79017222089E+01  0.62294425421E+01  0.10267772392E+02  0.10566000000E+00 0.  1.
        -14    1    4    4    0    0  0.13828776423E+01  0.63011108665E+01  0.53221550752E+01  0.83631144540E+01  0.00000000000E+00 0.  1.
<mgrwt>
<rscale>  0 0.78973513E+02</rscale>
<asrwt>0</asrwt>
<pdfrwt beam="1">  1        2 0.10554272E-01 0.78973513E+02</pdfrwt>
<pdfrwt beam="2">  1       -1 0.34966159E-02 0.78973513E+02</pdfrwt>
<totfact> 0.16638979E+05</totfact>
</mgrwt>
</event>
<event>
 8    1  0.7667702E-014  0.7933841E+02  0.7818608E-02  0.1330939E+00
         -1   -1    0    0    0  501 -0.00000000000E+00  0.00000000000E+00  0.40043482761E+01  0.40043514479E+01  0.50400000000E-02 0.  1.
          2   -1    0    0  501    0  0.00000000000E+00 -0.00000000000E+00 -0.39298414038E+03  0.39298414039E+03  0.25500000000E-02 0. -1.
         24    2    1    2    0    0  0.00000000000E+00  0.00000000000E+00 -0.38897979210E+03  0.39698849183E+03  0.79338414310E+02 0.  0.
         66    2    3    3    0    0  0.10876363558E+01  0.12418874838E+02 -0.38291787813E+03  0.38312597510E+03  0.20000005896E+01 0.  0.
        -13    1    3    3    0    0 -0.10876363558E+01 -0.12418874838E+02 -0.60619139729E+01  0.13862516732E+02  0.10566000000E+00 0.  1.
         13    1    4    4    0    0  0.29350440670E+00  0.42826007411E+01 -0.15323228780E+03  0.15329243948E+03  0.10566000000E+00 0. -1.
        -13    1    4    4    0    0  0.96923210645E+00  0.49522160043E+01 -0.14595041457E+03  0.14603766135E+03  0.10566000000E+00 0.  1.
        -14    1    4    4    0    0 -0.17510015736E+00  0.31840580926E+01 -0.83735175758E+02  0.83795874273E+02  0.00000000000E+00 0.  1.
<mgrwt>
<rscale>  0 0.79338414E+02</rscale>
<asrwt>0</asrwt>
<pdfrwt beam="1">  1        2 0.60459068E-01 0.79338414E+02</pdfrwt>
<pdfrwt beam="2">  1       -1 0.61605413E-03 0.79338414E+02</pdfrwt>
<totfact> 0.28694609E+05</totfact>
</mgrwt>
</event>
<event>
 8    1  0.7667702E-014  0.7970043E+02  0.7818608E-02  0.1329904E+00
         -1   -1    0    0    0  501 -0.00000000000E+00  0.00000000000E+00  0.40096522580E+01  0.40096554256E+01  0.50400000000E-02 0.  1.
          2   -1    0    0  501    0  0.00000000000E+00 -0.00000000000E+00 -0.39605408139E+03  0.39605408140E+03  0.25500000000E-02 0. -1.
         24    2    1    2    0    0  0.00000000000E+00  0.00000000000E+00 -0.39204442913E+03  0.40006373682E+03  0.79700433549E+02 0.  0.
         66    2    3    3    0    0 -0.18932915951E+02 -0.14040809521E+02 -0.35727621036E+03  0.35805850097E+03  0.19999975289E+01 0.  0.
        -13    1    3    3    0    0  0.18932915951E+02  0.14040809521E+02 -0.34768218770E+02  0.42005235851E+02  0.10566000000E+00 0.  1.
         13    1    4    4    0    0 -0.65149825445E+01 -0.52811748782E+01 -0.12425000844E+03  0.12453277306E+03  0.10566000000E+00 0. -1.
        -13    1    4    4    0    0 -0.34808107061E+01 -0.17069988602E+01 -0.57174666056E+02  0.57306051085E+02  0.10566000000E+00 0.  1.
        -14    1    4    4    0    0 -0.89371227002E+01 -0.70526357822E+01 -0.17585153586E+03  0.17621967682E+03  0.00000000000E+00 0.  1.
<mgrwt>
<rscale>  0 0.79700434E+02</rscale>
<asrwt>0</asrwt>
<pdfrwt beam="1">  1        2 0.60931366E-01 0.79700434E+02</pdfrwt>
<pdfrwt beam="2">  1       -1 0.61687014E-03 0.79700434E+02</pdfrwt>
<totfact> 0.28433006E+05</totfact>
</mgrwt>
</event>
<event>
 8    1  0.7667702E-014  0.8060939E+02  0.7818608E-02  0.1327331E+00
         -1   -1    0    0    0  501 -0.00000000000E+00  0.00000000000E+00  0.29887251751E+02  0.29887252176E+02  0.50400000000E-02 0.  1.
          2   -1    0    0  501    0  0.00000000000E+00 -0.00000000000E+00 -0.54353219028E+02  0.54353219088E+02  0.25500000000E-02 0. -1.
         24    2    1    2    0    0  0.00000000000E+00 -0.17763568394E-14 -0.24465967277E+02  0.84240471263E+02  0.80609388063E+02 0.  0.
         66    2    3    3    0    0  0.20051594115E+02  0.11959065236E+02 -0.46542470678E+02  0.52108418196E+02  0.20000005333E+01 0.  0.
        -13    1    3    3    0    0 -0.20051594115E+02 -0.11959065236E+02  0.22076503401E+02  0.32132053068E+02  0.10566000000E+00 0.  1.
         13    1    4    4    0    0  0.31403933311E+00  0.14792085997E+00 -0.77202860401E+00  0.85304952058E+00  0.10566000000E+00 0. -1.
        -13    1    4    4    0    0  0.94990296253E+01  0.54139109734E+01 -0.23636960061E+02  0.26043406859E+02  0.10566000000E+00 0.  1.
         14    1    4    4    0    0  0.10238525157E+02  0.63972334026E+01 -0.22133482013E+02  0.25211961816E+02  0.00000000000E+00 0. -1.
<mgrwt>
<rscale>  0 0.80609388E+02</rscale>
<asrwt>0</asrwt>
<pdfrwt beam="1">  1        2 0.83620337E-02 0.80609388E+02</pdfrwt>
<pdfrwt beam="2">  1       -1 0.45980388E-02 0.80609388E+02</pdfrwt>
<totfact> 0.14908290E+05</totfact>
</mgrwt>
</event>
<event>
 8    1  0.7667702E-014  0.7912879E+02  0.7818608E-02  0.1331542E+00
          2   -1    0    0  501    0  0.00000000000E+00  0.00000000000E+00  0.37375739653E+03  0.37375739654E+03  0.25500000000E-02 0. -1.
         -1   -1    0    0    0  501 -0.00000000000E+00 -0.00000000000E+00 -0.41881194337E+01  0.41881224663E+01  0.50400000000E-02 0.  1.
         24    2    1    2    0    0 -0.17763568394E-14  0.44408920985E-15  0.36956927710E+03  0.37794551901E+03  0.79128785928E+02 0.  0.
         66    2    3    3    0    0 -0.13498275419E+02  0.31373770585E+01  0.36177444364E+03  0.36204529364E+03  0.20000001730E+01 0.  0.
        -13    1    3    3    0    0  0.13498275419E+02 -0.31373770585E+01  0.77948334595E+01  0.15900225370E+02  0.10566000000E+00 0.  1.
         13    1    4    4    0    0 -0.97165729271E+01  0.24014298393E+01  0.26634788219E+03  0.26653589658E+03  0.10566000000E+00 0. -1.
        -13    1    4    4    0    0 -0.82552567292E+00  0.37584231986E+00  0.31904496118E+02  0.31917562355E+02  0.10566000000E+00 0.  1.
        -14    1    4    4    0    0 -0.29561768195E+01  0.36010489927E+00  0.63522065333E+02  0.63591834704E+02  0.00000000000E+00 0.  1.
<mgrwt>
<rscale>  0 0.79128786E+02</rscale>
<asrwt>0</asrwt>
<pdfrwt beam="1">  1        2 0.57501142E-01 0.79128786E+02</pdfrwt>
<pdfrwt beam="2">  1       -1 0.64432626E-03 0.79128786E+02</pdfrwt>
<totfact> 0.28386458E+05</totfact>
</mgrwt>
</event>
<event>
 8    1  0.7667702E-014  0.7950561E+02  0.7818608E-02  0.1330460E+00
         -1   -1    0    0    0  501 -0.00000000000E+00  0.00000000000E+00  0.10975640222E+01  0.10975755939E+01  0.50400000000E-02 0.  1.
          2   -1    0    0  501    0  0.00000000000E+00 -0.00000000000E+00 -0.14398041751E+04  0.14398041751E+04  0.25500000000E-02 0. -1.
         24    2    1    2    0    0  0.00000000000E+00  0.00000000000E+00 -0.14387066111E+04  0.14409017507E+04  0.79505612383E+02 0.  0.
         66    2    3    3    0    0  0.63751766350E+01  0.19926859223E+02 -0.13318690457E+04  0.13320348635E+04  0.19999988812E+01 0.  0.
        -13    1    3    3    0    0 -0.63751766350E+01 -0.19926859223E+02 -0.10683756538E+03  0.10886688723E+03  0.10566000000E+00 0.  1.
         13    1    4    4    0    0  0.18013794091E+01  0.73817920477E+01 -0.47693655122E+03  0.47699708686E+03  0.10566000000E+00 0. -1.
        -13    1    4    4    0    0  0.17411983895E+01  0.46775658310E+01 -0.28045193854E+03  0.28049636787E+03  0.10566000000E+00 0.  1.
         14    1    4    4    0    0  0.28325988365E+01  0.78675013445E+01 -0.57448055593E+03  0.57454140873E+03  0.00000000000E+00 0. -1.
<mgrwt>
<rscale>  0 0.79505612E+02</rscale>
<asrwt>0</asrwt>
<pdfrwt beam="1">  1        2 0.22150682E+00 0.79505612E+02</pdfrwt>
<pdfrwt beam="2">  1       -1 0.16885805E-03 0.79505612E+02</pdfrwt>
<totfact> 0.34275852E+05</totfact>
</mgrwt>
</event>
<event>
 8    1  0.7667702E-014  0.8323574E+02  0.7818608E-02  0.1320112E+00
          2   -1    0    0  501    0  0.00000000000E+00  0.00000000000E+00  0.49549044259E+03  0.49549044259E+03  0.25500000000E-02 0. -1.
         -1   -1    0    0    0  501 -0.00000000000E+00 -0.00000000000E+00 -0.34956195846E+01  0.34956232179E+01  0.50400000000E-02 0.  1.
         24    2    1    2    0    0  0.00000000000E+00  0.35527136788E-14  0.49199482300E+03  0.49898606581E+03  0.83235737594E+02 0.  0.
         66    2    3    3    0    0  0.23272237155E+02  0.30040483092E+02  0.34752375934E+03  0.34960090240E+03  0.20000022893E+01 0.  0.
        -13    1    3    3    0    0 -0.23272237155E+02 -0.30040483092E+02  0.14447106367E+03  0.14938516341E+03  0.10566000000E+00 0.  1.
         13    1    4    4    0    0  0.10924619482E+01  0.16111815321E+01  0.18204132482E+02  0.18308221719E+02  0.10566000000E+00 0. -1.
        -13    1    4    4    0    0  0.18612124685E+02  0.23556775989E+02  0.26797929792E+03  0.26965579571E+03  0.10566000000E+00 0.  1.
        -14    1    4    4    0    0  0.35676505219E+01  0.48725255708E+01  0.61340328935E+02  0.61636884976E+02  0.00000000000E+00 0.  1.
<mgrwt>
<rscale>  0 0.83235738E+02</rscale>
<asrwt>0</asrwt>
<pdfrwt beam="1">  1        2 0.76229372E-01 0.83235738E+02</pdfrwt>
<pdfrwt beam="2">  1       -1 0.53778739E-03 0.83235738E+02</pdfrwt>
<totfact> 0.27376614E+05</totfact>
</mgrwt>
</event>
<event>
 8    1  0.7667702E-014  0.8068085E+02  0.7818608E-02  0.1327130E+00
          2   -1    0    0  501    0  0.00000000000E+00  0.00000000000E+00  0.16755433396E+04  0.16755433396E+04  0.25500000000E-02 0. -1.
         -1   -1    0    0    0  501 -0.00000000000E+00 -0.00000000000E+00 -0.97123065616E+00  0.97124373308E+00  0.50400000000E-02 0.  1.
         24    2    1    2    0    0  0.17763568394E-14 -0.17763568394E-14  0.16745721089E+04  0.16765145833E+04  0.80680853257E+02 0.  0.
         66    2    3    3    0    0  0.10434565008E+02 -0.10248059314E+02  0.16184707612E+04  0.16185380774E+04  0.20000037114E+01 0.  0.
        -13    1    3    3    0    0 -0.10434565008E+02  0.10248059314E+02  0.56101347697E+02  0.57976505967E+02  0.10566000000E+00 0.  1.
         13    1    4    4    0    0  0.35639975740E+01 -0.29776092562E+01  0.48984837920E+03  0.48987040532E+03  0.10566000000E+00 0.  1.
        -13    1    4    4    0    0  0.66557216043E+01 -0.64733935557E+01  0.10339443712E+04  0.10339860624E+04  0.10566000000E+00 0. -1.
         14    1    4    4    0    0  0.21484582948E+00 -0.79705650219E+00  0.94678010875E+02  0.94681609625E+02  0.00000000000E+00 0. -1.
<mgrwt>
<rscale>  0 0.80680853E+02</rscale>
<asrwt>0</asrwt>
<pdfrwt beam="1">  1        2 0.25777427E+00 0.80680853E+02</pdfrwt>
<pdfrwt beam="2">  1       -1 0.14942205E-03 0.80680853E+02</pdfrwt>
<totfact> 0.30904141E+05</totfact>
</mgrwt>
</event>
<event>
 8    1  0.7667702E-014  0.7479035E+02  0.7818608E-02  0.1344521E+00
         -1   -1    0    0    0  501 -0.00000000000E+00  0.00000000000E+00  0.10590588179E+03  0.10590588191E+03  0.50400000000E-02 0.  1.
          2   -1    0    0  501    0  0.00000000000E+00 -0.00000000000E+00 -0.13204169670E+02  0.13204169916E+02  0.25500000000E-02 0. -1.
         24    2    1    2    0    0 -0.35527136788E-14 -0.35527136788E-14  0.92701712123E+02  0.11911005183E+03  0.74790353764E+02 0.  0.
         66    2    3    3    0    0 -0.31832312561E+02 -0.19348898371E+02  0.41681493543E+02  0.55937669737E+02  0.20000001218E+01 0.  0.
        -13    1    3    3    0    0  0.31832312561E+02  0.19348898371E+02  0.51020218580E+02  0.63172382091E+02  0.10566000000E+00 0.  1.
         13    1    4    4    0    0 -0.11861191617E+02 -0.69024977400E+01  0.15037956442E+02  0.20358871275E+02  0.10566000000E+00 0. -1.
        -13    1    4    4    0    0 -0.32044137658E+01 -0.17023766374E+01  0.34321584665E+01  0.49957211264E+01  0.10566000000E+00 0.  1.
        -14    1    4    4    0    0 -0.16766707178E+02 -0.10744023994E+02  0.23211378635E+02  0.30583077335E+02  0.00000000000E+00 0.  1.
<mgrwt>
<rscale>  0 0.74790354E+02</rscale>
<asrwt>0</asrwt>
<pdfrwt beam="1">  1        2 0.20314108E-02 0.74790354E+02</pdfrwt>
<pdfrwt beam="2">  1       -1 0.16293212E-01 0.74790354E+02</pdfrwt>
<totfact> 0.13850767E+05</totfact>
</mgrwt>
</event>
<event>
 8    1  0.1136802E-013  0.7750769E+02  0.7818608E-02  0.1336277E+00
          2   -1    0    0  501    0  0.00000000000E+00  0.00000000000E+00  0.16917925940E+03  0.16917925942E+03  0.25500000000E-02 0. -1.
         -1   -1    0    0    0  501 -0.00000000000E+00 -0.00000000000E+00 -0.88773323346E+01  0.88773337653E+01  0.50400000000E-02 0.  1.
         24    2    1    2    0    0  0.35527136788E-14  0.00000000000E+00  0.16030192706E+03  0.17805659318E+03  0.77507693525E+02 0.  0.
         66    2    3    3    0    0  0.24799295172E+02  0.21377908687E+01  0.14836327404E+03  0.15045011222E+03  0.19999986055E+01 0.  0.
        -13    1    3    3    0    0 -0.24799295172E+02 -0.21377908687E+01  0.11938653027E+02  0.27606480959E+02  0.10566000000E+00 0.  1.
         13    1    4    4    0    0  0.10893088653E+02  0.96131645096E+00  0.65139560896E+02  0.66051170069E+02  0.10566000000E+00 0. -1.
        -13    1    4    4    0    0  0.13766573448E+02  0.99154950072E+00  0.81706518824E+02  0.82864154477E+02  0.10566000000E+00 0.  1.
        -14    1    4    4    0    0  0.13963307113E+00  0.18492491707E+00  0.15171943173E+01  0.15347876778E+01  0.00000000000E+00 0.  1.
<mgrwt>
<rscale>  0 0.77507694E+02</rscale>
<asrwt>0</asrwt>
<pdfrwt beam="1">  1        2 0.26027578E-01 0.77507694E+02</pdfrwt>
<pdfrwt beam="2">  1       -1 0.13657436E-02 0.77507694E+02</pdfrwt>
<totfact> 0.22653261E+05</totfact>
</mgrwt>
</event>
<event>
 8    1  0.7667702E-014  0.8034208E+02  0.7818608E-02  0.1328083E+00
          2   -1    0    0  501    0  0.00000000000E+00  0.00000000000E+00  0.74175328484E+02  0.74175328528E+02  0.25500000000E-02 0. -1.
         -1   -1    0    0    0  501 -0.00000000000E+00 -0.00000000000E+00 -0.21755382057E+02  0.21755382641E+02  0.50400000000E-02 0.  1.
         24    2    1    2    0    0  0.00000000000E+00  0.88817841970E-15  0.52419946427E+02  0.95930711169E+02  0.80342084625E+02 0.  0.
         66    2    3    3    0    0 -0.33546431798E+02 -0.70009613772E+01  0.51196240208E+02  0.61639529102E+02  0.19999974779E+01 0.  0.
        -13    1    3    3    0    0  0.33546431798E+02  0.70009613772E+01  0.12237062183E+01  0.34291182066E+02  0.10566000000E+00 0.  1.
         13    1    4    4    0    0 -0.23281138802E+02 -0.45547220730E+01  0.34632951053E+02  0.41978677680E+02  0.10566000000E+00 0.  1.
        -13    1    4    4    0    0 -0.13350931192E+01 -0.40711667190E-01  0.22886073522E+01  0.26519839224E+01  0.10566000000E+00 0. -1.
        -14    1    4    4    0    0 -0.89301998763E+01 -0.24055276370E+01  0.14274681803E+02  0.17008867499E+02  0.00000000000E+00 0.  1.
<mgrwt>
<rscale>  0 0.80342085E+02</rscale>
<asrwt>0</asrwt>
<pdfrwt beam="1">  1        2 0.11411589E-01 0.80342085E+02</pdfrwt>
<pdfrwt beam="2">  1       -1 0.33469819E-02 0.80342085E+02</pdfrwt>
<totfact> 0.16191309E+05</totfact>
</mgrwt>
</event>
<event>
 8    1  0.7667702E-014  0.8149216E+02  0.7818608E-02  0.1324869E+00
         -1   -1    0    0    0  501 -0.00000000000E+00  0.00000000000E+00  0.25034308683E+01  0.25034359417E+01  0.50400000000E-02 0.  1.
          2   -1    0    0  501    0  0.00000000000E+00 -0.00000000000E+00 -0.66318648611E+03  0.66318648611E+03  0.25500000000E-02 0. -1.
         24    2    1    2    0    0  0.00000000000E+00  0.00000000000E+00 -0.66068305524E+03  0.66568992205E+03  0.81492164311E+02 0.  0.
         66    2    3    3    0    0  0.32682433492E+02  0.17749731014E+02 -0.46601429447E+03  0.46750028561E+03  0.19999964424E+01 0.  0.
        -13    1    3    3    0    0 -0.32682433492E+02 -0.17749731014E+02 -0.19466876077E+03  0.19818963644E+03  0.10566000000E+00 0.  1.
         13    1    4    4    0    0  0.11629124288E+02  0.67162724085E+01 -0.16139677403E+03  0.16195454510E+03  0.10566000000E+00 0. -1.
        -13    1    4    4    0    0  0.46057586825E+01  0.21055085008E+01 -0.69983186139E+02  0.70166257455E+02  0.10566000000E+00 0.  1.
         14    1    4    4    0    0  0.16447550522E+02  0.89279501045E+01 -0.23463433430E+03  0.23537948305E+03  0.00000000000E+00 0. -1.
<mgrwt>
<rscale>  0 0.81492164E+02</rscale>
<asrwt>0</asrwt>
<pdfrwt beam="1">  1        2 0.10202855E+00 0.81492164E+02</pdfrwt>
<pdfrwt beam="2">  1       -1 0.38514413E-03 0.81492164E+02</pdfrwt>
<totfact> 0.31472647E+05</totfact>
</mgrwt>
</event>
<event>
 8    1  0.7667702E-014  0.8031515E+02  0.7818608E-02  0.1328159E+00
         -1   -1    0    0    0  501 -0.00000000000E+00  0.00000000000E+00  0.16399708316E+02  0.16399709090E+02  0.50400000000E-02 0.  1.
          2   -1    0    0  501    0  0.00000000000E+00 -0.00000000000E+00 -0.98332884940E+02  0.98332884973E+02  0.25500000000E-02 0. -1.
         24    2    1    2    0    0  0.00000000000E+00 -0.88817841970E-15 -0.81933176624E+02  0.11473259406E+03  0.80315146198E+02 0.  0.
         66    2    3    3    0    0 -0.37277867999E+02 -0.57571338152E+01 -0.21413153924E+02  0.43420124298E+02  0.20000001877E+01 0.  0.
        -13    1    3    3    0    0  0.37277867999E+02  0.57571338152E+01 -0.60520022701E+02  0.71312469766E+02  0.10566000000E+00 0.  1.
         13    1    4    4    0    0 -0.24897509114E+02 -0.35795186447E+01 -0.14256276601E+02  0.28912825881E+02  0.10566000000E+00 0. -1.
        -13    1    4    4    0    0 -0.78947009090E+01 -0.12989851666E+01 -0.39482495515E+01  0.89226399379E+01  0.10566000000E+00 0.  1.
        -14    1    4    4    0    0 -0.44856579759E+01 -0.87863000388E+00 -0.32086277707E+01  0.55846584794E+01  0.00000000000E+00 0.  1.
<mgrwt>
<rscale>  0 0.80315146E+02</rscale>
<asrwt>0</asrwt>
<pdfrwt beam="1">  1        2 0.15128136E-01 0.80315146E+02</pdfrwt>
<pdfrwt beam="2">  1       -1 0.25230322E-02 0.80315146E+02</pdfrwt>
<totfact> 0.17457932E+05</totfact>
</mgrwt>
</event>
<event>
 8    1  0.7667702E-014  0.8115223E+02  0.7818608E-02  0.1325813E+00
         -1   -1    0    0    0  501 -0.00000000000E+00  0.00000000000E+00  0.86523342527E+02  0.86523342674E+02  0.50400000000E-02 0.  1.
          2   -1    0    0  501    0  0.00000000000E+00 -0.00000000000E+00 -0.19028633566E+02  0.19028633737E+02  0.25500000000E-02 0. -1.
         24    2    1    2    0    0  0.00000000000E+00  0.00000000000E+00  0.67494708962E+02  0.10555197641E+03  0.81152227242E+02 0.  0.
         66    2    3    3    0    0 -0.19070293061E+02  0.32002345793E+02  0.54602417080E+02  0.66130553711E+02  0.19999923565E+01 0.  0.
        -13    1    3    3    0    0  0.19070293061E+02 -0.32002345793E+02  0.12892291882E+02  0.39421422700E+02  0.10566000000E+00 0.  1.
         13    1    4    4    0    0 -0.64548275568E+01  0.10020436070E+02  0.18251024288E+02  0.21798738252E+02  0.10566000000E+00 0. -1.
        -13    1    4    4    0    0 -0.51061522196E+01  0.87151713958E+01  0.15532882131E+02  0.18528588566E+02  0.10566000000E+00 0.  1.
         14    1    4    4    0    0 -0.75093132845E+01  0.13266738328E+02  0.20818510662E+02  0.25803226892E+02  0.00000000000E+00 0. -1.
<mgrwt>
<rscale>  0 0.81152227E+02</rscale>
<asrwt>0</asrwt>
<pdfrwt beam="1">  1        2 0.29274822E-02 0.81152227E+02</pdfrwt>
<pdfrwt beam="2">  1       -1 0.13311283E-01 0.81152227E+02</pdfrwt>
<totfact> 0.11793596E+05</totfact>
</mgrwt>
</event>
<event>
 8    1  0.7667702E-014  0.8079371E+02  0.7818608E-02  0.1326814E+00
          2   -1    0    0  501    0  0.00000000000E+00  0.00000000000E+00  0.16157071231E+02  0.16157071432E+02  0.25500000000E-02 0. -1.
         -1   -1    0    0    0  501 -0.00000000000E+00 -0.00000000000E+00 -0.10100258448E+03  0.10100258460E+03  0.50400000000E-02 0.  1.
         24    2    1    2    0    0  0.00000000000E+00 -0.71054273576E-14 -0.84845513247E+02  0.11715965604E+03  0.80793711911E+02 0.  0.
         66    2    3    3    0    0 -0.18605603191E+02  0.35409191261E+02 -0.34516479780E+02  0.52871227299E+02  0.20000009445E+01 0.  0.
        -13    1    3    3    0    0  0.18605603191E+02 -0.35409191261E+02 -0.50329033466E+02  0.64288428737E+02  0.10566000000E+00 0.  1.
         13    1    4    4    0    0 -0.93196268926E+01  0.18570010998E+02 -0.18779191156E+02  0.28006605264E+02  0.10566000000E+00 0. -1.
        -13    1    4    4    0    0 -0.89595599090E+01  0.16180902418E+02 -0.14903924746E+02  0.23753598752E+02  0.10566000000E+00 0.  1.
         14    1    4    4    0    0 -0.32641638929E+00  0.65827784470E+00 -0.83336387844E+00  0.11110232823E+01  0.00000000000E+00 0. -1.
<mgrwt>
<rscale>  0 0.80793712E+02</rscale>
<asrwt>0</asrwt>
<pdfrwt beam="1">  1        2 0.24857033E-02 0.80793712E+02</pdfrwt>
<pdfrwt beam="2">  1       -1 0.15538859E-01 0.80793712E+02</pdfrwt>
<totfact> 0.11540038E+05</totfact>
</mgrwt>
</event>
<event>
 8    1  0.7667702E-014  0.7928277E+02  0.7818608E-02  0.1331099E+00
          2   -1    0    0  501    0  0.00000000000E+00  0.00000000000E+00  0.75335284342E+03  0.75335284342E+03  0.25500000000E-02 0. -1.
         -1   -1    0    0    0  501 -0.00000000000E+00 -0.00000000000E+00 -0.20859242362E+01  0.20859303250E+01  0.50400000000E-02 0.  1.
         24    2    1    2    0    0 -0.17763568394E-14 -0.17763568394E-14  0.75126691918E+03  0.75543877374E+03  0.79282766247E+02 0.  0.
         66    2    3    3    0    0  0.15466332300E+02  0.11764000408E+02  0.70482083347E+03  0.70509148799E+03  0.20000030546E+01 0.  0.
        -13    1    3    3    0    0 -0.15466332300E+02 -0.11764000408E+02  0.46446085712E+02  0.50347285750E+02  0.10566000000E+00 0.  1.
         13    1    4    4    0    0  0.36403151502E+01  0.21286417127E+01  0.14689545854E+03  0.14695601353E+03  0.10566000000E+00 0. -1.
        -13    1    4    4    0    0  0.11213235929E+01  0.11975439294E+01  0.48839072802E+02  0.48866733820E+02  0.10566000000E+00 0.  1.
         14    1    4    4    0    0  0.10704693557E+02  0.84378147659E+01  0.50908630213E+03  0.50926874064E+03  0.00000000000E+00 0. -1.
<mgrwt>
<rscale>  0 0.79282766E+02</rscale>
<asrwt>0</asrwt>
<pdfrwt beam="1">  1        2 0.11590037E+00 0.79282766E+02</pdfrwt>
<pdfrwt beam="2">  1       -1 0.32091209E-03 0.79282766E+02</pdfrwt>
<totfact> 0.34787424E+05</totfact>
</mgrwt>
</event>
<event>
 8    1  0.7667702E-014  0.8006094E+02  0.7818608E-02  0.1328879E+00
         -1   -1    0    0    0  501 -0.00000000000E+00  0.00000000000E+00  0.11497760623E+02  0.11497761728E+02  0.50400000000E-02 0.  1.
          2   -1    0    0  501    0  0.00000000000E+00 -0.00000000000E+00 -0.13936961119E+03  0.13936961121E+03  0.25500000000E-02 0. -1.
         24    2    1    2    0    0 -0.17763568394E-14  0.17763568394E-14 -0.12787185056E+03  0.15086737294E+03  0.80060939607E+02 0.  0.
         66    2    3    3    0    0 -0.12514641754E+02  0.78494426514E+01 -0.13403418269E+03  0.13486063969E+03  0.19999998050E+01 0.  0.
        -13    1    3    3    0    0  0.12514641754E+02 -0.78494426514E+01  0.61623321253E+01  0.16006733252E+02  0.10566000000E+00 0.  1.
         13    1    4    4    0    0 -0.13945990108E+01  0.23826018018E+00 -0.13527227105E+02  0.13601423143E+02  0.10566000000E+00 0.  1.
        -13    1    4    4    0    0 -0.46961354172E+01  0.29119071191E+01 -0.49239294526E+02  0.49548483129E+02  0.10566000000E+00 0. -1.
        -14    1    4    4    0    0 -0.64239073255E+01  0.46992753521E+01 -0.71267661058E+02  0.71710733414E+02  0.00000000000E+00 0.  1.
<mgrwt>
<rscale>  0 0.80060940E+02</rscale>
<asrwt>0</asrwt>
<pdfrwt beam="1">  1        2 0.21441478E-01 0.80060940E+02</pdfrwt>
<pdfrwt beam="2">  1       -1 0.17688864E-02 0.80060940E+02</pdfrwt>
<totfact> 0.19526716E+05</totfact>
</mgrwt>
</event>
<event>
 8    1  0.7667702E-014  0.7888123E+02  0.7818608E-02  0.1332257E+00
         -1   -1    0    0    0  501 -0.00000000000E+00  0.00000000000E+00  0.18734315738E+02  0.18734316416E+02  0.50400000000E-02 0.  1.
          2   -1    0    0  501    0  0.00000000000E+00 -0.00000000000E+00 -0.83032771362E+02  0.83032771401E+02  0.25500000000E-02 0. -1.
         24    2    1    2    0    0  0.00000000000E+00  0.35527136788E-14 -0.64298455624E+02  0.10176708782E+03  0.78881232033E+02 0.  0.
         66    2    3    3    0    0 -0.91617711358E+01  0.30700187617E+02 -0.61790001014E+02  0.69630767575E+02  0.19999994351E+01 0.  0.
        -13    1    3    3    0    0  0.91617711358E+01 -0.30700187617E+02 -0.25084546098E+01  0.32136320241E+02  0.10566000000E+00 0.  1.
         13    1    4    4    0    0 -0.10312310051E+00  0.48245421393E+00 -0.63749639015E+00  0.81299577210E+00  0.10566000000E+00 0. -1.
        -13    1    4    4    0    0 -0.35131059536E+01  0.10600593100E+02 -0.22459589712E+02  0.25083038524E+02  0.10566000000E+00 0.  1.
         14    1    4    4    0    0 -0.55455420817E+01  0.19617140303E+02 -0.38692914912E+02  0.43734733280E+02  0.00000000000E+00 0. -1.
<mgrwt>
<rscale>  0 0.78881232E+02</rscale>
<asrwt>0</asrwt>
<pdfrwt beam="1">  1        2 0.12774272E-01 0.78881232E+02</pdfrwt>
<pdfrwt beam="2">  1       -1 0.28822025E-02 0.78881232E+02</pdfrwt>
<totfact> 0.17508118E+05</totfact>
</mgrwt>
</event>
<event>
 8    1  0.7667702E-014  0.7942772E+02  0.7818608E-02  0.1330683E+00
          2   -1    0    0  501    0  0.00000000000E+00  0.00000000000E+00  0.15071567696E+02  0.15071567912E+02  0.25500000000E-02 0. -1.
         -1   -1    0    0    0  501 -0.00000000000E+00 -0.00000000000E+00 -0.10464676290E+03  0.10464676303E+03  0.50400000000E-02 0.  1.
         24    2    1    2    0    0  0.00000000000E+00  0.88817841970E-15 -0.89575195209E+02  0.11971833094E+03  0.79427722906E+02 0.  0.
         66    2    3    3    0    0 -0.32864572179E+02  0.71148984070E+01 -0.13038646094E+02  0.36120744859E+02  0.20000083508E+01 0.  0.
        -13    1    3    3    0    0  0.32864572179E+02 -0.71148984070E+01 -0.76536549115E+02  0.83597586079E+02  0.10566000000E+00 0.  1.
         13    1    4    4    0    0 -0.16660957834E+02  0.29012923965E+01 -0.65341329593E+01  0.18130390814E+02  0.10566000000E+00 0. -1.
        -13    1    4    4    0    0 -0.51927339511E+00  0.57777280830E-01 -0.79339412446E-01  0.53892657294E+00  0.10566000000E+00 0. -1.
         14    1    4    4    0    0 -0.15684340950E+02  0.41558287297E+01 -0.64251737222E+01  0.17451427472E+02  0.00000000000E+00 0. -1.
<mgrwt>
<rscale>  0 0.79427723E+02</rscale>
<asrwt>0</asrwt>
<pdfrwt beam="1">  1        2 0.23187028E-02 0.79427723E+02</pdfrwt>
<pdfrwt beam="2">  1       -1 0.16099502E-01 0.79427723E+02</pdfrwt>
<totfact> 0.11949682E+05</totfact>
</mgrwt>
</event>
<event>
 8    1  0.7667702E-014  0.7090081E+02  0.7818608E-02  0.1357056E+00
         -1   -1    0    0    0  501 -0.00000000000E+00  0.00000000000E+00  0.29511306026E+02  0.29511306457E+02  0.50400000000E-02 0.  1.
          2   -1    0    0  501    0  0.00000000000E+00 -0.00000000000E+00 -0.42584742596E+02  0.42584742672E+02  0.25500000000E-02 0. -1.
         24    2    1    2    0    0  0.00000000000E+00  0.00000000000E+00 -0.13073436570E+02  0.72096049129E+02  0.70900814920E+02 0.  0.
         66    2    3    3    0    0 -0.24567692038E+02  0.82750487752E+01 -0.31087570045E+02  0.40527582375E+02  0.19999993784E+01 0.  0.
        -13    1    3    3    0    0  0.24567692038E+02 -0.82750487752E+01  0.18014133475E+02  0.31568466754E+02  0.10566000000E+00 0.  1.
         13    1    4    4    0    0 -0.17327495719E+02  0.59268504192E+01 -0.21544607617E+02  0.28276331891E+02  0.10566000000E+00 0. -1.
        -13    1    4    4    0    0 -0.16827272067E+01  0.10080462663E+01 -0.23325623540E+01  0.30495473923E+01  0.10566000000E+00 0.  1.
         14    1    4    4    0    0 -0.55574691125E+01  0.13401520898E+01 -0.72104000741E+01  0.92017030917E+01  0.00000000000E+00 0. -1.
<mgrwt>
<rscale>  0 0.70900815E+02</rscale>
<asrwt>0</asrwt>
<pdfrwt beam="1">  1        2 0.65514988E-02 0.70900815E+02</pdfrwt>
<pdfrwt beam="2">  1       -1 0.45402010E-02 0.70900815E+02</pdfrwt>
<totfact> 0.20078060E+05</totfact>
</mgrwt>
</event>
<event>
 8    1  0.7667702E-014  0.7876375E+02  0.7818608E-02  0.1332597E+00
         -1   -1    0    0    0  501 -0.00000000000E+00  0.00000000000E+00  0.85725270058E+02  0.85725270206E+02  0.50400000000E-02 0.  1.
          2   -1    0    0  501    0  0.00000000000E+00 -0.00000000000E+00 -0.18091887653E+02  0.18091887833E+02  0.25500000000E-02 0. -1.
         24    2    1    2    0    0  0.00000000000E+00  0.00000000000E+00  0.67633382405E+02  0.10381715804E+03  0.78763747294E+02 0.  0.
         66    2    3    3    0    0 -0.16144756904E+02  0.35710279653E+02  0.29076927435E+02  0.48839993395E+02  0.19999993349E+01 0.  0.
        -13    1    3    3    0    0  0.16144756904E+02 -0.35710279653E+02  0.38556454969E+02  0.54977164644E+02  0.10566000000E+00 0.  1.
         13    1    4    4    0    0 -0.10276690446E+02  0.21977196340E+02  0.18196651474E+02  0.30327162980E+02  0.10566000000E+00 0. -1.
        -13    1    4    4    0    0 -0.35453331719E+01  0.79663500066E+01  0.70209917528E+01  0.11195428038E+02  0.10566000000E+00 0.  1.
        -14    1    4    4    0    0 -0.23227332868E+01  0.57667333069E+01  0.38592842080E+01  0.73174023774E+01  0.00000000000E+00 0.  1.
<mgrwt>
<rscale>  0 0.78763747E+02</rscale>
<asrwt>0</asrwt>
<pdfrwt beam="1">  1        2 0.27833674E-02 0.78763747E+02</pdfrwt>
<pdfrwt beam="2">  1       -1 0.13188503E-01 0.78763747E+02</pdfrwt>
<totfact> 0.12723299E+05</totfact>
</mgrwt>
</event>
<event>
 8    1  0.7667702E-014  0.7972413E+02  0.7818608E-02  0.1329836E+00
         -1   -1    0    0    0  501 -0.00000000000E+00  0.00000000000E+00  0.13275791027E+03  0.13275791037E+03  0.50400000000E-02 0.  1.
          2   -1    0    0  501    0  0.00000000000E+00 -0.00000000000E+00 -0.11969035874E+02  0.11969036145E+02  0.25500000000E-02 0. -1.
         24    2    1    2    0    0  0.44408920985E-15  0.35527136788E-14  0.12078887440E+03  0.14472694651E+03  0.79724129776E+02 0.  0.
         66    2    3    3    0    0  0.30446397809E+01  0.25674079947E+02  0.11545115789E+03  0.11832750345E+03  0.20000004584E+01 0.  0.
        -13    1    3    3    0    0 -0.30446397809E+01 -0.25674079947E+02  0.53377165090E+01  0.26399443064E+02  0.10566000000E+00 0.  1.
         13    1    4    4    0    0  0.89178421990E+00  0.35314806904E+01  0.15056838649E+02  0.15491487633E+02  0.10566000000E+00 0. -1.
        -13    1    4    4    0    0  0.20985535903E+00  0.62655575104E+01  0.26858699319E+02  0.27580829272E+02  0.10566000000E+00 0.  1.
         14    1    4    4    0    0  0.19430002020E+01  0.15877041747E+02  0.73535619923E+02  0.75255186544E+02  0.00000000000E+00 0. -1.
<mgrwt>
<rscale>  0 0.79724130E+02</rscale>
<asrwt>0</asrwt>
<pdfrwt beam="1">  1        2 0.18413900E-02 0.79724130E+02</pdfrwt>
<pdfrwt beam="2">  1       -1 0.20424295E-01 0.79724130E+02</pdfrwt>
<totfact> 0.11215006E+05</totfact>
</mgrwt>
</event>
<event>
 8    1  0.7667702E-014  0.7926990E+02  0.7818608E-02  0.1331136E+00
         -1   -1    0    0    0  501 -0.00000000000E+00  0.00000000000E+00  0.19384635492E+03  0.19384635498E+03  0.50400000000E-02 0.  1.
          2   -1    0    0  501    0  0.00000000000E+00 -0.00000000000E+00 -0.81039920823E+01  0.81039924835E+01  0.25500000000E-02 0. -1.
         24    2    1    2    0    0  0.35527136788E-14  0.00000000000E+00  0.18574236284E+03  0.20195034747E+03  0.79269902802E+02 0.  0.
         66    2    3    3    0    0 -0.23097585761E+02 -0.32123934622E+02  0.88178424296E+02  0.96668920277E+02  0.19999981826E+01 0.  0.
        -13    1    3    3    0    0  0.23097585761E+02  0.32123934622E+02  0.97563938540E+02  0.10528142719E+03  0.10566000000E+00 0.  1.
         13    1    4    4    0    0 -0.16946465118E+02 -0.22949250605E+02  0.62869081608E+02  0.69038998904E+02  0.10566000000E+00 0. -1.
        -13    1    4    4    0    0 -0.84061967652E+00 -0.79778868478E+00  0.25136339246E+01  0.27699508603E+01  0.10566000000E+00 0.  1.
         14    1    4    4    0    0 -0.53105009666E+01 -0.83768953327E+01  0.22795708763E+02  0.24859970513E+02  0.00000000000E+00 0. -1.
<mgrwt>
<rscale>  0 0.79269903E+02</rscale>
<asrwt>0</asrwt>
<pdfrwt beam="1">  1        2 0.12467680E-02 0.79269903E+02</pdfrwt>
<pdfrwt beam="2">  1       -1 0.29822518E-01 0.79269903E+02</pdfrwt>
<totfact> 0.10291255E+05</totfact>
</mgrwt>
</event>
<event>
 8    1  0.7667702E-014  0.8318117E+02  0.7818608E-02  0.1320259E+00
          2   -1    0    0  501    0  0.00000000000E+00  0.00000000000E+00  0.16636978954E+04  0.16636978954E+04  0.25500000000E-02 0. -1.
         -1   -1    0    0    0  501 -0.00000000000E+00 -0.00000000000E+00 -0.10397120021E+01  0.10397242178E+01  0.50400000000E-02 0.  1.
         24    2    1    2    0    0 -0.44408920985E-15  0.00000000000E+00  0.16626581834E+04  0.16647376196E+04  0.83181171891E+02 0.  0.
         66    2    3    3    0    0  0.20353813028E+01 -0.11308825016E+02  0.16312775942E+04  0.16313192886E+04  0.19999972356E+01 0.  0.
        -13    1    3    3    0    0 -0.20353813028E+01  0.11308825016E+02  0.31380589228E+02  0.33418330967E+02  0.10566000000E+00 0.  1.
         13    1    4    4    0    0  0.30919776903E+00 -0.55032647428E+01  0.69775945525E+03  0.69778123368E+03  0.10566000000E+00 0. -1.
        -13    1    4    4    0    0  0.59060557156E+00 -0.21121212497E+01  0.28971425200E+03  0.28972257221E+03  0.10566000000E+00 0. -1.
         14    1    4    4    0    0  0.11355779622E+01 -0.36934390239E+01  0.64380388691E+03  0.64381548275E+03  0.00000000000E+00 0. -1.
<mgrwt>
<rscale>  0 0.83181172E+02</rscale>
<asrwt>0</asrwt>
<pdfrwt beam="1">  1        2 0.25595296E+00 0.83181172E+02</pdfrwt>
<pdfrwt beam="2">  1       -1 0.15995698E-03 0.83181172E+02</pdfrwt>
<totfact> 0.28650438E+05</totfact>
</mgrwt>
</event>
<event>
 8    1  0.7667702E-014  0.7950489E+02  0.7818608E-02  0.1330462E+00
          2   -1    0    0  501    0  0.00000000000E+00  0.00000000000E+00  0.59060289644E+02  0.59060289699E+02  0.25500000000E-02 0. -1.
         -1   -1    0    0    0  501 -0.00000000000E+00 -0.00000000000E+00 -0.26756675898E+02  0.26756676373E+02  0.50400000000E-02 0.  1.
         24    2    1    2    0    0 -0.35527136788E-14  0.00000000000E+00  0.32303613746E+02  0.85816966072E+02  0.79504894219E+02 0.  0.
         66    2    3    3    0    0 -0.17560643000E+02  0.33149326782E+02  0.30276804020E+02  0.48248719235E+02  0.19999993871E+01 0.  0.
        -13    1    3    3    0    0  0.17560643000E+02 -0.33149326782E+02  0.20268097262E+01  0.37568246836E+02  0.10566000000E+00 0.  1.
         13    1    4    4    0    0 -0.74029356745E+01  0.14176554717E+02  0.12059989493E+02  0.20030793066E+02  0.10566000000E+00 0. -1.
        -13    1    4    4    0    0 -0.42239507186E+00  0.13175466601E+01  0.11117682869E+01  0.17780718652E+01  0.10566000000E+00 0.  1.
         14    1    4    4    0    0 -0.97353122540E+01  0.17655225405E+02  0.17105046239E+02  0.26439854304E+02  0.00000000000E+00 0. -1.
<mgrwt>
<rscale>  0 0.79504894E+02</rscale>
<asrwt>0</asrwt>
<pdfrwt beam="1">  1        2 0.90861985E-02 0.79504894E+02</pdfrwt>
<pdfrwt beam="2">  1       -1 0.41164117E-02 0.79504894E+02</pdfrwt>
<totfact> 0.15773922E+05</totfact>
</mgrwt>
</event>
<event>
 8    1  0.7667702E-014  0.8040495E+02  0.7818608E-02  0.1327906E+00
          2   -1    0    0  501    0  0.00000000000E+00  0.00000000000E+00  0.10883924893E+02  0.10883925192E+02  0.25500000000E-02 0. -1.
         -1   -1    0    0    0  501 -0.00000000000E+00 -0.00000000000E+00 -0.14849779880E+03  0.14849779889E+03  0.50400000000E-02 0.  1.
         24    2    1    2    0    0  0.00000000000E+00  0.00000000000E+00 -0.13761387391E+03  0.15938172408E+03  0.80404948097E+02 0.  0.
         66    2    3    3    0    0 -0.32095996354E+02  0.22318864530E+01 -0.21147850555E+02  0.38553415894E+02  0.19999987163E+01 0.  0.
        -13    1    3    3    0    0  0.32095996354E+02 -0.22318864530E+01 -0.11646602335E+03  0.12082830819E+03  0.10566000000E+00 0.  1.
         13    1    4    4    0    0 -0.25228494775E+02  0.15900173773E+01 -0.16834812738E+02  0.30371486428E+02  0.10566000000E+00 0. -1.
        -13    1    4    4    0    0 -0.51804444507E+01  0.18726480801E+00 -0.34936425056E+01  0.62521016313E+01  0.10566000000E+00 0.  1.
        -14    1    4    4    0    0 -0.16870571290E+01  0.45460426769E+00 -0.81939531157E+00  0.19298278351E+01  0.00000000000E+00 0.  1.
<mgrwt>
<rscale>  0 0.80404948E+02</rscale>
<asrwt>0</asrwt>
<pdfrwt beam="1">  1        2 0.16744501E-02 0.80404948E+02</pdfrwt>
<pdfrwt beam="2">  1       -1 0.22845814E-01 0.80404948E+02</pdfrwt>
<totfact> 0.10677797E+05</totfact>
</mgrwt>
</event>
<event>
 8    1  0.7667702E-014  0.8082680E+02  0.7818608E-02  0.1326721E+00
          2   -1    0    0  501    0  0.00000000000E+00  0.00000000000E+00  0.31118849577E+02  0.31118849682E+02  0.25500000000E-02 0. -1.
         -1   -1    0    0    0  501 -0.00000000000E+00 -0.00000000000E+00 -0.52484038313E+02  0.52484038555E+02  0.50400000000E-02 0.  1.
         24    2    1    2    0    0 -0.35527136788E-14 -0.88817841970E-15 -0.21365188736E+02  0.83602888237E+02  0.80826800208E+02 0.  0.
         66    2    3    3    0    0 -0.27172538209E+02 -0.40836001082E+01  0.19928494954E+02  0.34002463851E+02  0.20000035542E+01 0.  0.
        -13    1    3    3    0    0  0.27172538209E+02  0.40836001082E+01 -0.41293683690E+02  0.49600424386E+02  0.10566000000E+00 0.  1.
         13    1    4    4    0    0 -0.16365367182E+02 -0.18477026485E+01  0.12347602980E+02  0.20584307407E+02  0.10566000000E+00 0. -1.
        -13    1    4    4    0    0 -0.20752430059E+01 -0.68780350261E+00  0.17808991643E+01  0.28217854385E+01  0.10566000000E+00 0.  1.
         14    1    4    4    0    0 -0.87319280213E+01 -0.15480939571E+01  0.57999928103E+01  0.10596371005E+02  0.00000000000E+00 0. -1.
<mgrwt>
<rscale>  0 0.80826800E+02</rscale>
<asrwt>0</asrwt>
<pdfrwt beam="1">  1        2 0.47875153E-02 0.80826800E+02</pdfrwt>
<pdfrwt beam="2">  1       -1 0.80744675E-02 0.80826800E+02</pdfrwt>
<totfact> 0.13168337E+05</totfact>
</mgrwt>
</event>
<event>
 8    1  0.7667702E-014  0.8071311E+02  0.7818608E-02  0.1327040E+00
          2   -1    0    0  501    0  0.00000000000E+00  0.00000000000E+00  0.39540539024E+03  0.39540539025E+03  0.25500000000E-02 0. -1.
         -1   -1    0    0    0  501 -0.00000000000E+00 -0.00000000000E+00 -0.41189391795E+01  0.41189422630E+01  0.50400000000E-02 0.  1.
         24    2    1    2    0    0 -0.71054273576E-14 -0.88817841970E-15  0.39128645106E+03  0.39952433251E+03  0.80713106030E+02 0.  0.
         66    2    3    3    0    0  0.33188983462E+02  0.30101706838E+01  0.30821219275E+03  0.31001504077E+03  0.19999976554E+01 0.  0.
        -13    1    3    3    0    0 -0.33188983462E+02 -0.30101706838E+01  0.83074258308E+02  0.89509291742E+02  0.10566000000E+00 0.  1.
         13    1    4    4    0    0  0.62182882902E+01  0.10777287857E+01  0.56802993546E+02  0.57152601414E+02  0.10566000000E+00 0. -1.
        -13    1    4    4    0    0  0.92114266911E+01  0.11125662976E+01  0.90067378122E+02  0.90544088439E+02  0.10566000000E+00 0.  1.
        -14    1    4    4    0    0  0.17759268481E+02  0.81987560061E+00  0.16134182109E+03  0.16231835092E+03  0.00000000000E+00 0.  1.
<mgrwt>
<rscale>  0 0.80713106E+02</rscale>
<asrwt>0</asrwt>
<pdfrwt beam="1">  1        2 0.60831605E-01 0.80713106E+02</pdfrwt>
<pdfrwt beam="2">  1       -1 0.63368313E-03 0.80713106E+02</pdfrwt>
<totfact> 0.27494398E+05</totfact>
</mgrwt>
</event>
<event>
 8    1  0.7667702E-014  0.8093223E+02  0.7818608E-02  0.1326427E+00
          2   -1    0    0  501    0  0.00000000000E+00  0.00000000000E+00  0.15623847529E+04  0.15623847529E+04  0.25500000000E-02 0. -1.
         -1   -1    0    0    0  501 -0.00000000000E+00 -0.00000000000E+00 -0.10480753779E+01  0.10480874960E+01  0.50400000000E-02 0.  1.
         24    2    1    2    0    0  0.00000000000E+00  0.00000000000E+00  0.15613366775E+04  0.15634328404E+04  0.80932230041E+02 0.  0.
         66    2    3    3    0    0  0.10849677139E+02  0.17650162164E+02  0.14520746367E+04  0.14522238099E+04  0.19999999374E+01 0.  0.
        -13    1    3    3    0    0 -0.10849677139E+02 -0.17650162164E+02  0.10926204082E+03  0.11120903042E+03  0.10566000000E+00 0.  1.
         13    1    4    4    0    0  0.97831553152E+00  0.17897863210E+01  0.17143046651E+03  0.17144263311E+03  0.10566000000E+00 0.  1.
        -13    1    4    4    0    0  0.12296886588E+01  0.26768399095E+01  0.18008328100E+03  0.18010740369E+03  0.10566000000E+00 0. -1.
         14    1    4    4    0    0  0.86416729484E+01  0.13183535934E+02  0.11005608891E+04  0.11006737731E+04  0.00000000000E+00 0. -1.
<mgrwt>
<rscale>  0 0.80932230E+02</rscale>
<asrwt>0</asrwt>
<pdfrwt beam="1">  1        2 0.24036574E+00 0.80932230E+02</pdfrwt>
<pdfrwt beam="2">  1       -1 0.16124407E-03 0.80932230E+02</pdfrwt>
<totfact> 0.31734125E+05</totfact>
</mgrwt>
</event>
<event>
 8    1  0.7667702E-014  0.7974310E+02  0.7818608E-02  0.1329782E+00
          2   -1    0    0  501    0  0.00000000000E+00  0.00000000000E+00  0.40341793139E+03  0.40341793139E+03  0.25500000000E-02 0. -1.
         -1   -1    0    0    0  501 -0.00000000000E+00 -0.00000000000E+00 -0.39406770619E+01  0.39406802849E+01  0.50400000000E-02 0.  1.
         24    2    1    2    0    0  0.00000000000E+00  0.00000000000E+00  0.39947725432E+03  0.40735861168E+03  0.79743098677E+02 0.  0.
         66    2    3    3    0    0  0.13053590484E+02  0.31809043822E+02  0.30273470831E+03  0.30468756967E+03  0.20000009417E+01 0.  0.
        -13    1    3    3    0    0 -0.13053590484E+02 -0.31809043822E+02  0.96742546014E+02  0.10267104201E+03  0.10566000000E+00 0.  1.
         13    1    4    4    0    0  0.63674009819E+00  0.22369752957E+01  0.19934572327E+02  0.20070073102E+02  0.10566000000E+00 0. -1.
        -13    1    4    4    0    0  0.44527666864E+01  0.89637909421E+01  0.91384954868E+02  0.91931484375E+02  0.10566000000E+00 0.  1.
         14    1    4    4    0    0  0.79640836992E+01  0.20608277585E+02  0.19141518111E+03  0.19268601219E+03  0.00000000000E+00 0. -1.
<mgrwt>
<rscale>  0 0.79743099E+02</rscale>
<asrwt>0</asrwt>
<pdfrwt beam="1">  1        2 0.62064265E-01 0.79743099E+02</pdfrwt>
<pdfrwt beam="2">  1       -1 0.60625858E-03 0.79743099E+02</pdfrwt>
<totfact> 0.28576696E+05</totfact>
</mgrwt>
</event>
<event>
 8    1  0.7667702E-014  0.8031164E+02  0.7818608E-02  0.1328169E+00
          2   -1    0    0  501    0  0.00000000000E+00  0.00000000000E+00  0.89649385955E+03  0.89649385956E+03  0.25500000000E-02 0. -1.
         -1   -1    0    0    0  501 -0.00000000000E+00 -0.00000000000E+00 -0.17986588799E+01  0.17986659412E+01  0.50400000000E-02 0.  1.
         24    2    1    2    0    0  0.00000000000E+00  0.00000000000E+00  0.89469520067E+03  0.89829252550E+03  0.80311638371E+02 0.  0.
         66    2    3    3    0    0 -0.30258875195E+02  0.45809483771E+01  0.73798446379E+03  0.73862145475E+03  0.20000004035E+01 0.  0.
        -13    1    3    3    0    0  0.30258875195E+02 -0.45809483771E+01  0.15671073688E+03  0.15967107075E+03  0.10566000000E+00 0.  1.
         13    1    4    4    0    0 -0.19995608504E+02  0.37466444554E+01  0.49247174158E+03  0.49289176208E+03  0.10566000000E+00 0. -1.
        -13    1    4    4    0    0 -0.97459473100E+01  0.81876716797E+00  0.23644529230E+03  0.23664750428E+03  0.10566000000E+00 0.  1.
        -14    1    4    4    0    0 -0.51731938066E+00  0.15536753704E-01  0.90674299126E+01  0.90821883901E+01  0.00000000000E+00 0.  1.
<mgrwt>
<rscale>  0 0.80311638E+02</rscale>
<asrwt>0</asrwt>
<pdfrwt beam="1">  1        2 0.13792198E+00 0.80311638E+02</pdfrwt>
<pdfrwt beam="2">  1       -1 0.27671759E-03 0.80311638E+02</pdfrwt>
<totfact> 0.34580456E+05</totfact>
</mgrwt>
</event>
<event>
 8    1  0.7667702E-014  0.7941960E+02  0.7818608E-02  0.1330707E+00
         -1   -1    0    0    0  501 -0.00000000000E+00  0.00000000000E+00  0.16395061615E+01  0.16395139082E+01  0.50400000000E-02 0.  1.
          2   -1    0    0  501    0  0.00000000000E+00 -0.00000000000E+00 -0.96179231313E+03  0.96179231313E+03  0.25500000000E-02 0. -1.
         24    2    1    2    0    0  0.00000000000E+00  0.00000000000E+00 -0.96015280697E+03  0.96343182704E+03  0.79419598509E+02 0.  0.
         66    2    3    3    0    0 -0.16601593376E+02 -0.19392040735E+02 -0.84896782183E+03  0.84935388776E+03  0.20000009053E+01 0.  0.
        -13    1    3    3    0    0  0.16601593376E+02  0.19392040735E+02 -0.11118498514E+03  0.11407793928E+03  0.10566000000E+00 0.  1.
         13    1    4    4    0    0 -0.11947682034E+02 -0.14121401484E+02 -0.61788876448E+03  0.61816559070E+03  0.10566000000E+00 0. -1.
        -13    1    4    4    0    0 -0.42601218551E+01 -0.42796071920E+01 -0.19720950716E+03  0.19730196288E+03  0.10566000000E+00 0.  1.
         14    1    4    4    0    0 -0.39378948645E+00 -0.99103205882E+00 -0.33869550186E+02  0.33886334185E+02  0.00000000000E+00 0. -1.
<mgrwt>
<rscale>  0 0.79419599E+02</rscale>
<asrwt>0</asrwt>
<pdfrwt beam="1">  1        2 0.14796760E+00 0.79419599E+02</pdfrwt>
<pdfrwt beam="2">  1       -1 0.25223308E-03 0.79419599E+02</pdfrwt>
<totfact> 0.35825966E+05</totfact>
</mgrwt>
</event>
<event>
 8    1  0.7667702E-014  0.8259408E+02  0.7818608E-02  0.1321847E+00
          2   -1    0    0  501    0  0.00000000000E+00  0.00000000000E+00  0.70125581017E+02  0.70125581064E+02  0.25500000000E-02 0. -1.
         -1   -1    0    0    0  501 -0.00000000000E+00 -0.00000000000E+00 -0.24319879209E+02  0.24319879732E+02  0.50400000000E-02 0.  1.
         24    2    1    2    0    0  0.35527136788E-14 -0.71054273576E-14  0.45805701808E+02  0.94445460796E+02  0.82594084212E+02 0.  0.
         66    2    3    3    0    0  0.21941704434E+02 -0.33074666435E+02  0.35856821697E+02  0.53526475804E+02  0.19999991429E+01 0.  0.
        -13    1    3    3    0    0 -0.21941704434E+02  0.33074666435E+02  0.99488801110E+01  0.40918984991E+02  0.10566000000E+00 0.  1.
         13    1    4    4    0    0  0.41819964491E+01 -0.63268899468E+01  0.59914385813E+01  0.96657711026E+01  0.10566000000E+00 0. -1.
        -13    1    4    4    0    0  0.37130397714E+01 -0.59055146892E+01  0.69798492099E+01  0.98686993629E+01  0.10566000000E+00 0.  1.
         14    1    4    4    0    0  0.14046668214E+02 -0.20842261799E+02  0.22885533906E+02  0.33992005339E+02  0.00000000000E+00 0. -1.
<mgrwt>
<rscale>  0 0.82594084E+02</rscale>
<asrwt>0</asrwt>
<pdfrwt beam="1">  1        2 0.10788551E-01 0.82594084E+02</pdfrwt>
<pdfrwt beam="2">  1       -1 0.37415200E-02 0.82594084E+02</pdfrwt>
<totfact> 0.14814208E+05</totfact>
</mgrwt>
</event>
<event>
 8    1  0.7667702E-014  0.7932846E+02  0.7818608E-02  0.1330968E+00
         -1   -1    0    0    0  501 -0.00000000000E+00  0.00000000000E+00  0.88228115581E+02  0.88228115725E+02  0.50400000000E-02 0.  1.
          2   -1    0    0  501    0  0.00000000000E+00 -0.00000000000E+00 -0.17831630625E+02  0.17831630807E+02  0.25500000000E-02 0. -1.
         24    2    1    2    0    0  0.00000000000E+00  0.00000000000E+00  0.70396484957E+02  0.10605974653E+03  0.79328461099E+02 0.  0.
         66    2    3    3    0    0 -0.18419582900E+02 -0.34887500116E+02  0.30072344830E+02  0.49646395812E+02  0.19999987293E+01 0.  0.
        -13    1    3    3    0    0  0.18419582900E+02  0.34887500116E+02  0.40324140127E+02  0.56413350721E+02  0.10566000000E+00 0.  1.
         13    1    4    4    0    0 -0.34451157862E+01 -0.63241491420E+01  0.58146587250E+01  0.92566249397E+01  0.10566000000E+00 0. -1.
        -13    1    4    4    0    0 -0.14771550780E+02 -0.28296212950E+02  0.23771662436E+02  0.39799214549E+02  0.10566000000E+00 0.  1.
        -14    1    4    4    0    0 -0.20291633442E+00 -0.26713802389E+00  0.48602366952E+00  0.59055632239E+00  0.00000000000E+00 0.  1.
<mgrwt>
<rscale>  0 0.79328461E+02</rscale>
<asrwt>0</asrwt>
<pdfrwt beam="1">  1        2 0.27433278E-02 0.79328461E+02</pdfrwt>
<pdfrwt beam="2">  1       -1 0.13573556E-01 0.79328461E+02</pdfrwt>
<totfact> 0.12426574E+05</totfact>
</mgrwt>
</event>
<event>
 8    1  0.7667702E-014  0.7915750E+02  0.7818608E-02  0.1331459E+00
         -1   -1    0    0    0  501 -0.00000000000E+00  0.00000000000E+00  0.36229168877E+01  0.36229203934E+01  0.50400000000E-02 0.  1.
          2   -1    0    0  501    0  0.00000000000E+00 -0.00000000000E+00 -0.43238001170E+03  0.43238001170E+03  0.25500000000E-02 0. -1.
         24    2    1    2    0    0  0.71054273576E-14  0.00000000000E+00 -0.42875709481E+03  0.43600293210E+03  0.79157504058E+02 0.  0.
         66    2    3    3    0    0  0.38093023662E+02 -0.28342705889E+01 -0.27105263811E+03  0.27373827677E+03  0.20000004382E+01 0.  0.
        -13    1    3    3    0    0 -0.38093023662E+02  0.28342705889E+01 -0.15770445670E+03  0.16226465533E+03  0.10566000000E+00 0.  1.
         13    1    4    4    0    0  0.21724062652E+02 -0.17134798833E+01 -0.15910741848E+03  0.16059281643E+03  0.10566000000E+00 0. -1.
        -13    1    4    4    0    0  0.58747997904E+01 -0.51213267998E+00 -0.43386841617E+02  0.43785896611E+02  0.10566000000E+00 0. -1.
         14    1    4    4    0    0  0.10494161220E+02 -0.60865802567E+00 -0.68558378013E+02  0.69359563724E+02  0.00000000000E+00 0. -1.
<mgrwt>
<rscale>  0 0.79157504E+02</rscale>
<asrwt>0</asrwt>
<pdfrwt beam="1">  1        2 0.66519961E-01 0.79157504E+02</pdfrwt>
<pdfrwt beam="2">  1       -1 0.55737244E-03 0.79157504E+02</pdfrwt>
<totfact> 0.29836336E+05</totfact>
</mgrwt>
</event>
<event>
 8    1  0.7667702E-014  0.8035175E+02  0.7818608E-02  0.1328056E+00
         -1   -1    0    0    0  501 -0.00000000000E+00  0.00000000000E+00  0.57501242904E+02  0.57501243125E+02  0.50400000000E-02 0.  1.
          2   -1    0    0  501    0  0.00000000000E+00 -0.00000000000E+00 -0.28070715574E+02  0.28070715690E+02  0.25500000000E-02 0. -1.
         24    2    1    2    0    0 -0.71054273576E-14  0.00000000000E+00  0.29430527330E+02  0.85571958815E+02  0.80351752915E+02 0.  0.
         66    2    3    3    0    0  0.38332777618E+02 -0.57469758143E+01  0.25876878175E+02  0.46648069527E+02  0.19999989009E+01 0.  0.
        -13    1    3    3    0    0 -0.38332777618E+02  0.57469758143E+01  0.35536491550E+01  0.38923889288E+02  0.10566000000E+00 0.  1.
         13    1    4    4    0    0  0.13820783098E+02 -0.20366816723E+01  0.85516002819E+01  0.16379961816E+02  0.10566000000E+00 0. -1.
        -13    1    4    4    0    0  0.95914501427E+01 -0.18129707987E+01  0.62797944361E+01  0.11607314985E+02  0.10566000000E+00 0.  1.
        -14    1    4    4    0    0  0.14920544377E+02 -0.18973233433E+01  0.11045483457E+02  0.18660792726E+02  0.00000000000E+00 0.  1.
<mgrwt>
<rscale>  0 0.80351753E+02</rscale>
<asrwt>0</asrwt>
<pdfrwt beam="1">  1        2 0.43185717E-02 0.80351753E+02</pdfrwt>
<pdfrwt beam="2">  1       -1 0.88463450E-02 0.80351753E+02</pdfrwt>
<totfact> 0.13117189E+05</totfact>
</mgrwt>
</event>
<event>
 8    1  0.7667702E-014  0.7992982E+02  0.7818608E-02  0.1329251E+00
          2   -1    0    0  501    0  0.00000000000E+00  0.00000000000E+00  0.29713450979E+03  0.29713450980E+03  0.25500000000E-02 0. -1.
         -1   -1    0    0    0  501 -0.00000000000E+00 -0.00000000000E+00 -0.53753218780E+01  0.53753242408E+01  0.50400000000E-02 0.  1.
         24    2    1    2    0    0  0.00000000000E+00 -0.17763568394E-14  0.29175918791E+03  0.30250983404E+03  0.79929818972E+02 0.  0.
         66    2    3    3    0    0 -0.28881665635E+01  0.12800636576E+02  0.28873897106E+03  0.28904392610E+03  0.20000011391E+01 0.  0.
        -13    1    3    3    0    0  0.28881665635E+01 -0.12800636576E+02  0.30202168550E+01  0.13465907943E+02  0.10566000000E+00 0.  1.
         13    1    4    4    0    0 -0.14725812084E+01  0.64193482621E+01  0.16099872929E+03  0.16113341839E+03  0.10566000000E+00 0. -1.
        -13    1    4    4    0    0 -0.25520793581E-01  0.16922714870E+01  0.36243137997E+02  0.36282787241E+02  0.10566000000E+00 0.  1.
         14    1    4    4    0    0 -0.13900645615E+01  0.46890168269E+01  0.91497103775E+02  0.91627720465E+02  0.00000000000E+00 0. -1.
<mgrwt>
<rscale>  0 0.79929819E+02</rscale>
<asrwt>0</asrwt>
<pdfrwt beam="1">  1        2 0.45713000E-01 0.79929819E+02</pdfrwt>
<pdfrwt beam="2">  1       -1 0.82697281E-03 0.79929819E+02</pdfrwt>
<totfact> 0.25464573E+05</totfact>
</mgrwt>
</event>
<event>
 8    1  0.7667702E-014  0.7872670E+02  0.7818608E-02  0.1332704E+00
          2   -1    0    0  501    0  0.00000000000E+00  0.00000000000E+00  0.53038820309E+02  0.53038820370E+02  0.25500000000E-02 0. -1.
         -1   -1    0    0    0  501 -0.00000000000E+00 -0.00000000000E+00 -0.29213949139E+02  0.29213949573E+02  0.50400000000E-02 0.  1.
         24    2    1    2    0    0  0.00000000000E+00  0.00000000000E+00  0.23824871170E+02  0.82252769944E+02  0.78726702440E+02 0.  0.
         66    2    3    3    0    0  0.28273667080E+02  0.26817390464E+02  0.63038603445E+01  0.39526084303E+02  0.20000009103E+01 0.  0.
        -13    1    3    3    0    0 -0.28273667080E+02 -0.26817390464E+02  0.17521010826E+02  0.42726685641E+02  0.10566000000E+00 0.  1.
         13    1    4    4    0    0  0.22681596943E+02  0.20821509526E+02  0.47131019349E+01  0.31148267892E+02  0.10566000000E+00 0. -1.
        -13    1    4    4    0    0  0.36362557042E+01  0.35252822508E+01  0.79320835659E+00  0.51274081198E+01  0.10566000000E+00 0.  1.
        -14    1    4    4    0    0  0.19558144328E+01  0.24705986877E+01  0.79755005309E+00  0.32504082911E+01  0.00000000000E+00 0.  1.
<mgrwt>
<rscale>  0 0.78726702E+02</rscale>
<asrwt>0</asrwt>
<pdfrwt beam="1">  1        2 0.81598185E-02 0.78726702E+02</pdfrwt>
<pdfrwt beam="2">  1       -1 0.44944538E-02 0.78726702E+02</pdfrwt>
<totfact> 0.15815733E+05</totfact>
</mgrwt>
</event>
<event>
 8    1  0.7667702E-014  0.8357113E+02  0.7818608E-02  0.1319212E+00
          2   -1    0    0  501    0  0.00000000000E+00  0.00000000000E+00  0.94059466557E+02  0.94059466592E+02  0.25500000000E-02 0. -1.
         -1   -1    0    0    0  501 -0.00000000000E+00 -0.00000000000E+00 -0.18563078223E+02  0.18563078907E+02  0.50400000000E-02 0.  1.
         24    2    1    2    0    0  0.35527136788E-14  0.00000000000E+00  0.75496388335E+02  0.11262254550E+03  0.83571126013E+02 0.  0.
         66    2    3    3    0    0  0.18248594234E+02 -0.26719017398E+02  0.73350913818E+02  0.80195222033E+02  0.19999991790E+01 0.  0.
        -13    1    3    3    0    0 -0.18248594234E+02  0.26719017398E+02  0.21454745162E+01  0.32427323466E+02  0.10566000000E+00 0.  1.
         13    1    4    4    0    0  0.71569450912E+01 -0.93049605765E+01  0.25685173528E+02  0.28240811914E+02  0.10566000000E+00 0. -1.
        -13    1    4    4    0    0  0.48608548860E+00 -0.69920930767E+00  0.24248506961E+01  0.25722048309E+01  0.10566000000E+00 0.  1.
         14    1    4    4    0    0  0.10605563654E+02 -0.16714847514E+02  0.45240889595E+02  0.49382205288E+02  0.00000000000E+00 0. -1.
<mgrwt>
<rscale>  0 0.83571126E+02</rscale>
<asrwt>0</asrwt>
<pdfrwt beam="1">  1        2 0.14470687E-01 0.83571126E+02</pdfrwt>
<pdfrwt beam="2">  1       -1 0.28558582E-02 0.83571126E+02</pdfrwt>
<totfact> 0.15496144E+05</totfact>
</mgrwt>
</event>
<event>
 8    1  0.7667702E-014  0.8317471E+02  0.7818608E-02  0.1320276E+00
          2   -1    0    0  501    0  0.00000000000E+00  0.00000000000E+00  0.34160648859E+03  0.34160648860E+03  0.25500000000E-02 0. -1.
         -1   -1    0    0    0  501 -0.00000000000E+00 -0.00000000000E+00 -0.50628648474E+01  0.50628673561E+01  0.50400000000E-02 0.  1.
         24    2    1    2    0    0  0.00000000000E+00  0.00000000000E+00  0.33654362374E+03  0.34666935595E+03  0.83174705751E+02 0.  0.
         66    2    3    3    0    0 -0.35449929573E+02  0.73361422261E+01  0.25347972605E+03  0.25605953997E+03  0.20000000850E+01 0.  0.
        -13    1    3    3    0    0  0.35449929573E+02 -0.73361422261E+01  0.83063897689E+02  0.90609815985E+02  0.10566000000E+00 0.  1.
         13    1    4    4    0    0 -0.13538729394E+02  0.27310581096E+01  0.99384198151E+02  0.10033935359E+03  0.10566000000E+00 0. -1.
        -13    1    4    4    0    0 -0.13014194491E+02  0.24336513593E+01  0.95437383709E+02  0.96351425990E+02  0.10566000000E+00 0.  1.
        -14    1    4    4    0    0 -0.88970056877E+01  0.21714327572E+01  0.58658144190E+02  0.59368760390E+02  0.00000000000E+00 0.  1.
<mgrwt>
<rscale>  0 0.83174706E+02</rscale>
<asrwt>0</asrwt>
<pdfrwt beam="1">  1        2 0.52554832E-01 0.83174706E+02</pdfrwt>
<pdfrwt beam="2">  1       -1 0.77890266E-03 0.83174706E+02</pdfrwt>
<totfact> 0.24124644E+05</totfact>
</mgrwt>
</event>
<event>
 8    1  0.7667702E-014  0.7628595E+02  0.7818608E-02  0.1339934E+00
          2   -1    0    0  501    0  0.00000000000E+00  0.00000000000E+00  0.46161550010E+02  0.46161550081E+02  0.25500000000E-02 0. -1.
         -1   -1    0    0    0  501 -0.00000000000E+00 -0.00000000000E+00 -0.31517276674E+02  0.31517277077E+02  0.50400000000E-02 0.  1.
         24    2    1    2    0    0  0.00000000000E+00  0.35527136788E-14  0.14644273336E+02  0.77678827158E+02  0.76285945279E+02 0.  0.
         66    2    3    3    0    0  0.40747225796E+01  0.16509624102E+02  0.42063217842E+02  0.45414594114E+02  0.20000028040E+01 0.  0.
        -13    1    3    3    0    0 -0.40747225796E+01 -0.16509624102E+02 -0.27418944506E+02  0.32264233044E+02  0.10566000000E+00 0.  1.
         13    1    4    4    0    0  0.33617507086E+01  0.99528661909E+01  0.24971828060E+02  0.27091775024E+02  0.10566000000E+00 0. -1.
        -13    1    4    4    0    0  0.50440049520E+00  0.48515815028E+01  0.13002989393E+02  0.13888166190E+02  0.10566000000E+00 0.  1.
         14    1    4    4    0    0  0.20857137583E+00  0.17051764083E+01  0.40884003885E+01  0.44346528994E+01  0.00000000000E+00 0. -1.
<mgrwt>
<rscale>  0 0.76285945E+02</rscale>
<asrwt>0</asrwt>
<pdfrwt beam="1">  1        2 0.71017769E-02 0.76285945E+02</pdfrwt>
<pdfrwt beam="2">  1       -1 0.48488118E-02 0.76285945E+02</pdfrwt>
<totfact> 0.16730483E+05</totfact>
</mgrwt>
</event>
<event>
 8    1  0.7667702E-014  0.8078208E+02  0.7818608E-02  0.1326847E+00
          2   -1    0    0  501    0  0.00000000000E+00  0.00000000000E+00  0.30601179508E+03  0.30601179509E+03  0.25500000000E-02 0. -1.
         -1   -1    0    0    0  501 -0.00000000000E+00 -0.00000000000E+00 -0.53312838693E+01  0.53312862516E+01  0.50400000000E-02 0.  1.
         24    2    1    2    0    0  0.88817841970E-15  0.00000000000E+00  0.30068051121E+03  0.31134308134E+03  0.80782080176E+02 0.  0.
         66    2    3    3    0    0 -0.72529441911E+01  0.33420869363E+02  0.23308206442E+03  0.23558609565E+03  0.20000003403E+01 0.  0.
        -13    1    3    3    0    0  0.72529441911E+01 -0.33420869363E+02  0.67598446789E+02  0.75756985689E+02  0.10566000000E+00 0.  1.
         13    1    4    4    0    0 -0.10148410043E+01  0.61505920777E+01  0.45903034595E+02  0.46324501446E+02  0.10566000000E+00 0. -1.
        -13    1    4    4    0    0 -0.31409859214E-01  0.75385329608E+00  0.56623069284E+01  0.57133322290E+01  0.10566000000E+00 0.  1.
         14    1    4    4    0    0 -0.62066933276E+01  0.26516423989E+02  0.18151672289E+03  0.18354826197E+03  0.00000000000E+00 0. -1.
<mgrwt>
<rscale>  0 0.80782080E+02</rscale>
<asrwt>0</asrwt>
<pdfrwt beam="1">  1        2 0.47078725E-01 0.80782080E+02</pdfrwt>
<pdfrwt beam="2">  1       -1 0.82019793E-03 0.80782080E+02</pdfrwt>
<totfact> 0.25031408E+05</totfact>
</mgrwt>
</event>
<event>
 8    1  0.7667702E-014  0.8018195E+02  0.7818608E-02  0.1328536E+00
         -1   -1    0    0    0  501 -0.00000000000E+00  0.00000000000E+00  0.16069003669E+02  0.16069004460E+02  0.50400000000E-02 0.  1.
          2   -1    0    0  501    0  0.00000000000E+00 -0.00000000000E+00 -0.10002401364E+03  0.10002401367E+03  0.25500000000E-02 0. -1.
         24    2    1    2    0    0  0.16653345369E-15 -0.35527136788E-14 -0.83955009970E+02  0.11609301813E+03  0.80181950337E+02 0.  0.
         66    2    3    3    0    0 -0.23792522679E+00  0.23925926775E+02 -0.88533467454E+02  0.91731572825E+02  0.20000032541E+01 0.  0.
        -13    1    3    3    0    0  0.23792522679E+00 -0.23925926775E+02  0.45784574843E+01  0.24361445307E+02  0.10566000000E+00 0.  1.
         13    1    4    4    0    0 -0.37375222826E+00  0.60788010075E+01 -0.21461620248E+02  0.22309276549E+02  0.10566000000E+00 0. -1.
        -13    1    4    4    0    0  0.39542831849E+00  0.35481351176E+01 -0.15311357029E+02  0.15722418531E+02  0.10566000000E+00 0.  1.
        -14    1    4    4    0    0 -0.25960131702E+00  0.14298990650E+02 -0.51760490177E+02  0.53699877745E+02  0.00000000000E+00 0.  1.
<mgrwt>
<rscale>  0 0.80181950E+02</rscale>
<asrwt>0</asrwt>
<pdfrwt beam="1">  1        2 0.15388309E-01 0.80181950E+02</pdfrwt>
<pdfrwt beam="2">  1       -1 0.24721545E-02 0.80181950E+02</pdfrwt>
<totfact> 0.17619472E+05</totfact>
</mgrwt>
</event>
<event>
 8    1  0.7667702E-014  0.8106100E+02  0.7818608E-02  0.1326067E+00
         -1   -1    0    0    0  501 -0.00000000000E+00  0.00000000000E+00  0.98500823634E+01  0.98500836529E+01  0.50400000000E-02 0.  1.
          2   -1    0    0  501    0  0.00000000000E+00 -0.00000000000E+00 -0.16677232441E+03  0.16677232443E+03  0.25500000000E-02 0. -1.
         24    2    1    2    0    0  0.17763568394E-14 -0.17763568394E-14 -0.15692224205E+03  0.17662240808E+03  0.81060995478E+02 0.  0.
         66    2    3    3    0    0  0.12946437102E+02 -0.11397683162E+02 -0.15836410209E+03  0.15931323307E+03  0.19999964060E+01 0.  0.
        -13    1    3    3    0    0 -0.12946437102E+02  0.11397683162E+02  0.14418600451E+01  0.17309175010E+02  0.10566000000E+00 0.  1.
         13    1    4    4    0    0  0.39866425811E+01 -0.29391309249E+01 -0.49932355822E+02  0.50177516196E+02  0.10566000000E+00 0. -1.
        -13    1    4    4    0    0  0.82410549600E-01 -0.23311535871E+00 -0.19581241620E+01  0.19764990611E+01  0.10566000000E+00 0. -1.
        -14    1    4    4    0    0  0.88773839715E+01 -0.82254368782E+01 -0.10647362211E+03  0.10715921781E+03  0.00000000000E+00 0.  1.
<mgrwt>
<rscale>  0 0.81060995E+02</rscale>
<asrwt>0</asrwt>
<pdfrwt beam="1">  1        2 0.25657279E-01 0.81060995E+02</pdfrwt>
<pdfrwt beam="2">  1       -1 0.15153975E-02 0.81060995E+02</pdfrwt>
<totfact> 0.20025218E+05</totfact>
</mgrwt>
</event>
<event>
 8    1  0.7667702E-014  0.7677641E+02  0.7818608E-02  0.1338457E+00
         -1   -1    0    0    0  501 -0.00000000000E+00  0.00000000000E+00  0.30703381022E+02  0.30703381435E+02  0.50400000000E-02 0.  1.
          2   -1    0    0  501    0  0.00000000000E+00 -0.00000000000E+00 -0.47996483710E+02  0.47996483778E+02  0.25500000000E-02 0. -1.
         24    2    1    2    0    0  0.00000000000E+00  0.00000000000E+00 -0.17293102689E+02  0.78699865213E+02  0.76776411638E+02 0.  0.
         66    2    3    3    0    0 -0.25407139086E+02 -0.19700756325E+02 -0.30105334776E+02  0.44090517178E+02  0.20000016885E+01 0.  0.
        -13    1    3    3    0    0  0.25407139086E+02  0.19700756325E+02  0.12812232088E+02  0.34609348035E+02  0.10566000000E+00 0.  1.
         13    1    4    4    0    0 -0.16190002079E+02 -0.13656663178E+02 -0.19427309426E+02  0.28741122665E+02  0.10566000000E+00 0. -1.
        -13    1    4    4    0    0 -0.54316636400E+01 -0.37256802928E+01 -0.63894651999E+01  0.91771505991E+01  0.10566000000E+00 0.  1.
         14    1    4    4    0    0 -0.37854733666E+01 -0.23184128548E+01 -0.42885601508E+01  0.61722439146E+01  0.00000000000E+00 0. -1.
<mgrwt>
<rscale>  0 0.76776412E+02</rscale>
<asrwt>0</asrwt>
<pdfrwt beam="1">  1        2 0.73840744E-02 0.76776412E+02</pdfrwt>
<pdfrwt beam="2">  1       -1 0.47235972E-02 0.76776412E+02</pdfrwt>
<totfact> 0.16575131E+05</totfact>
</mgrwt>
</event>
<event>
 8    1  0.7667702E-014  0.7926815E+02  0.7818608E-02  0.1331141E+00
          2   -1    0    0  501    0  0.00000000000E+00  0.00000000000E+00  0.49619553793E+02  0.49619553858E+02  0.25500000000E-02 0. -1.
         -1   -1    0    0    0  501 -0.00000000000E+00 -0.00000000000E+00 -0.31658078733E+02  0.31658079135E+02  0.50400000000E-02 0.  1.
         24    2    1    2    0    0  0.00000000000E+00  0.00000000000E+00  0.17961475059E+02  0.81277632993E+02  0.79268146431E+02 0.  0.
         66    2    3    3    0    0  0.38865872101E+02  0.52924415116E+01  0.33433897998E+01  0.39417562138E+02  0.19999995517E+01 0.  0.
        -13    1    3    3    0    0 -0.38865872101E+02 -0.52924415116E+01  0.14618085259E+02  0.41860070855E+02  0.10566000000E+00 0.  1.
         13    1    4    4    0    0  0.44170307217E+01  0.84586709352E+00  0.27302590884E+00  0.45068124788E+01  0.10566000000E+00 0.  1.
        -13    1    4    4    0    0  0.19624120959E+02  0.26272035753E+01  0.92044154666E+00  0.19820865237E+02  0.10566000000E+00 0. -1.
         14    1    4    4    0    0  0.14824720420E+02  0.18193708428E+01  0.21499223443E+01  0.15089884422E+02  0.00000000000E+00 0. -1.
<mgrwt>
<rscale>  0 0.79268146E+02</rscale>
<asrwt>0</asrwt>
<pdfrwt beam="1">  1        2 0.76337775E-02 0.79268146E+02</pdfrwt>
<pdfrwt beam="2">  1       -1 0.48704737E-02 0.79268146E+02</pdfrwt>
<totfact> 0.15298389E+05</totfact>
</mgrwt>
</event>
<event>
 8    1  0.7667702E-014  0.7703033E+02  0.7818608E-02  0.1337697E+00
          2   -1    0    0  501    0  0.00000000000E+00  0.00000000000E+00  0.21736233247E+03  0.21736233248E+03  0.25500000000E-02 0. -1.
         -1   -1    0    0    0  501 -0.00000000000E+00 -0.00000000000E+00 -0.68246310099E+01  0.68246328709E+01  0.50400000000E-02 0.  1.
         24    2    1    2    0    0  0.00000000000E+00  0.00000000000E+00  0.21053770146E+03  0.22418696535E+03  0.77030329737E+02 0.  0.
         66    2    3    3    0    0  0.17977220794E+02 -0.65181088704E+00  0.20436962478E+03  0.20516956125E+03  0.20000014014E+01 0.  0.
        -13    1    3    3    0    0 -0.17977220794E+02  0.65181088704E+00  0.61680766767E+01  0.19017404103E+02  0.10566000000E+00 0.  1.
         13    1    4    4    0    0  0.67770459100E+01 -0.42888925925E-01  0.73790879406E+02  0.74101519811E+02  0.10566000000E+00 0. -1.
        -13    1    4    4    0    0  0.17469837093E+01 -0.97187799717E-01  0.14956003506E+02  0.15058373168E+02  0.10566000000E+00 0.  1.
         14    1    4    4    0    0  0.94531911746E+01 -0.51173416140E+00  0.11562274187E+03  0.11600966827E+03  0.00000000000E+00 0. -1.
<mgrwt>
<rscale>  0 0.77030330E+02</rscale>
<asrwt>0</asrwt>
<pdfrwt beam="1">  1        2 0.33440361E-01 0.77030330E+02</pdfrwt>
<pdfrwt beam="2">  1       -1 0.10499433E-02 0.77030330E+02</pdfrwt>
<totfact> 0.25085841E+05</totfact>
</mgrwt>
</event>
<event>
 8    1  0.7667702E-014  0.7978216E+02  0.7818608E-02  0.1329671E+00
          2   -1    0    0  501    0  0.00000000000E+00  0.00000000000E+00  0.21857863454E+03  0.21857863456E+03  0.25500000000E-02 0. -1.
         -1   -1    0    0    0  501 -0.00000000000E+00 -0.00000000000E+00 -0.72802087753E+01  0.72802105199E+01  0.50400000000E-02 0.  1.
         24    2    1    2    0    0  0.00000000000E+00  0.44408920985E-15  0.21129842577E+03  0.22585884508E+03  0.79782160712E+02 0.  0.
         66    2    3    3    0    0 -0.26732773954E+02  0.36457968837E+01  0.18880063171E+03  0.19072915764E+03  0.20000000923E+01 0.  0.
        -13    1    3    3    0    0  0.26732773954E+02 -0.36457968837E+01  0.22497794057E+02  0.35129687441E+02  0.10566000000E+00 0.  1.
         13    1    4    4    0    0 -0.69151208004E+01  0.11342285948E+01  0.46752221294E+02  0.47274588630E+02  0.10566000000E+00 0. -1.
        -13    1    4    4    0    0 -0.23789170596E+01  0.24570071616E+00  0.13794177497E+02  0.14000361140E+02  0.10566000000E+00 0.  1.
        -14    1    4    4    0    0 -0.17438736094E+02  0.22658675728E+01  0.12825423292E+03  0.12945420787E+03  0.00000000000E+00 0.  1.
<mgrwt>
<rscale>  0 0.79782161E+02</rscale>
<asrwt>0</asrwt>
<pdfrwt beam="1">  1        2 0.33627487E-01 0.79782161E+02</pdfrwt>
<pdfrwt beam="2">  1       -1 0.11200321E-02 0.79782161E+02</pdfrwt>
<totfact> 0.22919178E+05</totfact>
</mgrwt>
</event>
<event>
 8    1  0.7667702E-014  0.7899993E+02  0.7818608E-02  0.1331914E+00
         -1   -1    0    0    0  501 -0.00000000000E+00  0.00000000000E+00  0.66218642189E+02  0.66218642381E+02  0.50400000000E-02 0.  1.
          2   -1    0    0  501    0  0.00000000000E+00 -0.00000000000E+00 -0.23562054063E+02  0.23562054201E+02  0.25500000000E-02 0. -1.
         24    2    1    2    0    0 -0.35527136788E-14  0.88817841970E-15  0.42656588126E+02  0.89780696582E+02  0.78999930179E+02 0.  0.
         66    2    3    3    0    0 -0.30449585500E+02  0.54312442865E+01 -0.65319996006E+01  0.31675584947E+02  0.19999978323E+01 0.  0.
        -13    1    3    3    0    0  0.30449585500E+02 -0.54312442865E+01  0.49188587727E+02  0.58105111636E+02  0.10566000000E+00 0.  1.
         13    1    4    4    0    0 -0.94315380769E+01  0.24491719222E+01 -0.16647074483E+01  0.98860896478E+01  0.10566000000E+00 0. -1.
        -13    1    4    4    0    0 -0.48098735107E+01  0.93752240540E+00 -0.12015169960E+01  0.50466462703E+01  0.10566000000E+00 0.  1.
         14    1    4    4    0    0 -0.16208173912E+02  0.20445499589E+01 -0.36657751563E+01  0.16742849029E+02  0.00000000000E+00 0. -1.
<mgrwt>
<rscale>  0 0.78999930E+02</rscale>
<asrwt>0</asrwt>
<pdfrwt beam="1">  1        2 0.36249315E-02 0.78999930E+02</pdfrwt>
<pdfrwt beam="2">  1       -1 0.10187483E-01 0.78999930E+02</pdfrwt>
<totfact> 0.13295635E+05</totfact>
</mgrwt>
</event>
<event>
 8    1  0.7667702E-014  0.8039998E+02  0.7818608E-02  0.1327920E+00
         -1   -1    0    0    0  501 -0.00000000000E+00  0.00000000000E+00  0.13761406293E+03  0.13761406303E+03  0.50400000000E-02 0.  1.
          2   -1    0    0  501    0  0.00000000000E+00 -0.00000000000E+00 -0.11743271540E+02  0.11743271817E+02  0.25500000000E-02 0. -1.
         24    2    1    2    0    0  0.00000000000E+00  0.00000000000E+00  0.12587079139E+03  0.14935733484E+03  0.80399983490E+02 0.  0.
         66    2    3    3    0    0  0.11449112390E+02  0.20213384494E+02  0.20839766347E+01  0.23409529148E+02  0.20000022732E+01 0.  0.
        -13    1    3    3    0    0 -0.11449112390E+02 -0.20213384494E+02  0.12378681476E+03  0.12594780570E+03  0.10566000000E+00 0.  1.
         13    1    4    4    0    0  0.56572102318E+01  0.11303109679E+02  0.16801170365E+01  0.12751402798E+02  0.10566000000E+00 0. -1.
        -13    1    4    4    0    0  0.31440840193E+01  0.52036089577E+01 -0.45234068369E-01  0.60807911214E+01  0.10566000000E+00 0.  1.
         14    1    4    4    0    0  0.26478181387E+01  0.37066658571E+01  0.44909366655E+00  0.45773352284E+01  0.00000000000E+00 0. -1.
<mgrwt>
<rscale>  0 0.80399983E+02</rscale>
<asrwt>0</asrwt>
<pdfrwt beam="1">  1        2 0.18066572E-02 0.80399983E+02</pdfrwt>
<pdfrwt beam="2">  1       -1 0.21171394E-01 0.80399983E+02</pdfrwt>
<totfact> 0.10883916E+05</totfact>
</mgrwt>
</event>
<event>
 8    1  0.7805046E-014  0.8072625E+02  0.7818608E-02  0.1327003E+00
         -1   -1    0    0    0  501 -0.00000000000E+00  0.00000000000E+00  0.51359338868E+02  0.51359339115E+02  0.50400000000E-02 0.  1.
          2   -1    0    0  501    0  0.00000000000E+00 -0.00000000000E+00 -0.31721235629E+02  0.31721235732E+02  0.25500000000E-02 0. -1.
         24    2    1    2    0    0  0.71054273576E-14  0.00000000000E+00  0.19638103238E+02  0.83080574847E+02  0.80726246154E+02 0.  0.
         66    2    3    3    0    0 -0.30201720575E+02 -0.15047496904E+02 -0.12924025377E+02  0.36188416944E+02  0.20000000426E+01 0.  0.
        -13    1    3    3    0    0  0.30201720575E+02  0.15047496904E+02  0.32562128616E+02  0.46892157903E+02  0.10566000000E+00 0.  1.
         13    1    4    4    0    0 -0.12358041210E+02 -0.65269690858E+01 -0.53777847745E+01  0.14975120738E+02  0.10566000000E+00 0. -1.
        -13    1    4    4    0    0 -0.79050613067E+01 -0.45041595528E+01 -0.31762693250E+01  0.96372868797E+01  0.10566000000E+00 0.  1.
        -14    1    4    4    0    0 -0.99386180585E+01 -0.40163682650E+01 -0.43699712777E+01  0.11576009326E+02  0.00000000000E+00 0.  1.
<mgrwt>
<rscale>  0 0.80726246E+02</rscale>
<asrwt>0</asrwt>
<pdfrwt beam="1">  1        2 0.48801901E-02 0.80726246E+02</pdfrwt>
<pdfrwt beam="2">  1       -1 0.79014368E-02 0.80726246E+02</pdfrwt>
<totfact> 0.13264966E+05</totfact>
</mgrwt>
</event>
<event>
 8    1  0.7667702E-014  0.7843360E+02  0.7818608E-02  0.1333556E+00
         -1   -1    0    0    0  501 -0.00000000000E+00  0.00000000000E+00  0.32429873024E+02  0.32429873415E+02  0.50400000000E-02 0.  1.
          2   -1    0    0  501    0  0.00000000000E+00 -0.00000000000E+00 -0.47424097022E+02  0.47424097090E+02  0.25500000000E-02 0. -1.
         24    2    1    2    0    0  0.00000000000E+00  0.17763568394E-14 -0.14994223998E+02  0.79853970506E+02  0.78433601551E+02 0.  0.
         66    2    3    3    0    0  0.23016752341E+02 -0.13363195041E+02 -0.36791094597E+02  0.45452508299E+02  0.19999997525E+01 0.  0.
        -13    1    3    3    0    0 -0.23016752341E+02  0.13363195041E+02  0.21796870598E+02  0.34401462207E+02  0.10566000000E+00 0.  1.
         13    1    4    4    0    0  0.88438796690E+01 -0.52362010036E+01 -0.13429437663E+02  0.16911326634E+02  0.10566000000E+00 0. -1.
        -13    1    4    4    0    0  0.37649826161E+01 -0.28338127182E+01 -0.63703057405E+01  0.79244903864E+01  0.10566000000E+00 0.  1.
        -14    1    4    4    0    0  0.10407890056E+02 -0.52931813195E+01 -0.16991351193E+02  0.20616691278E+02  0.00000000000E+00 0.  1.
<mgrwt>
<rscale>  0 0.78433602E+02</rscale>
<asrwt>0</asrwt>
<pdfrwt beam="1">  1        2 0.72960149E-02 0.78433602E+02</pdfrwt>
<pdfrwt beam="2">  1       -1 0.49892113E-02 0.78433602E+02</pdfrwt>
<totfact> 0.15596073E+05</totfact>
</mgrwt>
</event>
<event>
 8    1  0.7667702E-014  0.7876230E+02  0.7818608E-02  0.1332601E+00
         -1   -1    0    0    0  501 -0.00000000000E+00  0.00000000000E+00  0.37230466617E+02  0.37230466958E+02  0.50400000000E-02 0.  1.
          2   -1    0    0  501    0  0.00000000000E+00 -0.00000000000E+00 -0.41656069260E+02  0.41656069339E+02  0.25500000000E-02 0. -1.
         24    2    1    2    0    0  0.35527136788E-14  0.00000000000E+00 -0.44256026435E+01  0.78886536297E+02  0.78762298406E+02 0.  0.
         66    2    3    3    0    0 -0.25553967888E+02 -0.17093607644E+02 -0.26822743358E+02  0.40849189211E+02  0.20000002142E+01 0.  0.
        -13    1    3    3    0    0  0.25553967888E+02  0.17093607644E+02  0.22397140715E+02  0.38037347086E+02  0.10566000000E+00 0.  1.
         13    1    4    4    0    0 -0.68132839457E+01 -0.42334142079E+01 -0.78792971964E+01  0.11244426278E+02  0.10566000000E+00 0. -1.
        -13    1    4    4    0    0 -0.17386766309E+02 -0.11656869291E+02 -0.17616392204E+02  0.27359288782E+02  0.10566000000E+00 0.  1.
        -14    1    4    4    0    0 -0.13539176326E+01 -0.12033241443E+01 -0.13270539585E+01  0.22454741505E+01  0.00000000000E+00 0.  1.
<mgrwt>
<rscale>  0 0.78762298E+02</rscale>
<asrwt>0</asrwt>
<pdfrwt beam="1">  1        2 0.64086260E-02 0.78762298E+02</pdfrwt>
<pdfrwt beam="2">  1       -1 0.57277642E-02 0.78762298E+02</pdfrwt>
<totfact> 0.15006340E+05</totfact>
</mgrwt>
</event>
<event>
 8    1  0.7667702E-014  0.7867972E+02  0.7818608E-02  0.1332841E+00
          2   -1    0    0  501    0  0.00000000000E+00  0.00000000000E+00  0.41241500214E+03  0.41241500215E+03  0.25500000000E-02 0. -1.
         -1   -1    0    0    0  501 -0.00000000000E+00 -0.00000000000E+00 -0.37525885820E+01  0.37525919665E+01  0.50400000000E-02 0.  1.
         24    2    1    2    0    0  0.27755575616E-16  0.00000000000E+00  0.40866241356E+03  0.41616759411E+03  0.78679718708E+02 0.  0.
         66    2    3    3    0    0  0.21675443226E+00 -0.37704586205E+02  0.26334799028E+03  0.26604106221E+03  0.19999992088E+01 0.  0.
        -13    1    3    3    0    0 -0.21675443226E+00  0.37704586205E+02  0.14531442328E+03  0.15012653190E+03  0.10566000000E+00 0.  1.
         13    1    4    4    0    0  0.52131027743E+00 -0.17668615329E+02  0.12286709669E+03  0.12413213260E+03  0.10566000000E+00 0. -1.
        -13    1    4    4    0    0  0.32487958735E+00 -0.13226107611E+02  0.94908239834E+02  0.95825991368E+02  0.10566000000E+00 0.  1.
        -14    1    4    4    0    0 -0.62943543252E+00 -0.68098632649E+01  0.45572653756E+02  0.46082938242E+02  0.00000000000E+00 0.  1.
<mgrwt>
<rscale>  0 0.78679719E+02</rscale>
<asrwt>0</asrwt>
<pdfrwt beam="1">  1        2 0.63448419E-01 0.78679719E+02</pdfrwt>
<pdfrwt beam="2">  1       -1 0.57732197E-03 0.78679719E+02</pdfrwt>
<totfact> 0.29822951E+05</totfact>
</mgrwt>
</event>
<event>
 8    1  0.7667702E-014  0.8722638E+02  0.7818608E-02  0.1309711E+00
          2   -1    0    0  501    0  0.00000000000E+00  0.00000000000E+00  0.76553580806E+01  0.76553585053E+01  0.25500000000E-02 0. -1.
         -1   -1    0    0    0  501 -0.00000000000E+00 -0.00000000000E+00 -0.24846784618E+03  0.24846784623E+03  0.50400000000E-02 0.  1.
         24    2    1    2    0    0  0.00000000000E+00  0.35527136788E-14 -0.24081248810E+03  0.25612320474E+03  0.87226381215E+02 0.  0.
         66    2    3    3    0    0 -0.25599423149E+02 -0.27576535642E+02 -0.55850017666E+02  0.67372251318E+02  0.19999976912E+01 0.  0.
        -13    1    3    3    0    0  0.25599423149E+02  0.27576535642E+02 -0.18496247043E+03  0.18875095342E+03  0.10566000000E+00 0.  1.
         13    1    4    4    0    0 -0.87613101155E+01 -0.90853236252E+01 -0.18392842837E+02  0.22307207176E+02  0.10566000000E+00 0. -1.
        -13    1    4    4    0    0 -0.22955795072E+01 -0.20218639451E+01 -0.39547961471E+01  0.50009194841E+01  0.10566000000E+00 0.  1.
         14    1    4    4    0    0 -0.14542533527E+02 -0.16469348071E+02 -0.33502378681E+02  0.40064124657E+02  0.00000000000E+00 0. -1.
<mgrwt>
<rscale>  0 0.87226381E+02</rscale>
<asrwt>0</asrwt>
<pdfrwt beam="1">  1        2 0.11777476E-02 0.87226381E+02</pdfrwt>
<pdfrwt beam="2">  1       -1 0.38225816E-01 0.87226381E+02</pdfrwt>
<totfact> 0.74370209E+04</totfact>
</mgrwt>
</event>
<event>
 8    1  0.7667702E-014  0.7915332E+02  0.7818608E-02  0.1331472E+00
          2   -1    0    0  501    0  0.00000000000E+00  0.00000000000E+00  0.32008398164E+02  0.32008398266E+02  0.25500000000E-02 0. -1.
         -1   -1    0    0    0  501 -0.00000000000E+00 -0.00000000000E+00 -0.48934404564E+02  0.48934404824E+02  0.50400000000E-02 0.  1.
         24    2    1    2    0    0  0.00000000000E+00  0.00000000000E+00 -0.16926006400E+02  0.80942803089E+02  0.79153317551E+02 0.  0.
         66    2    3    3    0    0 -0.23007727002E+02 -0.15418329371E+02  0.20405146616E+02  0.34459402483E+02  0.20000071749E+01 0.  0.
        -13    1    3    3    0    0  0.23007727002E+02  0.15418329371E+02 -0.37331153016E+02  0.46483400606E+02  0.10566000000E+00 0.  1.
         13    1    4    4    0    0 -0.80091871172E+00 -0.42493248660E+00  0.58596135764E+00  0.10846903472E+01  0.10566000000E+00 0.  1.
        -13    1    4    4    0    0 -0.20157456149E+00 -0.79807889285E-02  0.13320087566E+00  0.26382286805E+00  0.10566000000E+00 0.  1.
         14    1    4    4    0    0 -0.22005233729E+02 -0.14985416096E+02  0.19685984382E+02  0.33110889268E+02  0.00000000000E+00 0. -1.
<mgrwt>
<rscale>  0 0.79153318E+02</rscale>
<asrwt>0</asrwt>
<pdfrwt beam="1">  1        2 0.49243690E-02 0.79153318E+02</pdfrwt>
<pdfrwt beam="2">  1       -1 0.75283700E-02 0.79153318E+02</pdfrwt>
<totfact> 0.14039689E+05</totfact>
</mgrwt>
</event>
<event>
 8    1  0.7667702E-014  0.8315134E+02  0.7818608E-02  0.1320339E+00
         -1   -1    0    0    0  501 -0.00000000000E+00  0.00000000000E+00  0.21351970780E+01  0.21352030263E+01  0.50400000000E-02 0.  1.
          2   -1    0    0  501    0  0.00000000000E+00 -0.00000000000E+00 -0.80954311422E+03  0.80954311423E+03  0.25500000000E-02 0. -1.
         24    2    1    2    0    0  0.00000000000E+00 -0.88817841970E-15 -0.80740791714E+03  0.81167831725E+03  0.83151344130E+02 0.  0.
         66    2    3    3    0    0 -0.19616582409E+02  0.75931430298E+01 -0.75372754282E+03  0.75402365675E+03  0.20000001342E+01 0.  0.
        -13    1    3    3    0    0  0.19616582409E+02 -0.75931430298E+01 -0.53680374321E+02  0.57654660504E+02  0.10566000000E+00 0.  1.
         13    1    4    4    0    0 -0.55859707089E+01  0.26268649896E+01 -0.20474348218E+03  0.20483654007E+03  0.10566000000E+00 0. -1.
        -13    1    4    4    0    0 -0.75536475196E+01  0.24661583457E+01 -0.27202658966E+03  0.27214263939E+03  0.10566000000E+00 0.  1.
        -14    1    4    4    0    0 -0.64769641805E+01  0.25001196944E+01 -0.27695747098E+03  0.27704447729E+03  0.00000000000E+00 0.  1.
<mgrwt>
<rscale>  0 0.83151344E+02</rscale>
<asrwt>0</asrwt>
<pdfrwt beam="1">  1        2 0.12454485E+00 0.83151344E+02</pdfrwt>
<pdfrwt beam="2">  1       -1 0.32849296E-03 0.83151344E+02</pdfrwt>
<totfact> 0.31140631E+05</totfact>
</mgrwt>
</event>
<event>
 8    1  0.7667702E-014  0.7980396E+02  0.7818608E-02  0.1329609E+00
          2   -1    0    0  501    0  0.00000000000E+00  0.00000000000E+00  0.12425526986E+04  0.12425526986E+04  0.25500000000E-02 0. -1.
         -1   -1    0    0    0  501 -0.00000000000E+00 -0.00000000000E+00 -0.12813634965E+01  0.12813734084E+01  0.50400000000E-02 0.  1.
         24    2    1    2    0    0  0.00000000000E+00  0.00000000000E+00  0.12412713351E+04  0.12438340720E+04  0.79803955705E+02 0.  0.
         66    2    3    3    0    0  0.12248895306E+02 -0.24105484018E+02  0.10778474573E+04  0.10781884116E+04  0.20000037044E+01 0.  0.
        -13    1    3    3    0    0 -0.12248895306E+02  0.24105484018E+02  0.16342387787E+03  0.16564566043E+03  0.10566000000E+00 0.  1.
         13    1    4    4    0    0  0.76015406467E+01 -0.16301486012E+02  0.71111856977E+03  0.71134601517E+03  0.10566000000E+00 0. -1.
        -13    1    4    4    0    0  0.12106121356E+01 -0.19206355903E+01  0.77872731845E+02  0.77905891638E+02  0.10566000000E+00 0.  1.
        -14    1    4    4    0    0  0.34367425238E+01 -0.58833624158E+01  0.28885615565E+03  0.28893650481E+03  0.00000000000E+00 0.  1.
<mgrwt>
<rscale>  0 0.79803956E+02</rscale>
<asrwt>0</asrwt>
<pdfrwt beam="1">  1        2 0.19116305E+00 0.79803956E+02</pdfrwt>
<pdfrwt beam="2">  1       -1 0.19713248E-03 0.79803956E+02</pdfrwt>
<totfact> 0.35105511E+05</totfact>
</mgrwt>
</event>
<event>
 8    1  0.7667702E-014  0.7966292E+02  0.7818608E-02  0.1330011E+00
          2   -1    0    0  501    0  0.00000000000E+00  0.00000000000E+00  0.36772988636E+03  0.36772988637E+03  0.25500000000E-02 0. -1.
         -1   -1    0    0    0  501 -0.00000000000E+00 -0.00000000000E+00 -0.43144292817E+01  0.43144322255E+01  0.50400000000E-02 0.  1.
         24    2    1    2    0    0 -0.35527136788E-14  0.35527136788E-14  0.36341545708E+03  0.37204431860E+03  0.79662918318E+02 0.  0.
         66    2    3    3    0    0  0.21779444049E+02  0.21234024560E+02  0.30173984122E+03  0.30327571575E+03  0.19999999671E+01 0.  0.
        -13    1    3    3    0    0 -0.21779444049E+02 -0.21234024560E+02  0.61675615856E+02  0.68768602846E+02  0.10566000000E+00 0.  1.
         13    1    4    4    0    0  0.55159267254E+01  0.57735367938E+01  0.82981863122E+02  0.83365220241E+02  0.10566000000E+00 0. -1.
        -13    1    4    4    0    0  0.31988067622E+01  0.37033394536E+01  0.50954926171E+02  0.51189478929E+02  0.10566000000E+00 0.  1.
        -14    1    4    4    0    0  0.13064710561E+02  0.11757148313E+02  0.16780305193E+03  0.16872101658E+03  0.00000000000E+00 0.  1.
<mgrwt>
<rscale>  0 0.79662918E+02</rscale>
<asrwt>0</asrwt>
<pdfrwt beam="1">  1        2 0.56573838E-01 0.79662918E+02</pdfrwt>
<pdfrwt beam="2">  1       -1 0.66375847E-03 0.79662918E+02</pdfrwt>
<totfact> 0.27731845E+05</totfact>
</mgrwt>
</event>
<event>
 8    1  0.7667702E-014  0.7901392E+02  0.7818608E-02  0.1331873E+00
         -1   -1    0    0    0  501 -0.00000000000E+00  0.00000000000E+00  0.35350850100E+01  0.35350886027E+01  0.50400000000E-02 0.  1.
          2   -1    0    0  501    0  0.00000000000E+00 -0.00000000000E+00 -0.44151666065E+03  0.44151666066E+03  0.25500000000E-02 0. -1.
         24    2    1    2    0    0  0.00000000000E+00 -0.17763568394E-14 -0.43798157564E+03  0.44505174926E+03  0.79013915986E+02 0.  0.
         66    2    3    3    0    0 -0.97877812988E+01 -0.87172863520E+01 -0.42890179195E+03  0.42910667541E+03  0.20000007549E+01 0.  0.
        -13    1    3    3    0    0  0.97877812988E+01  0.87172863520E+01 -0.90797836929E+01  0.15945073849E+02  0.10566000000E+00 0.  1.
         13    1    4    4    0    0 -0.18901656737E+01 -0.16279848665E+01 -0.97139211262E+02  0.97171295091E+02  0.10566000000E+00 0.  1.
        -13    1    4    4    0    0 -0.28290676845E+01 -0.30476449333E+01 -0.14819520288E+03  0.14825357023E+03  0.10566000000E+00 0. -1.
         14    1    4    4    0    0 -0.50685479407E+01 -0.40416565523E+01 -0.18356737780E+03  0.18368181009E+03  0.00000000000E+00 0. -1.
<mgrwt>
<rscale>  0 0.79013916E+02</rscale>
<asrwt>0</asrwt>
<pdfrwt beam="1">  1        2 0.67925597E-01 0.79013916E+02</pdfrwt>
<pdfrwt beam="2">  1       -1 0.54385986E-03 0.79013916E+02</pdfrwt>
<totfact> 0.30191325E+05</totfact>
</mgrwt>
</event>
<event>
 8    1  0.7667702E-014  0.7492546E+02  0.7818608E-02  0.1344102E+00
          2   -1    0    0  501    0  0.00000000000E+00  0.00000000000E+00  0.22810923182E+03  0.22810923183E+03  0.25500000000E-02 0. -1.
         -1   -1    0    0    0  501 -0.00000000000E+00 -0.00000000000E+00 -0.61525609253E+01  0.61525629896E+01  0.50400000000E-02 0.  1.
         24    2    1    2    0    0  0.00000000000E+00 -0.35527136788E-14  0.22195667089E+03  0.23426179482E+03  0.74925461356E+02 0.  0.
         66    2    3    3    0    0  0.28552628306E+02 -0.22183900029E+02  0.14138250034E+03  0.14594652928E+03  0.20000006017E+01 0.  0.
        -13    1    3    3    0    0 -0.28552628306E+02  0.22183900029E+02  0.80574170554E+02  0.88315265544E+02  0.10566000000E+00 0.  1.
         13    1    4    4    0    0  0.10253156546E+02 -0.80982876303E+01  0.53393470383E+02  0.54968930545E+02  0.10566000000E+00 0. -1.
        -13    1    4    4    0    0  0.10048911715E+02 -0.85137578342E+01  0.49964919607E+02  0.51671743288E+02  0.10566000000E+00 0.  1.
         14    1    4    4    0    0  0.82505600446E+01 -0.55718545650E+01  0.38024110348E+02  0.39305855442E+02  0.00000000000E+00 0. -1.
<mgrwt>
<rscale>  0 0.74925461E+02</rscale>
<asrwt>0</asrwt>
<pdfrwt beam="1">  1        2 0.35093721E-01 0.74925461E+02</pdfrwt>
<pdfrwt beam="2">  1       -1 0.94654818E-03 0.74925461E+02</pdfrwt>
<totfact> 0.27434853E+05</totfact>
</mgrwt>
</event>
<event>
 8    1  0.7667702E-014  0.8008443E+02  0.7818608E-02  0.1328812E+00
         -1   -1    0    0    0  501 -0.00000000000E+00  0.00000000000E+00  0.13522171254E+02  0.13522172193E+02  0.50400000000E-02 0.  1.
          2   -1    0    0  501    0  0.00000000000E+00 -0.00000000000E+00 -0.11857406698E+03  0.11857406701E+03  0.25500000000E-02 0. -1.
         24    2    1    2    0    0  0.35527136788E-14  0.00000000000E+00 -0.10505189572E+03  0.13209623920E+03  0.80084428043E+02 0.  0.
         66    2    3    3    0    0 -0.20537690232E+02  0.23223067655E+02 -0.94295758696E+02  0.99281406589E+02  0.19999987011E+01 0.  0.
        -13    1    3    3    0    0  0.20537690232E+02 -0.23223067655E+02 -0.10756137029E+02  0.32814832610E+02  0.10566000000E+00 0.  1.
         13    1    4    4    0    0 -0.55647792410E+01  0.63715999571E+01 -0.24591945106E+02  0.26006518070E+02  0.10566000000E+00 0. -1.
        -13    1    4    4    0    0 -0.10478485105E+01  0.17431217867E+01 -0.56097768106E+01  0.59680164180E+01  0.10566000000E+00 0.  1.
         14    1    4    4    0    0 -0.13925062481E+02  0.15108345912E+02 -0.64094036779E+02  0.67306872100E+02  0.00000000000E+00 0. -1.
<mgrwt>
<rscale>  0 0.80084428E+02</rscale>
<asrwt>0</asrwt>
<pdfrwt beam="1">  1        2 0.18242163E-01 0.80084428E+02</pdfrwt>
<pdfrwt beam="2">  1       -1 0.20803342E-02 0.80084428E+02</pdfrwt>
<totfact> 0.18567678E+05</totfact>
</mgrwt>
</event>
<event>
 8    1  0.7667702E-014  0.8121355E+02  0.7818608E-02  0.1325642E+00
         -1   -1    0    0    0  501 -0.00000000000E+00  0.00000000000E+00  0.21554235941E+03  0.21554235947E+03  0.50400000000E-02 0.  1.
          2   -1    0    0  501    0  0.00000000000E+00 -0.00000000000E+00 -0.76500516920E+01  0.76500521170E+01  0.25500000000E-02 0. -1.
         24    2    1    2    0    0  0.17763568394E-14  0.35527136788E-14  0.20789230772E+03  0.22319241159E+03  0.81213551709E+02 0.  0.
         66    2    3    3    0    0 -0.99755341323E+01  0.31732998347E+02  0.40121953171E+02  0.52156165444E+02  0.20000005721E+01 0.  0.
        -13    1    3    3    0    0  0.99755341323E+01 -0.31732998347E+02  0.16777035455E+03  0.17103624614E+03  0.10566000000E+00 0.  1.
         13    1    4    4    0    0 -0.34959710488E+01  0.12808159197E+02  0.15616335135E+02  0.20497605779E+02  0.10566000000E+00 0.  1.
        -13    1    4    4    0    0 -0.14000062702E+01  0.50716532860E+01  0.57482411784E+01  0.77932743625E+01  0.10566000000E+00 0. -1.
        -14    1    4    4    0    0 -0.50795568133E+01  0.13853185864E+02  0.18757376858E+02  0.23865285303E+02  0.00000000000E+00 0.  1.
<mgrwt>
<rscale>  0 0.81213552E+02</rscale>
<asrwt>0</asrwt>
<pdfrwt beam="1">  1        2 0.11769312E-02 0.81213552E+02</pdfrwt>
<pdfrwt beam="2">  1       -1 0.33160358E-01 0.81213552E+02</pdfrwt>
<totfact> 0.93653323E+04</totfact>
</mgrwt>
</event>
<event>
 8    1  0.7667702E-014  0.7903593E+02  0.7818608E-02  0.1331810E+00
         -1   -1    0    0    0  501 -0.00000000000E+00  0.00000000000E+00  0.82576494072E+01  0.82576509453E+01  0.50400000000E-02 0.  1.
          2   -1    0    0  501    0  0.00000000000E+00 -0.00000000000E+00 -0.18911789146E+03  0.18911789148E+03  0.25500000000E-02 0. -1.
         24    2    1    2    0    0  0.00000000000E+00  0.88817841970E-15 -0.18086024205E+03  0.19737554242E+03  0.79035925952E+02 0.  0.
         66    2    3    3    0    0 -0.37534494179E+02 -0.74643521665E+01 -0.11484246980E+03  0.12106753351E+03  0.19999986136E+01 0.  0.
        -13    1    3    3    0    0  0.37534494179E+02  0.74643521665E+01 -0.66017772253E+02  0.76308008911E+02  0.10566000000E+00 0.  1.
         13    1    4    4    0    0 -0.13878640410E+02 -0.31182678301E+01 -0.40948313276E+02  0.43348769049E+02  0.10566000000E+00 0. -1.
        -13    1    4    4    0    0 -0.22534375395E+02 -0.42529769902E+01 -0.69662785133E+02  0.73340307364E+02  0.10566000000E+00 0.  1.
        -14    1    4    4    0    0 -0.11214783744E+01 -0.93107346267E-01 -0.42313713902E+01  0.43784570985E+01  0.00000000000E+00 0.  1.
<mgrwt>
<rscale>  0 0.79035926E+02</rscale>
<asrwt>0</asrwt>
<pdfrwt beam="1">  1        2 0.29095057E-01 0.79035926E+02</pdfrwt>
<pdfrwt beam="2">  1       -1 0.12704079E-02 0.79035926E+02</pdfrwt>
<totfact> 0.22340085E+05</totfact>
</mgrwt>
</event>
<event>
 8    1  0.7667702E-014  0.7663875E+02  0.7818608E-02  0.1338870E+00
         -1   -1    0    0    0  501 -0.00000000000E+00  0.00000000000E+00  0.12871540816E+02  0.12871541802E+02  0.50400000000E-02 0.  1.
          2   -1    0    0  501    0  0.00000000000E+00 -0.00000000000E+00 -0.11407915094E+03  0.11407915097E+03  0.25500000000E-02 0. -1.
         24    2    1    2    0    0  0.35527136788E-14  0.00000000000E+00 -0.10120761012E+03  0.12695069277E+03  0.76638750302E+02 0.  0.
         66    2    3    3    0    0 -0.26818633770E+02  0.21335817620E+02 -0.78939945329E+02  0.86081189589E+02  0.20000004409E+01 0.  0.
        -13    1    3    3    0    0  0.26818633770E+02 -0.21335817620E+02 -0.22267664794E+02  0.40869503181E+02  0.10566000000E+00 0.  1.
         13    1    4    4    0    0 -0.15354550480E+02  0.12294316063E+02 -0.44857775139E+02  0.48981053299E+02  0.10566000000E+00 0. -1.
        -13    1    4    4    0    0 -0.83937221804E+01  0.65358216240E+01 -0.23341858049E+02  0.25651998705E+02  0.10566000000E+00 0.  1.
         14    1    4    4    0    0 -0.30703611096E+01  0.25056799331E+01 -0.10740312141E+02  0.11448137585E+02  0.00000000000E+00 0. -1.
<mgrwt>
<rscale>  0 0.76638750E+02</rscale>
<asrwt>0</asrwt>
<pdfrwt beam="1">  1        2 0.17550638E-01 0.76638750E+02</pdfrwt>
<pdfrwt beam="2">  1       -1 0.19802372E-02 0.76638750E+02</pdfrwt>
<totfact> 0.20637932E+05</totfact>
</mgrwt>
</event>
<event>
 8    1  0.7667702E-014  0.7942674E+02  0.7818608E-02  0.1330686E+00
         -1   -1    0    0    0  501 -0.00000000000E+00  0.00000000000E+00  0.10271158464E+02  0.10271159701E+02  0.50400000000E-02 0.  1.
          2   -1    0    0  501    0  0.00000000000E+00 -0.00000000000E+00 -0.15355148008E+03  0.15355148011E+03  0.25500000000E-02 0. -1.
         24    2    1    2    0    0  0.17763568394E-14  0.71054273576E-14 -0.14328032162E+03  0.16382263981E+03  0.79426738254E+02 0.  0.
         66    2    3    3    0    0 -0.13829179122E+02 -0.36845062282E+02 -0.82271434536E+02  0.91221673717E+02  0.20000013472E+01 0.  0.
        -13    1    3    3    0    0  0.13829179122E+02  0.36845062282E+02 -0.61008887084E+02  0.72600966089E+02  0.10566000000E+00 0.  1.
         13    1    4    4    0    0 -0.30420345186E+01 -0.78861309918E+01 -0.18231406806E+02  0.20095780507E+02  0.10566000000E+00 0. -1.
        -13    1    4    4    0    0 -0.21519806349E+01 -0.40991859886E+01 -0.96500115436E+01  0.10703655135E+02  0.10566000000E+00 0.  1.
         14    1    4    4    0    0 -0.86351639689E+01 -0.24859745302E+02 -0.54390016186E+02  0.60422238075E+02  0.00000000000E+00 0. -1.
<mgrwt>
<rscale>  0 0.79426738E+02</rscale>
<asrwt>0</asrwt>
<pdfrwt beam="1">  1        2 0.23623303E-01 0.79426738E+02</pdfrwt>
<pdfrwt beam="2">  1       -1 0.15801784E-02 0.79426738E+02</pdfrwt>
<totfact> 0.20570613E+05</totfact>
</mgrwt>
</event>
<event>
 8    1  0.7667702E-014  0.7943744E+02  0.7818608E-02  0.1330656E+00
          2   -1    0    0  501    0  0.00000000000E+00  0.00000000000E+00  0.68705940689E+02  0.68705940736E+02  0.25500000000E-02 0. -1.
         -1   -1    0    0    0  501 -0.00000000000E+00 -0.00000000000E+00 -0.22961286350E+02  0.22961286904E+02  0.50400000000E-02 0.  1.
         24    2    1    2    0    0  0.00000000000E+00  0.00000000000E+00  0.45744654338E+02  0.91667227640E+02  0.79437442196E+02 0.  0.
         66    2    3    3    0    0  0.28790556206E+00  0.39641888540E+02  0.25197473323E+02  0.47015687595E+02  0.20000003731E+01 0.  0.
        -13    1    3    3    0    0 -0.28790556206E+00 -0.39641888540E+02  0.20547181015E+02  0.44651540045E+02  0.10566000000E+00 0.  1.
         13    1    4    4    0    0  0.17478335354E+00  0.25074982179E+02  0.16644426873E+02  0.30097066144E+02  0.10566000000E+00 0. -1.
        -13    1    4    4    0    0  0.27389092063E+00  0.13757410626E+02  0.79068958317E+01  0.15870460898E+02  0.10566000000E+00 0.  1.
         14    1    4    4    0    0 -0.16076871211E+00  0.80949573438E+00  0.64615061845E+00  0.10481605528E+01  0.00000000000E+00 0. -1.
<mgrwt>
<rscale>  0 0.79437442E+02</rscale>
<asrwt>0</asrwt>
<pdfrwt beam="1">  1        2 0.10570144E-01 0.79437442E+02</pdfrwt>
<pdfrwt beam="2">  1       -1 0.35325057E-02 0.79437442E+02</pdfrwt>
<totfact> 0.16383373E+05</totfact>
</mgrwt>
</event>
<event>
 8    1  0.7667702E-014  0.7945273E+02  0.7818608E-02  0.1330612E+00
         -1   -1    0    0    0  501 -0.00000000000E+00  0.00000000000E+00  0.20600843171E+03  0.20600843177E+03  0.50400000000E-02 0.  1.
          2   -1    0    0  501    0  0.00000000000E+00 -0.00000000000E+00 -0.76607735790E+01  0.76607740034E+01  0.25500000000E-02 0. -1.
         24    2    1    2    0    0  0.00000000000E+00  0.00000000000E+00  0.19834765813E+03  0.21366920577E+03  0.79452728150E+02 0.  0.
         66    2    3    3    0    0  0.34853785733E+02  0.14748733975E+02  0.13149279018E+03  0.13684540694E+03  0.19999997476E+01 0.  0.
        -13    1    3    3    0    0 -0.34853785733E+02 -0.14748733975E+02  0.66854867952E+02  0.76823798831E+02  0.10566000000E+00 0.  1.
         13    1    4    4    0    0  0.17638806306E+02  0.80025277495E+01  0.68269176164E+02  0.70963790178E+02  0.10566000000E+00 0. -1.
        -13    1    4    4    0    0  0.54868852352E+01  0.26686860050E+01  0.21598742994E+02  0.22444256671E+02  0.10566000000E+00 0.  1.
        -14    1    4    4    0    0  0.11728094192E+02  0.40775202206E+01  0.41624871020E+02  0.43437360094E+02  0.00000000000E+00 0.  1.
<mgrwt>
<rscale>  0 0.79452728E+02</rscale>
<asrwt>0</asrwt>
<pdfrwt beam="1">  1        2 0.11785805E-02 0.79452728E+02</pdfrwt>
<pdfrwt beam="2">  1       -1 0.31693607E-01 0.79452728E+02</pdfrwt>
<totfact> 0.10044792E+05</totfact>
</mgrwt>
</event>
<event>
 8    1  0.7667702E-014  0.8508150E+02  0.7818608E-02  0.1315220E+00
         -1   -1    0    0    0  501 -0.00000000000E+00  0.00000000000E+00  0.58772983685E+01  0.58773005295E+01  0.50400000000E-02 0.  1.
          2   -1    0    0  501    0  0.00000000000E+00 -0.00000000000E+00 -0.30791616439E+03  0.30791616440E+03  0.25500000000E-02 0. -1.
         24    2    1    2    0    0  0.00000000000E+00  0.00000000000E+00 -0.30203886602E+03  0.31379346493E+03  0.85081502369E+02 0.  0.
         66    2    3    3    0    0 -0.41365992735E+02 -0.58703236841E+01 -0.12203767121E+03  0.12900697367E+03  0.20000014171E+01 0.  0.
        -13    1    3    3    0    0  0.41365992735E+02  0.58703236841E+01 -0.18000119481E+03  0.18478649126E+03  0.10566000000E+00 0.  1.
         13    1    4    4    0    0 -0.49816016702E+01 -0.10855660466E+01 -0.13988982637E+02  0.14889513360E+02  0.10566000000E+00 0. -1.
        -13    1    4    4    0    0 -0.14115278747E+02 -0.21564897100E+01 -0.40417570779E+02  0.42865869100E+02  0.10566000000E+00 0.  1.
         14    1    4    4    0    0 -0.22269112318E+02 -0.26282679275E+01 -0.67631117796E+02  0.71251591211E+02  0.00000000000E+00 0. -1.
<mgrwt>
<rscale>  0 0.85081502E+02</rscale>
<asrwt>0</asrwt>
<pdfrwt beam="1">  1        2 0.47371705E-01 0.85081502E+02</pdfrwt>
<pdfrwt beam="2">  1       -1 0.90420016E-03 0.85081502E+02</pdfrwt>
<totfact> 0.21889209E+05</totfact>
</mgrwt>
</event>
<event>
 8    1  0.7667702E-014  0.7573111E+02  0.7818608E-02  0.1341622E+00
          2   -1    0    0  501    0  0.00000000000E+00  0.00000000000E+00  0.51648319825E+02  0.51648319887E+02  0.25500000000E-02 0. -1.
         -1   -1    0    0    0  501 -0.00000000000E+00 -0.00000000000E+00 -0.27760831149E+02  0.27760831607E+02  0.50400000000E-02 0.  1.
         24    2    1    2    0    0  0.00000000000E+00  0.00000000000E+00  0.23887488675E+02  0.79409151494E+02  0.75731111347E+02 0.  0.
         66    2    3    3    0    0 -0.89593991419E+01  0.35353358648E+02  0.22524634931E+02  0.42912585422E+02  0.20000020434E+01 0.  0.
        -13    1    3    3    0    0  0.89593991419E+01 -0.35353358648E+02  0.13628537445E+01  0.36496566072E+02  0.10566000000E+00 0.  1.
         13    1    4    4    0    0 -0.10538015883E+01  0.56173181004E+01  0.32500216596E+01  0.65756037938E+01  0.10566000000E+00 0. -1.
        -13    1    4    4    0    0 -0.77738287901E+01  0.29615669726E+02  0.19104043120E+02  0.36090108547E+02  0.10566000000E+00 0.  1.
        -14    1    4    4    0    0 -0.13176876350E+00  0.12037082137E+00  0.17057015177E+00  0.24687308145E+00  0.00000000000E+00 0.  1.
<mgrwt>
<rscale>  0 0.75731111E+02</rscale>
<asrwt>0</asrwt>
<pdfrwt beam="1">  1        2 0.79458953E-02 0.75731111E+02</pdfrwt>
<pdfrwt beam="2">  1       -1 0.42708972E-02 0.75731111E+02</pdfrwt>
<totfact> 0.17475340E+05</totfact>
</mgrwt>
</event>
<event>
 8    1  0.7667702E-014  0.7939358E+02  0.7818608E-02  0.1330781E+00
         -1   -1    0    0    0  501 -0.00000000000E+00  0.00000000000E+00  0.29780818008E+01  0.29780860656E+01  0.50400000000E-02 0.  1.
          2   -1    0    0  501    0  0.00000000000E+00 -0.00000000000E+00 -0.52914390158E+03  0.52914390158E+03  0.25500000000E-02 0. -1.
         24    2    1    2    0    0  0.00000000000E+00  0.35527136788E-14 -0.52616581978E+03  0.53212198765E+03  0.79393575549E+02 0.  0.
         66    2    3    3    0    0 -0.12888118640E+01  0.22027027574E+02 -0.48422097480E+03  0.48472755586E+03  0.20000004339E+01 0.  0.
        -13    1    3    3    0    0  0.12888118640E+01 -0.22027027574E+02 -0.41944844981E+02  0.47394431785E+02  0.10566000000E+00 0.  1.
         13    1    4    4    0    0 -0.95881363095E+00  0.90511638854E+01 -0.19436354834E+03  0.19457657356E+03  0.10566000000E+00 0. -1.
        -13    1    4    4    0    0 -0.35224401607E+00  0.74983070978E+01 -0.15322643819E+03  0.15341023828E+03  0.10566000000E+00 0.  1.
        -14    1    4    4    0    0  0.22245783011E-01  0.54775565906E+01 -0.13663098827E+03  0.13674074402E+03  0.00000000000E+00 0.  1.
<mgrwt>
<rscale>  0 0.79393576E+02</rscale>
<asrwt>0</asrwt>
<pdfrwt beam="1">  1        2 0.81406679E-01 0.79393576E+02</pdfrwt>
<pdfrwt beam="2">  1       -1 0.45816718E-03 0.79393576E+02</pdfrwt>
<totfact> 0.31616854E+05</totfact>
</mgrwt>
</event>
<event>
 8    1  0.7667702E-014  0.8093374E+02  0.7818608E-02  0.1326422E+00
         -1   -1    0    0    0  501 -0.00000000000E+00  0.00000000000E+00  0.35118456178E+02  0.35118456540E+02  0.50400000000E-02 0.  1.
          2   -1    0    0  501    0  0.00000000000E+00 -0.00000000000E+00 -0.46629827223E+02  0.46629827293E+02  0.25500000000E-02 0. -1.
         24    2    1    2    0    0  0.00000000000E+00  0.35527136788E-14 -0.11511371045E+02  0.81748283833E+02  0.80933739851E+02 0.  0.
         66    2    3    3    0    0  0.30033702579E+01  0.26579774598E+02 -0.36396923251E+02  0.45213279752E+02  0.19999982981E+01 0.  0.
        -13    1    3    3    0    0 -0.30033702579E+01 -0.26579774598E+02  0.24885552206E+02  0.36535004081E+02  0.10566000000E+00 0.  1.
         13    1    4    4    0    0  0.23792359791E+01  0.22061529888E+02 -0.29656394717E+02  0.37038962951E+02  0.10566000000E+00 0. -1.
        -13    1    4    4    0    0  0.58281556854E+00  0.45384551887E+01 -0.66917013444E+01  0.81072362988E+01  0.10566000000E+00 0.  1.
        -14    1    4    4    0    0  0.41318710243E-01 -0.20210479005E-01 -0.48827189864E-01  0.67080501994E-01  0.00000000000E+00 0.  1.
<mgrwt>
<rscale>  0 0.80933740E+02</rscale>
<asrwt>0</asrwt>
<pdfrwt beam="1">  1        2 0.71738196E-02 0.80933740E+02</pdfrwt>
<pdfrwt beam="2">  1       -1 0.54028394E-02 0.80933740E+02</pdfrwt>
<totfact> 0.14257835E+05</totfact>
</mgrwt>
</event>
<event>
 8    1  0.7667702E-014  0.8281465E+02  0.7818608E-02  0.1321248E+00
          2   -1    0    0  501    0  0.00000000000E+00  0.00000000000E+00  0.62642432901E+02  0.62642432953E+02  0.25500000000E-02 0. -1.
         -1   -1    0    0    0  501 -0.00000000000E+00 -0.00000000000E+00 -0.27370689306E+02  0.27370689770E+02  0.50400000000E-02 0.  1.
         24    2    1    2    0    0  0.11102230246E-15  0.71054273576E-14  0.35271743595E+02  0.90013122723E+02  0.82814650673E+02 0.  0.
         66    2    3    3    0    0  0.56528184190E+00  0.40701997407E+02  0.25750043738E+02  0.48208265724E+02  0.19999987820E+01 0.  0.
        -13    1    3    3    0    0 -0.56528184190E+00 -0.40701997407E+02  0.95216998576E+01  0.41804856999E+02  0.10566000000E+00 0.  1.
         13    1    4    4    0    0  0.28803410454E+00  0.27585482454E+02  0.17213801245E+02  0.32517194270E+02  0.10566000000E+00 0. -1.
        -13    1    4    4    0    0 -0.25443347181E+00  0.11248014317E+01  0.63834575398E+00  0.13223327832E+01  0.10566000000E+00 0.  1.
        -14    1    4    4    0    0  0.53168120917E+00  0.11991713521E+02  0.78978967387E+01  0.14368738670E+02  0.00000000000E+00 0.  1.
<mgrwt>
<rscale>  0 0.82814651E+02</rscale>
<asrwt>0</asrwt>
<pdfrwt beam="1">  1        2 0.96372973E-02 0.82814651E+02</pdfrwt>
<pdfrwt beam="2">  1       -1 0.42108753E-02 0.82814651E+02</pdfrwt>
<totfact> 0.14310218E+05</totfact>
</mgrwt>
</event>
<event>
 8    1  0.7667702E-014  0.7939739E+02  0.7818608E-02  0.1330770E+00
         -1   -1    0    0    0  501 -0.00000000000E+00  0.00000000000E+00  0.29232590117E+01  0.29232633564E+01  0.50400000000E-02 0.  1.
          2   -1    0    0  501    0  0.00000000000E+00 -0.00000000000E+00 -0.53911927192E+03  0.53911927192E+03  0.25500000000E-02 0. -1.
         24    2    1    2    0    0 -0.17763568394E-14  0.00000000000E+00 -0.53619601291E+03  0.54204253528E+03  0.79397391623E+02 0.  0.
         66    2    3    3    0    0 -0.12535014951E+02 -0.17821099274E+02 -0.49461634375E+03  0.49510003609E+03  0.20000129971E+01 0.  0.
        -13    1    3    3    0    0  0.12535014951E+02  0.17821099274E+02 -0.41579669161E+02  0.46942499195E+02  0.10566000000E+00 0.  1.
         13    1    4    4    0    0 -0.68101932521E+01 -0.87713698337E+01 -0.26554470345E+03  0.26577681681E+03  0.10566000000E+00 0. -1.
        -13    1    4    4    0    0 -0.48654952083E+01 -0.72597595859E+01 -0.18206333518E+03  0.18227299946E+03  0.10566000000E+00 0.  1.
         14    1    4    4    0    0 -0.85932649065E+00 -0.17899698544E+01 -0.47008305121E+02  0.47050219813E+02  0.00000000000E+00 0. -1.
<mgrwt>
<rscale>  0 0.79397392E+02</rscale>
<asrwt>0</asrwt>
<pdfrwt beam="1">  1        2 0.82941348E-01 0.79397392E+02</pdfrwt>
<pdfrwt beam="2">  1       -1 0.44973292E-03 0.79397392E+02</pdfrwt>
<totfact> 0.31793797E+05</totfact>
</mgrwt>
</event>
<event>
 8    1  0.7667702E-014  0.7945368E+02  0.7818608E-02  0.1330609E+00
         -1   -1    0    0    0  501 -0.00000000000E+00  0.00000000000E+00  0.52606852835E+02  0.52606853076E+02  0.50400000000E-02 0.  1.
          2   -1    0    0  501    0  0.00000000000E+00 -0.00000000000E+00 -0.30000309542E+02  0.30000309650E+02  0.25500000000E-02 0. -1.
         24    2    1    2    0    0  0.35527136788E-14 -0.35527136788E-14  0.22606543293E+02  0.82607162726E+02  0.79453681690E+02 0.  0.
         66    2    3    3    0    0 -0.25754440105E+02  0.29894781898E+02  0.15869397385E+02  0.42577305509E+02  0.20000003099E+01 0.  0.
        -13    1    3    3    0    0  0.25754440105E+02 -0.29894781898E+02  0.67371459087E+01  0.40029857217E+02  0.10566000000E+00 0.  1.
         13    1    4    4    0    0 -0.61563854393E+01  0.72240283371E+01  0.40550663826E+01  0.10321937536E+02  0.10566000000E+00 0. -1.
        -13    1    4    4    0    0 -0.18701915728E+02  0.21137617682E+02  0.10873782065E+02  0.30245839939E+02  0.10566000000E+00 0.  1.
        -14    1    4    4    0    0 -0.89613893698E+00  0.15331358790E+01  0.94054893736E+00  0.20095280345E+01  0.00000000000E+00 0.  1.
<mgrwt>
<rscale>  0 0.79453682E+02</rscale>
<asrwt>0</asrwt>
<pdfrwt beam="1">  1        2 0.46154323E-02 0.79453682E+02</pdfrwt>
<pdfrwt beam="2">  1       -1 0.80933620E-02 0.79453682E+02</pdfrwt>
<totfact> 0.13716019E+05</totfact>
</mgrwt>
</event>
<event>
 8    1  0.7667702E-014  0.7934433E+02  0.7818608E-02  0.1330922E+00
          2   -1    0    0  501    0  0.00000000000E+00  0.00000000000E+00  0.24183264545E+03  0.24183264547E+03  0.25500000000E-02 0. -1.
         -1   -1    0    0    0  501 -0.00000000000E+00 -0.00000000000E+00 -0.65081390903E+01  0.65081410418E+01  0.50400000000E-02 0.  1.
         24    2    1    2    0    0 -0.71054273576E-14 -0.88817841970E-15  0.23532450636E+03  0.24834078651E+03  0.79344331547E+02 0.  0.
         66    2    3    3    0    0 -0.32495235041E+02 -0.62837121730E+01  0.18605572765E+03  0.18898719303E+03  0.19999996384E+01 0.  0.
        -13    1    3    3    0    0  0.32495235041E+02  0.62837121730E+01  0.49268778712E+02  0.59353593479E+02  0.10566000000E+00 0.  1.
         13    1    4    4    0    0 -0.23830182109E+02 -0.47181147927E+01  0.13346935336E+03  0.13566214518E+03  0.10566000000E+00 0.  1.
        -13    1    4    4    0    0 -0.48337314126E+01 -0.11862037013E+01  0.28018174918E+02  0.28457008423E+02  0.10566000000E+00 0. -1.
         14    1    4    4    0    0 -0.38313215187E+01 -0.37939367900E+00  0.24568199377E+02  0.24868039423E+02  0.00000000000E+00 0. -1.
<mgrwt>
<rscale>  0 0.79344332E+02</rscale>
<asrwt>0</asrwt>
<pdfrwt beam="1">  1        2 0.37205024E-01 0.79344332E+02</pdfrwt>
<pdfrwt beam="2">  1       -1 0.10012523E-02 0.79344332E+02</pdfrwt>
<totfact> 0.24102433E+05</totfact>
</mgrwt>
</event>
<event>
 8    1  0.7667702E-014  0.8137561E+02  0.7818608E-02  0.1325192E+00
          2   -1    0    0  501    0  0.00000000000E+00  0.00000000000E+00  0.33357414135E+04  0.33357414135E+04  0.25500000000E-02 0. -1.
         -1   -1    0    0    0  501 -0.00000000000E+00 -0.00000000000E+00 -0.49627787499E+00  0.49630346644E+00  0.50400000000E-02 0.  1.
         24    2    1    2    0    0  0.22204460493E-15 -0.17763568394E-14  0.33352451357E+04  0.33362377170E+04  0.81375606945E+02 0.  0.
         66    2    3    3    0    0 -0.18921634784E+01  0.11006738552E+02  0.32716249362E+04  0.32716446096E+04  0.20000016121E+01 0.  0.
        -13    1    3    3    0    0  0.18921634784E+01 -0.11006738552E+02  0.63620199494E+02  0.64593107402E+02  0.10566000000E+00 0.  1.
         13    1    4    4    0    0 -0.61936749367E+00  0.89325418736E+00  0.23620077203E+03  0.23620329674E+03  0.10566000000E+00 0. -1.
        -13    1    4    4    0    0 -0.57161091794E+00  0.31205746960E+01  0.92406869942E+03  0.92407415132E+03  0.10566000000E+00 0. -1.
         14    1    4    4    0    0 -0.70118506680E+00  0.69929096688E+01  0.21113554647E+04  0.21113671615E+04  0.00000000000E+00 0. -1.
<mgrwt>
<rscale>  0 0.81375607E+02</rscale>
<asrwt>0</asrwt>
<pdfrwt beam="1">  1        2 0.51318018E+00 0.81375607E+02</pdfrwt>
<pdfrwt beam="2">  1       -1 0.76354019E-04 0.81375607E+02</pdfrwt>
<totfact> 0.10129515E+05</totfact>
</mgrwt>
</event>
<event>
 8    1  0.7667702E-014  0.7949866E+02  0.7818608E-02  0.1330480E+00
          2   -1    0    0  501    0  0.00000000000E+00  0.00000000000E+00  0.59435512920E+03  0.59435512920E+03  0.25500000000E-02 0. -1.
         -1   -1    0    0    0  501 -0.00000000000E+00 -0.00000000000E+00 -0.26583565562E+01  0.26583613339E+01  0.50400000000E-02 0.  1.
         24    2    1    2    0    0 -0.17763568394E-14 -0.17763568394E-14  0.59169677264E+03  0.59701349054E+03  0.79498661176E+02 0.  0.
         66    2    3    3    0    0 -0.13549387519E+02 -0.11104886701E+02  0.56377567342E+03  0.56405134017E+03  0.20000003654E+01 0.  0.
        -13    1    3    3    0    0  0.13549387519E+02  0.11104886701E+02  0.27921099222E+02  0.32962150364E+02  0.10566000000E+00 0.  1.
         13    1    4    4    0    0 -0.42211088790E+01 -0.28833312568E+01  0.17207620268E+03  0.17215214797E+03  0.10566000000E+00 0. -1.
        -13    1    4    4    0    0 -0.34416148398E+01 -0.28797045174E+01  0.16219598190E+03  0.16225808183E+03  0.10566000000E+00 0.  1.
        -14    1    4    4    0    0 -0.58866638001E+01 -0.53418509265E+01  0.22950348884E+03  0.22964111037E+03  0.00000000000E+00 0.  1.
<mgrwt>
<rscale>  0 0.79498661E+02</rscale>
<asrwt>0</asrwt>
<pdfrwt beam="1">  1        2 0.91439471E-01 0.79498661E+02</pdfrwt>
<pdfrwt beam="2">  1       -1 0.40897732E-03 0.79498661E+02</pdfrwt>
<totfact> 0.32607594E+05</totfact>
</mgrwt>
</event>
<event>
 8    1  0.7667702E-014  0.7838385E+02  0.7818608E-02  0.1333701E+00
         -1   -1    0    0    0  501 -0.00000000000E+00  0.00000000000E+00  0.11824988368E+03  0.11824988379E+03  0.50400000000E-02 0.  1.
          2   -1    0    0  501    0  0.00000000000E+00 -0.00000000000E+00 -0.12989500320E+02  0.12989500570E+02  0.25500000000E-02 0. -1.
         24    2    1    2    0    0  0.00000000000E+00  0.00000000000E+00  0.10526038336E+03  0.13123938436E+03  0.78383848475E+02 0.  0.
         66    2    3    3    0    0 -0.35601293777E+02 -0.64447100163E+01  0.27548740428E+02  0.45518342501E+02  0.19999997867E+01 0.  0.
        -13    1    3    3    0    0  0.35601293777E+02  0.64447100163E+01  0.77711642937E+02  0.85721041861E+02  0.10566000000E+00 0.  1.
         13    1    4    4    0    0 -0.22057680720E+02 -0.46996679661E+01  0.17454591225E+02  0.28518451512E+02  0.10566000000E+00 0. -1.
        -13    1    4    4    0    0 -0.25160012573E+01 -0.87665920953E-01  0.20808551388E+01  0.32678846039E+01  0.10566000000E+00 0.  1.
         14    1    4    4    0    0 -0.11027611799E+02 -0.16573761293E+01  0.80132940637E+01  0.13732006386E+02  0.00000000000E+00 0. -1.
<mgrwt>
<rscale>  0 0.78383848E+02</rscale>
<asrwt>0</asrwt>
<pdfrwt beam="1">  1        2 0.19983847E-02 0.78383848E+02</pdfrwt>
<pdfrwt beam="2">  1       -1 0.18192289E-01 0.78383848E+02</pdfrwt>
<totfact> 0.12022712E+05</totfact>
</mgrwt>
</event>
<event>
 8    1  0.7667702E-014  0.7999730E+02  0.7818608E-02  0.1329059E+00
          2   -1    0    0  501    0  0.00000000000E+00  0.00000000000E+00  0.20843001449E+03  0.20843001450E+03  0.25500000000E-02 0. -1.
         -1   -1    0    0    0  501 -0.00000000000E+00 -0.00000000000E+00 -0.76759190238E+01  0.76759206784E+01  0.50400000000E-02 0.  1.
         24    2    1    2    0    0 -0.53290705182E-14 -0.14210854715E-13  0.20075409546E+03  0.21610593518E+03  0.79997302299E+02 0.  0.
         66    2    3    3    0    0  0.11909570126E+02  0.37051870153E+02  0.12508152404E+03  0.13101170405E+03  0.19999996946E+01 0.  0.
        -13    1    3    3    0    0 -0.11909570126E+02 -0.37051870153E+02  0.75672571421E+02  0.85094231132E+02  0.10566000000E+00 0.  1.
         13    1    4    4    0    0  0.31403479681E+01  0.12187607054E+02  0.40917825972E+02  0.42809802585E+02  0.10566000000E+00 0. -1.
        -13    1    4    4    0    0  0.14951555868E+00  0.62155309187E+00  0.18109590789E+01  0.19233876284E+01  0.10566000000E+00 0. -1.
         14    1    4    4    0    0  0.86197065994E+01  0.24242710007E+02  0.82352738990E+02  0.86278513834E+02  0.00000000000E+00 0. -1.
<mgrwt>
<rscale>  0 0.79997302E+02</rscale>
<asrwt>0</asrwt>
<pdfrwt beam="1">  1        2 0.32066147E-01 0.79997302E+02</pdfrwt>
<pdfrwt beam="2">  1       -1 0.11809111E-02 0.79997302E+02</pdfrwt>
<totfact> 0.22380306E+05</totfact>
</mgrwt>
</event>
<event>
 8    1  0.7667702E-014  0.7981136E+02  0.7818608E-02  0.1329588E+00
          2   -1    0    0  501    0  0.00000000000E+00  0.00000000000E+00  0.17371484302E+02  0.17371484489E+02  0.25500000000E-02 0. -1.
         -1   -1    0    0    0  501 -0.00000000000E+00 -0.00000000000E+00 -0.91671114095E+02  0.91671114234E+02  0.50400000000E-02 0.  1.
         24    2    1    2    0    0  0.88817841970E-15 -0.71054273576E-14 -0.74299629793E+02  0.10904259872E+03  0.79811361027E+02 0.  0.
         66    2    3    3    0    0 -0.56479080213E+01  0.38842497813E+02 -0.46816536629E+02  0.61126316779E+02  0.19999999352E+01 0.  0.
        -13    1    3    3    0    0  0.56479080213E+01 -0.38842497813E+02 -0.27483093165E+02  0.47916281944E+02  0.10566000000E+00 0.  1.
         13    1    4    4    0    0 -0.44161656486E+01  0.27899252783E+02 -0.33409814379E+02  0.43750402121E+02  0.10566000000E+00 0. -1.
        -13    1    4    4    0    0 -0.10513237907E+01  0.83306150080E+01 -0.10804545838E+02  0.13684071138E+02  0.10566000000E+00 0.  1.
         14    1    4    4    0    0 -0.18041858192E+00  0.26126300219E+01 -0.26021764118E+01  0.36918435198E+01  0.00000000000E+00 0. -1.
<mgrwt>
<rscale>  0 0.79811361E+02</rscale>
<asrwt>0</asrwt>
<pdfrwt beam="1">  1        2 0.26725361E-02 0.79811361E+02</pdfrwt>
<pdfrwt beam="2">  1       -1 0.14103248E-01 0.79811361E+02</pdfrwt>
<totfact> 0.12144064E+05</totfact>
</mgrwt>
</event>
<event>
 8    1  0.7667702E-014  0.7669024E+02  0.7818608E-02  0.1338715E+00
         -1   -1    0    0    0  501 -0.00000000000E+00  0.00000000000E+00  0.12086737259E+01  0.12086842339E+01  0.50400000000E-02 0.  1.
          2   -1    0    0  501    0  0.00000000000E+00 -0.00000000000E+00 -0.12164917807E+04  0.12164917807E+04  0.25500000000E-02 0. -1.
         24    2    1    2    0    0 -0.11102230246E-15  0.00000000000E+00 -0.12152831069E+04  0.12177004649E+04  0.76690235429E+02 0.  0.
         66    2    3    3    0    0 -0.31636023201E+00  0.24799139515E+02 -0.10718608420E+04  0.10721495988E+04  0.19999993436E+01 0.  0.
        -13    1    3    3    0    0  0.31636023201E+00 -0.24799139515E+02 -0.14342226488E+03  0.14555086613E+03  0.10566000000E+00 0.  1.
         13    1    4    4    0    0  0.23642826073E+00  0.44202099990E+01 -0.16950802383E+03  0.16956584403E+03  0.10566000000E+00 0. -1.
        -13    1    4    4    0    0  0.37365426344E-01  0.12648603698E+02 -0.57574913280E+03  0.57588806521E+03  0.10566000000E+00 0.  1.
         14    1    4    4    0    0 -0.59015391909E+00  0.77303258187E+01 -0.32660368542E+03  0.32669568952E+03  0.00000000000E+00 0. -1.
<mgrwt>
<rscale>  0 0.76690235E+02</rscale>
<asrwt>0</asrwt>
<pdfrwt beam="1">  1        2 0.18715160E+00 0.76690235E+02</pdfrwt>
<pdfrwt beam="2">  1       -1 0.18595159E-03 0.76690235E+02</pdfrwt>
<totfact> 0.39028775E+05</totfact>
</mgrwt>
</event>
<event>
 8    1  0.7667702E-014  0.7991214E+02  0.7818608E-02  0.1329301E+00
         -1   -1    0    0    0  501 -0.00000000000E+00  0.00000000000E+00  0.20841741944E+02  0.20841742554E+02  0.50400000000E-02 0.  1.
          2   -1    0    0  501    0  0.00000000000E+00 -0.00000000000E+00 -0.76600485134E+02  0.76600485176E+02  0.25500000000E-02 0. -1.
         24    2    1    2    0    0  0.00000000000E+00  0.00000000000E+00 -0.55758743189E+02  0.97442227730E+02  0.79912141148E+02 0.  0.
         66    2    3    3    0    0  0.14655081805E+02 -0.12540909843E+02 -0.70529957179E+02  0.73147253575E+02  0.20000008869E+01 0.  0.
        -13    1    3    3    0    0 -0.14655081805E+02  0.12540909843E+02  0.14771213989E+02  0.24294974154E+02  0.10566000000E+00 0.  1.
         13    1    4    4    0    0  0.82982303873E+01 -0.65286263027E+01 -0.39267910327E+02  0.40662802836E+02  0.10566000000E+00 0. -1.
        -13    1    4    4    0    0  0.36168479239E+01 -0.27351940030E+01 -0.17188716246E+02  0.17777120278E+02  0.10566000000E+00 0. -1.
         14    1    4    4    0    0  0.27400034939E+01 -0.32770895375E+01 -0.14073330605E+02  0.14707330461E+02  0.00000000000E+00 0. -1.
<mgrwt>
<rscale>  0 0.79912141E+02</rscale>
<asrwt>0</asrwt>
<pdfrwt beam="1">  1        2 0.11784690E-01 0.79912141E+02</pdfrwt>
<pdfrwt beam="2">  1       -1 0.32064219E-02 0.79912141E+02</pdfrwt>
<totfact> 0.16561022E+05</totfact>
</mgrwt>
</event>
<event>
 8    1  0.7667702E-014  0.8173993E+02  0.7818608E-02  0.1324185E+00
          2   -1    0    0  501    0  0.00000000000E+00  0.00000000000E+00  0.33454438754E+02  0.33454438852E+02  0.25500000000E-02 0. -1.
         -1   -1    0    0    0  501 -0.00000000000E+00 -0.00000000000E+00 -0.49929216405E+02  0.49929216659E+02  0.50400000000E-02 0.  1.
         24    2    1    2    0    0 -0.35527136788E-14  0.00000000000E+00 -0.16474777650E+02  0.83383655511E+02  0.81739927255E+02 0.  0.
         66    2    3    3    0    0  0.26207156009E+02 -0.57532402020E+01  0.23173649082E+02  0.35509615518E+02  0.19999958869E+01 0.  0.
        -13    1    3    3    0    0 -0.26207156009E+02  0.57532402020E+01 -0.39648426732E+02  0.47874039993E+02  0.10566000000E+00 0.  1.
         13    1    4    4    0    0  0.86514465733E+01 -0.15255219100E+01  0.76610446586E+01  0.11656651072E+02  0.10566000000E+00 0. -1.
        -13    1    4    4    0    0  0.89874378826E+01 -0.14216789310E+01  0.80375514950E+01  0.12141194700E+02  0.10566000000E+00 0.  1.
         14    1    4    4    0    0  0.85682715526E+01 -0.28060393610E+01  0.74750529284E+01  0.11711769746E+02  0.00000000000E+00 0. -1.
<mgrwt>
<rscale>  0 0.81739927E+02</rscale>
<asrwt>0</asrwt>
<pdfrwt beam="1">  1        2 0.51468368E-02 0.81739927E+02</pdfrwt>
<pdfrwt beam="2">  1       -1 0.76814179E-02 0.81739927E+02</pdfrwt>
<totfact> 0.12947449E+05</totfact>
</mgrwt>
</event>
<event>
 8    1  0.7667702E-014  0.7747733E+02  0.7818608E-02  0.1336367E+00
          2   -1    0    0  501    0  0.00000000000E+00  0.00000000000E+00  0.39846863292E+02  0.39846863374E+02  0.25500000000E-02 0. -1.
         -1   -1    0    0    0  501 -0.00000000000E+00 -0.00000000000E+00 -0.37661287253E+02  0.37661287590E+02  0.50400000000E-02 0.  1.
         24    2    1    2    0    0  0.00000000000E+00  0.00000000000E+00  0.21855760397E+01  0.77508150964E+02  0.77477330383E+02 0.  0.
         66    2    3    3    0    0 -0.58630557441E+01 -0.19996824422E+02  0.33732109204E+02  0.39700171273E+02  0.19999995314E+01 0.  0.
        -13    1    3    3    0    0  0.58630557441E+01  0.19996824422E+02 -0.31546533164E+02  0.37807979691E+02  0.10566000000E+00 0.  1.
         13    1    4    4    0    0 -0.10293647874E+01 -0.48130545522E+01  0.78889565104E+01  0.92990260160E+01  0.10566000000E+00 0. -1.
        -13    1    4    4    0    0 -0.41065034569E+01 -0.12172829770E+02  0.19659437851E+02  0.23485012580E+02  0.10566000000E+00 0.  1.
        -14    1    4    4    0    0 -0.72718749975E+00 -0.30109401003E+01  0.61837148421E+01  0.69161326762E+01  0.00000000000E+00 0.  1.
<mgrwt>
<rscale>  0 0.77477330E+02</rscale>
<asrwt>0</asrwt>
<pdfrwt beam="1">  1        2 0.61302867E-02 0.77477330E+02</pdfrwt>
<pdfrwt beam="2">  1       -1 0.57940443E-02 0.77477330E+02</pdfrwt>
<totfact> 0.15560071E+05</totfact>
</mgrwt>
</event>
<event>
 8    1  0.7667702E-014  0.8101367E+02  0.7818608E-02  0.1326199E+00
         -1   -1    0    0    0  501 -0.00000000000E+00  0.00000000000E+00  0.37089784874E+01  0.37089819118E+01  0.50400000000E-02 0.  1.
          2   -1    0    0  501    0  0.00000000000E+00 -0.00000000000E+00 -0.44238673423E+03  0.44238673424E+03  0.25500000000E-02 0. -1.
         24    2    1    2    0    0  0.00000000000E+00 -0.71054273576E-14 -0.43867775574E+03  0.44609571615E+03  0.81013669113E+02 0.  0.
         66    2    3    3    0    0  0.18644660203E+02  0.33539393616E+02 -0.29047825602E+03  0.29300875668E+03  0.19999977176E+01 0.  0.
        -13    1    3    3    0    0 -0.18644660203E+02 -0.33539393616E+02 -0.14819949972E+03  0.15308695947E+03  0.10566000000E+00 0.  1.
         13    1    4    4    0    0  0.22400254767E+01  0.36580913193E+01 -0.35242289053E+02  0.35502527346E+02  0.10566000000E+00 0. -1.
        -13    1    4    4    0    0  0.57866259940E+01  0.91748118374E+01 -0.81738312388E+02  0.82454988258E+02  0.10566000000E+00 0.  1.
         14    1    4    4    0    0  0.10618008733E+02  0.20706490459E+02 -0.17349765458E+03  0.17505124108E+03  0.00000000000E+00 0. -1.
<mgrwt>
<rscale>  0 0.81013669E+02</rscale>
<asrwt>0</asrwt>
<pdfrwt beam="1">  1        2 0.68059456E-01 0.81013669E+02</pdfrwt>
<pdfrwt beam="2">  1       -1 0.57061269E-03 0.81013669E+02</pdfrwt>
<totfact> 0.28303935E+05</totfact>
</mgrwt>
</event>
<event>
 8    1  0.7667702E-014  0.7883464E+02  0.7818608E-02  0.1332391E+00
          2   -1    0    0  501    0  0.00000000000E+00  0.00000000000E+00  0.11617588794E+04  0.11617588794E+04  0.25500000000E-02 0. -1.
         -1   -1    0    0    0  501 -0.00000000000E+00 -0.00000000000E+00 -0.13373857540E+01  0.13373952507E+01  0.50400000000E-02 0.  1.
         24    2    1    2    0    0  0.00000000000E+00  0.00000000000E+00  0.11604214936E+04  0.11630962747E+04  0.78834644652E+02 0.  0.
         66    2    3    3    0    0  0.70036966610E+01  0.21891050504E+02  0.10525722388E+04  0.10528250509E+04  0.19999983039E+01 0.  0.
        -13    1    3    3    0    0 -0.70036966610E+01 -0.21891050504E+02  0.10784925481E+03  0.11027122374E+03  0.10566000000E+00 0.  1.
         13    1    4    4    0    0  0.39523663889E+01  0.13429344675E+02  0.60934998435E+03  0.60951077356E+03  0.10566000000E+00 0. -1.
        -13    1    4    4    0    0  0.10482674687E+01  0.19576872512E+01  0.11461118573E+03  0.11463274603E+03  0.10566000000E+00 0.  1.
        -14    1    4    4    0    0  0.20030628035E+01  0.65040185778E+01  0.32861106876E+03  0.32868153132E+03  0.00000000000E+00 0.  1.
<mgrwt>
<rscale>  0 0.78834645E+02</rscale>
<asrwt>0</asrwt>
<pdfrwt beam="1">  1        2 0.17873309E+00 0.78834645E+02</pdfrwt>
<pdfrwt beam="2">  1       -1 0.20575129E-03 0.78834645E+02</pdfrwt>
<totfact> 0.36509427E+05</totfact>
</mgrwt>
</event>
<event>
 8    1  0.7667702E-014  0.8094096E+02  0.7818608E-02  0.1326402E+00
          2   -1    0    0  501    0  0.00000000000E+00  0.00000000000E+00  0.44282846971E+02  0.44282847044E+02  0.25500000000E-02 0. -1.
         -1   -1    0    0    0  501 -0.00000000000E+00 -0.00000000000E+00 -0.36986327686E+02  0.36986328029E+02  0.50400000000E-02 0.  1.
         24    2    1    2    0    0  0.22204460493E-15  0.00000000000E+00  0.72965192850E+01  0.81269175073E+02  0.80940963816E+02 0.  0.
         66    2    3    3    0    0 -0.10991182502E+01 -0.39003884240E+02  0.14339959719E+02  0.41619051947E+02  0.19999983692E+01 0.  0.
        -13    1    3    3    0    0  0.10991182502E+01  0.39003884240E+02 -0.70434404342E+01  0.39650123126E+02  0.10566000000E+00 0.  1.
         13    1    4    4    0    0 -0.58523912938E-01 -0.11284619597E+02  0.36684168543E+01  0.11866529010E+02  0.10566000000E+00 0. -1.
        -13    1    4    4    0    0 -0.55819688096E+00 -0.36317725507E+01  0.15971871054E+01  0.40079329215E+01  0.10566000000E+00 0.  1.
        -14    1    4    4    0    0 -0.48239745633E+00 -0.24087492093E+02  0.90743557595E+01  0.25744590016E+02  0.00000000000E+00 0.  1.
<mgrwt>
<rscale>  0 0.80940964E+02</rscale>
<asrwt>0</asrwt>
<pdfrwt beam="1">  1        2 0.68127457E-02 0.80940964E+02</pdfrwt>
<pdfrwt beam="2">  1       -1 0.56902043E-02 0.80940964E+02</pdfrwt>
<totfact> 0.14098282E+05</totfact>
</mgrwt>
</event>
<event>
 8    1  0.7667702E-014  0.7914874E+02  0.7818608E-02  0.1331485E+00
          2   -1    0    0  501    0  0.00000000000E+00  0.00000000000E+00  0.11070391093E+03  0.11070391096E+03  0.25500000000E-02 0. -1.
         -1   -1    0    0    0  501 -0.00000000000E+00 -0.00000000000E+00 -0.14147021460E+02  0.14147022358E+02  0.50400000000E-02 0.  1.
         24    2    1    2    0    0  0.00000000000E+00  0.00000000000E+00  0.96556889471E+02  0.12485093332E+03  0.79148737490E+02 0.  0.
         66    2    3    3    0    0  0.18211697934E+02 -0.30102059117E+02  0.76804503602E+02  0.84502850139E+02  0.20000008542E+01 0.  0.
        -13    1    3    3    0    0 -0.18211697934E+02  0.30102059117E+02  0.19752385870E+02  0.40348083180E+02  0.10566000000E+00 0.  1.
         13    1    4    4    0    0  0.58251702575E+01 -0.95695275961E+01  0.25115704255E+02  0.27501240539E+02  0.10566000000E+00 0. -1.
        -13    1    4    4    0    0  0.82001067927E+01 -0.14883392561E+02  0.37123559477E+02  0.40828016824E+02  0.10566000000E+00 0.  1.
         14    1    4    4    0    0  0.41864208834E+01 -0.56491389602E+01  0.14565239870E+02  0.16173592776E+02  0.00000000000E+00 0. -1.
<mgrwt>
<rscale>  0 0.79148737E+02</rscale>
<asrwt>0</asrwt>
<pdfrwt beam="1">  1        2 0.17031370E-01 0.79148737E+02</pdfrwt>
<pdfrwt beam="2">  1       -1 0.21764651E-02 0.79148737E+02</pdfrwt>
<totfact> 0.18776330E+05</totfact>
</mgrwt>
</event>
<event>
 8    1  0.7667702E-014  0.8011143E+02  0.7818608E-02  0.1328736E+00
         -1   -1    0    0    0  501 -0.00000000000E+00  0.00000000000E+00  0.13032783276E+01  0.13032880729E+01  0.50400000000E-02 0.  1.
          2   -1    0    0  501    0  0.00000000000E+00 -0.00000000000E+00 -0.12310909204E+04  0.12310909204E+04  0.25500000000E-02 0. -1.
         24    2    1    2    0    0  0.00000000000E+00  0.17763568394E-14 -0.12297876421E+04  0.12323942085E+04  0.80111425465E+02 0.  0.
         66    2    3    3    0    0 -0.16496266192E+02 -0.11928818167E+02 -0.11455119744E+04  0.11456945959E+04  0.19999998080E+01 0.  0.
        -13    1    3    3    0    0  0.16496266192E+02  0.11928818167E+02 -0.84275667665E+02  0.86699612604E+02  0.10566000000E+00 0.  1.
         13    1    4    4    0    0 -0.63213521193E+01 -0.43471545925E+01 -0.47516486384E+03  0.47522680504E+03  0.10566000000E+00 0. -1.
        -13    1    4    4    0    0 -0.30996034431E+01 -0.21039325094E+01 -0.17931715814E+03  0.17935631698E+03  0.10566000000E+00 0.  1.
         14    1    4    4    0    0 -0.70753106296E+01 -0.54777310647E+01 -0.49102995241E+03  0.49111147383E+03  0.00000000000E+00 0. -1.
<mgrwt>
<rscale>  0 0.80111425E+02</rscale>
<asrwt>0</asrwt>
<pdfrwt beam="1">  1        2 0.18939767E+00 0.80111425E+02</pdfrwt>
<pdfrwt beam="2">  1       -1 0.20050609E-03 0.80111425E+02</pdfrwt>
<totfact> 0.34802094E+05</totfact>
</mgrwt>
</event>
<event>
 8    1  0.7667702E-014  0.7977041E+02  0.7818608E-02  0.1329704E+00
         -1   -1    0    0    0  501 -0.00000000000E+00  0.00000000000E+00  0.95176358357E+01  0.95176371702E+01  0.50400000000E-02 0.  1.
          2   -1    0    0  501    0  0.00000000000E+00 -0.00000000000E+00 -0.16714543259E+03  0.16714543261E+03  0.25500000000E-02 0. -1.
         24    2    1    2    0    0  0.00000000000E+00 -0.88817841970E-15 -0.15762779676E+03  0.17666306978E+03  0.79770407511E+02 0.  0.
         66    2    3    3    0    0  0.35338184631E+02  0.48819393664E+01 -0.11824437840E+03  0.12352470858E+03  0.19999958913E+01 0.  0.
        -13    1    3    3    0    0 -0.35338184631E+02 -0.48819393664E+01 -0.39383418362E+02  0.53138361199E+02  0.10566000000E+00 0.  1.
         13    1    4    4    0    0  0.27551592006E+02  0.42969598877E+01 -0.92371226620E+02  0.96488386647E+02  0.10566000000E+00 0. -1.
        -13    1    4    4    0    0  0.42808117821E+00  0.15499073601E+00 -0.13006685079E+01  0.13820919747E+01  0.10566000000E+00 0.  1.
         14    1    4    4    0    0  0.73585114469E+01  0.42998874266E+00 -0.24572483269E+02  0.25654229964E+02  0.00000000000E+00 0. -1.
<mgrwt>
<rscale>  0 0.79770408E+02</rscale>
<asrwt>0</asrwt>
<pdfrwt beam="1">  1        2 0.25714680E-01 0.79770408E+02</pdfrwt>
<pdfrwt beam="2">  1       -1 0.14642519E-02 0.79770408E+02</pdfrwt>
<totfact> 0.20910540E+05</totfact>
</mgrwt>
</event>
<event>
 8    1  0.7667702E-014  0.7932090E+02  0.7818608E-02  0.1330990E+00
          2   -1    0    0  501    0  0.00000000000E+00  0.00000000000E+00  0.24489434068E+03  0.24489434069E+03  0.25500000000E-02 0. -1.
         -1   -1    0    0    0  501 -0.00000000000E+00 -0.00000000000E+00 -0.64229780191E+01  0.64229799965E+01  0.50400000000E-02 0.  1.
         24    2    1    2    0    0  0.00000000000E+00  0.00000000000E+00  0.23847136266E+03  0.25131732068E+03  0.79320898061E+02 0.  0.
         66    2    3    3    0    0  0.14920132766E+02  0.26203627745E+02  0.20081308657E+03  0.20307421351E+03  0.19999957527E+01 0.  0.
        -13    1    3    3    0    0 -0.14920132766E+02 -0.26203627745E+02  0.37658276082E+02  0.48243107179E+02  0.10566000000E+00 0.  1.
         13    1    4    4    0    0  0.79642951831E+01  0.13549392794E+02  0.10647752054E+03  0.10763126677E+03  0.10566000000E+00 0. -1.
        -13    1    4    4    0    0  0.30866821213E+01  0.45582185092E+01  0.33610288875E+02  0.34058297737E+02  0.10566000000E+00 0.  1.
         14    1    4    4    0    0  0.38691554613E+01  0.80960164423E+01  0.60725277158E+02  0.61384648994E+02  0.00000000000E+00 0. -1.
<mgrwt>
<rscale>  0 0.79320898E+02</rscale>
<asrwt>0</asrwt>
<pdfrwt beam="1">  1        2 0.37676045E-01 0.79320898E+02</pdfrwt>
<pdfrwt beam="2">  1       -1 0.98815081E-03 0.79320898E+02</pdfrwt>
<totfact> 0.24229711E+05</totfact>
</mgrwt>
</event>
<event>
 8    1  0.7667702E-014  0.7692169E+02  0.7818608E-02  0.1338021E+00
          2   -1    0    0  501    0  0.00000000000E+00  0.00000000000E+00  0.62366519994E+02  0.62366520046E+02  0.25500000000E-02 0. -1.
         -1   -1    0    0    0  501 -0.00000000000E+00 -0.00000000000E+00 -0.23718441381E+02  0.23718441917E+02  0.50400000000E-02 0.  1.
         24    2    1    2    0    0 -0.17763568394E-14 -0.35527136788E-14  0.38648078613E+02  0.86084961963E+02  0.76921691971E+02 0.  0.
         66    2    3    3    0    0  0.96404693311E+01  0.24523680089E+02  0.50650210841E+02  0.57129619173E+02  0.19999986330E+01 0.  0.
        -13    1    3    3    0    0 -0.96404693311E+01 -0.24523680089E+02 -0.12002132228E+02  0.28955342790E+02  0.10566000000E+00 0.  1.
         13    1    4    4    0    0  0.31683310893E+01  0.89045486277E+01  0.17610135980E+02  0.19986429432E+02  0.10566000000E+00 0. -1.
        -13    1    4    4    0    0  0.15430753097E+01  0.24064835261E+01  0.59774495324E+01  0.66267119540E+01  0.10566000000E+00 0.  1.
         14    1    4    4    0    0  0.49290629321E+01  0.13212647936E+02  0.27062625328E+02  0.30516477787E+02  0.00000000000E+00 0. -1.
<mgrwt>
<rscale>  0 0.76921692E+02</rscale>
<asrwt>0</asrwt>
<pdfrwt beam="1">  1        2 0.95948491E-02 0.76921692E+02</pdfrwt>
<pdfrwt beam="2">  1       -1 0.36489911E-02 0.76921692E+02</pdfrwt>
<totfact> 0.17469094E+05</totfact>
</mgrwt>
</event>
<event>
 8    1  0.7667702E-014  0.7871127E+02  0.7818608E-02  0.1332749E+00
         -1   -1    0    0    0  501 -0.00000000000E+00  0.00000000000E+00  0.82995107658E+01  0.82995122962E+01  0.50400000000E-02 0.  1.
          2   -1    0    0  501    0  0.00000000000E+00 -0.00000000000E+00 -0.18662136212E+03  0.18662136214E+03  0.25500000000E-02 0. -1.
         24    2    1    2    0    0 -0.35527136788E-14  0.35527136788E-14 -0.17832185135E+03  0.19492087443E+03  0.78711273777E+02 0.  0.
         66    2    3    3    0    0  0.17919216687E+02 -0.22252142500E+02 -0.15615479069E+03  0.15875948736E+03  0.19999997366E+01 0.  0.
        -13    1    3    3    0    0 -0.17919216687E+02  0.22252142500E+02 -0.22167060665E+02  0.36161387074E+02  0.10566000000E+00 0.  1.
         13    1    4    4    0    0  0.44320721033E+01 -0.62885616475E+01 -0.40982604229E+02  0.41698612497E+02  0.10566000000E+00 0. -1.
        -13    1    4    4    0    0  0.58572677596E+00 -0.96663912902E+00 -0.76830476947E+01  0.77664569126E+01  0.10566000000E+00 0. -1.
         14    1    4    4    0    0  0.12901417808E+02 -0.14996941724E+02 -0.10748913877E+03  0.10929441795E+03  0.00000000000E+00 0. -1.
<mgrwt>
<rscale>  0 0.78711274E+02</rscale>
<asrwt>0</asrwt>
<pdfrwt beam="1">  1        2 0.28710976E-01 0.78711274E+02</pdfrwt>
<pdfrwt beam="2">  1       -1 0.12768481E-02 0.78711274E+02</pdfrwt>
<totfact> 0.22481493E+05</totfact>
</mgrwt>
</event>
<event>
 8    1  0.7667702E-014  0.8129034E+02  0.7818608E-02  0.1325429E+00
          2   -1    0    0  501    0  0.00000000000E+00  0.00000000000E+00  0.29808355823E+03  0.29808355824E+03  0.25500000000E-02 0. -1.
         -1   -1    0    0    0  501 -0.00000000000E+00 -0.00000000000E+00 -0.55421692743E+01  0.55421715659E+01  0.50400000000E-02 0.  1.
         24    2    1    2    0    0  0.88817841970E-15 -0.71054273576E-14  0.29254138896E+03  0.30362572981E+03  0.81290341053E+02 0.  0.
         66    2    3    3    0    0  0.66261837362E+01  0.38929135416E+02  0.11079896820E+03  0.11764265917E+03  0.20000021474E+01 0.  0.
        -13    1    3    3    0    0 -0.66261837362E+01 -0.38929135416E+02  0.18174242076E+03  0.18598307063E+03  0.10566000000E+00 0.  1.
         13    1    4    4    0    0  0.14729759628E+01  0.11119924248E+02  0.32603996700E+02  0.34479764186E+02  0.10566000000E+00 0. -1.
        -13    1    4    4    0    0  0.25312480276E+00  0.30657382942E+01  0.78121109040E+01  0.83966102843E+01  0.10566000000E+00 0. -1.
        -14    1    4    4    0    0  0.49000829706E+01  0.24743472874E+02  0.70382860593E+02  0.74766284703E+02  0.00000000000E+00 0.  1.
<mgrwt>
<rscale>  0 0.81290341E+02</rscale>
<asrwt>0</asrwt>
<pdfrwt beam="1">  1        2 0.45858989E-01 0.81290341E+02</pdfrwt>
<pdfrwt beam="2">  1       -1 0.85264199E-03 0.81290341E+02</pdfrwt>
<totfact> 0.24389542E+05</totfact>
</mgrwt>
</event>
<event>
 8    1  0.7667702E-014  0.7997823E+02  0.7818608E-02  0.1329113E+00
          2   -1    0    0  501    0  0.00000000000E+00  0.00000000000E+00  0.32962607464E+03  0.32962607465E+03  0.25500000000E-02 0. -1.
         -1   -1    0    0    0  501 -0.00000000000E+00 -0.00000000000E+00 -0.48513426016E+01  0.48513452196E+01  0.50400000000E-02 0.  1.
         24    2    1    2    0    0 -0.71054273576E-14  0.00000000000E+00  0.32477473204E+03  0.33447741987E+03  0.79978233489E+02 0.  0.
         66    2    3    3    0    0  0.38731902939E+02  0.98435556603E+01  0.16358406957E+03  0.16840666168E+03  0.19999972889E+01 0.  0.
        -13    1    3    3    0    0 -0.38731902939E+02 -0.98435556603E+01  0.16119066247E+03  0.16607075819E+03  0.10566000000E+00 0.  1.
         13    1    4    4    0    0  0.46170779762E+00  0.19719511287E+00  0.20786299811E+01  0.21410106578E+01  0.10566000000E+00 0.  1.
        -13    1    4    4    0    0  0.15197824753E+02  0.32520358642E+01  0.65888194620E+02  0.67696491555E+02  0.10566000000E+00 0.  1.
         14    1    4    4    0    0  0.23072370388E+02  0.63943246832E+01  0.95617244968E+02  0.98569159471E+02  0.00000000000E+00 0. -1.
<mgrwt>
<rscale>  0 0.79978233E+02</rscale>
<asrwt>0</asrwt>
<pdfrwt beam="1">  1        2 0.50711709E-01 0.79978233E+02</pdfrwt>
<pdfrwt beam="2">  1       -1 0.74636053E-03 0.79978233E+02</pdfrwt>
<totfact> 0.26395168E+05</totfact>
</mgrwt>
</event>
<event>
 8    1  0.7667702E-014  0.7847125E+02  0.7818608E-02  0.1333447E+00
          2   -1    0    0  501    0  0.00000000000E+00  0.00000000000E+00  0.14255377099E+02  0.14255377327E+02  0.25500000000E-02 0. -1.
         -1   -1    0    0    0  501 -0.00000000000E+00 -0.00000000000E+00 -0.10798971570E+03  0.10798971581E+03  0.50400000000E-02 0.  1.
         24    2    1    2    0    0  0.00000000000E+00  0.00000000000E+00 -0.93734338599E+02  0.12224509314E+03  0.78471246738E+02 0.  0.
         66    2    3    3    0    0 -0.85033722293E+01  0.30685681206E+02 -0.11253751629E+02  0.33831424734E+02  0.20000008609E+01 0.  0.
        -13    1    3    3    0    0  0.85033722293E+01 -0.30685681206E+02 -0.82480586970E+02  0.88413668408E+02  0.10566000000E+00 0.  1.
         13    1    4    4    0    0 -0.11177398071E+01  0.47255929574E+01 -0.20788251158E+01  0.52832990615E+01  0.10566000000E+00 0. -1.
        -13    1    4    4    0    0 -0.11575933930E+01  0.25664907878E+01 -0.11669912332E+01  0.30495786596E+01  0.10566000000E+00 0.  1.
        -14    1    4    4    0    0 -0.62280390291E+01  0.23393597461E+02 -0.80079352796E+01  0.25498547013E+02  0.00000000000E+00 0.  1.
<mgrwt>
<rscale>  0 0.78471247E+02</rscale>
<asrwt>0</asrwt>
<pdfrwt beam="1">  1        2 0.21931350E-02 0.78471247E+02</pdfrwt>
<pdfrwt beam="2">  1       -1 0.16613802E-01 0.78471247E+02</pdfrwt>
<totfact> 0.12233053E+05</totfact>
</mgrwt>
</event>
<event>
 8    1  0.7667702E-014  0.7745794E+02  0.7818608E-02  0.1336424E+00
          2   -1    0    0  501    0  0.00000000000E+00  0.00000000000E+00  0.19658533154E+03  0.19658533156E+03  0.25500000000E-02 0. -1.
         -1   -1    0    0    0  501 -0.00000000000E+00 -0.00000000000E+00 -0.76299335488E+01  0.76299352134E+01  0.50400000000E-02 0.  1.
         24    2    1    2    0    0  0.88817841970E-15  0.00000000000E+00  0.18895539799E+03  0.20421526677E+03  0.77457941826E+02 0.  0.
         66    2    3    3    0    0  0.49339236270E+01  0.35672210719E+02  0.13192613074E+03  0.13676751880E+03  0.20000012046E+01 0.  0.
        -13    1    3    3    0    0 -0.49339236270E+01 -0.35672210719E+02  0.57029267249E+02  0.67447747975E+02  0.10566000000E+00 0.  1.
         13    1    4    4    0    0  0.16045820615E+01  0.12073001559E+02  0.45344385527E+02  0.46951640153E+02  0.10566000000E+00 0. -1.
        -13    1    4    4    0    0  0.72041377032E+00  0.93892040679E+01  0.32381224007E+02  0.33722855473E+02  0.10566000000E+00 0.  1.
        -14    1    4    4    0    0  0.26089277952E+01  0.14210005092E+02  0.54200521210E+02  0.56093023170E+02  0.00000000000E+00 0.  1.
<mgrwt>
<rscale>  0 0.77457942E+02</rscale>
<asrwt>0</asrwt>
<pdfrwt beam="1">  1        2 0.30243900E-01 0.77457942E+02</pdfrwt>
<pdfrwt beam="2">  1       -1 0.11738360E-02 0.77457942E+02</pdfrwt>
<totfact> 0.23874720E+05</totfact>
</mgrwt>
</event>
<event>
 8    1  0.7667702E-014  0.8099907E+02  0.7818608E-02  0.1326240E+00
          2   -1    0    0  501    0  0.00000000000E+00  0.00000000000E+00  0.38946435906E+02  0.38946435989E+02  0.25500000000E-02 0. -1.
         -1   -1    0    0    0  501 -0.00000000000E+00 -0.00000000000E+00 -0.42114568263E+02  0.42114568565E+02  0.50400000000E-02 0.  1.
         24    2    1    2    0    0  0.00000000000E+00  0.00000000000E+00 -0.31681323578E+01  0.81061004554E+02  0.80999070344E+02 0.  0.
         66    2    3    3    0    0 -0.21063377545E+02 -0.65291795348E+01  0.32380741066E+02  0.39227649146E+02  0.20000016436E+01 0.  0.
        -13    1    3    3    0    0  0.21063377545E+02  0.65291795348E+01 -0.35548873423E+02  0.41833355408E+02  0.10566000000E+00 0.  1.
         13    1    4    4    0    0 -0.19969150500E+01 -0.73667005738E+00  0.36642416789E+01  0.42388894309E+01  0.10566000000E+00 0. -1.
        -13    1    4    4    0    0 -0.74968607391E+00 -0.17506095011E+00  0.68747543445E+00  0.10375268933E+01  0.10566000000E+00 0.  1.
         14    1    4    4    0    0 -0.18316776421E+02 -0.56174485273E+01  0.28029023952E+02  0.33951232822E+02  0.00000000000E+00 0. -1.
<mgrwt>
<rscale>  0 0.80999070E+02</rscale>
<asrwt>0</asrwt>
<pdfrwt beam="1">  1        2 0.59917594E-02 0.80999070E+02</pdfrwt>
<pdfrwt beam="2">  1       -1 0.64791644E-02 0.80999070E+02</pdfrwt>
<totfact> 0.13698222E+05</totfact>
</mgrwt>
</event>
<event>
 8    1  0.7667702E-014  0.8115136E+02  0.7818608E-02  0.1325815E+00
         -1   -1    0    0    0  501 -0.00000000000E+00  0.00000000000E+00  0.66621769715E+01  0.66621788779E+01  0.50400000000E-02 0.  1.
          2   -1    0    0  501    0  0.00000000000E+00 -0.00000000000E+00 -0.24712428545E+03  0.24712428546E+03  0.25500000000E-02 0. -1.
         24    2    1    2    0    0 -0.35527136788E-14  0.00000000000E+00 -0.24046210848E+03  0.25378646434E+03  0.81151363937E+02 0.  0.
         66    2    3    3    0    0 -0.17973819687E+02  0.27597642841E+01 -0.23365395102E+03  0.23436903235E+03  0.20000014366E+01 0.  0.
        -13    1    3    3    0    0  0.17973819687E+02 -0.27597642841E+01 -0.68081574606E+01  0.19417431990E+02  0.10566000000E+00 0.  1.
         13    1    4    4    0    0 -0.35241785827E+01  0.20046214190E+00 -0.39793971594E+02  0.39950361188E+02  0.10566000000E+00 0. -1.
        -13    1    4    4    0    0 -0.43217284866E+01  0.79576785303E+00 -0.65859499437E+02  0.66006025586E+02  0.10566000000E+00 0.  1.
         14    1    4    4    0    0 -0.10127912618E+02  0.17635342892E+01 -0.12800047999E+03  0.12841264558E+03  0.00000000000E+00 0. -1.
<mgrwt>
<rscale>  0 0.81151364E+02</rscale>
<asrwt>0</asrwt>
<pdfrwt beam="1">  1        2 0.38019114E-01 0.81151364E+02</pdfrwt>
<pdfrwt beam="2">  1       -1 0.10249506E-02 0.81151364E+02</pdfrwt>
<totfact> 0.22892544E+05</totfact>
</mgrwt>
</event>
<event>
 8    1  0.7667702E-014  0.7814280E+02  0.7818608E-02  0.1334406E+00
         -1   -1    0    0    0  501 -0.00000000000E+00  0.00000000000E+00  0.19884098139E+02  0.19884098777E+02  0.50400000000E-02 0.  1.
          2   -1    0    0  501    0  0.00000000000E+00 -0.00000000000E+00 -0.76773631684E+02  0.76773631727E+02  0.25500000000E-02 0. -1.
         24    2    1    2    0    0  0.00000000000E+00  0.00000000000E+00 -0.56889533546E+02  0.96657730504E+02  0.78142804142E+02 0.  0.
         66    2    3    3    0    0 -0.22499994551E+02 -0.44449414486E+01 -0.67550603354E+02  0.71365897183E+02  0.20000019650E+01 0.  0.
        -13    1    3    3    0    0  0.22499994551E+02  0.44449414486E+01  0.10661069809E+02  0.25291833321E+02  0.10566000000E+00 0.  1.
         13    1    4    4    0    0 -0.15048931736E+02 -0.24556664965E+01 -0.43003577363E+02  0.45626959951E+02  0.10566000000E+00 0. -1.
        -13    1    4    4    0    0 -0.71331371021E+01 -0.19162605004E+01 -0.23880616518E+02  0.24996973987E+02  0.10566000000E+00 0.  1.
         14    1    4    4    0    0 -0.31792571203E+00 -0.73014451647E-01 -0.66640947383E+00  0.74196324392E+00  0.00000000000E+00 0. -1.
<mgrwt>
<rscale>  0 0.78142804E+02</rscale>
<asrwt>0</asrwt>
<pdfrwt beam="1">  1        2 0.11811328E-01 0.78142804E+02</pdfrwt>
<pdfrwt beam="2">  1       -1 0.30590921E-02 0.78142804E+02</pdfrwt>
<totfact> 0.17601125E+05</totfact>
</mgrwt>
</event>
<event>
 8    1  0.7667702E-014  0.7973943E+02  0.7818608E-02  0.1329793E+00
          2   -1    0    0  501    0  0.00000000000E+00  0.00000000000E+00  0.13896057123E+03  0.13896057125E+03  0.25500000000E-02 0. -1.
         -1   -1    0    0    0  501 -0.00000000000E+00 -0.00000000000E+00 -0.11439172193E+02  0.11439173303E+02  0.50400000000E-02 0.  1.
         24    2    1    2    0    0  0.00000000000E+00  0.00000000000E+00  0.12752139903E+03  0.15039974455E+03  0.79739425319E+02 0.  0.
         66    2    3    3    0    0 -0.32034895677E+01 -0.30438814218E+02  0.11191780830E+03  0.11604473088E+03  0.19999987042E+01 0.  0.
        -13    1    3    3    0    0  0.32034895677E+01  0.30438814218E+02  0.15603590734E+02  0.34355013670E+02  0.10566000000E+00 0.  1.
         13    1    4    4    0    0 -0.13893300465E+01 -0.96907110020E+01  0.36815727828E+02  0.38095263449E+02  0.10566000000E+00 0. -1.
        -13    1    4    4    0    0 -0.15040818420E+01 -0.99938126166E+01  0.37589325202E+02  0.38924376501E+02  0.10566000000E+00 0.  1.
         14    1    4    4    0    0 -0.31007767923E+00 -0.10754290600E+02  0.37512755270E+02  0.39025090934E+02  0.00000000000E+00 0. -1.
<mgrwt>
<rscale>  0 0.79739425E+02</rscale>
<asrwt>0</asrwt>
<pdfrwt beam="1">  1        2 0.21378550E-01 0.79739425E+02</pdfrwt>
<pdfrwt beam="2">  1       -1 0.17598727E-02 0.79739425E+02</pdfrwt>
<totfact> 0.19718375E+05</totfact>
</mgrwt>
</event>
<event>
 8    1  0.7667702E-014  0.8016117E+02  0.7818608E-02  0.1328595E+00
         -1   -1    0    0    0  501 -0.00000000000E+00  0.00000000000E+00  0.10862080841E+02  0.10862082010E+02  0.50400000000E-02 0.  1.
          2   -1    0    0  501    0  0.00000000000E+00 -0.00000000000E+00 -0.14789553991E+03  0.14789553993E+03  0.25500000000E-02 0. -1.
         24    2    1    2    0    0  0.00000000000E+00  0.00000000000E+00 -0.13703345907E+03  0.15875762194E+03  0.80161172774E+02 0.  0.
         66    2    3    3    0    0  0.19739136520E+02  0.19759810276E+02 -0.12542232448E+03  0.12851008943E+03  0.19999985781E+01 0.  0.
        -13    1    3    3    0    0 -0.19739136520E+02 -0.19759810276E+02 -0.11611134589E+02  0.30247532514E+02  0.10566000000E+00 0.  1.
         13    1    4    4    0    0  0.81850185589E+01  0.85152002275E+01 -0.50333845919E+02  0.51701164133E+02  0.10566000000E+00 0.  1.
        -13    1    4    4    0    0  0.71726200061E+01  0.70179177501E+01 -0.49385954142E+02  0.50395250548E+02  0.10566000000E+00 0. -1.
        -14    1    4    4    0    0  0.43814979550E+01  0.42266922987E+01 -0.25702524421E+02  0.26413674748E+02  0.00000000000E+00 0.  1.
<mgrwt>
<rscale>  0 0.80161173E+02</rscale>
<asrwt>0</asrwt>
<pdfrwt beam="1">  1        2 0.22753159E-01 0.80161173E+02</pdfrwt>
<pdfrwt beam="2">  1       -1 0.16710896E-02 0.80161173E+02</pdfrwt>
<totfact> 0.19832977E+05</totfact>
</mgrwt>
</event>
<event>
 8    1  0.7667702E-014  0.7810997E+02  0.7818608E-02  0.1334502E+00
         -1   -1    0    0    0  501 -0.00000000000E+00  0.00000000000E+00  0.43843844140E+03  0.43843844143E+03  0.50400000000E-02 0.  1.
          2   -1    0    0  501    0  0.00000000000E+00 -0.00000000000E+00 -0.34789182953E+01  0.34789192298E+01  0.25500000000E-02 0. -1.
         24    2    1    2    0    0  0.71054273576E-14  0.00000000000E+00  0.43495952310E+03  0.44191736066E+03  0.78109966791E+02 0.  0.
         66    2    3    3    0    0 -0.32241186798E+02  0.17760246925E+02  0.29103312442E+03  0.29335848378E+03  0.19999997844E+01 0.  0.
        -13    1    3    3    0    0  0.32241186798E+02 -0.17760246925E+02  0.14392639868E+03  0.14855887688E+03  0.10566000000E+00 0.  1.
         13    1    4    4    0    0 -0.23480658320E+02  0.13690283259E+02  0.21816400500E+03  0.21985065252E+03  0.10566000000E+00 0. -1.
        -13    1    4    4    0    0 -0.71146944396E+01  0.34655054035E+01  0.60113931445E+02  0.60632701758E+02  0.10566000000E+00 0.  1.
        -14    1    4    4    0    0 -0.16458340391E+01  0.60445826257E+00  0.12755187976E+02  0.12875129505E+02  0.00000000000E+00 0.  1.
<mgrwt>
<rscale>  0 0.78109967E+02</rscale>
<asrwt>0</asrwt>
<pdfrwt beam="1">  1        2 0.53521830E-03 0.78109967E+02</pdfrwt>
<pdfrwt beam="2">  1       -1 0.67452065E-01 0.78109967E+02</pdfrwt>
<totfact> 0.76748545E+04</totfact>
</mgrwt>
</event>
<event>
 8    1  0.7667702E-014  0.8198529E+02  0.7818608E-02  0.1323510E+00
          2   -1    0    0  501    0  0.00000000000E+00  0.00000000000E+00  0.15221877965E+03  0.15221877967E+03  0.25500000000E-02 0. -1.
         -1   -1    0    0    0  501 -0.00000000000E+00 -0.00000000000E+00 -0.11039352276E+02  0.11039353426E+02  0.50400000000E-02 0.  1.
         24    2    1    2    0    0  0.00000000000E+00  0.17763568394E-14  0.14117942738E+03  0.16325813310E+03  0.81985287149E+02 0.  0.
         66    2    3    3    0    0 -0.16212265832E+02 -0.87083418599E+01  0.14351788184E+03  0.14470679044E+03  0.20000022005E+01 0.  0.
        -13    1    3    3    0    0  0.16212265832E+02  0.87083418599E+01 -0.23384544638E+01  0.18551342665E+02  0.10566000000E+00 0.  1.
         13    1    4    4    0    0 -0.12171835315E+02 -0.59333162306E+01  0.10611157584E+03  0.10697212491E+03  0.10566000000E+00 0. -1.
        -13    1    4    4    0    0 -0.37258307763E+01 -0.26747524724E+01  0.33209281371E+02  0.33524672243E+02  0.10566000000E+00 0.  1.
         14    1    4    4    0    0 -0.31459974022E+00 -0.10027315693E+00  0.41970246305E+01  0.42099932841E+01  0.00000000000E+00 0. -1.
<mgrwt>
<rscale>  0 0.81985287E+02</rscale>
<asrwt>0</asrwt>
<pdfrwt beam="1">  1        2 0.23418273E-01 0.81985287E+02</pdfrwt>
<pdfrwt beam="2">  1       -1 0.16983621E-02 0.81985287E+02</pdfrwt>
<totfact> 0.18856567E+05</totfact>
</mgrwt>
</event>
<event>
 8    1  0.7667702E-014  0.8000877E+02  0.7818608E-02  0.1329027E+00
         -1   -1    0    0    0  501 -0.00000000000E+00  0.00000000000E+00  0.96541948512E+02  0.96541948643E+02  0.50400000000E-02 0.  1.
          2   -1    0    0  501    0  0.00000000000E+00 -0.00000000000E+00 -0.16576740624E+02  0.16576740820E+02  0.25500000000E-02 0. -1.
         24    2    1    2    0    0 -0.88817841970E-15 -0.71054273576E-14  0.79965207888E+02  0.11311868946E+03  0.80008770978E+02 0.  0.
         66    2    3    3    0    0  0.63902330510E+01 -0.34226126315E+02  0.12227203263E+02  0.36956289057E+02  0.20000000612E+01 0.  0.
        -13    1    3    3    0    0 -0.63902330510E+01  0.34226126315E+02  0.67738004625E+02  0.76162400406E+02  0.10566000000E+00 0.  1.
         13    1    4    4    0    0  0.24074137182E+01 -0.14951818516E+02  0.58283863760E+01  0.16227562033E+02  0.10566000000E+00 0.  1.
        -13    1    4    4    0    0  0.80656455400E+00 -0.25180531209E+01  0.11440649731E+01  0.28829128668E+01  0.10566000000E+00 0. -1.
        -14    1    4    4    0    0  0.31762547788E+01 -0.16756254678E+02  0.52547519136E+01  0.17845814157E+02  0.00000000000E+00 0.  1.
<mgrwt>
<rscale>  0 0.80008771E+02</rscale>
<asrwt>0</asrwt>
<pdfrwt beam="1">  1        2 0.25502678E-02 0.80008771E+02</pdfrwt>
<pdfrwt beam="2">  1       -1 0.14852608E-01 0.80008771E+02</pdfrwt>
<totfact> 0.11938983E+05</totfact>
</mgrwt>
</event>
<event>
 8    1  0.7667702E-014  0.8052127E+02  0.7818608E-02  0.1327579E+00
          2   -1    0    0  501    0  0.00000000000E+00  0.00000000000E+00  0.10613770945E+04  0.10613770945E+04  0.25500000000E-02 0. -1.
         -1   -1    0    0    0  501 -0.00000000000E+00 -0.00000000000E+00 -0.15271804284E+01  0.15271887449E+01  0.50400000000E-02 0.  1.
         24    2    1    2    0    0  0.17763568394E-14  0.00000000000E+00  0.10598499141E+04  0.10629042832E+04  0.80521270415E+02 0.  0.
         66    2    3    3    0    0 -0.80393723683E+01  0.80859452855E+01  0.10396009244E+04  0.10396653769E+04  0.20000007083E+01 0.  0.
        -13    1    3    3    0    0  0.80393723683E+01 -0.80859452855E+01  0.20248989709E+02  0.23238906332E+02  0.10566000000E+00 0.  1.
         13    1    4    4    0    0 -0.10325840356E+01  0.61689514839E+00  0.80490749628E+02  0.80499805770E+02  0.10566000000E+00 0. -1.
        -13    1    4    4    0    0 -0.22779964763E-01  0.20447424092E+00  0.21304641974E+02  0.21305897360E+02  0.10566000000E+00 0.  1.
         14    1    4    4    0    0 -0.69840083680E+01  0.72645758962E+01  0.93780553276E+03  0.93785967378E+03  0.00000000000E+00 0. -1.
<mgrwt>
<rscale>  0 0.80521270E+02</rscale>
<asrwt>0</asrwt>
<pdfrwt beam="1">  1        2 0.16328833E+00 0.80521270E+02</pdfrwt>
<pdfrwt beam="2">  1       -1 0.23495212E-03 0.80521270E+02</pdfrwt>
<totfact> 0.34683306E+05</totfact>
</mgrwt>
</event>
<event>
 8    1  0.7667702E-014  0.7634493E+02  0.7818608E-02  0.1339756E+00
         -1   -1    0    0    0  501 -0.00000000000E+00  0.00000000000E+00  0.31642173566E+02  0.31642173967E+02  0.50400000000E-02 0.  1.
          2   -1    0    0  501    0  0.00000000000E+00 -0.00000000000E+00 -0.46050475338E+02  0.46050475409E+02  0.25500000000E-02 0. -1.
         24    2    1    2    0    0  0.00000000000E+00  0.00000000000E+00 -0.14408301773E+02  0.77692649376E+02  0.76344931771E+02 0.  0.
         66    2    3    3    0    0  0.21586372084E+02 -0.12785128003E+02 -0.36451359175E+02  0.44295965387E+02  0.20000015084E+01 0.  0.
        -13    1    3    3    0    0 -0.21586372084E+02  0.12785128003E+02  0.22043057402E+02  0.33396683989E+02  0.10566000000E+00 0.  1.
         13    1    4    4    0    0  0.10521524756E+02 -0.60519073913E+01 -0.17737502464E+02  0.21493213440E+02  0.10566000000E+00 0. -1.
        -13    1    4    4    0    0  0.18256574259E+01 -0.17496042118E+01 -0.37253520016E+01  0.45037264022E+01  0.10566000000E+00 0.  1.
         14    1    4    4    0    0  0.92391899021E+01 -0.49836163999E+01 -0.14988504709E+02  0.18299025545E+02  0.00000000000E+00 0. -1.
<mgrwt>
<rscale>  0 0.76344932E+02</rscale>
<asrwt>0</asrwt>
<pdfrwt beam="1">  1        2 0.70846886E-02 0.76344932E+02</pdfrwt>
<pdfrwt beam="2">  1       -1 0.48680267E-02 0.76344932E+02</pdfrwt>
<totfact> 0.16686878E+05</totfact>
</mgrwt>
</event>
<event>
 8    1  0.7667702E-014  0.8067062E+02  0.7818608E-02  0.1327159E+00
          2   -1    0    0  501    0  0.00000000000E+00  0.00000000000E+00  0.18882702809E+04  0.18882702809E+04  0.25500000000E-02 0. -1.
         -1   -1    0    0    0  501 -0.00000000000E+00 -0.00000000000E+00 -0.86159443438E+00  0.86160917529E+00  0.50400000000E-02 0.  1.
         24    2    1    2    0    0  0.00000000000E+00 -0.17763568394E-14  0.18874086865E+04  0.18891318901E+04  0.80670616460E+02 0.  0.
         66    2    3    3    0    0 -0.26681404776E+01 -0.14663337841E+02  0.18213739281E+04  0.18214360045E+04  0.20000006501E+01 0.  0.
        -13    1    3    3    0    0  0.26681404776E+01  0.14663337841E+02  0.66034758333E+02  0.67695885565E+02  0.10566000000E+00 0.  1.
         13    1    4    4    0    0 -0.19769116633E+01 -0.60422455851E+01  0.79792800648E+03  0.79795333924E+03  0.10566000000E+00 0. -1.
        -13    1    4    4    0    0 -0.22547023693E+00 -0.57898931328E+01  0.70485108077E+03  0.70487490446E+03  0.10566000000E+00 0.  1.
         14    1    4    4    0    0 -0.46575857741E+00 -0.28311991230E+01  0.31859484088E+03  0.31860776082E+03  0.00000000000E+00 0. -1.
<mgrwt>
<rscale>  0 0.80670616E+02</rscale>
<asrwt>0</asrwt>
<pdfrwt beam="1">  1        2 0.29049891E+00 0.80670616E+02</pdfrwt>
<pdfrwt beam="2">  1       -1 0.13255605E-03 0.80670616E+02</pdfrwt>
<totfact> 0.28538603E+05</totfact>
</mgrwt>
</event>
<event>
 8    1  0.7667702E-014  0.7802001E+02  0.7818608E-02  0.1334766E+00
         -1   -1    0    0    0  501 -0.00000000000E+00  0.00000000000E+00  0.18173754758E+02  0.18173755457E+02  0.50400000000E-02 0.  1.
          2   -1    0    0  501    0  0.00000000000E+00 -0.00000000000E+00 -0.83735069562E+02  0.83735069601E+02  0.25500000000E-02 0. -1.
         24    2    1    2    0    0  0.00000000000E+00  0.00000000000E+00 -0.65561314804E+02  0.10190882506E+03  0.78020014264E+02 0.  0.
         66    2    3    3    0    0  0.19954122236E+01 -0.27278464070E+02 -0.69086896844E+02  0.74330986768E+02  0.20000016359E+01 0.  0.
        -13    1    3    3    0    0 -0.19954122236E+01  0.27278464070E+02  0.35255820399E+01  0.27577838289E+02  0.10566000000E+00 0.  1.
         13    1    4    4    0    0  0.98486130381E+00 -0.68640162702E+01 -0.16618755701E+02  0.18007744896E+02  0.10566000000E+00 0. -1.
        -13    1    4    4    0    0  0.16453021010E+00 -0.60811019631E+00 -0.20674214695E+01  0.21638539158E+01  0.10566000000E+00 0.  1.
         14    1    4    4    0    0  0.84602070971E+00 -0.19806337603E+02 -0.50400719673E+02  0.54159387957E+02  0.00000000000E+00 0. -1.
<mgrwt>
<rscale>  0 0.78020014E+02</rscale>
<asrwt>0</asrwt>
<pdfrwt beam="1">  1        2 0.12882318E-01 0.78020014E+02</pdfrwt>
<pdfrwt beam="2">  1       -1 0.27959624E-02 0.78020014E+02</pdfrwt>
<totfact> 0.18071413E+05</totfact>
</mgrwt>
</event>
<event>
 8    1  0.7667702E-014  0.7818014E+02  0.7818608E-02  0.1334297E+00
          2   -1    0    0  501    0  0.00000000000E+00  0.00000000000E+00  0.32312326146E+03  0.32312326147E+03  0.25500000000E-02 0. -1.
         -1   -1    0    0    0  501 -0.00000000000E+00 -0.00000000000E+00 -0.47289478896E+01  0.47289505754E+01  0.50400000000E-02 0.  1.
         24    2    1    2    0    0  0.00000000000E+00  0.00000000000E+00  0.31839431357E+03  0.32785221205E+03  0.78180138329E+02 0.  0.
         66    2    3    3    0    0  0.13762539756E+02 -0.47359640179E+01  0.31132466240E+03  0.31167111235E+03  0.19999996141E+01 0.  0.
        -13    1    3    3    0    0 -0.13762539756E+02  0.47359640179E+01  0.70696511719E+01  0.16181099698E+02  0.10566000000E+00 0.  1.
         13    1    4    4    0    0  0.27920520939E+01 -0.27176905511E+00  0.64445525909E+02  0.64506638318E+02  0.10566000000E+00 0. -1.
        -13    1    4    4    0    0  0.67676203374E+01 -0.28822635779E+01  0.14527767267E+03  0.14546381498E+03  0.10566000000E+00 0.  1.
         14    1    4    4    0    0  0.42028673249E+01 -0.15819313849E+01  0.10160146382E+03  0.10170065905E+03  0.00000000000E+00 0. -1.
<mgrwt>
<rscale>  0 0.78180138E+02</rscale>
<asrwt>0</asrwt>
<pdfrwt beam="1">  1        2 0.49711275E-01 0.78180138E+02</pdfrwt>
<pdfrwt beam="2">  1       -1 0.72753060E-03 0.78180138E+02</pdfrwt>
<totfact> 0.27812755E+05</totfact>
</mgrwt>
</event>
<event>
 8    1  0.7667702E-014  0.7894532E+02  0.7818608E-02  0.1332071E+00
         -1   -1    0    0    0  501 -0.00000000000E+00  0.00000000000E+00  0.25684437754E+03  0.25684437759E+03  0.50400000000E-02 0.  1.
          2   -1    0    0  501    0  0.00000000000E+00 -0.00000000000E+00 -0.60662833765E+01  0.60662839124E+01  0.25500000000E-02 0. -1.
         24    2    1    2    0    0  0.88817841970E-15  0.00000000000E+00  0.25077809417E+03  0.26291066151E+03  0.78945319172E+02 0.  0.
         66    2    3    3    0    0  0.31413058420E+01 -0.38982229830E+02  0.14264657131E+03  0.14792405600E+03  0.19999984743E+01 0.  0.
        -13    1    3    3    0    0 -0.31413058420E+01  0.38982229830E+02  0.10813152286E+03  0.11498660550E+03  0.10566000000E+00 0.  1.
         13    1    4    4    0    0  0.61614481190E+00 -0.11119123256E+02  0.41780090427E+02  0.43238890556E+02  0.10566000000E+00 0. -1.
        -13    1    4    4    0    0  0.81047951270E-01 -0.35947746257E+00  0.97467593213E+00  0.10473538202E+01  0.10566000000E+00 0.  1.
         14    1    4    4    0    0  0.24441130789E+01 -0.27503629111E+02  0.99891804950E+02  0.10363781163E+03  0.00000000000E+00 0. -1.
<mgrwt>
<rscale>  0 0.78945319E+02</rscale>
<asrwt>0</asrwt>
<pdfrwt beam="1">  1        2 0.93327462E-03 0.78945319E+02</pdfrwt>
<pdfrwt beam="2">  1       -1 0.39514511E-01 0.78945319E+02</pdfrwt>
<totfact> 0.94886899E+04</totfact>
</mgrwt>
</event>
<event>
 8    1  0.7667702E-014  0.8063895E+02  0.7818608E-02  0.1327248E+00
          2   -1    0    0  501    0  0.00000000000E+00  0.00000000000E+00  0.12572273141E+02  0.12572273400E+02  0.25500000000E-02 0. -1.
         -1   -1    0    0    0  501 -0.00000000000E+00 -0.00000000000E+00 -0.12930519527E+03  0.12930519537E+03  0.50400000000E-02 0.  1.
         24    2    1    2    0    0  0.00000000000E+00  0.00000000000E+00 -0.11673292213E+03  0.14187746877E+03  0.80638954826E+02 0.  0.
         66    2    3    3    0    0 -0.87600172305E+01 -0.39300630552E+02 -0.55689211003E+02  0.68750023198E+02  0.20000009954E+01 0.  0.
        -13    1    3    3    0    0  0.87600172305E+01  0.39300630552E+02 -0.61043711129E+02  0.73127445573E+02  0.10566000000E+00 0.  1.
         13    1    4    4    0    0 -0.51862671068E+01 -0.22531272616E+02 -0.30927551220E+02  0.38614507645E+02  0.10566000000E+00 0. -1.
        -13    1    4    4    0    0 -0.24133644733E+01 -0.89575592563E+01 -0.13516473382E+02  0.16394157881E+02  0.10566000000E+00 0.  1.
         14    1    4    4    0    0 -0.11603856504E+01 -0.78117986789E+01 -0.11245186402E+02  0.13741357672E+02  0.00000000000E+00 0. -1.
<mgrwt>
<rscale>  0 0.80638955E+02</rscale>
<asrwt>0</asrwt>
<pdfrwt beam="1">  1        2 0.19341960E-02 0.80638955E+02</pdfrwt>
<pdfrwt beam="2">  1       -1 0.19893106E-01 0.80638955E+02</pdfrwt>
<totfact> 0.10966267E+05</totfact>
</mgrwt>
</event>
<event>
 8    1  0.7667702E-014  0.7993793E+02  0.7818608E-02  0.1329228E+00
         -1   -1    0    0    0  501 -0.00000000000E+00  0.00000000000E+00  0.43939452590E+02  0.43939452879E+02  0.50400000000E-02 0.  1.
          2   -1    0    0  501    0  0.00000000000E+00 -0.00000000000E+00 -0.36357261599E+02  0.36357261689E+02  0.25500000000E-02 0. -1.
         24    2    1    2    0    0  0.00000000000E+00 -0.71054273576E-14  0.75821909911E+01  0.80296714568E+02  0.79937930610E+02 0.  0.
         66    2    3    3    0    0  0.16202467120E+01 -0.39584056260E+02 -0.13275093875E+01  0.39689860045E+02  0.19999999399E+01 0.  0.
        -13    1    3    3    0    0 -0.16202467120E+01  0.39584056260E+02  0.89097003786E+01  0.40606854524E+02  0.10566000000E+00 0.  1.
         13    1    4    4    0    0  0.11669773258E+01 -0.12679159706E+02 -0.42302862110E+00  0.12740213663E+02  0.10566000000E+00 0. -1.
        -13    1    4    4    0    0  0.66064968856E+00 -0.19198451086E+02 -0.10534986489E+01  0.19238971010E+02  0.10566000000E+00 0.  1.
         14    1    4    4    0    0 -0.20738030233E+00 -0.77064454686E+01  0.14901788246E+00  0.77106753711E+01  0.00000000000E+00 0. -1.
<mgrwt>
<rscale>  0 0.79937931E+02</rscale>
<asrwt>0</asrwt>
<pdfrwt beam="1">  1        2 0.55934249E-02 0.79937931E+02</pdfrwt>
<pdfrwt beam="2">  1       -1 0.67599158E-02 0.79937931E+02</pdfrwt>
<totfact> 0.14010829E+05</totfact>
</mgrwt>
</event>
<event>
 8    1  0.7667702E-014  0.7606931E+02  0.7818608E-02  0.1340591E+00
          2   -1    0    0  501    0  0.00000000000E+00  0.00000000000E+00  0.22762682162E+03  0.22762682164E+03  0.25500000000E-02 0. -1.
         -1   -1    0    0    0  501 -0.00000000000E+00 -0.00000000000E+00 -0.63552907462E+01  0.63552927446E+01  0.50400000000E-02 0.  1.
         24    2    1    2    0    0 -0.35527136788E-14  0.17763568394E-14  0.22127153088E+03  0.23398211438E+03  0.76069307043E+02 0.  0.
         66    2    3    3    0    0  0.25884694085E+02 -0.95221140194E+01  0.19115402173E+03  0.19314385334E+03  0.20000046087E+01 0.  0.
        -13    1    3    3    0    0 -0.25884694085E+02  0.95221140194E+01  0.30117509149E+02  0.40838261038E+02  0.10566000000E+00 0.  1.
         13    1    4    4    0    0  0.97010696993E+01 -0.35815612543E+01  0.70422488386E+02  0.71177780022E+02  0.10566000000E+00 0. -1.
        -13    1    4    4    0    0  0.92501604006E+00  0.90192702405E-02  0.67897462630E+01  0.68532878513E+01  0.10566000000E+00 0.  1.
        -14    1    4    4    0    0  0.15258608345E+02 -0.59495720354E+01  0.11394178708E+03  0.11511278547E+03  0.00000000000E+00 0.  1.
<mgrwt>
<rscale>  0 0.76069307E+02</rscale>
<asrwt>0</asrwt>
<pdfrwt beam="1">  1        2 0.35019515E-01 0.76069307E+02</pdfrwt>
<pdfrwt beam="2">  1       -1 0.97773710E-03 0.76069307E+02</pdfrwt>
<totfact> 0.26349311E+05</totfact>
</mgrwt>
</event>
<event>
 8    1  0.7667702E-014  0.8027657E+02  0.7818608E-02  0.1328268E+00
         -1   -1    0    0    0  501 -0.00000000000E+00  0.00000000000E+00  0.24581257955E+02  0.24581258472E+02  0.50400000000E-02 0.  1.
          2   -1    0    0  501    0  0.00000000000E+00 -0.00000000000E+00 -0.65541068883E+02  0.65541068932E+02  0.25500000000E-02 0. -1.
         24    2    1    2    0    0 -0.35527136788E-14  0.17763568394E-14 -0.40959810928E+02  0.90122327404E+02  0.80276570589E+02 0.  0.
         66    2    3    3    0    0  0.24536561843E+02 -0.87915831016E+01 -0.54723997164E+02  0.60646934493E+02  0.19999993181E+01 0.  0.
        -13    1    3    3    0    0 -0.24536561843E+02  0.87915831016E+01  0.13764186236E+02  0.29475392912E+02  0.10566000000E+00 0.  1.
         13    1    4    4    0    0  0.21773356274E+01 -0.67046597021E+00 -0.38365683050E+01  0.44632651104E+01  0.10566000000E+00 0. -1.
        -13    1    4    4    0    0  0.53291822087E+01 -0.23739640892E+01 -0.12955871684E+02  0.14209210521E+02  0.10566000000E+00 0.  1.
         14    1    4    4    0    0  0.17030044007E+02 -0.57471530422E+01 -0.37931557175E+02  0.41974458861E+02  0.00000000000E+00 0. -1.
<mgrwt>
<rscale>  0 0.80276571E+02</rscale>
<asrwt>0</asrwt>
<pdfrwt beam="1">  1        2 0.10083241E-01 0.80276571E+02</pdfrwt>
<pdfrwt beam="2">  1       -1 0.37817321E-02 0.80276571E+02</pdfrwt>
<totfact> 0.15744021E+05</totfact>
</mgrwt>
</event>
<event>
 8    1  0.7667702E-014  0.8144482E+02  0.7818608E-02  0.1325001E+00
          2   -1    0    0  501    0  0.00000000000E+00  0.00000000000E+00  0.26600279169E+02  0.26600279291E+02  0.25500000000E-02 0. -1.
         -1   -1    0    0    0  501 -0.00000000000E+00 -0.00000000000E+00 -0.62342008125E+02  0.62342008328E+02  0.50400000000E-02 0.  1.
         24    2    1    2    0    0  0.00000000000E+00  0.00000000000E+00 -0.35741728955E+02  0.88942287620E+02  0.81444823889E+02 0.  0.
         66    2    3    3    0    0 -0.33073129555E+02 -0.11611153319E+01  0.79871996920E+01  0.34102425730E+02  0.19999985943E+01 0.  0.
        -13    1    3    3    0    0  0.33073129555E+02  0.11611153319E+01 -0.43728928647E+02  0.54839861890E+02  0.10566000000E+00 0.  1.
         13    1    4    4    0    0 -0.52257389105E+01 -0.60543461542E+00  0.12597853014E+01  0.54104640536E+01  0.10566000000E+00 0. -1.
        -13    1    4    4    0    0 -0.82082384413E+01  0.30938799447E+00  0.14994906134E+01  0.83504811464E+01  0.10566000000E+00 0.  1.
        -14    1    4    4    0    0 -0.19639152203E+02 -0.86506871094E+00  0.52279237771E+01  0.20341480530E+02  0.00000000000E+00 0.  1.
<mgrwt>
<rscale>  0 0.81444824E+02</rscale>
<asrwt>0</asrwt>
<pdfrwt beam="1">  1        2 0.40923507E-02 0.81444824E+02</pdfrwt>
<pdfrwt beam="2">  1       -1 0.95910782E-02 0.81444824E+02</pdfrwt>
<totfact> 0.12491976E+05</totfact>
</mgrwt>
</event>
<event>
 8    1  0.7667702E-014  0.8069727E+02  0.7818608E-02  0.1327084E+00
          2   -1    0    0  501    0  0.00000000000E+00  0.00000000000E+00  0.21141317585E+04  0.21141317585E+04  0.25500000000E-02 0. -1.
         -1   -1    0    0    0  501 -0.00000000000E+00 -0.00000000000E+00 -0.77005359676E+00  0.77007008998E+00  0.50400000000E-02 0.  1.
         24    2    1    2    0    0  0.00000000000E+00  0.00000000000E+00  0.21133617049E+04  0.21149018286E+04  0.80697266548E+02 0.  0.
         66    2    3    3    0    0  0.19895298379E+01 -0.13836060376E+02  0.20485990715E+04  0.20486477371E+04  0.20000005264E+01 0.  0.
        -13    1    3    3    0    0 -0.19895298379E+01  0.13836060376E+02  0.64762633399E+02  0.66254091531E+02  0.10566000000E+00 0.  1.
         13    1    4    4    0    0  0.94721322594E+00 -0.28870161243E+01  0.37172797996E+03  0.37174041255E+03  0.10566000000E+00 0. -1.
        -13    1    4    4    0    0 -0.44224974626E-01 -0.26684063009E+01  0.39668646159E+03  0.39669545286E+03  0.10566000000E+00 0.  1.
         14    1    4    4    0    0  0.10865415866E+01 -0.82806379509E+01  0.12801846300E+04  0.12802118717E+04  0.00000000000E+00 0. -1.
<mgrwt>
<rscale>  0 0.80697267E+02</rscale>
<asrwt>0</asrwt>
<pdfrwt beam="1">  1        2 0.32524754E+00 0.80697267E+02</pdfrwt>
<pdfrwt beam="2">  1       -1 0.11847233E-03 0.80697267E+02</pdfrwt>
<totfact> 0.25674857E+05</totfact>
</mgrwt>
</event>
<event>
 8    1  0.7667702E-014  0.7998863E+02  0.7818608E-02  0.1329084E+00
         -1   -1    0    0    0  501 -0.00000000000E+00  0.00000000000E+00  0.25244061223E+03  0.25244061228E+03  0.50400000000E-02 0.  1.
          2   -1    0    0  501    0  0.00000000000E+00 -0.00000000000E+00 -0.63363218787E+01  0.63363223918E+01  0.25500000000E-02 0. -1.
         24    2    1    2    0    0 -0.35527136788E-14 -0.35527136788E-14  0.24610429035E+03  0.25877693467E+03  0.79988625372E+02 0.  0.
         66    2    3    3    0    0 -0.18235981825E+02  0.30134840165E+02  0.62012325384E+02  0.71345554283E+02  0.19999978947E+01 0.  0.
        -13    1    3    3    0    0  0.18235981825E+02 -0.30134840165E+02  0.18409196496E+03  0.18743138039E+03  0.10566000000E+00 0.  1.
         13    1    4    4    0    0 -0.15183256974E+02  0.24326850472E+02  0.51093244271E+02  0.58590594129E+02  0.10566000000E+00 0. -1.
        -13    1    4    4    0    0 -0.12816566589E+01  0.31081547249E+01  0.55904030923E+01  0.65243421396E+01  0.10566000000E+00 0.  1.
         14    1    4    4    0    0 -0.17710681925E+01  0.26998349675E+01  0.53286780200E+01  0.62306180139E+01  0.00000000000E+00 0. -1.
<mgrwt>
<rscale>  0 0.79988625E+02</rscale>
<asrwt>0</asrwt>
<pdfrwt beam="1">  1        2 0.97481860E-03 0.79988625E+02</pdfrwt>
<pdfrwt beam="2">  1       -1 0.38837025E-01 0.79988625E+02</pdfrwt>
<totfact> 0.92323392E+04</totfact>
</mgrwt>
</event>
<event>
 8    1  0.7667702E-014  0.7922350E+02  0.7818608E-02  0.1331270E+00
          2   -1    0    0  501    0  0.00000000000E+00  0.00000000000E+00  0.28246188497E+03  0.28246188498E+03  0.25500000000E-02 0. -1.
         -1   -1    0    0    0  501 -0.00000000000E+00 -0.00000000000E+00 -0.55550514267E+01  0.55550537131E+01  0.50400000000E-02 0.  1.
         24    2    1    2    0    0  0.00000000000E+00  0.35527136788E-14  0.27690683355E+03  0.28801693870E+03  0.79223497222E+02 0.  0.
         66    2    3    3    0    0  0.35979866859E+02 -0.16491268199E+02  0.14129319731E+03  0.14674563148E+03  0.20000015195E+01 0.  0.
        -13    1    3    3    0    0 -0.35979866859E+02  0.16491268199E+02  0.13561363623E+03  0.14127130722E+03  0.10566000000E+00 0.  1.
         13    1    4    4    0    0  0.10349038527E+02 -0.42004205314E+01  0.41108814250E+02  0.42599200746E+02  0.10566000000E+00 0. -1.
        -13    1    4    4    0    0  0.24778417519E+02 -0.12077642828E+02  0.96609662299E+02  0.10046530468E+03  0.10566000000E+00 0.  1.
        -14    1    4    4    0    0  0.85241081250E+00 -0.21320484028E+00  0.35747207624E+01  0.36811260541E+01  0.00000000000E+00 0.  1.
<mgrwt>
<rscale>  0 0.79223497E+02</rscale>
<asrwt>0</asrwt>
<pdfrwt beam="1">  1        2 0.43455687E-01 0.79223497E+02</pdfrwt>
<pdfrwt beam="2">  1       -1 0.85462324E-03 0.79223497E+02</pdfrwt>
<totfact> 0.25590507E+05</totfact>
</mgrwt>
</event>
<event>
 8    1  0.7667702E-014  0.7869437E+02  0.7818608E-02  0.1332798E+00
         -1   -1    0    0    0  501 -0.00000000000E+00  0.00000000000E+00  0.56010625200E+01  0.56010647876E+01  0.50400000000E-02 0.  1.
          2   -1    0    0  501    0  0.00000000000E+00 -0.00000000000E+00 -0.27641197758E+03  0.27641197759E+03  0.25500000000E-02 0. -1.
         24    2    1    2    0    0  0.00000000000E+00  0.00000000000E+00 -0.27081091506E+03  0.28201304238E+03  0.78694373092E+02 0.  0.
         66    2    3    3    0    0 -0.12950706018E+02 -0.31506055478E+02 -0.20588596839E+03  0.20869447595E+03  0.19999991935E+01 0.  0.
        -13    1    3    3    0    0  0.12950706018E+02  0.31506055478E+02 -0.64924946670E+02  0.73318566423E+02  0.10566000000E+00 0.  1.
         13    1    4    4    0    0 -0.28849574872E+01 -0.52128753379E+01 -0.35629050392E+02  0.36123917906E+02  0.10566000000E+00 0. -1.
        -13    1    4    4    0    0 -0.77621616392E+01 -0.19717539551E+02 -0.12956032566E+03  0.13128184059E+03  0.10566000000E+00 0.  1.
        -14    1    4    4    0    0 -0.23035868916E+01 -0.65756405892E+01 -0.40696592332E+02  0.41288717456E+02  0.00000000000E+00 0.  1.
<mgrwt>
<rscale>  0 0.78694373E+02</rscale>
<asrwt>0</asrwt>
<pdfrwt beam="1">  1        2 0.42524909E-01 0.78694373E+02</pdfrwt>
<pdfrwt beam="2">  1       -1 0.86170232E-03 0.78694373E+02</pdfrwt>
<totfact> 0.25840740E+05</totfact>
</mgrwt>
</event>
<event>
 8    1  0.7667702E-014  0.7654742E+02  0.7818608E-02  0.1339145E+00
          2   -1    0    0  501    0  0.00000000000E+00  0.00000000000E+00  0.12967339361E+03  0.12967339363E+03  0.25500000000E-02 0. -1.
         -1   -1    0    0    0  501 -0.00000000000E+00 -0.00000000000E+00 -0.11296664515E+02  0.11296665640E+02  0.50400000000E-02 0.  1.
         24    2    1    2    0    0  0.17763568394E-14  0.00000000000E+00  0.11837672909E+03  0.14097005927E+03  0.76547420732E+02 0.  0.
         66    2    3    3    0    0 -0.97477292858E+01 -0.19790942703E+02  0.11676729439E+03  0.11884990820E+03  0.20000006039E+01 0.  0.
        -13    1    3    3    0    0  0.97477292858E+01  0.19790942703E+02  0.16094347080E+01  0.22120151071E+02  0.10566000000E+00 0.  1.
         13    1    4    4    0    0 -0.15967869423E+01 -0.37367540382E+01  0.19590639851E+02  0.20007933254E+02  0.10566000000E+00 0.  1.
        -13    1    4    4    0    0 -0.19783940271E+01 -0.53945731504E+01  0.31733212256E+02  0.32249393583E+02  0.10566000000E+00 0. -1.
        -14    1    4    4    0    0 -0.61725483163E+01 -0.10659615514E+02  0.65443442279E+02  0.66592581365E+02  0.00000000000E+00 0.  1.
<mgrwt>
<rscale>  0 0.76547421E+02</rscale>
<asrwt>0</asrwt>
<pdfrwt beam="1">  1        2 0.19949754E-01 0.76547421E+02</pdfrwt>
<pdfrwt beam="2">  1       -1 0.17379483E-02 0.76547421E+02</pdfrwt>
<totfact> 0.21509321E+05</totfact>
</mgrwt>
</event>
<event>
 8    1  0.7667702E-014  0.7994998E+02  0.7818608E-02  0.1329193E+00
          2   -1    0    0  501    0  0.00000000000E+00  0.00000000000E+00  0.94769530126E+03  0.94769530126E+03  0.25500000000E-02 0. -1.
         -1   -1    0    0    0  501 -0.00000000000E+00 -0.00000000000E+00 -0.16861920278E+01  0.16861995600E+01  0.50400000000E-02 0.  1.
         24    2    1    2    0    0  0.00000000000E+00  0.00000000000E+00  0.94600910923E+03  0.94938150082E+03  0.79949980334E+02 0.  0.
         66    2    3    3    0    0 -0.11976218124E+02  0.54075515332E+01  0.92129580067E+03  0.92139167770E+03  0.19999988255E+01 0.  0.
        -13    1    3    3    0    0  0.11976218124E+02 -0.54075515332E+01  0.24713308561E+02  0.27989823118E+02  0.10566000000E+00 0.  1.
         13    1    4    4    0    0 -0.73082115580E+01  0.30112000513E+01  0.49298583808E+03  0.49304921153E+03  0.10566000000E+00 0. -1.
        -13    1    4    4    0    0 -0.46104459977E+01  0.24075543525E+01  0.41857763839E+03  0.41860996531E+03  0.10566000000E+00 0.  1.
         14    1    4    4    0    0 -0.57560568199E-01 -0.11202870579E-01  0.97323242052E+01  0.97325008686E+01  0.00000000000E+00 0. -1.
<mgrwt>
<rscale>  0 0.79949980E+02</rscale>
<asrwt>0</asrwt>
<pdfrwt beam="1">  1        2 0.14579980E+00 0.79949980E+02</pdfrwt>
<pdfrwt beam="2">  1       -1 0.25941380E-03 0.79949980E+02</pdfrwt>
<totfact> 0.35174306E+05</totfact>
</mgrwt>
</event>
<event>
 8    1  0.7667702E-014  0.7939543E+02  0.7818608E-02  0.1330776E+00
         -1   -1    0    0    0  501 -0.00000000000E+00  0.00000000000E+00  0.48777576072E+01  0.48777602110E+01  0.50400000000E-02 0.  1.
          2   -1    0    0  501    0  0.00000000000E+00 -0.00000000000E+00 -0.32308041730E+03  0.32308041731E+03  0.25500000000E-02 0. -1.
         24    2    1    2    0    0  0.00000000000E+00  0.44408920985E-15 -0.31820265970E+03  0.32795817752E+03  0.79395425356E+02 0.  0.
         66    2    3    3    0    0 -0.32498700289E+02  0.26767313570E+01 -0.25253859434E+03  0.25464302865E+03  0.19999994899E+01 0.  0.
        -13    1    3    3    0    0  0.32498700289E+02 -0.26767313570E+01 -0.65664065354E+02  0.73315148872E+02  0.10566000000E+00 0.  1.
         13    1    4    4    0    0 -0.12989518551E+02  0.70232355103E+00 -0.10338096966E+03  0.10419624227E+03  0.10566000000E+00 0. -1.
        -13    1    4    4    0    0 -0.13424916439E+02  0.18192670463E+01 -0.99834925689E+02  0.10074999586E+03  0.10566000000E+00 0.  1.
        -14    1    4    4    0    0 -0.60842652991E+01  0.15514075967E+00 -0.49322698988E+02  0.49696790523E+02  0.00000000000E+00 0.  1.
<mgrwt>
<rscale>  0 0.79395425E+02</rscale>
<asrwt>0</asrwt>
<pdfrwt beam="1">  1        2 0.49704663E-01 0.79395425E+02</pdfrwt>
<pdfrwt beam="2">  1       -1 0.75042470E-03 0.79395425E+02</pdfrwt>
<totfact> 0.26711841E+05</totfact>
</mgrwt>
</event>
<event>
 8    1  0.7667702E-014  0.7924825E+02  0.7818608E-02  0.1331198E+00
         -1   -1    0    0    0  501 -0.00000000000E+00  0.00000000000E+00  0.46817735629E+01  0.46817762757E+01  0.50400000000E-02 0.  1.
          2   -1    0    0  501    0  0.00000000000E+00 -0.00000000000E+00 -0.33535812666E+03  0.33535812667E+03  0.25500000000E-02 0. -1.
         24    2    1    2    0    0  0.00000000000E+00  0.00000000000E+00 -0.33067635310E+03  0.34003990295E+03  0.79248249808E+02 0.  0.
         66    2    3    3    0    0 -0.19592019056E+02 -0.20812265187E+02 -0.28303580269E+03  0.28448244800E+03  0.20000057195E+01 0.  0.
        -13    1    3    3    0    0  0.19592019056E+02  0.20812265187E+02 -0.47640550410E+02  0.55557454948E+02  0.10566000000E+00 0.  1.
         13    1    4    4    0    0 -0.12142619642E+02 -0.12044278220E+02 -0.16395048740E+03  0.16484016905E+03  0.10566000000E+00 0. -1.
        -13    1    4    4    0    0 -0.73628511229E+01 -0.87484111782E+01 -0.11771523811E+03  0.11826933128E+03  0.10566000000E+00 0.  1.
         14    1    4    4    0    0 -0.86548291787E-01 -0.19575788617E-01 -0.13700771863E+01  0.13729476737E+01  0.00000000000E+00 0. -1.
<mgrwt>
<rscale>  0 0.79248250E+02</rscale>
<asrwt>0</asrwt>
<pdfrwt beam="1">  1        2 0.51593539E-01 0.79248250E+02</pdfrwt>
<pdfrwt beam="2">  1       -1 0.72027333E-03 0.79248250E+02</pdfrwt>
<totfact> 0.27204151E+05</totfact>
</mgrwt>
</event>
<event>
 8    1  0.7667702E-014  0.7976704E+02  0.7818608E-02  0.1329714E+00
          2   -1    0    0  501    0  0.00000000000E+00  0.00000000000E+00  0.68760886127E+02  0.68760886174E+02  0.25500000000E-02 0. -1.
         -1   -1    0    0    0  501 -0.00000000000E+00 -0.00000000000E+00 -0.23133721651E+02  0.23133722200E+02  0.50400000000E-02 0.  1.
         24    2    1    2    0    0  0.00000000000E+00  0.71054273576E-14  0.45627164476E+02  0.91894608374E+02  0.79767041503E+02 0.  0.
         66    2    3    3    0    0  0.10023128086E+02  0.38483583413E+02  0.25927909720E+02  0.47515321642E+02  0.19999998292E+01 0.  0.
        -13    1    3    3    0    0 -0.10023128086E+02 -0.38483583413E+02  0.19699254756E+02  0.44379286733E+02  0.10566000000E+00 0.  1.
         13    1    4    4    0    0  0.18340374884E+01  0.81422951293E+01  0.53115721538E+01  0.98936659668E+01  0.10566000000E+00 0. -1.
        -13    1    4    4    0    0  0.71193075451E+01  0.26842203942E+02  0.17583032266E+02  0.32868870380E+02  0.10566000000E+00 0.  1.
        -14    1    4    4    0    0  0.10697830529E+01  0.34990843421E+01  0.30333053001E+01  0.47527852946E+01  0.00000000000E+00 0.  1.
<mgrwt>
<rscale>  0 0.79767042E+02</rscale>
<asrwt>0</asrwt>
<pdfrwt beam="1">  1        2 0.10578598E-01 0.79767042E+02</pdfrwt>
<pdfrwt beam="2">  1       -1 0.35590343E-02 0.79767042E+02</pdfrwt>
<totfact> 0.16203922E+05</totfact>
</mgrwt>
</event>
<event>
 8    1  0.7667702E-014  0.7953235E+02  0.7818608E-02  0.1330384E+00
         -1   -1    0    0    0  501 -0.00000000000E+00  0.00000000000E+00  0.45410935574E+02  0.45410935853E+02  0.50400000000E-02 0.  1.
          2   -1    0    0  501    0  0.00000000000E+00 -0.00000000000E+00 -0.34823083023E+02  0.34823083116E+02  0.25500000000E-02 0. -1.
         24    2    1    2    0    0 -0.35527136788E-14  0.00000000000E+00  0.10587852551E+02  0.80234018970E+02  0.79532353029E+02 0.  0.
         66    2    3    3    0    0 -0.14648856749E+02 -0.36035272347E+02 -0.29117223036E+01  0.39059032115E+02  0.20000014559E+01 0.  0.
        -13    1    3    3    0    0  0.14648856749E+02  0.36035272347E+02  0.13499574854E+02  0.41174986854E+02  0.10566000000E+00 0.  1.
         13    1    4    4    0    0 -0.31916806649E+01 -0.64791955060E+01 -0.26348594375E-01  0.72234796432E+01  0.10566000000E+00 0. -1.
        -13    1    4    4    0    0 -0.34126711800E+01 -0.95257358544E+01 -0.91911719026E+00  0.10160802557E+02  0.10566000000E+00 0.  1.
         14    1    4    4    0    0 -0.80445049042E+01 -0.20030340987E+02 -0.19662565189E+01  0.21674749915E+02  0.00000000000E+00 0. -1.
<mgrwt>
<rscale>  0 0.79532353E+02</rscale>
<asrwt>0</asrwt>
<pdfrwt beam="1">  1        2 0.53573974E-02 0.79532353E+02</pdfrwt>
<pdfrwt beam="2">  1       -1 0.69862978E-02 0.79532353E+02</pdfrwt>
<totfact> 0.14087724E+05</totfact>
</mgrwt>
</event>
<event>
 8    1  0.7667702E-014  0.8015407E+02  0.7818608E-02  0.1328615E+00
         -1   -1    0    0    0  501 -0.00000000000E+00  0.00000000000E+00  0.22714557612E+01  0.22714613527E+01  0.50400000000E-02 0.  1.
          2   -1    0    0  501    0  0.00000000000E+00 -0.00000000000E+00 -0.70710892353E+03  0.70710892353E+03  0.25500000000E-02 0. -1.
         24    2    1    2    0    0  0.35527136788E-14  0.00000000000E+00 -0.70483746777E+03  0.70938038488E+03  0.80154067221E+02 0.  0.
         66    2    3    3    0    0 -0.25585665837E+02  0.15482583354E+02 -0.58842996903E+03  0.58919280811E+03  0.19999996358E+01 0.  0.
        -13    1    3    3    0    0  0.25585665837E+02 -0.15482583354E+02 -0.11640749874E+03  0.12018757677E+03  0.10566000000E+00 0.  1.
         13    1    4    4    0    0 -0.14233349761E+02  0.78504963327E+01 -0.32168729212E+03  0.32209772370E+03  0.10566000000E+00 0. -1.
        -13    1    4    4    0    0 -0.74940743541E+01  0.49085646525E+01 -0.16550239767E+03  0.16574471320E+03  0.10566000000E+00 0.  1.
        -14    1    4    4    0    0 -0.38582417226E+01  0.27235223688E+01 -0.10124027924E+03  0.10135037120E+03  0.00000000000E+00 0.  1.
<mgrwt>
<rscale>  0 0.80154067E+02</rscale>
<asrwt>0</asrwt>
<pdfrwt beam="1">  1        2 0.10878581E+00 0.80154067E+02</pdfrwt>
<pdfrwt beam="2">  1       -1 0.34945573E-03 0.80154067E+02</pdfrwt>
<totfact> 0.33361214E+05</totfact>
</mgrwt>
</event>
<event>
 8    1  0.7667702E-014  0.8075097E+02  0.7818608E-02  0.1326934E+00
         -1   -1    0    0    0  501 -0.00000000000E+00  0.00000000000E+00  0.33079168773E+01  0.33079207168E+01  0.50400000000E-02 0.  1.
          2   -1    0    0  501    0  0.00000000000E+00 -0.00000000000E+00 -0.49281134553E+03  0.49281134554E+03  0.25500000000E-02 0. -1.
         24    2    1    2    0    0  0.35527136788E-14  0.00000000000E+00 -0.48950342866E+03  0.49611926626E+03  0.80750973276E+02 0.  0.
         66    2    3    3    0    0  0.17187244612E+02 -0.14813320123E+02 -0.44990058339E+03  0.45047682606E+03  0.20000117081E+01 0.  0.
        -13    1    3    3    0    0 -0.17187244612E+02  0.14813320123E+02 -0.39602845265E+02  0.45642440202E+02  0.10566000000E+00 0.  1.
         13    1    4    4    0    0  0.50292087805E+01 -0.49210984388E+01 -0.14258713528E+03  0.14276068248E+03  0.10566000000E+00 0. -1.
        -13    1    4    4    0    0  0.96470071052E+00 -0.10829575784E+01 -0.35420639286E+02  0.35450476669E+02  0.10566000000E+00 0.  1.
         14    1    4    4    0    0  0.11193335121E+02 -0.88092641061E+01 -0.27189280883E+03  0.27226566691E+03  0.00000000000E+00 0. -1.
<mgrwt>
<rscale>  0 0.80750973E+02</rscale>
<asrwt>0</asrwt>
<pdfrwt beam="1">  1        2 0.75817072E-01 0.80750973E+02</pdfrwt>
<pdfrwt beam="2">  1       -1 0.50891098E-03 0.80750973E+02</pdfrwt>
<totfact> 0.29580960E+05</totfact>
</mgrwt>
</event>
<event>
 8    1  0.7667702E-014  0.8689154E+02  0.7818608E-02  0.1310559E+00
          2   -1    0    0  501    0  0.00000000000E+00  0.00000000000E+00  0.12411790079E+02  0.12411790341E+02  0.25500000000E-02 0. -1.
         -1   -1    0    0    0  501 -0.00000000000E+00 -0.00000000000E+00 -0.15207595146E+03  0.15207595154E+03  0.50400000000E-02 0.  1.
         24    2    1    2    0    0  0.71054273576E-14 -0.88817841970E-15 -0.13966416138E+03  0.16448774188E+03  0.86891537308E+02 0.  0.
         66    2    3    3    0    0  0.41290160463E+02 -0.76162630479E+01 -0.48904648304E+02  0.64486815929E+02  0.19999972671E+01 0.  0.
        -13    1    3    3    0    0 -0.41290160463E+02  0.76162630479E+01 -0.90759513073E+02  0.10000092595E+03  0.10566000000E+00 0.  1.
         13    1    4    4    0    0  0.10179338181E+02 -0.19990624417E+01 -0.13084692920E+02  0.16698369061E+02  0.10566000000E+00 0. -1.
        -13    1    4    4    0    0  0.50843618290E+01 -0.51651100820E+00 -0.57398120249E+01  0.76859693563E+01  0.10566000000E+00 0. -1.
         14    1    4    4    0    0  0.26026460453E+02 -0.51006895980E+01 -0.30080143359E+02  0.40102477511E+02  0.00000000000E+00 0. -1.
<mgrwt>
<rscale>  0 0.86891537E+02</rscale>
<asrwt>0</asrwt>
<pdfrwt beam="1">  1        2 0.19095063E-02 0.86891537E+02</pdfrwt>
<pdfrwt beam="2">  1       -1 0.23396299E-01 0.86891537E+02</pdfrwt>
<totfact> 0.87211845E+04</totfact>
</mgrwt>
</event>
<event>
 8    1  0.7667702E-014  0.8090398E+02  0.7818608E-02  0.1326505E+00
          2   -1    0    0  501    0  0.00000000000E+00  0.00000000000E+00  0.48412513940E+03  0.48412513940E+03  0.25500000000E-02 0. -1.
         -1   -1    0    0    0  501 -0.00000000000E+00 -0.00000000000E+00 -0.33800401177E+01  0.33800438753E+01  0.50400000000E-02 0.  1.
         24    2    1    2    0    0 -0.17763568394E-14  0.00000000000E+00  0.48074509928E+03  0.48750518328E+03  0.80903975446E+02 0.  0.
         66    2    3    3    0    0 -0.15012969827E+02  0.36781515632E+02  0.28564732892E+03  0.28840365059E+03  0.20000001007E+01 0.  0.
        -13    1    3    3    0    0  0.15012969827E+02 -0.36781515632E+02  0.19509777036E+03  0.19910153269E+03  0.10566000000E+00 0.  1.
         13    1    4    4    0    0 -0.88776871033E+01  0.22977446085E+02  0.17297916430E+03  0.17472429368E+03  0.10566000000E+00 0. -1.
        -13    1    4    4    0    0 -0.39779733142E+01  0.87906849700E+01  0.74832863409E+02  0.75452428881E+02  0.10566000000E+00 0.  1.
         14    1    4    4    0    0 -0.21573094097E+01  0.50133845766E+01  0.37835301208E+02  0.38226928026E+02  0.00000000000E+00 0. -1.
<mgrwt>
<rscale>  0 0.80903975E+02</rscale>
<asrwt>0</asrwt>
<pdfrwt beam="1">  1        2 0.74480732E-01 0.80903975E+02</pdfrwt>
<pdfrwt beam="2">  1       -1 0.52000687E-03 0.80903975E+02</pdfrwt>
<totfact> 0.29266591E+05</totfact>
</mgrwt>
</event>
<event>
 8    1  0.7667702E-014  0.8392057E+02  0.7818608E-02  0.1318280E+00
         -1   -1    0    0    0  501 -0.00000000000E+00  0.00000000000E+00  0.11665170810E+02  0.11665171899E+02  0.50400000000E-02 0.  1.
          2   -1    0    0  501    0  0.00000000000E+00 -0.00000000000E+00 -0.15093354549E+03  0.15093354551E+03  0.25500000000E-02 0. -1.
         24    2    1    2    0    0 -0.71054273576E-14 -0.17763568394E-14 -0.13926837468E+03  0.16259871741E+03  0.83920573865E+02 0.  0.
         66    2    3    3    0    0  0.38825430588E+02  0.61274453150E+01 -0.97997455297E+02  0.10560521254E+03  0.20000063210E+01 0.  0.
        -13    1    3    3    0    0 -0.38825430588E+02 -0.61274453150E+01 -0.41270919385E+02  0.56993504869E+02  0.10566000000E+00 0.  1.
         13    1    4    4    0    0  0.10729545821E+02  0.21273869993E+01 -0.27523507346E+02  0.29617622282E+02  0.10566000000E+00 0. -1.
        -13    1    4    4    0    0  0.22248017862E+02  0.35379622619E+01 -0.57125746917E+02  0.61407276447E+02  0.10566000000E+00 0.  1.
        -14    1    4    4    0    0  0.58478669047E+01  0.46209605373E+00 -0.13348201034E+02  0.14580313815E+02  0.00000000000E+00 0.  1.
<mgrwt>
<rscale>  0 0.83920574E+02</rscale>
<asrwt>0</asrwt>
<pdfrwt beam="1">  1        2 0.23220544E-01 0.83920574E+02</pdfrwt>
<pdfrwt beam="2">  1       -1 0.17946419E-02 0.83920574E+02</pdfrwt>
<totfact> 0.17671717E+05</totfact>
</mgrwt>
</event>
<event>
 8    1  0.7667702E-014  0.7734576E+02  0.7818608E-02  0.1336757E+00
         -1   -1    0    0    0  501 -0.00000000000E+00  0.00000000000E+00  0.93081449098E+01  0.93081462743E+01  0.50400000000E-02 0.  1.
          2   -1    0    0  501    0  0.00000000000E+00 -0.00000000000E+00 -0.16067555939E+03  0.16067555941E+03  0.25500000000E-02 0. -1.
         24    2    1    2    0    0  0.00000000000E+00  0.00000000000E+00 -0.15136741448E+03  0.16998370569E+03  0.77345756393E+02 0.  0.
         66    2    3    3    0    0  0.83379023969E+01  0.23150844990E+02 -0.14122836435E+03  0.14336991712E+03  0.19999999452E+01 0.  0.
        -13    1    3    3    0    0 -0.83379023969E+01 -0.23150844990E+02 -0.10139050139E+02  0.26613788567E+02  0.10566000000E+00 0.  1.
         13    1    4    4    0    0  0.33114490064E+01  0.10462012297E+02 -0.58446722852E+02  0.59468058418E+02  0.10566000000E+00 0. -1.
        -13    1    4    4    0    0  0.33411996796E+00  0.91190817660E+00 -0.51317040068E+01  0.52238647306E+01  0.10566000000E+00 0. -1.
         14    1    4    4    0    0  0.46923334225E+01  0.11776924516E+02 -0.77649937486E+02  0.78677993973E+02  0.00000000000E+00 0. -1.
<mgrwt>
<rscale>  0 0.77345756E+02</rscale>
<asrwt>0</asrwt>
<pdfrwt beam="1">  1        2 0.24719315E-01 0.77345756E+02</pdfrwt>
<pdfrwt beam="2">  1       -1 0.14320225E-02 0.77345756E+02</pdfrwt>
<totfact> 0.22395258E+05</totfact>
</mgrwt>
</event>
<event>
 8    1  0.7667702E-014  0.7965756E+02  0.7818608E-02  0.1330026E+00
         -1   -1    0    0    0  501 -0.00000000000E+00  0.00000000000E+00  0.18330369582E+02  0.18330370274E+02  0.50400000000E-02 0.  1.
          2   -1    0    0  501    0  0.00000000000E+00 -0.00000000000E+00 -0.86541169114E+02  0.86541169151E+02  0.25500000000E-02 0. -1.
         24    2    1    2    0    0  0.00000000000E+00 -0.17763568394E-14 -0.68210799532E+02  0.10487153943E+03  0.79657558390E+02 0.  0.
         66    2    3    3    0    0  0.20523438094E+02 -0.13477105600E+02 -0.75371905170E+02  0.79295447376E+02  0.19999997519E+01 0.  0.
        -13    1    3    3    0    0 -0.20523438094E+02  0.13477105600E+02  0.71611056379E+01  0.25576092050E+02  0.10566000000E+00 0.  1.
         13    1    4    4    0    0  0.18066580309E+02 -0.12043196710E+02 -0.65559050788E+02  0.69061133898E+02  0.10566000000E+00 0. -1.
        -13    1    4    4    0    0  0.20236322441E+01 -0.97173555275E+00 -0.70392030229E+01  0.73892422261E+01  0.10566000000E+00 0.  1.
         14    1    4    4    0    0  0.43322554101E+00 -0.46217333731E+00 -0.27736513593E+01  0.28450712515E+01  0.00000000000E+00 0. -1.
<mgrwt>
<rscale>  0 0.79657558E+02</rscale>
<asrwt>0</asrwt>
<pdfrwt beam="1">  1        2 0.13314026E-01 0.79657558E+02</pdfrwt>
<pdfrwt beam="2">  1       -1 0.28200570E-02 0.79657558E+02</pdfrwt>
<totfact> 0.17239185E+05</totfact>
</mgrwt>
</event>
<event>
 8    1  0.7667702E-014  0.7873806E+02  0.7818608E-02  0.1332671E+00
          2   -1    0    0  501    0  0.00000000000E+00  0.00000000000E+00  0.28134851288E+02  0.28134851404E+02  0.25500000000E-02 0. -1.
         -1   -1    0    0    0  501 -0.00000000000E+00 -0.00000000000E+00 -0.55088986225E+02  0.55088986455E+02  0.50400000000E-02 0.  1.
         24    2    1    2    0    0  0.00000000000E+00  0.00000000000E+00 -0.26954134936E+02  0.83223837859E+02  0.78738058129E+02 0.  0.
         66    2    3    3    0    0  0.22612618141E+01  0.17721120699E+02  0.23565036195E+02  0.29638865716E+02  0.20000015665E+01 0.  0.
        -13    1    3    3    0    0 -0.22612618141E+01 -0.17721120699E+02 -0.50519171131E+02  0.53584972143E+02  0.10566000000E+00 0.  1.
         13    1    4    4    0    0  0.23615424788E+00  0.51134365189E+01  0.69492868701E+01  0.86317294848E+01  0.10566000000E+00 0.  1.
        -13    1    4    4    0    0  0.12741125603E+01  0.40904812078E+01  0.60764450430E+01  0.74357076142E+01  0.10566000000E+00 0.  1.
         14    1    4    4    0    0  0.75099500593E+00  0.85172029720E+01  0.10539304282E+02  0.13571428617E+02  0.00000000000E+00 0. -1.
<mgrwt>
<rscale>  0 0.78738058E+02</rscale>
<asrwt>0</asrwt>
<pdfrwt beam="1">  1        2 0.43284387E-02 0.78738058E+02</pdfrwt>
<pdfrwt beam="2">  1       -1 0.84752287E-02 0.78738058E+02</pdfrwt>
<totfact> 0.13892841E+05</totfact>
</mgrwt>
</event>
<event>
 8    1  0.7667702E-014  0.7991206E+02  0.7818608E-02  0.1329301E+00
         -1   -1    0    0    0  501 -0.00000000000E+00  0.00000000000E+00  0.41154470171E+01  0.41154501033E+01  0.50400000000E-02 0.  1.
          2   -1    0    0  501    0  0.00000000000E+00 -0.00000000000E+00 -0.38792473043E+03  0.38792473044E+03  0.25500000000E-02 0. -1.
         24    2    1    2    0    0 -0.35527136788E-14  0.35527136788E-14 -0.38380928341E+03  0.39204018054E+03  0.79912058697E+02 0.  0.
         66    2    3    3    0    0 -0.20177608787E+02  0.31788299376E+02 -0.25726506804E+03  0.26001335947E+03  0.19999990578E+01 0.  0.
        -13    1    3    3    0    0  0.20177608787E+02 -0.31788299376E+02 -0.12654421537E+03  0.13202682107E+03  0.10566000000E+00 0.  1.
         13    1    4    4    0    0 -0.10447490275E+02  0.14927216269E+02 -0.12729184153E+03  0.12858925275E+03  0.10566000000E+00 0. -1.
        -13    1    4    4    0    0 -0.52021472665E+01  0.85567883658E+01 -0.66061918446E+02  0.66816683517E+02  0.10566000000E+00 0.  1.
         14    1    4    4    0    0 -0.45279712463E+01  0.83042947408E+01 -0.63911308059E+02  0.64607423200E+02  0.00000000000E+00 0. -1.
<mgrwt>
<rscale>  0 0.79912059E+02</rscale>
<asrwt>0</asrwt>
<pdfrwt beam="1">  1        2 0.59680699E-01 0.79912059E+02</pdfrwt>
<pdfrwt beam="2">  1       -1 0.63314624E-03 0.79912059E+02</pdfrwt>
<totfact> 0.28031747E+05</totfact>
</mgrwt>
</event>
<event>
 8    1  0.7667702E-014  0.7802680E+02  0.7818608E-02  0.1334746E+00
         -1   -1    0    0    0  501 -0.00000000000E+00  0.00000000000E+00  0.72117481040E+02  0.72117481216E+02  0.50400000000E-02 0.  1.
          2   -1    0    0  501    0  0.00000000000E+00 -0.00000000000E+00 -0.21105080626E+02  0.21105080780E+02  0.25500000000E-02 0. -1.
         24    2    1    2    0    0  0.00000000000E+00  0.35527136788E-14  0.51012400414E+02  0.93222561996E+02  0.78026797122E+02 0.  0.
         66    2    3    3    0    0  0.11970641140E+02 -0.20431189960E+02 -0.11481787017E+02  0.26392446036E+02  0.20000005425E+01 0.  0.
        -13    1    3    3    0    0 -0.11970641140E+02  0.20431189960E+02  0.62494187431E+02  0.66830115960E+02  0.10566000000E+00 0.  1.
         13    1    4    4    0    0  0.17719584315E+01 -0.29956032380E+01 -0.21469031148E+01  0.40907007300E+01  0.10566000000E+00 0. -1.
        -13    1    4    4    0    0  0.10225153161E+01 -0.14061756149E+01 -0.12258967940E+01  0.21299892997E+01  0.10566000000E+00 0. -1.
         14    1    4    4    0    0  0.91761673923E+01 -0.16029411108E+02 -0.81089871085E+01  0.20171756007E+02  0.00000000000E+00 0. -1.
<mgrwt>
<rscale>  0 0.78026797E+02</rscale>
<asrwt>0</asrwt>
<pdfrwt beam="1">  1        2 0.32469355E-02 0.78026797E+02</pdfrwt>
<pdfrwt beam="2">  1       -1 0.11094997E-01 0.78026797E+02</pdfrwt>
<totfact> 0.13478433E+05</totfact>
</mgrwt>
</event>
<event>
 8    1  0.7667702E-014  0.8225489E+02  0.7818608E-02  0.1322771E+00
         -1   -1    0    0    0  501 -0.00000000000E+00  0.00000000000E+00  0.38631334860E+02  0.38631335189E+02  0.50400000000E-02 0.  1.
          2   -1    0    0  501    0  0.00000000000E+00 -0.00000000000E+00 -0.43784840736E+02  0.43784840810E+02  0.25500000000E-02 0. -1.
         24    2    1    2    0    0  0.00000000000E+00  0.71054273576E-14 -0.51535058763E+01  0.82416175999E+02  0.82254893128E+02 0.  0.
         66    2    3    3    0    0  0.22255296152E+02  0.33988413383E+02 -0.88316164063E+01  0.41623405656E+02  0.19999997422E+01 0.  0.
        -13    1    3    3    0    0 -0.22255296152E+02 -0.33988413383E+02  0.36781105300E+01  0.40792770343E+02  0.10566000000E+00 0.  1.
         13    1    4    4    0    0  0.65762671769E+01  0.10611471772E+02 -0.24655838142E+01  0.12725599818E+02  0.10566000000E+00 0. -1.
        -13    1    4    4    0    0  0.64224321382E+01  0.96080134958E+01 -0.33659911853E+01  0.12037550357E+02  0.10566000000E+00 0.  1.
        -14    1    4    4    0    0  0.92565968374E+01  0.13768928115E+02 -0.30000414068E+01  0.16860255481E+02  0.00000000000E+00 0.  1.
<mgrwt>
<rscale>  0 0.82254893E+02</rscale>
<asrwt>0</asrwt>
<pdfrwt beam="1">  1        2 0.67361294E-02 0.82254893E+02</pdfrwt>
<pdfrwt beam="2">  1       -1 0.59432823E-02 0.82254893E+02</pdfrwt>
<totfact> 0.13452802E+05</totfact>
</mgrwt>
</event>
<event>
 8    1  0.7667702E-014  0.7629879E+02  0.7818608E-02  0.1339896E+00
          2   -1    0    0  501    0  0.00000000000E+00  0.00000000000E+00  0.48938169685E+03  0.48938169685E+03  0.25500000000E-02 0. -1.
         -1   -1    0    0    0  501 -0.00000000000E+00 -0.00000000000E+00 -0.29739065524E+01  0.29739108231E+01  0.50400000000E-02 0.  1.
         24    2    1    2    0    0  0.88817841970E-15  0.00000000000E+00  0.48640779029E+03  0.49235560767E+03  0.76298793905E+02 0.  0.
         66    2    3    3    0    0  0.61344878586E+01  0.14094070199E+02  0.46849556501E+03  0.46875192714E+03  0.20000024582E+01 0.  0.
        -13    1    3    3    0    0 -0.61344878586E+01 -0.14094070199E+02  0.17912225283E+02  0.23603680533E+02  0.10566000000E+00 0.  1.
         13    1    4    4    0    0  0.38456444792E+00  0.14410325147E+01  0.34603785733E+02  0.34636073906E+02  0.10566000000E+00 0. -1.
        -13    1    4    4    0    0  0.24397516196E+00  0.44554242385E+00  0.11239894074E+02  0.11251862724E+02  0.10566000000E+00 0.  1.
         14    1    4    4    0    0  0.55059482488E+01  0.12207495260E+02  0.42265188520E+03  0.42286399051E+03  0.00000000000E+00 0. -1.
<mgrwt>
<rscale>  0 0.76298794E+02</rscale>
<asrwt>0</asrwt>
<pdfrwt beam="1">  1        2 0.75289424E-01 0.76298794E+02</pdfrwt>
<pdfrwt beam="2">  1       -1 0.45752483E-03 0.76298794E+02</pdfrwt>
<totfact> 0.34207321E+05</totfact>
</mgrwt>
</event>
<event>
 8    1  0.7667702E-014  0.7823648E+02  0.7818608E-02  0.1334132E+00
         -1   -1    0    0    0  501 -0.00000000000E+00  0.00000000000E+00  0.15586115875E+03  0.15586115884E+03  0.50400000000E-02 0.  1.
          2   -1    0    0  501    0  0.00000000000E+00 -0.00000000000E+00 -0.98179478689E+01  0.98179482001E+01  0.25500000000E-02 0. -1.
         24    2    1    2    0    0  0.00000000000E+00  0.71054273576E-14  0.14604321089E+03  0.16567910704E+03  0.78236481660E+02 0.  0.
         66    2    3    3    0    0  0.98013978821E+01  0.35329262940E+02  0.44343114641E+02  0.57572007545E+02  0.20000040878E+01 0.  0.
        -13    1    3    3    0    0 -0.98013978821E+01 -0.35329262940E+02  0.10170009624E+03  0.10810709949E+03  0.10566000000E+00 0.  1.
         13    1    4    4    0    0  0.37759079864E+01  0.13415346255E+02  0.16596903048E+02  0.21672502187E+02  0.10566000000E+00 0. -1.
        -13    1    4    4    0    0  0.25839812253E+01  0.88491980292E+01  0.10096882102E+02  0.13672726756E+02  0.10566000000E+00 0.  1.
         14    1    4    4    0    0  0.34415086704E+01  0.13064718655E+02  0.17649329492E+02  0.22226778601E+02  0.00000000000E+00 0. -1.
<mgrwt>
<rscale>  0 0.78236482E+02</rscale>
<asrwt>0</asrwt>
<pdfrwt beam="1">  1        2 0.15104535E-02 0.78236482E+02</pdfrwt>
<pdfrwt beam="2">  1       -1 0.23978640E-01 0.78236482E+02</pdfrwt>
<totfact> 0.11300856E+05</totfact>
</mgrwt>
</event>
<event>
 8    1  0.7667702E-014  0.8188591E+02  0.7818608E-02  0.1323783E+00
          2   -1    0    0  501    0  0.00000000000E+00  0.00000000000E+00  0.15347574134E+03  0.15347574136E+03  0.25500000000E-02 0. -1.
         -1   -1    0    0    0  501 -0.00000000000E+00 -0.00000000000E+00 -0.10922413741E+02  0.10922414904E+02  0.50400000000E-02 0.  1.
         24    2    1    2    0    0  0.35527136788E-14 -0.35527136788E-14  0.14255332760E+03  0.16439815627E+03  0.81885911937E+02 0.  0.
         66    2    3    3    0    0 -0.23260004955E+02  0.28513421095E+02  0.35389573767E+02  0.51092709298E+02  0.19999997214E+01 0.  0.
        -13    1    3    3    0    0  0.23260004955E+02 -0.28513421095E+02  0.10716375383E+03  0.11330544697E+03  0.10566000000E+00 0.  1.
         13    1    4    4    0    0 -0.80387689526E+01  0.94348605356E+01  0.12240125600E+02  0.17420397192E+02  0.10566000000E+00 0. -1.
        -13    1    4    4    0    0 -0.45125837360E+01  0.66214885546E+01  0.80824266453E+01  0.11381753255E+02  0.10566000000E+00 0.  1.
        -14    1    4    4    0    0 -0.10708652267E+02  0.12457072005E+02  0.15067021522E+02  0.22290558850E+02  0.00000000000E+00 0.  1.
<mgrwt>
<rscale>  0 0.81885912E+02</rscale>
<asrwt>0</asrwt>
<pdfrwt beam="1">  1        2 0.23611652E-01 0.81885912E+02</pdfrwt>
<pdfrwt beam="2">  1       -1 0.16803715E-02 0.81885912E+02</pdfrwt>
<totfact> 0.18968157E+05</totfact>
</mgrwt>
</event>
<event>
 8    1  0.7667702E-014  0.7996771E+02  0.7818608E-02  0.1329143E+00
         -1   -1    0    0    0  501 -0.00000000000E+00  0.00000000000E+00  0.13090352892E+02  0.13090353862E+02  0.50400000000E-02 0.  1.
          2   -1    0    0  501    0  0.00000000000E+00 -0.00000000000E+00 -0.12212876512E+03  0.12212876514E+03  0.25500000000E-02 0. -1.
         24    2    1    2    0    0  0.35527136788E-14  0.00000000000E+00 -0.10903841223E+03  0.13521911901E+03  0.79967711010E+02 0.  0.
         66    2    3    3    0    0 -0.19394801990E+02  0.32234048580E+02 -0.31772069294E+02  0.49281402338E+02  0.19999992655E+01 0.  0.
        -13    1    3    3    0    0  0.19394801990E+02 -0.32234048580E+02 -0.77266342931E+02  0.85937716668E+02  0.10566000000E+00 0.  1.
         13    1    4    4    0    0 -0.91959018869E+01  0.14360785640E+02 -0.13882416804E+02  0.21989302764E+02  0.10566000000E+00 0. -1.
        -13    1    4    4    0    0 -0.24271612259E+01  0.48287393829E+01 -0.52539060156E+01  0.75380719086E+01  0.10566000000E+00 0.  1.
        -14    1    4    4    0    0 -0.77717388773E+01  0.13044523558E+02 -0.12635746475E+02  0.19754027665E+02  0.00000000000E+00 0.  1.
<mgrwt>
<rscale>  0 0.79967711E+02</rscale>
<asrwt>0</asrwt>
<pdfrwt beam="1">  1        2 0.18789040E-01 0.79967711E+02</pdfrwt>
<pdfrwt beam="2">  1       -1 0.20139006E-02 0.79967711E+02</pdfrwt>
<totfact> 0.18805661E+05</totfact>
</mgrwt>
</event>
<event>
 8    1  0.7667702E-014  0.7889684E+02  0.7818608E-02  0.1332212E+00
         -1   -1    0    0    0  501 -0.00000000000E+00  0.00000000000E+00  0.63638841542E+01  0.63638861500E+01  0.50400000000E-02 0.  1.
          2   -1    0    0  501    0  0.00000000000E+00 -0.00000000000E+00 -0.24453265927E+03  0.24453265928E+03  0.25500000000E-02 0. -1.
         24    2    1    2    0    0  0.17763568394E-14 -0.13877787808E-15 -0.23816877511E+03  0.25089654543E+03  0.78896838150E+02 0.  0.
         66    2    3    3    0    0 -0.14676266698E+02  0.22693482407E+00 -0.23551470369E+03  0.23598012619E+03  0.20000006258E+01 0.  0.
        -13    1    3    3    0    0  0.14676266698E+02 -0.22693482407E+00 -0.26540714249E+01  0.14916419235E+02  0.10566000000E+00 0.  1.
         13    1    4    4    0    0 -0.99534414791E+01 -0.56475485569E+00 -0.15443121942E+03  0.15475271449E+03  0.10566000000E+00 0. -1.
        -13    1    4    4    0    0 -0.21737448867E+00  0.72332482258E-01 -0.29190240235E+01  0.29299059613E+01  0.10566000000E+00 0. -1.
         14    1    4    4    0    0 -0.45054507307E+01  0.71935719751E+00 -0.78164460244E+02  0.78297505748E+02  0.00000000000E+00 0. -1.
<mgrwt>
<rscale>  0 0.78896838E+02</rscale>
<asrwt>0</asrwt>
<pdfrwt beam="1">  1        2 0.37620402E-01 0.78896838E+02</pdfrwt>
<pdfrwt beam="2">  1       -1 0.97905945E-03 0.78896838E+02</pdfrwt>
<totfact> 0.24560347E+05</totfact>
</mgrwt>
</event>
<event>
 8    1  0.7667702E-014  0.7983705E+02  0.7818608E-02  0.1329514E+00
          2   -1    0    0  501    0  0.00000000000E+00  0.00000000000E+00  0.12978967936E+02  0.12978968186E+02  0.25500000000E-02 0. -1.
         -1   -1    0    0    0  501 -0.00000000000E+00 -0.00000000000E+00 -0.12277468010E+03  0.12277468020E+03  0.50400000000E-02 0.  1.
         24    2    1    2    0    0  0.00000000000E+00  0.00000000000E+00 -0.10979571216E+03  0.13575364839E+03  0.79837050556E+02 0.  0.
         66    2    3    3    0    0  0.78536779367E+01 -0.38776618355E+02 -0.46232405482E+02  0.60883016574E+02  0.20000005556E+01 0.  0.
        -13    1    3    3    0    0 -0.78536779367E+01  0.38776618355E+02 -0.63563306681E+02  0.74870631815E+02  0.10566000000E+00 0.  1.
         13    1    4    4    0    0  0.53057143198E+01 -0.24067201776E+02 -0.29302302360E+02  0.38288600046E+02  0.10566000000E+00 0.  1.
        -13    1    4    4    0    0  0.10163169307E-01 -0.90469293205E+00 -0.79933244292E+00  0.12118865381E+01  0.10566000000E+00 0. -1.
         14    1    4    4    0    0  0.25378004476E+01 -0.13804723646E+02 -0.16130770679E+02  0.21382529990E+02  0.00000000000E+00 0. -1.
<mgrwt>
<rscale>  0 0.79837051E+02</rscale>
<asrwt>0</asrwt>
<pdfrwt beam="1">  1        2 0.19967644E-02 0.79837051E+02</pdfrwt>
<pdfrwt beam="2">  1       -1 0.18888412E-01 0.79837051E+02</pdfrwt>
<totfact> 0.11382846E+05</totfact>
</mgrwt>
</event>
<event>
 8    1  0.7667702E-014  0.8341385E+02  0.7818608E-02  0.1319633E+00
          2   -1    0    0  501    0  0.00000000000E+00  0.00000000000E+00  0.77374842711E+03  0.77374842711E+03  0.25500000000E-02 0. -1.
         -1   -1    0    0    0  501 -0.00000000000E+00 -0.00000000000E+00 -0.22481018261E+01  0.22481074757E+01  0.50400000000E-02 0.  1.
         24    2    1    2    0    0  0.00000000000E+00  0.00000000000E+00  0.77150032528E+03  0.77599653459E+03  0.83413846467E+02 0.  0.
         66    2    3    3    0    0 -0.21780088979E+02 -0.17065729280E+02  0.67598699189E+03  0.67655600255E+03  0.19999985146E+01 0.  0.
        -13    1    3    3    0    0  0.21780088979E+02  0.17065729280E+02  0.95513333395E+02  0.99440532038E+02  0.10566000000E+00 0.  1.
         13    1    4    4    0    0 -0.18837527583E+02 -0.14727084646E+02  0.58903806783E+03  0.58952319377E+03  0.10566000000E+00 0. -1.
        -13    1    4    4    0    0 -0.24441496455E+01 -0.22117639249E+01  0.73167236837E+02  0.73241528367E+02  0.10566000000E+00 0.  1.
         14    1    4    4    0    0 -0.49841174960E+00 -0.12688070893E+00  0.13781687220E+02  0.13791280420E+02  0.00000000000E+00 0. -1.
<mgrwt>
<rscale>  0 0.83413846E+02</rscale>
<asrwt>0</asrwt>
<pdfrwt beam="1">  1        2 0.11903826E+00 0.83413846E+02</pdfrwt>
<pdfrwt beam="2">  1       -1 0.34586215E-03 0.83413846E+02</pdfrwt>
<totfact> 0.30638158E+05</totfact>
</mgrwt>
</event>
<event>
 8    1  0.7667702E-014  0.7920403E+02  0.7818608E-02  0.1331326E+00
         -1   -1    0    0    0  501 -0.00000000000E+00  0.00000000000E+00  0.33168974476E+01  0.33169012767E+01  0.50400000000E-02 0.  1.
          2   -1    0    0  501    0  0.00000000000E+00 -0.00000000000E+00 -0.47282695288E+03  0.47282695289E+03  0.25500000000E-02 0. -1.
         24    2    1    2    0    0  0.00000000000E+00  0.00000000000E+00 -0.46951005543E+03  0.47614385416E+03  0.79204025817E+02 0.  0.
         66    2    3    3    0    0  0.76016617833E+01 -0.20572920585E+02 -0.43294873715E+03  0.43350852278E+03  0.20000008702E+01 0.  0.
        -13    1    3    3    0    0 -0.76016617833E+01  0.20572920585E+02 -0.36561318283E+02  0.42635331380E+02  0.10566000000E+00 0.  1.
         13    1    4    4    0    0  0.92593517139E+00 -0.13966707280E+01 -0.28430950057E+02  0.28480486833E+02  0.10566000000E+00 0. -1.
        -13    1    4    4    0    0  0.44610192171E+01 -0.13480453239E+02 -0.27603446881E+03  0.27639946174E+03  0.10566000000E+00 0.  1.
         14    1    4    4    0    0  0.22147073948E+01 -0.56957966181E+01 -0.12848331828E+03  0.12862857421E+03  0.00000000000E+00 0. -1.
<mgrwt>
<rscale>  0 0.79204026E+02</rscale>
<asrwt>0</asrwt>
<pdfrwt beam="1">  1        2 0.72742555E-01 0.79204026E+02</pdfrwt>
<pdfrwt beam="2">  1       -1 0.51029259E-03 0.79204026E+02</pdfrwt>
<totfact> 0.30695419E+05</totfact>
</mgrwt>
</event>
<event>
 8    1  0.7667702E-014  0.7823159E+02  0.7818608E-02  0.1334146E+00
         -1   -1    0    0    0  501 -0.00000000000E+00  0.00000000000E+00  0.19573897289E+01  0.19573962175E+01  0.50400000000E-02 0.  1.
          2   -1    0    0  501    0  0.00000000000E+00 -0.00000000000E+00 -0.78167513179E+03  0.78167513180E+03  0.25500000000E-02 0. -1.
         24    2    1    2    0    0  0.17763568394E-14  0.17763568394E-14 -0.77971774206E+03  0.78363252801E+03  0.78231589994E+02 0.  0.
         66    2    3    3    0    0 -0.14522779661E+02  0.12856117689E+02 -0.73007324726E+03  0.73033357944E+03  0.19999992709E+01 0.  0.
        -13    1    3    3    0    0  0.14522779661E+02 -0.12856117689E+02 -0.49644494806E+02  0.53298948580E+02  0.10566000000E+00 0.  1.
         13    1    4    4    0    0 -0.78757135893E+01  0.59208297043E+01 -0.37813382891E+03  0.37826219321E+03  0.10566000000E+00 0. -1.
        -13    1    4    4    0    0 -0.23646286196E+01  0.22359214057E+01 -0.10753435339E+03  0.10758363786E+03  0.10566000000E+00 0.  1.
        -14    1    4    4    0    0 -0.42824374521E+01  0.46993665793E+01 -0.24440506496E+03  0.24448774836E+03  0.00000000000E+00 0.  1.
<mgrwt>
<rscale>  0 0.78231590E+02</rscale>
<asrwt>0</asrwt>
<pdfrwt beam="1">  1        2 0.12025746E+00 0.78231590E+02</pdfrwt>
<pdfrwt beam="2">  1       -1 0.30113801E-03 0.78231590E+02</pdfrwt>
<totfact> 0.36268198E+05</totfact>
</mgrwt>
</event>
<event>
 8    1  0.7667702E-014  0.7866851E+02  0.7818608E-02  0.1332873E+00
         -1   -1    0    0    0  501 -0.00000000000E+00  0.00000000000E+00  0.80371095771E+01  0.80371111573E+01  0.50400000000E-02 0.  1.
          2   -1    0    0  501    0  0.00000000000E+00 -0.00000000000E+00 -0.19250494703E+03  0.19250494705E+03  0.25500000000E-02 0. -1.
         24    2    1    2    0    0  0.71054273576E-14  0.35527136788E-14 -0.18446783745E+03  0.20054205821E+03  0.78668507386E+02 0.  0.
         66    2    3    3    0    0  0.33487939143E+02  0.17494052868E+02 -0.11994895053E+03  0.12577453927E+03  0.20000103761E+01 0.  0.
        -13    1    3    3    0    0 -0.33487939143E+02 -0.17494052868E+02 -0.64518886922E+02  0.74767518933E+02  0.10566000000E+00 0.  1.
         13    1    4    4    0    0  0.53134681346E+01  0.26315290077E+01 -0.21099560992E+02  0.21917128612E+02  0.10566000000E+00 0. -1.
        -13    1    4    4    0    0  0.17561292435E+02  0.91203422582E+01 -0.60428350150E+02  0.63585975661E+02  0.10566000000E+00 0.  1.
         14    1    4    4    0    0  0.10613178574E+02  0.57421816020E+01 -0.38421039391E+02  0.40271434999E+02  0.00000000000E+00 0. -1.
<mgrwt>
<rscale>  0 0.78668507E+02</rscale>
<asrwt>0</asrwt>
<pdfrwt beam="1">  1        2 0.29616142E-01 0.78668507E+02</pdfrwt>
<pdfrwt beam="2">  1       -1 0.12364787E-02 0.78668507E+02</pdfrwt>
<totfact> 0.22754522E+05</totfact>
</mgrwt>
</event>
<event>
 8    1  0.7667702E-014  0.7808511E+02  0.7818608E-02  0.1334575E+00
          2   -1    0    0  501    0  0.00000000000E+00  0.00000000000E+00  0.28408802223E+03  0.28408802224E+03  0.25500000000E-02 0. -1.
         -1   -1    0    0    0  501 -0.00000000000E+00 -0.00000000000E+00 -0.53656639065E+01  0.53656662736E+01  0.50400000000E-02 0.  1.
         24    2    1    2    0    0 -0.35527136788E-14  0.00000000000E+00  0.27872235832E+03  0.28945368851E+03  0.78085112317E+02 0.  0.
         66    2    3    3    0    0  0.20412602204E+02 -0.18558761699E+02  0.24172613175E+03  0.24330356490E+03  0.19999900182E+01 0.  0.
        -13    1    3    3    0    0 -0.20412602204E+02  0.18558761699E+02  0.36996226573E+02  0.46150123610E+02  0.10566000000E+00 0.  1.
         13    1    4    4    0    0  0.37515194959E+01 -0.32800902876E+01  0.40757955851E+02  0.41061600310E+02  0.10566000000E+00 0. -1.
        -13    1    4    4    0    0  0.15953595445E+02 -0.14675421540E+02  0.19510618707E+03  0.19630670035E+03  0.10566000000E+00 0.  1.
        -14    1    4    4    0    0  0.70748726288E+00 -0.60324987053E+00  0.58619888231E+01  0.59352642398E+01  0.00000000000E+00 0.  1.
<mgrwt>
<rscale>  0 0.78085112E+02</rscale>
<asrwt>0</asrwt>
<pdfrwt beam="1">  1        2 0.43705858E-01 0.78085112E+02</pdfrwt>
<pdfrwt beam="2">  1       -1 0.82548678E-03 0.78085112E+02</pdfrwt>
<totfact> 0.26634579E+05</totfact>
</mgrwt>
</event>
<event>
 8    1  0.7667702E-014  0.7862843E+02  0.7818608E-02  0.1332989E+00
         -1   -1    0    0    0  501 -0.00000000000E+00  0.00000000000E+00  0.20778945683E+01  0.20779006807E+01  0.50400000000E-02 0.  1.
          2   -1    0    0  501    0  0.00000000000E+00 -0.00000000000E+00 -0.74383229345E+03  0.74383229345E+03  0.25500000000E-02 0. -1.
         24    2    1    2    0    0 -0.17763568394E-14  0.00000000000E+00 -0.74175439888E+03  0.74591019413E+03  0.78628426502E+02 0.  0.
         66    2    3    3    0    0 -0.12826629458E+02 -0.33724327442E+00 -0.72339307172E+03  0.72350962147E+03  0.19999999769E+01 0.  0.
        -13    1    3    3    0    0  0.12826629458E+02  0.33724327442E+00 -0.18361327162E+02  0.22400572659E+02  0.10566000000E+00 0.  1.
         13    1    4    4    0    0 -0.80803245336E+01 -0.98951468077E+00 -0.45838845000E+03  0.45846074318E+03  0.10566000000E+00 0. -1.
        -13    1    4    4    0    0 -0.12968057480E+01  0.55354226900E-02 -0.86166268356E+02  0.86176091245E+02  0.10566000000E+00 0.  1.
        -14    1    4    4    0    0 -0.34494991759E+01  0.64673598366E+00 -0.17883835336E+03  0.17887278704E+03  0.00000000000E+00 0.  1.
<mgrwt>
<rscale>  0 0.78628427E+02</rscale>
<asrwt>0</asrwt>
<pdfrwt beam="1">  1        2 0.11443553E+00 0.78628427E+02</pdfrwt>
<pdfrwt beam="2">  1       -1 0.31967715E-03 0.78628427E+02</pdfrwt>
<totfact> 0.35452417E+05</totfact>
</mgrwt>
</event>
<event>
 8    1  0.7667702E-014  0.7418528E+02  0.7818608E-02  0.1346413E+00
          2   -1    0    0  501    0  0.00000000000E+00  0.00000000000E+00  0.46297055133E+03  0.46297055133E+03  0.25500000000E-02 0. -1.
         -1   -1    0    0    0  501 -0.00000000000E+00 -0.00000000000E+00 -0.29718152048E+01  0.29718194786E+01  0.50400000000E-02 0.  1.
         24    2    1    2    0    0  0.00000000000E+00  0.71054273576E-14  0.45999873612E+03  0.46594237081E+03  0.74185279432E+02 0.  0.
         66    2    3    3    0    0  0.18941155514E+02 -0.29813765238E+02  0.30073241559E+03  0.30280623138E+03  0.20000011206E+01 0.  0.
        -13    1    3    3    0    0 -0.18941155514E+02  0.29813765238E+02  0.15926632053E+03  0.16313613943E+03  0.10566000000E+00 0.  1.
         13    1    4    4    0    0  0.72518728874E+00 -0.13146662456E+01  0.10481521206E+02  0.10589036536E+02  0.10566000000E+00 0. -1.
        -13    1    4    4    0    0  0.42935039937E+01 -0.63015042992E+01  0.69015398767E+02  0.69435434499E+02  0.10566000000E+00 0.  1.
         14    1    4    4    0    0  0.13922464232E+02 -0.22197594694E+02  0.22123549562E+03  0.22278176034E+03  0.00000000000E+00 0. -1.
<mgrwt>
<rscale>  0 0.74185279E+02</rscale>
<asrwt>0</asrwt>
<pdfrwt beam="1">  1        2 0.71226292E-01 0.74185279E+02</pdfrwt>
<pdfrwt beam="2">  1       -1 0.45720233E-03 0.74185279E+02</pdfrwt>
<totfact> 0.36130734E+05</totfact>
</mgrwt>
</event>
<event>
 8    1  0.7667702E-014  0.8142046E+02  0.7818608E-02  0.1325068E+00
          2   -1    0    0  501    0  0.00000000000E+00  0.00000000000E+00  0.30572437569E+03  0.30572437571E+03  0.25500000000E-02 0. -1.
         -1   -1    0    0    0  501 -0.00000000000E+00 -0.00000000000E+00 -0.54209692350E+01  0.54209715779E+01  0.50400000000E-02 0.  1.
         24    2    1    2    0    0 -0.88817841970E-15  0.00000000000E+00  0.30030340646E+03  0.31114534728E+03  0.81420459374E+02 0.  0.
         66    2    3    3    0    0 -0.40927474716E+01 -0.40400198423E+02  0.14058106813E+03  0.14634193973E+03  0.19999984851E+01 0.  0.
        -13    1    3    3    0    0  0.40927474716E+01  0.40400198423E+02  0.15972233833E+03  0.16480340755E+03  0.10566000000E+00 0.  1.
         13    1    4    4    0    0  0.37714627566E-01 -0.10695432312E+01  0.32168181523E+01  0.33918178278E+01  0.10566000000E+00 0. -1.
        -13    1    4    4    0    0 -0.36503061311E+01 -0.29425250743E+02  0.10358085377E+03  0.10774123885E+03  0.10566000000E+00 0.  1.
         14    1    4    4    0    0 -0.48015596807E+00 -0.99054044485E+01  0.33783396202E+02  0.35208883055E+02  0.00000000000E+00 0. -1.
<mgrwt>
<rscale>  0 0.81420459E+02</rscale>
<asrwt>0</asrwt>
<pdfrwt beam="1">  1        2 0.47034526E-01 0.81420459E+02</pdfrwt>
<pdfrwt beam="2">  1       -1 0.83399534E-03 0.81420459E+02</pdfrwt>
<totfact> 0.24511229E+05</totfact>
</mgrwt>
</event>
<event>
 8    1  0.7667702E-014  0.8053886E+02  0.7818608E-02  0.1327529E+00
          2   -1    0    0  501    0  0.00000000000E+00  0.00000000000E+00  0.10665792891E+04  0.10665792891E+04  0.25500000000E-02 0. -1.
         -1   -1    0    0    0  501 -0.00000000000E+00 -0.00000000000E+00 -0.15203955194E+01  0.15204038730E+01  0.50400000000E-02 0.  1.
         24    2    1    2    0    0 -0.71054273576E-14  0.17763568394E-14  0.10650588936E+04  0.10680996930E+04  0.80538856092E+02 0.  0.
         66    2    3    3    0    0 -0.23225231227E+02  0.82099191931E+01  0.95491268716E+03  0.95523246083E+03  0.19999978681E+01 0.  0.
        -13    1    3    3    0    0  0.23225231227E+02 -0.82099191931E+01  0.11014620641E+03  0.11286723213E+03  0.10566000000E+00 0.  1.
         13    1    4    4    0    0 -0.17518774740E+01  0.55209426549E+00  0.87212497270E+02  0.87231902002E+02  0.10566000000E+00 0. -1.
        -13    1    4    4    0    0 -0.99520157325E+01  0.42123980274E+01  0.41294779304E+03  0.41308918874E+03  0.10566000000E+00 0.  1.
         14    1    4    4    0    0 -0.11521338020E+02  0.34454269002E+01  0.45475239685E+03  0.45491137009E+03  0.00000000000E+00 0. -1.
<mgrwt>
<rscale>  0 0.80538856E+02</rscale>
<asrwt>0</asrwt>
<pdfrwt beam="1">  1        2 0.16408907E+00 0.80538856E+02</pdfrwt>
<pdfrwt beam="2">  1       -1 0.23390772E-03 0.80538856E+02</pdfrwt>
<totfact> 0.34662869E+05</totfact>
</mgrwt>
</event>
<event>
 8    1  0.7667702E-014  0.8066781E+02  0.7818608E-02  0.1327167E+00
         -1   -1    0    0    0  501 -0.00000000000E+00  0.00000000000E+00  0.17536037442E+01  0.17536109869E+01  0.50400000000E-02 0.  1.
          2   -1    0    0  501    0  0.00000000000E+00 -0.00000000000E+00 -0.92770130503E+03  0.92770130504E+03  0.25500000000E-02 0. -1.
         24    2    1    2    0    0  0.00000000000E+00  0.00000000000E+00 -0.92594770129E+03  0.92945491602E+03  0.80667808933E+02 0.  0.
         66    2    3    3    0    0 -0.16831782011E+02  0.13944590797E+02 -0.85348780124E+03  0.85376998504E+03  0.19999998330E+01 0.  0.
        -13    1    3    3    0    0  0.16831782011E+02 -0.13944590797E+02 -0.72459900051E+02  0.75684930981E+02  0.10566000000E+00 0.  1.
         13    1    4    4    0    0 -0.86382683206E+01  0.70534125502E+01 -0.45096750595E+03  0.45110539001E+03  0.10566000000E+00 0. -1.
        -13    1    4    4    0    0 -0.44039452795E+01  0.42448872928E+01 -0.21205551848E+03  0.21214374345E+03  0.10566000000E+00 0.  1.
         14    1    4    4    0    0 -0.37895684108E+01  0.26462909544E+01 -0.19046477681E+03  0.19052085158E+03  0.00000000000E+00 0. -1.
<mgrwt>
<rscale>  0 0.80667809E+02</rscale>
<asrwt>0</asrwt>
<pdfrwt beam="1">  1        2 0.14272289E+00 0.80667809E+02</pdfrwt>
<pdfrwt beam="2">  1       -1 0.26978649E-03 0.80667809E+02</pdfrwt>
<totfact> 0.34304830E+05</totfact>
</mgrwt>
</event>
<event>
 8    1  0.7667702E-014  0.7855488E+02  0.7818608E-02  0.1333203E+00
          2   -1    0    0  501    0  0.00000000000E+00  0.00000000000E+00  0.99185642691E+02  0.99185642724E+02  0.25500000000E-02 0. -1.
         -1   -1    0    0    0  501 -0.00000000000E+00 -0.00000000000E+00 -0.15553837793E+02  0.15553838610E+02  0.50400000000E-02 0.  1.
         24    2    1    2    0    0  0.35527136788E-14 -0.17763568394E-14  0.83631804898E+02  0.11473948133E+03  0.78554883912E+02 0.  0.
         66    2    3    3    0    0  0.27062549748E+02  0.15836287769E+02  0.76331792389E+02  0.82545212344E+02  0.19999856112E+01 0.  0.
        -13    1    3    3    0    0 -0.27062549748E+02 -0.15836287769E+02  0.73000125090E+01  0.32194268990E+02  0.10566000000E+00 0.  1.
         13    1    4    4    0    0  0.94297650293E+01  0.53131150952E+01  0.24189681330E+02  0.26500971820E+02  0.10566000000E+00 0. -1.
        -13    1    4    4    0    0  0.70725138503E+01  0.44740412987E+01  0.21961529920E+02  0.23502286233E+02  0.10566000000E+00 0.  1.
         14    1    4    4    0    0  0.10560270868E+02  0.60491313754E+01  0.30180581139E+02  0.32541954292E+02  0.00000000000E+00 0. -1.
<mgrwt>
<rscale>  0 0.78554884E+02</rscale>
<asrwt>0</asrwt>
<pdfrwt beam="1">  1        2 0.15259330E-01 0.78554884E+02</pdfrwt>
<pdfrwt beam="2">  1       -1 0.23928981E-02 0.78554884E+02</pdfrwt>
<totfact> 0.18569676E+05</totfact>
</mgrwt>
</event>
<event>
 8    1  0.7667702E-014  0.8306521E+02  0.7818608E-02  0.1320571E+00
         -1   -1    0    0    0  501 -0.00000000000E+00  0.00000000000E+00  0.24239089811E+01  0.24239142209E+01  0.50400000000E-02 0.  1.
          2   -1    0    0  501    0  0.00000000000E+00 -0.00000000000E+00 -0.71164204430E+03  0.71164204431E+03  0.25500000000E-02 0. -1.
         24    2    1    2    0    0  0.88817841970E-15  0.00000000000E+00 -0.70921813532E+03  0.71406595853E+03  0.83065213294E+02 0.  0.
         66    2    3    3    0    0  0.74538601545E+01 -0.75892400672E+01 -0.69972308124E+03  0.69980679263E+03  0.19999992526E+01 0.  0.
        -13    1    3    3    0    0 -0.74538601545E+01  0.75892400672E+01 -0.94950540793E+01  0.14259165894E+02  0.10566000000E+00 0.  1.
         13    1    4    4    0    0  0.26303113162E+01 -0.24776950385E+01 -0.28745534458E+03  0.28747807534E+03  0.10566000000E+00 0. -1.
        -13    1    4    4    0    0  0.93889089988E+00 -0.86508725861E+00 -0.57221605530E+02  0.57235943214E+02  0.10566000000E+00 0.  1.
         14    1    4    4    0    0  0.38846579385E+01 -0.42464577701E+01 -0.35504613113E+03  0.35509277408E+03  0.00000000000E+00 0. -1.
<mgrwt>
<rscale>  0 0.83065213E+02</rscale>
<asrwt>0</asrwt>
<pdfrwt beam="1">  1        2 0.10948323E+00 0.83065213E+02</pdfrwt>
<pdfrwt beam="2">  1       -1 0.37291005E-03 0.83065213E+02</pdfrwt>
<totfact> 0.30444715E+05</totfact>
</mgrwt>
</event>
<event>
 8    1  0.7667702E-014  0.8043238E+02  0.7818608E-02  0.1327829E+00
          2   -1    0    0  501    0  0.00000000000E+00  0.00000000000E+00  0.27798311958E+02  0.27798312075E+02  0.25500000000E-02 0. -1.
         -1   -1    0    0    0  501 -0.00000000000E+00 -0.00000000000E+00 -0.58181295391E+02  0.58181295609E+02  0.50400000000E-02 0.  1.
         24    2    1    2    0    0  0.00000000000E+00  0.00000000000E+00 -0.30382983434E+02  0.85979607684E+02  0.80432376909E+02 0.  0.
         66    2    3    3    0    0 -0.34914849611E+02  0.67627956563E+01  0.48135364653E+01  0.35943737496E+02  0.20000008473E+01 0.  0.
        -13    1    3    3    0    0  0.34914849611E+02 -0.67627956563E+01 -0.35196519899E+02  0.50035870188E+02  0.10566000000E+00 0.  1.
         13    1    4    4    0    0 -0.74844112215E+01  0.17258297571E+01  0.79778109232E+00  0.77228568800E+01  0.10566000000E+00 0.  1.
        -13    1    4    4    0    0 -0.37495624136E+01  0.39965298944E+00  0.99946592653E+00  0.39024398752E+01  0.10566000000E+00 0. -1.
         14    1    4    4    0    0 -0.23680875976E+02  0.46373129098E+01  0.30162894464E+01  0.24318440740E+02  0.00000000000E+00 0. -1.
<mgrwt>
<rscale>  0 0.80432377E+02</rscale>
<asrwt>0</asrwt>
<pdfrwt beam="1">  1        2 0.42766634E-02 0.80432377E+02</pdfrwt>
<pdfrwt beam="2">  1       -1 0.89509685E-02 0.80432377E+02</pdfrwt>
<totfact> 0.13055012E+05</totfact>
</mgrwt>
</event>
<event>
 8    1  0.7667702E-014  0.7913228E+02  0.7818608E-02  0.1331532E+00
          2   -1    0    0  501    0  0.00000000000E+00  0.00000000000E+00  0.42764302631E+03  0.42764302631E+03  0.25500000000E-02 0. -1.
         -1   -1    0    0    0  501 -0.00000000000E+00 -0.00000000000E+00 -0.36607138400E+01  0.36607173095E+01  0.50400000000E-02 0.  1.
         24    2    1    2    0    0  0.88817841970E-15  0.00000000000E+00  0.42398231247E+03  0.43130374362E+03  0.79132281524E+02 0.  0.
         66    2    3    3    0    0  0.47699228736E+01  0.21879331527E+02  0.38974760819E+03  0.39039551153E+03  0.20000044923E+01 0.  0.
        -13    1    3    3    0    0 -0.47699228736E+01 -0.21879331527E+02  0.34234704271E+02  0.40908232092E+02  0.10566000000E+00 0.  1.
         13    1    4    4    0    0  0.72740054748E+00  0.39640123618E+01  0.78267118548E+02  0.78370884360E+02  0.10566000000E+00 0. -1.
        -13    1    4    4    0    0  0.73189912029E+00  0.52375313204E+01  0.97412562661E+02  0.97556065618E+02  0.10566000000E+00 0.  1.
         14    1    4    4    0    0  0.33106232058E+01  0.12677787845E+02  0.21406792699E+03  0.21446856155E+03  0.00000000000E+00 0. -1.
<mgrwt>
<rscale>  0 0.79132282E+02</rscale>
<asrwt>0</asrwt>
<pdfrwt beam="1">  1        2 0.65791259E-01 0.79132282E+02</pdfrwt>
<pdfrwt beam="2">  1       -1 0.56318681E-03 0.79132282E+02</pdfrwt>
<totfact> 0.29749080E+05</totfact>
</mgrwt>
</event>
<event>
 8    1  0.7667702E-014  0.8062225E+02  0.7818608E-02  0.1327295E+00
          2   -1    0    0  501    0  0.00000000000E+00  0.00000000000E+00  0.87025050750E+03  0.87025050751E+03  0.25500000000E-02 0. -1.
         -1   -1    0    0    0  501 -0.00000000000E+00 -0.00000000000E+00 -0.18672598690E+01  0.18672666708E+01  0.50400000000E-02 0.  1.
         24    2    1    2    0    0 -0.17763568394E-14 -0.44408920985E-15  0.86838324763E+03  0.87211777418E+03  0.80622250434E+02 0.  0.
         66    2    3    3    0    0  0.10360662074E+02  0.36912846999E+01  0.85369261769E+03  0.85376580770E+03  0.20000006122E+01 0.  0.
        -13    1    3    3    0    0 -0.10360662074E+02 -0.36912846999E+01  0.14690629949E+02  0.18351966479E+02  0.10566000000E+00 0.  1.
         13    1    4    4    0    0  0.25744089912E+01  0.52108510894E+00  0.24324232762E+03  0.24325653171E+03  0.10566000000E+00 0. -1.
        -13    1    4    4    0    0  0.54886896430E+01  0.27537861634E+01  0.42890407532E+03  0.42894804586E+03  0.10566000000E+00 0.  1.
        -14    1    4    4    0    0  0.22975634395E+01  0.41641342754E+00  0.18154621475E+03  0.18156123013E+03  0.00000000000E+00 0.  1.
<mgrwt>
<rscale>  0 0.80622250E+02</rscale>
<asrwt>0</asrwt>
<pdfrwt beam="1">  1        2 0.13388470E+00 0.80622250E+02</pdfrwt>
<pdfrwt beam="2">  1       -1 0.28727126E-03 0.80622250E+02</pdfrwt>
<totfact> 0.34112658E+05</totfact>
</mgrwt>
</event>
<event>
 8    1  0.7667702E-014  0.8688336E+02  0.7818608E-02  0.1310580E+00
          2   -1    0    0  501    0  0.00000000000E+00  0.00000000000E+00  0.19587420191E+03  0.19587420192E+03  0.25500000000E-02 0. -1.
         -1   -1    0    0    0  501 -0.00000000000E+00 -0.00000000000E+00 -0.96346508352E+01  0.96346521534E+01  0.50400000000E-02 0.  1.
         24    2    1    2    0    0  0.88817841970E-15  0.00000000000E+00  0.18623955107E+03  0.20550885408E+03  0.86883362737E+02 0.  0.
         66    2    3    3    0    0  0.44326984199E+01 -0.26058642168E+02  0.17464369468E+03  0.17664405377E+03  0.19999990849E+01 0.  0.
        -13    1    3    3    0    0 -0.44326984199E+01  0.26058642168E+02  0.11595856393E+02  0.28864800302E+02  0.10566000000E+00 0.  1.
         13    1    4    4    0    0  0.32582206152E+01 -0.18829993218E+02  0.12266719915E+03  0.12414683869E+03  0.10566000000E+00 0. -1.
        -13    1    4    4    0    0  0.10991347291E+01 -0.65049157762E+01  0.48381208233E+02  0.48829033377E+02  0.10566000000E+00 0.  1.
         14    1    4    4    0    0  0.75343075654E-01 -0.72373317335E+00  0.35952872932E+01  0.36681817029E+01  0.00000000000E+00 0. -1.
<mgrwt>
<rscale>  0 0.86883363E+02</rscale>
<asrwt>0</asrwt>
<pdfrwt beam="1">  1        2 0.30134495E-01 0.86883363E+02</pdfrwt>
<pdfrwt beam="2">  1       -1 0.14822540E-02 0.86883363E+02</pdfrwt>
<totfact> 0.17595667E+05</totfact>
</mgrwt>
</event>
<event>
 8    1  0.7667702E-014  0.7996111E+02  0.7818608E-02  0.1329162E+00
         -1   -1    0    0    0  501 -0.00000000000E+00  0.00000000000E+00  0.14830592016E+02  0.14830592872E+02  0.50400000000E-02 0.  1.
          2   -1    0    0  501    0  0.00000000000E+00 -0.00000000000E+00 -0.10778023548E+03  0.10778023551E+03  0.25500000000E-02 0. -1.
         24    2    1    2    0    0  0.00000000000E+00  0.17763568394E-14 -0.92949643463E+02  0.12261082838E+03  0.79961109399E+02 0.  0.
         66    2    3    3    0    0 -0.16572188517E+02  0.14012339060E+02 -0.97945409252E+02  0.10034085043E+03  0.19999982121E+01 0.  0.
        -13    1    3    3    0    0  0.16572188517E+02 -0.14012339060E+02  0.49957657889E+01  0.22269977953E+02  0.10566000000E+00 0.  1.
         13    1    4    4    0    0 -0.10178653077E+02  0.92683962310E+01 -0.61932409900E+02  0.63444012383E+02  0.10566000000E+00 0. -1.
        -13    1    4    4    0    0 -0.50967456049E+01  0.38285931427E+01 -0.26783157542E+02  0.27531502559E+02  0.10566000000E+00 0.  1.
        -14    1    4    4    0    0 -0.12967898349E+01  0.91534968606E+00 -0.92298418100E+01  0.93653354857E+01  0.00000000000E+00 0.  1.
<mgrwt>
<rscale>  0 0.79961109E+02</rscale>
<asrwt>0</asrwt>
<pdfrwt beam="1">  1        2 0.16581574E-01 0.79961109E+02</pdfrwt>
<pdfrwt beam="2">  1       -1 0.22816297E-02 0.79961109E+02</pdfrwt>
<totfact> 0.18130398E+05</totfact>
</mgrwt>
</event>
<event>
 8    1  0.7667702E-014  0.7925820E+02  0.7818608E-02  0.1331170E+00
          2   -1    0    0  501    0  0.00000000000E+00  0.00000000000E+00  0.23584612386E+03  0.23584612388E+03  0.25500000000E-02 0. -1.
         -1   -1    0    0    0  501 -0.00000000000E+00 -0.00000000000E+00 -0.66588555459E+01  0.66588574532E+01  0.50400000000E-02 0.  1.
         24    2    1    2    0    0  0.00000000000E+00 -0.88817841970E-15  0.22918726832E+03  0.24250498133E+03  0.79258198385E+02 0.  0.
         66    2    3    3    0    0  0.33759022355E+02 -0.46466540742E+01  0.17640816566E+03  0.17968056071E+03  0.20000006794E+01 0.  0.
        -13    1    3    3    0    0 -0.33759022355E+02  0.46466540742E+01  0.52779102663E+02  0.62824420621E+02  0.10566000000E+00 0.  1.
         13    1    4    4    0    0  0.11241695470E+02 -0.14008647762E+01  0.57259984338E+02  0.58369984663E+02  0.10566000000E+00 0. -1.
        -13    1    4    4    0    0  0.69843096950E+01 -0.17169082965E+01  0.38275512655E+02  0.38945531053E+02  0.10566000000E+00 0.  1.
        -14    1    4    4    0    0  0.15533017189E+02 -0.15288810015E+01  0.80872668663E+02  0.82365044994E+02  0.00000000000E+00 0.  1.
<mgrwt>
<rscale>  0 0.79258198E+02</rscale>
<asrwt>0</asrwt>
<pdfrwt beam="1">  1        2 0.36284012E-01 0.79258198E+02</pdfrwt>
<pdfrwt beam="2">  1       -1 0.10244397E-02 0.79258198E+02</pdfrwt>
<totfact> 0.23956474E+05</totfact>
</mgrwt>
</event>
<event>
 8    1  0.7667702E-014  0.7882838E+02  0.7818608E-02  0.1332410E+00
         -1   -1    0    0    0  501 -0.00000000000E+00  0.00000000000E+00  0.32016454259E+01  0.32016493928E+01  0.50400000000E-02 0.  1.
          2   -1    0    0  501    0  0.00000000000E+00 -0.00000000000E+00 -0.48521215943E+03  0.48521215944E+03  0.25500000000E-02 0. -1.
         24    2    1    2    0    0  0.00000000000E+00  0.00000000000E+00 -0.48201051401E+03  0.48841380883E+03  0.78828377155E+02 0.  0.
         66    2    3    3    0    0  0.16182435838E+02  0.35792734512E+02 -0.25920512394E+03  0.26217224749E+03  0.20000004109E+01 0.  0.
        -13    1    3    3    0    0 -0.16182435838E+02 -0.35792734512E+02 -0.22280539006E+03  0.22624156134E+03  0.10566000000E+00 0.  1.
         13    1    4    4    0    0  0.35014051284E+01  0.71754035937E+01 -0.51679305759E+02  0.52292523963E+02  0.10566000000E+00 0. -1.
        -13    1    4    4    0    0  0.75495428412E+00  0.12985943246E+01 -0.12174197723E+02  0.12266970181E+02  0.10566000000E+00 0.  1.
        -14    1    4    4    0    0  0.11926076426E+02  0.27318736594E+02 -0.19535162046E+03  0.19761275334E+03  0.00000000000E+00 0.  1.
<mgrwt>
<rscale>  0 0.78828377E+02</rscale>
<asrwt>0</asrwt>
<pdfrwt beam="1">  1        2 0.74647966E-01 0.78828377E+02</pdfrwt>
<pdfrwt beam="2">  1       -1 0.49256153E-03 0.78828377E+02</pdfrwt>
<totfact> 0.31340687E+05</totfact>
</mgrwt>
</event>
<event>
 8    1  0.7667702E-014  0.8049222E+02  0.7818608E-02  0.1327660E+00
         -1   -1    0    0    0  501 -0.00000000000E+00  0.00000000000E+00  0.40950849973E+01  0.40950880988E+01  0.50400000000E-02 0.  1.
          2   -1    0    0  501    0  0.00000000000E+00 -0.00000000000E+00 -0.39553483676E+03  0.39553483677E+03  0.25500000000E-02 0. -1.
         24    2    1    2    0    0  0.00000000000E+00  0.17763568394E-14 -0.39143975176E+03  0.39962992487E+03  0.80492220675E+02 0.  0.
         66    2    3    3    0    0  0.29030103121E+02  0.13771478747E+02 -0.31595880163E+03  0.31759465495E+03  0.20000020786E+01 0.  0.
        -13    1    3    3    0    0 -0.29030103121E+02 -0.13771478747E+02 -0.75480950127E+02  0.82035269916E+02  0.10566000000E+00 0.  1.
         13    1    4    4    0    0  0.17376795111E+01  0.55180636879E+00 -0.16423839184E+02  0.16525062116E+02  0.10566000000E+00 0.  1.
        -13    1    4    4    0    0  0.31897657563E+01  0.19732061458E+01 -0.39648818499E+02  0.39825972938E+02  0.10566000000E+00 0.  1.
         14    1    4    4    0    0  0.24102657853E+02  0.11246466233E+02 -0.25988614395E+03  0.26124361990E+03  0.00000000000E+00 0. -1.
<mgrwt>
<rscale>  0 0.80492221E+02</rscale>
<asrwt>0</asrwt>
<pdfrwt beam="1">  1        2 0.60851483E-01 0.80492221E+02</pdfrwt>
<pdfrwt beam="2">  1       -1 0.63001363E-03 0.80492221E+02</pdfrwt>
<totfact> 0.27695271E+05</totfact>
</mgrwt>
</event>
<event>
 8    1  0.7667702E-014  0.8387706E+02  0.7818608E-02  0.1318396E+00
          2   -1    0    0  501    0  0.00000000000E+00  0.00000000000E+00  0.18967938613E+03  0.18967938615E+03  0.25500000000E-02 0. -1.
         -1   -1    0    0    0  501 -0.00000000000E+00 -0.00000000000E+00 -0.92727007705E+01  0.92727021402E+01  0.50400000000E-02 0.  1.
         24    2    1    2    0    0  0.11102230246E-15  0.00000000000E+00  0.18040668536E+03  0.19895208829E+03  0.83877060699E+02 0.  0.
         66    2    3    3    0    0 -0.84581997964E+00 -0.25571314920E+02  0.16900274583E+03  0.17094015228E+03  0.20000012531E+01 0.  0.
        -13    1    3    3    0    0  0.84581997964E+00  0.25571314920E+02  0.11403939532E+02  0.28011936010E+02  0.10566000000E+00 0.  1.
         13    1    4    4    0    0 -0.12562691659E+01 -0.14387278036E+02  0.94802400956E+02  0.95896185391E+02  0.10566000000E+00 0. -1.
        -13    1    4    4    0    0 -0.18762605206E+00 -0.12239319207E+01  0.82163357783E+01  0.83097864316E+01  0.10566000000E+00 0. -1.
        -14    1    4    4    0    0  0.59807523831E+00 -0.99601049633E+01  0.65984009092E+02  0.66734180453E+02  0.00000000000E+00 0.  1.
<mgrwt>
<rscale>  0 0.83877061E+02</rscale>
<asrwt>0</asrwt>
<pdfrwt beam="1">  1        2 0.29181442E-01 0.83877061E+02</pdfrwt>
<pdfrwt beam="2">  1       -1 0.14265696E-02 0.83877061E+02</pdfrwt>
<totfact> 0.19107666E+05</totfact>
</mgrwt>
</event>
<event>
 8    1  0.7667702E-014  0.7860690E+02  0.7818608E-02  0.1333052E+00
          2   -1    0    0  501    0  0.00000000000E+00  0.00000000000E+00  0.14470456273E+04  0.14470456273E+04  0.25500000000E-02 0. -1.
         -1   -1    0    0    0  501 -0.00000000000E+00 -0.00000000000E+00 -0.10675217212E+01  0.10675336186E+01  0.50400000000E-02 0.  1.
         24    2    1    2    0    0  0.17763568394E-14 -0.22204460493E-15  0.14459781056E+04  0.14481131609E+04  0.78606901853E+02 0.  0.
         66    2    3    3    0    0  0.15858211542E+02  0.11132399993E+01  0.13851272635E+04  0.13852199313E+04  0.20000051408E+01 0.  0.
        -13    1    3    3    0    0 -0.15858211542E+02 -0.11132399993E+01  0.60850842093E+02  0.62893229557E+02  0.10566000000E+00 0.  1.
         13    1    4    4    0    0  0.91312691283E+01  0.13474458996E+00  0.77389304161E+03  0.77394692922E+03  0.10566000000E+00 0. -1.
        -13    1    4    4    0    0  0.36507761600E+01  0.39153555080E+00  0.37583899556E+03  0.37585694515E+03  0.10566000000E+00 0.  1.
         14    1    4    4    0    0  0.30761662533E+01  0.58695985852E+00  0.23539522630E+03  0.23541605698E+03  0.00000000000E+00 0. -1.
<mgrwt>
<rscale>  0 0.78606902E+02</rscale>
<asrwt>0</asrwt>
<pdfrwt beam="1">  1        2 0.22262293E+00 0.78606902E+02</pdfrwt>
<pdfrwt beam="2">  1       -1 0.16423464E-03 0.78606902E+02</pdfrwt>
<totfact> 0.35245022E+05</totfact>
</mgrwt>
</event>
<event>
 8    1  0.7667702E-014  0.7968344E+02  0.7818608E-02  0.1329952E+00
          2   -1    0    0  501    0  0.00000000000E+00  0.00000000000E+00  0.31137114916E+03  0.31137114917E+03  0.25500000000E-02 0. -1.
         -1   -1    0    0    0  501 -0.00000000000E+00 -0.00000000000E+00 -0.50979750319E+01  0.50979775233E+01  0.50400000000E-02 0.  1.
         24    2    1    2    0    0  0.00000000000E+00 -0.88817841970E-15  0.30627317413E+03  0.31646912670E+03  0.79683442194E+02 0.  0.
         66    2    3    3    0    0 -0.11222998407E+02  0.62706432535E+01  0.30289764854E+03  0.30317694865E+03  0.20000115601E+01 0.  0.
        -13    1    3    3    0    0  0.11222998407E+02 -0.62706432535E+01  0.33755255954E+01  0.13292178043E+02  0.10566000000E+00 0.  1.
         13    1    4    4    0    0 -0.74356111672E+01  0.37565230877E+01  0.18743896097E+03  0.18762402573E+03  0.10566000000E+00 0. -1.
        -13    1    4    4    0    0 -0.62125693552E+00  0.93008895836E+00  0.26381762986E+02  0.26405673784E+02  0.10566000000E+00 0.  1.
        -14    1    4    4    0    0 -0.31661303043E+01  0.15840312074E+01  0.89076924583E+02  0.89147249140E+02  0.00000000000E+00 0.  1.
<mgrwt>
<rscale>  0 0.79683442E+02</rscale>
<asrwt>0</asrwt>
<pdfrwt beam="1">  1        2 0.47903252E-01 0.79683442E+02</pdfrwt>
<pdfrwt beam="2">  1       -1 0.78430407E-03 0.79683442E+02</pdfrwt>
<totfact> 0.26109745E+05</totfact>
</mgrwt>
</event>
<event>
 8    1  0.7667702E-014  0.8004108E+02  0.7818608E-02  0.1328935E+00
         -1   -1    0    0    0  501 -0.00000000000E+00  0.00000000000E+00  0.19553420624E+02  0.19553421273E+02  0.50400000000E-02 0.  1.
          2   -1    0    0  501    0  0.00000000000E+00 -0.00000000000E+00 -0.81911178555E+02  0.81911178595E+02  0.25500000000E-02 0. -1.
         24    2    1    2    0    0 -0.17763568394E-14  0.71054273576E-14 -0.62357757931E+02  0.10146459987E+03  0.80041083527E+02 0.  0.
         66    2    3    3    0    0 -0.14214012266E+02  0.37369228805E+02 -0.29843975677E+02  0.49931556035E+02  0.19999994238E+01 0.  0.
        -13    1    3    3    0    0  0.14214012266E+02 -0.37369228805E+02 -0.32513782255E+02  0.51533043833E+02  0.10566000000E+00 0.  1.
         13    1    4    4    0    0 -0.58113599210E+01  0.17140718343E+02 -0.13048901518E+02  0.22312801803E+02  0.10566000000E+00 0. -1.
        -13    1    4    4    0    0 -0.35708193369E+01  0.74252140315E+01 -0.64240711140E+01  0.10448177251E+02  0.10566000000E+00 0.  1.
         14    1    4    4    0    0 -0.48318330081E+01  0.12803296431E+02 -0.10371003044E+02  0.17170576981E+02  0.00000000000E+00 0. -1.
<mgrwt>
<rscale>  0 0.80041084E+02</rscale>
<asrwt>0</asrwt>
<pdfrwt beam="1">  1        2 0.12601720E-01 0.80041084E+02</pdfrwt>
<pdfrwt beam="2">  1       -1 0.30082187E-02 0.80041084E+02</pdfrwt>
<totfact> 0.16774454E+05</totfact>
</mgrwt>
</event>
<event>
 8    1  0.8064935E-014  0.8109867E+02  0.7818608E-02  0.1325962E+00
          2   -1    0    0  501    0  0.00000000000E+00  0.00000000000E+00  0.44089557335E+03  0.44089557336E+03  0.25500000000E-02 0. -1.
         -1   -1    0    0    0  501 -0.00000000000E+00 -0.00000000000E+00 -0.37293365422E+01  0.37293399479E+01  0.50400000000E-02 0.  1.
         24    2    1    2    0    0  0.00000000000E+00  0.00000000000E+00  0.43716623681E+03  0.44462491330E+03  0.81098674015E+02 0.  0.
         66    2    3    3    0    0 -0.82112698842E+01  0.25708196660E+02  0.38445713884E+03  0.38540839110E+03  0.20000006130E+01 0.  0.
        -13    1    3    3    0    0  0.82112698842E+01 -0.25708196660E+02  0.52709097971E+02  0.59216522201E+02  0.10566000000E+00 0.  1.
         13    1    4    4    0    0 -0.45337066025E+01  0.14907230497E+02  0.22473560456E+03  0.22527512765E+03  0.10566000000E+00 0. -1.
        -13    1    4    4    0    0 -0.22333078906E+01  0.60236525299E+01  0.97884849644E+02  0.98095499427E+02  0.10566000000E+00 0.  1.
        -14    1    4    4    0    0 -0.14442553911E+01  0.47773136332E+01  0.61836684631E+02  0.62037764025E+02  0.00000000000E+00 0.  1.
<mgrwt>
<rscale>  0 0.81098674E+02</rscale>
<asrwt>0</asrwt>
<pdfrwt beam="1">  1        2 0.67830062E-01 0.81098674E+02</pdfrwt>
<pdfrwt beam="2">  1       -1 0.57374457E-03 0.81098674E+02</pdfrwt>
<totfact> 0.28194242E+05</totfact>
</mgrwt>
</event>
<event>
 8    1  0.7667702E-014  0.8065477E+02  0.7818608E-02  0.1327203E+00
          2   -1    0    0  501    0  0.00000000000E+00  0.00000000000E+00  0.57085451961E+02  0.57085452018E+02  0.25500000000E-02 0. -1.
         -1   -1    0    0    0  501 -0.00000000000E+00 -0.00000000000E+00 -0.28488836726E+02  0.28488837172E+02  0.50400000000E-02 0.  1.
         24    2    1    2    0    0  0.00000000000E+00 -0.17763568394E-14  0.28596615234E+02  0.85574289190E+02  0.80654773990E+02 0.  0.
         66    2    3    3    0    0  0.28946238818E+02  0.13960202322E+02  0.40111748734E+02  0.51436605405E+02  0.19999996370E+01 0.  0.
        -13    1    3    3    0    0 -0.28946238818E+02 -0.13960202322E+02 -0.11515133500E+02  0.34137683784E+02  0.10566000000E+00 0.  1.
         13    1    4    4    0    0  0.11560272762E+02  0.55716578394E+01  0.16330620162E+02  0.20769776030E+02  0.10566000000E+00 0. -1.
        -13    1    4    4    0    0  0.33240798538E+01  0.11126253818E+01  0.37543747514E+01  0.51375028880E+01  0.10566000000E+00 0.  1.
        -14    1    4    4    0    0  0.14061886202E+02  0.72759191009E+01  0.20026753820E+02  0.25529326487E+02  0.00000000000E+00 0.  1.
<mgrwt>
<rscale>  0 0.80654774E+02</rscale>
<asrwt>0</asrwt>
<pdfrwt beam="1">  1        2 0.87823771E-02 0.80654774E+02</pdfrwt>
<pdfrwt beam="2">  1       -1 0.43828981E-02 0.80654774E+02</pdfrwt>
<totfact> 0.15051317E+05</totfact>
</mgrwt>
</event>
<event>
 8    1  0.7667702E-014  0.8046908E+02  0.7818608E-02  0.1327726E+00
         -1   -1    0    0    0  501 -0.00000000000E+00  0.00000000000E+00  0.18580198882E+01  0.18580267239E+01  0.50400000000E-02 0.  1.
          2   -1    0    0  501    0  0.00000000000E+00 -0.00000000000E+00 -0.87125820987E+03  0.87125820987E+03  0.25500000000E-02 0. -1.
         24    2    1    2    0    0  0.00000000000E+00  0.00000000000E+00 -0.86940018998E+03  0.87311623660E+03  0.80469076483E+02 0.  0.
         66    2    3    3    0    0 -0.32484590989E+02 -0.91298700945E+01 -0.67224306855E+03  0.67309237583E+03  0.20000029895E+01 0.  0.
        -13    1    3    3    0    0  0.32484590989E+02  0.91298700945E+01 -0.19715712143E+03  0.20002386077E+03  0.10566000000E+00 0.  1.
         13    1    4    4    0    0 -0.25301269579E+02 -0.79013259727E+01 -0.52998076953E+03  0.53064320634E+03  0.10566000000E+00 0. -1.
        -13    1    4    4    0    0 -0.56333108064E+01 -0.96911902022E+00 -0.11380366437E+03  0.11394717447E+03  0.10566000000E+00 0.  1.
         14    1    4    4    0    0 -0.15500106042E+01 -0.25942510161E+00 -0.28458634647E+02  0.28501995022E+02  0.00000000000E+00 0. -1.
<mgrwt>
<rscale>  0 0.80469076E+02</rscale>
<asrwt>0</asrwt>
<pdfrwt beam="1">  1        2 0.13403940E+00 0.80469076E+02</pdfrwt>
<pdfrwt beam="2">  1       -1 0.28585044E-03 0.80469076E+02</pdfrwt>
<totfact> 0.34286759E+05</totfact>
</mgrwt>
</event>
<event>
 8    1  0.7667702E-014  0.8580416E+02  0.7818608E-02  0.1313343E+00
          2   -1    0    0  501    0  0.00000000000E+00  0.00000000000E+00  0.11038317048E+02  0.11038317343E+02  0.25500000000E-02 0. -1.
         -1   -1    0    0    0  501 -0.00000000000E+00 -0.00000000000E+00 -0.16674537815E+03  0.16674537823E+03  0.50400000000E-02 0.  1.
         24    2    1    2    0    0 -0.17763568394E-14 -0.35527136788E-14 -0.15570706110E+03  0.17778369557E+03  0.85804158019E+02 0.  0.
         66    2    3    3    0    0 -0.88354738603E+01 -0.25440139584E+02 -0.87614976596E+01  0.28390670030E+02  0.20000007774E+01 0.  0.
        -13    1    3    3    0    0  0.88354738603E+01  0.25440139584E+02 -0.14694556344E+03  0.14939302554E+03  0.10566000000E+00 0.  1.
         13    1    4    4    0    0 -0.33605477925E+00 -0.18414220641E+01 -0.23700482614E+00  0.18897363192E+01  0.10566000000E+00 0. -1.
        -13    1    4    4    0    0 -0.20597537509E+01 -0.64858720118E+01 -0.21569094629E+01  0.71395058467E+01  0.10566000000E+00 0.  1.
         14    1    4    4    0    0 -0.64396653302E+01 -0.17112845508E+02 -0.63675833706E+01  0.19361427864E+02  0.00000000000E+00 0. -1.
<mgrwt>
<rscale>  0 0.85804158E+02</rscale>
<asrwt>0</asrwt>
<pdfrwt beam="1">  1        2 0.16982028E-02 0.85804158E+02</pdfrwt>
<pdfrwt beam="2">  1       -1 0.25653133E-01 0.85804158E+02</pdfrwt>
<totfact> 0.87838613E+04</totfact>
</mgrwt>
</event>
<event>
 8    1  0.7667702E-014  0.8125915E+02  0.7818608E-02  0.1325516E+00
          2   -1    0    0  501    0  0.00000000000E+00  0.00000000000E+00  0.11520358905E+02  0.11520359188E+02  0.25500000000E-02 0. -1.
         -1   -1    0    0    0  501 -0.00000000000E+00 -0.00000000000E+00 -0.14329089199E+03  0.14329089208E+03  0.50400000000E-02 0.  1.
         24    2    1    2    0    0  0.00000000000E+00  0.00000000000E+00 -0.13177053308E+03  0.15481125126E+03  0.81259154125E+02 0.  0.
         66    2    3    3    0    0 -0.22230091918E+02  0.17614455007E+02 -0.10566913389E+02  0.30333242754E+02  0.19999863705E+01 0.  0.
        -13    1    3    3    0    0  0.22230091918E+02 -0.17614455007E+02 -0.12120361969E+03  0.12447800851E+03  0.10566000000E+00 0.  1.
         13    1    4    4    0    0 -0.69845352887E+01  0.51094850131E+01 -0.38737021331E+01  0.94819461372E+01  0.10566000000E+00 0. -1.
        -13    1    4    4    0    0 -0.66468577349E+01  0.60866416009E+01 -0.28318108027E+01  0.94476579206E+01  0.10566000000E+00 0.  1.
         14    1    4    4    0    0 -0.85986988948E+01  0.64183283934E+01 -0.38614004534E+01  0.11403638696E+02  0.00000000000E+00 0. -1.
<mgrwt>
<rscale>  0 0.81259154E+02</rscale>
<asrwt>0</asrwt>
<pdfrwt beam="1">  1        2 0.17723630E-02 0.81259154E+02</pdfrwt>
<pdfrwt beam="2">  1       -1 0.22044751E-01 0.81259154E+02</pdfrwt>
<totfact> 0.10490500E+05</totfact>
</mgrwt>
</event>
<event>
 8    1  0.7667702E-014  0.7862909E+02  0.7818608E-02  0.1332988E+00
          2   -1    0    0  501    0  0.00000000000E+00  0.00000000000E+00  0.28290781208E+03  0.28290781209E+03  0.25500000000E-02 0. -1.
         -1   -1    0    0    0  501 -0.00000000000E+00 -0.00000000000E+00 -0.54633806074E+01  0.54633829321E+01  0.50400000000E-02 0.  1.
         24    2    1    2    0    0  0.35527136788E-14  0.00000000000E+00  0.27744443147E+03  0.28837119502E+03  0.78629088537E+02 0.  0.
         66    2    3    3    0    0  0.17496066609E+02 -0.24382566757E+02  0.23181029962E+03  0.23375336769E+03  0.19999971668E+01 0.  0.
        -13    1    3    3    0    0 -0.17496066609E+02  0.24382566757E+02  0.45634131849E+02  0.54617827329E+02  0.10566000000E+00 0.  1.
         13    1    4    4    0    0  0.55449584866E+01 -0.86378983287E+01  0.75617609104E+02  0.76311164471E+02  0.10566000000E+00 0. -1.
        -13    1    4    4    0    0  0.12939474065E+01 -0.16723553546E+01  0.19428891244E+02  0.19543900617E+02  0.10566000000E+00 0.  1.
         14    1    4    4    0    0  0.10657160716E+02 -0.14072313074E+02  0.13676379927E+03  0.13789830260E+03  0.00000000000E+00 0. -1.
<mgrwt>
<rscale>  0 0.78629089E+02</rscale>
<asrwt>0</asrwt>
<pdfrwt beam="1">  1        2 0.43524274E-01 0.78629089E+02</pdfrwt>
<pdfrwt beam="2">  1       -1 0.84052036E-03 0.78629089E+02</pdfrwt>
<totfact> 0.26115451E+05</totfact>
</mgrwt>
</event>
<event>
 8    1  0.7667702E-014  0.7930917E+02  0.7818608E-02  0.1331023E+00
          2   -1    0    0  501    0  0.00000000000E+00  0.00000000000E+00  0.65963727581E+03  0.65963727582E+03  0.25500000000E-02 0. -1.
         -1   -1    0    0    0  501 -0.00000000000E+00 -0.00000000000E+00 -0.23838620897E+01  0.23838674175E+01  0.50400000000E-02 0.  1.
         24    2    1    2    0    0  0.00000000000E+00  0.00000000000E+00  0.65725341372E+03  0.66202114324E+03  0.79309168700E+02 0.  0.
         66    2    3    3    0    0  0.19256529372E+02 -0.77912820875E+01  0.61054577554E+03  0.61090233428E+03  0.20000007645E+01 0.  0.
        -13    1    3    3    0    0 -0.19256529372E+02  0.77912820875E+01  0.46707638187E+02  0.51118808956E+02  0.10566000000E+00 0.  1.
         13    1    4    4    0    0  0.16871539167E+02 -0.68065588722E+01  0.51759945819E+03  0.51791909442E+03  0.10566000000E+00 0. -1.
        -13    1    4    4    0    0  0.78032845237E+00 -0.39497460243E+00  0.38546953498E+02  0.38557018887E+02  0.10566000000E+00 0.  1.
         14    1    4    4    0    0  0.16046617529E+01 -0.58974861282E+00  0.54399363845E+02  0.54426220974E+02  0.00000000000E+00 0. -1.
<mgrwt>
<rscale>  0 0.79309169E+02</rscale>
<asrwt>0</asrwt>
<pdfrwt beam="1">  1        2 0.10148260E+00 0.79309169E+02</pdfrwt>
<pdfrwt beam="2">  1       -1 0.36674862E-03 0.79309169E+02</pdfrwt>
<totfact> 0.33731345E+05</totfact>
</mgrwt>
</event>
<event>
 8    1  0.7667702E-014  0.8013839E+02  0.7818608E-02  0.1328659E+00
         -1   -1    0    0    0  501 -0.00000000000E+00  0.00000000000E+00  0.41950406644E+01  0.41950436920E+01  0.50400000000E-02 0.  1.
          2   -1    0    0  501    0  0.00000000000E+00 -0.00000000000E+00 -0.38272328293E+03  0.38272328294E+03  0.25500000000E-02 0. -1.
         24    2    1    2    0    0  0.35527136788E-14  0.00000000000E+00 -0.37852824227E+03  0.38691832663E+03  0.80138388366E+02 0.  0.
         66    2    3    3    0    0  0.26818658804E+02 -0.25430246021E+02 -0.26380338077E+03  0.26638723985E+03  0.19999933191E+01 0.  0.
        -13    1    3    3    0    0 -0.26818658804E+02  0.25430246021E+02 -0.11472486149E+03  0.12053108678E+03  0.10566000000E+00 0.  1.
         13    1    4    4    0    0  0.86314698191E+01 -0.76658765489E+01 -0.83254439645E+02  0.84051060785E+02  0.10566000000E+00 0. -1.
        -13    1    4    4    0    0  0.33586151200E+01 -0.31263915690E+01 -0.36743148407E+02  0.37028701552E+02  0.10566000000E+00 0.  1.
         14    1    4    4    0    0  0.14828573865E+02 -0.14637977903E+02 -0.14380579272E+03  0.14530747751E+03  0.00000000000E+00 0. -1.
<mgrwt>
<rscale>  0 0.80138388E+02</rscale>
<asrwt>0</asrwt>
<pdfrwt beam="1">  1        2 0.58880478E-01 0.80138388E+02</pdfrwt>
<pdfrwt beam="2">  1       -1 0.64539141E-03 0.80138388E+02</pdfrwt>
<totfact> 0.27693094E+05</totfact>
</mgrwt>
</event>
<event>
 8    1  0.7667702E-014  0.7758038E+02  0.7818608E-02  0.1336062E+00
         -1   -1    0    0    0  501 -0.00000000000E+00  0.00000000000E+00  0.40667895298E+01  0.40667926529E+01  0.50400000000E-02 0.  1.
          2   -1    0    0  501    0  0.00000000000E+00 -0.00000000000E+00 -0.36999168538E+03  0.36999168539E+03  0.25500000000E-02 0. -1.
         24    2    1    2    0    0  0.00000000000E+00  0.00000000000E+00 -0.36592489585E+03  0.37405847805E+03  0.77580381489E+02 0.  0.
         66    2    3    3    0    0 -0.25787431227E+02  0.21023531512E+02 -0.27899440068E+03  0.28097839080E+03  0.19999996655E+01 0.  0.
        -13    1    3    3    0    0  0.25787431227E+02 -0.21023531512E+02 -0.86930495171E+02  0.93080087244E+02  0.10566000000E+00 0.  1.
         13    1    4    4    0    0 -0.13062962907E+02  0.10604717510E+02 -0.13760042490E+03  0.13862535529E+03  0.10566000000E+00 0. -1.
        -13    1    4    4    0    0 -0.69012871165E+01  0.62804042934E+01 -0.76533753827E+02  0.77100569913E+02  0.10566000000E+00 0.  1.
         14    1    4    4    0    0 -0.58231812040E+01  0.41384097090E+01 -0.64860221960E+02  0.65252465601E+02  0.00000000000E+00 0. -1.
<mgrwt>
<rscale>  0 0.77580381E+02</rscale>
<asrwt>0</asrwt>
<pdfrwt beam="1">  1        2 0.56921772E-01 0.77580381E+02</pdfrwt>
<pdfrwt beam="2">  1       -1 0.62566046E-03 0.77580381E+02</pdfrwt>
<totfact> 0.29781585E+05</totfact>
</mgrwt>
</event>
<event>
 8    1  0.7667702E-014  0.7976768E+02  0.7818608E-02  0.1329712E+00
          2   -1    0    0  501    0  0.00000000000E+00  0.00000000000E+00  0.72218746932E+01  0.72218751434E+01  0.25500000000E-02 0. -1.
         -1   -1    0    0    0  501 -0.00000000000E+00 -0.00000000000E+00 -0.22026423736E+03  0.22026423742E+03  0.50400000000E-02 0.  1.
         24    2    1    2    0    0 -0.35527136788E-14  0.35527136788E-14 -0.21304236267E+03  0.22748611256E+03  0.79767682162E+02 0.  0.
         66    2    3    3    0    0  0.26380067483E+02 -0.29754812045E+02 -0.11437672719E+03  0.12110859807E+03  0.20000011865E+01 0.  0.
        -13    1    3    3    0    0 -0.26380067483E+02  0.29754812045E+02 -0.98665635479E+02  0.10637751449E+03  0.10566000000E+00 0.  1.
         13    1    4    4    0    0  0.15893776716E+02 -0.18001390451E+02 -0.66967986055E+02  0.71143408105E+02  0.10566000000E+00 0. -1.
        -13    1    4    4    0    0  0.13483117568E+01 -0.16200497143E+01 -0.73011487969E+01  0.76000291750E+01  0.10566000000E+00 0.  1.
         14    1    4    4    0    0  0.91379790098E+01 -0.10133371879E+02 -0.40107592337E+02  0.42365160794E+02  0.00000000000E+00 0. -1.
<mgrwt>
<rscale>  0 0.79767682E+02</rscale>
<asrwt>0</asrwt>
<pdfrwt beam="1">  1        2 0.11110579E-02 0.79767682E+02</pdfrwt>
<pdfrwt beam="2">  1       -1 0.33886801E-01 0.79767682E+02</pdfrwt>
<totfact> 0.97365553E+04</totfact>
</mgrwt>
</event>
<event>
 8    1  0.7667702E-014  0.8126866E+02  0.7818608E-02  0.1325489E+00
          2   -1    0    0  501    0  0.00000000000E+00  0.00000000000E+00  0.67661661346E+01  0.67661666151E+01  0.25500000000E-02 0. -1.
         -1   -1    0    0    0  501 -0.00000000000E+00 -0.00000000000E+00 -0.24403018588E+03  0.24403018593E+03  0.50400000000E-02 0.  1.
         24    2    1    2    0    0  0.00000000000E+00  0.00000000000E+00 -0.23726401975E+03  0.25079635255E+03  0.81268661766E+02 0.  0.
         66    2    3    3    0    0  0.11260560354E+02 -0.19468539396E+02 -0.22305113044E+03  0.22419105924E+03  0.20000012723E+01 0.  0.
        -13    1    3    3    0    0 -0.11260560354E+02  0.19468539396E+02 -0.14212889304E+02  0.26605293310E+02  0.10566000000E+00 0.  1.
         13    1    4    4    0    0  0.52862905066E+00 -0.13263681491E+01 -0.17994100120E+02  0.18050969622E+02  0.10566000000E+00 0. -1.
        -13    1    4    4    0    0  0.83196909434E+01 -0.14548884280E+02 -0.15970098721E+03  0.16057803016E+03  0.10566000000E+00 0.  1.
        -14    1    4    4    0    0  0.24122403601E+01 -0.35932869661E+01 -0.45356043115E+02  0.45562059455E+02  0.00000000000E+00 0.  1.
<mgrwt>
<rscale>  0 0.81268662E+02</rscale>
<asrwt>0</asrwt>
<pdfrwt beam="1">  1        2 0.10409489E-02 0.81268662E+02</pdfrwt>
<pdfrwt beam="2">  1       -1 0.37543099E-01 0.81268662E+02</pdfrwt>
<totfact> 0.89710968E+04</totfact>
</mgrwt>
</event>
<event>
 8    1  0.7667702E-014  0.7963678E+02  0.7818608E-02  0.1330085E+00
         -1   -1    0    0    0  501 -0.00000000000E+00  0.00000000000E+00  0.11429254439E+02  0.11429255550E+02  0.50400000000E-02 0.  1.
          2   -1    0    0  501    0  0.00000000000E+00 -0.00000000000E+00 -0.13872331014E+03  0.13872331017E+03  0.25500000000E-02 0. -1.
         24    2    1    2    0    0  0.00000000000E+00  0.88817841970E-15 -0.12729405570E+03  0.15015256572E+03  0.79636777769E+02 0.  0.
         66    2    3    3    0    0 -0.18339035195E+02  0.53343415628E+01 -0.12950915537E+03  0.13092515709E+03  0.20000055781E+01 0.  0.
        -13    1    3    3    0    0  0.18339035195E+02 -0.53343415628E+01  0.22150996691E+01  0.19227408624E+02  0.10566000000E+00 0.  1.
         13    1    4    4    0    0 -0.65602540182E+01  0.24845552088E+01 -0.51471134284E+02  0.51947076683E+02  0.10566000000E+00 0. -1.
        -13    1    4    4    0    0 -0.66404908538E+00  0.34402761173E+00 -0.49800572979E+01  0.50370081309E+01  0.10566000000E+00 0.  1.
         14    1    4    4    0    0 -0.11114732092E+02  0.25057587423E+01 -0.73057963791E+02  0.73941072278E+02  0.00000000000E+00 0. -1.
<mgrwt>
<rscale>  0 0.79636778E+02</rscale>
<asrwt>0</asrwt>
<pdfrwt beam="1">  1        2 0.21342047E-01 0.79636778E+02</pdfrwt>
<pdfrwt beam="2">  1       -1 0.17583470E-02 0.79636778E+02</pdfrwt>
<totfact> 0.19775338E+05</totfact>
</mgrwt>
</event>
<event>
 8    1  0.7667702E-014  0.7480303E+02  0.7818608E-02  0.1344482E+00
          2   -1    0    0  501    0  0.00000000000E+00  0.00000000000E+00  0.24448033652E+03  0.24448033653E+03  0.25500000000E-02 0. -1.
         -1   -1    0    0    0  501 -0.00000000000E+00 -0.00000000000E+00 -0.57218217986E+01  0.57218240183E+01  0.50400000000E-02 0.  1.
         24    2    1    2    0    0 -0.35527136788E-14  0.00000000000E+00  0.23875851472E+03  0.25020216055E+03  0.74803026628E+02 0.  0.
         66    2    3    3    0    0  0.26694985003E+02  0.99201666887E+01  0.20042241268E+03  0.20244548756E+03  0.19999993430E+01 0.  0.
        -13    1    3    3    0    0 -0.26694985003E+02 -0.99201666887E+01  0.38336102040E+02  0.47756672990E+02  0.10566000000E+00 0.  1.
         13    1    4    4    0    0  0.12197583223E+02  0.49607325113E+01  0.96138865113E+02  0.97036500621E+02  0.10566000000E+00 0. -1.
        -13    1    4    4    0    0  0.11977653981E+02  0.44770689151E+01  0.85455321697E+02  0.86406779314E+02  0.10566000000E+00 0.  1.
        -14    1    4    4    0    0  0.25197477993E+01  0.48236526225E+00  0.18828225869E+02  0.19002207624E+02  0.00000000000E+00 0.  1.
<mgrwt>
<rscale>  0 0.74803027E+02</rscale>
<asrwt>0</asrwt>
<pdfrwt beam="1">  1        2 0.37612364E-01 0.74803027E+02</pdfrwt>
<pdfrwt beam="2">  1       -1 0.88028035E-03 0.74803027E+02</pdfrwt>
<totfact> 0.28235181E+05</totfact>
</mgrwt>
</event>
<event>
 8    1  0.7667702E-014  0.7412662E+02  0.7818608E-02  0.1346597E+00
         -1   -1    0    0    0  501 -0.00000000000E+00  0.00000000000E+00  0.86192898334E+00  0.86194371854E+00  0.50400000000E-02 0.  1.
          2   -1    0    0  501    0  0.00000000000E+00 -0.00000000000E+00 -0.15937243222E+04  0.15937243222E+04  0.25500000000E-02 0. -1.
         24    2    1    2    0    0  0.00000000000E+00  0.00000000000E+00 -0.15928623932E+04  0.15945862659E+04  0.74126619636E+02 0.  0.
         66    2    3    3    0    0  0.97937112357E+01 -0.87986906807E+01 -0.15416825552E+04  0.15417400672E+04  0.20000040011E+01 0.  0.
        -13    1    3    3    0    0 -0.97937112357E+01  0.87986906807E+01 -0.51179838028E+02  0.52846198747E+02  0.10566000000E+00 0.  1.
         13    1    4    4    0    0  0.36287569265E+01 -0.32746029684E+01 -0.50854110968E+03  0.50856460976E+03  0.10566000000E+00 0. -1.
        -13    1    4    4    0    0  0.36721158212E+01 -0.35495615443E+01 -0.55862700044E+03  0.55865035631E+03  0.10566000000E+00 0.  1.
         14    1    4    4    0    0  0.24928384880E+01 -0.19745261680E+01 -0.47451444509E+03  0.47452510112E+03  0.00000000000E+00 0. -1.
<mgrwt>
<rscale>  0 0.74126620E+02</rscale>
<asrwt>0</asrwt>
<pdfrwt beam="1">  1        2 0.24518600E+00 0.74126620E+02</pdfrwt>
<pdfrwt beam="2">  1       -1 0.13260687E-03 0.74126620E+02</pdfrwt>
<totfact> 0.39491027E+05</totfact>
</mgrwt>
</event>
<event>
 8    1  0.7667702E-014  0.7954263E+02  0.7818608E-02  0.1330354E+00
          2   -1    0    0  501    0  0.00000000000E+00  0.00000000000E+00  0.11759625540E+04  0.11759625540E+04  0.25500000000E-02 0. -1.
         -1   -1    0    0    0  501 -0.00000000000E+00 -0.00000000000E+00 -0.13450699362E+01  0.13450793787E+01  0.50400000000E-02 0.  1.
         24    2    1    2    0    0  0.00000000000E+00  0.00000000000E+00  0.11746174840E+04  0.11773076333E+04  0.79542628506E+02 0.  0.
         66    2    3    3    0    0  0.23795590439E+02  0.93892059190E+01  0.10379216206E+04  0.10382387383E+04  0.19999991696E+01 0.  0.
        -13    1    3    3    0    0 -0.23795590439E+02 -0.93892059190E+01  0.13669586346E+03  0.13906889502E+03  0.10566000000E+00 0.  1.
         13    1    4    4    0    0  0.10226703032E+02  0.37581615862E+01  0.47699505055E+03  0.47711948047E+03  0.10566000000E+00 0.  1.
        -13    1    4    4    0    0  0.72821380445E+01  0.33096307942E+01  0.29996714748E+03  0.30007379746E+03  0.10566000000E+00 0. -1.
         14    1    4    4    0    0  0.62867493630E+01  0.23214135386E+01  0.26095942254E+03  0.26104546039E+03  0.00000000000E+00 0. -1.
<mgrwt>
<rscale>  0 0.79542629E+02</rscale>
<asrwt>0</asrwt>
<pdfrwt beam="1">  1        2 0.18091748E+00 0.79542629E+02</pdfrwt>
<pdfrwt beam="2">  1       -1 0.20693438E-03 0.79542629E+02</pdfrwt>
<totfact> 0.35635771E+05</totfact>
</mgrwt>
</event>
<event>
 8    1  0.7748535E-014  0.8165151E+02  0.7818608E-02  0.1324429E+00
         -1   -1    0    0    0  501 -0.00000000000E+00  0.00000000000E+00  0.76457673230E+02  0.76457673396E+02  0.50400000000E-02 0.  1.
          2   -1    0    0  501    0  0.00000000000E+00 -0.00000000000E+00 -0.21799539415E+02  0.21799539564E+02  0.25500000000E-02 0. -1.
         24    2    1    2    0    0  0.35527136788E-14  0.00000000000E+00  0.54658133815E+02  0.98257212960E+02  0.81651505231E+02 0.  0.
         66    2    3    3    0    0  0.23424566348E+02  0.11044299210E+02 -0.10595201218E+02  0.28052542527E+02  0.19999999395E+01 0.  0.
        -13    1    3    3    0    0 -0.23424566348E+02 -0.11044299210E+02  0.65253335033E+02  0.70204670433E+02  0.10566000000E+00 0.  1.
         13    1    4    4    0    0  0.13529653524E+02  0.59431569780E+01 -0.55950033192E+01  0.15801514659E+02  0.10566000000E+00 0. -1.
        -13    1    4    4    0    0  0.13810772439E+01  0.34586708866E+00 -0.52141841862E+00  0.15198814426E+01  0.10566000000E+00 0. -1.
        -14    1    4    4    0    0  0.85138355804E+01  0.47552751432E+01 -0.44787794801E+01  0.10731146426E+02  0.00000000000E+00 0.  1.
<mgrwt>
<rscale>  0 0.81651505E+02</rscale>
<asrwt>0</asrwt>
<pdfrwt beam="1">  1        2 0.33537753E-02 0.81651505E+02</pdfrwt>
<pdfrwt beam="2">  1       -1 0.11762719E-01 0.81651505E+02</pdfrwt>
<totfact> 0.11915056E+05</totfact>
</mgrwt>
</event>
<event>
 8    1  0.7667702E-014  0.7962396E+02  0.7818608E-02  0.1330122E+00
         -1   -1    0    0    0  501 -0.00000000000E+00  0.00000000000E+00  0.48940425662E+03  0.48940425664E+03  0.50400000000E-02 0.  1.
          2   -1    0    0  501    0  0.00000000000E+00 -0.00000000000E+00 -0.32386177867E+01  0.32386187906E+01  0.25500000000E-02 0. -1.
         24    2    1    2    0    0 -0.71054273576E-14  0.17763568394E-14  0.48616563883E+03  0.49264287543E+03  0.79623955793E+02 0.  0.
         66    2    3    3    0    0  0.37776905678E+02  0.98075868519E+01  0.29104311872E+03  0.29365520651E+03  0.19999995129E+01 0.  0.
        -13    1    3    3    0    0 -0.37776905678E+02 -0.98075868519E+01  0.19512252011E+03  0.19898766892E+03  0.10566000000E+00 0.  1.
         13    1    4    4    0    0  0.10968373308E+02  0.28327875846E+01  0.81021217292E+02  0.81809404801E+02  0.10566000000E+00 0. -1.
        -13    1    4    4    0    0  0.59828981543E+01  0.10146922292E+01  0.43909270557E+02  0.44326739960E+02  0.10566000000E+00 0.  1.
        -14    1    4    4    0    0  0.20825634215E+02  0.59601070381E+01  0.16611263087E+03  0.16751906175E+03  0.00000000000E+00 0.  1.
<mgrwt>
<rscale>  0 0.79623956E+02</rscale>
<asrwt>0</asrwt>
<pdfrwt beam="1">  1        2 0.49824918E-03 0.79623956E+02</pdfrwt>
<pdfrwt beam="2">  1       -1 0.75292930E-01 0.79623956E+02</pdfrwt>
<totfact> 0.68508326E+04</totfact>
</mgrwt>
</event>
<event>
 8    1  0.7667702E-014  0.8047521E+02  0.7818608E-02  0.1327708E+00
         -1   -1    0    0    0  501 -0.00000000000E+00  0.00000000000E+00  0.11285919529E+03  0.11285919540E+03  0.50400000000E-02 0.  1.
          2   -1    0    0  501    0  0.00000000000E+00 -0.00000000000E+00 -0.14345884801E+02  0.14345885028E+02  0.25500000000E-02 0. -1.
         24    2    1    2    0    0  0.00000000000E+00  0.00000000000E+00  0.98513310491E+02  0.12720508043E+03  0.80475214470E+02 0.  0.
         66    2    3    3    0    0  0.29185583814E+02 -0.18888766975E+02  0.17340314238E+02  0.38900775299E+02  0.20000001570E+01 0.  0.
        -13    1    3    3    0    0 -0.29185583814E+02  0.18888766975E+02  0.81172996253E+02  0.88304305133E+02  0.10566000000E+00 0.  1.
         13    1    4    4    0    0  0.17236249923E+02 -0.11447296356E+02  0.94281770727E+01  0.22738306714E+02  0.10566000000E+00 0. -1.
        -13    1    4    4    0    0  0.11426380361E+02 -0.69530528590E+01  0.75659840900E+01  0.15367575980E+02  0.10566000000E+00 0.  1.
         14    1    4    4    0    0  0.52295352995E+00 -0.48841775963E+00  0.34615307538E+00  0.79489260533E+00  0.00000000000E+00 0. -1.
<mgrwt>
<rscale>  0 0.80475214E+02</rscale>
<asrwt>0</asrwt>
<pdfrwt beam="1">  1        2 0.22070593E-02 0.80475214E+02</pdfrwt>
<pdfrwt beam="2">  1       -1 0.17362953E-01 0.80475214E+02</pdfrwt>
<totfact> 0.11373578E+05</totfact>
</mgrwt>
</event>
<event>
 8    1  0.7667702E-014  0.8073783E+02  0.7818608E-02  0.1326971E+00
          2   -1    0    0  501    0  0.00000000000E+00  0.00000000000E+00  0.40566006974E+03  0.40566006975E+03  0.25500000000E-02 0. -1.
         -1   -1    0    0    0  501 -0.00000000000E+00 -0.00000000000E+00 -0.40172765337E+01  0.40172796952E+01  0.50400000000E-02 0.  1.
         24    2    1    2    0    0  0.00000000000E+00 -0.35527136788E-14  0.40164279321E+03  0.40967734945E+03  0.80737830738E+02 0.  0.
         66    2    3    3    0    0  0.29419867725E+02  0.18676030536E+02  0.30410371376E+03  0.30610029641E+03  0.20000002441E+01 0.  0.
        -13    1    3    3    0    0 -0.29419867725E+02 -0.18676030536E+02  0.97539079447E+02  0.10357705304E+03  0.10566000000E+00 0.  1.
         13    1    4    4    0    0  0.65982787805E+01  0.40735925881E+01  0.69305216037E+02  0.69737762894E+02  0.10566000000E+00 0. -1.
        -13    1    4    4    0    0  0.13576601001E+02  0.80252167730E+01  0.14188363548E+03  0.14275750551E+03  0.10566000000E+00 0.  1.
         14    1    4    4    0    0  0.92449879434E+01  0.65772211747E+01  0.92914862248E+02  0.93605028000E+02  0.00000000000E+00 0. -1.
<mgrwt>
<rscale>  0 0.80737831E+02</rscale>
<asrwt>0</asrwt>
<pdfrwt beam="1">  1        2 0.62409266E-01 0.80737831E+02</pdfrwt>
<pdfrwt beam="2">  1       -1 0.61804255E-03 0.80737831E+02</pdfrwt>
<totfact> 0.27719455E+05</totfact>
</mgrwt>
</event>
<event>
 8    1  0.7667702E-014  0.8047075E+02  0.7818608E-02  0.1327721E+00
         -1   -1    0    0    0  501 -0.00000000000E+00  0.00000000000E+00  0.63494544617E+01  0.63494564620E+01  0.50400000000E-02 0.  1.
          2   -1    0    0  501    0  0.00000000000E+00 -0.00000000000E+00 -0.25496441958E+03  0.25496441960E+03  0.25500000000E-02 0. -1.
         24    2    1    2    0    0  0.35527136788E-14  0.88817841970E-15 -0.24861496512E+03  0.26131387606E+03  0.80470745853E+02 0.  0.
         66    2    3    3    0    0  0.30660431997E+02 -0.65810496554E+01 -0.20611762706E+03  0.20849903713E+03  0.19999984486E+01 0.  0.
        -13    1    3    3    0    0 -0.30660431997E+02  0.65810496554E+01 -0.42497338059E+02  0.52814838928E+02  0.10566000000E+00 0.  1.
         13    1    4    4    0    0  0.10059628858E+02 -0.21701838809E+01 -0.68917647199E+02  0.69681841898E+02  0.10566000000E+00 0. -1.
        -13    1    4    4    0    0  0.18054935208E+01 -0.96386018213E-01 -0.97936667634E+01  0.99597273972E+01  0.10566000000E+00 0.  1.
        -14    1    4    4    0    0  0.18795309617E+02 -0.43144797562E+01 -0.12740631310E+03  0.12885746783E+03  0.00000000000E+00 0.  1.
<mgrwt>
<rscale>  0 0.80470746E+02</rscale>
<asrwt>0</asrwt>
<pdfrwt beam="1">  1        2 0.39225288E-01 0.80470746E+02</pdfrwt>
<pdfrwt beam="2">  1       -1 0.97683950E-03 0.80470746E+02</pdfrwt>
<totfact> 0.23669296E+05</totfact>
</mgrwt>
</event>
<event>
 8    1  0.7667702E-014  0.7990850E+02  0.7818608E-02  0.1329311E+00
          2   -1    0    0  501    0  0.00000000000E+00  0.00000000000E+00  0.38823014391E+03  0.38823014392E+03  0.25500000000E-02 0. -1.
         -1   -1    0    0    0  501 -0.00000000000E+00 -0.00000000000E+00 -0.41118435347E+01  0.41118466236E+01  0.50400000000E-02 0.  1.
         24    2    1    2    0    0 -0.71054273576E-14  0.00000000000E+00  0.38411830038E+03  0.39234199054E+03  0.79908503047E+02 0.  0.
         66    2    3    3    0    0 -0.32537738542E+02  0.18257964976E+01  0.30545821370E+03  0.30719823937E+03  0.19999996684E+01 0.  0.
        -13    1    3    3    0    0  0.32537738542E+02 -0.18257964976E+01  0.78660086680E+02  0.85143751167E+02  0.10566000000E+00 0.  1.
         13    1    4    4    0    0 -0.36817311487E+00 -0.69711463282E-01  0.30166685650E+01  0.30416877548E+01  0.10566000000E+00 0.  1.
        -13    1    4    4    0    0 -0.39132141792E+01  0.57257674457E+00  0.39717015448E+02  0.39913576255E+02  0.10566000000E+00 0. -1.
         14    1    4    4    0    0 -0.28256351248E+02  0.13229312163E+01  0.26272452968E+03  0.26424297537E+03  0.00000000000E+00 0. -1.
<mgrwt>
<rscale>  0 0.79908503E+02</rscale>
<asrwt>0</asrwt>
<pdfrwt beam="1">  1        2 0.59727741E-01 0.79908503E+02</pdfrwt>
<pdfrwt beam="2">  1       -1 0.63259127E-03 0.79908503E+02</pdfrwt>
<totfact> 0.28042787E+05</totfact>
</mgrwt>
</event>
<event>
 8    1  0.7667702E-014  0.8016659E+02  0.7818608E-02  0.1328579E+00
         -1   -1    0    0    0  501 -0.00000000000E+00  0.00000000000E+00  0.10685890736E+02  0.10685891924E+02  0.50400000000E-02 0.  1.
          2   -1    0    0  501    0  0.00000000000E+00 -0.00000000000E+00 -0.15035436299E+03  0.15035436301E+03  0.25500000000E-02 0. -1.
         24    2    1    2    0    0  0.00000000000E+00  0.00000000000E+00 -0.13966847226E+03  0.16104025494E+03  0.80166586357E+02 0.  0.
         66    2    3    3    0    0  0.30596774506E+02  0.25309021168E+02 -0.80498951953E+02  0.89781904834E+02  0.20000018412E+01 0.  0.
        -13    1    3    3    0    0 -0.30596774506E+02 -0.25309021168E+02 -0.59169520303E+02  0.71258350104E+02  0.10566000000E+00 0.  1.
         13    1    4    4    0    0  0.69956778894E+01  0.66685813794E+01 -0.20373702600E+02  0.22550131006E+02  0.10566000000E+00 0. -1.
        -13    1    4    4    0    0  0.20092859897E+02  0.16161498452E+02 -0.51834820543E+02  0.57894532003E+02  0.10566000000E+00 0.  1.
        -14    1    4    4    0    0  0.35082367199E+01  0.24789413366E+01 -0.82904288100E+01  0.93372418244E+01  0.00000000000E+00 0.  1.
<mgrwt>
<rscale>  0 0.80166586E+02</rscale>
<asrwt>0</asrwt>
<pdfrwt beam="1">  1        2 0.23131439E-01 0.80166586E+02</pdfrwt>
<pdfrwt beam="2">  1       -1 0.16439834E-02 0.80166586E+02</pdfrwt>
<totfact> 0.19934906E+05</totfact>
</mgrwt>
</event>
<event>
 8    1  0.7667702E-014  0.7847519E+02  0.7818608E-02  0.1333435E+00
          2   -1    0    0  501    0  0.00000000000E+00  0.00000000000E+00  0.37796705082E+02  0.37796705168E+02  0.25500000000E-02 0. -1.
         -1   -1    0    0    0  501 -0.00000000000E+00 -0.00000000000E+00 -0.40733417209E+02  0.40733417521E+02  0.50400000000E-02 0.  1.
         24    2    1    2    0    0  0.00000000000E+00  0.88817841970E-15 -0.29367121278E+01  0.78530122689E+02  0.78475192841E+02 0.  0.
         66    2    3    3    0    0 -0.34757953422E+02 -0.55534146167E+01  0.15823653924E+02  0.38643806258E+02  0.19999996410E+01 0.  0.
        -13    1    3    3    0    0  0.34757953422E+02  0.55534146167E+01 -0.18760366052E+02  0.39886316431E+02  0.10566000000E+00 0.  1.
         13    1    4    4    0    0 -0.81169476306E+01 -0.18649357818E+01  0.38685850698E+01  0.91836778464E+01  0.10566000000E+00 0. -1.
        -13    1    4    4    0    0 -0.45939364325E+01 -0.98220799590E+00  0.17323612489E+01  0.50081158159E+01  0.10566000000E+00 0.  1.
        -14    1    4    4    0    0 -0.22047069359E+02 -0.27062708390E+01  0.10222707605E+02  0.24452012595E+02  0.00000000000E+00 0.  1.
<mgrwt>
<rscale>  0 0.78475193E+02</rscale>
<asrwt>0</asrwt>
<pdfrwt beam="1">  1        2 0.58148777E-02 0.78475193E+02</pdfrwt>
<pdfrwt beam="2">  1       -1 0.62666796E-02 0.78475193E+02</pdfrwt>
<totfact> 0.14861885E+05</totfact>
</mgrwt>
</event>
<event>
 8    1  0.7667702E-014  0.8093690E+02  0.7818608E-02  0.1326413E+00
          2   -1    0    0  501    0  0.00000000000E+00  0.00000000000E+00  0.81664230582E+03  0.81664230582E+03  0.25500000000E-02 0. -1.
         -1   -1    0    0    0  501 -0.00000000000E+00 -0.00000000000E+00 -0.20053980944E+01  0.20054044277E+01  0.50400000000E-02 0.  1.
         24    2    1    2    0    0  0.00000000000E+00  0.00000000000E+00  0.81463690772E+03  0.81864771025E+03  0.80936901791E+02 0.  0.
         66    2    3    3    0    0  0.20605307450E+01  0.29822002154E+02  0.68310328432E+03  0.68375996859E+03  0.20000006019E+01 0.  0.
        -13    1    3    3    0    0 -0.20605307450E+01 -0.29822002154E+02  0.13153362340E+03  0.13488774166E+03  0.10566000000E+00 0.  1.
         13    1    4    4    0    0  0.39745134394E+00  0.12534290392E+01  0.30236938323E+02  0.30265700968E+02  0.10566000000E+00 0. -1.
        -13    1    4    4    0    0  0.35949714458E-01  0.57883282229E+00  0.16699582074E+02  0.16709983402E+02  0.10566000000E+00 0.  1.
         14    1    4    4    0    0  0.16271296866E+01  0.27989740293E+02  0.63616676392E+03  0.63678428422E+03  0.00000000000E+00 0. -1.
<mgrwt>
<rscale>  0 0.80936902E+02</rscale>
<asrwt>0</asrwt>
<pdfrwt beam="1">  1        2 0.12563708E+00 0.80936902E+02</pdfrwt>
<pdfrwt beam="2">  1       -1 0.30852377E-03 0.80936902E+02</pdfrwt>
<totfact> 0.33456472E+05</totfact>
</mgrwt>
</event>
<event>
 8    1  0.7667702E-014  0.7903311E+02  0.7818608E-02  0.1331818E+00
         -1   -1    0    0    0  501 -0.00000000000E+00  0.00000000000E+00  0.10434341181E+01  0.10434462902E+01  0.50400000000E-02 0.  1.
          2   -1    0    0  501    0  0.00000000000E+00 -0.00000000000E+00 -0.14965476228E+04  0.14965476228E+04  0.25500000000E-02 0. -1.
         24    2    1    2    0    0  0.00000000000E+00  0.00000000000E+00 -0.14955041887E+04  0.14975910691E+04  0.79033106104E+02 0.  0.
         66    2    3    3    0    0 -0.10433455473E+02  0.22353276284E+01 -0.14687116853E+04  0.14687518062E+04  0.20000006360E+01 0.  0.
        -13    1    3    3    0    0  0.10433455473E+02 -0.22353276284E+01 -0.26792503421E+02  0.28839262929E+02  0.10566000000E+00 0.  1.
         13    1    4    4    0    0 -0.22116484436E+01  0.98167124840E+00 -0.37454541449E+03  0.37455324554E+03  0.10566000000E+00 0. -1.
        -13    1    4    4    0    0 -0.59685429128E+01  0.96526165435E+00 -0.71992861184E+03  0.71995400724E+03  0.10566000000E+00 0.  1.
        -14    1    4    4    0    0 -0.22532641164E+01  0.28839472565E+00 -0.37423765897E+03  0.37424455342E+03  0.00000000000E+00 0.  1.
<mgrwt>
<rscale>  0 0.79033106E+02</rscale>
<asrwt>0</asrwt>
<pdfrwt beam="1">  1        2 0.23023638E+00 0.79033106E+02</pdfrwt>
<pdfrwt beam="2">  1       -1 0.16053046E-03 0.79033106E+02</pdfrwt>
<totfact> 0.34348410E+05</totfact>
</mgrwt>
</event>
<event>
 8    1  0.7667702E-014  0.8498227E+02  0.7818608E-02  0.1315479E+00
          2   -1    0    0  501    0  0.00000000000E+00  0.00000000000E+00  0.45151084174E+02  0.45151084246E+02  0.25500000000E-02 0. -1.
         -1   -1    0    0    0  501 -0.00000000000E+00 -0.00000000000E+00 -0.39987887997E+02  0.39987888315E+02  0.50400000000E-02 0.  1.
         24    2    1    2    0    0  0.00000000000E+00  0.71054273576E-14  0.51631961764E+01  0.85138972560E+02  0.84982269056E+02 0.  0.
         66    2    3    3    0    0 -0.25686976146E+01 -0.36485432674E+02  0.24203050500E+02  0.43904130236E+02  0.19999983447E+01 0.  0.
        -13    1    3    3    0    0  0.25686976146E+01  0.36485432674E+02 -0.19039854324E+02  0.41234842325E+02  0.10566000000E+00 0.  1.
         13    1    4    4    0    0 -0.15349966762E+01 -0.13261688908E+02  0.86171094391E+01  0.15890070693E+02  0.10566000000E+00 0. -1.
        -13    1    4    4    0    0 -0.38218994469E+00 -0.93853422617E+01  0.70061410150E+01  0.11718698498E+02  0.10566000000E+00 0.  1.
        -14    1    4    4    0    0 -0.65151099374E+00 -0.13838401504E+02  0.85798000463E+01  0.16295361045E+02  0.00000000000E+00 0.  1.
<mgrwt>
<rscale>  0 0.84982269E+02</rscale>
<asrwt>0</asrwt>
<pdfrwt beam="1">  1        2 0.69463207E-02 0.84982269E+02</pdfrwt>
<pdfrwt beam="2">  1       -1 0.61519828E-02 0.84982269E+02</pdfrwt>
<totfact> 0.12372190E+05</totfact>
</mgrwt>
</event>
<event>
 8    1  0.7667702E-014  0.7686185E+02  0.7818608E-02  0.1338201E+00
         -1   -1    0    0    0  501 -0.00000000000E+00  0.00000000000E+00  0.10053274481E+03  0.10053274494E+03  0.50400000000E-02 0.  1.
          2   -1    0    0  501    0  0.00000000000E+00 -0.00000000000E+00 -0.14691093476E+02  0.14691093697E+02  0.25500000000E-02 0. -1.
         24    2    1    2    0    0  0.00000000000E+00  0.35527136788E-14  0.85841651334E+02  0.11522383863E+03  0.76861849351E+02 0.  0.
         66    2    3    3    0    0 -0.22605043144E+02  0.28534494865E+02  0.61293198143E+02  0.71316628624E+02  0.20000017443E+01 0.  0.
        -13    1    3    3    0    0  0.22605043144E+02 -0.28534494865E+02  0.24548453191E+02  0.43907210010E+02  0.10566000000E+00 0.  1.
         13    1    4    4    0    0 -0.71049630275E+01  0.81892564670E+01  0.18237119019E+02  0.21216693787E+02  0.10566000000E+00 0. -1.
        -13    1    4    4    0    0 -0.10582859997E+02  0.13222311287E+02  0.27447969422E+02  0.32252575570E+02  0.10566000000E+00 0. -1.
         14    1    4    4    0    0 -0.49172201193E+01  0.71229271109E+01  0.15608109701E+02  0.17847359266E+02  0.00000000000E+00 0. -1.
<mgrwt>
<rscale>  0 0.76861849E+02</rscale>
<asrwt>0</asrwt>
<pdfrwt beam="1">  1        2 0.22601683E-02 0.76861849E+02</pdfrwt>
<pdfrwt beam="2">  1       -1 0.15466576E-01 0.76861849E+02</pdfrwt>
<totfact> 0.13081697E+05</totfact>
</mgrwt>
</event>
<event>
 8    1  0.7667702E-014  0.7843893E+02  0.7818608E-02  0.1333541E+00
          2   -1    0    0  501    0  0.00000000000E+00  0.00000000000E+00  0.83710918545E+03  0.83710918545E+03  0.25500000000E-02 0. -1.
         -1   -1    0    0    0  501 -0.00000000000E+00 -0.00000000000E+00 -0.18374704882E+01  0.18374774003E+01  0.50400000000E-02 0.  1.
         24    2    1    2    0    0 -0.17763568394E-14  0.35527136788E-14  0.83527171496E+03  0.83894666285E+03  0.78438927191E+02 0.  0.
         66    2    3    3    0    0 -0.13752211285E+02  0.23456327649E+02  0.71982386933E+03  0.72034000685E+03  0.19999995021E+01 0.  0.
        -13    1    3    3    0    0  0.13752211285E+02 -0.23456327649E+02  0.11544784563E+03  0.11860665600E+03  0.10566000000E+00 0.  1.
         13    1    4    4    0    0 -0.61467099171E+01  0.11685315332E+02  0.34114730360E+03  0.34140272781E+03  0.10566000000E+00 0. -1.
        -13    1    4    4    0    0 -0.78500465366E+00  0.17550730561E+01  0.57289126734E+02  0.57321476950E+02  0.10566000000E+00 0.  1.
         14    1    4    4    0    0 -0.68204967143E+01  0.10015939261E+02  0.32138743899E+03  0.32161580209E+03  0.00000000000E+00 0. -1.
<mgrwt>
<rscale>  0 0.78438927E+02</rscale>
<asrwt>0</asrwt>
<pdfrwt beam="1">  1        2 0.12878597E+00 0.78438927E+02</pdfrwt>
<pdfrwt beam="2">  1       -1 0.28268842E-03 0.78438927E+02</pdfrwt>
<totfact> 0.36434035E+05</totfact>
</mgrwt>
</event>
<event>
 8    1  0.7667702E-014  0.8196583E+02  0.7818608E-02  0.1323563E+00
          2   -1    0    0  501    0  0.00000000000E+00  0.00000000000E+00  0.32690462710E+03  0.32690462711E+03  0.25500000000E-02 0. -1.
         -1   -1    0    0    0  501 -0.00000000000E+00 -0.00000000000E+00 -0.51378869337E+01  0.51378894056E+01  0.50400000000E-02 0.  1.
         24    2    1    2    0    0  0.00000000000E+00  0.00000000000E+00  0.32176674017E+03  0.33204251652E+03  0.81965832496E+02 0.  0.
         66    2    3    3    0    0 -0.89835448870E+01  0.29799745500E+02  0.26883450695E+03  0.27063761942E+03  0.20000012784E+01 0.  0.
        -13    1    3    3    0    0  0.89835448870E+01 -0.29799745500E+02  0.52932233218E+02  0.61404897102E+02  0.10566000000E+00 0.  1.
         13    1    4    4    0    0 -0.23615975348E+01  0.10194714683E+02  0.91182678365E+02  0.91781269049E+02  0.10566000000E+00 0. -1.
        -13    1    4    4    0    0 -0.10578301510E+01  0.38114950656E+01  0.37195444953E+02  0.37405331018E+02  0.10566000000E+00 0.  1.
         14    1    4    4    0    0 -0.55641172012E+01  0.15793535752E+02  0.14045638363E+03  0.14145101935E+03  0.00000000000E+00 0. -1.
<mgrwt>
<rscale>  0 0.81965832E+02</rscale>
<asrwt>0</asrwt>
<pdfrwt beam="1">  1        2 0.50293023E-01 0.81965832E+02</pdfrwt>
<pdfrwt beam="2">  1       -1 0.79044429E-03 0.81965832E+02</pdfrwt>
<totfact> 0.24676104E+05</totfact>
</mgrwt>
</event>
<event>
 8    1  0.7667702E-014  0.7971702E+02  0.7818608E-02  0.1329856E+00
         -1   -1    0    0    0  501 -0.00000000000E+00  0.00000000000E+00  0.77621027266E+02  0.77621027430E+02  0.50400000000E-02 0.  1.
          2   -1    0    0  501    0  0.00000000000E+00 -0.00000000000E+00 -0.20467400121E+02  0.20467400280E+02  0.25500000000E-02 0. -1.
         24    2    1    2    0    0 -0.35527136788E-14 -0.35527136788E-14  0.57153627145E+02  0.98088427710E+02  0.79717015466E+02 0.  0.
         66    2    3    3    0    0  0.26313305416E+02  0.19714920149E+02  0.92647396932E+00  0.32953398450E+02  0.19999992403E+01 0.  0.
        -13    1    3    3    0    0 -0.26313305416E+02 -0.19714920149E+02  0.56227153175E+02  0.65135029260E+02  0.10566000000E+00 0.  1.
         13    1    4    4    0    0  0.10712234969E+02  0.77780216872E+01  0.64172712128E+00  0.13254153203E+02  0.10566000000E+00 0. -1.
        -13    1    4    4    0    0  0.67137521420E+01  0.58374797888E+01  0.58003203317E+00  0.89161785146E+01  0.10566000000E+00 0.  1.
        -14    1    4    4    0    0  0.88873183056E+01  0.60994186733E+01 -0.29528518512E+00  0.10783066733E+02  0.00000000000E+00 0.  1.
<mgrwt>
<rscale>  0 0.79717015E+02</rscale>
<asrwt>0</asrwt>
<pdfrwt beam="1">  1        2 0.31488308E-02 0.79717015E+02</pdfrwt>
<pdfrwt beam="2">  1       -1 0.11941697E-01 0.79717015E+02</pdfrwt>
<totfact> 0.12601130E+05</totfact>
</mgrwt>
</event>
<event>
 8    1  0.7667702E-014  0.7866677E+02  0.7818608E-02  0.1332878E+00
         -1   -1    0    0    0  501 -0.00000000000E+00  0.00000000000E+00  0.22232926047E+01  0.22232983173E+01  0.50400000000E-02 0.  1.
          2   -1    0    0  501    0  0.00000000000E+00 -0.00000000000E+00 -0.69586569741E+03  0.69586569741E+03  0.25500000000E-02 0. -1.
         24    2    1    2    0    0 -0.55511151231E-16  0.17763568394E-14 -0.69364240480E+03  0.69808899573E+03  0.78666766923E+02 0.  0.
         66    2    3    3    0    0  0.16801224975E+00 -0.11373658148E+02 -0.68093862139E+03  0.68103655881E+03  0.20000025817E+01 0.  0.
        -13    1    3    3    0    0 -0.16801224975E+00  0.11373658148E+02 -0.12703783412E+02  0.17052436917E+02  0.10566000000E+00 0.  1.
         13    1    4    4    0    0 -0.33400722107E+00 -0.10269343990E+02 -0.61510666224E+03  0.61519248051E+03  0.10566000000E+00 0. -1.
        -13    1    4    4    0    0  0.30532583158E+00 -0.81971618901E+00 -0.39371703425E+02  0.39381561080E+02  0.10566000000E+00 0.  1.
         14    1    4    4    0    0  0.19669363924E+00 -0.28459796943E+00 -0.26460255729E+02  0.26462517221E+02  0.00000000000E+00 0. -1.
<mgrwt>
<rscale>  0 0.78666767E+02</rscale>
<asrwt>0</asrwt>
<pdfrwt beam="1">  1        2 0.10705609E+00 0.78666767E+02</pdfrwt>
<pdfrwt beam="2">  1       -1 0.34204601E-03 0.78666767E+02</pdfrwt>
<totfact> 0.34896696E+05</totfact>
</mgrwt>
</event>
<event>
 8    1  0.7667702E-014  0.7883208E+02  0.7818608E-02  0.1332399E+00
          2   -1    0    0  501    0  0.00000000000E+00  0.00000000000E+00  0.41256335322E+01  0.41256343202E+01  0.25500000000E-02 0. -1.
         -1   -1    0    0    0  501 -0.00000000000E+00 -0.00000000000E+00 -0.37657828075E+03  0.37657828078E+03  0.50400000000E-02 0.  1.
         24    2    1    2    0    0 -0.35527136788E-14  0.00000000000E+00 -0.37245264722E+03  0.38070391510E+03  0.78832078216E+02 0.  0.
         66    2    3    3    0    0  0.28728637948E+02  0.26454511290E+02 -0.16151207252E+03  0.16617859487E+03  0.20000038867E+01 0.  0.
        -13    1    3    3    0    0 -0.28728637948E+02 -0.26454511290E+02 -0.21094057469E+03  0.21452532024E+03  0.10566000000E+00 0.  1.
         13    1    4    4    0    0  0.46152578158E+01  0.45707129517E+01 -0.28438653648E+02  0.29171222239E+02  0.10566000000E+00 0. -1.
        -13    1    4    4    0    0  0.77383888424E+00  0.65146846904E+00 -0.52223397229E+01  0.53204543041E+01  0.10566000000E+00 0. -1.
         14    1    4    4    0    0  0.23339541248E+02  0.21232329869E+02 -0.12785107915E+03  0.13168691832E+03  0.00000000000E+00 0. -1.
<mgrwt>
<rscale>  0 0.78832078E+02</rscale>
<asrwt>0</asrwt>
<pdfrwt beam="1">  1        2 0.63471321E-03 0.78832078E+02</pdfrwt>
<pdfrwt beam="2">  1       -1 0.57935093E-01 0.78832078E+02</pdfrwt>
<totfact> 0.81135958E+04</totfact>
</mgrwt>
</event>
<event>
 8    1  0.7667702E-014  0.7981158E+02  0.7818608E-02  0.1329587E+00
         -1   -1    0    0    0  501 -0.00000000000E+00  0.00000000000E+00  0.21759030371E+02  0.21759030955E+02  0.50400000000E-02 0.  1.
          2   -1    0    0  501    0  0.00000000000E+00 -0.00000000000E+00 -0.73186714260E+02  0.73186714304E+02  0.25500000000E-02 0. -1.
         24    2    1    2    0    0  0.00000000000E+00  0.17763568394E-14 -0.51427683889E+02  0.94945745259E+02  0.79811577310E+02 0.  0.
         66    2    3    3    0    0 -0.81765243715E+01 -0.82842861623E+01 -0.71107221200E+02  0.72081355898E+02  0.20000033193E+01 0.  0.
        -13    1    3    3    0    0  0.81765243715E+01  0.82842861623E+01  0.19679537312E+02  0.22864389361E+02  0.10566000000E+00 0.  1.
         13    1    4    4    0    0 -0.41786085590E+01 -0.38055843774E+01 -0.30634798689E+02  0.31151970992E+02  0.10566000000E+00 0. -1.
        -13    1    4    4    0    0 -0.35130218778E+00 -0.48861905460E+00 -0.24696225157E+01  0.25440835705E+01  0.10566000000E+00 0. -1.
         14    1    4    4    0    0 -0.36466136247E+01 -0.39900827303E+01 -0.38002799996E+02  0.38385301336E+02  0.00000000000E+00 0. -1.
<mgrwt>
<rscale>  0 0.79811577E+02</rscale>
<asrwt>0</asrwt>
<pdfrwt beam="1">  1        2 0.11259494E-01 0.79811577E+02</pdfrwt>
<pdfrwt beam="2">  1       -1 0.33475432E-02 0.79811577E+02</pdfrwt>
<totfact> 0.16428865E+05</totfact>
</mgrwt>
</event>
<event>
 8    1  0.7667702E-014  0.8054375E+02  0.7818608E-02  0.1327515E+00
         -1   -1    0    0    0  501 -0.00000000000E+00  0.00000000000E+00  0.12319204984E+02  0.12319206015E+02  0.50400000000E-02 0.  1.
          2   -1    0    0  501    0  0.00000000000E+00 -0.00000000000E+00 -0.13165005569E+03  0.13165005572E+03  0.25500000000E-02 0. -1.
         24    2    1    2    0    0  0.35527136788E-14  0.00000000000E+00 -0.11933085071E+03  0.14396926173E+03  0.80543754523E+02 0.  0.
         66    2    3    3    0    0 -0.26551293482E+02 -0.25384354124E+02 -0.89099415829E+02  0.96395241103E+02  0.19999965796E+01 0.  0.
        -13    1    3    3    0    0  0.26551293482E+02  0.25384354124E+02 -0.30231434878E+02  0.47574020627E+02  0.10566000000E+00 0.  1.
         13    1    4    4    0    0 -0.31684144599E+01 -0.36241925652E+01 -0.11732445959E+02  0.12682076886E+02  0.10566000000E+00 0. -1.
        -13    1    4    4    0    0 -0.60301022872E+01 -0.57573011975E+01 -0.21805775429E+02  0.23345484719E+02  0.10566000000E+00 0.  1.
        -14    1    4    4    0    0 -0.17352776735E+02 -0.16002860361E+02 -0.55561194441E+02  0.60367679497E+02  0.00000000000E+00 0.  1.
<mgrwt>
<rscale>  0 0.80543755E+02</rscale>
<asrwt>0</asrwt>
<pdfrwt beam="1">  1        2 0.20253854E-01 0.80543755E+02</pdfrwt>
<pdfrwt beam="2">  1       -1 0.18952625E-02 0.80543755E+02</pdfrwt>
<totfact> 0.18877753E+05</totfact>
</mgrwt>
</event>
<event>
 8    1  0.7667702E-014  0.7343333E+02  0.7818608E-02  0.1348792E+00
          2   -1    0    0  501    0  0.00000000000E+00  0.00000000000E+00  0.78861743074E+02  0.78861743115E+02  0.25500000000E-02 0. -1.
         -1   -1    0    0    0  501 -0.00000000000E+00 -0.00000000000E+00 -0.17094644523E+02  0.17094645266E+02  0.50400000000E-02 0.  1.
         24    2    1    2    0    0  0.00000000000E+00  0.17763568394E-14  0.61767098551E+02  0.95956388382E+02  0.73433330361E+02 0.  0.
         66    2    3    3    0    0  0.33835519846E+02 -0.84945549387E+01  0.45754072962E+02  0.57571130542E+02  0.20000030968E+01 0.  0.
        -13    1    3    3    0    0 -0.33835519846E+02  0.84945549387E+01  0.16013025589E+02  0.38385257840E+02  0.10566000000E+00 0.  1.
         13    1    4    4    0    0  0.85125233308E+00 -0.18170708724E+00  0.80871165809E+00  0.11928229465E+01  0.10566000000E+00 0. -1.
        -13    1    4    4    0    0  0.76707079411E+01 -0.23455747156E+01  0.10139907294E+02  0.12929437924E+02  0.10566000000E+00 0.  1.
         14    1    4    4    0    0  0.25313559572E+02 -0.59672731359E+01  0.34805454010E+02  0.43448869672E+02  0.00000000000E+00 0. -1.
<mgrwt>
<rscale>  0 0.73433330E+02</rscale>
<asrwt>0</asrwt>
<pdfrwt beam="1">  1        2 0.12132576E-01 0.73433330E+02</pdfrwt>
<pdfrwt beam="2">  1       -1 0.26299454E-02 0.73433330E+02</pdfrwt>
<totfact> 0.20927527E+05</totfact>
</mgrwt>
</event>
<event>
 8    1  0.7667702E-014  0.7865625E+02  0.7818608E-02  0.1332909E+00
         -1   -1    0    0    0  501 -0.00000000000E+00  0.00000000000E+00  0.36792324944E+02  0.36792325289E+02  0.50400000000E-02 0.  1.
          2   -1    0    0  501    0  0.00000000000E+00 -0.00000000000E+00 -0.42038693780E+02  0.42038693857E+02  0.25500000000E-02 0. -1.
         24    2    1    2    0    0 -0.71054273576E-14 -0.44408920985E-15 -0.52463688360E+01  0.78831019146E+02  0.78656247009E+02 0.  0.
         66    2    3    3    0    0  0.34587640834E+02  0.24108805934E+01 -0.21174894792E+02  0.40675464545E+02  0.20000007019E+01 0.  0.
        -13    1    3    3    0    0 -0.34587640834E+02 -0.24108805934E+01  0.15928525956E+02  0.38155554600E+02  0.10566000000E+00 0.  1.
         13    1    4    4    0    0  0.18135030552E+02  0.20174441202E+01 -0.11597578529E+02  0.21620925181E+02  0.10566000000E+00 0. -1.
        -13    1    4    4    0    0  0.97094068471E+01  0.47732903000E+00 -0.59326658866E+01  0.11388946961E+02  0.10566000000E+00 0.  1.
        -14    1    4    4    0    0  0.67432034351E+01 -0.83892556800E-01 -0.36446503764E+01  0.76655924033E+01  0.00000000000E+00 0.  1.
<mgrwt>
<rscale>  0 0.78656247E+02</rscale>
<asrwt>0</asrwt>
<pdfrwt beam="1">  1        2 0.64674914E-02 0.78656247E+02</pdfrwt>
<pdfrwt beam="2">  1       -1 0.56603577E-02 0.78656247E+02</pdfrwt>
<totfact> 0.15090436E+05</totfact>
</mgrwt>
</event>
<event>
 8    1  0.1107090E-013  0.8079582E+02  0.7818608E-02  0.1326808E+00
         -1   -1    0    0    0  501 -0.00000000000E+00  0.00000000000E+00  0.22026285628E+02  0.22026286205E+02  0.50400000000E-02 0.  1.
          2   -1    0    0  501    0  0.00000000000E+00 -0.00000000000E+00 -0.74092889040E+02  0.74092889084E+02  0.25500000000E-02 0. -1.
         24    2    1    2    0    0  0.00000000000E+00  0.00000000000E+00 -0.52066603412E+02  0.96119175289E+02  0.80795820853E+02 0.  0.
         66    2    3    3    0    0  0.72834278761E+01 -0.15811523668E+02 -0.69384900720E+02  0.71563377846E+02  0.19999996093E+01 0.  0.
        -13    1    3    3    0    0 -0.72834278761E+01  0.15811523668E+02  0.17318297308E+02  0.24555797442E+02  0.10566000000E+00 0.  1.
         13    1    4    4    0    0  0.32343039507E+01 -0.74576272315E+01 -0.32728059015E+02  0.33722602760E+02  0.10566000000E+00 0. -1.
        -13    1    4    4    0    0  0.23734099485E+01 -0.36478746811E+01 -0.15282241949E+02  0.15890190292E+02  0.10566000000E+00 0.  1.
        -14    1    4    4    0    0  0.16757139768E+01 -0.47060217556E+01 -0.21374599756E+02  0.21950584795E+02  0.00000000000E+00 0.  1.
<mgrwt>
<rscale>  0 0.80795821E+02</rscale>
<asrwt>0</asrwt>
<pdfrwt beam="1">  1        2 0.11398906E-01 0.80795821E+02</pdfrwt>
<pdfrwt beam="2">  1       -1 0.33886594E-02 0.80795821E+02</pdfrwt>
<totfact> 0.15942135E+05</totfact>
</mgrwt>
</event>
<event>
 8    1  0.7667702E-014  0.8016473E+02  0.7818608E-02  0.1328585E+00
         -1   -1    0    0    0  501 -0.00000000000E+00  0.00000000000E+00  0.47323769009E+02  0.47323769277E+02  0.50400000000E-02 0.  1.
          2   -1    0    0  501    0  0.00000000000E+00 -0.00000000000E+00 -0.33949025771E+02  0.33949025867E+02  0.25500000000E-02 0. -1.
         24    2    1    2    0    0  0.17763568394E-14  0.44408920985E-15  0.13374743238E+02  0.81272795144E+02  0.80164727117E+02 0.  0.
         66    2    3    3    0    0  0.12364254831E+02  0.27940865876E+01 -0.31832516895E+02  0.34321871296E+02  0.19999999936E+01 0.  0.
        -13    1    3    3    0    0 -0.12364254831E+02 -0.27940865876E+01  0.45207260133E+02  0.46950923848E+02  0.10566000000E+00 0.  1.
         13    1    4    4    0    0  0.86568981047E+01  0.15642171606E+01 -0.23928617830E+02  0.25494677393E+02  0.10566000000E+00 0. -1.
        -13    1    4    4    0    0  0.13367182114E+01  0.28564326647E+00 -0.30290472929E+01  0.33248607776E+01  0.10566000000E+00 0.  1.
         14    1    4    4    0    0  0.23706385146E+01  0.94422616056E+00 -0.48748517730E+01  0.55023331249E+01  0.00000000000E+00 0. -1.
<mgrwt>
<rscale>  0 0.80164727E+02</rscale>
<asrwt>0</asrwt>
<pdfrwt beam="1">  1        2 0.52229271E-02 0.80164727E+02</pdfrwt>
<pdfrwt beam="2">  1       -1 0.72805799E-02 0.80164727E+02</pdfrwt>
<totfact> 0.13710755E+05</totfact>
</mgrwt>
</event>
<event>
 8    1  0.7667702E-014  0.7930319E+02  0.7818608E-02  0.1331041E+00
          2   -1    0    0  501    0  0.00000000000E+00  0.00000000000E+00  0.24660204086E+03  0.24660204087E+03  0.25500000000E-02 0. -1.
         -1   -1    0    0    0  501 -0.00000000000E+00 -0.00000000000E+00 -0.63756511525E+01  0.63756531445E+01  0.50400000000E-02 0.  1.
         24    2    1    2    0    0  0.00000000000E+00  0.00000000000E+00  0.24022638970E+03  0.25297769401E+03  0.79303186307E+02 0.  0.
         66    2    3    3    0    0  0.87200440263E+01 -0.14284252391E+02  0.23477079638E+03  0.23537503238E+03  0.19999998505E+01 0.  0.
        -13    1    3    3    0    0 -0.87200440263E+01  0.14284252391E+02  0.54555933248E+01  0.17602661638E+02  0.10566000000E+00 0.  1.
         13    1    4    4    0    0  0.13875373172E+01 -0.23779468942E+01  0.30362102758E+02  0.30486855186E+02  0.10566000000E+00 0. -1.
        -13    1    4    4    0    0  0.48650006094E+01 -0.75570728359E+01  0.13653678508E+03  0.13683231498E+03  0.10566000000E+00 0.  1.
         14    1    4    4    0    0  0.24675060997E+01 -0.43492326604E+01  0.67871908543E+02  0.68055862204E+02  0.00000000000E+00 0. -1.
<mgrwt>
<rscale>  0 0.79303186E+02</rscale>
<asrwt>0</asrwt>
<pdfrwt beam="1">  1        2 0.37938772E-01 0.79303186E+02</pdfrwt>
<pdfrwt beam="2">  1       -1 0.98086965E-03 0.79303186E+02</pdfrwt>
<totfact> 0.24304198E+05</totfact>
</mgrwt>
</event>
<event>
 8    1  0.7667702E-014  0.7859589E+02  0.7818608E-02  0.1333084E+00
         -1   -1    0    0    0  501 -0.00000000000E+00  0.00000000000E+00  0.50871963052E+02  0.50871963301E+02  0.50400000000E-02 0.  1.
          2   -1    0    0  501    0  0.00000000000E+00 -0.00000000000E+00 -0.30357162130E+02  0.30357162237E+02  0.25500000000E-02 0. -1.
         24    2    1    2    0    0  0.17763568394E-14 -0.17763568394E-14  0.20514800921E+02  0.81229125539E+02  0.78595889072E+02 0.  0.
         66    2    3    3    0    0 -0.12398890893E+02  0.11090681413E+02 -0.26502966893E+02  0.31355110623E+02  0.19999996152E+01 0.  0.
        -13    1    3    3    0    0  0.12398890893E+02 -0.11090681413E+02  0.47017767814E+02  0.49874014916E+02  0.10566000000E+00 0.  1.
         13    1    4    4    0    0 -0.81297384040E+01  0.70423739403E+01 -0.18392230742E+02  0.21306641991E+02  0.10566000000E+00 0. -1.
        -13    1    4    4    0    0 -0.27016278241E+01  0.30171698812E+01 -0.57197086508E+01  0.70091610109E+01  0.10566000000E+00 0.  1.
         14    1    4    4    0    0 -0.15675246647E+01  0.10311375911E+01 -0.23910275002E+01  0.30393076207E+01  0.00000000000E+00 0. -1.
<mgrwt>
<rscale>  0 0.78595889E+02</rscale>
<asrwt>0</asrwt>
<pdfrwt beam="1">  1        2 0.46703327E-02 0.78595889E+02</pdfrwt>
<pdfrwt beam="2">  1       -1 0.78264559E-02 0.78595889E+02</pdfrwt>
<totfact> 0.14171465E+05</totfact>
</mgrwt>
</event>
<event>
 8    1  0.7667702E-014  0.7821437E+02  0.7818608E-02  0.1334197E+00
          2   -1    0    0  501    0  0.00000000000E+00  0.00000000000E+00  0.17361906597E+03  0.17361906598E+03  0.25500000000E-02 0. -1.
         -1   -1    0    0    0  501 -0.00000000000E+00 -0.00000000000E+00 -0.88087768457E+01  0.88087782875E+01  0.50400000000E-02 0.  1.
         24    2    1    2    0    0  0.00000000000E+00  0.00000000000E+00  0.16481028912E+03  0.18242784427E+03  0.78214365470E+02 0.  0.
         66    2    3    3    0    0  0.89931573174E+01 -0.16063549521E+02  0.16286617583E+03  0.16391554452E+03  0.20000004680E+01 0.  0.
        -13    1    3    3    0    0 -0.89931573174E+01  0.16063549521E+02  0.19441132875E+01  0.18512299756E+02  0.10566000000E+00 0.  1.
         13    1    4    4    0    0  0.28101524376E+01 -0.64425244867E+01  0.63589812870E+02  0.63977172049E+02  0.10566000000E+00 0.  1.
        -13    1    4    4    0    0  0.26207860351E+01 -0.39403273460E+01  0.36780879326E+02  0.37084214258E+02  0.10566000000E+00 0. -1.
         14    1    4    4    0    0  0.35622188447E+01 -0.56806976883E+01  0.62495483636E+02  0.62854158210E+02  0.00000000000E+00 0. -1.
<mgrwt>
<rscale>  0 0.78214365E+02</rscale>
<asrwt>0</asrwt>
<pdfrwt beam="1">  1        2 0.26710624E-01 0.78214365E+02</pdfrwt>
<pdfrwt beam="2">  1       -1 0.13551966E-02 0.78214365E+02</pdfrwt>
<totfact> 0.22308662E+05</totfact>
</mgrwt>
</event>
<event>
 8    1  0.7667702E-014  0.7758656E+02  0.7818608E-02  0.1336043E+00
         -1   -1    0    0    0  501 -0.00000000000E+00  0.00000000000E+00  0.10723031430E+02  0.10723032614E+02  0.50400000000E-02 0.  1.
          2   -1    0    0  501    0  0.00000000000E+00 -0.00000000000E+00 -0.14034448990E+03  0.14034448992E+03  0.25500000000E-02 0. -1.
         24    2    1    2    0    0  0.00000000000E+00  0.71054273576E-14 -0.12962145847E+03  0.15106752253E+03  0.77586557273E+02 0.  0.
         66    2    3    3    0    0  0.12487474776E+02  0.36691343446E+02 -0.66507937995E+02  0.77003230595E+02  0.19999988846E+01 0.  0.
        -13    1    3    3    0    0 -0.12487474776E+02 -0.36691343446E+02 -0.63113520470E+02  0.74064291938E+02  0.10566000000E+00 0.  1.
         13    1    4    4    0    0  0.13074419974E+01  0.38440060791E+01 -0.61648484255E+01  0.73825678092E+01  0.10566000000E+00 0. -1.
        -13    1    4    4    0    0  0.17946169399E+01  0.42730762192E+01 -0.86943813583E+01  0.98530838612E+01  0.10566000000E+00 0.  1.
         14    1    4    4    0    0  0.93854158382E+01  0.28574261147E+02 -0.51648708212E+02  0.59767578925E+02  0.00000000000E+00 0. -1.
<mgrwt>
<rscale>  0 0.77586557E+02</rscale>
<asrwt>0</asrwt>
<pdfrwt beam="1">  1        2 0.21591459E-01 0.77586557E+02</pdfrwt>
<pdfrwt beam="2">  1       -1 0.16496973E-02 0.77586557E+02</pdfrwt>
<totfact> 0.21269312E+05</totfact>
</mgrwt>
</event>
<event>
 8    1  0.7667702E-014  0.7827909E+02  0.7818608E-02  0.1334007E+00
         -1   -1    0    0    0  501 -0.00000000000E+00  0.00000000000E+00  0.55080268957E+01  0.55080292015E+01  0.50400000000E-02 0.  1.
          2   -1    0    0  501    0  0.00000000000E+00 -0.00000000000E+00 -0.27812201219E+03  0.27812201220E+03  0.25500000000E-02 0. -1.
         24    2    1    2    0    0  0.44408920985E-15  0.35527136788E-14 -0.27261398529E+03  0.28363004140E+03  0.78279086660E+02 0.  0.
         66    2    3    3    0    0  0.34403271825E+01  0.13872336278E+02 -0.26831741860E+03  0.26870525617E+03  0.20000006796E+01 0.  0.
        -13    1    3    3    0    0 -0.34403271825E+01 -0.13872336278E+02 -0.42965666932E+01  0.14924785235E+02  0.10566000000E+00 0.  1.
         13    1    4    4    0    0  0.26138300856E+01  0.91597263263E+01 -0.19179270204E+03  0.19202912387E+03  0.10566000000E+00 0. -1.
        -13    1    4    4    0    0  0.11617963447E+00  0.68364699189E+00 -0.87639445983E+01  0.87919713304E+01  0.10566000000E+00 0.  1.
         14    1    4    4    0    0  0.71031746243E+00  0.40289629595E+01 -0.67760771961E+02  0.67884160967E+02  0.00000000000E+00 0. -1.
<mgrwt>
<rscale>  0 0.78279087E+02</rscale>
<asrwt>0</asrwt>
<pdfrwt beam="1">  1        2 0.42787991E-01 0.78279087E+02</pdfrwt>
<pdfrwt beam="2">  1       -1 0.84738915E-03 0.78279087E+02</pdfrwt>
<totfact> 0.26259900E+05</totfact>
</mgrwt>
</event>
<event>
 8    1  0.7667702E-014  0.7914685E+02  0.7818608E-02  0.1331490E+00
         -1   -1    0    0    0  501 -0.00000000000E+00  0.00000000000E+00  0.68717633195E+01  0.68717651678E+01  0.50400000000E-02 0.  1.
          2   -1    0    0  501    0  0.00000000000E+00 -0.00000000000E+00 -0.22789721728E+03  0.22789721730E+03  0.25500000000E-02 0. -1.
         24    2    1    2    0    0  0.00000000000E+00  0.17763568394E-14 -0.22102545396E+03  0.23476898246E+03  0.79146849766E+02 0.  0.
         66    2    3    3    0    0  0.17461585673E+02  0.15217174961E+02 -0.20566880641E+03  0.20697856728E+03  0.19999987309E+01 0.  0.
        -13    1    3    3    0    0 -0.17461585673E+02 -0.15217174961E+02 -0.15356647550E+02  0.27790415182E+02  0.10566000000E+00 0.  1.
         13    1    4    4    0    0  0.10846217587E+01  0.14833559629E+01 -0.17786870535E+02  0.17881853280E+02  0.10566000000E+00 0. -1.
        -13    1    4    4    0    0  0.14664403549E+02  0.12155290347E+02 -0.16999357099E+03  0.17105736219E+03  0.10566000000E+00 0.  1.
        -14    1    4    4    0    0  0.17125603652E+01  0.15785286508E+01 -0.17888364884E+02  0.18039351816E+02  0.00000000000E+00 0.  1.
<mgrwt>
<rscale>  0 0.79146850E+02</rscale>
<asrwt>0</asrwt>
<pdfrwt beam="1">  1        2 0.35061105E-01 0.79146850E+02</pdfrwt>
<pdfrwt beam="2">  1       -1 0.10571947E-02 0.79146850E+02</pdfrwt>
<totfact> 0.23754364E+05</totfact>
</mgrwt>
</event>
<event>
 8    1  0.7667702E-014  0.7987269E+02  0.7818608E-02  0.1329413E+00
          2   -1    0    0  501    0  0.00000000000E+00  0.00000000000E+00  0.52256108652E+03  0.52256108653E+03  0.25500000000E-02 0. -1.
         -1   -1    0    0    0  501 -0.00000000000E+00 -0.00000000000E+00 -0.30521033122E+01  0.30521074735E+01  0.50400000000E-02 0.  1.
         24    2    1    2    0    0  0.00000000000E+00 -0.35527136788E-14  0.51950898321E+03  0.52561319400E+03  0.79872686652E+02 0.  0.
         66    2    3    3    0    0  0.31375170623E+02 -0.23520261364E+02  0.30885425474E+03  0.31133993432E+03  0.20000004513E+01 0.  0.
        -13    1    3    3    0    0 -0.31375170623E+02  0.23520261364E+02  0.21065472847E+03  0.21427325968E+03  0.10566000000E+00 0.  1.
         13    1    4    4    0    0  0.59208852607E+01 -0.43235873074E+01  0.53912146988E+02  0.54408464842E+02  0.10566000000E+00 0. -1.
        -13    1    4    4    0    0  0.61000630786E+01 -0.42104678739E+01  0.55500801538E+02  0.55993650932E+02  0.10566000000E+00 0.  1.
        -14    1    4    4    0    0  0.19354222283E+02 -0.14986206183E+02  0.19944130622E+03  0.20093781854E+03  0.00000000000E+00 0.  1.
<mgrwt>
<rscale>  0 0.79872687E+02</rscale>
<asrwt>0</asrwt>
<pdfrwt beam="1">  1        2 0.80394019E-01 0.79872687E+02</pdfrwt>
<pdfrwt beam="2">  1       -1 0.46955464E-03 0.79872687E+02</pdfrwt>
<totfact> 0.31005312E+05</totfact>
</mgrwt>
</event>
<event>
 8    1  0.7667702E-014  0.7011159E+02  0.7818608E-02  0.1359714E+00
         -1   -1    0    0    0  501 -0.00000000000E+00  0.00000000000E+00  0.11502528023E+02  0.11502529127E+02  0.50400000000E-02 0.  1.
          2   -1    0    0  501    0  0.00000000000E+00 -0.00000000000E+00 -0.10683813129E+03  0.10683813132E+03  0.25500000000E-02 0. -1.
         24    2    1    2    0    0  0.35527136788E-14  0.00000000000E+00 -0.95335603263E+02  0.11834066044E+03  0.70111587236E+02 0.  0.
         66    2    3    3    0    0 -0.20584039172E+02 -0.69929156144E+01 -0.94063591512E+02  0.96563775558E+02  0.19999911267E+01 0.  0.
        -13    1    3    3    0    0  0.20584039172E+02  0.69929156144E+01 -0.12720117515E+01  0.21776884886E+02  0.10566000000E+00 0.  1.
         13    1    4    4    0    0 -0.62882041760E+01 -0.26839475799E+01 -0.31667358705E+02  0.32397189041E+02  0.10566000000E+00 0. -1.
        -13    1    4    4    0    0 -0.46724906955E+01 -0.11091029571E+01 -0.21779559793E+02  0.22302974409E+02  0.10566000000E+00 0.  1.
         14    1    4    4    0    0 -0.96233443004E+01 -0.31998650774E+01 -0.40616673013E+02  0.41863612108E+02  0.00000000000E+00 0. -1.
<mgrwt>
<rscale>  0 0.70111587E+02</rscale>
<asrwt>0</asrwt>
<pdfrwt beam="1">  1        2 0.16436635E-01 0.70111587E+02</pdfrwt>
<pdfrwt beam="2">  1       -1 0.17696199E-02 0.70111587E+02</pdfrwt>
<totfact> 0.25624013E+05</totfact>
</mgrwt>
</event>
<event>
 8    1  0.7667702E-014  0.8096970E+02  0.7818608E-02  0.1326322E+00
         -1   -1    0    0    0  501 -0.00000000000E+00  0.00000000000E+00  0.18227184291E+03  0.18227184298E+03  0.50400000000E-02 0.  1.
          2   -1    0    0  501    0  0.00000000000E+00 -0.00000000000E+00 -0.89921899030E+01  0.89921902645E+01  0.25500000000E-02 0. -1.
         24    2    1    2    0    0  0.00000000000E+00  0.00000000000E+00  0.17327965300E+03  0.19126403324E+03  0.80969699681E+02 0.  0.
         66    2    3    3    0    0  0.35173764924E+02  0.16391615693E+02  0.59641923868E+02  0.71183129467E+02  0.20000085247E+01 0.  0.
        -13    1    3    3    0    0 -0.35173764924E+02 -0.16391615693E+02  0.11363772914E+03  0.12008090377E+03  0.10566000000E+00 0.  1.
         13    1    4    4    0    0  0.10634316059E+02  0.56429295274E+01  0.18080077220E+02  0.21721687043E+02  0.10566000000E+00 0. -1.
        -13    1    4    4    0    0  0.78371261749E+01  0.39512019212E+01  0.14059662451E+02  0.16574613587E+02  0.10566000000E+00 0.  1.
         14    1    4    4    0    0  0.16702322691E+02  0.67974842446E+01  0.27502184197E+02  0.32886828837E+02  0.00000000000E+00 0. -1.
<mgrwt>
<rscale>  0 0.80969700E+02</rscale>
<asrwt>0</asrwt>
<pdfrwt beam="1">  1        2 0.13834139E-02 0.80969700E+02</pdfrwt>
<pdfrwt beam="2">  1       -1 0.28041821E-01 0.80969700E+02</pdfrwt>
<totfact> 0.99272557E+04</totfact>
</mgrwt>
</event>
<event>
 8    1  0.7667702E-014  0.7995891E+02  0.7818608E-02  0.1329168E+00
          2   -1    0    0  501    0  0.00000000000E+00  0.00000000000E+00  0.50613703778E+03  0.50613703779E+03  0.25500000000E-02 0. -1.
         -1   -1    0    0    0  501 -0.00000000000E+00 -0.00000000000E+00 -0.31579509372E+01  0.31579549591E+01  0.50400000000E-02 0.  1.
         24    2    1    2    0    0  0.35527136788E-14 -0.71054273576E-14  0.50297908685E+03  0.50929499275E+03  0.79958913415E+02 0.  0.
         66    2    3    3    0    0  0.31381627695E+02 -0.22419329721E+02  0.31812086361E+03  0.32045641945E+03  0.20000008653E+01 0.  0.
        -13    1    3    3    0    0 -0.31381627695E+02  0.22419329721E+02  0.18485822324E+03  0.18883857330E+03  0.10566000000E+00 0.  1.
         13    1    4    4    0    0  0.78031836033E+01 -0.50802569679E+01  0.82042843973E+02  0.82569595472E+02  0.10566000000E+00 0. -1.
        -13    1    4    4    0    0  0.11656218064E+02 -0.87463336536E+01  0.11434083549E+03  0.11526579543E+03  0.10566000000E+00 0.  1.
         14    1    4    4    0    0  0.11922226028E+02 -0.85927390996E+01  0.12173718415E+03  0.12262102855E+03  0.00000000000E+00 0. -1.
<mgrwt>
<rscale>  0 0.79958913E+02</rscale>
<asrwt>0</asrwt>
<pdfrwt beam="1">  1        2 0.77867189E-01 0.79958913E+02</pdfrwt>
<pdfrwt beam="2">  1       -1 0.48583921E-03 0.79958913E+02</pdfrwt>
<totfact> 0.30610469E+05</totfact>
</mgrwt>
</event>
<event>
 8    1  0.7667702E-014  0.8234709E+02  0.7818608E-02  0.1322520E+00
         -1   -1    0    0    0  501 -0.00000000000E+00  0.00000000000E+00  0.25183546175E+02  0.25183546679E+02  0.50400000000E-02 0.  1.
          2   -1    0    0  501    0  0.00000000000E+00 -0.00000000000E+00 -0.67316198832E+02  0.67316198880E+02  0.25500000000E-02 0. -1.
         24    2    1    2    0    0  0.00000000000E+00  0.00000000000E+00 -0.42132652657E+02  0.92499745559E+02  0.82347085611E+02 0.  0.
         66    2    3    3    0    0  0.40410960927E+02 -0.12886559206E+01 -0.29673856966E+02  0.50192073072E+02  0.20000037380E+01 0.  0.
        -13    1    3    3    0    0 -0.40410960927E+02  0.12886559206E+01 -0.12458795692E+02  0.42307672487E+02  0.10566000000E+00 0.  1.
         13    1    4    4    0    0  0.28128016780E+02 -0.79769254916E+00 -0.21374763866E+02  0.35337138194E+02  0.10566000000E+00 0. -1.
        -13    1    4    4    0    0  0.19063454593E+01 -0.22642943488E+00 -0.15959213979E+01  0.24987101559E+01  0.10566000000E+00 0.  1.
        -14    1    4    4    0    0  0.10376598687E+02 -0.26453393657E+00 -0.67031717021E+01  0.12356224722E+02  0.00000000000E+00 0.  1.
<mgrwt>
<rscale>  0 0.82347086E+02</rscale>
<asrwt>0</asrwt>
<pdfrwt beam="1">  1        2 0.10356338E-01 0.82347086E+02</pdfrwt>
<pdfrwt beam="2">  1       -1 0.38743918E-02 0.82347086E+02</pdfrwt>
<totfact> 0.14786365E+05</totfact>
</mgrwt>
</event>
<event>
 8    1  0.7667702E-014  0.8020050E+02  0.7818608E-02  0.1328483E+00
          2   -1    0    0  501    0  0.00000000000E+00  0.00000000000E+00  0.15553078784E+02  0.15553078993E+02  0.25500000000E-02 0. -1.
         -1   -1    0    0    0  501 -0.00000000000E+00 -0.00000000000E+00 -0.10338983043E+03  0.10338983055E+03  0.50400000000E-02 0.  1.
         24    2    1    2    0    0  0.00000000000E+00  0.00000000000E+00 -0.87836751644E+02  0.11894290954E+03  0.80200503686E+02 0.  0.
         66    2    3    3    0    0  0.32029098159E+02 -0.93499793115E+01 -0.11024812200E+02  0.35197041305E+02  0.19999976383E+01 0.  0.
        -13    1    3    3    0    0 -0.32029098159E+02  0.93499793115E+01 -0.76811939444E+02  0.83745868240E+02  0.10566000000E+00 0.  1.
         13    1    4    4    0    0  0.45150014453E+01 -0.15212948627E+01 -0.95337732138E+00  0.48600070435E+01  0.10566000000E+00 0. -1.
        -13    1    4    4    0    0  0.26089945113E+01 -0.63794608424E+00 -0.11311765384E+01  0.29162564981E+01  0.10566000000E+00 0.  1.
         14    1    4    4    0    0  0.24905102202E+02 -0.71907383646E+01 -0.89402583399E+01  0.27420777763E+02  0.00000000000E+00 0. -1.
<mgrwt>
<rscale>  0 0.80200504E+02</rscale>
<asrwt>0</asrwt>
<pdfrwt beam="1">  1        2 0.23927814E-02 0.80200504E+02</pdfrwt>
<pdfrwt beam="2">  1       -1 0.15906127E-01 0.80200504E+02</pdfrwt>
<totfact> 0.11694886E+05</totfact>
</mgrwt>
</event>
<event>
 8    1  0.7667702E-014  0.7948824E+02  0.7818608E-02  0.1330510E+00
         -1   -1    0    0    0  501 -0.00000000000E+00  0.00000000000E+00  0.10677465534E+01  0.10677584483E+01  0.50400000000E-02 0.  1.
          2   -1    0    0  501    0  0.00000000000E+00 -0.00000000000E+00 -0.14793643687E+04  0.14793643687E+04  0.25500000000E-02 0. -1.
         24    2    1    2    0    0  0.00000000000E+00 -0.11102230246E-15 -0.14782966221E+04  0.14804321271E+04  0.79488238432E+02 0.  0.
         66    2    3    3    0    0  0.15063808216E+02 -0.89088900441E+00 -0.14238934454E+04  0.14239748088E+04  0.19999963084E+01 0.  0.
        -13    1    3    3    0    0 -0.15063808216E+02  0.89088900441E+00 -0.54403176698E+02  0.56457318392E+02  0.10566000000E+00 0.  1.
         13    1    4    4    0    0  0.62125574342E+01 -0.65177744951E+00 -0.57876441671E+03  0.57879813571E+03  0.10566000000E+00 0. -1.
        -13    1    4    4    0    0  0.33846828385E+01  0.18284202906E+00 -0.38633825076E+03  0.38635313468E+03  0.10566000000E+00 0.  1.
        -14    1    4    4    0    0  0.54665679429E+01 -0.42195358396E+00 -0.45879077798E+03  0.45882353837E+03  0.00000000000E+00 0.  1.
<mgrwt>
<rscale>  0 0.79488238E+02</rscale>
<asrwt>0</asrwt>
<pdfrwt beam="1">  1        2 0.22759288E+00 0.79488238E+02</pdfrwt>
<pdfrwt beam="2">  1       -1 0.16427080E-03 0.79488238E+02</pdfrwt>
<totfact> 0.33982841E+05</totfact>
</mgrwt>
</event>
<event>
 8    1  0.7667702E-014  0.8055294E+02  0.7818608E-02  0.1327490E+00
         -1   -1    0    0    0  501 -0.00000000000E+00  0.00000000000E+00  0.12306015299E+03  0.12306015309E+03  0.50400000000E-02 0.  1.
          2   -1    0    0  501    0  0.00000000000E+00 -0.00000000000E+00 -0.13182123306E+02  0.13182123553E+02  0.25500000000E-02 0. -1.
         24    2    1    2    0    0 -0.35527136788E-14  0.00000000000E+00  0.10987802968E+03  0.13624227664E+03  0.80552942456E+02 0.  0.
         66    2    3    3    0    0  0.28545575141E+02  0.22571781705E+02  0.25881081323E+02  0.44700845111E+02  0.19999984201E+01 0.  0.
        -13    1    3    3    0    0 -0.28545575141E+02 -0.22571781705E+02  0.83996948357E+02  0.91541431531E+02  0.10566000000E+00 0.  1.
         13    1    4    4    0    0  0.10638313994E+02  0.86164032867E+01  0.10549867496E+02  0.17283720620E+02  0.10566000000E+00 0. -1.
        -13    1    4    4    0    0  0.61637015228E+01  0.42896020913E+01  0.46878619938E+01  0.88531981042E+01  0.10566000000E+00 0.  1.
         14    1    4    4    0    0  0.11743559624E+02  0.96657763274E+01  0.10643351833E+02  0.18563926387E+02  0.00000000000E+00 0. -1.
<mgrwt>
<rscale>  0 0.80552942E+02</rscale>
<asrwt>0</asrwt>
<pdfrwt beam="1">  1        2 0.20280190E-02 0.80552942E+02</pdfrwt>
<pdfrwt beam="2">  1       -1 0.18932331E-01 0.80552942E+02</pdfrwt>
<totfact> 0.11124440E+05</totfact>
</mgrwt>
</event>
<event>
 8    1  0.7667702E-014  0.7947626E+02  0.7818608E-02  0.1330544E+00
          2   -1    0    0  501    0  0.00000000000E+00  0.00000000000E+00  0.12416225305E+03  0.12416225308E+03  0.25500000000E-02 0. -1.
         -1   -1    0    0    0  501 -0.00000000000E+00 -0.00000000000E+00 -0.12718187433E+02  0.12718188432E+02  0.50400000000E-02 0.  1.
         24    2    1    2    0    0  0.00000000000E+00 -0.88817841970E-15  0.11144406562E+03  0.13688044151E+03  0.79476257500E+02 0.  0.
         66    2    3    3    0    0 -0.33700413954E+02 -0.63683647796E+01  0.90238986307E+02  0.96557488700E+02  0.20000008792E+01 0.  0.
        -13    1    3    3    0    0  0.33700413954E+02  0.63683647796E+01  0.21205079310E+02  0.40322952809E+02  0.10566000000E+00 0.  1.
         13    1    4    4    0    0 -0.21200346844E+02 -0.47101677224E+01  0.57033487373E+02  0.61028437898E+02  0.10566000000E+00 0. -1.
        -13    1    4    4    0    0 -0.11945967020E+02 -0.17522233271E+01  0.31620377203E+02  0.33847242622E+02  0.10566000000E+00 0.  1.
         14    1    4    4    0    0 -0.55410008968E+00  0.94026269794E-01  0.15851217318E+01  0.16818081798E+01  0.00000000000E+00 0. -1.
<mgrwt>
<rscale>  0 0.79476257E+02</rscale>
<asrwt>0</asrwt>
<pdfrwt beam="1">  1        2 0.19101885E-01 0.79476257E+02</pdfrwt>
<pdfrwt beam="2">  1       -1 0.19566443E-02 0.79476257E+02</pdfrwt>
<totfact> 0.19212685E+05</totfact>
</mgrwt>
</event>
<event>
 8    1  0.7667702E-014  0.8959396E+02  0.7818608E-02  0.1303838E+00
         -1   -1    0    0    0  501 -0.00000000000E+00  0.00000000000E+00  0.68571310881E+02  0.68571311066E+02  0.50400000000E-02 0.  1.
          2   -1    0    0  501    0  0.00000000000E+00 -0.00000000000E+00 -0.29265439091E+02  0.29265439202E+02  0.25500000000E-02 0. -1.
         24    2    1    2    0    0 -0.35527136788E-14 -0.35527136788E-14  0.39305871790E+02  0.97836750268E+02  0.89593962664E+02 0.  0.
         66    2    3    3    0    0  0.30509993091E+02  0.31792324644E+02  0.10984698703E+02  0.45456299776E+02  0.19999997656E+01 0.  0.
        -13    1    3    3    0    0 -0.30509993091E+02 -0.31792324644E+02  0.28321173087E+02  0.52380450492E+02  0.10566000000E+00 0.  1.
         13    1    4    4    0    0  0.87060797868E+01  0.80577076140E+01  0.31513628453E+01  0.12274556166E+02  0.10566000000E+00 0. -1.
        -13    1    4    4    0    0  0.10044881163E+02  0.10846477910E+02  0.40759496395E+01  0.15335261658E+02  0.10566000000E+00 0.  1.
         14    1    4    4    0    0  0.11759032142E+02  0.12888139120E+02  0.37573862184E+01  0.17846481952E+02  0.00000000000E+00 0. -1.
<mgrwt>
<rscale>  0 0.89593963E+02</rscale>
<asrwt>0</asrwt>
<pdfrwt beam="1">  1        2 0.45023752E-02 0.89593963E+02</pdfrwt>
<pdfrwt beam="2">  1       -1 0.10549433E-01 0.89593963E+02</pdfrwt>
<totfact> 0.97120571E+04</totfact>
</mgrwt>
</event>
<event>
 8    1  0.7667702E-014  0.7542137E+02  0.7818608E-02  0.1342571E+00
          2   -1    0    0  501    0  0.00000000000E+00  0.00000000000E+00  0.27529644418E+02  0.27529644536E+02  0.25500000000E-02 0. -1.
         -1   -1    0    0    0  501 -0.00000000000E+00 -0.00000000000E+00 -0.51656893076E+02  0.51656893321E+02  0.50400000000E-02 0.  1.
         24    2    1    2    0    0  0.00000000000E+00  0.35527136788E-14 -0.24127248657E+02  0.79186537858E+02  0.75421373961E+02 0.  0.
         66    2    3    3    0    0 -0.66461164054E+01  0.20522107532E+02  0.20369703231E+02  0.29736384650E+02  0.20000003778E+01 0.  0.
        -13    1    3    3    0    0  0.66461164054E+01 -0.20522107532E+02 -0.44496951888E+02  0.49450153207E+02  0.10566000000E+00 0.  1.
         13    1    4    4    0    0 -0.29421575457E+01  0.80700063713E+01  0.78792708709E+01  0.11656558984E+02  0.10566000000E+00 0. -1.
        -13    1    4    4    0    0 -0.24635842522E+01  0.98939052153E+01  0.92264440637E+01  0.13751256011E+02  0.10566000000E+00 0.  1.
        -14    1    4    4    0    0 -0.12403746074E+01  0.25581959457E+01  0.32639882963E+01  0.43285696554E+01  0.00000000000E+00 0.  1.
<mgrwt>
<rscale>  0 0.75421374E+02</rscale>
<asrwt>0</asrwt>
<pdfrwt beam="1">  1        2 0.42353299E-02 0.75421374E+02</pdfrwt>
<pdfrwt beam="2">  1       -1 0.79472144E-02 0.75421374E+02</pdfrwt>
<totfact> 0.15604178E+05</totfact>
</mgrwt>
</event>
<event>
 8    1  0.7667702E-014  0.8136856E+02  0.7818608E-02  0.1325212E+00
         -1   -1    0    0    0  501 -0.00000000000E+00  0.00000000000E+00  0.22553275917E+02  0.22553276480E+02  0.50400000000E-02 0.  1.
          2   -1    0    0  501    0  0.00000000000E+00 -0.00000000000E+00 -0.73391131214E+02  0.73391131259E+02  0.25500000000E-02 0. -1.
         24    2    1    2    0    0 -0.88817841970E-15  0.71054273576E-14 -0.50837855298E+02  0.95944407739E+02  0.81368555628E+02 0.  0.
         66    2    3    3    0    0 -0.37567180605E+01 -0.40466170766E+02 -0.23951358266E+02  0.47215373336E+02  0.20000023645E+01 0.  0.
        -13    1    3    3    0    0  0.37567180605E+01  0.40466170766E+02 -0.26886497032E+02  0.48729034402E+02  0.10566000000E+00 0.  1.
         13    1    4    4    0    0 -0.15234216640E+00 -0.29102903477E+01 -0.20957158938E+01  0.35911261725E+01  0.10566000000E+00 0. -1.
        -13    1    4    4    0    0 -0.40291860829E-01 -0.20663615548E+00 -0.14351539708E+00  0.27583081699E+00  0.10566000000E+00 0. -1.
         14    1    4    4    0    0 -0.35640840333E+01 -0.37349244263E+02 -0.21712126975E+02  0.43348416347E+02  0.00000000000E+00 0. -1.
<mgrwt>
<rscale>  0 0.81368556E+02</rscale>
<asrwt>0</asrwt>
<pdfrwt beam="1">  1        2 0.11290943E-01 0.81368556E+02</pdfrwt>
<pdfrwt beam="2">  1       -1 0.34697348E-02 0.81368556E+02</pdfrwt>
<totfact> 0.15602991E+05</totfact>
</mgrwt>
</event>
<event>
 8    1  0.7667702E-014  0.7935266E+02  0.7818608E-02  0.1330899E+00
          2   -1    0    0  501    0  0.00000000000E+00  0.00000000000E+00  0.84588653265E+02  0.84588653303E+02  0.25500000000E-02 0. -1.
         -1   -1    0    0    0  501 -0.00000000000E+00 -0.00000000000E+00 -0.18610194861E+02  0.18610195544E+02  0.50400000000E-02 0.  1.
         24    2    1    2    0    0  0.00000000000E+00  0.00000000000E+00  0.65978458404E+02  0.10319884885E+03  0.79352664920E+02 0.  0.
         66    2    3    3    0    0  0.36606529578E+01 -0.97498257514E+01  0.82766227020E+02  0.83442841623E+02  0.20000001936E+01 0.  0.
        -13    1    3    3    0    0 -0.36606529578E+01  0.97498257514E+01 -0.16787768616E+02  0.19756007223E+02  0.10566000000E+00 0.  1.
         13    1    4    4    0    0  0.92629499945E+00 -0.35624200483E+01  0.33814611898E+02  0.34014526321E+02  0.10566000000E+00 0. -1.
        -13    1    4    4    0    0  0.53042779343E+00 -0.52697323141E+00  0.66662854690E+01  0.67089179769E+01  0.10566000000E+00 0. -1.
         14    1    4    4    0    0  0.22039301649E+01 -0.56604324717E+01  0.42285329653E+02  0.42719397325E+02  0.00000000000E+00 0. -1.
<mgrwt>
<rscale>  0 0.79352665E+02</rscale>
<asrwt>0</asrwt>
<pdfrwt beam="1">  1        2 0.13013639E-01 0.79352665E+02</pdfrwt>
<pdfrwt beam="2">  1       -1 0.28631070E-02 0.79352665E+02</pdfrwt>
<totfact> 0.17313473E+05</totfact>
</mgrwt>
</event>
<event>
 8    1  0.7667702E-014  0.7765388E+02  0.7818608E-02  0.1335844E+00
          2   -1    0    0  501    0  0.00000000000E+00  0.00000000000E+00  0.29146455800E+02  0.29146455911E+02  0.25500000000E-02 0. -1.
         -1   -1    0    0    0  501 -0.00000000000E+00 -0.00000000000E+00 -0.51722632557E+02  0.51722632802E+02  0.50400000000E-02 0.  1.
         24    2    1    2    0    0  0.00000000000E+00  0.00000000000E+00 -0.22576176757E+02  0.80869088714E+02  0.77653884336E+02 0.  0.
         66    2    3    3    0    0 -0.33630944961E+02  0.53230032607E+01  0.80799301280E+01  0.35052248185E+02  0.20000023092E+01 0.  0.
        -13    1    3    3    0    0  0.33630944961E+02 -0.53230032607E+01 -0.30656106885E+02  0.45816840529E+02  0.10566000000E+00 0.  1.
         13    1    4    4    0    0 -0.39803837005E+01  0.72974226988E+00  0.12838282377E+01  0.42468055245E+01  0.10566000000E+00 0. -1.
        -13    1    4    4    0    0 -0.43148527129E+00 -0.87584848063E-01  0.14640322708E+00  0.47586614237E+00  0.10566000000E+00 0. -1.
         14    1    4    4    0    0 -0.29219075989E+02  0.46808458389E+01  0.66496986632E+01  0.30329576518E+02  0.00000000000E+00 0. -1.
<mgrwt>
<rscale>  0 0.77653884E+02</rscale>
<asrwt>0</asrwt>
<pdfrwt beam="1">  1        2 0.44840701E-02 0.77653884E+02</pdfrwt>
<pdfrwt beam="2">  1       -1 0.79573282E-02 0.77653884E+02</pdfrwt>
<totfact> 0.14541624E+05</totfact>
</mgrwt>
</event>
<event>
 8    1  0.7667702E-014  0.7864947E+02  0.7818608E-02  0.1332928E+00
         -1   -1    0    0    0  501 -0.00000000000E+00  0.00000000000E+00  0.10071457810E+03  0.10071457823E+03  0.50400000000E-02 0.  1.
          2   -1    0    0  501    0  0.00000000000E+00 -0.00000000000E+00 -0.15354628047E+02  0.15354628259E+02  0.25500000000E-02 0. -1.
         24    2    1    2    0    0  0.35527136788E-14 -0.35527136788E-14  0.85359950058E+02  0.11606920649E+03  0.78649473115E+02 0.  0.
         66    2    3    3    0    0 -0.17538498755E+02  0.17645086378E+02  0.87603241190E+02  0.91089384011E+02  0.20000001542E+01 0.  0.
        -13    1    3    3    0    0  0.17538498755E+02 -0.17645086378E+02 -0.22432911326E+01  0.24979822478E+02  0.10566000000E+00 0.  1.
         13    1    4    4    0    0 -0.54392424383E+01  0.43358898625E+01  0.23657014524E+02  0.24658686085E+02  0.10566000000E+00 0. -1.
        -13    1    4    4    0    0 -0.34766820539E+00  0.40785765455E+00  0.18795029282E+01  0.19572726791E+01  0.10566000000E+00 0. -1.
         14    1    4    4    0    0 -0.11751588112E+02  0.12901338861E+02  0.62066723738E+02  0.64473425247E+02  0.00000000000E+00 0. -1.
<mgrwt>
<rscale>  0 0.78649473E+02</rscale>
<asrwt>0</asrwt>
<pdfrwt beam="1">  1        2 0.23622505E-02 0.78649473E+02</pdfrwt>
<pdfrwt beam="2">  1       -1 0.15494551E-01 0.78649473E+02</pdfrwt>
<totfact> 0.12348137E+05</totfact>
</mgrwt>
</event>
<event>
 8    1  0.7667702E-014  0.7604711E+02  0.7818608E-02  0.1340659E+00
          2   -1    0    0  501    0  0.00000000000E+00  0.00000000000E+00  0.42877355390E+03  0.42877355391E+03  0.25500000000E-02 0. -1.
         -1   -1    0    0    0  501 -0.00000000000E+00 -0.00000000000E+00 -0.33719192087E+01  0.33719229754E+01  0.50400000000E-02 0.  1.
         24    2    1    2    0    0  0.00000000000E+00  0.00000000000E+00  0.42540163469E+03  0.43214547688E+03  0.76047106404E+02 0.  0.
         66    2    3    3    0    0 -0.97560722973E+01 -0.89256832819E+01  0.41527399196E+03  0.41548927443E+03  0.20000006648E+01 0.  0.
        -13    1    3    3    0    0  0.97560722973E+01  0.89256832819E+01  0.10127642733E+02  0.16656202451E+02  0.10566000000E+00 0.  1.
         13    1    4    4    0    0 -0.41910372555E+01 -0.41464513272E+01  0.15657376921E+03  0.15668476065E+03  0.10566000000E+00 0. -1.
        -13    1    4    4    0    0 -0.40716268530E+01 -0.36905233393E+01  0.19088979667E+03  0.19096890779E+03  0.10566000000E+00 0. -1.
         14    1    4    4    0    0 -0.14934081888E+01 -0.10887086153E+01  0.67810426088E+02  0.67835605995E+02  0.00000000000E+00 0. -1.
<mgrwt>
<rscale>  0 0.76047106E+02</rscale>
<asrwt>0</asrwt>
<pdfrwt beam="1">  1        2 0.65965159E-01 0.76047106E+02</pdfrwt>
<pdfrwt beam="2">  1       -1 0.51875712E-03 0.76047106E+02</pdfrwt>
<totfact> 0.33022473E+05</totfact>
</mgrwt>
</event>
<event>
 8    1  0.7667702E-014  0.7944338E+02  0.7818608E-02  0.1330638E+00
          2   -1    0    0  501    0  0.00000000000E+00  0.00000000000E+00  0.81756670923E+02  0.81756670963E+02  0.25500000000E-02 0. -1.
         -1   -1    0    0    0  501 -0.00000000000E+00 -0.00000000000E+00 -0.19298886849E+02  0.19298887507E+02  0.50400000000E-02 0.  1.
         24    2    1    2    0    0  0.00000000000E+00 -0.35527136788E-14  0.62457784074E+02  0.10105555847E+03  0.79443383025E+02 0.  0.
         66    2    3    3    0    0 -0.16994057381E+02  0.26635940054E+02  0.61818402119E+02  0.69453481606E+02  0.19999944722E+01 0.  0.
        -13    1    3    3    0    0  0.16994057381E+02 -0.26635940054E+02  0.63938195508E+00  0.31602076864E+02  0.10566000000E+00 0.  1.
         13    1    4    4    0    0 -0.82775041407E+01  0.14232790962E+02  0.33016404282E+02  0.36894220809E+02  0.10566000000E+00 0. -1.
        -13    1    4    4    0    0 -0.54864065959E+01  0.71999540007E+01  0.17658470300E+02  0.19843707626E+02  0.10566000000E+00 0.  1.
         14    1    4    4    0    0 -0.32301466443E+01  0.52031950912E+01  0.11143527537E+02  0.12715553172E+02  0.00000000000E+00 0. -1.
<mgrwt>
<rscale>  0 0.79443383E+02</rscale>
<asrwt>0</asrwt>
<pdfrwt beam="1">  1        2 0.12577949E-01 0.79443383E+02</pdfrwt>
<pdfrwt beam="2">  1       -1 0.29690596E-02 0.79443383E+02</pdfrwt>
<totfact> 0.17108127E+05</totfact>
</mgrwt>
</event>
<event>
 8    1  0.7667702E-014  0.8043127E+02  0.7818608E-02  0.1327832E+00
          2   -1    0    0  501    0  0.00000000000E+00  0.00000000000E+00  0.13068310063E+04  0.13068310063E+04  0.25500000000E-02 0. -1.
         -1   -1    0    0    0  501 -0.00000000000E+00 -0.00000000000E+00 -0.12375667100E+01  0.12375769727E+01  0.50400000000E-02 0.  1.
         24    2    1    2    0    0  0.00000000000E+00 -0.35527136788E-14  0.13055934396E+04  0.13080685832E+04  0.80431269112E+02 0.  0.
         66    2    3    3    0    0  0.98773484132E+00 -0.20795747565E+02  0.12122965692E+04  0.12124769731E+04  0.19999992142E+01 0.  0.
        -13    1    3    3    0    0 -0.98773484132E+00  0.20795747565E+02  0.93296870359E+02  0.95591610091E+02  0.10566000000E+00 0.  1.
         13    1    4    4    0    0  0.11212748246E+01 -0.15970187492E+02  0.93712154867E+03  0.93725829540E+03  0.10566000000E+00 0. -1.
        -13    1    4    4    0    0 -0.25520169474E+00 -0.47508249425E+01  0.26665551173E+03  0.26669797255E+03  0.10566000000E+00 0.  1.
        -14    1    4    4    0    0  0.12166171151E+00 -0.74735130367E-01  0.85195087950E+01  0.85207051950E+01  0.00000000000E+00 0.  1.
<mgrwt>
<rscale>  0 0.80431269E+02</rscale>
<asrwt>0</asrwt>
<pdfrwt beam="1">  1        2 0.20105074E+00 0.80431269E+02</pdfrwt>
<pdfrwt beam="2">  1       -1 0.19039584E-03 0.80431269E+02</pdfrwt>
<totfact> 0.34101669E+05</totfact>
</mgrwt>
</event>
<event>
 8    1  0.7667702E-014  0.7891623E+02  0.7818608E-02  0.1332155E+00
          2   -1    0    0  501    0  0.00000000000E+00  0.00000000000E+00  0.19188852678E+02  0.19188852848E+02  0.25500000000E-02 0. -1.
         -1   -1    0    0    0  501 -0.00000000000E+00 -0.00000000000E+00 -0.81137883485E+02  0.81137883641E+02  0.50400000000E-02 0.  1.
         24    2    1    2    0    0  0.71054273576E-14  0.44408920985E-15 -0.61949030806E+02  0.10032673649E+03  0.78916231770E+02 0.  0.
         66    2    3    3    0    0  0.29822311303E+02  0.30642087282E+01  0.15714109818E+01  0.30087023252E+02  0.20000022788E+01 0.  0.
        -13    1    3    3    0    0 -0.29822311303E+02 -0.30642087282E+01 -0.63520441788E+02  0.70239713237E+02  0.10566000000E+00 0.  1.
         13    1    4    4    0    0  0.27517751808E+01  0.52970812192E+00 -0.20192336688E+00  0.28115466246E+01  0.10566000000E+00 0. -1.
        -13    1    4    4    0    0  0.12666914048E+01  0.33558380116E+00  0.20641118939E+00  0.13307491188E+01  0.10566000000E+00 0.  1.
         14    1    4    4    0    0  0.25803844718E+02  0.21989168051E+01  0.15669231593E+01  0.25944727509E+02  0.00000000000E+00 0. -1.
<mgrwt>
<rscale>  0 0.78916232E+02</rscale>
<asrwt>0</asrwt>
<pdfrwt beam="1">  1        2 0.29521312E-02 0.78916232E+02</pdfrwt>
<pdfrwt beam="2">  1       -1 0.12482751E-01 0.78916232E+02</pdfrwt>
<totfact> 0.12804394E+05</totfact>
</mgrwt>
</event>
<event>
 8    1  0.7667702E-014  0.8042549E+02  0.7818608E-02  0.1327848E+00
         -1   -1    0    0    0  501 -0.00000000000E+00  0.00000000000E+00  0.27989798612E+01  0.27989843989E+01  0.50400000000E-02 0.  1.
          2   -1    0    0  501    0  0.00000000000E+00 -0.00000000000E+00 -0.57773324751E+03  0.57773324751E+03  0.25500000000E-02 0. -1.
         24    2    1    2    0    0  0.35527136788E-14  0.35527136788E-14 -0.57493426765E+03  0.58053223191E+03  0.80425494557E+02 0.  0.
         66    2    3    3    0    0 -0.15222843659E+02 -0.23343337479E+02 -0.49665186557E+03  0.49743715377E+03  0.19999989674E+01 0.  0.
        -13    1    3    3    0    0  0.15222843659E+02  0.23343337479E+02 -0.78282402073E+02  0.83095078145E+02  0.10566000000E+00 0.  1.
         13    1    4    4    0    0 -0.15952304763E+01 -0.20596637635E+01 -0.44735797035E+02  0.44811713597E+02  0.10566000000E+00 0. -1.
        -13    1    4    4    0    0 -0.11546617112E+02 -0.18073771004E+02 -0.37180091435E+03  0.37241900682E+03  0.10566000000E+00 0.  1.
         14    1    4    4    0    0 -0.20809960701E+01 -0.32099027111E+01 -0.80115154192E+02  0.80206433353E+02  0.00000000000E+00 0. -1.
<mgrwt>
<rscale>  0 0.80425495E+02</rscale>
<asrwt>0</asrwt>
<pdfrwt beam="1">  1        2 0.88881943E-01 0.80425495E+02</pdfrwt>
<pdfrwt beam="2">  1       -1 0.43061310E-03 0.80425495E+02</pdfrwt>
<totfact> 0.31384197E+05</totfact>
</mgrwt>
</event>
<event>
 8    1  0.7667702E-014  0.7991644E+02  0.7818608E-02  0.1329289E+00
         -1   -1    0    0    0  501 -0.00000000000E+00  0.00000000000E+00  0.24773676099E+01  0.24773727367E+01  0.50400000000E-02 0.  1.
          2   -1    0    0  501    0  0.00000000000E+00 -0.00000000000E+00 -0.64449764310E+03  0.64449764310E+03  0.25500000000E-02 0. -1.
         24    2    1    2    0    0  0.35527136788E-14 -0.88817841970E-15 -0.64202027549E+03  0.64697501584E+03  0.79916437502E+02 0.  0.
         66    2    3    3    0    0  0.18676552479E+02  0.73095617255E+01 -0.60076376959E+03  0.60110178020E+03  0.20000005811E+01 0.  0.
        -13    1    3    3    0    0 -0.18676552479E+02 -0.73095617255E+01 -0.41256505897E+02  0.45873235639E+02  0.10566000000E+00 0.  1.
         13    1    4    4    0    0  0.60925376601E+01  0.28952550860E+01 -0.18967394434E+03  0.18979388252E+03  0.10566000000E+00 0. -1.
        -13    1    4    4    0    0  0.60158837246E+01  0.26358050259E+01 -0.21270093889E+03  0.21280234702E+03  0.10566000000E+00 0.  1.
         14    1    4    4    0    0  0.65681310941E+01  0.17785016137E+01 -0.19838888636E+03  0.19850555066E+03  0.00000000000E+00 0. -1.
<mgrwt>
<rscale>  0 0.79916438E+02</rscale>
<asrwt>0</asrwt>
<pdfrwt beam="1">  1        2 0.99153350E-01 0.79916438E+02</pdfrwt>
<pdfrwt beam="2">  1       -1 0.38113439E-03 0.79916438E+02</pdfrwt>
<totfact> 0.32875204E+05</totfact>
</mgrwt>
</event>
<event>
 8    1  0.7667702E-014  0.9010375E+02  0.7818608E-02  0.1302601E+00
         -1   -1    0    0    0  501 -0.00000000000E+00  0.00000000000E+00  0.13605163169E+03  0.13605163179E+03  0.50400000000E-02 0.  1.
          2   -1    0    0  501    0  0.00000000000E+00 -0.00000000000E+00 -0.14918391115E+02  0.14918391333E+02  0.25500000000E-02 0. -1.
         24    2    1    2    0    0  0.00000000000E+00  0.00000000000E+00  0.12113324058E+03  0.15097002312E+03  0.90103750797E+02 0.  0.
         66    2    3    3    0    0 -0.17511470602E+02  0.14541479826E+02 -0.45024342855E+01  0.23289013566E+02  0.20000000555E+01 0.  0.
        -13    1    3    3    0    0  0.17511470602E+02 -0.14541479826E+02  0.12563567486E+03  0.12768100955E+03  0.10566000000E+00 0.  1.
         13    1    4    4    0    0 -0.58313984246E+01  0.51505952080E+01 -0.14424501849E+01  0.79136379216E+01  0.10566000000E+00 0. -1.
        -13    1    4    4    0    0 -0.56255646595E+01  0.50309251473E+01 -0.22188592576E+01  0.78671269226E+01  0.10566000000E+00 0.  1.
        -14    1    4    4    0    0 -0.60545075181E+01  0.43599594702E+01 -0.84112484296E+00  0.75082487219E+01  0.00000000000E+00 0.  1.
<mgrwt>
<rscale>  0 0.90103751E+02</rscale>
<asrwt>0</asrwt>
<pdfrwt beam="1">  1        2 0.22951370E-02 0.90103751E+02</pdfrwt>
<pdfrwt beam="2">  1       -1 0.20931021E-01 0.90103751E+02</pdfrwt>
<totfact> 0.81883507E+04</totfact>
</mgrwt>
</event>
<event>
 8    1  0.7667702E-014  0.8161488E+02  0.7818608E-02  0.1324530E+00
         -1   -1    0    0    0  501 -0.00000000000E+00  0.00000000000E+00  0.40122636267E+02  0.40122636584E+02  0.50400000000E-02 0.  1.
          2   -1    0    0  501    0  0.00000000000E+00 -0.00000000000E+00 -0.41503934664E+02  0.41503934743E+02  0.25500000000E-02 0. -1.
         24    2    1    2    0    0  0.44408920985E-15  0.71054273576E-14 -0.13812983969E+01  0.81626571327E+02  0.81614883209E+02 0.  0.
         66    2    3    3    0    0 -0.23436008454E+01 -0.38869380083E+02 -0.12813901446E+02  0.41042870787E+02  0.19999998087E+01 0.  0.
        -13    1    3    3    0    0  0.23436008454E+01  0.38869380083E+02  0.11432603049E+02  0.40583700539E+02  0.10566000000E+00 0.  1.
         13    1    4    4    0    0 -0.48095900386E+00 -0.90850470589E+01 -0.28326204116E+01  0.95291292392E+01  0.10566000000E+00 0.  1.
        -13    1    4    4    0    0 -0.11637463004E+01 -0.83616777312E+01 -0.23835389286E+01  0.87729346169E+01  0.10566000000E+00 0.  1.
         14    1    4    4    0    0 -0.69889554111E+00 -0.21422655293E+02 -0.75977421058E+01  0.22740806931E+02  0.00000000000E+00 0. -1.
<mgrwt>
<rscale>  0 0.81614883E+02</rscale>
<asrwt>0</asrwt>
<pdfrwt beam="1">  1        2 0.63852207E-02 0.81614883E+02</pdfrwt>
<pdfrwt beam="2">  1       -1 0.61727133E-02 0.81614883E+02</pdfrwt>
<totfact> 0.13592211E+05</totfact>
</mgrwt>
</event>
<event>
 8    1  0.7667702E-014  0.7950336E+02  0.7818608E-02  0.1330467E+00
          2   -1    0    0  501    0  0.00000000000E+00  0.00000000000E+00  0.45067661409E+03  0.45067661410E+03  0.25500000000E-02 0. -1.
         -1   -1    0    0    0  501 -0.00000000000E+00 -0.00000000000E+00 -0.35062732699E+01  0.35062768922E+01  0.50400000000E-02 0.  1.
         24    2    1    2    0    0 -0.35527136788E-14  0.00000000000E+00  0.44717034082E+03  0.45418289099E+03  0.79503363189E+02 0.  0.
         66    2    3    3    0    0 -0.22520365973E+02  0.22484663001E+02  0.35957258152E+03  0.36098361228E+03  0.19999996756E+01 0.  0.
        -13    1    3    3    0    0  0.22520365973E+02 -0.22484663001E+02  0.87597759297E+02  0.93199278708E+02  0.10566000000E+00 0.  1.
         13    1    4    4    0    0 -0.21960630336E+01  0.25773171499E+01  0.44241561171E+02  0.44371073408E+02  0.10566000000E+00 0. -1.
        -13    1    4    4    0    0 -0.80440406888E+01  0.81822536069E+01  0.12447346244E+03  0.12500123952E+03  0.10566000000E+00 0.  1.
         14    1    4    4    0    0 -0.12280262250E+02  0.11725092244E+02  0.19085755791E+03  0.19161129935E+03  0.00000000000E+00 0. -1.
<mgrwt>
<rscale>  0 0.79503363E+02</rscale>
<asrwt>0</asrwt>
<pdfrwt beam="1">  1        2 0.69334906E-01 0.79503363E+02</pdfrwt>
<pdfrwt beam="2">  1       -1 0.53942661E-03 0.79503363E+02</pdfrwt>
<totfact> 0.29915275E+05</totfact>
</mgrwt>
</event>
<event>
 8    1  0.7667702E-014  0.7908007E+02  0.7818608E-02  0.1331683E+00
         -1   -1    0    0    0  501 -0.00000000000E+00  0.00000000000E+00  0.12096640610E+02  0.12096641660E+02  0.50400000000E-02 0.  1.
          2   -1    0    0  501    0  0.00000000000E+00 -0.00000000000E+00 -0.12924369008E+03  0.12924369010E+03  0.25500000000E-02 0. -1.
         24    2    1    2    0    0 -0.35527136788E-14  0.00000000000E+00 -0.11714704947E+03  0.14134033176E+03  0.79080074506E+02 0.  0.
         66    2    3    3    0    0 -0.31661939807E+02  0.95290475313E+01 -0.97281541423E+02  0.10276662630E+03  0.20000000963E+01 0.  0.
        -13    1    3    3    0    0  0.31661939807E+02 -0.95290475313E+01 -0.19865508045E+02  0.38573705463E+02  0.10566000000E+00 0.  1.
         13    1    4    4    0    0 -0.88098036207E+01  0.20131267116E+01 -0.25544280494E+02  0.27095880665E+02  0.10566000000E+00 0. -1.
        -13    1    4    4    0    0 -0.97365049635E+01  0.37453778420E+01 -0.31221180789E+02  0.32918090436E+02  0.10566000000E+00 0.  1.
        -14    1    4    4    0    0 -0.13115631223E+02  0.37705429776E+01 -0.40516080140E+02  0.42752655199E+02  0.00000000000E+00 0.  1.
<mgrwt>
<rscale>  0 0.79080075E+02</rscale>
<asrwt>0</asrwt>
<pdfrwt beam="1">  1        2 0.19883644E-01 0.79080075E+02</pdfrwt>
<pdfrwt beam="2">  1       -1 0.18610218E-02 0.79080075E+02</pdfrwt>
<totfact> 0.19709360E+05</totfact>
</mgrwt>
</event>
<event>
 8    1  0.7667702E-014  0.7767801E+02  0.7818608E-02  0.1335773E+00
          2   -1    0    0  501    0  0.00000000000E+00  0.00000000000E+00  0.82184258500E+02  0.82184258539E+02  0.25500000000E-02 0. -1.
         -1   -1    0    0    0  501 -0.00000000000E+00 -0.00000000000E+00 -0.18354711470E+02  0.18354712162E+02  0.50400000000E-02 0.  1.
         24    2    1    2    0    0  0.17763568394E-14  0.00000000000E+00  0.63829547029E+02  0.10053897070E+03  0.77678012048E+02 0.  0.
         66    2    3    3    0    0  0.14962993583E+02  0.80881603070E+01  0.77091208826E+02  0.78970652460E+02  0.19999894219E+01 0.  0.
        -13    1    3    3    0    0 -0.14962993583E+02 -0.80881603070E+01 -0.13261661796E+02  0.21568318241E+02  0.10566000000E+00 0.  1.
         13    1    4    4    0    0  0.32360664125E+01  0.25422069461E+01  0.20210869583E+02  0.20625841930E+02  0.10566000000E+00 0. -1.
        -13    1    4    4    0    0  0.32732811332E+01  0.12297428413E+01  0.15427053730E+02  0.15818716372E+02  0.10566000000E+00 0.  1.
         14    1    4    4    0    0  0.84536460371E+01  0.43162105196E+01  0.41453285513E+02  0.42526094158E+02  0.00000000000E+00 0. -1.
<mgrwt>
<rscale>  0 0.77678012E+02</rscale>
<asrwt>0</asrwt>
<pdfrwt beam="1">  1        2 0.12643732E-01 0.77678012E+02</pdfrwt>
<pdfrwt beam="2">  1       -1 0.28238019E-02 0.77678012E+02</pdfrwt>
<totfact> 0.18197681E+05</totfact>
</mgrwt>
</event>
<event>
 8    1  0.7667702E-014  0.7962512E+02  0.7818608E-02  0.1330119E+00
         -1   -1    0    0    0  501 -0.00000000000E+00  0.00000000000E+00  0.12133190967E+03  0.12133190977E+03  0.50400000000E-02 0.  1.
          2   -1    0    0  501    0  0.00000000000E+00 -0.00000000000E+00 -0.13063668411E+02  0.13063668659E+02  0.25500000000E-02 0. -1.
         24    2    1    2    0    0  0.00000000000E+00  0.00000000000E+00  0.10826824126E+03  0.13439557843E+03  0.79625118130E+02 0.  0.
         66    2    3    3    0    0  0.27056145518E+02  0.24158813578E+02  0.26570261809E+02  0.45007356089E+02  0.20000014137E+01 0.  0.
        -13    1    3    3    0    0 -0.27056145518E+02 -0.24158813578E+02  0.81697979449E+02  0.89388222344E+02  0.10566000000E+00 0.  1.
         13    1    4    4    0    0  0.63014023309E+00  0.46914535118E+00  0.55651429793E+00  0.96852788979E+00  0.10566000000E+00 0. -1.
        -13    1    4    4    0    0  0.69361537498E+01  0.62466477252E+01  0.58927557896E+01  0.11039319339E+02  0.10566000000E+00 0.  1.
         14    1    4    4    0    0  0.19489851535E+02  0.17443020502E+02  0.20120991722E+02  0.32999508859E+02  0.00000000000E+00 0. -1.
<mgrwt>
<rscale>  0 0.79625118E+02</rscale>
<asrwt>0</asrwt>
<pdfrwt beam="1">  1        2 0.20097951E-02 0.79625118E+02</pdfrwt>
<pdfrwt beam="2">  1       -1 0.18666448E-01 0.79625118E+02</pdfrwt>
<totfact> 0.11490373E+05</totfact>
</mgrwt>
</event>
<event>
 8    1  0.7667702E-014  0.7149046E+02  0.7818608E-02  0.1355097E+00
          2   -1    0    0  501    0  0.00000000000E+00  0.00000000000E+00  0.21571535922E+01  0.21571550994E+01  0.25500000000E-02 0. -1.
         -1   -1    0    0    0  501 -0.00000000000E+00 -0.00000000000E+00 -0.59231800324E+03  0.59231800326E+03  0.50400000000E-02 0.  1.
         24    2    1    2    0    0  0.00000000000E+00  0.00000000000E+00 -0.59016084965E+03  0.59447515836E+03  0.71490457063E+02 0.  0.
         66    2    3    3    0    0  0.31655924383E+02 -0.11333596137E+02 -0.39550017368E+03  0.39693190263E+03  0.19999999253E+01 0.  0.
        -13    1    3    3    0    0 -0.31655924383E+02  0.11333596137E+02 -0.19466067597E+03  0.19754325573E+03  0.10566000000E+00 0.  1.
         13    1    4    4    0    0  0.28560185686E+01 -0.11021287039E+01 -0.35215969962E+02  0.35348935403E+02  0.10566000000E+00 0. -1.
        -13    1    4    4    0    0  0.28285274791E+02 -0.97621415245E+01 -0.35208824953E+03  0.35335747169E+03  0.10566000000E+00 0.  1.
        -14    1    4    4    0    0  0.51463102380E+00 -0.46932590828E+00 -0.81959541832E+01  0.82254955396E+01  0.00000000000E+00 0.  1.
<mgrwt>
<rscale>  0 0.71490457E+02</rscale>
<asrwt>0</asrwt>
<pdfrwt beam="1">  1        2 0.33187037E-03 0.71490457E+02</pdfrwt>
<pdfrwt beam="2">  1       -1 0.91125717E-01 0.71490457E+02</pdfrwt>
<totfact> 0.79546160E+04</totfact>
</mgrwt>
</event>
<event>
 8    1  0.7667702E-014  0.7831289E+02  0.7818608E-02  0.1333909E+00
          2   -1    0    0  501    0  0.00000000000E+00  0.00000000000E+00  0.26050198727E+03  0.26050198729E+03  0.25500000000E-02 0. -1.
         -1   -1    0    0    0  501 -0.00000000000E+00 -0.00000000000E+00 -0.58856631445E+01  0.58856653024E+01  0.50400000000E-02 0.  1.
         24    2    1    2    0    0 -0.69388939039E-17  0.00000000000E+00  0.25461632413E+03  0.26638765259E+03  0.78312891267E+02 0.  0.
         66    2    3    3    0    0  0.59042751943E-01 -0.24696533877E+02  0.23063889834E+03  0.23196599686E+03  0.20000000620E+01 0.  0.
        -13    1    3    3    0    0 -0.59042751943E-01  0.24696533877E+02  0.23977425788E+02  0.34421655728E+02  0.10566000000E+00 0.  1.
         13    1    4    4    0    0 -0.11490642848E+00 -0.15390663140E+02  0.14988299984E+03  0.15067120003E+03  0.10566000000E+00 0. -1.
        -13    1    4    4    0    0 -0.23597743313E+00 -0.51259217523E+01  0.46496847931E+02  0.46779255987E+02  0.10566000000E+00 0.  1.
         14    1    4    4    0    0  0.40992661355E+00 -0.41799489844E+01  0.34259050573E+02  0.34515540841E+02  0.00000000000E+00 0. -1.
<mgrwt>
<rscale>  0 0.78312891E+02</rscale>
<asrwt>0</asrwt>
<pdfrwt beam="1">  1        2 0.40077226E-01 0.78312891E+02</pdfrwt>
<pdfrwt beam="2">  1       -1 0.90548687E-03 0.78312891E+02</pdfrwt>
<totfact> 0.25617725E+05</totfact>
</mgrwt>
</event>
<event>
 8    1  0.7667702E-014  0.7709186E+02  0.7818608E-02  0.1337513E+00
         -1   -1    0    0    0  501 -0.00000000000E+00  0.00000000000E+00  0.10370379315E+03  0.10370379327E+03  0.50400000000E-02 0.  1.
          2   -1    0    0  501    0  0.00000000000E+00 -0.00000000000E+00 -0.14327234330E+02  0.14327234556E+02  0.25500000000E-02 0. -1.
         24    2    1    2    0    0  0.35527136788E-14  0.00000000000E+00  0.89376558822E+02  0.11803102783E+03  0.77091856015E+02 0.  0.
         66    2    3    3    0    0 -0.27024991417E+02  0.40555406437E+01  0.31542732193E+01  0.27581642705E+02  0.20000009361E+01 0.  0.
        -13    1    3    3    0    0  0.27024991417E+02 -0.40555406437E+01  0.86222285603E+02  0.90449385126E+02  0.10566000000E+00 0.  1.
         13    1    4    4    0    0 -0.56141488755E+01  0.24407330457E+00  0.72064373631E+00  0.56664566357E+01  0.10566000000E+00 0.  1.
        -13    1    4    4    0    0 -0.71939480150E+01  0.10389030210E+01  0.31328400065E+00  0.72760922500E+01  0.10566000000E+00 0. -1.
        -14    1    4    4    0    0 -0.14216894527E+02  0.27725643182E+01  0.21203454823E+01  0.14639093819E+02  0.00000000000E+00 0.  1.
<mgrwt>
<rscale>  0 0.77091856E+02</rscale>
<asrwt>0</asrwt>
<pdfrwt beam="1">  1        2 0.22041899E-02 0.77091856E+02</pdfrwt>
<pdfrwt beam="2">  1       -1 0.15954430E-01 0.77091856E+02</pdfrwt>
<totfact> 0.12899363E+05</totfact>
</mgrwt>
</event>
<event>
 8    1  0.7667702E-014  0.7952507E+02  0.7818608E-02  0.1330405E+00
          2   -1    0    0  501    0  0.00000000000E+00  0.00000000000E+00  0.59413234845E+02  0.59413234899E+02  0.25500000000E-02 0. -1.
         -1   -1    0    0    0  501 -0.00000000000E+00 -0.00000000000E+00 -0.26611225389E+02  0.26611225866E+02  0.50400000000E-02 0.  1.
         24    2    1    2    0    0 -0.35527136788E-14  0.00000000000E+00  0.32802009456E+02  0.86024460765E+02  0.79525065392E+02 0.  0.
         66    2    3    3    0    0 -0.21602805119E+02  0.89801365118E+01  0.51157040499E+02  0.56288247667E+02  0.19999980062E+01 0.  0.
        -13    1    3    3    0    0  0.21602805119E+02 -0.89801365118E+01 -0.18355031043E+02  0.29736213098E+02  0.10566000000E+00 0.  1.
         13    1    4    4    0    0 -0.14705315155E+02  0.55160544106E+01  0.33584278017E+02  0.37075437206E+02  0.10566000000E+00 0. -1.
        -13    1    4    4    0    0 -0.16138622897E+01  0.88927005705E+00  0.51234830166E+01  0.54457869019E+01  0.10566000000E+00 0.  1.
         14    1    4    4    0    0 -0.52836276741E+01  0.25748120442E+01  0.12449279465E+02  0.13767023559E+02  0.00000000000E+00 0. -1.
<mgrwt>
<rscale>  0 0.79525065E+02</rscale>
<asrwt>0</asrwt>
<pdfrwt beam="1">  1        2 0.91404977E-02 0.79525065E+02</pdfrwt>
<pdfrwt beam="2">  1       -1 0.40940347E-02 0.79525065E+02</pdfrwt>
<totfact> 0.15784598E+05</totfact>
</mgrwt>
</event>
<event>
 8    1  0.7667702E-014  0.7934236E+02  0.7818608E-02  0.1330928E+00
          2   -1    0    0  501    0  0.00000000000E+00  0.00000000000E+00  0.20015586778E+03  0.20015586780E+03  0.25500000000E-02 0. -1.
         -1   -1    0    0    0  501 -0.00000000000E+00 -0.00000000000E+00 -0.78628846837E+01  0.78628862990E+01  0.50400000000E-02 0.  1.
         24    2    1    2    0    0 -0.35527136788E-14  0.00000000000E+00  0.19229298310E+03  0.20801875410E+03  0.79342363888E+02 0.  0.
         66    2    3    3    0    0  0.31539305841E+02  0.47261646572E+01  0.34457056876E+02  0.46993118822E+02  0.20000006927E+01 0.  0.
        -13    1    3    3    0    0 -0.31539305841E+02 -0.47261646572E+01  0.15783592622E+03  0.16102563528E+03  0.10566000000E+00 0.  1.
         13    1    4    4    0    0  0.23254831953E+02  0.38648404522E+01  0.24481443632E+02  0.33986415628E+02  0.10566000000E+00 0. -1.
        -13    1    4    4    0    0  0.41529346812E+01  0.57783097628E+00  0.53504561454E+01  0.67984777784E+01  0.10566000000E+00 0.  1.
         14    1    4    4    0    0  0.41315392072E+01  0.28349322863E+00  0.46251570987E+01  0.62082254163E+01  0.00000000000E+00 0. -1.
<mgrwt>
<rscale>  0 0.79342364E+02</rscale>
<asrwt>0</asrwt>
<pdfrwt beam="1">  1        2 0.30793211E-01 0.79342364E+02</pdfrwt>
<pdfrwt beam="2">  1       -1 0.12096747E-02 0.79342364E+02</pdfrwt>
<totfact> 0.22550165E+05</totfact>
</mgrwt>
</event>
<event>
 8    1  0.7667702E-014  0.7656409E+02  0.7818608E-02  0.1339095E+00
          2   -1    0    0  501    0  0.00000000000E+00  0.00000000000E+00  0.89239093080E+02  0.89239093117E+02  0.25500000000E-02 0. -1.
         -1   -1    0    0    0  501 -0.00000000000E+00 -0.00000000000E+00 -0.16422340871E+02  0.16422341645E+02  0.50400000000E-02 0.  1.
         24    2    1    2    0    0 -0.17763568394E-14  0.35527136788E-14  0.72816752209E+02  0.10566143476E+03  0.76564086840E+02 0.  0.
         66    2    3    3    0    0  0.15695453167E+02 -0.18592155586E+02  0.77173402127E+02  0.80942877724E+02  0.19999897655E+01 0.  0.
        -13    1    3    3    0    0 -0.15695453167E+02  0.18592155586E+02 -0.43566499173E+01  0.24718557037E+02  0.10566000000E+00 0.  1.
         13    1    4    4    0    0  0.80966570850E+01 -0.10200405305E+02  0.41919801475E+02  0.43896298752E+02  0.10566000000E+00 0. -1.
        -13    1    4    4    0    0  0.32648271860E+00 -0.75813333752E+00  0.21954402043E+01  0.23478668722E+01  0.10566000000E+00 0.  1.
         14    1    4    4    0    0  0.72723133635E+01 -0.76336169434E+01  0.33058160447E+02  0.34698712101E+02  0.00000000000E+00 0. -1.
<mgrwt>
<rscale>  0 0.76564087E+02</rscale>
<asrwt>0</asrwt>
<pdfrwt beam="1">  1        2 0.13729091E-01 0.76564087E+02</pdfrwt>
<pdfrwt beam="2">  1       -1 0.25265140E-02 0.76564087E+02</pdfrwt>
<totfact> 0.19326472E+05</totfact>
</mgrwt>
</event>
<event>
 8    1  0.7667702E-014  0.7219808E+02  0.7818608E-02  0.1352774E+00
          2   -1    0    0  501    0  0.00000000000E+00  0.00000000000E+00  0.43155696035E+03  0.43155696035E+03  0.25500000000E-02 0. -1.
         -1   -1    0    0    0  501 -0.00000000000E+00 -0.00000000000E+00 -0.30196239562E+01  0.30196281623E+01  0.50400000000E-02 0.  1.
         24    2    1    2    0    0  0.00000000000E+00 -0.71054273576E-14  0.42853733639E+03  0.43457658852E+03  0.72198078964E+02 0.  0.
         66    2    3    3    0    0 -0.87400292467E+01 -0.32170503051E+02  0.29735967668E+03  0.29922918755E+03  0.19999968922E+01 0.  0.
        -13    1    3    3    0    0  0.87400292467E+01  0.32170503051E+02  0.13117765971E+03  0.13534740097E+03  0.10566000000E+00 0.  1.
         13    1    4    4    0    0 -0.40971017619E+01 -0.12750961299E+02  0.11896220220E+03  0.11971378355E+03  0.10566000000E+00 0. -1.
        -13    1    4    4    0    0 -0.43847805643E+01 -0.17977582130E+02  0.16776805749E+03  0.16878552082E+03  0.10566000000E+00 0.  1.
        -14    1    4    4    0    0 -0.25814692055E+00 -0.14419596224E+01  0.10629416991E+02  0.10729883175E+02  0.00000000000E+00 0.  1.
<mgrwt>
<rscale>  0 0.72198079E+02</rscale>
<asrwt>0</asrwt>
<pdfrwt beam="1">  1        2 0.66393403E-01 0.72198079E+02</pdfrwt>
<pdfrwt beam="2">  1       -1 0.46455769E-03 0.72198079E+02</pdfrwt>
<totfact> 0.37857021E+05</totfact>
</mgrwt>
</event>
<event>
 8    1  0.7667702E-014  0.8249986E+02  0.7818608E-02  0.1322103E+00
          2   -1    0    0  501    0  0.00000000000E+00  0.00000000000E+00  0.17356790956E+02  0.17356791143E+02  0.25500000000E-02 0. -1.
         -1   -1    0    0    0  501 -0.00000000000E+00 -0.00000000000E+00 -0.98034059706E+02  0.98034059836E+02  0.50400000000E-02 0.  1.
         24    2    1    2    0    0  0.00000000000E+00  0.00000000000E+00 -0.80677268751E+02  0.11539085098E+03  0.82499859373E+02 0.  0.
         66    2    3    3    0    0  0.24982849198E+02 -0.21773508993E+02 -0.74660541329E+02  0.81709392863E+02  0.20000006695E+01 0.  0.
        -13    1    3    3    0    0 -0.24982849198E+02  0.21773508993E+02 -0.60167274219E+01  0.33681458116E+02  0.10566000000E+00 0.  1.
         13    1    4    4    0    0  0.53952627486E+01 -0.44301240434E+01 -0.15138472081E+02  0.16670913597E+02  0.10566000000E+00 0. -1.
        -13    1    4    4    0    0  0.97293212825E+01 -0.94978687539E+01 -0.29725662778E+02  0.32687847820E+02  0.10566000000E+00 0.  1.
        -14    1    4    4    0    0  0.98582651666E+01 -0.78455161957E+01 -0.29796406470E+02  0.32350631446E+02  0.00000000000E+00 0.  1.
<mgrwt>
<rscale>  0 0.82499859E+02</rscale>
<asrwt>0</asrwt>
<pdfrwt beam="1">  1        2 0.26702756E-02 0.82499859E+02</pdfrwt>
<pdfrwt beam="2">  1       -1 0.15082163E-01 0.82499859E+02</pdfrwt>
<totfact> 0.11025389E+05</totfact>
</mgrwt>
</event>
<event>
 8    1  0.7667702E-014  0.7233968E+02  0.7818608E-02  0.1352313E+00
          2   -1    0    0  501    0  0.00000000000E+00  0.00000000000E+00  0.81025808840E+03  0.81025808840E+03  0.25500000000E-02 0. -1.
         -1   -1    0    0    0  501 -0.00000000000E+00 -0.00000000000E+00 -0.16146141732E+01  0.16146220394E+01  0.50400000000E-02 0.  1.
         24    2    1    2    0    0  0.35527136788E-14 -0.17763568394E-14  0.80864347423E+03  0.81187271044E+03  0.72339681732E+02 0.  0.
         66    2    3    3    0    0  0.21618681129E+02 -0.13973697581E+02  0.68935547953E+03  0.68983882809E+03  0.19999983975E+01 0.  0.
        -13    1    3    3    0    0 -0.21618681129E+02  0.13973697581E+02  0.11928799470E+03  0.12203388235E+03  0.10566000000E+00 0.  1.
         13    1    4    4    0    0  0.18894660495E+02 -0.11927920920E+02  0.60995138496E+03  0.61036053827E+03  0.10566000000E+00 0. -1.
        -13    1    4    4    0    0  0.20046997230E+01 -0.17155382188E+01  0.60172303229E+02  0.60230217767E+02  0.10566000000E+00 0.  1.
         14    1    4    4    0    0  0.71932091124E+00 -0.33023844256E+00  0.19231791334E+02  0.19248072057E+02  0.00000000000E+00 0. -1.
<mgrwt>
<rscale>  0 0.72339682E+02</rscale>
<asrwt>0</asrwt>
<pdfrwt beam="1">  1        2 0.12465501E+00 0.72339682E+02</pdfrwt>
<pdfrwt beam="2">  1       -1 0.24840295E-03 0.72339682E+02</pdfrwt>
<totfact> 0.44670373E+05</totfact>
</mgrwt>
</event>
<event>
 8    1  0.7667702E-014  0.7992238E+02  0.7818608E-02  0.1329272E+00
          2   -1    0    0  501    0  0.00000000000E+00  0.00000000000E+00  0.62923121576E+03  0.62923121577E+03  0.25500000000E-02 0. -1.
         -1   -1    0    0    0  501 -0.00000000000E+00 -0.00000000000E+00 -0.25378512001E+01  0.25378562046E+01  0.50400000000E-02 0.  1.
         24    2    1    2    0    0  0.00000000000E+00  0.00000000000E+00  0.62669336456E+03  0.63176907197E+03  0.79922381810E+02 0.  0.
         66    2    3    3    0    0 -0.13543622775E+02 -0.48542553796E+01  0.60803114593E+03  0.60820462669E+03  0.19999983914E+01 0.  0.
        -13    1    3    3    0    0  0.13543622775E+02  0.48542553796E+01  0.18662218636E+02  0.23564445286E+02  0.10566000000E+00 0.  1.
         13    1    4    4    0    0 -0.20684263155E+01 -0.10540254259E+01  0.12325558345E+03  0.12327748932E+03  0.10566000000E+00 0.  1.
        -13    1    4    4    0    0 -0.94233591919E+01 -0.31374850920E+01  0.38330396916E+03  0.38343263743E+03  0.10566000000E+00 0. -1.
        -14    1    4    4    0    0 -0.20518372673E+01 -0.66274486174E+00  0.10147159332E+03  0.10149449994E+03  0.00000000000E+00 0.  1.
<mgrwt>
<rscale>  0 0.79922382E+02</rscale>
<asrwt>0</asrwt>
<pdfrwt beam="1">  1        2 0.96804789E-01 0.79922382E+02</pdfrwt>
<pdfrwt beam="2">  1       -1 0.39043909E-03 0.79922382E+02</pdfrwt>
<totfact> 0.32664002E+05</totfact>
</mgrwt>
</event>
<event>
 8    1  0.7667702E-014  0.8085596E+02  0.7818608E-02  0.1326640E+00
          2   -1    0    0  501    0  0.00000000000E+00  0.00000000000E+00  0.32278532810E+02  0.32278532910E+02  0.25500000000E-02 0. -1.
         -1   -1    0    0    0  501 -0.00000000000E+00 -0.00000000000E+00 -0.50634938522E+02  0.50634938773E+02  0.50400000000E-02 0.  1.
         24    2    1    2    0    0 -0.88817841970E-15  0.00000000000E+00 -0.18356405712E+02  0.82913471683E+02  0.80855959309E+02 0.  0.
         66    2    3    3    0    0 -0.41824435599E+01  0.18881563241E+02  0.27192972244E+02  0.33428491530E+02  0.20000104810E+01 0.  0.
        -13    1    3    3    0    0  0.41824435599E+01 -0.18881563241E+02 -0.45549377956E+02  0.49484980153E+02  0.10566000000E+00 0.  1.
         13    1    4    4    0    0 -0.13277982431E+01  0.38231821365E+01  0.58076593718E+01  0.70795367954E+01  0.10566000000E+00 0. -1.
        -13    1    4    4    0    0 -0.93785607713E+00  0.22242803822E+01  0.33793025907E+01  0.41542565249E+01  0.10566000000E+00 0.  1.
        -14    1    4    4    0    0 -0.19167892396E+01  0.12834100723E+02  0.18006010281E+02  0.22194698209E+02  0.00000000000E+00 0.  1.
<mgrwt>
<rscale>  0 0.80855959E+02</rscale>
<asrwt>0</asrwt>
<pdfrwt beam="1">  1        2 0.49659281E-02 0.80855959E+02</pdfrwt>
<pdfrwt beam="2">  1       -1 0.77899906E-02 0.80855959E+02</pdfrwt>
<totfact> 0.13251545E+05</totfact>
</mgrwt>
</event>
<event>
 8    1  0.7667702E-014  0.7989355E+02  0.7818608E-02  0.1329354E+00
          2   -1    0    0  501    0  0.00000000000E+00  0.00000000000E+00  0.16232173255E+03  0.16232173257E+03  0.25500000000E-02 0. -1.
         -1   -1    0    0    0  501 -0.00000000000E+00 -0.00000000000E+00 -0.98307524138E+01  0.98307537057E+01  0.50400000000E-02 0.  1.
         24    2    1    2    0    0  0.17763568394E-14 -0.71054273576E-14  0.15249098014E+03  0.17215248628E+03  0.79893551105E+02 0.  0.
         66    2    3    3    0    0  0.95723805702E+01 -0.36846280628E+02  0.10219177561E+03  0.10907079316E+03  0.20000133573E+01 0.  0.
        -13    1    3    3    0    0 -0.95723805702E+01  0.36846280628E+02  0.50299204533E+02  0.63081693117E+02  0.10566000000E+00 0.  1.
         13    1    4    4    0    0  0.65634959092E+01 -0.25380991832E+02  0.70154372872E+02  0.74892732772E+02  0.10566000000E+00 0. -1.
        -13    1    4    4    0    0  0.11840863208E+00 -0.40901905665E+00  0.74943420293E+00  0.86840822945E+00  0.10566000000E+00 0.  1.
        -14    1    4    4    0    0  0.28904760289E+01 -0.11056269739E+02  0.31287968532E+02  0.33309652160E+02  0.00000000000E+00 0.  1.
<mgrwt>
<rscale>  0 0.79893551E+02</rscale>
<asrwt>0</asrwt>
<pdfrwt beam="1">  1        2 0.24972573E-01 0.79893551E+02</pdfrwt>
<pdfrwt beam="2">  1       -1 0.15124236E-02 0.79893551E+02</pdfrwt>
<totfact> 0.20624621E+05</totfact>
</mgrwt>
</event>
<event>
 8    1  0.7667702E-014  0.7236047E+02  0.7818608E-02  0.1352245E+00
          2   -1    0    0  501    0  0.00000000000E+00  0.00000000000E+00  0.29362810199E+03  0.29362810201E+03  0.25500000000E-02 0. -1.
         -1   -1    0    0    0  501 -0.00000000000E+00 -0.00000000000E+00 -0.44580509181E+01  0.44580537670E+01  0.50400000000E-02 0.  1.
         24    2    1    2    0    0  0.00000000000E+00  0.00000000000E+00  0.28917005108E+03  0.29808615577E+03  0.72360471417E+02 0.  0.
         66    2    3    3    0    0  0.28478179699E+02 -0.13875855191E+02  0.21645644148E+03  0.21877142662E+03  0.19999924795E+01 0.  0.
        -13    1    3    3    0    0 -0.28478179699E+02  0.13875855191E+02  0.72713609592E+02  0.79314729151E+02  0.10566000000E+00 0.  1.
         13    1    4    4    0    0  0.94076796105E+01 -0.39865847158E+01  0.67249470770E+02  0.68021318543E+02  0.10566000000E+00 0. -1.
        -13    1    4    4    0    0  0.90962123321E+01 -0.52877185914E+01  0.75051835103E+02  0.75785817691E+02  0.10566000000E+00 0.  1.
         14    1    4    4    0    0  0.99742877570E+01 -0.46015518838E+01  0.74155135611E+02  0.74964290389E+02  0.00000000000E+00 0. -1.
<mgrwt>
<rscale>  0 0.72360471E+02</rscale>
<asrwt>0</asrwt>
<pdfrwt beam="1">  1        2 0.45173547E-01 0.72360471E+02</pdfrwt>
<pdfrwt beam="2">  1       -1 0.68585433E-03 0.72360471E+02</pdfrwt>
<totfact> 0.32866125E+05</totfact>
</mgrwt>
</event>
<event>
 8    1  0.7667702E-014  0.8014813E+02  0.7818608E-02  0.1328632E+00
          2   -1    0    0  501    0  0.00000000000E+00  0.00000000000E+00  0.85840987981E+03  0.85840987981E+03  0.25500000000E-02 0. -1.
         -1   -1    0    0    0  501 -0.00000000000E+00 -0.00000000000E+00 -0.18708169637E+01  0.18708237526E+01  0.50400000000E-02 0.  1.
         24    2    1    2    0    0  0.35527136788E-14  0.17763568394E-14  0.85653906284E+03  0.86028070356E+03  0.80148130029E+02 0.  0.
         66    2    3    3    0    0  0.20669970275E+02  0.71965505313E+01  0.78853453319E+03  0.78884076215E+03  0.19999993168E+01 0.  0.
        -13    1    3    3    0    0 -0.20669970275E+02 -0.71965505313E+01  0.68004529656E+02  0.71439941409E+02  0.10566000000E+00 0.  1.
         13    1    4    4    0    0  0.39599349160E+01  0.18028713630E+01  0.14964530499E+03  0.14970858325E+03  0.10566000000E+00 0. -1.
        -13    1    4    4    0    0  0.48040410422E+01  0.22297111251E+01  0.19869373056E+03  0.19876433319E+03  0.10566000000E+00 0.  1.
        -14    1    4    4    0    0  0.11905994317E+02  0.31639680432E+01  0.44019549764E+03  0.44036784571E+03  0.00000000000E+00 0.  1.
<mgrwt>
<rscale>  0 0.80148130E+02</rscale>
<asrwt>0</asrwt>
<pdfrwt beam="1">  1        2 0.13206324E+00 0.80148130E+02</pdfrwt>
<pdfrwt beam="2">  1       -1 0.28781813E-03 0.80148130E+02</pdfrwt>
<totfact> 0.34576398E+05</totfact>
</mgrwt>
</event>
<event>
 8    1  0.7667702E-014  0.8020167E+02  0.7818608E-02  0.1328480E+00
          2   -1    0    0  501    0  0.00000000000E+00  0.00000000000E+00  0.57312844762E+02  0.57312844819E+02  0.25500000000E-02 0. -1.
         -1   -1    0    0    0  501 -0.00000000000E+00 -0.00000000000E+00 -0.28057883687E+02  0.28057884139E+02  0.50400000000E-02 0.  1.
         24    2    1    2    0    0  0.71054273576E-14  0.00000000000E+00  0.29254961075E+02  0.85370728959E+02  0.80201674642E+02 0.  0.
         66    2    3    3    0    0  0.38266581794E+02  0.10877241762E+02  0.19788595791E+02  0.44477344331E+02  0.19999912125E+01 0.  0.
        -13    1    3    3    0    0 -0.38266581794E+02 -0.10877241762E+02  0.94663652842E+01  0.40893384627E+02  0.10566000000E+00 0.  1.
         13    1    4    4    0    0  0.82539710304E+01  0.25740403307E+01  0.49044682992E+01  0.99407592632E+01  0.10566000000E+00 0. -1.
        -13    1    4    4    0    0  0.29802301721E+01  0.49139249860E+00  0.16069272497E+01  0.34229545261E+01  0.10566000000E+00 0.  1.
        -14    1    4    4    0    0  0.27032380591E+02  0.78118089330E+01  0.13277200242E+02  0.31113630542E+02  0.00000000000E+00 0.  1.
<mgrwt>
<rscale>  0 0.80201675E+02</rscale>
<asrwt>0</asrwt>
<pdfrwt beam="1">  1        2 0.88173607E-02 0.80201675E+02</pdfrwt>
<pdfrwt beam="2">  1       -1 0.43165976E-02 0.80201675E+02</pdfrwt>
<totfact> 0.15298239E+05</totfact>
</mgrwt>
</event>
<event>
 8    1  0.7667702E-014  0.8039107E+02  0.7818608E-02  0.1327945E+00
          2   -1    0    0  501    0  0.00000000000E+00  0.00000000000E+00  0.28553153459E+03  0.28553153460E+03  0.25500000000E-02 0. -1.
         -1   -1    0    0    0  501 -0.00000000000E+00 -0.00000000000E+00 -0.56585012347E+01  0.56585034793E+01  0.50400000000E-02 0.  1.
         24    2    1    2    0    0  0.00000000000E+00  0.00000000000E+00  0.27987303336E+03  0.29119003808E+03  0.80391065909E+02 0.  0.
         66    2    3    3    0    0  0.88046118525E+00 -0.19933612007E+02  0.26630896049E+03  0.26706288872E+03  0.19999988996E+01 0.  0.
        -13    1    3    3    0    0 -0.88046118525E+00  0.19933612007E+02  0.13564072870E+02  0.24127149364E+02  0.10566000000E+00 0.  1.
         13    1    4    4    0    0  0.44477713021E+00 -0.75652724646E+01  0.95591488996E+02  0.95891475673E+02  0.10566000000E+00 0. -1.
        -13    1    4    4    0    0 -0.40913870796E+00 -0.21489371482E+01  0.27130418652E+02  0.27218672004E+02  0.10566000000E+00 0.  1.
        -14    1    4    4    0    0  0.84482276300E+00 -0.10219402394E+02  0.14358705284E+03  0.14395274104E+03  0.00000000000E+00 0.  1.
<mgrwt>
<rscale>  0 0.80391066E+02</rscale>
<asrwt>0</asrwt>
<pdfrwt beam="1">  1        2 0.43927930E-01 0.80391066E+02</pdfrwt>
<pdfrwt beam="2">  1       -1 0.87053879E-03 0.80391066E+02</pdfrwt>
<totfact> 0.24723634E+05</totfact>
</mgrwt>
</event>
<event>
 8    1  0.7667702E-014  0.7921479E+02  0.7818608E-02  0.1331295E+00
         -1   -1    0    0    0  501 -0.00000000000E+00  0.00000000000E+00  0.43636431061E+02  0.43636431352E+02  0.50400000000E-02 0.  1.
          2   -1    0    0  501    0  0.00000000000E+00 -0.00000000000E+00 -0.35950366962E+02  0.35950367052E+02  0.25500000000E-02 0. -1.
         24    2    1    2    0    0  0.00000000000E+00  0.00000000000E+00  0.76860640989E+01  0.79586798404E+02  0.79214789648E+02 0.  0.
         66    2    3    3    0    0 -0.92297387522E+01  0.14558192890E+02 -0.31953469551E+02  0.36361425651E+02  0.20000003494E+01 0.  0.
        -13    1    3    3    0    0  0.92297387522E+01 -0.14558192890E+02  0.39639533650E+02  0.43225372753E+02  0.10566000000E+00 0.  1.
         13    1    4    4    0    0 -0.97172354082E+00  0.24670312233E+01 -0.53620732214E+01  0.59827654946E+01  0.10566000000E+00 0. -1.
        -13    1    4    4    0    0 -0.34437557113E+00  0.93206281701E+00 -0.15529233914E+01  0.18466376808E+01  0.10566000000E+00 0.  1.
        -14    1    4    4    0    0 -0.79136396402E+01  0.11159098849E+02 -0.25038472938E+02  0.28532022476E+02  0.00000000000E+00 0.  1.
<mgrwt>
<rscale>  0 0.79214790E+02</rscale>
<asrwt>0</asrwt>
<pdfrwt beam="1">  1        2 0.55308257E-02 0.79214790E+02</pdfrwt>
<pdfrwt beam="2">  1       -1 0.67132971E-02 0.79214790E+02</pdfrwt>
<totfact> 0.14336159E+05</totfact>
</mgrwt>
</event>
<event>
 8    1  0.7667702E-014  0.8671603E+02  0.7818608E-02  0.1311005E+00
         -1   -1    0    0    0  501 -0.00000000000E+00  0.00000000000E+00  0.10592227392E+03  0.10592227404E+03  0.50400000000E-02 0.  1.
          2   -1    0    0  501    0  0.00000000000E+00 -0.00000000000E+00 -0.17748086060E+02  0.17748086243E+02  0.25500000000E-02 0. -1.
         24    2    1    2    0    0 -0.35527136788E-14  0.00000000000E+00  0.88174187863E+02  0.12367036029E+03  0.86716034320E+02 0.  0.
         66    2    3    3    0    0 -0.26067333991E+02  0.16271682547E+02  0.53364048142E+00  0.30798673193E+02  0.19999859853E+01 0.  0.
        -13    1    3    3    0    0  0.26067333991E+02 -0.16271682547E+02  0.87640547381E+02  0.92871687094E+02  0.10566000000E+00 0.  1.
         13    1    4    4    0    0 -0.79725728982E+01  0.54494656666E+01  0.91626828707E+00  0.97009951180E+01  0.10566000000E+00 0. -1.
        -13    1    4    4    0    0 -0.13740358507E+02  0.79856085998E+01 -0.97489677706E-01  0.15893019376E+02  0.10566000000E+00 0.  1.
         14    1    4    4    0    0 -0.43544025859E+01  0.28366082804E+01 -0.28513812795E+00  0.52046586986E+01  0.00000000000E+00 0. -1.
<mgrwt>
<rscale>  0 0.86716034E+02</rscale>
<asrwt>0</asrwt>
<pdfrwt beam="1">  1        2 0.27304748E-02 0.86716034E+02</pdfrwt>
<pdfrwt beam="2">  1       -1 0.16295734E-01 0.86716034E+02</pdfrwt>
<totfact> 0.95714478E+04</totfact>
</mgrwt>
</event>
<event>
 8    1  0.7667702E-014  0.8231567E+02  0.7818608E-02  0.1322605E+00
         -1   -1    0    0    0  501 -0.00000000000E+00  0.00000000000E+00  0.23173138378E+01  0.23173193186E+01  0.50400000000E-02 0.  1.
          2   -1    0    0  501    0  0.00000000000E+00 -0.00000000000E+00 -0.73100389352E+03  0.73100389353E+03  0.25500000000E-02 0. -1.
         24    2    1    2    0    0  0.00000000000E+00  0.00000000000E+00 -0.72868657969E+03  0.73332121285E+03  0.82315671634E+02 0.  0.
         66    2    3    3    0    0  0.24644359567E+02 -0.16486667032E+02 -0.61854136081E+03  0.61925485035E+03  0.19999998584E+01 0.  0.
        -13    1    3    3    0    0 -0.24644359567E+02  0.16486667032E+02 -0.11014521888E+03  0.11406636250E+03  0.10566000000E+00 0.  1.
         13    1    4    4    0    0  0.27350166785E+01 -0.21702833761E+01 -0.80798625260E+02  0.80874096311E+02  0.10566000000E+00 0.  1.
        -13    1    4    4    0    0  0.11601691959E+02 -0.80806953824E+01 -0.29994709160E+03  0.30028014556E+03  0.10566000000E+00 0. -1.
        -14    1    4    4    0    0  0.10307650929E+02 -0.62356882732E+01 -0.23779564395E+03  0.23810060848E+03  0.00000000000E+00 0.  1.
<mgrwt>
<rscale>  0 0.82315672E+02</rscale>
<asrwt>0</asrwt>
<pdfrwt beam="1">  1        2 0.11246195E+00 0.82315672E+02</pdfrwt>
<pdfrwt beam="2">  1       -1 0.35651083E-03 0.82315672E+02</pdfrwt>
<totfact> 0.31355759E+05</totfact>
</mgrwt>
</event>
<event>
 8    1  0.7667702E-014  0.8186576E+02  0.7818608E-02  0.1323839E+00
          2   -1    0    0  501    0  0.00000000000E+00  0.00000000000E+00  0.59497470832E+03  0.59497470832E+03  0.25500000000E-02 0. -1.
         -1   -1    0    0    0  501 -0.00000000000E+00 -0.00000000000E+00 -0.28160852346E+01  0.28160897447E+01  0.50400000000E-02 0.  1.
         24    2    1    2    0    0  0.00000000000E+00 -0.35527136788E-14  0.59215862308E+03  0.59779079807E+03  0.81865764291E+02 0.  0.
         66    2    3    3    0    0  0.36047540471E+02 -0.17749468020E+02  0.35235677288E+03  0.35464597021E+03  0.20000007758E+01 0.  0.
        -13    1    3    3    0    0 -0.36047540471E+02  0.17749468020E+02  0.23980185020E+03  0.24314482785E+03  0.10566000000E+00 0.  1.
         13    1    4    4    0    0  0.27468830732E+01 -0.13696150376E+01  0.24508332522E+02  0.24700014959E+02  0.10566000000E+00 0. -1.
        -13    1    4    4    0    0  0.28117347828E+02 -0.13410884940E+02  0.27106818567E+03  0.27285235848E+03  0.10566000000E+00 0.  1.
        -14    1    4    4    0    0  0.51833095695E+01 -0.29689680421E+01  0.56780254696E+02  0.57093596774E+02  0.00000000000E+00 0.  1.
<mgrwt>
<rscale>  0 0.81865764E+02</rscale>
<asrwt>0</asrwt>
<pdfrwt beam="1">  1        2 0.91534613E-01 0.81865764E+02</pdfrwt>
<pdfrwt beam="2">  1       -1 0.43324403E-03 0.81865764E+02</pdfrwt>
<totfact> 0.30217462E+05</totfact>
</mgrwt>
</event>
<event>
 8    1  0.7667702E-014  0.8086879E+02  0.7818608E-02  0.1326604E+00
          2   -1    0    0  501    0  0.00000000000E+00  0.00000000000E+00  0.66683633115E+02  0.66683633164E+02  0.25500000000E-02 0. -1.
         -1   -1    0    0    0  501 -0.00000000000E+00 -0.00000000000E+00 -0.24517866598E+02  0.24517867116E+02  0.50400000000E-02 0.  1.
         24    2    1    2    0    0  0.35527136788E-14  0.71054273576E-14  0.42165766518E+02  0.91201500280E+02  0.80868793655E+02 0.  0.
         66    2    3    3    0    0  0.19957653351E+02  0.35075969924E+02  0.23435393249E+02  0.46710269231E+02  0.20000003731E+01 0.  0.
        -13    1    3    3    0    0 -0.19957653351E+02 -0.35075969924E+02  0.18730373269E+02  0.44491231049E+02  0.10566000000E+00 0.  1.
         13    1    4    4    0    0  0.75449357291E+01  0.14818466779E+02  0.97974255309E+01  0.19300614599E+02  0.10566000000E+00 0. -1.
        -13    1    4    4    0    0  0.45800666593E+01  0.69989943180E+01  0.43939938504E+01  0.94488770793E+01  0.10566000000E+00 0.  1.
         14    1    4    4    0    0  0.78326509625E+01  0.13258508827E+02  0.92439738679E+01  0.17960777553E+02  0.00000000000E+00 0. -1.
<mgrwt>
<rscale>  0 0.80868794E+02</rscale>
<asrwt>0</asrwt>
<pdfrwt beam="1">  1        2 0.10259020E-01 0.80868794E+02</pdfrwt>
<pdfrwt beam="2">  1       -1 0.37719796E-02 0.80868794E+02</pdfrwt>
<totfact> 0.15497096E+05</totfact>
</mgrwt>
</event>
<event>
 8    1  0.7667702E-014  0.7583350E+02  0.7818608E-02  0.1341309E+00
         -1   -1    0    0    0  501 -0.00000000000E+00  0.00000000000E+00  0.12251986867E+02  0.12251987904E+02  0.50400000000E-02 0.  1.
          2   -1    0    0  501    0  0.00000000000E+00 -0.00000000000E+00 -0.11734258919E+03  0.11734258922E+03  0.25500000000E-02 0. -1.
         24    2    1    2    0    0  0.17763568394E-14  0.11102230246E-15 -0.10509060233E+03  0.12959457712E+03  0.75833500004E+02 0.  0.
         66    2    3    3    0    0 -0.15645683179E+02 -0.44464453368E+00 -0.11155092507E+03  0.11266141307E+03  0.19999996452E+01 0.  0.
        -13    1    3    3    0    0  0.15645683179E+02  0.44464453368E+00  0.64603227487E+01  0.16933164056E+02  0.10566000000E+00 0.  1.
         13    1    4    4    0    0 -0.79289551979E+01 -0.43568007520E+00 -0.61232997946E+02  0.61745844792E+02  0.10566000000E+00 0.  1.
        -13    1    4    4    0    0 -0.63739000134E+01  0.26769128620E+00 -0.42922288156E+02  0.43393919443E+02  0.10566000000E+00 0. -1.
        -14    1    4    4    0    0 -0.13428279678E+01 -0.27665574469E+00 -0.73956389733E+01  0.75216488336E+01  0.00000000000E+00 0.  1.
<mgrwt>
<rscale>  0 0.75833500E+02</rscale>
<asrwt>0</asrwt>
<pdfrwt beam="1">  1        2 0.18052705E-01 0.75833500E+02</pdfrwt>
<pdfrwt beam="2">  1       -1 0.18849212E-02 0.75833500E+02</pdfrwt>
<totfact> 0.21400281E+05</totfact>
</mgrwt>
</event>
<event>
 8    1  0.7667702E-014  0.7966420E+02  0.7818608E-02  0.1330007E+00
          2   -1    0    0  501    0  0.00000000000E+00  0.00000000000E+00  0.32067128353E+03  0.32067128354E+03  0.25500000000E-02 0. -1.
         -1   -1    0    0    0  501 -0.00000000000E+00 -0.00000000000E+00 -0.49477329627E+01  0.49477355297E+01  0.50400000000E-02 0.  1.
         24    2    1    2    0    0  0.35527136788E-14  0.00000000000E+00  0.31572355057E+03  0.32561901907E+03  0.79664202734E+02 0.  0.
         66    2    3    3    0    0 -0.27535448768E+02  0.27791552393E+02  0.12791933451E+03  0.13378313594E+03  0.19999992987E+01 0.  0.
        -13    1    3    3    0    0  0.27535448768E+02 -0.27791552393E+02  0.18780421606E+03  0.19183588314E+03  0.10566000000E+00 0.  1.
         13    1    4    4    0    0 -0.36567425602E+01  0.41059899736E+01  0.19338848225E+02  0.20105549844E+02  0.10566000000E+00 0. -1.
        -13    1    4    4    0    0 -0.18169734933E+01  0.20290819122E+01  0.98506268456E+01  0.10220791524E+02  0.10566000000E+00 0.  1.
         14    1    4    4    0    0 -0.22061732715E+02  0.21656480507E+02  0.98729859435E+02  0.10345679457E+03  0.00000000000E+00 0. -1.
<mgrwt>
<rscale>  0 0.79664203E+02</rscale>
<asrwt>0</asrwt>
<pdfrwt beam="1">  1        2 0.49334066E-01 0.79664203E+02</pdfrwt>
<pdfrwt beam="2">  1       -1 0.76118955E-03 0.79664203E+02</pdfrwt>
<totfact> 0.26405259E+05</totfact>
</mgrwt>
</event>
<event>
 8    1  0.7667702E-014  0.7006976E+02  0.7818608E-02  0.1359856E+00
          2   -1    0    0  501    0  0.00000000000E+00  0.00000000000E+00  0.13477222310E+02  0.13477222552E+02  0.25500000000E-02 0. -1.
         -1   -1    0    0    0  501 -0.00000000000E+00 -0.00000000000E+00 -0.91075356827E+02  0.91075356966E+02  0.50400000000E-02 0.  1.
         24    2    1    2    0    0  0.17763568394E-14  0.00000000000E+00 -0.77598134516E+02  0.10455257952E+03  0.70069760977E+02 0.  0.
         66    2    3    3    0    0 -0.96928155882E+01 -0.23544005780E+02 -0.29834135236E+01  0.25713257888E+02  0.19999981900E+01 0.  0.
        -13    1    3    3    0    0  0.96928155882E+01  0.23544005780E+02 -0.74614720993E+02  0.78839321630E+02  0.10566000000E+00 0.  1.
         13    1    4    4    0    0 -0.29790078492E+01 -0.71746392302E+01 -0.85099990223E+00  0.78157085871E+01  0.10566000000E+00 0. -1.
        -13    1    4    4    0    0 -0.15110685247E+01 -0.30964125625E+01  0.19509034264E+00  0.34525820947E+01  0.10566000000E+00 0.  1.
        -14    1    4    4    0    0 -0.52027392142E+01 -0.13272953987E+02 -0.23275039640E+01  0.14444967206E+02  0.00000000000E+00 0.  1.
<mgrwt>
<rscale>  0 0.70069761E+02</rscale>
<asrwt>0</asrwt>
<pdfrwt beam="1">  1        2 0.20734189E-02 0.70069761E+02</pdfrwt>
<pdfrwt beam="2">  1       -1 0.14011593E-01 0.70069761E+02</pdfrwt>
<totfact> 0.16794226E+05</totfact>
</mgrwt>
</event>
<event>
 8    1  0.7667702E-014  0.8007792E+02  0.7818608E-02  0.1328830E+00
         -1   -1    0    0    0  501 -0.00000000000E+00  0.00000000000E+00  0.12356328365E+02  0.12356329393E+02  0.50400000000E-02 0.  1.
          2   -1    0    0  501    0  0.00000000000E+00 -0.00000000000E+00 -0.12974066064E+03  0.12974066066E+03  0.25500000000E-02 0. -1.
         24    2    1    2    0    0  0.00000000000E+00  0.00000000000E+00 -0.11738433227E+03  0.14209699006E+03  0.80077919052E+02 0.  0.
         66    2    3    3    0    0  0.25358845509E+02  0.25980383452E+01 -0.11345913911E+03  0.11630475956E+03  0.19999996043E+01 0.  0.
        -13    1    3    3    0    0 -0.25358845509E+02 -0.25980383452E+01 -0.39251931603E+01  0.25792230500E+02  0.10566000000E+00 0.  1.
         13    1    4    4    0    0  0.12188341593E+02  0.84589365707E+00 -0.54164299930E+02  0.55525253334E+02  0.10566000000E+00 0. -1.
        -13    1    4    4    0    0  0.70970501177E+00  0.32146613807E+00 -0.44303398163E+01  0.44995662686E+01  0.10566000000E+00 0.  1.
        -14    1    4    4    0    0  0.12460798903E+02  0.14306785501E+01 -0.54864499365E+02  0.56279939952E+02  0.00000000000E+00 0.  1.
<mgrwt>
<rscale>  0 0.80077919E+02</rscale>
<asrwt>0</asrwt>
<pdfrwt beam="1">  1        2 0.19960101E-01 0.80077919E+02</pdfrwt>
<pdfrwt beam="2">  1       -1 0.19009738E-02 0.80077919E+02</pdfrwt>
<totfact> 0.19085243E+05</totfact>
</mgrwt>
</event>
<event>
 8    1  0.7667702E-014  0.7851230E+02  0.7818608E-02  0.1333327E+00
         -1   -1    0    0    0  501 -0.00000000000E+00  0.00000000000E+00  0.90246715425E+01  0.90246729499E+01  0.50400000000E-02 0.  1.
          2   -1    0    0  501    0  0.00000000000E+00 -0.00000000000E+00 -0.17075915678E+03  0.17075915680E+03  0.25500000000E-02 0. -1.
         24    2    1    2    0    0  0.00000000000E+00  0.00000000000E+00 -0.16173448524E+03  0.17978382975E+03  0.78512303011E+02 0.  0.
         66    2    3    3    0    0 -0.20766696643E+02  0.22732477337E+02 -0.13658861215E+03  0.14003024736E+03  0.19999979330E+01 0.  0.
        -13    1    3    3    0    0  0.20766696643E+02 -0.22732477337E+02 -0.25145873090E+02  0.39753582390E+02  0.10566000000E+00 0.  1.
         13    1    4    4    0    0 -0.65368754546E+01  0.83059423072E+01 -0.48439228772E+02  0.49579123292E+02  0.10566000000E+00 0. -1.
        -13    1    4    4    0    0 -0.93419273129E+01  0.99096210828E+01 -0.59590012551E+02  0.61126532339E+02  0.10566000000E+00 0.  1.
         14    1    4    4    0    0 -0.48878938756E+01  0.45169139468E+01 -0.28559370824E+02  0.29324591728E+02  0.00000000000E+00 0. -1.
<mgrwt>
<rscale>  0 0.78512303E+02</rscale>
<asrwt>0</asrwt>
<pdfrwt beam="1">  1        2 0.26270637E-01 0.78512303E+02</pdfrwt>
<pdfrwt beam="2">  1       -1 0.13884113E-02 0.78512303E+02</pdfrwt>
<totfact> 0.21963864E+05</totfact>
</mgrwt>
</event>
<event>
 8    1  0.7667702E-014  0.8065047E+02  0.7818608E-02  0.1327216E+00
          2   -1    0    0  501    0  0.00000000000E+00  0.00000000000E+00  0.32086189487E+03  0.32086189488E+03  0.25500000000E-02 0. -1.
         -1   -1    0    0    0  501 -0.00000000000E+00 -0.00000000000E+00 -0.50679879126E+01  0.50679904187E+01  0.50400000000E-02 0.  1.
         24    2    1    2    0    0 -0.88817841970E-15  0.35527136788E-14  0.31579390695E+03  0.32592988529E+03  0.80650470919E+02 0.  0.
         66    2    3    3    0    0 -0.63729874247E+01  0.19244620830E+02  0.29875220558E+03  0.29944590619E+03  0.19999984769E+01 0.  0.
        -13    1    3    3    0    0  0.63729874247E+01 -0.19244620830E+02  0.17041701371E+02  0.26483979106E+02  0.10566000000E+00 0.  1.
         13    1    4    4    0    0 -0.24333946763E+01  0.68823388255E+01  0.98727242501E+02  0.98996805874E+02  0.10566000000E+00 0. -1.
        -13    1    4    4    0    0 -0.19973414125E+00  0.18921757165E+01  0.32042052200E+02  0.32098668133E+02  0.10566000000E+00 0.  1.
        -14    1    4    4    0    0 -0.37398586071E+01  0.10470106288E+02  0.16798291088E+03  0.16835043218E+03  0.00000000000E+00 0.  1.
<mgrwt>
<rscale>  0 0.80650471E+02</rscale>
<asrwt>0</asrwt>
<pdfrwt beam="1">  1        2 0.49363403E-01 0.80650471E+02</pdfrwt>
<pdfrwt beam="2">  1       -1 0.77969009E-03 0.80650471E+02</pdfrwt>
<totfact> 0.25573103E+05</totfact>
</mgrwt>
</event>
<event>
 8    1  0.7667702E-014  0.7866814E+02  0.7818608E-02  0.1332874E+00
         -1   -1    0    0    0  501 -0.00000000000E+00  0.00000000000E+00  0.12269549253E+02  0.12269550288E+02  0.50400000000E-02 0.  1.
          2   -1    0    0  501    0  0.00000000000E+00 -0.00000000000E+00 -0.12609827193E+03  0.12609827196E+03  0.25500000000E-02 0. -1.
         24    2    1    2    0    0  0.00000000000E+00 -0.35527136788E-14 -0.11382872268E+03  0.13836782224E+03  0.78668139207E+02 0.  0.
         66    2    3    3    0    0  0.16599582208E+02  0.26305267771E+02 -0.99224615831E+02  0.10400498850E+03  0.20000010949E+01 0.  0.
        -13    1    3    3    0    0 -0.16599582208E+02 -0.26305267771E+02 -0.14604106845E+02  0.34362833742E+02  0.10566000000E+00 0.  1.
         13    1    4    4    0    0  0.12269146893E+02  0.18474806966E+02 -0.71993277845E+02  0.75331890171E+02  0.10566000000E+00 0. -1.
        -13    1    4    4    0    0  0.31870588593E+00  0.87300480208E+00 -0.33071283819E+01  0.34368551026E+01  0.10566000000E+00 0.  1.
        -14    1    4    4    0    0  0.40117294293E+01  0.69574560035E+01 -0.23924209605E+02  0.25236243228E+02  0.00000000000E+00 0.  1.
<mgrwt>
<rscale>  0 0.78668139E+02</rscale>
<asrwt>0</asrwt>
<pdfrwt beam="1">  1        2 0.19399733E-01 0.78668139E+02</pdfrwt>
<pdfrwt beam="2">  1       -1 0.18876231E-02 0.78668139E+02</pdfrwt>
<totfact> 0.19835136E+05</totfact>
</mgrwt>
</event>
<event>
 8    1  0.7667702E-014  0.7973223E+02  0.7818608E-02  0.1329813E+00
         -1   -1    0    0    0  501 -0.00000000000E+00  0.00000000000E+00  0.36226903820E+01  0.36226938879E+01  0.50400000000E-02 0.  1.
          2   -1    0    0  501    0  0.00000000000E+00 -0.00000000000E+00 -0.43870887803E+03  0.43870887803E+03  0.25500000000E-02 0. -1.
         24    2    1    2    0    0 -0.17763568394E-14 -0.35527136788E-14 -0.43508618764E+03  0.44233157192E+03  0.79732232126E+02 0.  0.
         66    2    3    3    0    0  0.13475233569E+02  0.16083763133E+02 -0.40556884980E+03  0.40611619185E+03  0.19999995427E+01 0.  0.
        -13    1    3    3    0    0 -0.13475233569E+02 -0.16083763133E+02 -0.29517337839E+02  0.36215380067E+02  0.10566000000E+00 0.  1.
         13    1    4    4    0    0  0.82957577262E+01  0.10651240809E+02 -0.24756498837E+03  0.24793286018E+03  0.10566000000E+00 0. -1.
        -13    1    4    4    0    0  0.27224889836E+01  0.28677521381E+01 -0.89732532444E+02  0.89819677641E+02  0.10566000000E+00 0.  1.
        -14    1    4    4    0    0  0.24569868587E+01  0.25647701855E+01 -0.68271328994E+02  0.68363654036E+02  0.00000000000E+00 0.  1.
<mgrwt>
<rscale>  0 0.79732232E+02</rscale>
<asrwt>0</asrwt>
<pdfrwt beam="1">  1        2 0.67493632E-01 0.79732232E+02</pdfrwt>
<pdfrwt beam="2">  1       -1 0.55733760E-03 0.79732232E+02</pdfrwt>
<totfact> 0.29423624E+05</totfact>
</mgrwt>
</event>
<event>
 8    1  0.7667702E-014  0.8056262E+02  0.7818608E-02  0.1327462E+00
          2   -1    0    0  501    0  0.00000000000E+00  0.00000000000E+00  0.13730289817E+04  0.13730289817E+04  0.25500000000E-02 0. -1.
         -1   -1    0    0    0  501 -0.00000000000E+00 -0.00000000000E+00 -0.11817496996E+01  0.11817604470E+01  0.50400000000E-02 0.  1.
         24    2    1    2    0    0  0.00000000000E+00  0.00000000000E+00  0.13718472320E+04  0.13742107421E+04  0.80562620934E+02 0.  0.
         66    2    3    3    0    0 -0.15962749574E+02 -0.10332963525E+02  0.12915920110E+04  0.12917335261E+04  0.19999997749E+01 0.  0.
        -13    1    3    3    0    0  0.15962749574E+02  0.10332963525E+02  0.80255220935E+02  0.82477216008E+02  0.10566000000E+00 0.  1.
         13    1    4    4    0    0 -0.13195513439E+01 -0.51161441062E+00  0.10504706964E+03  0.10505665600E+03  0.10566000000E+00 0. -1.
        -13    1    4    4    0    0 -0.49240036220E+00 -0.27748496517E+00  0.25547159809E+02  0.25553629769E+02  0.10566000000E+00 0.  1.
         14    1    4    4    0    0 -0.14150797868E+02 -0.95438641490E+01  0.11609977816E+04  0.11611232404E+04  0.00000000000E+00 0. -1.
<mgrwt>
<rscale>  0 0.80562621E+02</rscale>
<asrwt>0</asrwt>
<pdfrwt beam="1">  1        2 0.21123650E+00 0.80562621E+02</pdfrwt>
<pdfrwt beam="2">  1       -1 0.18180738E-03 0.80562621E+02</pdfrwt>
<totfact> 0.33575885E+05</totfact>
</mgrwt>
</event>
<event>
 8    1  0.7667702E-014  0.7915657E+02  0.7818608E-02  0.1331462E+00
          2   -1    0    0  501    0  0.00000000000E+00  0.00000000000E+00  0.63094638009E+02  0.63094638061E+02  0.25500000000E-02 0. -1.
         -1   -1    0    0    0  501 -0.00000000000E+00 -0.00000000000E+00 -0.24826841496E+02  0.24826842008E+02  0.50400000000E-02 0.  1.
         24    2    1    2    0    0  0.00000000000E+00  0.00000000000E+00  0.38267796513E+02  0.87921480069E+02  0.79156568947E+02 0.  0.
         66    2    3    3    0    0  0.30433719566E+02 -0.17811093525E+01  0.47136708589E+02  0.56171639084E+02  0.20000258986E+01 0.  0.
        -13    1    3    3    0    0 -0.30433719566E+02  0.17811093525E+01 -0.88689120761E+01  0.31749840985E+02  0.10566000000E+00 0.  1.
         13    1    4    4    0    0  0.69995638329E+01 -0.11382551768E+01  0.11327299498E+02  0.13364445243E+02  0.10566000000E+00 0. -1.
        -13    1    4    4    0    0  0.66167166895E+01  0.31179988913E-01  0.10565160064E+02  0.12466582658E+02  0.10566000000E+00 0. -1.
        -14    1    4    4    0    0  0.16817439043E+02 -0.67403416463E+00  0.25244249027E+02  0.30340611183E+02  0.00000000000E+00 0.  1.
<mgrwt>
<rscale>  0 0.79156569E+02</rscale>
<asrwt>0</asrwt>
<pdfrwt beam="1">  1        2 0.97068673E-02 0.79156569E+02</pdfrwt>
<pdfrwt beam="2">  1       -1 0.38195142E-02 0.79156569E+02</pdfrwt>
<totfact> 0.16209315E+05</totfact>
</mgrwt>
</event>
<event>
 8    1  0.9297856E-014  0.8101582E+02  0.7818608E-02  0.1326193E+00
         -1   -1    0    0    0  501 -0.00000000000E+00  0.00000000000E+00  0.11604704773E+02  0.11604705868E+02  0.50400000000E-02 0.  1.
          2   -1    0    0  501    0  0.00000000000E+00 -0.00000000000E+00 -0.14139874674E+03  0.14139874677E+03  0.25500000000E-02 0. -1.
         24    2    1    2    0    0  0.35527136788E-14 -0.35527136788E-14 -0.12979404197E+03  0.15300345264E+03  0.81015820598E+02 0.  0.
         66    2    3    3    0    0  0.26698599103E+02 -0.28825646036E+02 -0.83358686050E+02  0.92175938245E+02  0.19999969538E+01 0.  0.
        -13    1    3    3    0    0 -0.26698599103E+02  0.28825646036E+02 -0.46435355921E+02  0.60827514391E+02  0.10566000000E+00 0.  1.
         13    1    4    4    0    0  0.12065192949E+02 -0.13336541778E+02 -0.38321565781E+02  0.42331853201E+02  0.10566000000E+00 0. -1.
        -13    1    4    4    0    0  0.13295058589E+02 -0.13752899565E+02 -0.41219829414E+02  0.45442120662E+02  0.10566000000E+00 0.  1.
        -14    1    4    4    0    0  0.13383475649E+01 -0.17362046937E+01 -0.38172908547E+01  0.44019643810E+01  0.00000000000E+00 0.  1.
<mgrwt>
<rscale>  0 0.81015821E+02</rscale>
<asrwt>0</asrwt>
<pdfrwt beam="1">  1        2 0.21753652E-01 0.81015821E+02</pdfrwt>
<pdfrwt beam="2">  1       -1 0.17853394E-02 0.81015821E+02</pdfrwt>
<totfact> 0.19007362E+05</totfact>
</mgrwt>
</event>
<event>
 8    1  0.7667702E-014  0.8169825E+02  0.7818608E-02  0.1324300E+00
         -1   -1    0    0    0  501 -0.00000000000E+00  0.00000000000E+00  0.40537527891E+01  0.40537559222E+01  0.50400000000E-02 0.  1.
          2   -1    0    0  501    0  0.00000000000E+00 -0.00000000000E+00 -0.41163104424E+03  0.41163104425E+03  0.25500000000E-02 0. -1.
         24    2    1    2    0    0  0.00000000000E+00  0.00000000000E+00 -0.40757729145E+03  0.41568480017E+03  0.81698253262E+02 0.  0.
         66    2    3    3    0    0  0.40102218619E+02  0.76409338734E+01 -0.20252305417E+03  0.20660629051E+03  0.20000003873E+01 0.  0.
        -13    1    3    3    0    0 -0.40102218619E+02 -0.76409338734E+01 -0.20505423729E+03  0.20907850966E+03  0.10566000000E+00 0.  1.
         13    1    4    4    0    0  0.85914986434E+01  0.22426148067E+01 -0.41673250670E+02  0.42608850672E+02  0.10566000000E+00 0.  1.
        -13    1    4    4    0    0  0.25479681152E+02  0.42886372191E+01 -0.13122878551E+03  0.13374831539E+03  0.10566000000E+00 0. -1.
        -14    1    4    4    0    0  0.60310388236E+01  0.11096818476E+01 -0.29621017992E+02  0.30249124450E+02  0.00000000000E+00 0.  1.
<mgrwt>
<rscale>  0 0.81698253E+02</rscale>
<asrwt>0</asrwt>
<pdfrwt beam="1">  1        2 0.63327820E-01 0.81698253E+02</pdfrwt>
<pdfrwt beam="2">  1       -1 0.62365484E-03 0.81698253E+02</pdfrwt>
<totfact> 0.27012184E+05</totfact>
</mgrwt>
</event>
<event>
 8    1  0.7667702E-014  0.8018832E+02  0.7818608E-02  0.1328518E+00
         -1   -1    0    0    0  501 -0.00000000000E+00  0.00000000000E+00  0.15024928973E+01  0.15025013504E+01  0.50400000000E-02 0.  1.
          2   -1    0    0  501    0  0.00000000000E+00 -0.00000000000E+00 -0.10699133913E+04  0.10699133913E+04  0.25500000000E-02 0. -1.
         24    2    1    2    0    0 -0.35527136788E-14  0.88817841970E-15 -0.10684108984E+04  0.10714158927E+04  0.80188323371E+02 0.  0.
         66    2    3    3    0    0 -0.28202424369E+02  0.41217837219E+01 -0.91083349384E+03  0.91128152585E+03  0.20000000072E+01 0.  0.
        -13    1    3    3    0    0  0.28202424369E+02 -0.41217837219E+01 -0.15757740460E+03  0.16013436685E+03  0.10566000000E+00 0.  1.
         13    1    4    4    0    0 -0.16778258211E+02  0.28734630677E+01 -0.53424202415E+03  0.53451316005E+03  0.10566000000E+00 0. -1.
        -13    1    4    4    0    0 -0.25525213164E+01  0.13090506199E+00 -0.70832277734E+02  0.70878453949E+02  0.10566000000E+00 0.  1.
         14    1    4    4    0    0 -0.88716448414E+01  0.11174155922E+01 -0.30575919196E+03  0.30588991185E+03  0.00000000000E+00 0. -1.
<mgrwt>
<rscale>  0 0.80188323E+02</rscale>
<asrwt>0</asrwt>
<pdfrwt beam="1">  1        2 0.16460145E+00 0.80188323E+02</pdfrwt>
<pdfrwt beam="2">  1       -1 0.23115426E-03 0.80188323E+02</pdfrwt>
<totfact> 0.35056964E+05</totfact>
</mgrwt>
</event>
<event>
 8    1  0.7667702E-014  0.7707801E+02  0.7818608E-02  0.1337554E+00
         -1   -1    0    0    0  501 -0.00000000000E+00  0.00000000000E+00  0.19049319706E+02  0.19049320373E+02  0.50400000000E-02 0.  1.
          2   -1    0    0  501    0  0.00000000000E+00 -0.00000000000E+00 -0.77968925753E+02  0.77968925795E+02  0.25500000000E-02 0. -1.
         24    2    1    2    0    0  0.00000000000E+00  0.00000000000E+00 -0.58919606047E+02  0.97018246168E+02  0.77078013160E+02 0.  0.
         66    2    3    3    0    0 -0.25394753757E+02 -0.16350804618E+02 -0.59557233876E+02  0.66807981962E+02  0.20000042244E+01 0.  0.
        -13    1    3    3    0    0  0.25394753757E+02  0.16350804618E+02  0.63762782859E+00  0.30210264205E+02  0.10566000000E+00 0.  1.
         13    1    4    4    0    0 -0.49813640421E+01 -0.38258988277E+01 -0.11928833918E+02  0.13481829707E+02  0.10566000000E+00 0. -1.
        -13    1    4    4    0    0 -0.11975029226E+01 -0.10819481074E+01 -0.33544169078E+01  0.37239631824E+01  0.10566000000E+00 0.  1.
         14    1    4    4    0    0 -0.19215886793E+02 -0.11442957683E+02 -0.44273983050E+02  0.49602189074E+02  0.00000000000E+00 0. -1.
<mgrwt>
<rscale>  0 0.77078013E+02</rscale>
<asrwt>0</asrwt>
<pdfrwt beam="1">  1        2 0.11995219E-01 0.77078013E+02</pdfrwt>
<pdfrwt beam="2">  1       -1 0.29306647E-02 0.77078013E+02</pdfrwt>
<totfact> 0.18333434E+05</totfact>
</mgrwt>
</event>
<event>
 8    1  0.7667702E-014  0.8036898E+02  0.7818608E-02  0.1328008E+00
          2   -1    0    0  501    0  0.00000000000E+00  0.00000000000E+00  0.52663308985E+03  0.52663308986E+03  0.25500000000E-02 0. -1.
         -1   -1    0    0    0  501 -0.00000000000E+00 -0.00000000000E+00 -0.30662564969E+01  0.30662606390E+01  0.50400000000E-02 0.  1.
         24    2    1    2    0    0 -0.17763568394E-14 -0.44408920985E-15  0.52356683336E+03  0.52969935050E+03  0.80368979885E+02 0.  0.
         66    2    3    3    0    0 -0.15055440703E+02 -0.38996864797E+01  0.50597672989E+03  0.50621964110E+03  0.19999990839E+01 0.  0.
        -13    1    3    3    0    0  0.15055440703E+02  0.38996864797E+01  0.17590103464E+02  0.23479709395E+02  0.10566000000E+00 0.  1.
         13    1    4    4    0    0 -0.10934831347E+02 -0.33661858529E+01  0.37729867522E+03  0.37747212246E+03  0.10566000000E+00 0. -1.
        -13    1    4    4    0    0 -0.11522289689E+01  0.17170660501E+00  0.39304034609E+02  0.39321437097E+02  0.10566000000E+00 0.  1.
        -14    1    4    4    0    0 -0.29683803863E+01 -0.70520723174E+00  0.89374020058E+02  0.89426081546E+02  0.00000000000E+00 0.  1.
<mgrwt>
<rscale>  0 0.80368980E+02</rscale>
<asrwt>0</asrwt>
<pdfrwt beam="1">  1        2 0.81020435E-01 0.80368980E+02</pdfrwt>
<pdfrwt beam="2">  1       -1 0.47173233E-03 0.80368980E+02</pdfrwt>
<totfact> 0.30582295E+05</totfact>
</mgrwt>
</event>
<event>
 8    1  0.7667702E-014  0.7143308E+02  0.7818608E-02  0.1355287E+00
          2   -1    0    0  501    0  0.00000000000E+00  0.00000000000E+00  0.50044627076E+03  0.50044627076E+03  0.25500000000E-02 0. -1.
         -1   -1    0    0    0  501 -0.00000000000E+00 -0.00000000000E+00 -0.25490647165E+01  0.25490696990E+01  0.50400000000E-02 0.  1.
         24    2    1    2    0    0  0.35527136788E-14 -0.17763568394E-14  0.49789720604E+03  0.50299534046E+03  0.71433078781E+02 0.  0.
         66    2    3    3    0    0 -0.30982537895E+02  0.12252833571E+02  0.33921287298E+03  0.34085102725E+03  0.19999989462E+01 0.  0.
        -13    1    3    3    0    0  0.30982537895E+02 -0.12252833571E+02  0.15868433306E+03  0.16214431322E+03  0.10566000000E+00 0.  1.
         13    1    4    4    0    0 -0.42191781978E+01  0.13189770216E+01  0.45150070605E+02  0.45366079892E+02  0.10566000000E+00 0. -1.
        -13    1    4    4    0    0 -0.92748904939E+01  0.30490715510E+01  0.10249142464E+03  0.10295544531E+03  0.10566000000E+00 0.  1.
        -14    1    4    4    0    0 -0.17488469203E+02  0.78847849981E+01  0.19157137773E+03  0.19252950204E+03  0.00000000000E+00 0.  1.
<mgrwt>
<rscale>  0 0.71433079E+02</rscale>
<asrwt>0</asrwt>
<pdfrwt beam="1">  1        2 0.76991796E-01 0.71433079E+02</pdfrwt>
<pdfrwt beam="2">  1       -1 0.39216387E-03 0.71433079E+02</pdfrwt>
<totfact> 0.40846836E+05</totfact>
</mgrwt>
</event>
<event>
 8    1  0.7667702E-014  0.8857417E+02  0.7818608E-02  0.1306342E+00
          2   -1    0    0  501    0  0.00000000000E+00  0.00000000000E+00  0.27921376046E+03  0.27921376047E+03  0.25500000000E-02 0. -1.
         -1   -1    0    0    0  501 -0.00000000000E+00 -0.00000000000E+00 -0.70245303585E+01  0.70245321665E+01  0.50400000000E-02 0.  1.
         24    2    1    2    0    0 -0.88817841970E-15 -0.88817841970E-15  0.27218923010E+03  0.28623829264E+03  0.88574167731E+02 0.  0.
         66    2    3    3    0    0 -0.71072735271E+01 -0.74875322824E+01  0.27526496384E+03  0.27546574518E+03  0.19999932438E+01 0.  0.
        -13    1    3    3    0    0  0.71072735271E+01  0.74875322824E+01 -0.30757337387E+01  0.10772547458E+02  0.10566000000E+00 0.  1.
         13    1    4    4    0    0 -0.40127734387E+01 -0.33552692980E+01  0.14497493766E+03  0.14506930722E+03  0.10566000000E+00 0. -1.
        -13    1    4    4    0    0 -0.13640176024E+01 -0.23818670246E+01  0.58945125299E+02  0.59009090784E+02  0.10566000000E+00 0.  1.
        -14    1    4    4    0    0 -0.17304824859E+01 -0.17503959599E+01  0.71344900883E+02  0.71387347182E+02  0.00000000000E+00 0.  1.
<mgrwt>
<rscale>  0 0.88574168E+02</rscale>
<asrwt>0</asrwt>
<pdfrwt beam="1">  1        2 0.42955957E-01 0.88574168E+02</pdfrwt>
<pdfrwt beam="2">  1       -1 0.10806973E-02 0.88574168E+02</pdfrwt>
<totfact> 0.18989232E+05</totfact>
</mgrwt>
</event>
<event>
 8    1  0.7667702E-014  0.8876611E+02  0.7818608E-02  0.1305868E+00
         -1   -1    0    0    0  501 -0.00000000000E+00  0.00000000000E+00  0.32001983068E+01  0.32002022755E+01  0.50400000000E-02 0.  1.
          2   -1    0    0  501    0  0.00000000000E+00 -0.00000000000E+00 -0.61554137057E+03  0.61554137057E+03  0.25500000000E-02 0. -1.
         24    2    1    2    0    0  0.00000000000E+00  0.22204460493E-15 -0.61234117226E+03  0.61874157285E+03  0.88766112482E+02 0.  0.
         66    2    3    3    0    0 -0.25736756850E+02  0.12862883702E+01 -0.55801800923E+03  0.55861626706E+03  0.20000006989E+01 0.  0.
        -13    1    3    3    0    0  0.25736756850E+02 -0.12862883702E+01 -0.54323163025E+02  0.60125305787E+02  0.10566000000E+00 0.  1.
         13    1    4    4    0    0 -0.50070576589E+01  0.28109048956E+00 -0.12571003652E+03  0.12581007148E+03  0.10566000000E+00 0. -1.
        -13    1    4    4    0    0 -0.12136563302E+01  0.89022569475E-02 -0.24264944142E+02  0.24295508210E+02  0.10566000000E+00 0.  1.
         14    1    4    4    0    0 -0.19516042861E+02  0.99629562366E+00 -0.40804302857E+03  0.40851068737E+03  0.00000000000E+00 0. -1.
<mgrwt>
<rscale>  0 0.88766112E+02</rscale>
<asrwt>0</asrwt>
<pdfrwt beam="1">  1        2 0.94698578E-01 0.88766112E+02</pdfrwt>
<pdfrwt beam="2">  1       -1 0.49233900E-03 0.88766112E+02</pdfrwt>
<totfact> 0.24679122E+05</totfact>
</mgrwt>
</event>
<event>
 8    1  0.7667702E-014  0.8131067E+02  0.7818608E-02  0.1325373E+00
          2   -1    0    0  501    0  0.00000000000E+00  0.00000000000E+00  0.21700070616E+03  0.21700070618E+03  0.25500000000E-02 0. -1.
         -1   -1    0    0    0  501 -0.00000000000E+00 -0.00000000000E+00 -0.76168236199E+01  0.76168252873E+01  0.50400000000E-02 0.  1.
         24    2    1    2    0    0  0.00000000000E+00  0.35527136788E-14  0.20938388254E+03  0.22461753146E+03  0.81310670718E+02 0.  0.
         66    2    3    3    0    0 -0.44080907918E+01  0.30059928873E+02  0.17928119090E+03  0.18184822241E+03  0.19999994034E+01 0.  0.
        -13    1    3    3    0    0  0.44080907918E+01 -0.30059928873E+02  0.30102691645E+02  0.42769309050E+02  0.10566000000E+00 0.  1.
         13    1    4    4    0    0 -0.27780233832E-01  0.21025959483E+01  0.14782918287E+02  0.14932096925E+02  0.10566000000E+00 0.  1.
        -13    1    4    4    0    0 -0.32654184765E+01  0.21167971129E+02  0.12272025925E+03  0.12457535532E+03  0.10566000000E+00 0. -1.
         14    1    4    4    0    0 -0.11148920814E+01  0.67893617955E+01  0.41778013362E+02  0.42340770168E+02  0.00000000000E+00 0. -1.
<mgrwt>
<rscale>  0 0.81310671E+02</rscale>
<asrwt>0</asrwt>
<pdfrwt beam="1">  1        2 0.33384725E-01 0.81310671E+02</pdfrwt>
<pdfrwt beam="2">  1       -1 0.11718191E-02 0.81310671E+02</pdfrwt>
<totfact> 0.21744965E+05</totfact>
</mgrwt>
</event>
<event>
 8    1  0.7667702E-014  0.8038178E+02  0.7818608E-02  0.1327971E+00
          2   -1    0    0  501    0  0.00000000000E+00  0.00000000000E+00  0.39850566529E+03  0.39850566529E+03  0.25500000000E-02 0. -1.
         -1   -1    0    0    0  501 -0.00000000000E+00 -0.00000000000E+00 -0.40534100580E+01  0.40534131914E+01  0.50400000000E-02 0.  1.
         24    2    1    2    0    0 -0.35527136788E-14  0.00000000000E+00  0.39445225523E+03  0.40255907849E+03  0.80381776646E+02 0.  0.
         66    2    3    3    0    0 -0.31814242477E+02  0.16531384570E+02  0.28803023272E+03  0.29025996567E+03  0.20000026280E+01 0.  0.
        -13    1    3    3    0    0  0.31814242477E+02 -0.16531384570E+02  0.10642202251E+03  0.11229911281E+03  0.10566000000E+00 0.  1.
         13    1    4    4    0    0 -0.15268961702E+02  0.83422486156E+01  0.14034882772E+03  0.14142326156E+03  0.10566000000E+00 0. -1.
        -13    1    4    4    0    0 -0.94711921067E+00  0.80154000690E+00  0.10755326474E+02  0.10827174737E+02  0.10566000000E+00 0.  1.
         14    1    4    4    0    0 -0.15598161564E+02  0.73875959480E+01  0.13692607853E+03  0.13800952938E+03  0.00000000000E+00 0. -1.
<mgrwt>
<rscale>  0 0.80381777E+02</rscale>
<asrwt>0</asrwt>
<pdfrwt beam="1">  1        2 0.61308589E-01 0.80381777E+02</pdfrwt>
<pdfrwt beam="2">  1       -1 0.62360154E-03 0.80381777E+02</pdfrwt>
<totfact> 0.27867827E+05</totfact>
</mgrwt>
</event>
<event>
 8    1  0.7667702E-014  0.7802214E+02  0.7818608E-02  0.1334760E+00
         -1   -1    0    0    0  501 -0.00000000000E+00  0.00000000000E+00  0.47552840931E+01  0.47552867640E+01  0.50400000000E-02 0.  1.
          2   -1    0    0  501    0  0.00000000000E+00 -0.00000000000E+00 -0.32003619998E+03  0.32003619999E+03  0.25500000000E-02 0. -1.
         24    2    1    2    0    0  0.35527136788E-14  0.00000000000E+00 -0.31528091589E+03  0.32479148675E+03  0.78022137534E+02 0.  0.
         66    2    3    3    0    0 -0.19522942393E+02 -0.33621781772E+02 -0.16972879804E+03  0.17413625232E+03  0.19999995085E+01 0.  0.
        -13    1    3    3    0    0  0.19522942393E+02  0.33621781772E+02 -0.14555211785E+03  0.15065523444E+03  0.10566000000E+00 0.  1.
         13    1    4    4    0    0 -0.11551789756E+02 -0.19076996033E+02 -0.99234986665E+02  0.10171022253E+03  0.10566000000E+00 0. -1.
        -13    1    4    4    0    0 -0.93882215533E-01 -0.24091698706E+00 -0.91322131203E+00  0.95498275660E+00  0.10566000000E+00 0. -1.
         14    1    4    4    0    0 -0.78772704217E+01 -0.14303868752E+02 -0.69580590062E+02  0.71471047032E+02  0.00000000000E+00 0. -1.
<mgrwt>
<rscale>  0 0.78022138E+02</rscale>
<asrwt>0</asrwt>
<pdfrwt beam="1">  1        2 0.49236321E-01 0.78022138E+02</pdfrwt>
<pdfrwt beam="2">  1       -1 0.73158263E-03 0.78022138E+02</pdfrwt>
<totfact> 0.27863776E+05</totfact>
</mgrwt>
</event>
<event>
 8    1  0.7667702E-014  0.7671368E+02  0.7818608E-02  0.1338645E+00
          2   -1    0    0  501    0  0.00000000000E+00  0.00000000000E+00  0.19429760374E+02  0.19429760541E+02  0.25500000000E-02 0. -1.
         -1   -1    0    0    0  501 -0.00000000000E+00 -0.00000000000E+00 -0.75721313222E+02  0.75721313389E+02  0.50400000000E-02 0.  1.
         24    2    1    2    0    0  0.00000000000E+00 -0.35527136788E-14 -0.56291552848E+02  0.95151073931E+02  0.76713675105E+02 0.  0.
         66    2    3    3    0    0  0.18616071069E+02 -0.19382215523E+02  0.57355750171E+01  0.27552226782E+02  0.19999998137E+01 0.  0.
        -13    1    3    3    0    0 -0.18616071069E+02  0.19382215523E+02 -0.62027127865E+02  0.67598847149E+02  0.10566000000E+00 0.  1.
         13    1    4    4    0    0  0.56342986022E+01 -0.56777284207E+01  0.16748496950E+01  0.81730169640E+01  0.10566000000E+00 0. -1.
        -13    1    4    4    0    0  0.67853326453E+01 -0.83096702395E+01  0.20885282641E+01  0.10929980464E+02  0.10566000000E+00 0.  1.
        -14    1    4    4    0    0  0.61964398214E+01 -0.53948168627E+01  0.19721970580E+01  0.84492293541E+01  0.00000000000E+00 0.  1.
<mgrwt>
<rscale>  0 0.76713675E+02</rscale>
<asrwt>0</asrwt>
<pdfrwt beam="1">  1        2 0.29891940E-02 0.76713675E+02</pdfrwt>
<pdfrwt beam="2">  1       -1 0.11649433E-01 0.76713675E+02</pdfrwt>
<totfact> 0.13919650E+05</totfact>
</mgrwt>
</event>
<event>
 8    1  0.7667702E-014  0.7814823E+02  0.7818608E-02  0.1334390E+00
         -1   -1    0    0    0  501 -0.00000000000E+00  0.00000000000E+00  0.61981105211E+01  0.61981125703E+01  0.50400000000E-02 0.  1.
          2   -1    0    0  501    0  0.00000000000E+00 -0.00000000000E+00 -0.24633091201E+03  0.24633091202E+03  0.25500000000E-02 0. -1.
         24    2    1    2    0    0  0.00000000000E+00  0.00000000000E+00 -0.24013280149E+03  0.25252902459E+03  0.78148230378E+02 0.  0.
         66    2    3    3    0    0  0.11132405517E+02  0.69856747402E+01 -0.23896460591E+03  0.23933410325E+03  0.19999995054E+01 0.  0.
        -13    1    3    3    0    0 -0.11132405517E+02 -0.69856747402E+01 -0.11681955758E+01  0.13194921337E+02  0.10566000000E+00 0.  1.
         13    1    4    4    0    0  0.48680145226E+01  0.27440063163E+01 -0.10233842742E+03  0.10249093631E+03  0.10566000000E+00 0. -1.
        -13    1    4    4    0    0  0.17292582671E+01  0.19747840949E+01 -0.49240256725E+02  0.49310284452E+02  0.10566000000E+00 0.  1.
        -14    1    4    4    0    0  0.45351327269E+01  0.22668843291E+01 -0.87385921766E+02  0.87532882486E+02  0.00000000000E+00 0.  1.
<mgrwt>
<rscale>  0 0.78148230E+02</rscale>
<asrwt>0</asrwt>
<pdfrwt beam="1">  1        2 0.37897056E-01 0.78148230E+02</pdfrwt>
<pdfrwt beam="2">  1       -1 0.95355582E-03 0.78148230E+02</pdfrwt>
<totfact> 0.25248617E+05</totfact>
</mgrwt>
</event>
<event>
 8    1  0.7667702E-014  0.8129785E+02  0.7818608E-02  0.1325408E+00
         -1   -1    0    0    0  501 -0.00000000000E+00  0.00000000000E+00  0.47495106686E+01  0.47495133427E+01  0.50400000000E-02 0.  1.
          2   -1    0    0  501    0  0.00000000000E+00 -0.00000000000E+00 -0.34789579384E+03  0.34789579385E+03  0.25500000000E-02 0. -1.
         24    2    1    2    0    0  0.35527136788E-14  0.71054273576E-14 -0.34314628317E+03  0.35264530719E+03  0.81297853787E+02 0.  0.
         66    2    3    3    0    0 -0.30953244702E+02 -0.26121913956E+02 -0.18530598031E+03  0.18969123354E+03  0.19999998596E+01 0.  0.
        -13    1    3    3    0    0  0.30953244702E+02  0.26121913956E+02 -0.15784030287E+03  0.16295407365E+03  0.10566000000E+00 0.  1.
         13    1    4    4    0    0 -0.26096368456E+01 -0.19599273449E+01 -0.16195727026E+02  0.16521629993E+02  0.10566000000E+00 0. -1.
        -13    1    4    4    0    0 -0.61704729412E+01 -0.59877216163E+01 -0.40411866272E+02  0.41316554141E+02  0.10566000000E+00 0.  1.
        -14    1    4    4    0    0 -0.22173134915E+02 -0.18174264995E+02 -0.12869838701E+03  0.13185304941E+03  0.00000000000E+00 0.  1.
<mgrwt>
<rscale>  0 0.81297854E+02</rscale>
<asrwt>0</asrwt>
<pdfrwt beam="1">  1        2 0.53522410E-01 0.81297854E+02</pdfrwt>
<pdfrwt beam="2">  1       -1 0.73069443E-03 0.81297854E+02</pdfrwt>
<totfact> 0.25781829E+05</totfact>
</mgrwt>
</event>
<event>
 8    1  0.8636938E-014  0.8063882E+02  0.7818608E-02  0.1327248E+00
         -1   -1    0    0    0  501 -0.00000000000E+00  0.00000000000E+00  0.10713924997E+02  0.10713926183E+02  0.50400000000E-02 0.  1.
          2   -1    0    0  501    0  0.00000000000E+00 -0.00000000000E+00 -0.15173288441E+03  0.15173288443E+03  0.25500000000E-02 0. -1.
         24    2    1    2    0    0  0.00000000000E+00  0.00000000000E+00 -0.14101895941E+03  0.16244681061E+03  0.80638820459E+02 0.  0.
         66    2    3    3    0    0 -0.18886171088E+02  0.97108229561E+01 -0.13953754754E+03  0.14115847376E+03  0.20000003023E+01 0.  0.
        -13    1    3    3    0    0  0.18886171088E+02 -0.97108229561E+01 -0.14814118770E+01  0.21288336854E+02  0.10566000000E+00 0.  1.
         13    1    4    4    0    0 -0.12806369924E+02  0.64409759995E+01 -0.94090194231E+02  0.95175969115E+02  0.10566000000E+00 0. -1.
        -13    1    4    4    0    0 -0.38704900791E+01  0.24574911962E+01 -0.32645088251E+02  0.32965632216E+02  0.10566000000E+00 0.  1.
        -14    1    4    4    0    0 -0.22093110842E+01  0.81235576036E+00 -0.12802265054E+02  0.13016872430E+02  0.00000000000E+00 0.  1.
<mgrwt>
<rscale>  0 0.80638820E+02</rscale>
<asrwt>0</asrwt>
<pdfrwt beam="1">  1        2 0.23343519E-01 0.80638820E+02</pdfrwt>
<pdfrwt beam="2">  1       -1 0.16482964E-02 0.80638820E+02</pdfrwt>
<totfact> 0.19684477E+05</totfact>
</mgrwt>
</event>
<event>
 8    1  0.7667702E-014  0.8145417E+02  0.7818608E-02  0.1324975E+00
          2   -1    0    0  501    0  0.00000000000E+00  0.00000000000E+00  0.12137887051E+03  0.12137887054E+03  0.25500000000E-02 0. -1.
         -1   -1    0    0    0  501 -0.00000000000E+00 -0.00000000000E+00 -0.13665438019E+02  0.13665438948E+02  0.50400000000E-02 0.  1.
         24    2    1    2    0    0  0.00000000000E+00  0.00000000000E+00  0.10771343250E+03  0.13504430949E+03  0.81454171074E+02 0.  0.
         66    2    3    3    0    0 -0.24579455426E+02 -0.11643175213E+02  0.10409355099E+03  0.10760660069E+03  0.19999991446E+01 0.  0.
        -13    1    3    3    0    0  0.24579455426E+02  0.11643175213E+02  0.36198815092E+01  0.27437708801E+02  0.10566000000E+00 0.  1.
         13    1    4    4    0    0 -0.12022794528E+02 -0.58354821714E+01  0.53167576590E+02  0.54821554200E+02  0.10566000000E+00 0. -1.
        -13    1    4    4    0    0 -0.48536348705E+01 -0.28295159969E+01  0.19768351779E+02  0.20551467790E+02  0.10566000000E+00 0.  1.
         14    1    4    4    0    0 -0.77030260280E+01 -0.29781770442E+01  0.31157622619E+02  0.32233578699E+02  0.00000000000E+00 0. -1.
<mgrwt>
<rscale>  0 0.81454171E+02</rscale>
<asrwt>0</asrwt>
<pdfrwt beam="1">  1        2 0.18673673E-01 0.81454171E+02</pdfrwt>
<pdfrwt beam="2">  1       -1 0.21023751E-02 0.81454171E+02</pdfrwt>
<totfact> 0.17870497E+05</totfact>
</mgrwt>
</event>
<event>
 8    1  0.7667702E-014  0.7684306E+02  0.7818608E-02  0.1338257E+00
         -1   -1    0    0    0  501 -0.00000000000E+00  0.00000000000E+00  0.11362100825E+02  0.11362101943E+02  0.50400000000E-02 0.  1.
          2   -1    0    0  501    0  0.00000000000E+00 -0.00000000000E+00 -0.12992437839E+03  0.12992437842E+03  0.25500000000E-02 0. -1.
         24    2    1    2    0    0  0.00000000000E+00  0.88817841970E-15 -0.11856227757E+03  0.14128648036E+03  0.76843060002E+02 0.  0.
         66    2    3    3    0    0  0.86941336416E+01 -0.52024781579E+01 -0.12741420804E+03  0.12783205447E+03  0.19999999399E+01 0.  0.
        -13    1    3    3    0    0 -0.86941336416E+01  0.52024781579E+01  0.88519304780E+01  0.13454425888E+02  0.10566000000E+00 0.  1.
         13    1    4    4    0    0  0.67416090287E+01 -0.39245050717E+01 -0.95859265496E+02  0.96176197564E+02  0.10566000000E+00 0. -1.
        -13    1    4    4    0    0  0.63043044664E+00 -0.43157625141E+00 -0.16788155327E+02  0.16805862785E+02  0.10566000000E+00 0.  1.
        -14    1    4    4    0    0  0.13220941662E+01 -0.84639683482E+00 -0.14766787221E+02  0.14849994122E+02  0.00000000000E+00 0.  1.
<mgrwt>
<rscale>  0 0.76843060E+02</rscale>
<asrwt>0</asrwt>
<pdfrwt beam="1">  1        2 0.19988365E-01 0.76843060E+02</pdfrwt>
<pdfrwt beam="2">  1       -1 0.17480157E-02 0.76843060E+02</pdfrwt>
<totfact> 0.21303360E+05</totfact>
</mgrwt>
</event>
<event>
 8    1  0.8038137E-014  0.8185618E+02  0.7818608E-02  0.1323865E+00
         -1   -1    0    0    0  501 -0.00000000000E+00  0.00000000000E+00  0.48553594371E+01  0.48553620529E+01  0.50400000000E-02 0.  1.
          2   -1    0    0  501    0  0.00000000000E+00 -0.00000000000E+00 -0.34500184728E+03  0.34500184728E+03  0.25500000000E-02 0. -1.
         24    2    1    2    0    0  0.00000000000E+00  0.00000000000E+00 -0.34014648784E+03  0.34985720934E+03  0.81856177146E+02 0.  0.
         66    2    3    3    0    0  0.65296644061E+01  0.32627201258E+02 -0.27185126219E+03  0.27388734828E+03  0.20000031835E+01 0.  0.
        -13    1    3    3    0    0 -0.65296644061E+01 -0.32627201258E+02 -0.68295225645E+02  0.75969861058E+02  0.10566000000E+00 0.  1.
         13    1    4    4    0    0  0.23039780852E+01  0.11403481125E+02 -0.95513132781E+02  0.96219111379E+02  0.10566000000E+00 0. -1.
        -13    1    4    4    0    0  0.33859609087E+01  0.18376702474E+02 -0.15583825637E+03  0.15695458336E+03  0.10566000000E+00 0.  1.
        -14    1    4    4    0    0  0.83972541225E+00  0.28470176586E+01 -0.20499873037E+02  0.20713653537E+02  0.00000000000E+00 0.  1.
<mgrwt>
<rscale>  0 0.81856177E+02</rscale>
<asrwt>0</asrwt>
<pdfrwt beam="1">  1        2 0.53077188E-01 0.81856177E+02</pdfrwt>
<pdfrwt beam="2">  1       -1 0.74697885E-03 0.81856177E+02</pdfrwt>
<totfact> 0.25247650E+05</totfact>
</mgrwt>
</event>
<event>
 8    1  0.7667702E-014  0.8005037E+02  0.7818608E-02  0.1328909E+00
          2   -1    0    0  501    0  0.00000000000E+00  0.00000000000E+00  0.27355421864E+02  0.27355421983E+02  0.25500000000E-02 0. -1.
         -1   -1    0    0    0  501 -0.00000000000E+00 -0.00000000000E+00 -0.58562996420E+02  0.58562996637E+02  0.50400000000E-02 0.  1.
         24    2    1    2    0    0 -0.35527136788E-14  0.00000000000E+00 -0.31207574555E+02  0.85918418620E+02  0.80050371321E+02 0.  0.
         66    2    3    3    0    0  0.22433425969E+02 -0.33046347220E+02 -0.17938112269E+02  0.43830303211E+02  0.19999856356E+01 0.  0.
        -13    1    3    3    0    0 -0.22433425969E+02  0.33046347220E+02 -0.13269462287E+02  0.42088115409E+02  0.10566000000E+00 0.  1.
         13    1    4    4    0    0  0.17599860883E+02 -0.25753882723E+02 -0.14190812294E+02  0.34269635189E+02  0.10566000000E+00 0. -1.
        -13    1    4    4    0    0  0.22239718492E+01 -0.36573842883E+01 -0.13825358031E+01  0.44994532890E+01  0.10566000000E+00 0.  1.
        -14    1    4    4    0    0  0.26095932360E+01 -0.36350802088E+01 -0.23647641719E+01  0.50612147327E+01  0.00000000000E+00 0.  1.
<mgrwt>
<rscale>  0 0.80050371E+02</rscale>
<asrwt>0</asrwt>
<pdfrwt beam="1">  1        2 0.42085265E-02 0.80050371E+02</pdfrwt>
<pdfrwt beam="2">  1       -1 0.90096918E-02 0.80050371E+02</pdfrwt>
<totfact> 0.13189407E+05</totfact>
</mgrwt>
</event>
<event>
 8    1  0.7667702E-014  0.7835075E+02  0.7818608E-02  0.1333798E+00
         -1   -1    0    0    0  501 -0.00000000000E+00  0.00000000000E+00  0.62560906825E+02  0.62560907028E+02  0.50400000000E-02 0.  1.
          2   -1    0    0  501    0  0.00000000000E+00 -0.00000000000E+00 -0.24531453001E+02  0.24531453133E+02  0.25500000000E-02 0. -1.
         24    2    1    2    0    0  0.17763568394E-14 -0.71054273576E-14  0.38029453824E+02  0.87092360161E+02  0.78350748818E+02 0.  0.
         66    2    3    3    0    0  0.11292550953E+02 -0.28849804495E+02 -0.75780698980E+01  0.31957159876E+02  0.19999993823E+01 0.  0.
        -13    1    3    3    0    0 -0.11292550953E+02  0.28849804495E+02  0.45607523722E+02  0.55135200285E+02  0.10566000000E+00 0.  1.
         13    1    4    4    0    0  0.44649283747E+01 -0.10158185555E+02 -0.29961905439E+01  0.11494026317E+02  0.10566000000E+00 0. -1.
        -13    1    4    4    0    0  0.38130537251E+01 -0.11557798414E+02 -0.33268047914E+01  0.12617482992E+02  0.10566000000E+00 0.  1.
        -14    1    4    4    0    0  0.30145688533E+01 -0.71338205254E+01 -0.12550745627E+01  0.78456505669E+01  0.00000000000E+00 0.  1.
<mgrwt>
<rscale>  0 0.78350749E+02</rscale>
<asrwt>0</asrwt>
<pdfrwt beam="1">  1        2 0.37740698E-02 0.78350749E+02</pdfrwt>
<pdfrwt beam="2">  1       -1 0.96247548E-02 0.78350749E+02</pdfrwt>
<totfact> 0.13717104E+05</totfact>
</mgrwt>
</event>
<event>
 8    1  0.7667702E-014  0.7764393E+02  0.7818608E-02  0.1335874E+00
         -1   -1    0    0    0  501 -0.00000000000E+00  0.00000000000E+00  0.79340907153E+01  0.79340923161E+01  0.50400000000E-02 0.  1.
          2   -1    0    0  501    0  0.00000000000E+00 -0.00000000000E+00 -0.18995810694E+03  0.18995810696E+03  0.25500000000E-02 0. -1.
         24    2    1    2    0    0 -0.44408920985E-15  0.17763568394E-14 -0.18202401623E+03  0.19789219928E+03  0.77643931190E+02 0.  0.
         66    2    3    3    0    0 -0.18163774488E+01  0.12029868001E+02 -0.18496470151E+03  0.18537518106E+03  0.19999987904E+01 0.  0.
        -13    1    3    3    0    0  0.18163774488E+01 -0.12029868001E+02  0.29406852835E+01  0.12517018220E+02  0.10566000000E+00 0.  1.
         13    1    4    4    0    0 -0.94655896417E+00  0.18936116380E+01 -0.35788078979E+02  0.35850794969E+02  0.10566000000E+00 0. -1.
        -13    1    4    4    0    0 -0.35019295720E+00  0.71283925474E+01 -0.10577984945E+03  0.10602039581E+03  0.10566000000E+00 0.  1.
         14    1    4    4    0    0 -0.51962552741E+00  0.30078638156E+01 -0.43396773085E+02  0.43503990272E+02  0.00000000000E+00 0. -1.
<mgrwt>
<rscale>  0 0.77643931E+02</rscale>
<asrwt>0</asrwt>
<pdfrwt beam="1">  1        2 0.29224321E-01 0.77643931E+02</pdfrwt>
<pdfrwt beam="2">  1       -1 0.12206296E-02 0.77643931E+02</pdfrwt>
<totfact> 0.23446703E+05</totfact>
</mgrwt>
</event>
<event>
 8    1  0.7667702E-014  0.7977675E+02  0.7818608E-02  0.1329686E+00
         -1   -1    0    0    0  501 -0.00000000000E+00  0.00000000000E+00  0.56009891278E+01  0.56009913954E+01  0.50400000000E-02 0.  1.
          2   -1    0    0  501    0  0.00000000000E+00 -0.00000000000E+00 -0.28407161786E+03  0.28407161788E+03  0.25500000000E-02 0. -1.
         24    2    1    2    0    0  0.00000000000E+00  0.00000000000E+00 -0.27847062874E+03  0.28967260927E+03  0.79776747822E+02 0.  0.
         66    2    3    3    0    0 -0.14153125315E+02 -0.24985378767E+02 -0.23971919674E+03  0.24144124236E+03  0.20000295358E+01 0.  0.
        -13    1    3    3    0    0  0.14153125315E+02  0.24985378767E+02 -0.38751431994E+02  0.48231366909E+02  0.10566000000E+00 0.  1.
         13    1    4    4    0    0 -0.36930692095E+01 -0.56342550857E+01 -0.59174673338E+02  0.59557003947E+02  0.10566000000E+00 0. -1.
        -13    1    4    4    0    0 -0.35233565252E+01 -0.77396569701E+01 -0.67821941497E+02  0.68353077792E+02  0.10566000000E+00 0.  1.
         14    1    4    4    0    0 -0.69366995806E+01 -0.11611466711E+02 -0.11272258191E+03  0.11353116062E+03  0.00000000000E+00 0. -1.
<mgrwt>
<rscale>  0 0.79776748E+02</rscale>
<asrwt>0</asrwt>
<pdfrwt beam="1">  1        2 0.43703315E-01 0.79776748E+02</pdfrwt>
<pdfrwt beam="2">  1       -1 0.86169103E-03 0.79776748E+02</pdfrwt>
<totfact> 0.25179503E+05</totfact>
</mgrwt>
</event>
<event>
 8    1  0.7667702E-014  0.7536245E+02  0.7818608E-02  0.1342752E+00
         -1   -1    0    0    0  501 -0.00000000000E+00  0.00000000000E+00  0.99699600687E+00  0.99700874586E+00  0.50400000000E-02 0.  1.
          2   -1    0    0  501    0  0.00000000000E+00 -0.00000000000E+00 -0.14241436211E+04  0.14241436211E+04  0.25500000000E-02 0. -1.
         24    2    1    2    0    0  0.00000000000E+00 -0.17763568394E-14 -0.14231466251E+04  0.14251406298E+04  0.75362446416E+02 0.  0.
         66    2    3    3    0    0  0.42907178765E+01 -0.10493968646E+02 -0.13910981199E+04  0.13911457555E+04  0.19999996708E+01 0.  0.
        -13    1    3    3    0    0 -0.42907178765E+01  0.10493968646E+02 -0.32048505108E+02  0.33994874342E+02  0.10566000000E+00 0.  1.
         13    1    4    4    0    0  0.74862593239E-01 -0.74960513548E+00 -0.72402498998E+02  0.72406495133E+02  0.10566000000E+00 0.  1.
        -13    1    4    4    0    0  0.39455110436E+01 -0.96736231377E+01 -0.12871017206E+04  0.12871441241E+04  0.10566000000E+00 0. -1.
        -14    1    4    4    0    0  0.27034423966E+00 -0.70740372605E-01 -0.31593900364E+02  0.31595136183E+02  0.00000000000E+00 0.  1.
<mgrwt>
<rscale>  0 0.75362446E+02</rscale>
<asrwt>0</asrwt>
<pdfrwt beam="1">  1        2 0.21909739E+00 0.75362446E+02</pdfrwt>
<pdfrwt beam="2">  1       -1 0.15338612E-03 0.75362446E+02</pdfrwt>
<totfact> 0.39505001E+05</totfact>
</mgrwt>
</event>
<event>
 8    1  0.7667702E-014  0.7923107E+02  0.7818608E-02  0.1331248E+00
          2   -1    0    0  501    0  0.00000000000E+00  0.00000000000E+00  0.37766946641E+03  0.37766946642E+03  0.25500000000E-02 0. -1.
         -1   -1    0    0    0  501 -0.00000000000E+00 -0.00000000000E+00 -0.41554588999E+01  0.41554619563E+01  0.50400000000E-02 0.  1.
         24    2    1    2    0    0  0.17763568394E-14  0.17763568394E-14  0.37351400751E+03  0.38182492838E+03  0.79231067911E+02 0.  0.
         66    2    3    3    0    0 -0.14837480048E+02 -0.15020233248E+02  0.34827178275E+03  0.34891688535E+03  0.20000001850E+01 0.  0.
        -13    1    3    3    0    0  0.14837480048E+02  0.15020233248E+02  0.25242224765E+02  0.32908043031E+02  0.10566000000E+00 0.  1.
         13    1    4    4    0    0 -0.10429826869E+02 -0.96078525500E+01  0.22344312393E+03  0.22389268169E+03  0.10566000000E+00 0. -1.
        -13    1    4    4    0    0 -0.15924241787E+01 -0.18533256163E+01  0.46252209866E+02  0.46316829685E+02  0.10566000000E+00 0.  1.
         14    1    4    4    0    0 -0.28152290005E+01 -0.35590550818E+01  0.78576448955E+02  0.78707373973E+02  0.00000000000E+00 0. -1.
<mgrwt>
<rscale>  0 0.79231068E+02</rscale>
<asrwt>0</asrwt>
<pdfrwt beam="1">  1        2 0.58102998E-01 0.79231068E+02</pdfrwt>
<pdfrwt beam="2">  1       -1 0.63930158E-03 0.79231068E+02</pdfrwt>
<totfact> 0.28395478E+05</totfact>
</mgrwt>
</event>
<event>
 8    1  0.7667702E-014  0.7939165E+02  0.7818608E-02  0.1330787E+00
          2   -1    0    0  501    0  0.00000000000E+00  0.00000000000E+00  0.84233003661E+02  0.84233003699E+02  0.25500000000E-02 0. -1.
         -1   -1    0    0    0  501 -0.00000000000E+00 -0.00000000000E+00 -0.18707140354E+02  0.18707141033E+02  0.50400000000E-02 0.  1.
         24    2    1    2    0    0  0.00000000000E+00  0.00000000000E+00  0.65525863306E+02  0.10294014473E+03  0.79391653438E+02 0.  0.
         66    2    3    3    0    0 -0.15634802353E+02  0.23153439163E+02  0.69301759454E+02  0.74747994310E+02  0.20000000649E+01 0.  0.
        -13    1    3    3    0    0  0.15634802353E+02 -0.23153439163E+02 -0.37758961478E+01  0.28192150423E+02  0.10566000000E+00 0.  1.
         13    1    4    4    0    0 -0.68364293025E+01  0.10489111763E+02  0.30693501695E+02  0.33149063961E+02  0.10566000000E+00 0. -1.
        -13    1    4    4    0    0 -0.70705356652E+01  0.10274623721E+02  0.32637881187E+02  0.34939988832E+02  0.10566000000E+00 0.  1.
         14    1    4    4    0    0 -0.17278373855E+01  0.23897036790E+01  0.59703765730E+01  0.66589415171E+01  0.00000000000E+00 0. -1.
<mgrwt>
<rscale>  0 0.79391653E+02</rscale>
<asrwt>0</asrwt>
<pdfrwt beam="1">  1        2 0.12958924E-01 0.79391653E+02</pdfrwt>
<pdfrwt beam="2">  1       -1 0.28780216E-02 0.79391653E+02</pdfrwt>
<totfact> 0.17271560E+05</totfact>
</mgrwt>
</event>
<event>
 8    1  0.7667702E-014  0.7945819E+02  0.7818608E-02  0.1330596E+00
         -1   -1    0    0    0  501 -0.00000000000E+00  0.00000000000E+00  0.34775557253E+02  0.34775557618E+02  0.50400000000E-02 0.  1.
          2   -1    0    0  501    0  0.00000000000E+00 -0.00000000000E+00 -0.45388230131E+02  0.45388230203E+02  0.25500000000E-02 0. -1.
         24    2    1    2    0    0  0.71054273576E-14  0.00000000000E+00 -0.10612672878E+02  0.80163787821E+02  0.79458190592E+02 0.  0.
         66    2    3    3    0    0  0.27258264823E+02 -0.24506973311E+02 -0.20702677612E+02  0.42145054260E+02  0.19999990588E+01 0.  0.
        -13    1    3    3    0    0 -0.27258264823E+02  0.24506973311E+02  0.10090004734E+02  0.38018733561E+02  0.10566000000E+00 0.  1.
         13    1    4    4    0    0  0.82923782978E+01 -0.73382395436E+01 -0.67564759872E+01  0.12972063415E+02  0.10566000000E+00 0. -1.
        -13    1    4    4    0    0  0.17723791680E+01 -0.18145064582E+01 -0.18445095470E+01  0.31380154726E+01  0.10566000000E+00 0.  1.
        -14    1    4    4    0    0  0.17193507357E+02 -0.15354227310E+02 -0.12101692078E+02  0.26034975373E+02  0.00000000000E+00 0.  1.
<mgrwt>
<rscale>  0 0.79458191E+02</rscale>
<asrwt>0</asrwt>
<pdfrwt beam="1">  1        2 0.69828047E-02 0.79458191E+02</pdfrwt>
<pdfrwt beam="2">  1       -1 0.53500858E-02 0.79458191E+02</pdfrwt>
<totfact> 0.14911721E+05</totfact>
</mgrwt>
</event>
<event>
 8    1  0.7667702E-014  0.7699593E+02  0.7818608E-02  0.1337799E+00
         -1   -1    0    0    0  501 -0.00000000000E+00  0.00000000000E+00  0.16885846358E+01  0.16885921573E+01  0.50400000000E-02 0.  1.
          2   -1    0    0  501    0  0.00000000000E+00 -0.00000000000E+00 -0.87771143660E+03  0.87771143660E+03  0.25500000000E-02 0. -1.
         24    2    1    2    0    0  0.00000000000E+00  0.00000000000E+00 -0.87602285197E+03  0.87940002876E+03  0.76995931200E+02 0.  0.
         66    2    3    3    0    0  0.33620172047E+01 -0.19266805090E+02 -0.81669287178E+03  0.81692947049E+03  0.19999998484E+01 0.  0.
        -13    1    3    3    0    0 -0.33620172047E+01  0.19266805090E+02 -0.59329980181E+02  0.62470558268E+02  0.10566000000E+00 0.  1.
         13    1    4    4    0    0  0.22622851253E+01 -0.11513582876E+02 -0.46611034064E+03  0.46625802013E+03  0.10566000000E+00 0. -1.
        -13    1    4    4    0    0  0.90026931936E+00 -0.49950882986E+01 -0.24591091057E+03  0.24596330721E+03  0.10566000000E+00 0.  1.
         14    1    4    4    0    0  0.19946276005E+00 -0.27581339162E+01 -0.10467162058E+03  0.10470814315E+03  0.00000000000E+00 0. -1.
<mgrwt>
<rscale>  0 0.76995931E+02</rscale>
<asrwt>0</asrwt>
<pdfrwt beam="1">  1        2 0.13503216E+00 0.76995931E+02</pdfrwt>
<pdfrwt beam="2">  1       -1 0.25978353E-03 0.76995931E+02</pdfrwt>
<totfact> 0.38477570E+05</totfact>
</mgrwt>
</event>
<event>
 8    1  0.7667702E-014  0.8030553E+02  0.7818608E-02  0.1328187E+00
         -1   -1    0    0    0  501 -0.00000000000E+00  0.00000000000E+00  0.12380454903E+03  0.12380454913E+03  0.50400000000E-02 0.  1.
          2   -1    0    0  501    0  0.00000000000E+00 -0.00000000000E+00 -0.13022497053E+02  0.13022497303E+02  0.25500000000E-02 0. -1.
         24    2    1    2    0    0  0.00000000000E+00  0.00000000000E+00  0.11078205197E+03  0.13682704643E+03  0.80305526559E+02 0.  0.
         66    2    3    3    0    0 -0.18824868920E+02 -0.34806821506E+02  0.44078626423E+02  0.59269012306E+02  0.19999997982E+01 0.  0.
        -13    1    3    3    0    0  0.18824868920E+02  0.34806821506E+02  0.66703425550E+02  0.77558034125E+02  0.10566000000E+00 0.  1.
         13    1    4    4    0    0 -0.14783592373E+02 -0.27764902910E+02  0.34147507612E+02  0.46427447455E+02  0.10566000000E+00 0. -1.
        -13    1    4    4    0    0 -0.16174621475E+01 -0.29231424564E+01  0.45304643053E+01  0.56300281062E+01  0.10566000000E+00 0.  1.
        -14    1    4    4    0    0 -0.24238143992E+01 -0.41187761403E+01  0.54006545059E+01  0.72115367452E+01  0.00000000000E+00 0.  1.
<mgrwt>
<rscale>  0 0.80305527E+02</rscale>
<asrwt>0</asrwt>
<pdfrwt beam="1">  1        2 0.20034611E-02 0.80305527E+02</pdfrwt>
<pdfrwt beam="2">  1       -1 0.19046854E-01 0.80305527E+02</pdfrwt>
<totfact> 0.11195037E+05</totfact>
</mgrwt>
</event>
<event>
 8    1  0.7667702E-014  0.7984723E+02  0.7818608E-02  0.1329486E+00
         -1   -1    0    0    0  501 -0.00000000000E+00  0.00000000000E+00  0.56029554856E+01  0.56029577524E+01  0.50400000000E-02 0.  1.
          2   -1    0    0  501    0  0.00000000000E+00 -0.00000000000E+00 -0.28447395418E+03  0.28447395419E+03  0.25500000000E-02 0. -1.
         24    2    1    2    0    0  0.22204460493E-15  0.00000000000E+00 -0.27887099869E+03  0.29007691194E+03  0.79847234955E+02 0.  0.
         66    2    3    3    0    0  0.18089506843E+01  0.37556505110E+02 -0.18800892325E+03  0.19174232344E+03  0.19999991943E+01 0.  0.
        -13    1    3    3    0    0 -0.18089506843E+01 -0.37556505110E+02 -0.90862075441E+02  0.98334588504E+02  0.10566000000E+00 0.  1.
         13    1    4    4    0    0  0.47581649698E-01  0.26036447230E+01 -0.12629735619E+02  0.12895837146E+02  0.10566000000E+00 0. -1.
        -13    1    4    4    0    0  0.22270083813E+00  0.20676082569E+02 -0.10546189032E+03  0.10746986303E+03  0.10566000000E+00 0.  1.
        -14    1    4    4    0    0  0.15386681964E+01  0.14276777818E+02 -0.69917297309E+02  0.71376623257E+02  0.00000000000E+00 0.  1.
<mgrwt>
<rscale>  0 0.79847235E+02</rscale>
<asrwt>0</asrwt>
<pdfrwt beam="1">  1        2 0.43765213E-01 0.79847235E+02</pdfrwt>
<pdfrwt beam="2">  1       -1 0.86199355E-03 0.79847235E+02</pdfrwt>
<totfact> 0.25134121E+05</totfact>
</mgrwt>
</event>
<event>
 8    1  0.7667702E-014  0.7865717E+02  0.7818608E-02  0.1332906E+00
          2   -1    0    0  501    0  0.00000000000E+00  0.00000000000E+00  0.64491597306E+03  0.64491597307E+03  0.25500000000E-02 0. -1.
         -1   -1    0    0    0  501 -0.00000000000E+00 -0.00000000000E+00 -0.23983524053E+01  0.23983577010E+01  0.50400000000E-02 0.  1.
         24    2    1    2    0    0  0.00000000000E+00  0.00000000000E+00  0.64251762066E+03  0.64731433077E+03  0.78657167273E+02 0.  0.
         66    2    3    3    0    0 -0.54948054854E+01  0.26892339108E+02  0.55297017874E+03  0.55365459391E+03  0.19999986164E+01 0.  0.
        -13    1    3    3    0    0  0.54948054854E+01 -0.26892339108E+02  0.89547441919E+02  0.93659736858E+02  0.10566000000E+00 0.  1.
         13    1    4    4    0    0 -0.15158817599E+01  0.98239755579E+01  0.20437875646E+03  0.20462036959E+03  0.10566000000E+00 0. -1.
        -13    1    4    4    0    0 -0.27384174246E+01  0.11023412896E+02  0.23766094746E+03  0.23793224176E+03  0.10566000000E+00 0.  1.
         14    1    4    4    0    0 -0.12405063008E+01  0.60449506542E+01  0.11093047482E+03  0.11110198256E+03  0.00000000000E+00 0. -1.
<mgrwt>
<rscale>  0 0.78657167E+02</rscale>
<asrwt>0</asrwt>
<pdfrwt beam="1">  1        2 0.99217966E-01 0.78657167E+02</pdfrwt>
<pdfrwt beam="2">  1       -1 0.36897724E-03 0.78657167E+02</pdfrwt>
<totfact> 0.34266140E+05</totfact>
</mgrwt>
</event>
<event>
 8    1  0.7667702E-014  0.8031479E+02  0.7818608E-02  0.1328160E+00
          2   -1    0    0  501    0  0.00000000000E+00  0.00000000000E+00  0.52119756673E+03  0.52119756674E+03  0.25500000000E-02 0. -1.
         -1   -1    0    0    0  501 -0.00000000000E+00 -0.00000000000E+00 -0.30940572892E+01  0.30940613941E+01  0.50400000000E-02 0.  1.
         24    2    1    2    0    0  0.00000000000E+00  0.00000000000E+00  0.51810350944E+03  0.52429162813E+03  0.80314785891E+02 0.  0.
         66    2    3    3    0    0 -0.18969204105E+02  0.29747336363E+02  0.38407809054E+03  0.38570029073E+03  0.19999790733E+01 0.  0.
        -13    1    3    3    0    0  0.18969204105E+02 -0.29747336363E+02  0.13402541890E+03  0.13859133740E+03  0.10566000000E+00 0.  1.
         13    1    4    4    0    0 -0.11545461644E+02  0.17972764826E+02  0.23452169361E+03  0.23549257716E+03  0.10566000000E+00 0. -1.
        -13    1    4    4    0    0 -0.30567234084E+00  0.23067903219E+00  0.55037870423E+01  0.55181051312E+01  0.10566000000E+00 0. -1.
        -14    1    4    4    0    0 -0.71180701203E+01  0.11543892505E+02  0.14405260989E+03  0.14468960844E+03  0.00000000000E+00 0.  1.
<mgrwt>
<rscale>  0 0.80314786E+02</rscale>
<asrwt>0</asrwt>
<pdfrwt beam="1">  1        2 0.80184256E-01 0.80314786E+02</pdfrwt>
<pdfrwt beam="2">  1       -1 0.47600904E-03 0.80314786E+02</pdfrwt>
<totfact> 0.30537808E+05</totfact>
</mgrwt>
</event>
<event>
 8    1  0.7667702E-014  0.7865884E+02  0.7818608E-02  0.1332901E+00
          2   -1    0    0  501    0  0.00000000000E+00  0.00000000000E+00  0.45495393828E+03  0.45495393829E+03  0.25500000000E-02 0. -1.
         -1   -1    0    0    0  501 -0.00000000000E+00 -0.00000000000E+00 -0.33999096391E+01  0.33999133747E+01  0.50400000000E-02 0.  1.
         24    2    1    2    0    0 -0.17763568394E-14  0.00000000000E+00  0.45155402864E+03  0.45835385166E+03  0.78658836449E+02 0.  0.
         66    2    3    3    0    0  0.14243219541E+02 -0.34584833589E+02  0.29628797784E+03  0.29864618837E+03  0.20000002677E+01 0.  0.
        -13    1    3    3    0    0 -0.14243219541E+02  0.34584833589E+02  0.15526605081E+03  0.15970766329E+03  0.10566000000E+00 0.  1.
         13    1    4    4    0    0  0.98709762793E+01 -0.22738246883E+02  0.20122685557E+03  0.20274792875E+03  0.10566000000E+00 0. -1.
        -13    1    4    4    0    0  0.62732261819E+00 -0.14995510692E+01  0.13643485618E+02  0.13740380305E+02  0.10566000000E+00 0. -1.
         14    1    4    4    0    0  0.37449206435E+01 -0.10347035637E+02  0.81417636650E+02  0.82157879322E+02  0.00000000000E+00 0. -1.
<mgrwt>
<rscale>  0 0.78658836E+02</rscale>
<asrwt>0</asrwt>
<pdfrwt beam="1">  1        2 0.69992834E-01 0.78658836E+02</pdfrwt>
<pdfrwt beam="2">  1       -1 0.52306390E-03 0.78658836E+02</pdfrwt>
<totfact> 0.30856759E+05</totfact>
</mgrwt>
</event>
<event>
 8    1  0.7667702E-014  0.7950834E+02  0.7818608E-02  0.1330453E+00
          2   -1    0    0  501    0  0.00000000000E+00  0.00000000000E+00  0.35501740815E+01  0.35501749973E+01  0.25500000000E-02 0. -1.
         -1   -1    0    0    0  501 -0.00000000000E+00 -0.00000000000E+00 -0.44515955157E+03  0.44515955160E+03  0.50400000000E-02 0.  1.
         24    2    1    2    0    0  0.71054273576E-14  0.44408920985E-15 -0.44160937749E+03  0.44870972660E+03  0.79508342052E+02 0.  0.
         66    2    3    3    0    0  0.39478886491E+02  0.34987344825E+01 -0.20542111870E+03  0.20921916650E+03  0.20000003404E+01 0.  0.
        -13    1    3    3    0    0 -0.39478886491E+02 -0.34987344825E+01 -0.23618825879E+03  0.23949056010E+03  0.10566000000E+00 0.  1.
         13    1    4    4    0    0  0.21846938355E+02  0.17470134394E+01 -0.10885962617E+03  0.11104400094E+03  0.10566000000E+00 0. -1.
        -13    1    4    4    0    0  0.44567852684E+01  0.32368981087E+00 -0.25354201430E+02  0.25745182155E+02  0.10566000000E+00 0.  1.
        -14    1    4    4    0    0  0.13175162868E+02  0.14280312323E+01 -0.71207291098E+02  0.72429983400E+02  0.00000000000E+00 0.  1.
<mgrwt>
<rscale>  0 0.79508342E+02</rscale>
<asrwt>0</asrwt>
<pdfrwt beam="1">  1        2 0.54618105E-03 0.79508342E+02</pdfrwt>
<pdfrwt beam="2">  1       -1 0.68486041E-01 0.79508342E+02</pdfrwt>
<totfact> 0.72701385E+04</totfact>
</mgrwt>
</event>
<event>
 8    1  0.7667702E-014  0.7330936E+02  0.7818608E-02  0.1349188E+00
          2   -1    0    0  501    0  0.00000000000E+00  0.00000000000E+00  0.10918788183E+03  0.10918788186E+03  0.25500000000E-02 0. -1.
         -1   -1    0    0    0  501 -0.00000000000E+00 -0.00000000000E+00 -0.12305077330E+02  0.12305078362E+02  0.50400000000E-02 0.  1.
         24    2    1    2    0    0  0.00000000000E+00  0.00000000000E+00  0.96882804499E+02  0.12149296022E+03  0.73309355309E+02 0.  0.
         66    2    3    3    0    0 -0.15381338966E+02 -0.97334500673E+01  0.10115215663E+03  0.10279632496E+03  0.19999988267E+01 0.  0.
        -13    1    3    3    0    0  0.15381338966E+02  0.97334500673E+01 -0.42693521299E+01  0.18696635265E+02  0.10566000000E+00 0.  1.
         13    1    4    4    0    0 -0.13483252735E+01 -0.12285932006E+01  0.90122096059E+01  0.91955700373E+01  0.10566000000E+00 0. -1.
        -13    1    4    4    0    0 -0.30662999606E+01 -0.25028133366E+01  0.20736640612E+02  0.21111269454E+02  0.10566000000E+00 0.  1.
        -14    1    4    4    0    0 -0.10966713731E+02 -0.60020435301E+01  0.71403306411E+02  0.72489485465E+02  0.00000000000E+00 0.  1.
<mgrwt>
<rscale>  0 0.73309355E+02</rscale>
<asrwt>0</asrwt>
<pdfrwt beam="1">  1        2 0.16798136E-01 0.73309355E+02</pdfrwt>
<pdfrwt beam="2">  1       -1 0.18930888E-02 0.73309355E+02</pdfrwt>
<totfact> 0.22923146E+05</totfact>
</mgrwt>
</event>
<event>
 8    1  0.8171371E-014  0.8432384E+02  0.7818608E-02  0.1317210E+00
          2   -1    0    0  501    0  0.00000000000E+00  0.00000000000E+00  0.10261148091E+03  0.10261148094E+03  0.25500000000E-02 0. -1.
         -1   -1    0    0    0  501 -0.00000000000E+00 -0.00000000000E+00 -0.17323863056E+02  0.17323863790E+02  0.50400000000E-02 0.  1.
         24    2    1    2    0    0  0.17763568394E-14  0.35527136788E-14  0.85287617852E+02  0.11993534473E+03  0.84323835044E+02 0.  0.
         66    2    3    3    0    0 -0.12352399151E+02 -0.24312340695E+02  0.88358271058E+02  0.92492463140E+02  0.19999995883E+01 0.  0.
        -13    1    3    3    0    0  0.12352399151E+02  0.24312340695E+02 -0.30706532061E+01  0.27442881590E+02  0.10566000000E+00 0.  1.
         13    1    4    4    0    0 -0.85708517770E+01 -0.17264579791E+02  0.61959857403E+02  0.64888830387E+02  0.10566000000E+00 0. -1.
        -13    1    4    4    0    0 -0.29669167347E+01 -0.59110979498E+01  0.22895702360E+02  0.23832079734E+02  0.10566000000E+00 0.  1.
        -14    1    4    4    0    0 -0.81463063953E+00 -0.11366629533E+01  0.35027112953E+01  0.37715530179E+01  0.00000000000E+00 0.  1.
<mgrwt>
<rscale>  0 0.84323835E+02</rscale>
<asrwt>0</asrwt>
<pdfrwt beam="1">  1        2 0.15786381E-01 0.84323835E+02</pdfrwt>
<pdfrwt beam="2">  1       -1 0.26652098E-02 0.84323835E+02</pdfrwt>
<totfact> 0.15501227E+05</totfact>
</mgrwt>
</event>
<event>
 8    1  0.7667702E-014  0.8762775E+02  0.7818608E-02  0.1308700E+00
          2   -1    0    0  501    0  0.00000000000E+00  0.00000000000E+00  0.97940471050E+02  0.97940471083E+02  0.25500000000E-02 0. -1.
         -1   -1    0    0    0  501 -0.00000000000E+00 -0.00000000000E+00 -0.19600228038E+02  0.19600228686E+02  0.50400000000E-02 0.  1.
         24    2    1    2    0    0  0.00000000000E+00  0.00000000000E+00  0.78340243012E+02  0.11754069977E+03  0.87627749184E+02 0.  0.
         66    2    3    3    0    0  0.34114377850E+01  0.37427669080E+02  0.69339311997E+02  0.78894920650E+02  0.19999989183E+01 0.  0.
        -13    1    3    3    0    0 -0.34114377850E+01 -0.37427669080E+02  0.90009310149E+01  0.38645779119E+02  0.10566000000E+00 0.  1.
         13    1    4    4    0    0  0.75905375636E+00  0.12902405884E+02  0.22504735203E+02  0.25952312243E+02  0.10566000000E+00 0. -1.
        -13    1    4    4    0    0  0.20091211322E+01  0.20578618971E+02  0.39824012824E+02  0.44871809501E+02  0.10566000000E+00 0.  1.
        -14    1    4    4    0    0  0.64326289645E+00  0.39466442256E+01  0.70105639701E+01  0.80707989057E+01  0.00000000000E+00 0.  1.
<mgrwt>
<rscale>  0 0.87627749E+02</rscale>
<asrwt>0</asrwt>
<pdfrwt beam="1">  1        2 0.15067765E-01 0.87627749E+02</pdfrwt>
<pdfrwt beam="2">  1       -1 0.30154197E-02 0.87627749E+02</pdfrwt>
<totfact> 0.13787711E+05</totfact>
</mgrwt>
</event>
<event>
 8    1  0.7667702E-014  0.7914095E+02  0.7818608E-02  0.1331507E+00
         -1   -1    0    0    0  501 -0.00000000000E+00  0.00000000000E+00  0.37850082624E+01  0.37850116180E+01  0.50400000000E-02 0.  1.
          2   -1    0    0  501    0  0.00000000000E+00 -0.00000000000E+00 -0.41369042280E+03  0.41369042281E+03  0.25500000000E-02 0. -1.
         24    2    1    2    0    0  0.00000000000E+00 -0.17763568394E-14 -0.40990541454E+03  0.41747543443E+03  0.79140946935E+02 0.  0.
         66    2    3    3    0    0 -0.32505223918E+02 -0.14738846493E+02 -0.29491384855E+03  0.29707238384E+03  0.19999990395E+01 0.  0.
        -13    1    3    3    0    0  0.32505223918E+02  0.14738846493E+02 -0.11499156599E+03  0.12040305058E+03  0.10566000000E+00 0.  1.
         13    1    4    4    0    0 -0.25782310597E+01 -0.88229749259E+00 -0.25798996644E+02  0.25942727616E+02  0.10566000000E+00 0.  1.
        -13    1    4    4    0    0 -0.96753131257E+01 -0.47320417113E+01 -0.90856521122E+02  0.91492745599E+02  0.10566000000E+00 0. -1.
         14    1    4    4    0    0 -0.20251679733E+02 -0.91245072895E+01 -0.17825833078E+03  0.17963691063E+03  0.00000000000E+00 0. -1.
<mgrwt>
<rscale>  0 0.79140947E+02</rscale>
<asrwt>0</asrwt>
<pdfrwt beam="1">  1        2 0.63644645E-01 0.79140947E+02</pdfrwt>
<pdfrwt beam="2">  1       -1 0.58230955E-03 0.79140947E+02</pdfrwt>
<totfact> 0.29403215E+05</totfact>
</mgrwt>
</event>
<event>
 8    1  0.7667702E-014  0.8100708E+02  0.7818608E-02  0.1326218E+00
         -1   -1    0    0    0  501 -0.00000000000E+00  0.00000000000E+00  0.16481677315E+02  0.16481678086E+02  0.50400000000E-02 0.  1.
          2   -1    0    0  501    0  0.00000000000E+00 -0.00000000000E+00 -0.99536988213E+02  0.99536988246E+02  0.25500000000E-02 0. -1.
         24    2    1    2    0    0 -0.35527136788E-14 -0.88817841970E-15 -0.83055310898E+02  0.11601866633E+03  0.81007075425E+02 0.  0.
         66    2    3    3    0    0 -0.18520291160E+02  0.54549041884E+01 -0.92507460377E+02  0.94521888475E+02  0.20000027896E+01 0.  0.
        -13    1    3    3    0    0  0.18520291160E+02 -0.54549041884E+01  0.94521494793E+01  0.21496777856E+02  0.10566000000E+00 0.  1.
         13    1    4    4    0    0 -0.41482331774E+01  0.99794218511E+00 -0.23764889730E+02  0.24145079727E+02  0.10566000000E+00 0. -1.
        -13    1    4    4    0    0 -0.24617638609E+01  0.10429169188E+01 -0.11142991301E+02  0.11459728452E+02  0.10566000000E+00 0.  1.
        -14    1    4    4    0    0 -0.11910294122E+02  0.34140450844E+01 -0.57599579346E+02  0.58917080297E+02  0.00000000000E+00 0.  1.
<mgrwt>
<rscale>  0 0.81007075E+02</rscale>
<asrwt>0</asrwt>
<pdfrwt beam="1">  1        2 0.15313382E-01 0.81007075E+02</pdfrwt>
<pdfrwt beam="2">  1       -1 0.25356428E-02 0.81007075E+02</pdfrwt>
<totfact> 0.17118934E+05</totfact>
</mgrwt>
</event>
<event>
 8    1  0.7667702E-014  0.8008417E+02  0.7818608E-02  0.1328813E+00
          2   -1    0    0  501    0  0.00000000000E+00  0.00000000000E+00  0.39045584526E+03  0.39045584527E+03  0.25500000000E-02 0. -1.
         -1   -1    0    0    0  501 -0.00000000000E+00 -0.00000000000E+00 -0.41064004513E+01  0.41064035442E+01  0.50400000000E-02 0.  1.
         24    2    1    2    0    0  0.71054273576E-14  0.00000000000E+00  0.38634944481E+03  0.39456224881E+03  0.80084172494E+02 0.  0.
         66    2    3    3    0    0 -0.29185958335E+02 -0.16460101302E+01  0.32793698490E+03  0.32924336831E+03  0.19999997382E+01 0.  0.
        -13    1    3    3    0    0  0.29185958335E+02  0.16460101302E+01  0.58412459913E+02  0.65318880505E+02  0.10566000000E+00 0.  1.
         13    1    4    4    0    0 -0.11532766537E+02 -0.45005694473E+00  0.12280749782E+03  0.12334869249E+03  0.10566000000E+00 0. -1.
        -13    1    4    4    0    0 -0.91045625133E+01 -0.11104217198E+01  0.11007157473E+03  0.11045310690E+03  0.10566000000E+00 0.  1.
        -14    1    4    4    0    0 -0.85486292841E+01 -0.85531465616E-01  0.95057912347E+02  0.95441568920E+02  0.00000000000E+00 0.  1.
<mgrwt>
<rscale>  0 0.80084172E+02</rscale>
<asrwt>0</asrwt>
<pdfrwt beam="1">  1        2 0.60070113E-01 0.80084172E+02</pdfrwt>
<pdfrwt beam="2">  1       -1 0.63175434E-03 0.80084172E+02</pdfrwt>
<totfact> 0.27938489E+05</totfact>
</mgrwt>
</event>
<event>
 8    1  0.7667702E-014  0.7848890E+02  0.7818608E-02  0.1333395E+00
         -1   -1    0    0    0  501 -0.00000000000E+00  0.00000000000E+00  0.10925083245E+03  0.10925083256E+03  0.50400000000E-02 0.  1.
          2   -1    0    0  501    0  0.00000000000E+00 -0.00000000000E+00 -0.14097163738E+02  0.14097163969E+02  0.25500000000E-02 0. -1.
         24    2    1    2    0    0 -0.88817841970E-15  0.00000000000E+00  0.95153668709E+02  0.12334799653E+03  0.78488900997E+02 0.  0.
         66    2    3    3    0    0  0.68639982116E+01 -0.37563263835E+02  0.61664633491E+02  0.72557840938E+02  0.19999991528E+01 0.  0.
        -13    1    3    3    0    0 -0.68639982116E+01  0.37563263835E+02  0.33489035218E+02  0.50790155594E+02  0.10566000000E+00 0.  1.
         13    1    4    4    0    0  0.19421789292E+01 -0.12328575064E+02  0.18971875433E+02  0.22709228159E+02  0.10566000000E+00 0. -1.
        -13    1    4    4    0    0  0.32408361605E+01 -0.16389236792E+02  0.28731648780E+02  0.33235958047E+02  0.10566000000E+00 0.  1.
        -14    1    4    4    0    0  0.16809831219E+01 -0.88454519793E+01  0.13961109278E+02  0.16612654732E+02  0.00000000000E+00 0.  1.
<mgrwt>
<rscale>  0 0.78488901E+02</rscale>
<asrwt>0</asrwt>
<pdfrwt beam="1">  1        2 0.21687944E-02 0.78488901E+02</pdfrwt>
<pdfrwt beam="2">  1       -1 0.16807821E-01 0.78488901E+02</pdfrwt>
<totfact> 0.12195195E+05</totfact>
</mgrwt>
</event>
<event>
 8    1  0.7667702E-014  0.8078335E+02  0.7818608E-02  0.1326843E+00
          2   -1    0    0  501    0  0.00000000000E+00  0.00000000000E+00  0.94679680721E+03  0.94679680721E+03  0.25500000000E-02 0. -1.
         -1   -1    0    0    0  501 -0.00000000000E+00 -0.00000000000E+00 -0.17231617439E+01  0.17231691145E+01  0.50400000000E-02 0.  1.
         24    2    1    2    0    0  0.00000000000E+00  0.00000000000E+00  0.94507364547E+03  0.94851997633E+03  0.80783353103E+02 0.  0.
         66    2    3    3    0    0  0.51264025796E+01  0.19547458299E+02  0.88312433088E+03  0.88335777968E+03  0.20000030275E+01 0.  0.
        -13    1    3    3    0    0 -0.51264025796E+01 -0.19547458299E+02  0.61949314590E+02  0.65162196645E+02  0.10566000000E+00 0.  1.
         13    1    4    4    0    0  0.40261788451E+01  0.14643068886E+02  0.65061289184E+03  0.65079011653E+03  0.10566000000E+00 0. -1.
        -13    1    4    4    0    0  0.82651155227E+00  0.18227122504E+01  0.82681735765E+02  0.82706021513E+02  0.10566000000E+00 0.  1.
         14    1    4    4    0    0  0.27371218222E+00  0.30816771624E+01  0.14982970327E+03  0.14986164164E+03  0.00000000000E+00 0. -1.
<mgrwt>
<rscale>  0 0.80783353E+02</rscale>
<asrwt>0</asrwt>
<pdfrwt beam="1">  1        2 0.14566033E+00 0.80783353E+02</pdfrwt>
<pdfrwt beam="2">  1       -1 0.26510369E-03 0.80783353E+02</pdfrwt>
<totfact> 0.34236923E+05</totfact>
</mgrwt>
</event>
<event>
 8    1  0.7667702E-014  0.7955055E+02  0.7818608E-02  0.1330332E+00
         -1   -1    0    0    0  501 -0.00000000000E+00  0.00000000000E+00  0.22671805603E+02  0.22671806163E+02  0.50400000000E-02 0.  1.
          2   -1    0    0  501    0  0.00000000000E+00 -0.00000000000E+00 -0.69781488239E+02  0.69781488285E+02  0.25500000000E-02 0. -1.
         24    2    1    2    0    0  0.00000000000E+00  0.00000000000E+00 -0.47109682636E+02  0.92453294448E+02  0.79550546549E+02 0.  0.
         66    2    3    3    0    0  0.68732583864E+01  0.39138156291E+02 -0.24749453996E+02  0.46856935519E+02  0.19999936019E+01 0.  0.
        -13    1    3    3    0    0 -0.68732583864E+01 -0.39138156291E+02 -0.22360228640E+02  0.45596358929E+02  0.10566000000E+00 0.  1.
         13    1    4    4    0    0  0.33780237365E+01  0.17616779651E+02 -0.11030293839E+02  0.21058027349E+02  0.10566000000E+00 0. -1.
        -13    1    4    4    0    0  0.17148180122E+01  0.13604370484E+02 -0.91695988994E+01  0.16495823868E+02  0.10566000000E+00 0.  1.
        -14    1    4    4    0    0  0.17804166376E+01  0.79170061568E+01 -0.45495612574E+01  0.93030843017E+01  0.00000000000E+00 0.  1.
<mgrwt>
<rscale>  0 0.79550547E+02</rscale>
<asrwt>0</asrwt>
<pdfrwt beam="1">  1        2 0.10735614E-01 0.79550547E+02</pdfrwt>
<pdfrwt beam="2">  1       -1 0.34879702E-02 0.79550547E+02</pdfrwt>
<totfact> 0.16382063E+05</totfact>
</mgrwt>
</event>
<event>
 8    1  0.7667702E-014  0.8037954E+02  0.7818608E-02  0.1327978E+00
         -1   -1    0    0    0  501 -0.00000000000E+00  0.00000000000E+00  0.55456946635E+01  0.55456969537E+01  0.50400000000E-02 0.  1.
          2   -1    0    0  501    0  0.00000000000E+00 -0.00000000000E+00 -0.29125608821E+03  0.29125608822E+03  0.25500000000E-02 0. -1.
         24    2    1    2    0    0 -0.71054273576E-14 -0.88817841970E-15 -0.28571039355E+03  0.29680178518E+03  0.80379541567E+02 0.  0.
         66    2    3    3    0    0  0.26993110535E+02  0.42094267966E+01 -0.25166023389E+03  0.25314663855E+03  0.19999989889E+01 0.  0.
        -13    1    3    3    0    0 -0.26993110535E+02 -0.42094267966E+01 -0.34050159653E+02  0.43655146624E+02  0.10566000000E+00 0.  1.
         13    1    4    4    0    0  0.72800348129E+01  0.16702033290E+01 -0.73106142903E+02  0.73486786432E+02  0.10566000000E+00 0. -1.
        -13    1    4    4    0    0  0.27476653273E+01  0.64610244978E+00 -0.27051441427E+02  0.27198506585E+02  0.10566000000E+00 0. -1.
         14    1    4    4    0    0  0.16965410395E+02  0.18931210178E+01 -0.15150264956E+03  0.15246134553E+03  0.00000000000E+00 0. -1.
<mgrwt>
<rscale>  0 0.80379542E+02</rscale>
<asrwt>0</asrwt>
<pdfrwt beam="1">  1        2 0.44808617E-01 0.80379542E+02</pdfrwt>
<pdfrwt beam="2">  1       -1 0.85318420E-03 0.80379542E+02</pdfrwt>
<totfact> 0.24911552E+05</totfact>
</mgrwt>
</event>
<event>
 8    1  0.7667702E-014  0.7969449E+02  0.7818608E-02  0.1329921E+00
         -1   -1    0    0    0  501 -0.00000000000E+00  0.00000000000E+00  0.11065132473E+01  0.11065247255E+01  0.50400000000E-02 0.  1.
          2   -1    0    0  501    0  0.00000000000E+00 -0.00000000000E+00 -0.14349532861E+04  0.14349532861E+04  0.25500000000E-02 0. -1.
         24    2    1    2    0    0  0.00000000000E+00  0.00000000000E+00 -0.14338467729E+04  0.14360598108E+04  0.79694493251E+02 0.  0.
         66    2    3    3    0    0  0.10695988191E+02  0.19417607576E+02 -0.13134781824E+04  0.13136667702E+04  0.20000009867E+01 0.  0.
        -13    1    3    3    0    0 -0.10695988191E+02 -0.19417607576E+02 -0.12036859050E+03  0.12239304061E+03  0.10566000000E+00 0.  1.
         13    1    4    4    0    0  0.17276684446E+01  0.29697277736E+01 -0.18315185139E+03  0.18318410399E+03  0.10566000000E+00 0. -1.
        -13    1    4    4    0    0  0.62215941896E+00  0.15734245179E+01 -0.81118943855E+02  0.81136656101E+02  0.10566000000E+00 0.  1.
         14    1    4    4    0    0  0.83461603272E+01  0.14874455285E+02 -0.10492073871E+04  0.10493460101E+04  0.00000000000E+00 0. -1.
<mgrwt>
<rscale>  0 0.79694493E+02</rscale>
<asrwt>0</asrwt>
<pdfrwt beam="1">  1        2 0.22076055E+00 0.79694493E+02</pdfrwt>
<pdfrwt beam="2">  1       -1 0.17023484E-03 0.79694493E+02</pdfrwt>
<totfact> 0.34101722E+05</totfact>
</mgrwt>
</event>
<event>
 8    1  0.7667702E-014  0.8010017E+02  0.7818608E-02  0.1328767E+00
          2   -1    0    0  501    0  0.00000000000E+00  0.00000000000E+00  0.13451501182E+02  0.13451501424E+02  0.25500000000E-02 0. -1.
         -1   -1    0    0    0  501 -0.00000000000E+00 -0.00000000000E+00 -0.11924387341E+03  0.11924387352E+03  0.50400000000E-02 0.  1.
         24    2    1    2    0    0  0.00000000000E+00  0.35527136788E-14 -0.10579237223E+03  0.13269537494E+03  0.80100165475E+02 0.  0.
         66    2    3    3    0    0  0.21352325779E+02 -0.25760501799E+02 -0.16540791043E+02  0.37378109049E+02  0.19999996633E+01 0.  0.
        -13    1    3    3    0    0 -0.21352325779E+02  0.25760501799E+02 -0.89251581186E+02  0.95317265893E+02  0.10566000000E+00 0.  1.
         13    1    4    4    0    0  0.11636275560E+02 -0.14982217645E+02 -0.96177662105E+01  0.21269281731E+02  0.10566000000E+00 0. -1.
        -13    1    4    4    0    0  0.86755908749E+01 -0.91560813409E+01 -0.61352355424E+01  0.14026830781E+02  0.10566000000E+00 0.  1.
         14    1    4    4    0    0  0.10404593440E+01 -0.16222028135E+01 -0.78778929006E+00  0.20819965370E+01  0.00000000000E+00 0. -1.
<mgrwt>
<rscale>  0 0.80100165E+02</rscale>
<asrwt>0</asrwt>
<pdfrwt beam="1">  1        2 0.20694618E-02 0.80100165E+02</pdfrwt>
<pdfrwt beam="2">  1       -1 0.18345211E-01 0.80100165E+02</pdfrwt>
<totfact> 0.11365189E+05</totfact>
</mgrwt>
</event>
<event>
 8    1  0.7667702E-014  0.7802619E+02  0.7818608E-02  0.1334748E+00
         -1   -1    0    0    0  501 -0.00000000000E+00  0.00000000000E+00  0.44717171911E+02  0.44717172195E+02  0.50400000000E-02 0.  1.
          2   -1    0    0  501    0  0.00000000000E+00 -0.00000000000E+00 -0.34036627343E+02  0.34036627438E+02  0.25500000000E-02 0. -1.
         24    2    1    2    0    0  0.00000000000E+00  0.00000000000E+00  0.10680544568E+02  0.78753799633E+02  0.78026193835E+02 0.  0.
         66    2    3    3    0    0  0.37549526536E+02 -0.10441636094E+02  0.43233545945E+01  0.39264310705E+02  0.19999982133E+01 0.  0.
        -13    1    3    3    0    0 -0.37549526536E+02  0.10441636094E+02  0.63571899738E+01  0.39489488928E+02  0.10566000000E+00 0.  1.
         13    1    4    4    0    0  0.22450783853E+02 -0.65621336329E+01  0.20250400884E+01  0.23477888423E+02  0.10566000000E+00 0. -1.
        -13    1    4    4    0    0  0.93901299839E+01 -0.23655196702E+01  0.96677181729E+00  0.97322164077E+01  0.10566000000E+00 0.  1.
        -14    1    4    4    0    0  0.57086126991E+01 -0.15139827908E+01  0.13315426889E+01  0.60542058746E+01  0.00000000000E+00 0.  1.
<mgrwt>
<rscale>  0 0.78026194E+02</rscale>
<asrwt>0</asrwt>
<pdfrwt beam="1">  1        2 0.52364043E-02 0.78026194E+02</pdfrwt>
<pdfrwt beam="2">  1       -1 0.68795649E-02 0.78026194E+02</pdfrwt>
<totfact> 0.14788741E+05</totfact>
</mgrwt>
</event>
<event>
 8    1  0.7667702E-014  0.8160459E+02  0.7818608E-02  0.1324559E+00
         -1   -1    0    0    0  501 -0.00000000000E+00  0.00000000000E+00  0.87979800087E+01  0.87979814523E+01  0.50400000000E-02 0.  1.
          2   -1    0    0  501    0  0.00000000000E+00 -0.00000000000E+00 -0.18922833995E+03  0.18922833997E+03  0.25500000000E-02 0. -1.
         24    2    1    2    0    0  0.00000000000E+00  0.00000000000E+00 -0.18043035994E+03  0.19802632142E+03  0.81604590473E+02 0.  0.
         66    2    3    3    0    0 -0.13257870114E+02  0.38548978867E+02 -0.92728918610E+02  0.10131360836E+03  0.20000001850E+01 0.  0.
        -13    1    3    3    0    0  0.13257870114E+02 -0.38548978867E+02 -0.87701441331E+02  0.96712713059E+02  0.10566000000E+00 0.  1.
         13    1    4    4    0    0 -0.75306258113E+01  0.22748413584E+02 -0.52988678802E+02  0.58155067629E+02  0.10566000000E+00 0. -1.
        -13    1    4    4    0    0 -0.73357961166E+00  0.20599125540E+01 -0.44326205570E+01  0.49437503795E+01  0.10566000000E+00 0.  1.
        -14    1    4    4    0    0 -0.49936646910E+01  0.13740652729E+02 -0.35307619250E+02  0.38214790351E+02  0.00000000000E+00 0.  1.
<mgrwt>
<rscale>  0 0.81604590E+02</rscale>
<asrwt>0</asrwt>
<pdfrwt beam="1">  1        2 0.29112049E-01 0.81604590E+02</pdfrwt>
<pdfrwt beam="2">  1       -1 0.13535356E-02 0.81604590E+02</pdfrwt>
<totfact> 0.20533810E+05</totfact>
</mgrwt>
</event>
<event>
 8    1  0.7667702E-014  0.7991866E+02  0.7818608E-02  0.1329282E+00
         -1   -1    0    0    0  501 -0.00000000000E+00  0.00000000000E+00  0.27237636846E+03  0.27237636851E+03  0.50400000000E-02 0.  1.
          2   -1    0    0  501    0  0.00000000000E+00 -0.00000000000E+00 -0.58622858064E+01  0.58622863610E+01  0.25500000000E-02 0. -1.
         24    2    1    2    0    0  0.71054273576E-14  0.00000000000E+00  0.26651408266E+03  0.27823865487E+03  0.79918663715E+02 0.  0.
         66    2    3    3    0    0  0.39397844844E+02 -0.39257889826E+01  0.15147804404E+03  0.15657969161E+03  0.20000001070E+01 0.  0.
        -13    1    3    3    0    0 -0.39397844844E+02  0.39257889826E+01  0.11503603862E+03  0.12165896326E+03  0.10566000000E+00 0.  1.
         13    1    4    4    0    0  0.17656915138E+02 -0.12265911406E+01  0.67835844284E+02  0.70106947672E+02  0.10566000000E+00 0. -1.
        -13    1    4    4    0    0  0.77621349066E+01 -0.13995067552E+01  0.28500968869E+02  0.29572381507E+02  0.10566000000E+00 0.  1.
        -14    1    4    4    0    0  0.13978794799E+02 -0.12996910868E+01  0.55141230888E+02  0.56900362431E+02  0.00000000000E+00 0.  1.
<mgrwt>
<rscale>  0 0.79918664E+02</rscale>
<asrwt>0</asrwt>
<pdfrwt beam="1">  1        2 0.90189045E-03 0.79918664E+02</pdfrwt>
<pdfrwt beam="2">  1       -1 0.41904044E-01 0.79918664E+02</pdfrwt>
<totfact> 0.89991845E+04</totfact>
</mgrwt>
</event>
<event>
 8    1  0.7667702E-014  0.7867578E+02  0.7818608E-02  0.1332852E+00
          2   -1    0    0  501    0  0.00000000000E+00  0.00000000000E+00  0.14061126154E+03  0.14061126156E+03  0.25500000000E-02 0. -1.
         -1   -1    0    0    0  501 -0.00000000000E+00 -0.00000000000E+00 -0.11005301768E+02  0.11005302923E+02  0.50400000000E-02 0.  1.
         24    2    1    2    0    0  0.71054273576E-14  0.00000000000E+00  0.12960595977E+03  0.15161656448E+03  0.78675776564E+02 0.  0.
         66    2    3    3    0    0  0.18659688904E+02 -0.58154780747E+01  0.13057744100E+03  0.13204723350E+03  0.20000005279E+01 0.  0.
        -13    1    3    3    0    0 -0.18659688904E+02  0.58154780747E+01 -0.97148123152E+00  0.19569330981E+02  0.10566000000E+00 0.  1.
         13    1    4    4    0    0  0.87463194290E-01 -0.53095665006E-01  0.94254214733E+00  0.95394900026E+00  0.10566000000E+00 0.  1.
        -13    1    4    4    0    0  0.13439187125E+01 -0.34162938216E+00  0.71541288391E+01  0.72880416864E+01  0.10566000000E+00 0.  1.
         14    1    4    4    0    0  0.17228306997E+02 -0.54207530275E+01  0.12248077001E+03  0.12380524281E+03  0.00000000000E+00 0. -1.
<mgrwt>
<rscale>  0 0.78675777E+02</rscale>
<asrwt>0</asrwt>
<pdfrwt beam="1">  1        2 0.21632501E-01 0.78675777E+02</pdfrwt>
<pdfrwt beam="2">  1       -1 0.16931235E-02 0.78675777E+02</pdfrwt>
<totfact> 0.20510056E+05</totfact>
</mgrwt>
</event>
<event>
 8    1  0.7667702E-014  0.8017592E+02  0.7818608E-02  0.1328553E+00
         -1   -1    0    0    0  501 -0.00000000000E+00  0.00000000000E+00  0.18231812336E+02  0.18231813032E+02  0.50400000000E-02 0.  1.
          2   -1    0    0  501    0  0.00000000000E+00 -0.00000000000E+00 -0.88145075196E+02  0.88145075233E+02  0.25500000000E-02 0. -1.
         24    2    1    2    0    0  0.00000000000E+00 -0.17763568394E-14 -0.69913262861E+02  0.10637688827E+03  0.80175919285E+02 0.  0.
         66    2    3    3    0    0 -0.37066385904E+02 -0.15089569736E+02 -0.32521973833E+02  0.51607081455E+02  0.19999988711E+01 0.  0.
        -13    1    3    3    0    0  0.37066385904E+02  0.15089569736E+02 -0.37391289027E+02  0.54769806810E+02  0.10566000000E+00 0.  1.
         13    1    4    4    0    0 -0.65946359204E+01 -0.28834783231E+01 -0.65457822394E+01  0.97294449648E+01  0.10566000000E+00 0. -1.
        -13    1    4    4    0    0 -0.83330013230E+01 -0.27883915543E+01 -0.71170135473E+01  0.11308275040E+02  0.10566000000E+00 0.  1.
        -14    1    4    4    0    0 -0.22138748661E+02 -0.94176998590E+01 -0.18859178047E+02  0.30569361451E+02  0.00000000000E+00 0.  1.
<mgrwt>
<rscale>  0 0.80175919E+02</rscale>
<asrwt>0</asrwt>
<pdfrwt beam="1">  1        2 0.13560781E-01 0.80175919E+02</pdfrwt>
<pdfrwt beam="2">  1       -1 0.28048943E-02 0.80175919E+02</pdfrwt>
<totfact> 0.17024084E+05</totfact>
</mgrwt>
</event>
<event>
 8    1  0.7667702E-014  0.8033469E+02  0.7818608E-02  0.1328104E+00
         -1   -1    0    0    0  501 -0.00000000000E+00  0.00000000000E+00  0.32111646922E+02  0.32111647317E+02  0.50400000000E-02 0.  1.
          2   -1    0    0  501    0  0.00000000000E+00 -0.00000000000E+00 -0.50243932069E+02  0.50243932134E+02  0.25500000000E-02 0. -1.
         24    2    1    2    0    0 -0.35527136788E-14  0.00000000000E+00 -0.18132285147E+02  0.82355579451E+02  0.80334685548E+02 0.  0.
         66    2    3    3    0    0  0.21224118561E+02  0.24891090300E+02  0.14781164642E+02  0.35951528700E+02  0.20000006767E+01 0.  0.
        -13    1    3    3    0    0 -0.21224118561E+02 -0.24891090300E+02 -0.32913449789E+02  0.46404050751E+02  0.10566000000E+00 0.  1.
         13    1    4    4    0    0  0.40453237658E+01  0.41536679970E+01  0.22047038092E+01  0.62039894520E+01  0.10566000000E+00 0. -1.
        -13    1    4    4    0    0  0.27073880192E+01  0.26007067432E+01  0.17421335615E+01  0.41400264289E+01  0.10566000000E+00 0.  1.
        -14    1    4    4    0    0  0.14471406776E+02  0.18136715560E+02  0.10834327271E+02  0.25607512819E+02  0.00000000000E+00 0.  1.
<mgrwt>
<rscale>  0 0.80334686E+02</rscale>
<asrwt>0</asrwt>
<pdfrwt beam="1">  1        2 0.77298357E-02 0.80334686E+02</pdfrwt>
<pdfrwt beam="2">  1       -1 0.49402535E-02 0.80334686E+02</pdfrwt>
<totfact> 0.14788733E+05</totfact>
</mgrwt>
</event>
<event>
 8    1  0.7667702E-014  0.8104756E+02  0.7818608E-02  0.1326105E+00
          2   -1    0    0  501    0  0.00000000000E+00  0.00000000000E+00  0.11794093903E+04  0.11794093903E+04  0.25500000000E-02 0. -1.
         -1   -1    0    0    0  501 -0.00000000000E+00 -0.00000000000E+00 -0.13923677092E+01  0.13923768309E+01  0.50400000000E-02 0.  1.
         24    2    1    2    0    0  0.00000000000E+00 -0.17763568394E-14  0.11780170226E+04  0.11808017671E+04  0.81047564751E+02 0.  0.
         66    2    3    3    0    0 -0.23248396484E+02 -0.14452126785E+02  0.10242087182E+04  0.10245764249E+04  0.20000033973E+01 0.  0.
        -13    1    3    3    0    0  0.23248396484E+02  0.14452126785E+02  0.15380830431E+03  0.15622534220E+03  0.10566000000E+00 0.  1.
         13    1    4    4    0    0 -0.35570880478E+01 -0.26151173517E+01  0.17367551744E+03  0.17373165582E+03  0.10566000000E+00 0. -1.
        -13    1    4    4    0    0 -0.66716710686E+01 -0.48054761769E+01  0.31135425725E+03  0.31146282036E+03  0.10566000000E+00 0.  1.
         14    1    4    4    0    0 -0.13019637367E+02 -0.70315332565E+01  0.53917894356E+03  0.53938194871E+03  0.00000000000E+00 0. -1.
<mgrwt>
<rscale>  0 0.81047565E+02</rscale>
<asrwt>0</asrwt>
<pdfrwt beam="1">  1        2 0.18144820E+00 0.81047565E+02</pdfrwt>
<pdfrwt beam="2">  1       -1 0.21421042E-03 0.81047565E+02</pdfrwt>
<totfact> 0.33933450E+05</totfact>
</mgrwt>
</event>
<event>
 8    1  0.7667702E-014  0.7982921E+02  0.7818608E-02  0.1329537E+00
          2   -1    0    0  501    0  0.00000000000E+00  0.00000000000E+00  0.37343545297E+02  0.37343545384E+02  0.25500000000E-02 0. -1.
         -1   -1    0    0    0  501 -0.00000000000E+00 -0.00000000000E+00 -0.42662683537E+02  0.42662683835E+02  0.50400000000E-02 0.  1.
         24    2    1    2    0    0 -0.35527136788E-14  0.00000000000E+00 -0.53191382402E+01  0.80006229219E+02  0.79829214466E+02 0.  0.
         66    2    3    3    0    0  0.18044879259E+02  0.20399262382E+02  0.26548260675E+02  0.38086188059E+02  0.20000007088E+01 0.  0.
        -13    1    3    3    0    0 -0.18044879259E+02 -0.20399262382E+02 -0.31867398915E+02  0.41920041160E+02  0.10566000000E+00 0.  1.
         13    1    4    4    0    0  0.42864334046E+01  0.47509756556E+01  0.65522050023E+01  0.91590302675E+01  0.10566000000E+00 0. -1.
        -13    1    4    4    0    0  0.73685909422E+01  0.96083200642E+01  0.11418461967E+02  0.16643568868E+02  0.10566000000E+00 0.  1.
         14    1    4    4    0    0  0.63898549127E+01  0.60399666618E+01  0.85775937056E+01  0.12283588924E+02  0.00000000000E+00 0. -1.
<mgrwt>
<rscale>  0 0.79829214E+02</rscale>
<asrwt>0</asrwt>
<pdfrwt beam="1">  1        2 0.57451608E-02 0.79829214E+02</pdfrwt>
<pdfrwt beam="2">  1       -1 0.65634899E-02 0.79829214E+02</pdfrwt>
<totfact> 0.14140149E+05</totfact>
</mgrwt>
</event>
<event>
 8    1  0.7667702E-014  0.7971640E+02  0.7818608E-02  0.1329858E+00
          2   -1    0    0  501    0  0.00000000000E+00  0.00000000000E+00  0.41599653397E+01  0.41599661212E+01  0.25500000000E-02 0. -1.
         -1   -1    0    0    0  501 -0.00000000000E+00 -0.00000000000E+00 -0.38189647834E+03  0.38189647837E+03  0.50400000000E-02 0.  1.
         24    2    1    2    0    0  0.00000000000E+00  0.00000000000E+00 -0.37773651300E+03  0.38605644449E+03  0.79716404096E+02 0.  0.
         66    2    3    3    0    0 -0.36858515559E+02  0.53653603845E+01 -0.25736125951E+03  0.26005029354E+03  0.20000031520E+01 0.  0.
        -13    1    3    3    0    0  0.36858515559E+02 -0.53653603845E+01 -0.12037525348E+03  0.12600615095E+03  0.10566000000E+00 0.  1.
         13    1    4    4    0    0 -0.55606386314E+01  0.99346911189E+00 -0.38702046132E+02  0.39112238771E+02  0.10566000000E+00 0. -1.
        -13    1    4    4    0    0 -0.22662565707E+02  0.33787993786E+01 -0.16365839974E+03  0.16525462516E+03  0.10566000000E+00 0.  1.
        -14    1    4    4    0    0 -0.86353112207E+01  0.99309189402E+00 -0.55000813647E+02  0.55683429611E+02  0.00000000000E+00 0.  1.
<mgrwt>
<rscale>  0 0.79716404E+02</rscale>
<asrwt>0</asrwt>
<pdfrwt beam="1">  1        2 0.63999503E-03 0.79716404E+02</pdfrwt>
<pdfrwt beam="2">  1       -1 0.58753277E-01 0.79716404E+02</pdfrwt>
<totfact> 0.78301351E+04</totfact>
</mgrwt>
</event>
<event>
 8    1  0.7667702E-014  0.7985618E+02  0.7818608E-02  0.1329460E+00
          2   -1    0    0  501    0  0.00000000000E+00  0.00000000000E+00  0.11977777865E+04  0.11977777865E+04  0.25500000000E-02 0. -1.
         -1   -1    0    0    0  501 -0.00000000000E+00 -0.00000000000E+00 -0.13310037017E+01  0.13310132440E+01  0.50400000000E-02 0.  1.
         24    2    1    2    0    0  0.17763568394E-14  0.35527136788E-14  0.11964467828E+04  0.11991087998E+04  0.79856180485E+02 0.  0.
         66    2    3    3    0    0  0.12375854043E+02  0.15844441350E+02  0.11161632592E+04  0.11163461064E+04  0.19999997892E+01 0.  0.
        -13    1    3    3    0    0 -0.12375854043E+02 -0.15844441350E+02  0.80283523641E+02  0.82762693391E+02  0.10566000000E+00 0.  1.
         13    1    4    4    0    0  0.51477796422E+01  0.65984220942E+01  0.44362652338E+03  0.44370546787E+03  0.10566000000E+00 0.  1.
        -13    1    4    4    0    0  0.61301629348E+01  0.85492592390E+01  0.60188640671E+03  0.60197834386E+03  0.10566000000E+00 0. -1.
        -14    1    4    4    0    0  0.10979114655E+01  0.69676001726E+00  0.70650329096E+02  0.70662294652E+02  0.00000000000E+00 0.  1.
<mgrwt>
<rscale>  0 0.79856180E+02</rscale>
<asrwt>0</asrwt>
<pdfrwt beam="1">  1        2 0.18427384E+00 0.79856180E+02</pdfrwt>
<pdfrwt beam="2">  1       -1 0.20477016E-03 0.79856180E+02</pdfrwt>
<totfact> 0.35209253E+05</totfact>
</mgrwt>
</event>
<event>
 8    1  0.7667702E-014  0.7866470E+02  0.7818608E-02  0.1332884E+00
          2   -1    0    0  501    0  0.00000000000E+00  0.00000000000E+00  0.12998744411E+04  0.12998744411E+04  0.25500000000E-02 0. -1.
         -1   -1    0    0    0  501 -0.00000000000E+00 -0.00000000000E+00 -0.11901356074E+01  0.11901462791E+01  0.50400000000E-02 0.  1.
         24    2    1    2    0    0 -0.35527136788E-14 -0.11102230246E-15  0.12986843055E+04  0.13010645874E+04  0.78664701141E+02 0.  0.
         66    2    3    3    0    0  0.23946951883E+02  0.51837570330E+00  0.11652224937E+04  0.11654703707E+04  0.20000027569E+01 0.  0.
        -13    1    3    3    0    0 -0.23946951883E+02 -0.51837570330E+00  0.13346181177E+03  0.13559421663E+03  0.10566000000E+00 0.  1.
         13    1    4    4    0    0  0.15794262019E+02  0.91046064105E+00  0.78421394126E+03  0.78437351083E+03  0.10566000000E+00 0. -1.
        -13    1    4    4    0    0  0.26296539298E+01  0.21837718272E+00  0.12973405152E+03  0.12976092654E+03  0.10566000000E+00 0.  1.
        -14    1    4    4    0    0  0.55230359340E+01 -0.61046212048E+00  0.25127450092E+03  0.25133593337E+03  0.00000000000E+00 0.  1.
<mgrwt>
<rscale>  0 0.78664701E+02</rscale>
<asrwt>0</asrwt>
<pdfrwt beam="1">  1        2 0.19998027E+00 0.78664701E+02</pdfrwt>
<pdfrwt beam="2">  1       -1 0.18309899E-03 0.78664701E+02</pdfrwt>
<totfact> 0.36163046E+05</totfact>
</mgrwt>
</event>
<event>
 8    1  0.7667702E-014  0.7936426E+02  0.7818608E-02  0.1330865E+00
         -1   -1    0    0    0  501 -0.00000000000E+00  0.00000000000E+00  0.20426044614E+02  0.20426045236E+02  0.50400000000E-02 0.  1.
          2   -1    0    0  501    0  0.00000000000E+00 -0.00000000000E+00 -0.77091356735E+02  0.77091356778E+02  0.25500000000E-02 0. -1.
         24    2    1    2    0    0  0.00000000000E+00  0.00000000000E+00 -0.56665312121E+02  0.97517402014E+02  0.79364262094E+02 0.  0.
         66    2    3    3    0    0 -0.10968496145E+02  0.99206220366E+01 -0.73562923276E+02  0.75061510224E+02  0.19999967451E+01 0.  0.
        -13    1    3    3    0    0  0.10968496145E+02 -0.99206220366E+01  0.16897611155E+02  0.22455891789E+02  0.10566000000E+00 0.  1.
         13    1    4    4    0    0 -0.32225276138E+01  0.28947076751E+01 -0.22606002657E+02  0.23017526733E+02  0.10566000000E+00 0. -1.
        -13    1    4    4    0    0 -0.31137640879E+01  0.36509458775E+01 -0.25778411828E+02  0.26221415160E+02  0.10566000000E+00 0.  1.
         14    1    4    4    0    0 -0.46322044437E+01  0.33749684840E+01 -0.25178508791E+02  0.25822568331E+02  0.00000000000E+00 0. -1.
<mgrwt>
<rscale>  0 0.79364262E+02</rscale>
<asrwt>0</asrwt>
<pdfrwt beam="1">  1        2 0.11860209E-01 0.79364262E+02</pdfrwt>
<pdfrwt beam="2">  1       -1 0.31424685E-02 0.79364262E+02</pdfrwt>
<totfact> 0.16898479E+05</totfact>
</mgrwt>
</event>
<event>
 8    1  0.7667702E-014  0.7990193E+02  0.7818608E-02  0.1329330E+00
         -1   -1    0    0    0  501 -0.00000000000E+00  0.00000000000E+00  0.22003303862E+02  0.22003304439E+02  0.50400000000E-02 0.  1.
          2   -1    0    0  501    0  0.00000000000E+00 -0.00000000000E+00 -0.72538183534E+02  0.72538183579E+02  0.25500000000E-02 0. -1.
         24    2    1    2    0    0  0.00000000000E+00  0.00000000000E+00 -0.50534879672E+02  0.94541488018E+02  0.79901932975E+02 0.  0.
         66    2    3    3    0    0 -0.32392534759E+02  0.51434993759E+01 -0.52221745394E+02  0.61699615752E+02  0.19999995205E+01 0.  0.
        -13    1    3    3    0    0  0.32392534759E+02 -0.51434993759E+01  0.16868657212E+01  0.32841872266E+02  0.10566000000E+00 0.  1.
         13    1    4    4    0    0 -0.22985766490E+02  0.34856181361E+01 -0.36963543067E+02  0.43667031901E+02  0.10566000000E+00 0. -1.
        -13    1    4    4    0    0 -0.32892185157E+01  0.10111851388E+01 -0.49820768459E+01  0.60558820632E+01  0.10566000000E+00 0.  1.
        -14    1    4    4    0    0 -0.61175497530E+01  0.64669610101E+00 -0.10276125480E+02  0.11976701788E+02  0.00000000000E+00 0.  1.
<mgrwt>
<rscale>  0 0.79901933E+02</rscale>
<asrwt>0</asrwt>
<pdfrwt beam="1">  1        2 0.11159720E-01 0.79901933E+02</pdfrwt>
<pdfrwt beam="2">  1       -1 0.33851238E-02 0.79901933E+02</pdfrwt>
<totfact> 0.16342619E+05</totfact>
</mgrwt>
</event>
<event>
 8    1  0.7667702E-014  0.8024372E+02  0.7818608E-02  0.1328361E+00
         -1   -1    0    0    0  501 -0.00000000000E+00  0.00000000000E+00  0.78363823654E+01  0.78363839862E+01  0.50400000000E-02 0.  1.
          2   -1    0    0  501    0  0.00000000000E+00 -0.00000000000E+00 -0.20542174048E+03  0.20542174050E+03  0.25500000000E-02 0. -1.
         24    2    1    2    0    0  0.00000000000E+00  0.00000000000E+00 -0.19758535812E+03  0.21325812448E+03  0.80243715744E+02 0.  0.
         66    2    3    3    0    0 -0.55403608873E+01  0.36659287960E+02 -0.13943472838E+03  0.14429359813E+03  0.19999975474E+01 0.  0.
        -13    1    3    3    0    0  0.55403608873E+01 -0.36659287960E+02 -0.58150629735E+02  0.68964526353E+02  0.10566000000E+00 0.  1.
         13    1    4    4    0    0 -0.50213097103E+00  0.46132458172E+01 -0.16863416740E+02  0.17490573481E+02  0.10566000000E+00 0. -1.
        -13    1    4    4    0    0 -0.28699718853E+01  0.20849532389E+02 -0.76680855660E+02  0.79516693393E+02  0.10566000000E+00 0.  1.
        -14    1    4    4    0    0 -0.21682580309E+01  0.11196509754E+02 -0.45890455981E+02  0.47286331256E+02  0.00000000000E+00 0.  1.
<mgrwt>
<rscale>  0 0.80243716E+02</rscale>
<asrwt>0</asrwt>
<pdfrwt beam="1">  1        2 0.31603341E-01 0.80243716E+02</pdfrwt>
<pdfrwt beam="2">  1       -1 0.12055976E-02 0.80243716E+02</pdfrwt>
<totfact> 0.22086987E+05</totfact>
</mgrwt>
</event>
<event>
 8    1  0.7667702E-014  0.7882190E+02  0.7818608E-02  0.1332428E+00
         -1   -1    0    0    0  501 -0.00000000000E+00  0.00000000000E+00  0.17064745238E+02  0.17064745982E+02  0.50400000000E-02 0.  1.
          2   -1    0    0  501    0  0.00000000000E+00 -0.00000000000E+00 -0.91019408899E+02  0.91019408934E+02  0.25500000000E-02 0. -1.
         24    2    1    2    0    0 -0.44408920985E-15  0.00000000000E+00 -0.73954663661E+02  0.10808415492E+03  0.78821902203E+02 0.  0.
         66    2    3    3    0    0 -0.33764985932E+01 -0.32247353434E+02 -0.67660765161E+02  0.75055124223E+02  0.19999959156E+01 0.  0.
        -13    1    3    3    0    0  0.33764985932E+01  0.32247353434E+02 -0.62938984991E+01  0.33029030694E+02  0.10566000000E+00 0.  1.
         13    1    4    4    0    0 -0.23266667844E+01 -0.17268693897E+02 -0.36012032812E+02  0.40006234996E+02  0.10566000000E+00 0. -1.
        -13    1    4    4    0    0  0.15481944037E+00 -0.14186380304E+01 -0.25774692418E+01  0.29480526876E+01  0.10566000000E+00 0.  1.
        -14    1    4    4    0    0 -0.12046512492E+01 -0.13560021506E+02 -0.29071263107E+02  0.32100836540E+02  0.00000000000E+00 0.  1.
<mgrwt>
<rscale>  0 0.78821902E+02</rscale>
<asrwt>0</asrwt>
<pdfrwt beam="1">  1        2 0.14002986E-01 0.78821902E+02</pdfrwt>
<pdfrwt beam="2">  1       -1 0.26253455E-02 0.78821902E+02</pdfrwt>
<totfact> 0.17974516E+05</totfact>
</mgrwt>
</event>
<event>
 8    1  0.7667702E-014  0.7928984E+02  0.7818608E-02  0.1331079E+00
          2   -1    0    0  501    0  0.00000000000E+00  0.00000000000E+00  0.18849729480E+02  0.18849729653E+02  0.25500000000E-02 0. -1.
         -1   -1    0    0    0  501 -0.00000000000E+00 -0.00000000000E+00 -0.83381560726E+02  0.83381560878E+02  0.50400000000E-02 0.  1.
         24    2    1    2    0    0  0.00000000000E+00  0.00000000000E+00 -0.64531831245E+02  0.10223129053E+03  0.79289844998E+02 0.  0.
         66    2    3    3    0    0 -0.16442408018E+02 -0.22200531719E+02  0.43293738576E+01  0.28034975782E+02  0.19999997678E+01 0.  0.
        -13    1    3    3    0    0  0.16442408018E+02  0.22200531719E+02 -0.68861205103E+02  0.74196314749E+02  0.10566000000E+00 0.  1.
         13    1    4    4    0    0 -0.13640317603E+02 -0.18619738880E+02  0.30597684121E+01  0.23283605542E+02  0.10566000000E+00 0. -1.
        -13    1    4    4    0    0 -0.14406278709E+01 -0.19427368656E+01  0.93537728423E+00  0.25953284746E+01  0.10566000000E+00 0.  1.
        -14    1    4    4    0    0 -0.13614625431E+01 -0.16380559738E+01  0.33422816126E+00  0.21560417653E+01  0.00000000000E+00 0.  1.
<mgrwt>
<rscale>  0 0.79289845E+02</rscale>
<asrwt>0</asrwt>
<pdfrwt beam="1">  1        2 0.28999585E-02 0.79289845E+02</pdfrwt>
<pdfrwt beam="2">  1       -1 0.12827932E-01 0.79289845E+02</pdfrwt>
<totfact> 0.12586223E+05</totfact>
</mgrwt>
</event>
<event>
 8    1  0.7667702E-014  0.7911418E+02  0.7818608E-02  0.1331584E+00
         -1   -1    0    0    0  501 -0.00000000000E+00  0.00000000000E+00  0.53857883604E+02  0.53857883840E+02  0.50400000000E-02 0.  1.
          2   -1    0    0  501    0  0.00000000000E+00 -0.00000000000E+00 -0.29053561037E+02  0.29053561148E+02  0.25500000000E-02 0. -1.
         24    2    1    2    0    0  0.71054273576E-14  0.22204460493E-15  0.24804322567E+02  0.82911444988E+02  0.79114178830E+02 0.  0.
         66    2    3    3    0    0  0.31177926723E+02  0.11414011745E+01 -0.13032591122E+02  0.33870552735E+02  0.19999999627E+01 0.  0.
        -13    1    3    3    0    0 -0.31177926723E+02 -0.11414011745E+01  0.37836913689E+02  0.49040892253E+02  0.10566000000E+00 0.  1.
         13    1    4    4    0    0  0.17366922034E+02  0.47173594376E+00 -0.75343180601E+01  0.18936991007E+02  0.10566000000E+00 0. -1.
        -13    1    4    4    0    0  0.76667190987E+01 -0.24031099740E+00 -0.29116058218E+01  0.82051778537E+01  0.10566000000E+00 0.  1.
        -14    1    4    4    0    0  0.61442855900E+01  0.90997622811E+00 -0.25866672402E+01  0.67283838742E+01  0.00000000000E+00 0.  1.
<mgrwt>
<rscale>  0 0.79114179E+02</rscale>
<asrwt>0</asrwt>
<pdfrwt beam="1">  1        2 0.44697787E-02 0.79114179E+02</pdfrwt>
<pdfrwt beam="2">  1       -1 0.82858282E-02 0.79114179E+02</pdfrwt>
<totfact> 0.13794591E+05</totfact>
</mgrwt>
</event>
<event>
 8    1  0.7667702E-014  0.7927319E+02  0.7818608E-02  0.1331127E+00
          2   -1    0    0  501    0  0.00000000000E+00  0.00000000000E+00  0.71446239306E+03  0.71446239307E+03  0.25500000000E-02 0. -1.
         -1   -1    0    0    0  501 -0.00000000000E+00 -0.00000000000E+00 -0.21989366869E+01  0.21989424627E+01  0.50400000000E-02 0.  1.
         24    2    1    2    0    0 -0.17763568394E-14  0.55511151231E-16  0.71226345638E+03  0.71666133553E+03  0.79273189384E+02 0.  0.
         66    2    3    3    0    0  0.12830387462E+02 -0.44158845027E+00  0.69513050814E+03  0.69525192353E+03  0.19999967067E+01 0.  0.
        -13    1    3    3    0    0 -0.12830387462E+02  0.44158845027E+00  0.17132948238E+02  0.21409411999E+02  0.10566000000E+00 0.  1.
         13    1    4    4    0    0  0.34542190164E+01 -0.98694763970E+00  0.19029499718E+03  0.19032893319E+03  0.10566000000E+00 0. -1.
        -13    1    4    4    0    0  0.75364763876E+01  0.33590903874E+00  0.40971600706E+03  0.40978546695E+03  0.10566000000E+00 0.  1.
         14    1    4    4    0    0  0.18396920580E+01  0.20945015070E+00  0.95119503892E+02  0.95137523390E+02  0.00000000000E+00 0. -1.
<mgrwt>
<rscale>  0 0.79273189E+02</rscale>
<asrwt>0</asrwt>
<pdfrwt beam="1">  1        2 0.10991729E+00 0.79273189E+02</pdfrwt>
<pdfrwt beam="2">  1       -1 0.33829840E-03 0.79273189E+02</pdfrwt>
<totfact> 0.34412341E+05</totfact>
</mgrwt>
</event>
<event>
 8    1  0.7667702E-014  0.8081244E+02  0.7818608E-02  0.1326762E+00
         -1   -1    0    0    0  501 -0.00000000000E+00  0.00000000000E+00  0.74761024992E+01  0.74761041980E+01  0.50400000000E-02 0.  1.
          2   -1    0    0  501    0  0.00000000000E+00 -0.00000000000E+00 -0.21838417072E+03  0.21838417073E+03  0.25500000000E-02 0. -1.
         24    2    1    2    0    0  0.71054273576E-14  0.00000000000E+00 -0.21090806822E+03  0.22586027493E+03  0.80812440578E+02 0.  0.
         66    2    3    3    0    0 -0.38505438004E+02 -0.50806286232E+01 -0.74625820283E+02  0.84151616729E+02  0.20000005069E+01 0.  0.
        -13    1    3    3    0    0  0.38505438004E+02  0.50806286232E+01 -0.13628224794E+03  0.14170865820E+03  0.10566000000E+00 0.  1.
         13    1    4    4    0    0 -0.28695521435E+02 -0.42038268221E+01 -0.54215254319E+02  0.61485039442E+02  0.10566000000E+00 0. -1.
        -13    1    4    4    0    0 -0.92920974706E+01 -0.79173131357E+00 -0.19118127796E+02  0.21271668678E+02  0.10566000000E+00 0.  1.
         14    1    4    4    0    0 -0.51781909877E+00 -0.85070487534E-01 -0.12924381680E+01  0.13949086082E+01  0.00000000000E+00 0. -1.
<mgrwt>
<rscale>  0 0.80812441E+02</rscale>
<asrwt>0</asrwt>
<pdfrwt beam="1">  1        2 0.33597560E-01 0.80812441E+02</pdfrwt>
<pdfrwt beam="2">  1       -1 0.11501699E-02 0.80812441E+02</pdfrwt>
<totfact> 0.22150089E+05</totfact>
</mgrwt>
</event>
<event>
 8    1  0.7667702E-014  0.8497002E+02  0.7818608E-02  0.1315511E+00
         -1   -1    0    0    0  501 -0.00000000000E+00  0.00000000000E+00  0.77481175353E+01  0.77481191745E+01  0.50400000000E-02 0.  1.
          2   -1    0    0  501    0  0.00000000000E+00 -0.00000000000E+00 -0.23295669940E+03  0.23295669941E+03  0.25500000000E-02 0. -1.
         24    2    1    2    0    0  0.00000000000E+00  0.00000000000E+00 -0.22520858186E+03  0.24070481859E+03  0.84970020278E+02 0.  0.
         66    2    3    3    0    0  0.20107331251E+02 -0.60043602660E+01 -0.21723610952E+03  0.21825646471E+03  0.19999996408E+01 0.  0.
        -13    1    3    3    0    0 -0.20107331251E+02  0.60043602660E+01 -0.79724723429E+01  0.22448353871E+02  0.10566000000E+00 0.  1.
         13    1    4    4    0    0  0.12196666738E+02 -0.34015610380E+01 -0.13547036013E+03  0.13606086482E+03  0.10566000000E+00 0. -1.
        -13    1    4    4    0    0  0.44128583023E+00  0.19710244057E-02 -0.30855070049E+01  0.31186943713E+01  0.10566000000E+00 0. -1.
         14    1    4    4    0    0  0.74693786819E+01 -0.26047702525E+01 -0.78680242380E+02  0.79076905522E+02  0.00000000000E+00 0. -1.
<mgrwt>
<rscale>  0 0.84970020E+02</rscale>
<asrwt>0</asrwt>
<pdfrwt beam="1">  1        2 0.35839487E-01 0.84970020E+02</pdfrwt>
<pdfrwt beam="2">  1       -1 0.11920184E-02 0.84970020E+02</pdfrwt>
<totfact> 0.19850567E+05</totfact>
</mgrwt>
</event>
<event>
 8    1  0.7667702E-014  0.7984013E+02  0.7818608E-02  0.1329506E+00
         -1   -1    0    0    0  501 -0.00000000000E+00  0.00000000000E+00  0.90331561344E+01  0.90331575404E+01  0.50400000000E-02 0.  1.
          2   -1    0    0  501    0  0.00000000000E+00 -0.00000000000E+00 -0.17641799711E+03  0.17641799713E+03  0.25500000000E-02 0. -1.
         24    2    1    2    0    0  0.44408920985E-15  0.00000000000E+00 -0.16738484097E+03  0.18545115467E+03  0.79840126375E+02 0.  0.
         66    2    3    3    0    0  0.23851343043E+01  0.29915080664E+02 -0.14480370884E+03  0.14789426969E+03  0.19999991065E+01 0.  0.
        -13    1    3    3    0    0 -0.23851343043E+01 -0.29915080664E+02 -0.22581132137E+02  0.37556884980E+02  0.10566000000E+00 0.  1.
         13    1    4    4    0    0  0.10232288080E+01  0.91774001612E+01 -0.46285564752E+02  0.47197842529E+02  0.10566000000E+00 0. -1.
        -13    1    4    4    0    0  0.98575294273E+00  0.55082088111E+01 -0.26151746260E+02  0.26743916498E+02  0.10566000000E+00 0.  1.
         14    1    4    4    0    0  0.37615255353E+00  0.15229471692E+02 -0.72366397826E+02  0.73952510661E+02  0.00000000000E+00 0. -1.
<mgrwt>
<rscale>  0 0.79840126E+02</rscale>
<asrwt>0</asrwt>
<pdfrwt beam="1">  1        2 0.27141228E-01 0.79840126E+02</pdfrwt>
<pdfrwt beam="2">  1       -1 0.13897166E-02 0.79840126E+02</pdfrwt>
<totfact> 0.21242191E+05</totfact>
</mgrwt>
</event>
<event>
 8    1  0.7667702E-014  0.8126625E+02  0.7818608E-02  0.1325496E+00
         -1   -1    0    0    0  501 -0.00000000000E+00  0.00000000000E+00  0.22889191870E+02  0.22889192425E+02  0.50400000000E-02 0.  1.
          2   -1    0    0  501    0  0.00000000000E+00 -0.00000000000E+00 -0.72132325822E+02  0.72132325867E+02  0.25500000000E-02 0. -1.
         24    2    1    2    0    0  0.00000000000E+00  0.00000000000E+00 -0.49243133952E+02  0.95021518292E+02  0.81266245742E+02 0.  0.
         66    2    3    3    0    0 -0.40558065323E+02 -0.18871334280E+01 -0.23787004105E+02  0.47099251587E+02  0.20000001256E+01 0.  0.
        -13    1    3    3    0    0  0.40558065323E+02  0.18871334280E+01 -0.25456129846E+02  0.47922266704E+02  0.10566000000E+00 0.  1.
         13    1    4    4    0    0 -0.89142829647E+01 -0.78118064987E+00 -0.47718695627E+01  0.10141823660E+02  0.10566000000E+00 0.  1.
        -13    1    4    4    0    0 -0.81260681176E+01 -0.68289208109E+00 -0.44295133386E+01  0.92806830082E+01  0.10566000000E+00 0. -1.
         14    1    4    4    0    0 -0.23517714240E+02 -0.42306069703E+00 -0.14585621204E+02  0.27676744920E+02  0.00000000000E+00 0. -1.
<mgrwt>
<rscale>  0 0.81266246E+02</rscale>
<asrwt>0</asrwt>
<pdfrwt beam="1">  1        2 0.11097281E-01 0.81266246E+02</pdfrwt>
<pdfrwt beam="2">  1       -1 0.35214142E-02 0.81266246E+02</pdfrwt>
<totfact> 0.15588926E+05</totfact>
</mgrwt>
</event>
<event>
 8    1  0.7667702E-014  0.8234918E+02  0.7818608E-02  0.1322514E+00
          2   -1    0    0  501    0  0.00000000000E+00  0.00000000000E+00  0.62535247646E+02  0.62535247698E+02  0.25500000000E-02 0. -1.
         -1   -1    0    0    0  501 -0.00000000000E+00 -0.00000000000E+00 -0.27110262902E+02  0.27110263371E+02  0.50400000000E-02 0.  1.
         24    2    1    2    0    0  0.00000000000E+00 -0.35527136788E-14  0.35424984743E+02  0.89645511068E+02  0.82349184031E+02 0.  0.
         66    2    3    3    0    0  0.10554710899E+01  0.26467852288E+02  0.52004046613E+02  0.58395908183E+02  0.20000011212E+01 0.  0.
        -13    1    3    3    0    0 -0.10554710899E+01 -0.26467852288E+02 -0.16579061869E+02  0.31249602885E+02  0.10566000000E+00 0.  1.
         13    1    4    4    0    0  0.17108228305E-01  0.19628832459E+01  0.38789601905E+01  0.43486434119E+01  0.10566000000E+00 0. -1.
        -13    1    4    4    0    0  0.13270132500E+01  0.22926023316E+02  0.45579430277E+02  0.51037820660E+02  0.10566000000E+00 0.  1.
        -14    1    4    4    0    0 -0.28865038841E+00  0.15789457269E+01  0.25456561447E+01  0.30094441118E+01  0.00000000000E+00 0.  1.
<mgrwt>
<rscale>  0 0.82349184E+02</rscale>
<asrwt>0</asrwt>
<pdfrwt beam="1">  1        2 0.96208073E-02 0.82349184E+02</pdfrwt>
<pdfrwt beam="2">  1       -1 0.41708097E-02 0.82349184E+02</pdfrwt>
<totfact> 0.14526082E+05</totfact>
</mgrwt>
</event>
<event>
 8    1  0.8694139E-014  0.8124819E+02  0.7818608E-02  0.1325546E+00
         -1   -1    0    0    0  501 -0.00000000000E+00  0.00000000000E+00  0.60487943673E+02  0.60487943883E+02  0.50400000000E-02 0.  1.
          2   -1    0    0  501    0  0.00000000000E+00 -0.00000000000E+00 -0.27283405187E+02  0.27283405307E+02  0.25500000000E-02 0. -1.
         24    2    1    2    0    0 -0.71054273576E-14 -0.88817841970E-15  0.33204538485E+02  0.87771349190E+02  0.81248189903E+02 0.  0.
         66    2    3    3    0    0  0.38006065803E+02  0.49810261406E+01  0.21574154828E+01  0.38443804450E+02  0.19999999371E+01 0.  0.
        -13    1    3    3    0    0 -0.38006065803E+02 -0.49810261406E+01  0.31047123003E+02  0.49327544740E+02  0.10566000000E+00 0.  1.
         13    1    4    4    0    0  0.23070706436E+02  0.30898212977E+01  0.14206000718E+01  0.23320243560E+02  0.10566000000E+00 0. -1.
        -13    1    4    4    0    0  0.13004808510E+02  0.18687118941E+01  0.29077918068E+00  0.13142025912E+02  0.10566000000E+00 0.  1.
        -14    1    4    4    0    0  0.19305508576E+01  0.22492948792E-01  0.44603623040E+00  0.19815349770E+01  0.00000000000E+00 0.  1.
<mgrwt>
<rscale>  0 0.81248190E+02</rscale>
<asrwt>0</asrwt>
<pdfrwt beam="1">  1        2 0.41974470E-02 0.81248190E+02</pdfrwt>
<pdfrwt beam="2">  1       -1 0.93058374E-02 0.81248190E+02</pdfrwt>
<totfact> 0.12641519E+05</totfact>
</mgrwt>
</event>
<event>
 8    1  0.7667702E-014  0.7875971E+02  0.7818608E-02  0.1332608E+00
         -1   -1    0    0    0  501 -0.00000000000E+00  0.00000000000E+00  0.11395145867E+01  0.11395257325E+01  0.50400000000E-02 0.  1.
          2   -1    0    0  501    0  0.00000000000E+00 -0.00000000000E+00 -0.13609000311E+04  0.13609000311E+04  0.25500000000E-02 0. -1.
         24    2    1    2    0    0  0.44408920985E-15  0.35527136788E-14 -0.13597605165E+04  0.13620395569E+04  0.78759711240E+02 0.  0.
         66    2    3    3    0    0 -0.37415645882E+01 -0.18645136878E+02 -0.12761638437E+04  0.12763070933E+04  0.20000003992E+01 0.  0.
        -13    1    3    3    0    0  0.37415645882E+01  0.18645136878E+02 -0.83596672863E+02  0.85732463586E+02  0.10566000000E+00 0.  1.
         13    1    4    4    0    0 -0.18316133838E+01 -0.73639822586E+01 -0.52399713808E+03  0.52405209180E+03  0.10566000000E+00 0. -1.
        -13    1    4    4    0    0 -0.90651404237E+00 -0.69399783324E+01 -0.41822297077E+03  0.41828154336E+03  0.10566000000E+00 0.  1.
        -14    1    4    4    0    0 -0.10034371621E+01 -0.43411762873E+01 -0.33394373482E+03  0.33397345811E+03  0.00000000000E+00 0.  1.
<mgrwt>
<rscale>  0 0.78759711E+02</rscale>
<asrwt>0</asrwt>
<pdfrwt beam="1">  1        2 0.20936794E+00 0.78759711E+02</pdfrwt>
<pdfrwt beam="2">  1       -1 0.17531188E-03 0.78759711E+02</pdfrwt>
<totfact> 0.35688165E+05</totfact>
</mgrwt>
</event>
<event>
 8    1  0.7667702E-014  0.8075403E+02  0.7818608E-02  0.1326925E+00
          2   -1    0    0  501    0  0.00000000000E+00  0.00000000000E+00  0.47424552124E+03  0.47424552125E+03  0.25500000000E-02 0. -1.
         -1   -1    0    0    0  501 -0.00000000000E+00 -0.00000000000E+00 -0.34376763986E+01  0.34376800932E+01  0.50400000000E-02 0.  1.
         24    2    1    2    0    0 -0.35527136788E-14 -0.35527136788E-14  0.47080784484E+03  0.47768320134E+03  0.80754034439E+02 0.  0.
         66    2    3    3    0    0 -0.18100919148E+02 -0.27848709319E+02  0.37109764842E+03  0.37258644440E+03  0.20000008711E+01 0.  0.
        -13    1    3    3    0    0  0.18100919148E+02  0.27848709319E+02  0.99710196421E+02  0.10509675694E+03  0.10566000000E+00 0.  1.
         13    1    4    4    0    0 -0.10118948414E+02 -0.14442705626E+02  0.20224070165E+03  0.20300812159E+03  0.10566000000E+00 0. -1.
        -13    1    4    4    0    0 -0.11345321530E+01 -0.16755381463E+01  0.19471207619E+02  0.19576355163E+02  0.10566000000E+00 0.  1.
         14    1    4    4    0    0 -0.68474385808E+01 -0.11730465547E+02  0.14938573915E+03  0.15000196764E+03  0.00000000000E+00 0. -1.
<mgrwt>
<rscale>  0 0.80754034E+02</rscale>
<asrwt>0</asrwt>
<pdfrwt beam="1">  1        2 0.72960837E-01 0.80754034E+02</pdfrwt>
<pdfrwt beam="2">  1       -1 0.52887367E-03 0.80754034E+02</pdfrwt>
<totfact> 0.29211449E+05</totfact>
</mgrwt>
</event>
<event>
 8    1  0.7667702E-014  0.7969445E+02  0.7818608E-02  0.1329921E+00
         -1   -1    0    0    0  501 -0.00000000000E+00  0.00000000000E+00  0.28664654907E+01  0.28664699215E+01  0.50400000000E-02 0.  1.
          2   -1    0    0  501    0  0.00000000000E+00 -0.00000000000E+00 -0.55392257769E+03  0.55392257770E+03  0.25500000000E-02 0. -1.
         24    2    1    2    0    0 -0.35527136788E-14 -0.71054273576E-14 -0.55105611220E+03  0.55678904762E+03  0.79694446195E+02 0.  0.
         66    2    3    3    0    0 -0.16495776594E+02 -0.22152616612E+02 -0.47612458239E+03  0.47692920545E+03  0.19999954650E+01 0.  0.
        -13    1    3    3    0    0  0.16495776594E+02  0.22152616612E+02 -0.74931529808E+02  0.79859842172E+02  0.10566000000E+00 0.  1.
         13    1    4    4    0    0 -0.85219060348E+01 -0.11232553065E+02 -0.23425711193E+03  0.23468105757E+03  0.10566000000E+00 0. -1.
        -13    1    4    4    0    0 -0.18116665182E+01 -0.18097006976E+01 -0.50145422564E+02  0.50210872531E+02  0.10566000000E+00 0.  1.
        -14    1    4    4    0    0 -0.61622040414E+01 -0.91103628502E+01 -0.19172204790E+03  0.19203727535E+03  0.00000000000E+00 0.  1.
<mgrwt>
<rscale>  0 0.79694446E+02</rscale>
<asrwt>0</asrwt>
<pdfrwt beam="1">  1        2 0.85218773E-01 0.79694446E+02</pdfrwt>
<pdfrwt beam="2">  1       -1 0.44099547E-03 0.79694446E+02</pdfrwt>
<totfact> 0.31744559E+05</totfact>
</mgrwt>
</event>
<event>
 8    1  0.7667702E-014  0.8329635E+02  0.7818608E-02  0.1319949E+00
          2   -1    0    0  501    0  0.00000000000E+00  0.00000000000E+00  0.85924156890E+02  0.85924156928E+02  0.25500000000E-02 0. -1.
         -1   -1    0    0    0  501 -0.00000000000E+00 -0.00000000000E+00 -0.20187224526E+02  0.20187225155E+02  0.50400000000E-02 0.  1.
         24    2    1    2    0    0 -0.22204460493E-15  0.71054273576E-14  0.65736932363E+02  0.10611138208E+03  0.83296345244E+02 0.  0.
         66    2    3    3    0    0 -0.12243917557E+01  0.41503483631E+02  0.29167440812E+02  0.50781668862E+02  0.20000000567E+01 0.  0.
        -13    1    3    3    0    0  0.12243917557E+01 -0.41503483631E+02  0.36569491552E+02  0.55329713221E+02  0.10566000000E+00 0.  1.
         13    1    4    4    0    0  0.69623340073E-01  0.10140330162E+02  0.73322252172E+01  0.12514145351E+02  0.10566000000E+00 0. -1.
        -13    1    4    4    0    0 -0.25924366048E+00  0.19603691709E+02  0.13036023912E+02  0.23544023007E+02  0.10566000000E+00 0.  1.
         14    1    4    4    0    0 -0.10347714353E+01  0.11759461760E+02  0.87991916820E+01  0.14723500503E+02  0.00000000000E+00 0. -1.
<mgrwt>
<rscale>  0 0.83296345E+02</rscale>
<asrwt>0</asrwt>
<pdfrwt beam="1">  1        2 0.13219101E-01 0.83296345E+02</pdfrwt>
<pdfrwt beam="2">  1       -1 0.31057270E-02 0.83296345E+02</pdfrwt>
<totfact> 0.15254298E+05</totfact>
</mgrwt>
</event>
<event>
 8    1  0.7667702E-014  0.7857891E+02  0.7818608E-02  0.1333133E+00
          2   -1    0    0  501    0  0.00000000000E+00  0.00000000000E+00  0.15181677844E+03  0.15181677846E+03  0.25500000000E-02 0. -1.
         -1   -1    0    0    0  501 -0.00000000000E+00 -0.00000000000E+00 -0.10167922852E+02  0.10167924101E+02  0.50400000000E-02 0.  1.
         24    2    1    2    0    0  0.00000000000E+00  0.00000000000E+00  0.14164885558E+03  0.16198470256E+03  0.78578913040E+02 0.  0.
         66    2    3    3    0    0  0.19888930411E+02  0.32190835479E+02  0.92474587227E+02  0.99936823672E+02  0.20000003081E+01 0.  0.
        -13    1    3    3    0    0 -0.19888930411E+02 -0.32190835479E+02  0.49174268357E+02  0.62047878885E+02  0.10566000000E+00 0.  1.
         13    1    4    4    0    0  0.11619344663E+02  0.18855303035E+02  0.55810063315E+02  0.60044200004E+02  0.10566000000E+00 0. -1.
        -13    1    4    4    0    0  0.36627937542E+00  0.95668183955E+00  0.26332826481E+01  0.28274975267E+01  0.10566000000E+00 0.  1.
        -14    1    4    4    0    0  0.79033063719E+01  0.12378850605E+02  0.34031241264E+02  0.37065126141E+02  0.00000000000E+00 0.  1.
<mgrwt>
<rscale>  0 0.78578913E+02</rscale>
<asrwt>0</asrwt>
<pdfrwt beam="1">  1        2 0.23356428E-01 0.78578913E+02</pdfrwt>
<pdfrwt beam="2">  1       -1 0.15642959E-02 0.78578913E+02</pdfrwt>
<totfact> 0.21086200E+05</totfact>
</mgrwt>
</event>
<event>
 8    1  0.7667702E-014  0.8051619E+02  0.7818608E-02  0.1327593E+00
          2   -1    0    0  501    0  0.00000000000E+00  0.00000000000E+00  0.63179003881E+03  0.63179003881E+03  0.25500000000E-02 0. -1.
         -1   -1    0    0    0  501 -0.00000000000E+00 -0.00000000000E+00 -0.25652709916E+01  0.25652759426E+01  0.50400000000E-02 0.  1.
         24    2    1    2    0    0  0.00000000000E+00  0.00000000000E+00  0.62922476782E+03  0.63435531476E+03  0.80516190454E+02 0.  0.
         66    2    3    3    0    0 -0.27569396685E+02 -0.21925315261E+02  0.46796698410E+03  0.46929509831E+03  0.19999997263E+01 0.  0.
        -13    1    3    3    0    0  0.27569396685E+02  0.21925315261E+02  0.16125778371E+03  0.16506021645E+03  0.10566000000E+00 0.  1.
         13    1    4    4    0    0 -0.18780763192E+02 -0.14181081104E+02  0.31906515837E+03  0.31993187802E+03  0.10566000000E+00 0. -1.
        -13    1    4    4    0    0 -0.76262999129E+01 -0.64701248566E+01  0.12545880644E+03  0.12585684822E+03  0.10566000000E+00 0.  1.
        -14    1    4    4    0    0 -0.11623335795E+01 -0.12741093004E+01  0.23443019299E+02  0.23506372066E+02  0.00000000000E+00 0.  1.
<mgrwt>
<rscale>  0 0.80516190E+02</rscale>
<asrwt>0</asrwt>
<pdfrwt beam="1">  1        2 0.97198439E-01 0.80516190E+02</pdfrwt>
<pdfrwt beam="2">  1       -1 0.39465757E-03 0.80516190E+02</pdfrwt>
<totfact> 0.32075236E+05</totfact>
</mgrwt>
</event>
<event>
 8    1  0.7919118E-014  0.8074202E+02  0.7818608E-02  0.1326959E+00
          2   -1    0    0  501    0  0.00000000000E+00  0.00000000000E+00  0.28120109899E+03  0.28120109900E+03  0.25500000000E-02 0. -1.
         -1   -1    0    0    0  501 -0.00000000000E+00 -0.00000000000E+00 -0.57959160939E+01  0.57959182853E+01  0.50400000000E-02 0.  1.
         24    2    1    2    0    0  0.00000000000E+00  0.35527136788E-14  0.27540518289E+03  0.28699701728E+03  0.80742016110E+02 0.  0.
         66    2    3    3    0    0 -0.27004629417E+02  0.29324324750E+02  0.11568964136E+03  0.12238161277E+03  0.19999985638E+01 0.  0.
        -13    1    3    3    0    0  0.27004629417E+02 -0.29324324750E+02  0.15971554153E+03  0.16461540451E+03  0.10566000000E+00 0.  1.
         13    1    4    4    0    0 -0.11502950407E+02  0.13063086041E+02  0.50394487124E+02  0.53315828621E+02  0.10566000000E+00 0. -1.
        -13    1    4    4    0    0 -0.61661548881E+01  0.74351496346E+01  0.27676493787E+02  0.29313860008E+02  0.10566000000E+00 0.  1.
        -14    1    4    4    0    0 -0.93355241222E+01  0.88260890737E+01  0.37618660453E+02  0.39751924145E+02  0.00000000000E+00 0.  1.
<mgrwt>
<rscale>  0 0.80742016E+02</rscale>
<asrwt>0</asrwt>
<pdfrwt beam="1">  1        2 0.43261701E-01 0.80742016E+02</pdfrwt>
<pdfrwt beam="2">  1       -1 0.89167970E-03 0.80742016E+02</pdfrwt>
<totfact> 0.24307392E+05</totfact>
</mgrwt>
</event>
<event>
 8    1  0.7667702E-014  0.7638302E+02  0.7818608E-02  0.1339641E+00
          2   -1    0    0  501    0  0.00000000000E+00  0.00000000000E+00  0.13639116444E+04  0.13639116444E+04  0.25500000000E-02 0. -1.
         -1   -1    0    0    0  501 -0.00000000000E+00 -0.00000000000E+00 -0.10694119834E+01  0.10694238597E+01  0.50400000000E-02 0.  1.
         24    2    1    2    0    0  0.00000000000E+00 -0.44408920985E-15  0.13628422324E+04  0.13649810682E+04  0.76383023346E+02 0.  0.
         66    2    3    3    0    0 -0.15480774969E+02  0.28777849627E+01  0.13031566910E+04  0.13032533511E+04  0.19999954365E+01 0.  0.
        -13    1    3    3    0    0  0.15480774969E+02 -0.28777849627E+01  0.59685541413E+02  0.61727717094E+02  0.10566000000E+00 0.  1.
         13    1    4    4    0    0 -0.89948764728E+00  0.46667710973E+00  0.11171795638E+03  0.11172260205E+03  0.10566000000E+00 0. -1.
        -13    1    4    4    0    0 -0.12977795914E+02  0.23891072249E+01  0.10738472524E+04  0.10739283326E+04  0.10566000000E+00 0. -1.
         14    1    4    4    0    0 -0.16034914068E+01  0.22000628121E-01  0.11759148220E+03  0.11760241645E+03  0.00000000000E+00 0. -1.
<mgrwt>
<rscale>  0 0.76383023E+02</rscale>
<asrwt>0</asrwt>
<pdfrwt beam="1">  1        2 0.20983316E+00 0.76383023E+02</pdfrwt>
<pdfrwt beam="2">  1       -1 0.16452536E-03 0.76383023E+02</pdfrwt>
<totfact> 0.38613523E+05</totfact>
</mgrwt>
</event>
<event>
 8    1  0.7667702E-014  0.8012623E+02  0.7818608E-02  0.1328694E+00
          2   -1    0    0  501    0  0.00000000000E+00  0.00000000000E+00  0.47399859347E+02  0.47399859416E+02  0.25500000000E-02 0. -1.
         -1   -1    0    0    0  501 -0.00000000000E+00 -0.00000000000E+00 -0.33861984434E+02  0.33861984809E+02  0.50400000000E-02 0.  1.
         24    2    1    2    0    0  0.00000000000E+00  0.00000000000E+00  0.13537874914E+02  0.81261844225E+02  0.80126233342E+02 0.  0.
         66    2    3    3    0    0  0.21770845557E+02  0.29803676544E+02  0.22511441318E+02  0.43278098888E+02  0.20000003300E+01 0.  0.
        -13    1    3    3    0    0 -0.21770845557E+02 -0.29803676544E+02 -0.89735664041E+01  0.37983745337E+02  0.10566000000E+00 0.  1.
         13    1    4    4    0    0  0.51979680086E+01  0.62938013601E+01  0.43627049870E+01  0.92560880407E+01  0.10566000000E+00 0. -1.
        -13    1    4    4    0    0  0.11349048146E+01  0.19703354996E+01  0.14015838067E+01  0.26731689288E+01  0.10566000000E+00 0.  1.
         14    1    4    4    0    0  0.15437972734E+02  0.21539539684E+02  0.16747152524E+02  0.31348841918E+02  0.00000000000E+00 0. -1.
<mgrwt>
<rscale>  0 0.80126233E+02</rscale>
<asrwt>0</asrwt>
<pdfrwt beam="1">  1        2 0.72922861E-02 0.80126233E+02</pdfrwt>
<pdfrwt beam="2">  1       -1 0.52095361E-02 0.80126233E+02</pdfrwt>
<totfact> 0.14707841E+05</totfact>
</mgrwt>
</event>
<event>
 8    1  0.7667702E-014  0.7990001E+02  0.7818608E-02  0.1329335E+00
         -1   -1    0    0    0  501 -0.00000000000E+00  0.00000000000E+00  0.41744040508E+01  0.41744070933E+01  0.50400000000E-02 0.  1.
          2   -1    0    0  501    0  0.00000000000E+00 -0.00000000000E+00 -0.38233055301E+03  0.38233055302E+03  0.25500000000E-02 0. -1.
         24    2    1    2    0    0  0.35527136788E-14  0.35527136788E-14 -0.37815614896E+03  0.38650496012E+03  0.79900007481E+02 0.  0.
         66    2    3    3    0    0  0.20800876000E+02  0.18396743465E+02 -0.32796021977E+03  0.32913982188E+03  0.19999968927E+01 0.  0.
        -13    1    3    3    0    0 -0.20800876000E+02 -0.18396743465E+02 -0.50195929198E+02  0.57365138234E+02  0.10566000000E+00 0.  1.
         13    1    4    4    0    0  0.15409808952E+02  0.13871881050E+02 -0.25241585834E+03  0.25326600246E+03  0.10566000000E+00 0. -1.
        -13    1    4    4    0    0  0.10039716607E+01  0.98754546129E+00 -0.13238352168E+02  0.13313464511E+02  0.10566000000E+00 0.  1.
         14    1    4    4    0    0  0.43870953870E+01  0.35373169540E+01 -0.62306009254E+02  0.62560354909E+02  0.00000000000E+00 0. -1.
<mgrwt>
<rscale>  0 0.79900007E+02</rscale>
<asrwt>0</asrwt>
<pdfrwt beam="1">  1        2 0.58820058E-01 0.79900007E+02</pdfrwt>
<pdfrwt beam="2">  1       -1 0.64221655E-03 0.79900007E+02</pdfrwt>
<totfact> 0.27899429E+05</totfact>
</mgrwt>
</event>
<event>
 8    1  0.7667702E-014  0.7816060E+02  0.7818608E-02  0.1334354E+00
          2   -1    0    0  501    0  0.00000000000E+00  0.00000000000E+00  0.15120705416E+03  0.15120705418E+03  0.25500000000E-02 0. -1.
         -1   -1    0    0    0  501 -0.00000000000E+00 -0.00000000000E+00 -0.10100518853E+02  0.10100520111E+02  0.50400000000E-02 0.  1.
         24    2    1    2    0    0 -0.17763568394E-14  0.71054273576E-14  0.14110653531E+03  0.16130757429E+03  0.78160598883E+02 0.  0.
         66    2    3    3    0    0  0.11948881674E+02 -0.36452761151E+02  0.85720825482E+02  0.93934229522E+02  0.19999964267E+01 0.  0.
        -13    1    3    3    0    0 -0.11948881674E+02  0.36452761151E+02  0.55385709827E+02  0.67373344773E+02  0.10566000000E+00 0.  1.
         13    1    4    4    0    0  0.12394098853E+01 -0.26302916850E+01  0.61694376308E+01  0.68211213102E+01  0.10566000000E+00 0. -1.
        -13    1    4    4    0    0  0.22323578101E+00 -0.67465102682E+00  0.12852245240E+01  0.14723974785E+01  0.10566000000E+00 0. -1.
         14    1    4    4    0    0  0.10486236007E+02 -0.33147818439E+02  0.78266163327E+02  0.85640710733E+02  0.00000000000E+00 0. -1.
<mgrwt>
<rscale>  0 0.78160599E+02</rscale>
<asrwt>0</asrwt>
<pdfrwt beam="1">  1        2 0.23262623E-01 0.78160599E+02</pdfrwt>
<pdfrwt beam="2">  1       -1 0.15539261E-02 0.78160599E+02</pdfrwt>
<totfact> 0.21358543E+05</totfact>
</mgrwt>
</event>
<event>
 8    1  0.7667702E-014  0.8028379E+02  0.7818608E-02  0.1328248E+00
          2   -1    0    0  501    0  0.00000000000E+00  0.00000000000E+00  0.36167316783E+03  0.36167316784E+03  0.25500000000E-02 0. -1.
         -1   -1    0    0    0  501 -0.00000000000E+00 -0.00000000000E+00 -0.44553245772E+01  0.44553274279E+01  0.50400000000E-02 0.  1.
         24    2    1    2    0    0 -0.35527136788E-14  0.35527136788E-14  0.35721784325E+03  0.36612849527E+03  0.80283793559E+02 0.  0.
         66    2    3    3    0    0 -0.13614220962E+02  0.12685537543E+02  0.34079743057E+03  0.34131094116E+03  0.19999994902E+01 0.  0.
        -13    1    3    3    0    0  0.13614220962E+02 -0.12685537543E+02  0.16420412687E+02  0.24817554110E+02  0.10566000000E+00 0.  1.
         13    1    4    4    0    0 -0.46404526606E+01  0.43420855078E+01  0.10152856123E+03  0.10172731893E+03  0.10566000000E+00 0. -1.
        -13    1    4    4    0    0 -0.27189886154E+01  0.28623455220E+01  0.81845402412E+02  0.81940630831E+02  0.10566000000E+00 0.  1.
         14    1    4    4    0    0 -0.62547796859E+01  0.54811065129E+01  0.15742346692E+03  0.15764299139E+03  0.00000000000E+00 0. -1.
<mgrwt>
<rscale>  0 0.80283794E+02</rscale>
<asrwt>0</asrwt>
<pdfrwt beam="1">  1        2 0.55642031E-01 0.80283794E+02</pdfrwt>
<pdfrwt beam="2">  1       -1 0.68543472E-03 0.80283794E+02</pdfrwt>
<totfact> 0.27014915E+05</totfact>
</mgrwt>
</event>
<event>
 8    1  0.7667702E-014  0.8189235E+02  0.7818608E-02  0.1323765E+00
         -1   -1    0    0    0  501 -0.00000000000E+00  0.00000000000E+00  0.38173083859E+02  0.38173084192E+02  0.50400000000E-02 0.  1.
          2   -1    0    0  501    0  0.00000000000E+00 -0.00000000000E+00 -0.43920717012E+02  0.43920717086E+02  0.25500000000E-02 0. -1.
         24    2    1    2    0    0  0.55511151231E-16 -0.71054273576E-14 -0.57476331528E+01  0.82093801278E+02  0.81892349590E+02 0.  0.
         66    2    3    3    0    0  0.27479664546E+00 -0.34718738798E+02 -0.24587936198E+02  0.42591465653E+02  0.20000007446E+01 0.  0.
        -13    1    3    3    0    0 -0.27479664546E+00  0.34718738798E+02  0.18840303046E+02  0.39502335625E+02  0.10566000000E+00 0.  1.
         13    1    4    4    0    0 -0.12811348308E+00 -0.48034604150E+01 -0.41112786225E+01  0.63248257659E+01  0.10566000000E+00 0. -1.
        -13    1    4    4    0    0  0.79753961653E-01 -0.42864793857E+01 -0.33233443859E+01  0.54254998075E+01  0.10566000000E+00 0.  1.
         14    1    4    4    0    0  0.32315616689E+00 -0.25628798998E+02 -0.17153313190E+02  0.30841140079E+02  0.00000000000E+00 0. -1.
<mgrwt>
<rscale>  0 0.81892350E+02</rscale>
<asrwt>0</asrwt>
<pdfrwt beam="1">  1        2 0.67570334E-02 0.81892350E+02</pdfrwt>
<pdfrwt beam="2">  1       -1 0.58727821E-02 0.81892350E+02</pdfrwt>
<totfact> 0.13627052E+05</totfact>
</mgrwt>
</event>
<event>
 8    1  0.7667702E-014  0.8319061E+02  0.7818608E-02  0.1320233E+00
          2   -1    0    0  501    0  0.00000000000E+00  0.00000000000E+00  0.11788033830E+02  0.11788034106E+02  0.25500000000E-02 0. -1.
         -1   -1    0    0    0  501 -0.00000000000E+00 -0.00000000000E+00 -0.14677334969E+03  0.14677334977E+03  0.50400000000E-02 0.  1.
         24    2    1    2    0    0  0.00000000000E+00  0.35527136788E-14 -0.13498531586E+03  0.15856138388E+03  0.83190606206E+02 0.  0.
         66    2    3    3    0    0  0.33589016008E+02 -0.22980320153E+02 -0.51375781828E+02  0.65572769226E+02  0.19999987084E+01 0.  0.
        -13    1    3    3    0    0 -0.33589016008E+02  0.22980320153E+02 -0.83609534028E+02  0.92988614653E+02  0.10566000000E+00 0.  1.
         13    1    4    4    0    0  0.19003459606E+02 -0.13164280289E+02 -0.30041804484E+02  0.37907135650E+02  0.10566000000E+00 0. -1.
        -13    1    4    4    0    0  0.66725542008E+01 -0.51145684937E+01 -0.99955094438E+01  0.13061514595E+02  0.10566000000E+00 0.  1.
        -14    1    4    4    0    0  0.79130022014E+01 -0.47014713708E+01 -0.11338467900E+02  0.14604118981E+02  0.00000000000E+00 0.  1.
<mgrwt>
<rscale>  0 0.83190606E+02</rscale>
<asrwt>0</asrwt>
<pdfrwt beam="1">  1        2 0.18135438E-02 0.83190606E+02</pdfrwt>
<pdfrwt beam="2">  1       -1 0.22580514E-01 0.83190606E+02</pdfrwt>
<totfact> 0.98262890E+04</totfact>
</mgrwt>
</event>
<event>
 8    1  0.7667702E-014  0.8065135E+02  0.7818608E-02  0.1327213E+00
         -1   -1    0    0    0  501 -0.00000000000E+00  0.00000000000E+00  0.50022354110E+02  0.50022354364E+02  0.50400000000E-02 0.  1.
          2   -1    0    0  501    0  0.00000000000E+00 -0.00000000000E+00 -0.32508670421E+02  0.32508670521E+02  0.25500000000E-02 0. -1.
         24    2    1    2    0    0 -0.17763568394E-14  0.00000000000E+00  0.17513683689E+02  0.82531024885E+02  0.80651354311E+02 0.  0.
         66    2    3    3    0    0  0.13272585383E+02 -0.38030244204E+02  0.10094190020E+02  0.41573473111E+02  0.19999993563E+01 0.  0.
        -13    1    3    3    0    0 -0.13272585383E+02  0.38030244204E+02  0.74194936693E+01  0.40957551774E+02  0.10566000000E+00 0.  1.
         13    1    4    4    0    0  0.67951853926E+01 -0.20410611482E+02  0.58813074100E+01  0.22301761062E+02  0.10566000000E+00 0. -1.
        -13    1    4    4    0    0  0.41377917319E+01 -0.11109144986E+02  0.21138085683E+01  0.12042166476E+02  0.10566000000E+00 0.  1.
        -14    1    4    4    0    0  0.23396082582E+01 -0.65104877363E+01  0.20990740413E+01  0.72295455734E+01  0.00000000000E+00 0.  1.
<mgrwt>
<rscale>  0 0.80651354E+02</rscale>
<asrwt>0</asrwt>
<pdfrwt beam="1">  1        2 0.50013339E-02 0.80651354E+02</pdfrwt>
<pdfrwt beam="2">  1       -1 0.76957469E-02 0.80651354E+02</pdfrwt>
<totfact> 0.13364743E+05</totfact>
</mgrwt>
</event>
<event>
 8    1  0.7667702E-014  0.8034377E+02  0.7818608E-02  0.1328079E+00
          2   -1    0    0  501    0  0.00000000000E+00  0.00000000000E+00  0.30354351447E+02  0.30354351554E+02  0.25500000000E-02 0. -1.
         -1   -1    0    0    0  501 -0.00000000000E+00 -0.00000000000E+00 -0.53164709947E+02  0.53164710186E+02  0.50400000000E-02 0.  1.
         24    2    1    2    0    0 -0.88817841970E-15  0.00000000000E+00 -0.22810358500E+02  0.83519061739E+02  0.80343769011E+02 0.  0.
         66    2    3    3    0    0 -0.74483237684E+01 -0.20121610714E+02  0.23861393628E+02  0.32151558828E+02  0.19999711277E+01 0.  0.
        -13    1    3    3    0    0  0.74483237684E+01  0.20121610714E+02 -0.46671752128E+02  0.51367502912E+02  0.10566000000E+00 0.  1.
         13    1    4    4    0    0 -0.98091496264E+00 -0.29127386902E+01  0.38791206835E+01  0.49502507163E+01  0.10566000000E+00 0. -1.
        -13    1    4    4    0    0 -0.14203729066E+01 -0.24121280093E+01  0.35163032808E+01  0.44957061209E+01  0.10566000000E+00 0.  1.
         14    1    4    4    0    0 -0.50470358991E+01 -0.14796744014E+02  0.16465969663E+02  0.22705601990E+02  0.00000000000E+00 0. -1.
<mgrwt>
<rscale>  0 0.80343769E+02</rscale>
<asrwt>0</asrwt>
<pdfrwt beam="1">  1        2 0.46699003E-02 0.80343769E+02</pdfrwt>
<pdfrwt beam="2">  1       -1 0.81791862E-02 0.80343769E+02</pdfrwt>
<totfact> 0.13325384E+05</totfact>
</mgrwt>
</event>
<event>
 8    1  0.7667702E-014  0.8396431E+02  0.7818608E-02  0.1318163E+00
          2   -1    0    0  501    0  0.00000000000E+00  0.00000000000E+00  0.21084231818E+03  0.21084231820E+03  0.25500000000E-02 0. -1.
         -1   -1    0    0    0  501 -0.00000000000E+00 -0.00000000000E+00 -0.83593322777E+01  0.83593337971E+01  0.50400000000E-02 0.  1.
         24    2    1    2    0    0  0.00000000000E+00 -0.71054273576E-14  0.20248298590E+03  0.21920165199E+03  0.83964305847E+02 0.  0.
         66    2    3    3    0    0 -0.16273397379E+02 -0.32481401591E+02  0.15609955724E+03  0.16028392521E+03  0.19999990292E+01 0.  0.
        -13    1    3    3    0    0  0.16273397379E+02  0.32481401591E+02  0.46383428658E+02  0.58917726786E+02  0.10566000000E+00 0.  1.
         13    1    4    4    0    0 -0.41323339953E+01 -0.91730469012E+01  0.46477004020E+02  0.47553591246E+02  0.10566000000E+00 0. -1.
        -13    1    4    4    0    0 -0.56681169255E+01 -0.10339591839E+02  0.49702311718E+02  0.51081950463E+02  0.10566000000E+00 0.  1.
         14    1    4    4    0    0 -0.64729464583E+01 -0.12968762851E+02  0.59920241506E+02  0.61648383498E+02  0.00000000000E+00 0. -1.
<mgrwt>
<rscale>  0 0.83964306E+02</rscale>
<asrwt>0</asrwt>
<pdfrwt beam="1">  1        2 0.32437282E-01 0.83964306E+02</pdfrwt>
<pdfrwt beam="2">  1       -1 0.12860511E-02 0.83964306E+02</pdfrwt>
<totfact> 0.19772684E+05</totfact>
</mgrwt>
</event>
<event>
 8    1  0.7667702E-014  0.7643105E+02  0.7818608E-02  0.1339496E+00
          2   -1    0    0  501    0  0.00000000000E+00  0.00000000000E+00  0.28594835919E+02  0.28594836033E+02  0.25500000000E-02 0. -1.
         -1   -1    0    0    0  501 -0.00000000000E+00 -0.00000000000E+00 -0.51073081559E+02  0.51073081807E+02  0.50400000000E-02 0.  1.
         24    2    1    2    0    0  0.35527136788E-14  0.00000000000E+00 -0.22478245640E+02  0.79667917840E+02  0.76431051320E+02 0.  0.
         66    2    3    3    0    0  0.26206156268E+02 -0.11641924422E+02  0.15042845555E+02  0.32443554646E+02  0.20000012809E+01 0.  0.
        -13    1    3    3    0    0 -0.26206156268E+02  0.11641924422E+02 -0.37521091195E+02  0.47224363194E+02  0.10566000000E+00 0.  1.
         13    1    4    4    0    0  0.54144467267E+01 -0.23925353886E+01  0.26068456189E+01  0.64689463638E+01  0.10566000000E+00 0. -1.
        -13    1    4    4    0    0  0.22136141953E+00 -0.86676166261E-01  0.28807095292E+00  0.38815273459E+00  0.10566000000E+00 0. -1.
         14    1    4    4    0    0  0.20570348122E+02 -0.91627128676E+01  0.12147928983E+02  0.25586455548E+02  0.00000000000E+00 0. -1.
<mgrwt>
<rscale>  0 0.76431051E+02</rscale>
<asrwt>0</asrwt>
<pdfrwt beam="1">  1        2 0.43992055E-02 0.76431051E+02</pdfrwt>
<pdfrwt beam="2">  1       -1 0.78573972E-02 0.76431051E+02</pdfrwt>
<totfact> 0.15144659E+05</totfact>
</mgrwt>
</event>
<event>
 8    1  0.7667702E-014  0.7976149E+02  0.7818608E-02  0.1329730E+00
         -1   -1    0    0    0  501 -0.00000000000E+00  0.00000000000E+00  0.12630574635E+02  0.12630575641E+02  0.50400000000E-02 0.  1.
          2   -1    0    0  501    0  0.00000000000E+00 -0.00000000000E+00 -0.12592251680E+03  0.12592251682E+03  0.25500000000E-02 0. -1.
         24    2    1    2    0    0  0.00000000000E+00  0.88817841970E-15 -0.11329194216E+03  0.13855309247E+03  0.79761489909E+02 0.  0.
         66    2    3    3    0    0  0.22244542318E+02  0.60059737591E+01 -0.11317246146E+03  0.11551146007E+03  0.19999978401E+01 0.  0.
        -13    1    3    3    0    0 -0.22244542318E+02 -0.60059737591E+01 -0.11948070496E+00  0.23041632395E+02  0.10566000000E+00 0.  1.
         13    1    4    4    0    0  0.66205202529E+01  0.24700529114E+01 -0.35205789661E+02  0.35908094345E+02  0.10566000000E+00 0. -1.
        -13    1    4    4    0    0  0.14984043553E+02  0.35139287556E+01 -0.75653829259E+02  0.77203512239E+02  0.10566000000E+00 0.  1.
        -14    1    4    4    0    0  0.63997851197E+00  0.21992092121E-01 -0.23128425380E+01  0.23998534858E+01  0.00000000000E+00 0.  1.
<mgrwt>
<rscale>  0 0.79761490E+02</rscale>
<asrwt>0</asrwt>
<pdfrwt beam="1">  1        2 0.19372694E-01 0.79761490E+02</pdfrwt>
<pdfrwt beam="2">  1       -1 0.19431655E-02 0.79761490E+02</pdfrwt>
<totfact> 0.19111845E+05</totfact>
</mgrwt>
</event>
<event>
 8    1  0.7667702E-014  0.8334378E+02  0.7818608E-02  0.1319821E+00
         -1   -1    0    0    0  501 -0.00000000000E+00  0.00000000000E+00  0.53327586729E+01  0.53327610545E+01  0.50400000000E-02 0.  1.
          2   -1    0    0  501    0  0.00000000000E+00 -0.00000000000E+00 -0.32563745738E+03  0.32563745739E+03  0.25500000000E-02 0. -1.
         24    2    1    2    0    0  0.00000000000E+00 -0.71054273576E-14 -0.32030469870E+03  0.33097021844E+03  0.83343778911E+02 0.  0.
         66    2    3    3    0    0 -0.28453124031E+02 -0.30404835306E+02 -0.15741647462E+03  0.16284342407E+03  0.20000007891E+01 0.  0.
        -13    1    3    3    0    0  0.28453124031E+02  0.30404835306E+02 -0.16288822408E+03  0.16812679437E+03  0.10566000000E+00 0.  1.
         13    1    4    4    0    0 -0.37826345797E+01 -0.36535506450E+01 -0.20885513192E+02  0.21537701410E+02  0.10566000000E+00 0. -1.
        -13    1    4    4    0    0 -0.49846016422E+01 -0.59640148010E+01 -0.31099948259E+02  0.32056725844E+02  0.10566000000E+00 0.  1.
         14    1    4    4    0    0 -0.19685887809E+02 -0.20787269860E+02 -0.10543101317E+03  0.10924899682E+03  0.00000000000E+00 0. -1.
<mgrwt>
<rscale>  0 0.83343779E+02</rscale>
<asrwt>0</asrwt>
<pdfrwt beam="1">  1        2 0.50098055E-01 0.83343779E+02</pdfrwt>
<pdfrwt beam="2">  1       -1 0.82042486E-03 0.83343779E+02</pdfrwt>
<totfact> 0.23585486E+05</totfact>
</mgrwt>
</event>
<event>
 8    1  0.7667702E-014  0.7967097E+02  0.7818608E-02  0.1329988E+00
         -1   -1    0    0    0  501 -0.00000000000E+00  0.00000000000E+00  0.54658487756E+02  0.54658487988E+02  0.50400000000E-02 0.  1.
          2   -1    0    0  501    0  0.00000000000E+00 -0.00000000000E+00 -0.29032375043E+02  0.29032375155E+02  0.25500000000E-02 0. -1.
         24    2    1    2    0    0 -0.44408920985E-15 -0.17763568394E-14  0.25626112713E+02  0.83690863143E+02  0.79670966612E+02 0.  0.
         66    2    3    3    0    0  0.32005355426E+01  0.95178363062E+01 -0.27645707118E+02  0.29480803303E+02  0.20000014188E+01 0.  0.
        -13    1    3    3    0    0 -0.32005355426E+01 -0.95178363062E+01  0.53271819831E+02  0.54210059840E+02  0.10566000000E+00 0.  1.
         13    1    4    4    0    0  0.13970235561E+00  0.23285610931E+01 -0.76246674638E+01  0.79742354795E+01  0.10566000000E+00 0. -1.
        -13    1    4    4    0    0  0.11362030828E+01  0.29564815432E+01 -0.91341410909E+01  0.96682696520E+01  0.10566000000E+00 0.  1.
        -14    1    4    4    0    0  0.19246301043E+01  0.42327936699E+01 -0.10886898563E+02  0.11838298172E+02  0.00000000000E+00 0.  1.
<mgrwt>
<rscale>  0 0.79670967E+02</rscale>
<asrwt>0</asrwt>
<pdfrwt beam="1">  1        2 0.44665193E-02 0.79670967E+02</pdfrwt>
<pdfrwt beam="2">  1       -1 0.84089981E-02 0.79670967E+02</pdfrwt>
<totfact> 0.13524045E+05</totfact>
</mgrwt>
</event>
<event>
 8    1  0.8579384E-014  0.8538917E+02  0.7818608E-02  0.1314418E+00
          2   -1    0    0  501    0  0.00000000000E+00  0.00000000000E+00  0.11935713451E+02  0.11935713724E+02  0.25500000000E-02 0. -1.
         -1   -1    0    0    0  501 -0.00000000000E+00 -0.00000000000E+00 -0.15272046419E+03  0.15272046427E+03  0.50400000000E-02 0.  1.
         24    2    1    2    0    0  0.00000000000E+00  0.00000000000E+00 -0.14078475074E+03  0.16465617800E+03  0.85389173271E+02 0.  0.
         66    2    3    3    0    0  0.20011408717E+02  0.14243734956E+02 -0.31477004612E+01  0.24844485934E+02  0.19999997013E+01 0.  0.
        -13    1    3    3    0    0 -0.20011408717E+02 -0.14243734956E+02 -0.13763705028E+03  0.13981169206E+03  0.10566000000E+00 0.  1.
         13    1    4    4    0    0  0.83526585587E+01  0.59383495545E+01 -0.91773341343E+00  0.10290009674E+02  0.10566000000E+00 0. -1.
        -13    1    4    4    0    0  0.55254321782E+01  0.34648571761E+01 -0.43293000254E+00  0.65371422219E+01  0.10566000000E+00 0.  1.
        -14    1    4    4    0    0  0.61333179801E+01  0.48405282249E+01 -0.17970370452E+01  0.80173340384E+01  0.00000000000E+00 0.  1.
<mgrwt>
<rscale>  0 0.85389173E+02</rscale>
<asrwt>0</asrwt>
<pdfrwt beam="1">  1        2 0.18362637E-02 0.85389173E+02</pdfrwt>
<pdfrwt beam="2">  1       -1 0.23495455E-01 0.85389173E+02</pdfrwt>
<totfact> 0.91048022E+04</totfact>
</mgrwt>
</event>
<event>
 8    1  0.7667702E-014  0.7974627E+02  0.7818608E-02  0.1329773E+00
         -1   -1    0    0    0  501 -0.00000000000E+00  0.00000000000E+00  0.74136071614E+02  0.74136071785E+02  0.50400000000E-02 0.  1.
          2   -1    0    0  501    0  0.00000000000E+00 -0.00000000000E+00 -0.21445252676E+02  0.21445252827E+02  0.25500000000E-02 0. -1.
         24    2    1    2    0    0  0.88817841970E-15  0.00000000000E+00  0.52690818938E+02  0.95581324612E+02  0.79746267714E+02 0.  0.
         66    2    3    3    0    0  0.72929556704E+01  0.33484839007E+02  0.19911764205E+01  0.34385846339E+02  0.19999997977E+01 0.  0.
        -13    1    3    3    0    0 -0.72929556704E+01 -0.33484839007E+02  0.50699642517E+02  0.61195478274E+02  0.10566000000E+00 0.  1.
         13    1    4    4    0    0  0.44431472295E+01  0.19165772354E+02  0.13561541305E+01  0.19721021913E+02  0.10566000000E+00 0. -1.
        -13    1    4    4    0    0  0.16077866011E+01  0.68573092516E+01 -0.25203644527E+00  0.70485710844E+01  0.10566000000E+00 0.  1.
        -14    1    4    4    0    0  0.12420218399E+01  0.74617574009E+01  0.88705873525E+00  0.76162533414E+01  0.00000000000E+00 0.  1.
<mgrwt>
<rscale>  0 0.79746268E+02</rscale>
<asrwt>0</asrwt>
<pdfrwt beam="1">  1        2 0.32992696E-02 0.79746268E+02</pdfrwt>
<pdfrwt beam="2">  1       -1 0.11405550E-01 0.79746268E+02</pdfrwt>
<totfact> 0.12706035E+05</totfact>
</mgrwt>
</event>
<event>
 8    1  0.7667702E-014  0.7946796E+02  0.7818608E-02  0.1330568E+00
          2   -1    0    0  501    0  0.00000000000E+00  0.00000000000E+00  0.44090158671E+03  0.44090158672E+03  0.25500000000E-02 0. -1.
         -1   -1    0    0    0  501 -0.00000000000E+00 -0.00000000000E+00 -0.35808179683E+01  0.35808215152E+01  0.50400000000E-02 0.  1.
         24    2    1    2    0    0  0.00000000000E+00  0.00000000000E+00  0.43732076875E+03  0.44448240824E+03  0.79467958672E+02 0.  0.
         66    2    3    3    0    0 -0.34524077553E+01 -0.22000972632E+02  0.40268068228E+03  0.40330099652E+03  0.20000005866E+01 0.  0.
        -13    1    3    3    0    0  0.34524077553E+01  0.22000972632E+02  0.34640086471E+02  0.41181411714E+02  0.10566000000E+00 0.  1.
         13    1    4    4    0    0 -0.40924372685E+00 -0.42821226873E+01  0.69101740052E+02  0.69235581151E+02  0.10566000000E+00 0. -1.
        -13    1    4    4    0    0 -0.27250314073E+01 -0.12759851925E+02  0.23810980157E+03  0.23846703836E+03  0.10566000000E+00 0.  1.
         14    1    4    4    0    0 -0.31813262112E+00 -0.49589980193E+01  0.95469140652E+02  0.95598377008E+02  0.00000000000E+00 0. -1.
<mgrwt>
<rscale>  0 0.79467959E+02</rscale>
<asrwt>0</asrwt>
<pdfrwt beam="1">  1        2 0.67830966E-01 0.79467959E+02</pdfrwt>
<pdfrwt beam="2">  1       -1 0.55089573E-03 0.79467959E+02</pdfrwt>
<totfact> 0.29729669E+05</totfact>
</mgrwt>
</event>
<event>
 8    1  0.7667702E-014  0.7982083E+02  0.7818608E-02  0.1329561E+00
         -1   -1    0    0    0  501 -0.00000000000E+00  0.00000000000E+00  0.25988313964E+03  0.25988313968E+03  0.50400000000E-02 0.  1.
          2   -1    0    0  501    0  0.00000000000E+00 -0.00000000000E+00 -0.61290669014E+01  0.61290674319E+01  0.25500000000E-02 0. -1.
         24    2    1    2    0    0  0.00000000000E+00 -0.71054273576E-14  0.25375407273E+03  0.26601220712E+03  0.79820830024E+02 0.  0.
         66    2    3    3    0    0 -0.29800947396E+02  0.26456043495E+02  0.13255047865E+03  0.13842560482E+03  0.19999939407E+01 0.  0.
        -13    1    3    3    0    0  0.29800947396E+02 -0.26456043495E+02  0.12120359408E+03  0.12758660230E+03  0.10566000000E+00 0.  1.
         13    1    4    4    0    0 -0.86720967974E+01  0.81035847356E+01  0.39838996846E+02  0.41569582415E+02  0.10566000000E+00 0. -1.
        -13    1    4    4    0    0 -0.14076331997E+02  0.13052263568E+02  0.62251774624E+02  0.65144449608E+02  0.10566000000E+00 0.  1.
         14    1    4    4    0    0 -0.70525186007E+01  0.53001951915E+01  0.30459707180E+02  0.31711572795E+02  0.00000000000E+00 0. -1.
<mgrwt>
<rscale>  0 0.79820830E+02</rscale>
<asrwt>0</asrwt>
<pdfrwt beam="1">  1        2 0.94293344E-03 0.79820830E+02</pdfrwt>
<pdfrwt beam="2">  1       -1 0.39982020E-01 0.79820830E+02</pdfrwt>
<totfact> 0.91856780E+04</totfact>
</mgrwt>
</event>
<event>
 8    1  0.7667702E-014  0.7904953E+02  0.7818608E-02  0.1331771E+00
         -1   -1    0    0    0  501 -0.00000000000E+00  0.00000000000E+00  0.29300678118E+02  0.29300678552E+02  0.50400000000E-02 0.  1.
          2   -1    0    0  501    0  0.00000000000E+00 -0.00000000000E+00 -0.53316410377E+02  0.53316410438E+02  0.25500000000E-02 0. -1.
         24    2    1    2    0    0  0.17763568394E-14 -0.35527136788E-14 -0.24015732258E+02  0.82617088990E+02  0.79049528760E+02 0.  0.
         66    2    3    3    0    0 -0.98240311441E+01  0.11287821785E+02 -0.50220391264E+02  0.52440577823E+02  0.19999987757E+01 0.  0.
        -13    1    3    3    0    0  0.98240311441E+01 -0.11287821785E+02  0.26204659006E+02  0.30176511167E+02  0.10566000000E+00 0.  1.
         13    1    4    4    0    0 -0.54342598921E+01  0.54527641070E+01 -0.23151978184E+02  0.24398546573E+02  0.10566000000E+00 0. -1.
        -13    1    4    4    0    0 -0.24126726932E+01  0.28698374454E+01 -0.13132183251E+02  0.13657318824E+02  0.10566000000E+00 0.  1.
        -14    1    4    4    0    0 -0.19770985588E+01  0.29652202327E+01 -0.13936229828E+02  0.14384712425E+02  0.00000000000E+00 0.  1.
<mgrwt>
<rscale>  0 0.79049529E+02</rscale>
<asrwt>0</asrwt>
<pdfrwt beam="1">  1        2 0.82025247E-02 0.79049529E+02</pdfrwt>
<pdfrwt beam="2">  1       -1 0.45077967E-02 0.79049529E+02</pdfrwt>
<totfact> 0.15658192E+05</totfact>
</mgrwt>
</event>
<event>
 8    1  0.7667702E-014  0.8010415E+02  0.7818608E-02  0.1328756E+00
         -1   -1    0    0    0  501 -0.00000000000E+00  0.00000000000E+00  0.33251355185E+02  0.33251355567E+02  0.50400000000E-02 0.  1.
          2   -1    0    0  501    0  0.00000000000E+00 -0.00000000000E+00 -0.48243704665E+02  0.48243704732E+02  0.25500000000E-02 0. -1.
         24    2    1    2    0    0 -0.35527136788E-14  0.00000000000E+00 -0.14992349480E+02  0.81495060299E+02  0.80104146648E+02 0.  0.
         66    2    3    3    0    0  0.23428461168E+02 -0.30019451162E+02 -0.20048002262E+02  0.43081117129E+02  0.20000043997E+01 0.  0.
        -13    1    3    3    0    0 -0.23428461168E+02  0.30019451162E+02  0.50556527826E+01  0.38413943170E+02  0.10566000000E+00 0.  1.
         13    1    4    4    0    0  0.14301782946E+02 -0.18885630145E+02 -0.11710087006E+02  0.26426224156E+02  0.10566000000E+00 0. -1.
        -13    1    4    4    0    0  0.49914442819E+01 -0.61742570285E+01 -0.50325788631E+01  0.94007435835E+01  0.10566000000E+00 0.  1.
        -14    1    4    4    0    0  0.41352339402E+01 -0.49595639886E+01 -0.33053363933E+01  0.72541493899E+01  0.00000000000E+00 0.  1.
<mgrwt>
<rscale>  0 0.80104147E+02</rscale>
<asrwt>0</asrwt>
<pdfrwt beam="1">  1        2 0.74221084E-02 0.80104147E+02</pdfrwt>
<pdfrwt beam="2">  1       -1 0.51155932E-02 0.80104147E+02</pdfrwt>
<totfact> 0.14774924E+05</totfact>
</mgrwt>
</event>
<event>
 8    1  0.7667702E-014  0.7543969E+02  0.7818608E-02  0.1342515E+00
          2   -1    0    0  501    0  0.00000000000E+00  0.00000000000E+00  0.46524293919E+02  0.46524293988E+02  0.25500000000E-02 0. -1.
         -1   -1    0    0    0  501 -0.00000000000E+00 -0.00000000000E+00 -0.30581586722E+02  0.30581587137E+02  0.50400000000E-02 0.  1.
         24    2    1    2    0    0  0.00000000000E+00  0.00000000000E+00  0.15942707197E+02  0.77105881125E+02  0.75439691087E+02 0.  0.
         66    2    3    3    0    0 -0.46433679413E+01  0.12464224468E+02  0.44024350974E+02  0.46033262332E+02  0.20000012164E+01 0.  0.
        -13    1    3    3    0    0  0.46433679413E+01 -0.12464224468E+02 -0.28081643777E+02  0.31072618793E+02  0.10566000000E+00 0.  1.
         13    1    4    4    0    0 -0.20700990038E+01  0.57523541526E+01  0.20664840991E+02  0.21550445596E+02  0.10566000000E+00 0. -1.
        -13    1    4    4    0    0  0.15986949645E+00  0.28159138468E+00  0.94186136201E+00  0.10015581983E+01  0.10566000000E+00 0.  1.
         14    1    4    4    0    0 -0.27331384340E+01  0.64302789304E+01  0.22417648621E+02  0.23481258538E+02  0.00000000000E+00 0. -1.
<mgrwt>
<rscale>  0 0.75439691E+02</rscale>
<asrwt>0</asrwt>
<pdfrwt beam="1">  1        2 0.71575837E-02 0.75439691E+02</pdfrwt>
<pdfrwt beam="2">  1       -1 0.47048596E-02 0.75439691E+02</pdfrwt>
<totfact> 0.17275142E+05</totfact>
</mgrwt>
</event>
<event>
 8    1  0.7667702E-014  0.7961899E+02  0.7818608E-02  0.1330136E+00
          2   -1    0    0  501    0  0.00000000000E+00  0.00000000000E+00  0.57590286227E+03  0.57590286228E+03  0.25500000000E-02 0. -1.
         -1   -1    0    0    0  501 -0.00000000000E+00 -0.00000000000E+00 -0.27518432541E+01  0.27518478695E+01  0.50400000000E-02 0.  1.
         24    2    1    2    0    0 -0.35527136788E-14  0.35527136788E-14  0.57315101902E+03  0.57865471014E+03  0.79618986267E+02 0.  0.
         66    2    3    3    0    0  0.28319724249E+02 -0.20875347703E+02  0.42174994577E+03  0.42321956911E+03  0.20000002702E+01 0.  0.
        -13    1    3    3    0    0 -0.28319724249E+02  0.20875347703E+02  0.15140107324E+03  0.15543514103E+03  0.10566000000E+00 0.  1.
         13    1    4    4    0    0  0.34452186731E+01 -0.25391055988E+01  0.51874599127E+02  0.52050953762E+02  0.10566000000E+00 0. -1.
        -13    1    4    4    0    0  0.18324926156E+02 -0.12660914723E+02  0.27179255720E+03  0.27270369816E+03  0.10566000000E+00 0.  1.
        -14    1    4    4    0    0  0.65495794195E+01 -0.56753273813E+01  0.98082789448E+02  0.98464917191E+02  0.00000000000E+00 0.  1.
<mgrwt>
<rscale>  0 0.79618986E+02</rscale>
<asrwt>0</asrwt>
<pdfrwt beam="1">  1        2 0.88600574E-01 0.79618986E+02</pdfrwt>
<pdfrwt beam="2">  1       -1 0.42336022E-03 0.79618986E+02</pdfrwt>
<totfact> 0.32188963E+05</totfact>
</mgrwt>
</event>
<event>
 8    1  0.7667702E-014  0.7917509E+02  0.7818608E-02  0.1331409E+00
         -1   -1    0    0    0  501 -0.00000000000E+00  0.00000000000E+00  0.77748039492E+02  0.77748039656E+02  0.50400000000E-02 0.  1.
          2   -1    0    0  501    0  0.00000000000E+00 -0.00000000000E+00 -0.20157085048E+02  0.20157085209E+02  0.25500000000E-02 0. -1.
         24    2    1    2    0    0  0.88817841970E-15  0.00000000000E+00  0.57590954445E+02  0.97905124865E+02  0.79175093564E+02 0.  0.
         66    2    3    3    0    0  0.50532055851E+01  0.39237576048E+02  0.28546721940E+02  0.48826607501E+02  0.20000014178E+01 0.  0.
        -13    1    3    3    0    0 -0.50532055851E+01 -0.39237576048E+02  0.29044232504E+02  0.49078517364E+02  0.10566000000E+00 0.  1.
         13    1    4    4    0    0  0.35680315260E+00  0.17624953529E+01  0.12147089656E+01  0.21726436122E+01  0.10566000000E+00 0. -1.
        -13    1    4    4    0    0  0.43126961228E+00  0.47537209300E+01  0.27894074275E+01  0.55295401248E+01  0.10566000000E+00 0. -1.
        -14    1    4    4    0    0  0.42651328202E+01  0.32721359765E+02  0.24542605547E+02  0.41124423764E+02  0.00000000000E+00 0.  1.
<mgrwt>
<rscale>  0 0.79175094E+02</rscale>
<asrwt>0</asrwt>
<pdfrwt beam="1">  1        2 0.31010900E-02 0.79175094E+02</pdfrwt>
<pdfrwt beam="2">  1       -1 0.11961237E-01 0.79175094E+02</pdfrwt>
<totfact> 0.12810544E+05</totfact>
</mgrwt>
</event>
<event>
 8    1  0.7667702E-014  0.8031617E+02  0.7818608E-02  0.1328157E+00
         -1   -1    0    0    0  501 -0.00000000000E+00  0.00000000000E+00  0.18877335262E+02  0.18877335935E+02  0.50400000000E-02 0.  1.
          2   -1    0    0  501    0  0.00000000000E+00 -0.00000000000E+00 -0.85428987501E+02  0.85428987539E+02  0.25500000000E-02 0. -1.
         24    2    1    2    0    0  0.00000000000E+00  0.00000000000E+00 -0.66551652238E+02  0.10430632347E+03  0.80316167121E+02 0.  0.
         66    2    3    3    0    0 -0.16353343626E+02 -0.35101237031E+02 -0.46987523061E+02  0.60920899616E+02  0.19999994234E+01 0.  0.
        -13    1    3    3    0    0  0.16353343626E+02  0.35101237031E+02 -0.19564129177E+02  0.43385423858E+02  0.10566000000E+00 0.  1.
         13    1    4    4    0    0 -0.38192042329E+01 -0.98435212451E+01 -0.12261839620E+02  0.16181628669E+02  0.10566000000E+00 0. -1.
        -13    1    4    4    0    0 -0.93211651677E+01 -0.18712010692E+02 -0.26299672398E+02  0.33596240809E+02  0.10566000000E+00 0.  1.
        -14    1    4    4    0    0 -0.32129742250E+01 -0.65457050944E+01 -0.84260110430E+01  0.11143030138E+02  0.00000000000E+00 0.  1.
<mgrwt>
<rscale>  0 0.80316167E+02</rscale>
<asrwt>0</asrwt>
<pdfrwt beam="1">  1        2 0.13142921E-01 0.80316167E+02</pdfrwt>
<pdfrwt beam="2">  1       -1 0.29042055E-02 0.80316167E+02</pdfrwt>
<totfact> 0.16804039E+05</totfact>
</mgrwt>
</event>
<event>
 8    1  0.7667702E-014  0.8171461E+02  0.7818608E-02  0.1324255E+00
         -1   -1    0    0    0  501 -0.00000000000E+00  0.00000000000E+00  0.74942401015E+00  0.74944095737E+00  0.50400000000E-02 0.  1.
          2   -1    0    0  501    0  0.00000000000E+00 -0.00000000000E+00 -0.22274444237E+04  0.22274444237E+04  0.25500000000E-02 0. -1.
         24    2    1    2    0    0  0.00000000000E+00  0.00000000000E+00 -0.22266949996E+04  0.22281938646E+04  0.81714606157E+02 0.  0.
         66    2    3    3    0    0  0.12659007374E+02  0.97376823770E+00 -0.21722483290E+04  0.21722863535E+04  0.20000003346E+01 0.  0.
        -13    1    3    3    0    0 -0.12659007374E+02 -0.97376823770E+00 -0.54446670644E+02  0.55907511128E+02  0.10566000000E+00 0.  1.
         13    1    4    4    0    0  0.34989060173E+00  0.16861015978E+00 -0.78807221150E+02  0.78808249074E+02  0.10566000000E+00 0. -1.
        -13    1    4    4    0    0  0.58222920125E+01  0.96259736062E+00 -0.10957488641E+04  0.10957647604E+04  0.10566000000E+00 0.  1.
         14    1    4    4    0    0  0.64868247600E+01 -0.15743928270E+00 -0.99769224373E+03  0.99771334404E+03  0.00000000000E+00 0. -1.
<mgrwt>
<rscale>  0 0.81714606E+02</rscale>
<asrwt>0</asrwt>
<pdfrwt beam="1">  1        2 0.34267846E+00 0.81714606E+02</pdfrwt>
<pdfrwt beam="2">  1       -1 0.11529909E-03 0.81714606E+02</pdfrwt>
<totfact> 0.23398644E+05</totfact>
</mgrwt>
</event>
<event>
 8    1  0.7667702E-014  0.7739378E+02  0.7818608E-02  0.1336615E+00
         -1   -1    0    0    0  501 -0.00000000000E+00  0.00000000000E+00  0.28435199211E+03  0.28435199216E+03  0.50400000000E-02 0.  1.
          2   -1    0    0  501    0  0.00000000000E+00 -0.00000000000E+00 -0.52661809212E+01  0.52661815386E+01  0.25500000000E-02 0. -1.
         24    2    1    2    0    0  0.00000000000E+00  0.00000000000E+00  0.27908581119E+03  0.28961817369E+03  0.77393775761E+02 0.  0.
         66    2    3    3    0    0  0.29992307304E+02  0.19462224575E+02  0.84494504107E+02  0.91769482419E+02  0.19999991095E+01 0.  0.
        -13    1    3    3    0    0 -0.29992307304E+02 -0.19462224575E+02  0.19459130708E+03  0.19784869127E+03  0.10566000000E+00 0.  1.
         13    1    4    4    0    0  0.51247438712E+01  0.36589325344E+01  0.16097080015E+02  0.17285194129E+02  0.10566000000E+00 0.  1.
        -13    1    4    4    0    0  0.22003823946E+02  0.13620206524E+02  0.60700787839E+02  0.65986931299E+02  0.10566000000E+00 0. -1.
         14    1    4    4    0    0  0.28637394870E+01  0.21830855172E+01  0.76966362530E+01  0.84973569912E+01  0.00000000000E+00 0. -1.
<mgrwt>
<rscale>  0 0.77393776E+02</rscale>
<asrwt>0</asrwt>
<pdfrwt beam="1">  1        2 0.81018171E-03 0.77393776E+02</pdfrwt>
<pdfrwt beam="2">  1       -1 0.43746462E-01 0.77393776E+02</pdfrwt>
<totfact> 0.96102304E+04</totfact>
</mgrwt>
</event>
<event>
 8    1  0.7667702E-014  0.7973006E+02  0.7818608E-02  0.1329819E+00
         -1   -1    0    0    0  501 -0.00000000000E+00  0.00000000000E+00  0.34582709087E+02  0.34582709454E+02  0.50400000000E-02 0.  1.
          2   -1    0    0  501    0  0.00000000000E+00 -0.00000000000E+00 -0.45954201497E+02  0.45954201568E+02  0.25500000000E-02 0. -1.
         24    2    1    2    0    0 -0.17763568394E-14  0.00000000000E+00 -0.11371492411E+02  0.80536911022E+02  0.79730064576E+02 0.  0.
         66    2    3    3    0    0 -0.14001344381E+02 -0.78928637142E+01 -0.42512035471E+02  0.45492945376E+02  0.19999942376E+01 0.  0.
        -13    1    3    3    0    0  0.14001344381E+02  0.78928637142E+01  0.31140543061E+02  0.35043965646E+02  0.10566000000E+00 0.  1.
         13    1    4    4    0    0 -0.56369694375E+01 -0.38727855195E+01 -0.19738883869E+02  0.20890394743E+02  0.10566000000E+00 0. -1.
        -13    1    4    4    0    0 -0.12707314096E+01 -0.54383749844E+00 -0.40678594775E+01  0.42975763291E+01  0.10566000000E+00 0.  1.
         14    1    4    4    0    0 -0.70936435337E+01 -0.34762406962E+01 -0.18705292125E+02  0.20304974303E+02  0.00000000000E+00 0. -1.
<mgrwt>
<rscale>  0 0.79730065E+02</rscale>
<asrwt>0</asrwt>
<pdfrwt beam="1">  1        2 0.70698772E-02 0.79730065E+02</pdfrwt>
<pdfrwt beam="2">  1       -1 0.53204168E-02 0.79730065E+02</pdfrwt>
<totfact> 0.14811241E+05</totfact>
</mgrwt>
</event>
<event>
 8    1  0.7667702E-014  0.7517335E+02  0.7818608E-02  0.1343335E+00
          2   -1    0    0  501    0  0.00000000000E+00  0.00000000000E+00  0.45162101030E+03  0.45162101031E+03  0.25500000000E-02 0. -1.
         -1   -1    0    0    0  501 -0.00000000000E+00 -0.00000000000E+00 -0.31281916961E+01  0.31281957562E+01  0.50400000000E-02 0.  1.
         24    2    1    2    0    0  0.35527136788E-14  0.00000000000E+00  0.44849281861E+03  0.45474920607E+03  0.75173346846E+02 0.  0.
         66    2    3    3    0    0 -0.27230657607E+02 -0.19827717529E+02  0.32492320096E+03  0.32667068068E+03  0.19999991871E+01 0.  0.
        -13    1    3    3    0    0  0.27230657607E+02  0.19827717529E+02  0.12356961765E+03  0.12807852539E+03  0.10566000000E+00 0.  1.
         13    1    4    4    0    0 -0.12610277246E+02 -0.10026879870E+02  0.15350235812E+03  0.15434552966E+03  0.10566000000E+00 0. -1.
        -13    1    4    4    0    0 -0.13381565320E+02 -0.90923496610E+01  0.15984548149E+03  0.16066214934E+03  0.10566000000E+00 0.  1.
        -14    1    4    4    0    0 -0.12388150412E+01 -0.70848799753E+00  0.11575361350E+02  0.11663001686E+02  0.00000000000E+00 0.  1.
<mgrwt>
<rscale>  0 0.75173347E+02</rscale>
<asrwt>0</asrwt>
<pdfrwt beam="1">  1        2 0.69480113E-01 0.75173347E+02</pdfrwt>
<pdfrwt beam="2">  1       -1 0.48126087E-03 0.75173347E+02</pdfrwt>
<totfact> 0.34628191E+05</totfact>
</mgrwt>
</event>
<event>
 8    1  0.7667702E-014  0.7915596E+02  0.7818608E-02  0.1331464E+00
         -1   -1    0    0    0  501 -0.00000000000E+00  0.00000000000E+00  0.53668579045E+02  0.53668579282E+02  0.50400000000E-02 0.  1.
          2   -1    0    0  501    0  0.00000000000E+00 -0.00000000000E+00 -0.29186844970E+02  0.29186845082E+02  0.25500000000E-02 0. -1.
         24    2    1    2    0    0  0.00000000000E+00  0.88817841970E-15  0.24481734075E+02  0.82855424364E+02  0.79155960250E+02 0.  0.
         66    2    3    3    0    0 -0.38679284441E+02  0.45758944861E+01  0.50432118482E+01  0.39325053751E+02  0.20000028959E+01 0.  0.
        -13    1    3    3    0    0  0.38679284441E+02 -0.45758944861E+01  0.19438522227E+02  0.43530370612E+02  0.10566000000E+00 0.  1.
         13    1    4    4    0    0 -0.78065456260E+01  0.28713401786E+00  0.14023104809E+01  0.79373949931E+01  0.10566000000E+00 0. -1.
        -13    1    4    4    0    0 -0.81628661843E+01  0.10896599801E+01  0.12277139209E+01  0.83269555495E+01  0.10566000000E+00 0.  1.
         14    1    4    4    0    0 -0.22709872631E+02  0.31991004881E+01  0.24131874464E+01  0.23060703209E+02  0.00000000000E+00 0. -1.
<mgrwt>
<rscale>  0 0.79155960E+02</rscale>
<asrwt>0</asrwt>
<pdfrwt beam="1">  1        2 0.44902839E-02 0.79155960E+02</pdfrwt>
<pdfrwt beam="2">  1       -1 0.82567045E-02 0.79155960E+02</pdfrwt>
<totfact> 0.13786527E+05</totfact>
</mgrwt>
</event>
<event>
 8    1  0.7667702E-014  0.8096671E+02  0.7818608E-02  0.1326330E+00
          2   -1    0    0  501    0  0.00000000000E+00  0.00000000000E+00  0.21463301810E+03  0.21463301812E+03  0.25500000000E-02 0. -1.
         -1   -1    0    0    0  501 -0.00000000000E+00 -0.00000000000E+00 -0.76358331223E+01  0.76358347856E+01  0.50400000000E-02 0.  1.
         24    2    1    2    0    0  0.00000000000E+00  0.00000000000E+00  0.20699718498E+03  0.22226885291E+03  0.80966711562E+02 0.  0.
         66    2    3    3    0    0 -0.12633273307E+02  0.35454865856E+02  0.62820717777E+02  0.73260423724E+02  0.19999987062E+01 0.  0.
        -13    1    3    3    0    0  0.12633273307E+02 -0.35454865856E+02  0.14417646721E+03  0.14900842918E+03  0.10566000000E+00 0.  1.
         13    1    4    4    0    0 -0.23142173428E+01  0.67597252763E+01  0.11468265845E+02  0.13512282311E+02  0.10566000000E+00 0. -1.
        -13    1    4    4    0    0 -0.89090825885E+01  0.25681851909E+02  0.46551328046E+02  0.53907017882E+02  0.10566000000E+00 0.  1.
        -14    1    4    4    0    0 -0.14099733754E+01  0.30132886714E+01  0.48011238863E+01  0.58411235314E+01  0.00000000000E+00 0.  1.
<mgrwt>
<rscale>  0 0.80966712E+02</rscale>
<asrwt>0</asrwt>
<pdfrwt beam="1">  1        2 0.33020461E-01 0.80966712E+02</pdfrwt>
<pdfrwt beam="2">  1       -1 0.11747438E-02 0.80966712E+02</pdfrwt>
<totfact> 0.21904727E+05</totfact>
</mgrwt>
</event>
<event>
 8    1  0.7667702E-014  0.7908580E+02  0.7818608E-02  0.1331666E+00
         -1   -1    0    0    0  501 -0.00000000000E+00  0.00000000000E+00  0.73455142141E+01  0.73455159432E+01  0.50400000000E-02 0.  1.
          2   -1    0    0  501    0  0.00000000000E+00 -0.00000000000E+00 -0.21287016886E+03  0.21287016887E+03  0.25500000000E-02 0. -1.
         24    2    1    2    0    0  0.00000000000E+00 -0.35527136788E-14 -0.20552465464E+03  0.22021568482E+03  0.79085802599E+02 0.  0.
         66    2    3    3    0    0  0.17288578081E+02 -0.21593977680E+02 -0.18141050223E+03  0.18351829643E+03  0.19999996127E+01 0.  0.
        -13    1    3    3    0    0 -0.17288578081E+02  0.21593977680E+02 -0.24114152409E+02  0.36697388389E+02  0.10566000000E+00 0.  1.
         13    1    4    4    0    0  0.94229951640E+01 -0.12407012122E+02 -0.99489949162E+02  0.10070247234E+03  0.10566000000E+00 0. -1.
        -13    1    4    4    0    0  0.58717903114E+01 -0.69579518815E+01 -0.64698727044E+02  0.65336264517E+02  0.10566000000E+00 0.  1.
        -14    1    4    4    0    0  0.19937926061E+01 -0.22290136768E+01 -0.17221826029E+02  0.17479559568E+02  0.00000000000E+00 0.  1.
<mgrwt>
<rscale>  0 0.79085803E+02</rscale>
<asrwt>0</asrwt>
<pdfrwt beam="1">  1        2 0.32749252E-01 0.79085803E+02</pdfrwt>
<pdfrwt beam="2">  1       -1 0.11300794E-02 0.79085803E+02</pdfrwt>
<totfact> 0.23237259E+05</totfact>
</mgrwt>
</event>
<event>
 8    1  0.7667702E-014  0.8151618E+02  0.7818608E-02  0.1324803E+00
          2   -1    0    0  501    0  0.00000000000E+00  0.00000000000E+00  0.61944940428E+03  0.61944940429E+03  0.25500000000E-02 0. -1.
         -1   -1    0    0    0  501 -0.00000000000E+00 -0.00000000000E+00 -0.26817692500E+01  0.26817739859E+01  0.50400000000E-02 0.  1.
         24    2    1    2    0    0  0.00000000000E+00  0.00000000000E+00  0.61676763503E+03  0.62213117828E+03  0.81516178496E+02 0.  0.
         66    2    3    3    0    0 -0.91845294381E+01  0.30289325067E+02  0.50425458209E+03  0.50525091031E+03  0.20000027026E+01 0.  0.
        -13    1    3    3    0    0  0.91845294381E+01 -0.30289325067E+02  0.11251305294E+03  0.11688026797E+03  0.10566000000E+00 0.  1.
         13    1    4    4    0    0 -0.34479370140E+00  0.10979653317E+01  0.16666926010E+02  0.16706944581E+02  0.10566000000E+00 0. -1.
        -13    1    4    4    0    0 -0.32340165416E+01  0.12388165969E+02  0.21629779432E+03  0.21667642353E+03  0.10566000000E+00 0.  1.
        -14    1    4    4    0    0 -0.56057191951E+01  0.16803193766E+02  0.27128986176E+03  0.27186754220E+03  0.00000000000E+00 0.  1.
<mgrwt>
<rscale>  0 0.81516178E+02</rscale>
<asrwt>0</asrwt>
<pdfrwt beam="1">  1        2 0.95299945E-01 0.81516178E+02</pdfrwt>
<pdfrwt beam="2">  1       -1 0.41258009E-03 0.81516178E+02</pdfrwt>
<totfact> 0.30897596E+05</totfact>
</mgrwt>
</event>
<event>
 8    1  0.7667702E-014  0.7870740E+02  0.7818608E-02  0.1332760E+00
          2   -1    0    0  501    0  0.00000000000E+00  0.00000000000E+00  0.15352179847E+02  0.15352180059E+02  0.25500000000E-02 0. -1.
         -1   -1    0    0    0  501 -0.00000000000E+00 -0.00000000000E+00 -0.10087907122E+03  0.10087907134E+03  0.50400000000E-02 0.  1.
         24    2    1    2    0    0  0.00000000000E+00  0.00000000000E+00 -0.85526891370E+02  0.11623125140E+03  0.78707398986E+02 0.  0.
         66    2    3    3    0    0  0.22890457752E+02 -0.49716445651E+01  0.38617027857E+01  0.23824421379E+02  0.19999999634E+01 0.  0.
        -13    1    3    3    0    0 -0.22890457752E+02  0.49716445651E+01 -0.89388594156E+02  0.92406830024E+02  0.10566000000E+00 0.  1.
         13    1    4    4    0    0  0.13152967399E+02 -0.21177293325E+01  0.18121006828E+01  0.13445452832E+02  0.10566000000E+00 0. -1.
        -13    1    4    4    0    0  0.43431465068E+01 -0.16520165853E+01  0.92273095110E+00  0.47386365995E+01  0.10566000000E+00 0.  1.
         14    1    4    4    0    0  0.53943438458E+01 -0.12018986473E+01  0.11268711518E+01  0.56403319475E+01  0.00000000000E+00 0. -1.
<mgrwt>
<rscale>  0 0.78707399E+02</rscale>
<asrwt>0</asrwt>
<pdfrwt beam="1">  1        2 0.23618739E-02 0.78707399E+02</pdfrwt>
<pdfrwt beam="2">  1       -1 0.15519857E-01 0.78707399E+02</pdfrwt>
<totfact> 0.12321202E+05</totfact>
</mgrwt>
</event>
<event>
 8    1  0.7667702E-014  0.7956595E+02  0.7818608E-02  0.1330288E+00
          2   -1    0    0  501    0  0.00000000000E+00  0.00000000000E+00  0.59936676788E+03  0.59936676788E+03  0.25500000000E-02 0. -1.
         -1   -1    0    0    0  501 -0.00000000000E+00 -0.00000000000E+00 -0.26405930722E+01  0.26405978820E+01  0.50400000000E-02 0.  1.
         24    2    1    2    0    0  0.00000000000E+00  0.00000000000E+00  0.59672617481E+03  0.60200736577E+03  0.79565952124E+02 0.  0.
         66    2    3    3    0    0  0.25862492070E+02  0.21367966316E+02  0.45998174585E+03  0.46120783275E+03  0.20000004691E+01 0.  0.
        -13    1    3    3    0    0 -0.25862492070E+02 -0.21367966316E+02  0.13674442896E+03  0.14079953301E+03  0.10566000000E+00 0.  1.
         13    1    4    4    0    0  0.69383655852E+01  0.57334060045E+01  0.11896642868E+03  0.11930647585E+03  0.10566000000E+00 0. -1.
        -13    1    4    4    0    0  0.11750445976E+02  0.95197169620E+01  0.22043938340E+03  0.22095753191E+03  0.10566000000E+00 0.  1.
        -14    1    4    4    0    0  0.71736805080E+01  0.61148433498E+01  0.12057593377E+03  0.12094382500E+03  0.00000000000E+00 0.  1.
<mgrwt>
<rscale>  0 0.79565952E+02</rscale>
<asrwt>0</asrwt>
<pdfrwt beam="1">  1        2 0.92210305E-01 0.79565952E+02</pdfrwt>
<pdfrwt beam="2">  1       -1 0.40624532E-03 0.79565952E+02</pdfrwt>
<totfact> 0.32612386E+05</totfact>
</mgrwt>
</event>
<event>
 8    1  0.7667702E-014  0.8352218E+02  0.7818608E-02  0.1319343E+00
          2   -1    0    0  501    0  0.00000000000E+00  0.00000000000E+00  0.42384373344E+03  0.42384373345E+03  0.25500000000E-02 0. -1.
         -1   -1    0    0    0  501 -0.00000000000E+00 -0.00000000000E+00 -0.41146957366E+01  0.41146988232E+01  0.50400000000E-02 0.  1.
         24    2    1    2    0    0  0.00000000000E+00 -0.17763568394E-14  0.41972903770E+03  0.42795843227E+03  0.83522180649E+02 0.  0.
         66    2    3    3    0    0 -0.36818672623E+02 -0.15778349509E+02  0.27004837015E+03  0.27301042689E+03  0.20000013335E+01 0.  0.
        -13    1    3    3    0    0  0.36818672623E+02  0.15778349509E+02  0.14968066756E+03  0.15494800538E+03  0.10566000000E+00 0.  1.
         13    1    4    4    0    0 -0.28651393805E+02 -0.11625156237E+02  0.21137686379E+03  0.21362639428E+03  0.10566000000E+00 0. -1.
        -13    1    4    4    0    0 -0.53118142517E+01 -0.28767958021E+01  0.38054292729E+02  0.38530918545E+02  0.10566000000E+00 0.  1.
         14    1    4    4    0    0 -0.28554645664E+01 -0.12763974697E+01  0.20617213633E+02  0.20853114070E+02  0.00000000000E+00 0. -1.
<mgrwt>
<rscale>  0 0.83522181E+02</rscale>
<asrwt>0</asrwt>
<pdfrwt beam="1">  1        2 0.65206727E-01 0.83522181E+02</pdfrwt>
<pdfrwt beam="2">  1       -1 0.63303037E-03 0.83522181E+02</pdfrwt>
<totfact> 0.25753553E+05</totfact>
</mgrwt>
</event>
<event>
 8    1  0.7667702E-014  0.7910567E+02  0.7818608E-02  0.1331609E+00
          2   -1    0    0  501    0  0.00000000000E+00  0.00000000000E+00  0.11964643965E+04  0.11964643965E+04  0.25500000000E-02 0. -1.
         -1   -1    0    0    0  501 -0.00000000000E+00 -0.00000000000E+00 -0.13075365087E+01  0.13075462222E+01  0.50400000000E-02 0.  1.
         24    2    1    2    0    0 -0.35527136788E-14  0.17763568394E-14  0.11951568599E+04  0.11977719427E+04  0.79105668535E+02 0.  0.
         66    2    3    3    0    0 -0.19901244067E+02  0.93563373748E+01  0.10952854573E+04  0.10955080253E+04  0.19999974016E+01 0.  0.
        -13    1    3    3    0    0  0.19901244067E+02 -0.93563373748E+01  0.99871402649E+02  0.10226391737E+03  0.10566000000E+00 0.  1.
         13    1    4    4    0    0 -0.76396118768E+01  0.32439134478E+01  0.38870937059E+03  0.38879798430E+03  0.10566000000E+00 0. -1.
        -13    1    4    4    0    0 -0.26905928664E+01  0.98634084271E+00  0.16893609357E+03  0.16896043038E+03  0.10566000000E+00 0.  1.
        -14    1    4    4    0    0 -0.95710393237E+01  0.51260830843E+01  0.53763999313E+03  0.53774961063E+03  0.00000000000E+00 0.  1.
<mgrwt>
<rscale>  0 0.79105669E+02</rscale>
<asrwt>0</asrwt>
<pdfrwt beam="1">  1        2 0.18407086E+00 0.79105669E+02</pdfrwt>
<pdfrwt beam="2">  1       -1 0.20116085E-03 0.79105669E+02</pdfrwt>
<totfact> 0.36086792E+05</totfact>
</mgrwt>
</event>
<event>
 8    1  0.7667702E-014  0.8089097E+02  0.7818608E-02  0.1326542E+00
          2   -1    0    0  501    0  0.00000000000E+00  0.00000000000E+00  0.19399397491E+03  0.19399397493E+03  0.25500000000E-02 0. -1.
         -1   -1    0    0    0  501 -0.00000000000E+00 -0.00000000000E+00 -0.84324111027E+01  0.84324126089E+01  0.50400000000E-02 0.  1.
         24    2    1    2    0    0  0.35527136788E-14  0.00000000000E+00  0.18556156381E+03  0.20242638754E+03  0.80890966172E+02 0.  0.
         66    2    3    3    0    0  0.23199113149E+02  0.33045745105E+02  0.97593337716E+02  0.10563465191E+03  0.19999990930E+01 0.  0.
        -13    1    3    3    0    0 -0.23199113149E+02 -0.33045745105E+02  0.87968226092E+02  0.96791735630E+02  0.10566000000E+00 0.  1.
         13    1    4    4    0    0  0.93769646972E+01  0.14098095436E+02  0.39818078574E+02  0.43268629597E+02  0.10566000000E+00 0. -1.
        -13    1    4    4    0    0  0.96919939325E+00  0.10090087062E+01  0.39935022852E+01  0.42328088275E+01  0.10566000000E+00 0. -1.
        -14    1    4    4    0    0  0.12852949058E+02  0.17938640963E+02  0.53781756857E+02  0.58133213482E+02  0.00000000000E+00 0.  1.
<mgrwt>
<rscale>  0 0.80890966E+02</rscale>
<asrwt>0</asrwt>
<pdfrwt beam="1">  1        2 0.29845228E-01 0.80890966E+02</pdfrwt>
<pdfrwt beam="2">  1       -1 0.12972941E-02 0.80890966E+02</pdfrwt>
<totfact> 0.21197569E+05</totfact>
</mgrwt>
</event>
<event>
 8    1  0.7667702E-014  0.8411626E+02  0.7818608E-02  0.1317760E+00
         -1   -1    0    0    0  501 -0.00000000000E+00  0.00000000000E+00  0.22944797621E+02  0.22944798174E+02  0.50400000000E-02 0.  1.
          2   -1    0    0  501    0  0.00000000000E+00 -0.00000000000E+00 -0.77093126890E+02  0.77093126932E+02  0.25500000000E-02 0. -1.
         24    2    1    2    0    0  0.00000000000E+00  0.00000000000E+00 -0.54148329269E+02  0.10003792511E+03  0.84116258220E+02 0.  0.
         66    2    3    3    0    0 -0.37465373626E+02  0.18280452989E+02 -0.33499647440E+02  0.53516871724E+02  0.19999995255E+01 0.  0.
        -13    1    3    3    0    0  0.37465373626E+02 -0.18280452989E+02 -0.20648681829E+02  0.46521053382E+02  0.10566000000E+00 0.  1.
         13    1    4    4    0    0 -0.36232178701E+01  0.17277972589E+01 -0.27553983766E+01  0.48699461343E+01  0.10566000000E+00 0. -1.
        -13    1    4    4    0    0 -0.13706568136E+02  0.71836151028E+01 -0.13334369136E+02  0.20427699340E+02  0.10566000000E+00 0. -1.
        -14    1    4    4    0    0 -0.20135587620E+02  0.93690406278E+01 -0.17409879927E+02  0.28219226250E+02  0.00000000000E+00 0.  1.
<mgrwt>
<rscale>  0 0.84116258E+02</rscale>
<asrwt>0</asrwt>
<pdfrwt beam="1">  1        2 0.11860481E-01 0.84116258E+02</pdfrwt>
<pdfrwt beam="2">  1       -1 0.35299690E-02 0.84116258E+02</pdfrwt>
<totfact> 0.14438019E+05</totfact>
</mgrwt>
</event>
<event>
 8    1  0.7667702E-014  0.7794073E+02  0.7818608E-02  0.1334999E+00
         -1   -1    0    0    0  501 -0.00000000000E+00  0.00000000000E+00  0.54219641983E+01  0.54219665408E+01  0.50400000000E-02 0.  1.
          2   -1    0    0  501    0  0.00000000000E+00 -0.00000000000E+00 -0.28009944655E+03  0.28009944656E+03  0.25500000000E-02 0. -1.
         24    2    1    2    0    0  0.00000000000E+00 -0.35527136788E-14 -0.27467748235E+03  0.28552141310E+03  0.77940734079E+02 0.  0.
         66    2    3    3    0    0 -0.28564496585E+02  0.25542762891E+02 -0.11196391145E+03  0.11835658271E+03  0.20000004605E+01 0.  0.
        -13    1    3    3    0    0  0.28564496585E+02 -0.25542762891E+02 -0.16271357090E+03  0.16716483039E+03  0.10566000000E+00 0.  1.
         13    1    4    4    0    0 -0.21766397389E+02  0.19692945878E+02 -0.85893107171E+02  0.90770177901E+02  0.10566000000E+00 0. -1.
        -13    1    4    4    0    0 -0.39314503383E+01  0.37412394327E+01 -0.14607018947E+02  0.15582982411E+02  0.10566000000E+00 0.  1.
         14    1    4    4    0    0 -0.28666488574E+01  0.21085775799E+01 -0.11463785333E+02  0.12003422397E+02  0.00000000000E+00 0. -1.
<mgrwt>
<rscale>  0 0.77940734E+02</rscale>
<asrwt>0</asrwt>
<pdfrwt beam="1">  1        2 0.43092211E-01 0.77940734E+02</pdfrwt>
<pdfrwt beam="2">  1       -1 0.83414874E-03 0.77940734E+02</pdfrwt>
<totfact> 0.26627502E+05</totfact>
</mgrwt>
</event>
<event>
 8    1  0.7667702E-014  0.8454230E+02  0.7818608E-02  0.1316634E+00
         -1   -1    0    0    0  501 -0.00000000000E+00  0.00000000000E+00  0.40335884011E+02  0.40335884326E+02  0.50400000000E-02 0.  1.
          2   -1    0    0  501    0  0.00000000000E+00 -0.00000000000E+00 -0.44299268423E+02  0.44299268497E+02  0.25500000000E-02 0. -1.
         24    2    1    2    0    0  0.00000000000E+00  0.35527136788E-14 -0.39633844122E+01  0.84635152823E+02  0.84542301112E+02 0.  0.
         66    2    3    3    0    0  0.15146070776E+02 -0.23615405071E+02 -0.33604739521E+02  0.43822018744E+02  0.19999979922E+01 0.  0.
        -13    1    3    3    0    0 -0.15146070776E+02  0.23615405071E+02  0.29641355108E+02  0.40813134079E+02  0.10566000000E+00 0.  1.
         13    1    4    4    0    0  0.68295065883E+01 -0.11794182540E+02 -0.15833635289E+02  0.20891626852E+02  0.10566000000E+00 0. -1.
        -13    1    4    4    0    0  0.48012933522E+01 -0.66372787923E+01 -0.92746930745E+01  0.12374852859E+02  0.10566000000E+00 0.  1.
         14    1    4    4    0    0  0.35152708355E+01 -0.51839437385E+01 -0.84964111567E+01  0.10555539033E+02  0.00000000000E+00 0. -1.
<mgrwt>
<rscale>  0 0.84542301E+02</rscale>
<asrwt>0</asrwt>
<pdfrwt beam="1">  1        2 0.68152721E-02 0.84542301E+02</pdfrwt>
<pdfrwt beam="2">  1       -1 0.62055206E-02 0.84542301E+02</pdfrwt>
<totfact> 0.12499755E+05</totfact>
</mgrwt>
</event>
<event>
 8    1  0.7667702E-014  0.7415313E+02  0.7818608E-02  0.1346514E+00
          2   -1    0    0  501    0  0.00000000000E+00  0.00000000000E+00  0.25976722281E+02  0.25976722406E+02  0.25500000000E-02 0. -1.
         -1   -1    0    0    0  501 -0.00000000000E+00 -0.00000000000E+00 -0.52919367217E+02  0.52919367457E+02  0.50400000000E-02 0.  1.
         24    2    1    2    0    0  0.00000000000E+00 -0.35527136788E-14 -0.26942644936E+02  0.78896089863E+02  0.74153131286E+02 0.  0.
         66    2    3    3    0    0 -0.21528688205E+02  0.21799701471E+02  0.86829264271E+01  0.31907751958E+02  0.20000059116E+01 0.  0.
        -13    1    3    3    0    0  0.21528688205E+02 -0.21799701471E+02 -0.35625571363E+02  0.46988337904E+02  0.10566000000E+00 0.  1.
         13    1    4    4    0    0 -0.74508102079E+00  0.49087766990E+00  0.61183062705E-01  0.90056316664E+00  0.10566000000E+00 0.  1.
        -13    1    4    4    0    0 -0.71329570257E+01  0.77623784547E+01  0.34474582367E+01  0.11091876646E+02  0.10566000000E+00 0. -1.
         14    1    4    4    0    0 -0.13650650159E+02  0.13546445346E+02  0.51742851277E+01  0.19915312145E+02  0.00000000000E+00 0. -1.
<mgrwt>
<rscale>  0 0.74153131E+02</rscale>
<asrwt>0</asrwt>
<pdfrwt beam="1">  1        2 0.39964188E-02 0.74153131E+02</pdfrwt>
<pdfrwt beam="2">  1       -1 0.81414411E-02 0.74153131E+02</pdfrwt>
<totfact> 0.16181391E+05</totfact>
</mgrwt>
</event>
<event>
 8    1  0.7667702E-014  0.8039603E+02  0.7818608E-02  0.1327931E+00
         -1   -1    0    0    0  501 -0.00000000000E+00  0.00000000000E+00  0.58318640046E+01  0.58318661824E+01  0.50400000000E-02 0.  1.
          2   -1    0    0  501    0  0.00000000000E+00 -0.00000000000E+00 -0.27707782966E+03  0.27707782967E+03  0.25500000000E-02 0. -1.
         24    2    1    2    0    0  0.00000000000E+00  0.00000000000E+00 -0.27124596566E+03  0.28290969585E+03  0.80396033011E+02 0.  0.
         66    2    3    3    0    0 -0.28140794188E+02 -0.28602299961E+02 -0.14263794395E+03  0.14818764765E+03  0.20000004945E+01 0.  0.
        -13    1    3    3    0    0  0.28140794188E+02  0.28602299961E+02 -0.12860802171E+03  0.13472204820E+03  0.10566000000E+00 0.  1.
         13    1    4    4    0    0 -0.36645697461E+01 -0.37373413147E+01 -0.18606638338E+02  0.19329121703E+02  0.10566000000E+00 0. -1.
        -13    1    4    4    0    0 -0.12503967947E+02 -0.13975059786E+02 -0.67349330861E+02  0.69911337006E+02  0.10566000000E+00 0.  1.
         14    1    4    4    0    0 -0.11972256495E+02 -0.10889898860E+02 -0.56681974748E+02  0.58947188941E+02  0.00000000000E+00 0. -1.
<mgrwt>
<rscale>  0 0.80396033E+02</rscale>
<asrwt>0</asrwt>
<pdfrwt beam="1">  1        2 0.42627348E-01 0.80396033E+02</pdfrwt>
<pdfrwt beam="2">  1       -1 0.89721023E-03 0.80396033E+02</pdfrwt>
<totfact> 0.24451788E+05</totfact>
</mgrwt>
</event>
<event>
 8    1  0.7667702E-014  0.7735021E+02  0.7818608E-02  0.1336744E+00
         -1   -1    0    0    0  501 -0.00000000000E+00  0.00000000000E+00  0.51019531203E+01  0.51019556097E+01  0.50400000000E-02 0.  1.
          2   -1    0    0  501    0  0.00000000000E+00 -0.00000000000E+00 -0.29317465843E+03  0.29317465844E+03  0.25500000000E-02 0. -1.
         24    2    1    2    0    0  0.35527136788E-14  0.44408920985E-15 -0.28807270531E+03  0.29827661405E+03  0.77350209729E+02 0.  0.
         66    2    3    3    0    0  0.31445487387E+02  0.30324507677E+01 -0.22999153589E+03  0.23215968853E+03  0.19999909774E+01 0.  0.
        -13    1    3    3    0    0 -0.31445487387E+02 -0.30324507677E+01 -0.58081169415E+02  0.66116925513E+02  0.10566000000E+00 0.  1.
         13    1    4    4    0    0  0.14381209135E+02  0.17700860489E+01 -0.10230388561E+03  0.10332496580E+03  0.10566000000E+00 0. -1.
        -13    1    4    4    0    0  0.69988754706E+01  0.10333845742E+01 -0.50530114961E+02  0.51023091082E+02  0.10566000000E+00 0.  1.
         14    1    4    4    0    0  0.10065402782E+02  0.22898014454E+00 -0.77157535316E+02  0.77811631657E+02  0.00000000000E+00 0. -1.
<mgrwt>
<rscale>  0 0.77350210E+02</rscale>
<asrwt>0</asrwt>
<pdfrwt beam="1">  1        2 0.45103781E-01 0.77350210E+02</pdfrwt>
<pdfrwt beam="2">  1       -1 0.78491629E-03 0.77350210E+02</pdfrwt>
<totfact> 0.27613862E+05</totfact>
</mgrwt>
</event>
<event>
 8    1  0.7667702E-014  0.8195561E+02  0.7818608E-02  0.1323592E+00
          2   -1    0    0  501    0  0.00000000000E+00  0.00000000000E+00  0.83427630512E+01  0.83427634409E+01  0.25500000000E-02 0. -1.
         -1   -1    0    0    0  501 -0.00000000000E+00 -0.00000000000E+00 -0.20127390883E+03  0.20127390889E+03  0.50400000000E-02 0.  1.
         24    2    1    2    0    0  0.00000000000E+00  0.00000000000E+00 -0.19293114578E+03  0.20961667233E+03  0.81955611820E+02 0.  0.
         66    2    3    3    0    0  0.30735042655E+02 -0.23218143241E+02 -0.60948907188E+02  0.72128318318E+02  0.19999983576E+01 0.  0.
        -13    1    3    3    0    0 -0.30735042655E+02  0.23218143241E+02 -0.13198223859E+03  0.13748835401E+03  0.10566000000E+00 0.  1.
         13    1    4    4    0    0  0.16924962877E+02 -0.12168745503E+02 -0.34015519551E+02  0.39894855180E+02  0.10566000000E+00 0. -1.
        -13    1    4    4    0    0  0.11717566720E+02 -0.90475540096E+01 -0.22156440353E+02  0.26647300362E+02  0.10566000000E+00 0.  1.
         14    1    4    4    0    0  0.20925130581E+01 -0.20018437290E+01 -0.47769472835E+01  0.55861627763E+01  0.00000000000E+00 0. -1.
<mgrwt>
<rscale>  0 0.81955612E+02</rscale>
<asrwt>0</asrwt>
<pdfrwt beam="1">  1        2 0.12835022E-02 0.81955612E+02</pdfrwt>
<pdfrwt beam="2">  1       -1 0.30965213E-01 0.81955612E+02</pdfrwt>
<totfact> 0.93481834E+04</totfact>
</mgrwt>
</event>
<event>
 8    1  0.7667702E-014  0.8222454E+02  0.7818608E-02  0.1322854E+00
         -1   -1    0    0    0  501 -0.00000000000E+00  0.00000000000E+00  0.17266604702E+01  0.17266678258E+01  0.50400000000E-02 0.  1.
          2   -1    0    0  501    0  0.00000000000E+00 -0.00000000000E+00 -0.97889264800E+03  0.97889264800E+03  0.25500000000E-02 0. -1.
         24    2    1    2    0    0  0.11102230246E-15  0.00000000000E+00 -0.97716598753E+03  0.98061931583E+03  0.82224542517E+02 0.  0.
         66    2    3    3    0    0  0.60169921696E+00 -0.28664657406E+02 -0.83986983811E+03  0.84036145175E+03  0.19999990970E+01 0.  0.
        -13    1    3    3    0    0 -0.60169921696E+00  0.28664657406E+02 -0.13729614942E+03  0.14025786408E+03  0.10566000000E+00 0.  1.
         13    1    4    4    0    0  0.15043504187E+00 -0.21489972744E+02 -0.60666076480E+03  0.60704129701E+03  0.10566000000E+00 0. -1.
        -13    1    4    4    0    0  0.28073945982E+00 -0.50387773372E+01 -0.16875880874E+03  0.16883428201E+03  0.10566000000E+00 0.  1.
        -14    1    4    4    0    0  0.17052471527E+00 -0.21359073245E+01 -0.64450264576E+02  0.64485872737E+02  0.00000000000E+00 0.  1.
<mgrwt>
<rscale>  0 0.82224543E+02</rscale>
<asrwt>0</asrwt>
<pdfrwt beam="1">  1        2 0.15059843E+00 0.82224543E+02</pdfrwt>
<pdfrwt beam="2">  1       -1 0.26564142E-03 0.82224543E+02</pdfrwt>
<totfact> 0.32771923E+05</totfact>
</mgrwt>
</event>
<event>
 8    1  0.7667702E-014  0.7712017E+02  0.7818608E-02  0.1337428E+00
         -1   -1    0    0    0  501 -0.00000000000E+00  0.00000000000E+00  0.41473692927E+01  0.41473723551E+01  0.50400000000E-02 0.  1.
          2   -1    0    0  501    0  0.00000000000E+00 -0.00000000000E+00 -0.35851148577E+03  0.35851148578E+03  0.25500000000E-02 0. -1.
         24    2    1    2    0    0  0.00000000000E+00  0.00000000000E+00 -0.35436411648E+03  0.36265885814E+03  0.77120168157E+02 0.  0.
         66    2    3    3    0    0  0.35497140974E+02  0.13994158046E+02 -0.15198068945E+03  0.15670996599E+03  0.19999994180E+01 0.  0.
        -13    1    3    3    0    0 -0.35497140974E+02 -0.13994158046E+02 -0.20238342703E+03  0.20594889215E+03  0.10566000000E+00 0.  1.
         13    1    4    4    0    0  0.74186014354E+01  0.29127987111E+01 -0.34634181584E+02  0.35539523655E+02  0.10566000000E+00 0. -1.
        -13    1    4    4    0    0  0.12182857190E+02  0.47555116568E+01 -0.49029450357E+02  0.50743818015E+02  0.10566000000E+00 0.  1.
         14    1    4    4    0    0  0.15895682349E+02  0.63258476783E+01 -0.68317057511E+02  0.70426624320E+02  0.00000000000E+00 0. -1.
<mgrwt>
<rscale>  0 0.77120168E+02</rscale>
<asrwt>0</asrwt>
<pdfrwt beam="1">  1        2 0.55155589E-01 0.77120168E+02</pdfrwt>
<pdfrwt beam="2">  1       -1 0.63805734E-03 0.77120168E+02</pdfrwt>
<totfact> 0.29911770E+05</totfact>
</mgrwt>
</event>
<event>
 8    1  0.7667702E-014  0.8013335E+02  0.7818608E-02  0.1328673E+00
          2   -1    0    0  501    0  0.00000000000E+00  0.00000000000E+00  0.93596486399E+02  0.93596486434E+02  0.25500000000E-02 0. -1.
         -1   -1    0    0    0  501 -0.00000000000E+00 -0.00000000000E+00 -0.17151696540E+02  0.17151697280E+02  0.50400000000E-02 0.  1.
         24    2    1    2    0    0 -0.35527136788E-14 -0.35527136788E-14  0.76444789860E+02  0.11074818371E+03  0.80133353226E+02 0.  0.
         66    2    3    3    0    0 -0.27954189683E+02  0.17199010538E+02  0.69945732152E+02  0.77289379201E+02  0.20000016465E+01 0.  0.
        -13    1    3    3    0    0  0.27954189683E+02 -0.17199010538E+02  0.64990577074E+01  0.33458804513E+02  0.10566000000E+00 0.  1.
         13    1    4    4    0    0 -0.14570582972E+02  0.90071871170E+01  0.36028380824E+02  0.39893441776E+02  0.10566000000E+00 0. -1.
        -13    1    4    4    0    0 -0.65642110336E+01  0.43838197752E+01  0.15628569631E+02  0.17509143185E+02  0.10566000000E+00 0.  1.
        -14    1    4    4    0    0 -0.68193956779E+01  0.38080036459E+01  0.18288781697E+02  0.19886794240E+02  0.00000000000E+00 0.  1.
<mgrwt>
<rscale>  0 0.80133353E+02</rscale>
<asrwt>0</asrwt>
<pdfrwt beam="1">  1        2 0.14399460E-01 0.80133353E+02</pdfrwt>
<pdfrwt beam="2">  1       -1 0.26387226E-02 0.80133353E+02</pdfrwt>
<totfact> 0.17326900E+05</totfact>
</mgrwt>
</event>
<event>
 8    1  0.7667702E-014  0.7937024E+02  0.7818608E-02  0.1330848E+00
          2   -1    0    0  501    0  0.00000000000E+00  0.00000000000E+00  0.19832916514E+03  0.19832916516E+03  0.25500000000E-02 0. -1.
         -1   -1    0    0    0  501 -0.00000000000E+00 -0.00000000000E+00 -0.79408814686E+01  0.79408830680E+01  0.50400000000E-02 0.  1.
         24    2    1    2    0    0  0.71054273576E-14  0.35527136788E-14  0.19038828367E+03  0.20627004823E+03  0.79370235197E+02 0.  0.
         66    2    3    3    0    0 -0.18593966323E+02 -0.28123747481E+02  0.14953352623E+03  0.15330021600E+03  0.20000009383E+01 0.  0.
        -13    1    3    3    0    0  0.18593966323E+02  0.28123747481E+02  0.40854757443E+02  0.52969832223E+02  0.10566000000E+00 0.  1.
         13    1    4    4    0    0 -0.11360630346E+02 -0.17322737004E+02  0.90154051616E+02  0.92503542235E+02  0.10566000000E+00 0. -1.
        -13    1    4    4    0    0 -0.30300392590E+00 -0.63036052592E+00  0.44013282383E+01  0.44578044000E+01  0.10566000000E+00 0.  1.
        -14    1    4    4    0    0 -0.69303320510E+01 -0.10170649951E+02  0.54978146376E+02  0.56338869368E+02  0.00000000000E+00 0.  1.
<mgrwt>
<rscale>  0 0.79370235E+02</rscale>
<asrwt>0</asrwt>
<pdfrwt beam="1">  1        2 0.30512180E-01 0.79370235E+02</pdfrwt>
<pdfrwt beam="2">  1       -1 0.12216742E-02 0.79370235E+02</pdfrwt>
<totfact> 0.22457805E+05</totfact>
</mgrwt>
</event>
<event>
 8    1  0.7667702E-014  0.8052726E+02  0.7818608E-02  0.1327562E+00
          2   -1    0    0  501    0  0.00000000000E+00  0.00000000000E+00  0.57197212910E+03  0.57197212911E+03  0.25500000000E-02 0. -1.
         -1   -1    0    0    0  501 -0.00000000000E+00 -0.00000000000E+00 -0.28343311486E+01  0.28343356296E+01  0.50400000000E-02 0.  1.
         24    2    1    2    0    0 -0.71054273576E-14  0.00000000000E+00  0.56913779796E+03  0.57480646474E+03  0.80527255290E+02 0.  0.
         66    2    3    3    0    0  0.38785875489E+02  0.73694958240E+01  0.34026535736E+03  0.34255388922E+03  0.19999989521E+01 0.  0.
        -13    1    3    3    0    0 -0.38785875489E+02 -0.73694958240E+01  0.22887244060E+03  0.23225257552E+03  0.10566000000E+00 0.  1.
         13    1    4    4    0    0  0.33507662608E+02  0.60989151878E+01  0.29344774320E+03  0.29541758474E+03  0.10566000000E+00 0. -1.
        -13    1    4    4    0    0  0.20083072139E+01  0.31162627666E+00  0.15213065918E+02  0.15348581285E+02  0.10566000000E+00 0.  1.
         14    1    4    4    0    0  0.32699056674E+01  0.95895435957E+00  0.31604548239E+02  0.31787723195E+02  0.00000000000E+00 0. -1.
<mgrwt>
<rscale>  0 0.80527255E+02</rscale>
<asrwt>0</asrwt>
<pdfrwt beam="1">  1        2 0.87995798E-01 0.80527255E+02</pdfrwt>
<pdfrwt beam="2">  1       -1 0.43605087E-03 0.80527255E+02</pdfrwt>
<totfact> 0.31190319E+05</totfact>
</mgrwt>
</event>
<event>
 8    1  0.7667702E-014  0.8053337E+02  0.7818608E-02  0.1327545E+00
          2   -1    0    0  501    0  0.00000000000E+00  0.00000000000E+00  0.12262111550E+04  0.12262111550E+04  0.25500000000E-02 0. -1.
         -1   -1    0    0    0  501 -0.00000000000E+00 -0.00000000000E+00 -0.13222845856E+01  0.13222941907E+01  0.50400000000E-02 0.  1.
         24    2    1    2    0    0  0.00000000000E+00 -0.35527136788E-14  0.12248888704E+04  0.12275334492E+04  0.80533372111E+02 0.  0.
         66    2    3    3    0    0 -0.11578883448E+01 -0.17527233289E+02  0.11646888536E+04  0.11648230210E+04  0.20000018579E+01 0.  0.
        -13    1    3    3    0    0  0.11578883448E+01  0.17527233289E+02  0.60200016845E+02  0.62710428195E+02  0.10566000000E+00 0.  1.
         13    1    4    4    0    0 -0.14109679916E+00 -0.20034010927E+01  0.16748489085E+03  0.16749696520E+03  0.10566000000E+00 0.  1.
        -13    1    4    4    0    0  0.21791151429E+00 -0.10386851487E+01  0.65571258277E+02  0.65579931597E+02  0.10566000000E+00 0. -1.
         14    1    4    4    0    0 -0.12347030599E+01 -0.14485147048E+02  0.93163270446E+03  0.93174612422E+03  0.00000000000E+00 0. -1.
<mgrwt>
<rscale>  0 0.80533372E+02</rscale>
<asrwt>0</asrwt>
<pdfrwt beam="1">  1        2 0.18864747E+00 0.80533372E+02</pdfrwt>
<pdfrwt beam="2">  1       -1 0.20342957E-03 0.80533372E+02</pdfrwt>
<totfact> 0.34348666E+05</totfact>
</mgrwt>
</event>
<event>
 8    1  0.7667702E-014  0.8131038E+02  0.7818608E-02  0.1325373E+00
         -1   -1    0    0    0  501 -0.00000000000E+00  0.00000000000E+00  0.22797381900E+03  0.22797381906E+03  0.50400000000E-02 0.  1.
          2   -1    0    0  501    0  0.00000000000E+00 -0.00000000000E+00 -0.72501500568E+01  0.72501505052E+01  0.25500000000E-02 0. -1.
         24    2    1    2    0    0  0.00000000000E+00  0.00000000000E+00  0.22072366894E+03  0.23522396956E+03  0.81310379560E+02 0.  0.
         66    2    3    3    0    0 -0.37713735368E+01 -0.40099959872E+02  0.94954859884E+02  0.10316324665E+03  0.20000008068E+01 0.  0.
        -13    1    3    3    0    0  0.37713735368E+01  0.40099959872E+02  0.12576880906E+03  0.13206072291E+03  0.10566000000E+00 0.  1.
         13    1    4    4    0    0 -0.91875371246E+00 -0.62858550028E+01  0.13814387847E+02  0.15205412100E+02  0.10566000000E+00 0. -1.
        -13    1    4    4    0    0  0.36204865710E-01 -0.47435022370E+00  0.12462518821E+01  0.13381430104E+01  0.10566000000E+00 0.  1.
        -14    1    4    4    0    0 -0.28888246901E+01 -0.33339754646E+02  0.79894220155E+02  0.86619691538E+02  0.00000000000E+00 0.  1.
<mgrwt>
<rscale>  0 0.81310380E+02</rscale>
<asrwt>0</asrwt>
<pdfrwt beam="1">  1        2 0.11154078E-02 0.81310380E+02</pdfrwt>
<pdfrwt beam="2">  1       -1 0.35072894E-01 0.81310380E+02</pdfrwt>
<totfact> 0.91684132E+04</totfact>
</mgrwt>
</event>
<event>
 8    1  0.7667702E-014  0.7490266E+02  0.7818608E-02  0.1344173E+00
          2   -1    0    0  501    0  0.00000000000E+00  0.00000000000E+00  0.24143392829E+03  0.24143392831E+03  0.25500000000E-02 0. -1.
         -1   -1    0    0    0  501 -0.00000000000E+00 -0.00000000000E+00 -0.58094648867E+01  0.58094670729E+01  0.50400000000E-02 0.  1.
         24    2    1    2    0    0  0.00000000000E+00  0.00000000000E+00  0.23562446341E+03  0.24724339538E+03  0.74902662190E+02 0.  0.
         66    2    3    3    0    0 -0.18321508447E+02  0.12270936549E+01  0.22553721273E+03  0.22629232808E+03  0.19999983300E+01 0.  0.
        -13    1    3    3    0    0  0.18321508447E+02 -0.12270936549E+01  0.10087250680E+02  0.20951067298E+02  0.10566000000E+00 0.  1.
         13    1    4    4    0    0 -0.25403799632E+01 -0.13742430955E+00  0.25652679160E+02  0.25778741783E+02  0.10566000000E+00 0. -1.
        -13    1    4    4    0    0 -0.11180767751E+02  0.13854536816E+01  0.14006515001E+03  0.14051756638E+03  0.10566000000E+00 0.  1.
        -14    1    4    4    0    0 -0.46003607334E+01 -0.20935717077E-01  0.59819383556E+02  0.59996019919E+02  0.00000000000E+00 0.  1.
<mgrwt>
<rscale>  0 0.74902662E+02</rscale>
<asrwt>0</asrwt>
<pdfrwt beam="1">  1        2 0.37143680E-01 0.74902662E+02</pdfrwt>
<pdfrwt beam="2">  1       -1 0.89376403E-03 0.74902662E+02</pdfrwt>
<totfact> 0.28012543E+05</totfact>
</mgrwt>
</event>
<event>
 8    1  0.7667702E-014  0.7989693E+02  0.7818608E-02  0.1329344E+00
         -1   -1    0    0    0  501 -0.00000000000E+00  0.00000000000E+00  0.63099974935E+01  0.63099995063E+01  0.50400000000E-02 0.  1.
          2   -1    0    0  501    0  0.00000000000E+00 -0.00000000000E+00 -0.25291285536E+03  0.25291285537E+03  0.25500000000E-02 0. -1.
         24    2    1    2    0    0 -0.71054273576E-14 -0.17763568394E-14 -0.24660285787E+03  0.25922285488E+03  0.79896927249E+02 0.  0.
         66    2    3    3    0    0  0.39063038848E+02  0.82433856999E+01 -0.12331546758E+03  0.12963247646E+03  0.19999990372E+01 0.  0.
        -13    1    3    3    0    0 -0.39063038848E+02 -0.82433856999E+01 -0.12328739029E+03  0.12959037842E+03  0.10566000000E+00 0.  1.
         13    1    4    4    0    0  0.19920579984E+02  0.47028543622E+01 -0.62253424439E+02  0.65532025488E+02  0.10566000000E+00 0. -1.
        -13    1    4    4    0    0  0.44269416995E+01  0.12932560482E+01 -0.14822998793E+02  0.15524264275E+02  0.10566000000E+00 0.  1.
        -14    1    4    4    0    0  0.14715517164E+02  0.22472752895E+01 -0.46239044348E+02  0.48576186695E+02  0.00000000000E+00 0.  1.
<mgrwt>
<rscale>  0 0.79896927E+02</rscale>
<asrwt>0</asrwt>
<pdfrwt beam="1">  1        2 0.38909662E-01 0.79896927E+02</pdfrwt>
<pdfrwt beam="2">  1       -1 0.97076920E-03 0.79896927E+02</pdfrwt>
<totfact> 0.24049013E+05</totfact>
</mgrwt>
</event>
<event>
 8    1  0.7667702E-014  0.7871370E+02  0.7818608E-02  0.1332742E+00
          2   -1    0    0  501    0  0.00000000000E+00  0.00000000000E+00  0.36155507643E+02  0.36155507733E+02  0.25500000000E-02 0. -1.
         -1   -1    0    0    0  501 -0.00000000000E+00 -0.00000000000E+00 -0.42841655742E+02  0.42841656039E+02  0.50400000000E-02 0.  1.
         24    2    1    2    0    0  0.00000000000E+00  0.00000000000E+00 -0.66861480993E+01  0.78997163772E+02  0.78713704700E+02 0.  0.
         66    2    3    3    0    0 -0.20085003233E+02 -0.26348755863E+01  0.30489783198E+02  0.36660289111E+02  0.19999985007E+01 0.  0.
        -13    1    3    3    0    0  0.20085003233E+02  0.26348755863E+01 -0.37175931297E+02  0.42336874661E+02  0.10566000000E+00 0.  1.
         13    1    4    4    0    0 -0.10209304232E+02 -0.15234947684E+01  0.16322157192E+02  0.19312558314E+02  0.10566000000E+00 0. -1.
        -13    1    4    4    0    0 -0.79781327370E+00  0.78893509865E-01  0.74230442159E+00  0.10976839689E+01  0.10566000000E+00 0.  1.
         14    1    4    4    0    0 -0.90778857271E+01 -0.11902743278E+01  0.13425321584E+02  0.16250046828E+02  0.00000000000E+00 0. -1.
<mgrwt>
<rscale>  0 0.78713705E+02</rscale>
<asrwt>0</asrwt>
<pdfrwt beam="1">  1        2 0.55623858E-02 0.78713705E+02</pdfrwt>
<pdfrwt beam="2">  1       -1 0.65910240E-02 0.78713705E+02</pdfrwt>
<totfact> 0.14607172E+05</totfact>
</mgrwt>
</event>
<event>
 8    1  0.7667702E-014  0.7512691E+02  0.7818608E-02  0.1343478E+00
         -1   -1    0    0    0  501 -0.00000000000E+00  0.00000000000E+00  0.20379551683E+01  0.20379614004E+01  0.50400000000E-02 0.  1.
          2   -1    0    0  501    0  0.00000000000E+00 -0.00000000000E+00 -0.69236603216E+03  0.69236603217E+03  0.25500000000E-02 0. -1.
         24    2    1    2    0    0 -0.35527136788E-14 -0.17763568394E-14 -0.69032807700E+03  0.69440399357E+03  0.75126908603E+02 0.  0.
         66    2    3    3    0    0  0.19686478314E+02  0.14604640579E+02 -0.60817090678E+03  0.60866797584E+03  0.19999999755E+01 0.  0.
        -13    1    3    3    0    0 -0.19686478314E+02 -0.14604640579E+02 -0.82157170216E+02  0.85736017734E+02  0.10566000000E+00 0.  1.
         13    1    4    4    0    0  0.79505851189E+01  0.58280531722E+01 -0.26273984863E+03  0.26292473682E+03  0.10566000000E+00 0. -1.
        -13    1    4    4    0    0  0.47573640671E+00  0.17846367555E+00 -0.13478886546E+02  0.13488873970E+02  0.10566000000E+00 0. -1.
        -14    1    4    4    0    0  0.11260156788E+02  0.85981237315E+01 -0.33195217160E+03  0.33225436505E+03  0.00000000000E+00 0.  1.
<mgrwt>
<rscale>  0 0.75126909E+02</rscale>
<asrwt>0</asrwt>
<pdfrwt beam="1">  1        2 0.10651766E+00 0.75126909E+02</pdfrwt>
<pdfrwt beam="2">  1       -1 0.31353260E-03 0.75126909E+02</pdfrwt>
<totfact> 0.39268958E+05</totfact>
</mgrwt>
</event>
<event>
 8    1  0.7667702E-014  0.7960923E+02  0.7818608E-02  0.1330164E+00
          2   -1    0    0  501    0  0.00000000000E+00  0.00000000000E+00  0.11006593008E+03  0.11006593011E+03  0.25500000000E-02 0. -1.
         -1   -1    0    0    0  501 -0.00000000000E+00 -0.00000000000E+00 -0.14395076624E+02  0.14395077506E+02  0.50400000000E-02 0.  1.
         24    2    1    2    0    0  0.00000000000E+00  0.35527136788E-14  0.95670853459E+02  0.12446100762E+03  0.79609234488E+02 0.  0.
         66    2    3    3    0    0 -0.17130231780E+02 -0.21270603438E+02  0.93083166212E+02  0.97027621011E+02  0.19999988656E+01 0.  0.
        -13    1    3    3    0    0  0.17130231780E+02  0.21270603438E+02  0.25876872473E+01  0.27433386608E+02  0.10566000000E+00 0.  1.
         13    1    4    4    0    0 -0.59966289061E+01 -0.63651558459E+01  0.30835848953E+02  0.32052075001E+02  0.10566000000E+00 0. -1.
        -13    1    4    4    0    0 -0.31559226454E+01 -0.45856482546E+01  0.19987141708E+02  0.20748132816E+02  0.10566000000E+00 0.  1.
        -14    1    4    4    0    0 -0.79776802288E+01 -0.10319799337E+02  0.42260175550E+02  0.44227413193E+02  0.00000000000E+00 0.  1.
<mgrwt>
<rscale>  0 0.79609234E+02</rscale>
<asrwt>0</asrwt>
<pdfrwt beam="1">  1        2 0.16933220E-01 0.79609234E+02</pdfrwt>
<pdfrwt beam="2">  1       -1 0.22146273E-02 0.79609234E+02</pdfrwt>
<totfact> 0.18456820E+05</totfact>
</mgrwt>
</event>
<event>
 8    1  0.7667702E-014  0.7946425E+02  0.7818608E-02  0.1330579E+00
         -1   -1    0    0    0  501 -0.00000000000E+00  0.00000000000E+00  0.78124442943E+01  0.78124459200E+01  0.50400000000E-02 0.  1.
          2   -1    0    0  501    0  0.00000000000E+00 -0.00000000000E+00 -0.20206754279E+03  0.20206754281E+03  0.25500000000E-02 0. -1.
         24    2    1    2    0    0 -0.88817841970E-15  0.00000000000E+00 -0.19425509850E+03  0.20987998873E+03  0.79464245899E+02 0.  0.
         66    2    3    3    0    0  0.48124081260E+01  0.34560716856E+02 -0.14723465225E+03  0.15132628730E+03  0.19999959108E+01 0.  0.
        -13    1    3    3    0    0 -0.48124081260E+01 -0.34560716856E+02 -0.47020446255E+02  0.58553701434E+02  0.10566000000E+00 0.  1.
         13    1    4    4    0    0  0.26103215449E+01  0.23913198298E+02 -0.99848278113E+02  0.10270513443E+03  0.10566000000E+00 0. -1.
        -13    1    4    4    0    0  0.59240275434E+00  0.40878957606E+01 -0.18415739554E+02  0.18873591607E+02  0.10566000000E+00 0.  1.
        -14    1    4    4    0    0  0.16096838268E+01  0.65596227972E+01 -0.28970634578E+02  0.29747561263E+02  0.00000000000E+00 0.  1.
<mgrwt>
<rscale>  0 0.79464246E+02</rscale>
<asrwt>0</asrwt>
<pdfrwt beam="1">  1        2 0.31087310E-01 0.79464246E+02</pdfrwt>
<pdfrwt beam="2">  1       -1 0.12019148E-02 0.79464246E+02</pdfrwt>
<totfact> 0.22533357E+05</totfact>
</mgrwt>
</event>
<event>
 8    1  0.7667702E-014  0.7558286E+02  0.7818608E-02  0.1342076E+00
          2   -1    0    0  501    0  0.00000000000E+00  0.00000000000E+00  0.59966784450E+02  0.59966784504E+02  0.25500000000E-02 0. -1.
         -1   -1    0    0    0  501 -0.00000000000E+00 -0.00000000000E+00 -0.23816384378E+02  0.23816384912E+02  0.50400000000E-02 0.  1.
         24    2    1    2    0    0  0.00000000000E+00  0.17763568394E-14  0.36150400071E+02  0.83783169416E+02  0.75582855543E+02 0.  0.
         66    2    3    3    0    0  0.20775708008E+02 -0.13981642034E+02  0.49422561875E+02  0.55441013531E+02  0.20000004480E+01 0.  0.
        -13    1    3    3    0    0 -0.20775708008E+02  0.13981642034E+02 -0.13272161804E+02  0.28342155885E+02  0.10566000000E+00 0.  1.
         13    1    4    4    0    0  0.77462365339E+01 -0.56572524939E+01  0.17645823212E+02  0.20084693851E+02  0.10566000000E+00 0. -1.
        -13    1    4    4    0    0  0.58695361077E+01 -0.33974678487E+01  0.14986240798E+02  0.16449705748E+02  0.10566000000E+00 0.  1.
         14    1    4    4    0    0  0.71599353666E+01 -0.49269216914E+01  0.16790497865E+02  0.18906613932E+02  0.00000000000E+00 0. -1.
<mgrwt>
<rscale>  0 0.75582856E+02</rscale>
<asrwt>0</asrwt>
<pdfrwt beam="1">  1        2 0.92256590E-02 0.75582856E+02</pdfrwt>
<pdfrwt beam="2">  1       -1 0.36640593E-02 0.75582856E+02</pdfrwt>
<totfact> 0.18154427E+05</totfact>
</mgrwt>
</event>
<event>
 8    1  0.7667702E-014  0.7957346E+02  0.7818608E-02  0.1330266E+00
          2   -1    0    0  501    0  0.00000000000E+00  0.00000000000E+00  0.30143510554E+03  0.30143510556E+03  0.25500000000E-02 0. -1.
         -1   -1    0    0    0  501 -0.00000000000E+00 -0.00000000000E+00 -0.52514898211E+01  0.52514922396E+01  0.50400000000E-02 0.  1.
         24    2    1    2    0    0  0.00000000000E+00 -0.17763568394E-14  0.29618361572E+03  0.30668659780E+03  0.79573456906E+02 0.  0.
         66    2    3    3    0    0  0.51678907824E+01  0.94686992557E+01  0.29568386174E+03  0.29588732565E+03  0.20000070575E+01 0.  0.
        -13    1    3    3    0    0 -0.51678907824E+01 -0.94686992557E+01  0.49975398495E+00  0.10799272143E+02  0.10566000000E+00 0.  1.
         13    1    4    4    0    0  0.54324015782E+00  0.31773184422E+00  0.20769921027E+02  0.20779722012E+02  0.10566000000E+00 0. -1.
        -13    1    4    4    0    0  0.89701184316E+00  0.24619623888E+01  0.59992072339E+02  0.60049361334E+02  0.10566000000E+00 0.  1.
         14    1    4    4    0    0  0.37276387815E+01  0.66890050226E+01  0.21492186837E+03  0.21505824231E+03  0.00000000000E+00 0. -1.
<mgrwt>
<rscale>  0 0.79573457E+02</rscale>
<asrwt>0</asrwt>
<pdfrwt beam="1">  1        2 0.46374645E-01 0.79573457E+02</pdfrwt>
<pdfrwt beam="2">  1       -1 0.80792147E-03 0.79573457E+02</pdfrwt>
<totfact> 0.25898930E+05</totfact>
</mgrwt>
</event>
<event>
 8    1  0.7667702E-014  0.7838385E+02  0.7818608E-02  0.1333701E+00
         -1   -1    0    0    0  501 -0.00000000000E+00  0.00000000000E+00  0.11687064015E+03  0.11687064026E+03  0.50400000000E-02 0.  1.
          2   -1    0    0  501    0  0.00000000000E+00 -0.00000000000E+00 -0.13142796330E+02  0.13142796577E+02  0.25500000000E-02 0. -1.
         24    2    1    2    0    0  0.00000000000E+00  0.00000000000E+00  0.10372784382E+03  0.13001343683E+03  0.78383851489E+02 0.  0.
         66    2    3    3    0    0  0.55373456722E+01  0.20288580151E+02 -0.29068753750E+01  0.21324600319E+02  0.19999931627E+01 0.  0.
        -13    1    3    3    0    0 -0.55373456722E+01 -0.20288580151E+02  0.10663471919E+03  0.10868883651E+03  0.10566000000E+00 0.  1.
         13    1    4    4    0    0  0.43735403138E+01  0.16175062731E+02 -0.17936912776E+01  0.16851973228E+02  0.10566000000E+00 0. -1.
        -13    1    4    4    0    0  0.81505728271E+00  0.31661899913E+01 -0.55113905773E+00  0.33172271149E+01  0.10566000000E+00 0.  1.
        -14    1    4    4    0    0  0.34874807562E+00  0.94732742886E+00 -0.56204503973E+00  0.11553999759E+01  0.00000000000E+00 0.  1.
<mgrwt>
<rscale>  0 0.78383851E+02</rscale>
<asrwt>0</asrwt>
<pdfrwt beam="1">  1        2 0.20219688E-02 0.78383851E+02</pdfrwt>
<pdfrwt beam="2">  1       -1 0.17980098E-01 0.78383851E+02</pdfrwt>
<totfact> 0.12054542E+05</totfact>
</mgrwt>
</event>
<event>
 8    1  0.7667702E-014  0.8078180E+02  0.7818608E-02  0.1326847E+00
         -1   -1    0    0    0  501 -0.00000000000E+00  0.00000000000E+00  0.51866744713E+02  0.51866744958E+02  0.50400000000E-02 0.  1.
          2   -1    0    0  501    0  0.00000000000E+00 -0.00000000000E+00 -0.31454157011E+02  0.31454157114E+02  0.25500000000E-02 0. -1.
         24    2    1    2    0    0  0.00000000000E+00  0.00000000000E+00  0.20412587702E+02  0.83320902072E+02  0.80781798602E+02 0.  0.
         66    2    3    3    0    0 -0.21940090970E+02  0.28257090486E+02 -0.90724538510E+01  0.36961333546E+02  0.20000010313E+01 0.  0.
        -13    1    3    3    0    0  0.21940090970E+02 -0.28257090486E+02  0.29485041553E+02  0.46359568526E+02  0.10566000000E+00 0.  1.
         13    1    4    4    0    0 -0.81587858168E+01  0.10501430515E+02 -0.35809448415E+01  0.13772442008E+02  0.10566000000E+00 0. -1.
        -13    1    4    4    0    0 -0.11448794879E+02  0.15618433261E+02 -0.47544031990E+01  0.19940558556E+02  0.10566000000E+00 0.  1.
        -14    1    4    4    0    0 -0.23325102734E+01  0.21372267102E+01 -0.73710581053E+00  0.32483329820E+01  0.00000000000E+00 0.  1.
<mgrwt>
<rscale>  0 0.80781799E+02</rscale>
<asrwt>0</asrwt>
<pdfrwt beam="1">  1        2 0.48391012E-02 0.80781799E+02</pdfrwt>
<pdfrwt beam="2">  1       -1 0.79794991E-02 0.80781799E+02</pdfrwt>
<totfact> 0.13217123E+05</totfact>
</mgrwt>
</event>
<event>
 8    1  0.7667702E-014  0.7954227E+02  0.7818608E-02  0.1330355E+00
          2   -1    0    0  501    0  0.00000000000E+00  0.00000000000E+00  0.28992237044E+03  0.28992237045E+03  0.25500000000E-02 0. -1.
         -1   -1    0    0    0  501 -0.00000000000E+00 -0.00000000000E+00 -0.54557455795E+01  0.54557479075E+01  0.50400000000E-02 0.  1.
         24    2    1    2    0    0  0.00000000000E+00 -0.71054273576E-14  0.28446662486E+03  0.29537811836E+03  0.79542266410E+02 0.  0.
         66    2    3    3    0    0 -0.19940199024E+02  0.30213349957E+02  0.20326017280E+03  0.20646829285E+03  0.20000126235E+01 0.  0.
        -13    1    3    3    0    0  0.19940199024E+02 -0.30213349957E+02  0.81206452059E+02  0.88909825513E+02  0.10566000000E+00 0.  1.
         13    1    4    4    0    0 -0.12310203254E+02  0.18598967133E+02  0.12128943488E+03  0.12332315622E+03  0.10566000000E+00 0. -1.
        -13    1    4    4    0    0 -0.11022957570E+01  0.12197108720E+01  0.91163787513E+01  0.92640313103E+01  0.10566000000E+00 0.  1.
        -14    1    4    4    0    0 -0.65277000130E+01  0.10394671952E+02  0.72854359169E+02  0.73881105313E+02  0.00000000000E+00 0.  1.
<mgrwt>
<rscale>  0 0.79542266E+02</rscale>
<asrwt>0</asrwt>
<pdfrwt beam="1">  1        2 0.44603433E-01 0.79542266E+02</pdfrwt>
<pdfrwt beam="2">  1       -1 0.83934582E-03 0.79542266E+02</pdfrwt>
<totfact> 0.25562663E+05</totfact>
</mgrwt>
</event>
<event>
 8    1  0.7667702E-014  0.7872267E+02  0.7818608E-02  0.1332716E+00
         -1   -1    0    0    0  501 -0.00000000000E+00  0.00000000000E+00  0.15505268684E+03  0.15505268692E+03  0.50400000000E-02 0.  1.
          2   -1    0    0  501    0  0.00000000000E+00 -0.00000000000E+00 -0.99921814854E+01  0.99921818108E+01  0.25500000000E-02 0. -1.
         24    2    1    2    0    0  0.00000000000E+00 -0.35527136788E-14  0.14506050535E+03  0.16504486873E+03  0.78722668152E+02 0.  0.
         66    2    3    3    0    0 -0.93215644465E+01  0.27060161843E+02  0.16002876124E+02  0.32851726893E+02  0.19999982252E+01 0.  0.
        -13    1    3    3    0    0  0.93215644465E+01 -0.27060161843E+02  0.12905762923E+03  0.13219314183E+03  0.10566000000E+00 0.  1.
         13    1    4    4    0    0 -0.37251271840E+01  0.12199031112E+02  0.78105782946E+01  0.14956912447E+02  0.10566000000E+00 0. -1.
        -13    1    4    4    0    0 -0.13557997524E+01  0.43987787226E+01  0.20109603117E+01  0.50241987052E+01  0.10566000000E+00 0.  1.
        -14    1    4    4    0    0 -0.42406375101E+01  0.10462352008E+02  0.61813375172E+01  0.12870615740E+02  0.00000000000E+00 0.  1.
<mgrwt>
<rscale>  0 0.78722668E+02</rscale>
<asrwt>0</asrwt>
<pdfrwt beam="1">  1        2 0.15372587E-02 0.78722668E+02</pdfrwt>
<pdfrwt beam="2">  1       -1 0.23854259E-01 0.78722668E+02</pdfrwt>
<totfact> 0.11140162E+05</totfact>
</mgrwt>
</event>
<event>
 8    1  0.7667702E-014  0.7690770E+02  0.7818608E-02  0.1338063E+00
         -1   -1    0    0    0  501 -0.00000000000E+00  0.00000000000E+00  0.33511181645E+01  0.33511219545E+01  0.50400000000E-02 0.  1.
          2   -1    0    0  501    0  0.00000000000E+00 -0.00000000000E+00 -0.44125506386E+03  0.44125506387E+03  0.25500000000E-02 0. -1.
         24    2    1    2    0    0  0.00000000000E+00  0.17763568394E-14 -0.43790394570E+03  0.44460618582E+03  0.76907703226E+02 0.  0.
         66    2    3    3    0    0  0.20075594259E+02  0.15986528924E+02 -0.38445091791E+03  0.38531170095E+03  0.20000053379E+01 0.  0.
        -13    1    3    3    0    0 -0.20075594259E+02 -0.15986528924E+02 -0.53453027789E+02  0.59294484868E+02  0.10566000000E+00 0.  1.
         13    1    4    4    0    0  0.73507919763E+01  0.60445459038E+01 -0.15334285931E+03  0.15363793263E+03  0.10566000000E+00 0. -1.
        -13    1    4    4    0    0  0.14787876515E+01  0.11143540025E+01 -0.22442577573E+02  0.22519081907E+02  0.10566000000E+00 0.  1.
         14    1    4    4    0    0  0.11246014631E+02  0.88276290175E+01 -0.20866548102E+03  0.20915468641E+03  0.00000000000E+00 0. -1.
<mgrwt>
<rscale>  0 0.76907703E+02</rscale>
<asrwt>0</asrwt>
<pdfrwt beam="1">  1        2 0.67885348E-01 0.76907703E+02</pdfrwt>
<pdfrwt beam="2">  1       -1 0.51555728E-03 0.76907703E+02</pdfrwt>
<totfact> 0.32384366E+05</totfact>
</mgrwt>
</event>
<event>
 8    1  0.7667702E-014  0.7701262E+02  0.7818608E-02  0.1337749E+00
          2   -1    0    0  501    0  0.00000000000E+00  0.00000000000E+00  0.25362514432E+02  0.25362514561E+02  0.25500000000E-02 0. -1.
         -1   -1    0    0    0  501 -0.00000000000E+00 -0.00000000000E+00 -0.58461705983E+02  0.58461706200E+02  0.50400000000E-02 0.  1.
         24    2    1    2    0    0  0.00000000000E+00  0.00000000000E+00 -0.33099191550E+02  0.83824220761E+02  0.77012619127E+02 0.  0.
         66    2    3    3    0    0  0.30563257889E+02  0.23043774877E+02 -0.12261331027E+02  0.40242620416E+02  0.19999915174E+01 0.  0.
        -13    1    3    3    0    0 -0.30563257889E+02 -0.23043774877E+02 -0.20837860524E+02  0.43581600344E+02  0.10566000000E+00 0.  1.
         13    1    4    4    0    0  0.13064601150E+02  0.10180983837E+02 -0.48772959963E+01  0.17266598257E+02  0.10566000000E+00 0. -1.
        -13    1    4    4    0    0  0.10395963170E+02  0.70033974990E+01 -0.38467637110E+01  0.13112298877E+02  0.10566000000E+00 0.  1.
        -14    1    4    4    0    0  0.71026935692E+01  0.58593935409E+01 -0.35372713194E+01  0.98637232824E+01  0.00000000000E+00 0.  1.
<mgrwt>
<rscale>  0 0.77012619E+02</rscale>
<asrwt>0</asrwt>
<pdfrwt beam="1">  1        2 0.39019253E-02 0.77012619E+02</pdfrwt>
<pdfrwt beam="2">  1       -1 0.89941087E-02 0.77012619E+02</pdfrwt>
<totfact> 0.14491810E+05</totfact>
</mgrwt>
</event>
<event>
 8    1  0.7667702E-014  0.7798064E+02  0.7818608E-02  0.1334882E+00
          2   -1    0    0  501    0  0.00000000000E+00  0.00000000000E+00  0.11886502670E+03  0.11886502672E+03  0.25500000000E-02 0. -1.
         -1   -1    0    0    0  501 -0.00000000000E+00 -0.00000000000E+00 -0.12789675039E+02  0.12789676032E+02  0.50400000000E-02 0.  1.
         24    2    1    2    0    0  0.00000000000E+00  0.17763568394E-14  0.10607535166E+03  0.13165470276E+03  0.77980642013E+02 0.  0.
         66    2    3    3    0    0 -0.20172093187E+02 -0.12517874975E+02  0.10523600331E+03  0.10789915168E+03  0.20000007995E+01 0.  0.
        -13    1    3    3    0    0  0.20172093187E+02  0.12517874975E+02  0.83934835087E+00  0.23755551080E+02  0.10566000000E+00 0.  1.
         13    1    4    4    0    0 -0.12531192346E+02 -0.79197047515E+01  0.68468005585E+02  0.70054489205E+02  0.10566000000E+00 0.  1.
        -13    1    4    4    0    0 -0.63444013858E+01 -0.41492540365E+01  0.30483861619E+02  0.31412493076E+02  0.10566000000E+00 0. -1.
         14    1    4    4    0    0 -0.12964994547E+01 -0.44891618681E+00  0.62841361027E+01  0.64321693958E+01  0.00000000000E+00 0. -1.
<mgrwt>
<rscale>  0 0.77980642E+02</rscale>
<asrwt>0</asrwt>
<pdfrwt beam="1">  1        2 0.18286927E-01 0.77980642E+02</pdfrwt>
<pdfrwt beam="2">  1       -1 0.19676424E-02 0.77980642E+02</pdfrwt>
<totfact> 0.19946626E+05</totfact>
</mgrwt>
</event>
<event>
 8    1  0.7667702E-014  0.8363556E+02  0.7818608E-02  0.1319040E+00
         -1   -1    0    0    0  501 -0.00000000000E+00  0.00000000000E+00  0.51749547822E+01  0.51749572365E+01  0.50400000000E-02 0.  1.
          2   -1    0    0  501    0  0.00000000000E+00 -0.00000000000E+00 -0.33792107808E+03  0.33792107809E+03  0.25500000000E-02 0. -1.
         24    2    1    2    0    0  0.11102230246E-15  0.00000000000E+00 -0.33274612330E+03  0.34309603533E+03  0.83635559942E+02 0.  0.
         66    2    3    3    0    0  0.67489219130E+00  0.27654564707E+02 -0.29498711784E+03  0.29628808637E+03  0.20000006169E+01 0.  0.
        -13    1    3    3    0    0 -0.67489219130E+00 -0.27654564707E+02 -0.37759005456E+02  0.46807948958E+02  0.10566000000E+00 0.  1.
         13    1    4    4    0    0  0.26589429945E-01  0.16199911558E+01 -0.14820905538E+02  0.14909576900E+02  0.10566000000E+00 0. -1.
        -13    1    4    4    0    0 -0.47781049652E+00  0.52705789439E+01 -0.58749975295E+02  0.58987948485E+02  0.10566000000E+00 0.  1.
        -14    1    4    4    0    0  0.11261132579E+01  0.20763994607E+02 -0.22141623701E+03  0.22239056098E+03  0.00000000000E+00 0.  1.
<mgrwt>
<rscale>  0 0.83635560E+02</rscale>
<asrwt>0</asrwt>
<pdfrwt beam="1">  1        2 0.51987841E-01 0.83635560E+02</pdfrwt>
<pdfrwt beam="2">  1       -1 0.79614735E-03 0.83635560E+02</pdfrwt>
<totfact> 0.23684187E+05</totfact>
</mgrwt>
</event>
<event>
 8    1  0.7667702E-014  0.8021819E+02  0.7818608E-02  0.1328433E+00
         -1   -1    0    0    0  501 -0.00000000000E+00  0.00000000000E+00  0.14339142295E+02  0.14339143181E+02  0.50400000000E-02 0.  1.
          2   -1    0    0  501    0  0.00000000000E+00 -0.00000000000E+00 -0.11219217612E+03  0.11219217615E+03  0.25500000000E-02 0. -1.
         24    2    1    2    0    0  0.71054273576E-14 -0.35527136788E-14 -0.97853033829E+02  0.12653131933E+03  0.80218193342E+02 0.  0.
         66    2    3    3    0    0 -0.29896125526E+02  0.26533456215E+02 -0.53670963046E+02  0.66950540866E+02  0.20000069659E+01 0.  0.
        -13    1    3    3    0    0  0.29896125526E+02 -0.26533456215E+02 -0.44182070783E+02  0.59580778469E+02  0.10566000000E+00 0.  1.
         13    1    4    4    0    0 -0.15053452623E+02  0.13802990282E+02 -0.28342585394E+02  0.34934829145E+02  0.10566000000E+00 0. -1.
        -13    1    4    4    0    0 -0.27607371244E+01  0.19516960136E+01 -0.40210654693E+01  0.52546092475E+01  0.10566000000E+00 0.  1.
        -14    1    4    4    0    0 -0.12081935779E+02  0.10778769920E+02 -0.21307312183E+02  0.26761102474E+02  0.00000000000E+00 0.  1.
<mgrwt>
<rscale>  0 0.80218193E+02</rscale>
<asrwt>0</asrwt>
<pdfrwt beam="1">  1        2 0.17260334E-01 0.80218193E+02</pdfrwt>
<pdfrwt beam="2">  1       -1 0.22060220E-02 0.80218193E+02</pdfrwt>
<totfact> 0.18185841E+05</totfact>
</mgrwt>
</event>
<event>
 8    1  0.7667702E-014  0.7814316E+02  0.7818608E-02  0.1334405E+00
         -1   -1    0    0    0  501 -0.00000000000E+00  0.00000000000E+00  0.28194911775E+01  0.28194956822E+01  0.50400000000E-02 0.  1.
          2   -1    0    0  501    0  0.00000000000E+00 -0.00000000000E+00 -0.54144060169E+03  0.54144060170E+03  0.25500000000E-02 0. -1.
         24    2    1    2    0    0  0.17763568394E-14  0.00000000000E+00 -0.53862111051E+03  0.54426009738E+03  0.78143156504E+02 0.  0.
         66    2    3    3    0    0 -0.10822345360E+02  0.12918086765E+02 -0.51480395232E+03  0.51508359462E+03  0.19999995128E+01 0.  0.
        -13    1    3    3    0    0  0.10822345360E+02 -0.12918086765E+02 -0.23817158193E+02  0.29176502758E+02  0.10566000000E+00 0.  1.
         13    1    4    4    0    0 -0.41889152220E+01  0.52352286008E+01 -0.21782607084E+03  0.21792926130E+03  0.10566000000E+00 0. -1.
        -13    1    4    4    0    0 -0.36328484248E+01  0.51946179814E+01 -0.18600839826E+03  0.18611640721E+03  0.10566000000E+00 0.  1.
        -14    1    4    4    0    0 -0.30005817136E+01  0.24882401832E+01 -0.11096948322E+03  0.11103792611E+03  0.00000000000E+00 0.  1.
<mgrwt>
<rscale>  0 0.78143157E+02</rscale>
<asrwt>0</asrwt>
<pdfrwt beam="1">  1        2 0.83298471E-01 0.78143157E+02</pdfrwt>
<pdfrwt beam="2">  1       -1 0.43376865E-03 0.78143157E+02</pdfrwt>
<totfact> 0.33181123E+05</totfact>
</mgrwt>
</event>
<event>
 8    1  0.7667702E-014  0.7839243E+02  0.7818608E-02  0.1333676E+00
         -1   -1    0    0    0  501 -0.00000000000E+00  0.00000000000E+00  0.12866037661E+02  0.12866038648E+02  0.50400000000E-02 0.  1.
          2   -1    0    0  501    0  0.00000000000E+00 -0.00000000000E+00 -0.11941075699E+03  0.11941075701E+03  0.25500000000E-02 0. -1.
         24    2    1    2    0    0  0.00000000000E+00 -0.35527136788E-14 -0.10654471933E+03  0.13227679566E+03  0.78392432379E+02 0.  0.
         66    2    3    3    0    0 -0.17372922506E+02 -0.20790670186E+02 -0.10104087494E+03  0.10462948349E+03  0.20000010008E+01 0.  0.
        -13    1    3    3    0    0  0.17372922506E+02  0.20790670186E+02 -0.55038443862E+01  0.27647312170E+02  0.10566000000E+00 0.  1.
         13    1    4    4    0    0 -0.75467046247E+01 -0.98093231663E+01 -0.44985562280E+02  0.46657127530E+02  0.10566000000E+00 0. -1.
        -13    1    4    4    0    0 -0.67989317310E+01 -0.69266493188E+01 -0.38197161039E+02  0.39411143335E+02  0.10566000000E+00 0.  1.
        -14    1    4    4    0    0 -0.30272861502E+01 -0.40546977007E+01 -0.17858151621E+02  0.18561212627E+02  0.00000000000E+00 0.  1.
<mgrwt>
<rscale>  0 0.78392432E+02</rscale>
<asrwt>0</asrwt>
<pdfrwt beam="1">  1        2 0.18370885E-01 0.78392432E+02</pdfrwt>
<pdfrwt beam="2">  1       -1 0.19793906E-02 0.78392432E+02</pdfrwt>
<totfact> 0.19695880E+05</totfact>
</mgrwt>
</event>
<event>
 8    1  0.7667702E-014  0.8426089E+02  0.7818608E-02  0.1317377E+00
          2   -1    0    0  501    0  0.00000000000E+00  0.00000000000E+00  0.10572559656E+03  0.10572559659E+03  0.25500000000E-02 0. -1.
         -1   -1    0    0    0  501 -0.00000000000E+00 -0.00000000000E+00 -0.16788500092E+02  0.16788500849E+02  0.50400000000E-02 0.  1.
         24    2    1    2    0    0  0.00000000000E+00  0.00000000000E+00  0.88937096467E+02  0.12251409744E+03  0.84260886200E+02 0.  0.
         66    2    3    3    0    0 -0.38274810088E+01  0.26014662751E+02  0.92310796746E+02  0.96003622027E+02  0.19999893979E+01 0.  0.
        -13    1    3    3    0    0  0.38274810088E+01 -0.26014662751E+02 -0.33737002784E+01  0.26510475411E+02  0.10566000000E+00 0.  1.
         13    1    4    4    0    0 -0.28256271957E+01  0.19831377276E+02  0.68110178691E+02  0.70994896289E+02  0.10566000000E+00 0. -1.
        -13    1    4    4    0    0 -0.13552167748E-01  0.25878105644E+00  0.15617148741E+01  0.15865902685E+01  0.10566000000E+00 0. -1.
         14    1    4    4    0    0 -0.98830164530E+00  0.59245044193E+01  0.22638903181E+02  0.23422135470E+02  0.00000000000E+00 0. -1.
<mgrwt>
<rscale>  0 0.84260886E+02</rscale>
<asrwt>0</asrwt>
<pdfrwt beam="1">  1        2 0.16265476E-01 0.84260886E+02</pdfrwt>
<pdfrwt beam="2">  1       -1 0.25828463E-02 0.84260886E+02</pdfrwt>
<totfact> 0.15666660E+05</totfact>
</mgrwt>
</event>
<event>
 8    1  0.7667702E-014  0.7960162E+02  0.7818608E-02  0.1330186E+00
          2   -1    0    0  501    0  0.00000000000E+00  0.00000000000E+00  0.14242734789E+03  0.14242734792E+03  0.25500000000E-02 0. -1.
         -1   -1    0    0    0  501 -0.00000000000E+00 -0.00000000000E+00 -0.11122192899E+02  0.11122194041E+02  0.50400000000E-02 0.  1.
         24    2    1    2    0    0  0.71054273576E-14 -0.22204460493E-15  0.13130515500E+03  0.15354954196E+03  0.79601621261E+02 0.  0.
         66    2    3    3    0    0  0.39558362815E+02 -0.19766183439E+01  0.58651569492E+02  0.70800972550E+02  0.20000053683E+01 0.  0.
        -13    1    3    3    0    0 -0.39558362815E+02  0.19766183439E+01  0.72653585503E+02  0.82748569408E+02  0.10566000000E+00 0.  1.
         13    1    4    4    0    0  0.25638663009E+02 -0.95766111660E+00  0.37302722410E+02  0.45274301971E+02  0.10566000000E+00 0. -1.
        -13    1    4    4    0    0  0.67158354242E+00  0.11196557761E+00  0.86648690645E+00  0.11070340282E+01  0.10566000000E+00 0.  1.
        -14    1    4    4    0    0  0.13248116263E+02 -0.11309228050E+01  0.20482360176E+02  0.24419636551E+02  0.00000000000E+00 0.  1.
<mgrwt>
<rscale>  0 0.79601621E+02</rscale>
<asrwt>0</asrwt>
<pdfrwt beam="1">  1        2 0.21911900E-01 0.79601621E+02</pdfrwt>
<pdfrwt beam="2">  1       -1 0.17111067E-02 0.79601621E+02</pdfrwt>
<totfact> 0.19963908E+05</totfact>
</mgrwt>
</event>
<event>
 8    1  0.7667702E-014  0.8366599E+02  0.7818608E-02  0.1318958E+00
          2   -1    0    0  501    0  0.00000000000E+00  0.00000000000E+00  0.95326623664E+02  0.95326623698E+02  0.25500000000E-02 0. -1.
         -1   -1    0    0    0  501 -0.00000000000E+00 -0.00000000000E+00 -0.18357931415E+02  0.18357932107E+02  0.50400000000E-02 0.  1.
         24    2    1    2    0    0 -0.44408920985E-15  0.71054273576E-14  0.76968692249E+02  0.11368455581E+03  0.83665994539E+02 0.  0.
         66    2    3    3    0    0  0.22457665148E+01 -0.36979025720E+02  0.64836776060E+02  0.74701400919E+02  0.19999897555E+01 0.  0.
        -13    1    3    3    0    0 -0.22457665148E+01  0.36979025720E+02  0.12131916189E+02  0.38983154886E+02  0.10566000000E+00 0.  1.
         13    1    4    4    0    0  0.15397526995E+01 -0.30474597620E+02  0.53149782159E+02  0.61286070571E+02  0.10566000000E+00 0. -1.
        -13    1    4    4    0    0  0.61190830462E+00 -0.49974869130E+01  0.95830189926E+01  0.10825651217E+02  0.10566000000E+00 0.  1.
        -14    1    4    4    0    0  0.94105510684E-01 -0.15069411872E+01  0.21039749084E+01  0.25896791315E+01  0.00000000000E+00 0.  1.
<mgrwt>
<rscale>  0 0.83665995E+02</rscale>
<asrwt>0</asrwt>
<pdfrwt beam="1">  1        2 0.14665635E-01 0.83665995E+02</pdfrwt>
<pdfrwt beam="2">  1       -1 0.28242972E-02 0.83665995E+02</pdfrwt>
<totfact> 0.15506266E+05</totfact>
</mgrwt>
</event>
<event>
 8    1  0.7667702E-014  0.7771729E+02  0.7818608E-02  0.1335657E+00
         -1   -1    0    0    0  501 -0.00000000000E+00  0.00000000000E+00  0.22789020229E+02  0.22789020786E+02  0.50400000000E-02 0.  1.
          2   -1    0    0  501    0  0.00000000000E+00 -0.00000000000E+00 -0.66259731457E+02  0.66259731506E+02  0.25500000000E-02 0. -1.
         24    2    1    2    0    0  0.00000000000E+00  0.71054273576E-14 -0.43470711228E+02  0.89048752293E+02  0.77717292478E+02 0.  0.
         66    2    3    3    0    0  0.60747177059E+01 -0.38309634258E+02 -0.19618640148E+02  0.43513461242E+02  0.19999989584E+01 0.  0.
        -13    1    3    3    0    0 -0.60747177059E+01  0.38309634258E+02 -0.23852071080E+02  0.45535291050E+02  0.10566000000E+00 0.  1.
         13    1    4    4    0    0  0.26650604616E+01 -0.17916361544E+02 -0.93863490617E+01  0.20401305619E+02  0.10566000000E+00 0. -1.
        -13    1    4    4    0    0  0.79750688642E+00 -0.89418589252E+01 -0.44792565559E+01  0.10033332527E+02  0.10566000000E+00 0.  1.
         14    1    4    4    0    0  0.26121503579E+01 -0.11451413789E+02 -0.57530345305E+01  0.13078823096E+02  0.00000000000E+00 0. -1.
<mgrwt>
<rscale>  0 0.77717292E+02</rscale>
<asrwt>0</asrwt>
<pdfrwt beam="1">  1        2 0.10193805E-01 0.77717292E+02</pdfrwt>
<pdfrwt beam="2">  1       -1 0.35060032E-02 0.77717292E+02</pdfrwt>
<totfact> 0.17232190E+05</totfact>
</mgrwt>
</event>
<event>
 8    1  0.7667702E-014  0.7928415E+02  0.7818608E-02  0.1331095E+00
         -1   -1    0    0    0  501 -0.00000000000E+00  0.00000000000E+00  0.45104466303E+02  0.45104466585E+02  0.50400000000E-02 0.  1.
          2   -1    0    0  501    0  0.00000000000E+00 -0.00000000000E+00 -0.34841206709E+02  0.34841206803E+02  0.25500000000E-02 0. -1.
         24    2    1    2    0    0  0.35527136788E-14  0.00000000000E+00  0.10263259594E+02  0.79945673387E+02  0.79284148453E+02 0.  0.
         66    2    3    3    0    0  0.17476590320E+02  0.40690118518E+01 -0.30479794650E+02  0.35426063104E+02  0.19999996183E+01 0.  0.
        -13    1    3    3    0    0 -0.17476590320E+02 -0.40690118518E+01  0.40743054244E+02  0.44519610284E+02  0.10566000000E+00 0.  1.
         13    1    4    4    0    0  0.53323366825E+01  0.82012004626E+00 -0.81484058324E+01  0.97731311785E+01  0.10566000000E+00 0. -1.
        -13    1    4    4    0    0  0.11152490317E+02  0.31705792033E+01 -0.21032536486E+02  0.24016855911E+02  0.10566000000E+00 0.  1.
        -14    1    4    4    0    0  0.99176332002E+00  0.78312602245E-01 -0.12988523311E+01  0.16360760143E+01  0.00000000000E+00 0.  1.
<mgrwt>
<rscale>  0 0.79284148E+02</rscale>
<asrwt>0</asrwt>
<pdfrwt beam="1">  1        2 0.53601857E-02 0.79284148E+02</pdfrwt>
<pdfrwt beam="2">  1       -1 0.69391487E-02 0.79284148E+02</pdfrwt>
<totfact> 0.14212094E+05</totfact>
</mgrwt>
</event>
<event>
 8    1  0.7667702E-014  0.8100918E+02  0.7818608E-02  0.1326212E+00
         -1   -1    0    0    0  501 -0.00000000000E+00  0.00000000000E+00  0.27422525797E+02  0.27422526260E+02  0.50400000000E-02 0.  1.
          2   -1    0    0  501    0  0.00000000000E+00 -0.00000000000E+00 -0.59827526993E+02  0.59827527047E+02  0.25500000000E-02 0. -1.
         24    2    1    2    0    0  0.00000000000E+00  0.00000000000E+00 -0.32405001196E+02  0.87250053307E+02  0.81009182810E+02 0.  0.
         66    2    3    3    0    0 -0.79776936465E+01 -0.38687064891E+02 -0.66828748502E+01  0.40112260257E+02  0.20000052081E+01 0.  0.
        -13    1    3    3    0    0  0.79776936465E+01  0.38687064891E+02 -0.25722126346E+02  0.47137793050E+02  0.10566000000E+00 0.  1.
         13    1    4    4    0    0 -0.19541935623E+01 -0.79461573388E+01 -0.17766897266E+01  0.83742509726E+01  0.10566000000E+00 0.  1.
        -13    1    4    4    0    0 -0.11786999236E+01 -0.68561030859E+01 -0.53632590856E+00  0.69781295883E+01  0.10566000000E+00 0. -1.
         14    1    4    4    0    0 -0.48448001606E+01 -0.23884804467E+02 -0.43698592150E+01  0.24759879696E+02  0.00000000000E+00 0. -1.
<mgrwt>
<rscale>  0 0.81009183E+02</rscale>
<asrwt>0</asrwt>
<pdfrwt beam="1">  1        2 0.92042349E-02 0.81009183E+02</pdfrwt>
<pdfrwt beam="2">  1       -1 0.42188502E-02 0.81009183E+02</pdfrwt>
<totfact> 0.15033763E+05</totfact>
</mgrwt>
</event>
<event>
 8    1  0.7667702E-014  0.7861474E+02  0.7818608E-02  0.1333029E+00
         -1   -1    0    0    0  501 -0.00000000000E+00  0.00000000000E+00  0.14595235854E+02  0.14595236724E+02  0.50400000000E-02 0.  1.
          2   -1    0    0  501    0  0.00000000000E+00 -0.00000000000E+00 -0.10586120751E+03  0.10586120755E+03  0.25500000000E-02 0. -1.
         24    2    1    2    0    0 -0.35527136788E-14  0.00000000000E+00 -0.91265971661E+02  0.12045644427E+03  0.78614740238E+02 0.  0.
         66    2    3    3    0    0 -0.22822979010E+02  0.29863263066E+02 -0.63156909192E+02  0.73522092150E+02  0.20000009170E+01 0.  0.
        -13    1    3    3    0    0  0.22822979010E+02 -0.29863263066E+02 -0.28109062469E+02  0.46934352119E+02  0.10566000000E+00 0.  1.
         13    1    4    4    0    0 -0.68420773192E+01  0.86031055108E+01 -0.18633360312E+02  0.21634248936E+02  0.10566000000E+00 0. -1.
        -13    1    4    4    0    0 -0.76614757430E+01  0.11495512230E+02 -0.22720551719E+02  0.26590969265E+02  0.10566000000E+00 0.  1.
        -14    1    4    4    0    0 -0.83194259482E+01  0.97646453256E+01 -0.21802997161E+02  0.25296873950E+02  0.00000000000E+00 0.  1.
<mgrwt>
<rscale>  0 0.78614740E+02</rscale>
<asrwt>0</asrwt>
<pdfrwt beam="1">  1        2 0.16286339E-01 0.78614740E+02</pdfrwt>
<pdfrwt beam="2">  1       -1 0.22454210E-02 0.78614740E+02</pdfrwt>
<totfact> 0.18874551E+05</totfact>
</mgrwt>
</event>
<event>
 8    1  0.7667702E-014  0.8148930E+02  0.7818608E-02  0.1324877E+00
         -1   -1    0    0    0  501 -0.00000000000E+00  0.00000000000E+00  0.35024019582E+01  0.35024055845E+01  0.50400000000E-02 0.  1.
          2   -1    0    0  501    0  0.00000000000E+00 -0.00000000000E+00 -0.47399628460E+03  0.47399628460E+03  0.25500000000E-02 0. -1.
         24    2    1    2    0    0  0.00000000000E+00  0.00000000000E+00 -0.47049388264E+03  0.47749869019E+03  0.81489297034E+02 0.  0.
         66    2    3    3    0    0 -0.39539666229E+01 -0.28854528782E+02 -0.40214687651E+03  0.40320506937E+03  0.19999992951E+01 0.  0.
        -13    1    3    3    0    0  0.39539666229E+01  0.28854528782E+02 -0.68347006132E+02  0.74293620820E+02  0.10566000000E+00 0.  1.
         13    1    4    4    0    0 -0.27983308360E+01 -0.18823012706E+02 -0.26172225381E+03  0.26241319663E+03  0.10566000000E+00 0. -1.
        -13    1    4    4    0    0 -0.96559573947E+00 -0.37605551453E+01 -0.51628666728E+02  0.51774554969E+02  0.10566000000E+00 0.  1.
        -14    1    4    4    0    0 -0.19004004743E+00 -0.62709609302E+01 -0.88795955968E+02  0.89017317767E+02  0.00000000000E+00 0.  1.
<mgrwt>
<rscale>  0 0.81489297E+02</rscale>
<asrwt>0</asrwt>
<pdfrwt beam="1">  1        2 0.72922455E-01 0.81489297E+02</pdfrwt>
<pdfrwt beam="2">  1       -1 0.53883173E-03 0.81489297E+02</pdfrwt>
<totfact> 0.28523309E+05</totfact>
</mgrwt>
</event>
<event>
 8    1  0.7667702E-014  0.8053610E+02  0.7818608E-02  0.1327537E+00
          2   -1    0    0  501    0  0.00000000000E+00  0.00000000000E+00  0.59373593531E+02  0.59373593586E+02  0.25500000000E-02 0. -1.
         -1   -1    0    0    0  501 -0.00000000000E+00 -0.00000000000E+00 -0.27310383949E+02  0.27310384414E+02  0.50400000000E-02 0.  1.
         24    2    1    2    0    0 -0.35527136788E-14  0.35527136788E-14  0.32063209582E+02  0.86683978000E+02  0.80536095219E+02 0.  0.
         66    2    3    3    0    0  0.25250537582E+02 -0.21021773260E+02  0.41053416345E+02  0.52620220414E+02  0.20000009184E+01 0.  0.
        -13    1    3    3    0    0 -0.25250537582E+02  0.21021773260E+02 -0.89902067627E+01  0.34063757586E+02  0.10566000000E+00 0.  1.
         13    1    4    4    0    0  0.84461281450E+01 -0.66855428582E+01  0.13953180144E+02  0.17627704449E+02  0.10566000000E+00 0. -1.
        -13    1    4    4    0    0  0.50823387300E+01 -0.36149393479E+01  0.82044471787E+01  0.10306409220E+02  0.10566000000E+00 0.  1.
         14    1    4    4    0    0  0.11722070707E+02 -0.10721291054E+02  0.18895789022E+02  0.24686106746E+02  0.00000000000E+00 0. -1.
<mgrwt>
<rscale>  0 0.80536095E+02</rscale>
<asrwt>0</asrwt>
<pdfrwt beam="1">  1        2 0.91343990E-02 0.80536095E+02</pdfrwt>
<pdfrwt beam="2">  1       -1 0.42015976E-02 0.80536095E+02</pdfrwt>
<totfact> 0.15248732E+05</totfact>
</mgrwt>
</event>
<event>
 8    1  0.7667702E-014  0.8116410E+02  0.7818608E-02  0.1325780E+00
          2   -1    0    0  501    0  0.00000000000E+00  0.00000000000E+00  0.64361531402E+03  0.64361531402E+03  0.25500000000E-02 0. -1.
         -1   -1    0    0    0  501 -0.00000000000E+00 -0.00000000000E+00 -0.25588286630E+01  0.25588336266E+01  0.50400000000E-02 0.  1.
         24    2    1    2    0    0  0.00000000000E+00  0.00000000000E+00  0.64105648535E+03  0.64617414765E+03  0.81164103365E+02 0.  0.
         66    2    3    3    0    0 -0.62209309299E+01  0.37595556199E+02  0.43125932720E+03  0.43294426099E+03  0.20000016508E+01 0.  0.
        -13    1    3    3    0    0  0.62209309299E+01 -0.37595556199E+02  0.20979715816E+03  0.21322988666E+03  0.10566000000E+00 0.  1.
         13    1    4    4    0    0 -0.46271682866E+01  0.25007459985E+02  0.28469167697E+03  0.28582537649E+03  0.10566000000E+00 0. -1.
        -13    1    4    4    0    0 -0.10759318843E+01  0.10388399943E+02  0.11725463454E+03  0.11771888959E+03  0.10566000000E+00 0.  1.
        -14    1    4    4    0    0 -0.51783075894E+00  0.21996962705E+01  0.29313015685E+02  0.29399994914E+02  0.00000000000E+00 0.  1.
<mgrwt>
<rscale>  0 0.81164103E+02</rscale>
<asrwt>0</asrwt>
<pdfrwt beam="1">  1        2 0.99017704E-01 0.81164103E+02</pdfrwt>
<pdfrwt beam="2">  1       -1 0.39366648E-03 0.81164103E+02</pdfrwt>
<totfact> 0.31564980E+05</totfact>
</mgrwt>
</event>
<event>
 8    1  0.7667702E-014  0.8169422E+02  0.7818608E-02  0.1324311E+00
          2   -1    0    0  501    0  0.00000000000E+00  0.00000000000E+00  0.20506860546E+03  0.20506860548E+03  0.25500000000E-02 0. -1.
         -1   -1    0    0    0  501 -0.00000000000E+00 -0.00000000000E+00 -0.81362336516E+01  0.81362352126E+01  0.50400000000E-02 0.  1.
         24    2    1    2    0    0 -0.35527136788E-14 -0.35527136788E-14  0.19693237181E+03  0.21320484069E+03  0.81694216607E+02 0.  0.
         66    2    3    3    0    0 -0.29561446027E+02  0.24836604791E+02  0.13312276090E+03  0.13862325022E+03  0.20000006859E+01 0.  0.
        -13    1    3    3    0    0  0.29561446027E+02 -0.24836604791E+02  0.63809610909E+02  0.74581590471E+02  0.10566000000E+00 0.  1.
         13    1    4    4    0    0 -0.27740100783E+01  0.26889566418E+01  0.14464618075E+02  0.14972039268E+02  0.10566000000E+00 0.  1.
        -13    1    4    4    0    0 -0.92727992544E+01  0.69201922533E+01  0.38631141892E+02  0.40326792022E+02  0.10566000000E+00 0. -1.
        -14    1    4    4    0    0 -0.17514636694E+02  0.15227455896E+02  0.80027000933E+02  0.83324418929E+02  0.00000000000E+00 0.  1.
<mgrwt>
<rscale>  0 0.81694217E+02</rscale>
<asrwt>0</asrwt>
<pdfrwt beam="1">  1        2 0.31549012E-01 0.81694217E+02</pdfrwt>
<pdfrwt beam="2">  1       -1 0.12517285E-02 0.81694217E+02</pdfrwt>
<totfact> 0.21053754E+05</totfact>
</mgrwt>
</event>
<event>
 8    1  0.7667702E-014  0.7818326E+02  0.7818608E-02  0.1334288E+00
         -1   -1    0    0    0  501 -0.00000000000E+00  0.00000000000E+00  0.44731719842E+02  0.44731720126E+02  0.50400000000E-02 0.  1.
          2   -1    0    0  501    0  0.00000000000E+00 -0.00000000000E+00 -0.34162678210E+02  0.34162678305E+02  0.25500000000E-02 0. -1.
         24    2    1    2    0    0 -0.71054273576E-14  0.22204460493E-15  0.10569041633E+02  0.78894398431E+02  0.78183255642E+02 0.  0.
         66    2    3    3    0    0  0.33265365101E+02 -0.17226630821E+01 -0.15308424834E+02  0.36713756921E+02  0.19999982202E+01 0.  0.
        -13    1    3    3    0    0 -0.33265365101E+02  0.17226630821E+01  0.25877466467E+02  0.42180641510E+02  0.10566000000E+00 0.  1.
         13    1    4    4    0    0  0.12629853290E+02 -0.73799203205E+00 -0.63338910989E+01  0.14148751424E+02  0.10566000000E+00 0. -1.
        -13    1    4    4    0    0  0.47821271948E+01 -0.67903738548E+00 -0.24746006470E+01  0.54281345484E+01  0.10566000000E+00 0.  1.
         14    1    4    4    0    0  0.15853384617E+02 -0.30563366461E+00 -0.64999330886E+01  0.17136870948E+02  0.00000000000E+00 0. -1.
<mgrwt>
<rscale>  0 0.78183256E+02</rscale>
<asrwt>0</asrwt>
<pdfrwt beam="1">  1        2 0.52557967E-02 0.78183256E+02</pdfrwt>
<pdfrwt beam="2">  1       -1 0.68818031E-02 0.78183256E+02</pdfrwt>
<totfact> 0.14717172E+05</totfact>
</mgrwt>
</event>
<event>
 8    1  0.7667702E-014  0.7906464E+02  0.7818608E-02  0.1331727E+00
         -1   -1    0    0    0  501 -0.00000000000E+00  0.00000000000E+00  0.20765286297E+01  0.20765347460E+01  0.50400000000E-02 0.  1.
          2   -1    0    0  501    0  0.00000000000E+00 -0.00000000000E+00 -0.75260313452E+03  0.75260313453E+03  0.25500000000E-02 0. -1.
         24    2    1    2    0    0  0.00000000000E+00  0.35527136788E-14 -0.75052660589E+03  0.75467966927E+03  0.79064638498E+02 0.  0.
         66    2    3    3    0    0 -0.15835011910E+02  0.23151846594E+02 -0.64106302755E+03  0.64167948454E+03  0.19999950069E+01 0.  0.
        -13    1    3    3    0    0  0.15835011910E+02 -0.23151846594E+02 -0.10946357834E+03  0.11300018473E+03  0.10566000000E+00 0.  1.
         13    1    4    4    0    0 -0.11785890025E+02  0.16550957186E+02 -0.46682810311E+03  0.46727008293E+03  0.10566000000E+00 0. -1.
        -13    1    4    4    0    0 -0.98635451159E+00  0.23423700172E+01 -0.61139565018E+02  0.61192460052E+02  0.10566000000E+00 0.  1.
         14    1    4    4    0    0 -0.30627673736E+01  0.42585193909E+01 -0.11309535943E+03  0.11321694156E+03  0.00000000000E+00 0. -1.
<mgrwt>
<rscale>  0 0.79064638E+02</rscale>
<asrwt>0</asrwt>
<pdfrwt beam="1">  1        2 0.11578488E+00 0.79064638E+02</pdfrwt>
<pdfrwt beam="2">  1       -1 0.31946702E-03 0.79064638E+02</pdfrwt>
<totfact> 0.35030122E+05</totfact>
</mgrwt>
</event>
<event>
 8    1  0.7667702E-014  0.7585512E+02  0.7818608E-02  0.1341243E+00
         -1   -1    0    0    0  501 -0.00000000000E+00  0.00000000000E+00  0.92950823890E+02  0.92950824027E+02  0.50400000000E-02 0.  1.
          2   -1    0    0  501    0  0.00000000000E+00 -0.00000000000E+00 -0.15475922998E+02  0.15475923208E+02  0.25500000000E-02 0. -1.
         24    2    1    2    0    0  0.35527136788E-14  0.71054273576E-14  0.77474900892E+02  0.10842674724E+03  0.75855120116E+02 0.  0.
         66    2    3    3    0    0  0.23463857775E+02  0.28199710869E+02  0.25149866560E+02  0.44522939081E+02  0.20000004198E+01 0.  0.
        -13    1    3    3    0    0 -0.23463857775E+02 -0.28199710869E+02  0.52325034332E+02  0.63903808154E+02  0.10566000000E+00 0.  1.
         13    1    4    4    0    0  0.10337640154E+02  0.12347898530E+02  0.11697087860E+02  0.19904030508E+02  0.10566000000E+00 0. -1.
        -13    1    4    4    0    0  0.27328221773E+01  0.32828720390E+01  0.22164854551E+01  0.48134745960E+01  0.10566000000E+00 0.  1.
        -14    1    4    4    0    0  0.10393395444E+02  0.12568940300E+02  0.11236293246E+02  0.19805433977E+02  0.00000000000E+00 0.  1.
<mgrwt>
<rscale>  0 0.75855120E+02</rscale>
<asrwt>0</asrwt>
<pdfrwt beam="1">  1        2 0.23809113E-02 0.75855120E+02</pdfrwt>
<pdfrwt beam="2">  1       -1 0.14300127E-01 0.75855120E+02</pdfrwt>
<totfact> 0.13739796E+05</totfact>
</mgrwt>
</event>
<event>
 8    1  0.7667702E-014  0.7846163E+02  0.7818608E-02  0.1333475E+00
          2   -1    0    0  501    0  0.00000000000E+00  0.00000000000E+00  0.79755368749E+02  0.79755368790E+02  0.25500000000E-02 0. -1.
         -1   -1    0    0    0  501 -0.00000000000E+00 -0.00000000000E+00 -0.19297217731E+02  0.19297218389E+02  0.50400000000E-02 0.  1.
         24    2    1    2    0    0  0.00000000000E+00  0.88817841970E-15  0.60458151018E+02  0.99052587179E+02  0.78461627579E+02 0.  0.
         66    2    3    3    0    0  0.37253236583E+02 -0.42428659003E+01  0.15785874826E+02  0.40730816192E+02  0.19999991667E+01 0.  0.
        -13    1    3    3    0    0 -0.37253236583E+02  0.42428659003E+01  0.44672276192E+02  0.58321770987E+02  0.10566000000E+00 0.  1.
         13    1    4    4    0    0  0.19121457643E+02 -0.23256812030E+01  0.83265358081E+01  0.20985263830E+02  0.10566000000E+00 0.  1.
        -13    1    4    4    0    0  0.11998238356E+02 -0.79763262115E+00  0.53719191762E+01  0.13170520913E+02  0.10566000000E+00 0. -1.
        -14    1    4    4    0    0  0.61335405845E+01 -0.11195520762E+01  0.20874198420E+01  0.65750314485E+01  0.00000000000E+00 0.  1.
<mgrwt>
<rscale>  0 0.78461628E+02</rscale>
<asrwt>0</asrwt>
<pdfrwt beam="1">  1        2 0.12270056E-01 0.78461628E+02</pdfrwt>
<pdfrwt beam="2">  1       -1 0.29688029E-02 0.78461628E+02</pdfrwt>
<totfact> 0.17578012E+05</totfact>
</mgrwt>
</event>
<event>
 8    1  0.7667702E-014  0.8405840E+02  0.7818608E-02  0.1317913E+00
         -1   -1    0    0    0  501 -0.00000000000E+00  0.00000000000E+00  0.35408421606E+01  0.35408457475E+01  0.50400000000E-02 0.  1.
          2   -1    0    0  501    0  0.00000000000E+00 -0.00000000000E+00 -0.49887931934E+03  0.49887931935E+03  0.25500000000E-02 0. -1.
         24    2    1    2    0    0  0.00000000000E+00 -0.35527136788E-14 -0.49533847718E+03  0.50242016509E+03  0.84058404213E+02 0.  0.
         66    2    3    3    0    0 -0.19981000477E+02 -0.31020272285E+02 -0.36778995212E+03  0.36964164619E+03  0.20000118470E+01 0.  0.
        -13    1    3    3    0    0  0.19981000477E+02  0.31020272285E+02 -0.12754852506E+03  0.13277851891E+03  0.10566000000E+00 0.  1.
         13    1    4    4    0    0 -0.14807787218E+01 -0.25873340562E+01 -0.32908190984E+02  0.33043111249E+02  0.10566000000E+00 0. -1.
        -13    1    4    4    0    0 -0.45701323079E+01 -0.65786427222E+01 -0.73688239047E+02  0.74122414877E+02  0.10566000000E+00 0.  1.
         14    1    4    4    0    0 -0.13930089447E+02 -0.21854295506E+02 -0.26119352209E+03  0.26247612006E+03  0.00000000000E+00 0. -1.
<mgrwt>
<rscale>  0 0.84058404E+02</rscale>
<asrwt>0</asrwt>
<pdfrwt beam="1">  1        2 0.76750609E-01 0.84058404E+02</pdfrwt>
<pdfrwt beam="2">  1       -1 0.54474562E-03 0.84058404E+02</pdfrwt>
<totfact> 0.26739169E+05</totfact>
</mgrwt>
</event>
<event>
 8    1  0.7667702E-014  0.7097391E+02  0.7818608E-02  0.1356812E+00
          2   -1    0    0  501    0  0.00000000000E+00  0.00000000000E+00  0.40711049197E+02  0.40711049277E+02  0.25500000000E-02 0. -1.
         -1   -1    0    0    0  501 -0.00000000000E+00 -0.00000000000E+00 -0.30933221271E+02  0.30933221682E+02  0.50400000000E-02 0.  1.
         24    2    1    2    0    0  0.00000000000E+00  0.00000000000E+00  0.97778279256E+01  0.71644270958E+02  0.70973908179E+02 0.  0.
         66    2    3    3    0    0 -0.12912061862E+02 -0.96704501150E+01  0.36767608776E+02  0.40200696394E+02  0.19999971282E+01 0.  0.
        -13    1    3    3    0    0  0.12912061862E+02  0.96704501150E+01 -0.26989780851E+02  0.31443574564E+02  0.10566000000E+00 0.  1.
         13    1    4    4    0    0 -0.10407624208E+02 -0.73332246019E+01  0.29917159585E+02  0.32513726738E+02  0.10566000000E+00 0. -1.
        -13    1    4    4    0    0 -0.21315455708E+01 -0.19219373181E+01  0.51425785453E+01  0.58902128744E+01  0.10566000000E+00 0.  1.
         14    1    4    4    0    0 -0.37289208300E+00 -0.41528819496E+00  0.17078706460E+01  0.17967567821E+01  0.00000000000E+00 0. -1.
<mgrwt>
<rscale>  0 0.70973908E+02</rscale>
<asrwt>0</asrwt>
<pdfrwt beam="1">  1        2 0.62632383E-02 0.70973908E+02</pdfrwt>
<pdfrwt beam="2">  1       -1 0.47589572E-02 0.70973908E+02</pdfrwt>
<totfact> 0.19847925E+05</totfact>
</mgrwt>
</event>
<event>
 8    1  0.7667702E-014  0.7874187E+02  0.7818608E-02  0.1332660E+00
         -1   -1    0    0    0  501 -0.00000000000E+00  0.00000000000E+00  0.57456033272E+01  0.57456055377E+01  0.50400000000E-02 0.  1.
          2   -1    0    0  501    0  0.00000000000E+00 -0.00000000000E+00 -0.26978374072E+03  0.26978374073E+03  0.25500000000E-02 0. -1.
         24    2    1    2    0    0  0.00000000000E+00  0.44408920985E-15 -0.26403813740E+03  0.27552934627E+03  0.78741873600E+02 0.  0.
         66    2    3    3    0    0 -0.38918046947E+02 -0.30954655061E+01 -0.11500844176E+03  0.12147072876E+03  0.19999960784E+01 0.  0.
        -13    1    3    3    0    0  0.38918046947E+02  0.30954655061E+01 -0.14902969563E+03  0.15405861751E+03  0.10566000000E+00 0.  1.
         13    1    4    4    0    0 -0.13721547865E+02 -0.12152050725E+01 -0.38650448822E+02  0.41032011373E+02  0.10566000000E+00 0. -1.
        -13    1    4    4    0    0 -0.20840963858E+02 -0.12285068551E+01 -0.62024935317E+02  0.65444318078E+02  0.10566000000E+00 0.  1.
         14    1    4    4    0    0 -0.43555352245E+01 -0.65175357851E+00 -0.14333057626E+02  0.14994399312E+02  0.00000000000E+00 0. -1.
<mgrwt>
<rscale>  0 0.78741874E+02</rscale>
<asrwt>0</asrwt>
<pdfrwt beam="1">  1        2 0.41505181E-01 0.78741874E+02</pdfrwt>
<pdfrwt beam="2">  1       -1 0.88393936E-03 0.78741874E+02</pdfrwt>
<totfact> 0.25574551E+05</totfact>
</mgrwt>
</event>
<event>
 8    1  0.7667702E-014  0.8001211E+02  0.7818608E-02  0.1329017E+00
          2   -1    0    0  501    0  0.00000000000E+00  0.00000000000E+00  0.92384103693E+01  0.92384107212E+01  0.25500000000E-02 0. -1.
         -1   -1    0    0    0  501 -0.00000000000E+00 -0.00000000000E+00 -0.17324241009E+03  0.17324241016E+03  0.50400000000E-02 0.  1.
         24    2    1    2    0    0 -0.17763568394E-14  0.35527136788E-14 -0.16400399972E+03  0.18248082088E+03  0.80012111997E+02 0.  0.
         66    2    3    3    0    0 -0.11352865100E+02  0.27792413745E+02 -0.21834305070E+02  0.37175834566E+02  0.19999975136E+01 0.  0.
        -13    1    3    3    0    0  0.11352865100E+02 -0.27792413745E+02 -0.14216969465E+03  0.14530498632E+03  0.10566000000E+00 0.  1.
         13    1    4    4    0    0 -0.25475208047E+01  0.71615776780E+01 -0.57180422791E+01  0.95123723975E+01  0.10566000000E+00 0. -1.
        -13    1    4    4    0    0 -0.66336171113E+01  0.16380912402E+02 -0.13331986749E+02  0.22138026150E+02  0.10566000000E+00 0.  1.
         14    1    4    4    0    0 -0.21717271843E+01  0.42499236656E+01 -0.27842760418E+01  0.55254360193E+01  0.00000000000E+00 0. -1.
<mgrwt>
<rscale>  0 0.80012112E+02</rscale>
<asrwt>0</asrwt>
<pdfrwt beam="1">  1        2 0.14212941E-02 0.80012112E+02</pdfrwt>
<pdfrwt beam="2">  1       -1 0.26652676E-01 0.80012112E+02</pdfrwt>
<totfact> 0.10378931E+05</totfact>
</mgrwt>
</event>
<event>
 8    1  0.7667702E-014  0.7920822E+02  0.7818608E-02  0.1331314E+00
          2   -1    0    0  501    0  0.00000000000E+00  0.00000000000E+00  0.45630590303E+02  0.45630590374E+02  0.25500000000E-02 0. -1.
         -1   -1    0    0    0  501 -0.00000000000E+00 -0.00000000000E+00 -0.34373552392E+02  0.34373552762E+02  0.50400000000E-02 0.  1.
         24    2    1    2    0    0  0.00000000000E+00  0.00000000000E+00  0.11257037911E+02  0.80004143136E+02  0.79208219374E+02 0.  0.
         66    2    3    3    0    0 -0.27677740161E+02 -0.15479250870E+02  0.29551616817E+02  0.43393116255E+02  0.19999934733E+01 0.  0.
        -13    1    3    3    0    0  0.27677740161E+02  0.15479250870E+02 -0.18294578906E+02  0.36611026881E+02  0.10566000000E+00 0.  1.
         13    1    4    4    0    0 -0.10651772917E+02 -0.61332648456E+01  0.10373167122E+02  0.16083872796E+02  0.10566000000E+00 0. -1.
        -13    1    4    4    0    0 -0.91559189828E+01 -0.54675785029E+01  0.10274437690E+02  0.14808798094E+02  0.10566000000E+00 0.  1.
        -14    1    4    4    0    0 -0.78700482607E+01 -0.38784075218E+01  0.89040120056E+01  0.12500445365E+02  0.00000000000E+00 0.  1.
<mgrwt>
<rscale>  0 0.79208219E+02</rscale>
<asrwt>0</asrwt>
<pdfrwt beam="1">  1        2 0.70200908E-02 0.79208219E+02</pdfrwt>
<pdfrwt beam="2">  1       -1 0.52882389E-02 0.79208219E+02</pdfrwt>
<totfact> 0.15058215E+05</totfact>
</mgrwt>
</event>
<event>
 8    1  0.7667702E-014  0.7971315E+02  0.7818608E-02  0.1329867E+00
         -1   -1    0    0    0  501 -0.00000000000E+00  0.00000000000E+00  0.26292498534E+01  0.26292546840E+01  0.50400000000E-02 0.  1.
          2   -1    0    0  501    0  0.00000000000E+00 -0.00000000000E+00 -0.60418192980E+03  0.60418192981E+03  0.25500000000E-02 0. -1.
         24    2    1    2    0    0  0.35527136788E-14  0.00000000000E+00 -0.60155267995E+03  0.60681118449E+03  0.79713153685E+02 0.  0.
         66    2    3    3    0    0  0.22187107162E+02 -0.27093426962E+02 -0.44544512420E+03  0.44682399240E+03  0.19999995151E+01 0.  0.
        -13    1    3    3    0    0 -0.22187107162E+02  0.27093426962E+02 -0.15610755574E+03  0.15998719209E+03  0.10566000000E+00 0.  1.
         13    1    4    4    0    0  0.77163636556E+00 -0.63749650448E+00 -0.13546810407E+02  0.13584147405E+02  0.10566000000E+00 0.  1.
        -13    1    4    4    0    0  0.61257096526E+01 -0.65812963292E+01 -0.11520191773E+03  0.11555228597E+03  0.10566000000E+00 0. -1.
         14    1    4    4    0    0  0.15289761144E+02 -0.19874634129E+02 -0.31669639606E+03  0.31768755902E+03  0.00000000000E+00 0. -1.
<mgrwt>
<rscale>  0 0.79713154E+02</rscale>
<asrwt>0</asrwt>
<pdfrwt beam="1">  1        2 0.92950956E-01 0.79713154E+02</pdfrwt>
<pdfrwt beam="2">  1       -1 0.40450083E-03 0.79713154E+02</pdfrwt>
<totfact> 0.32528087E+05</totfact>
</mgrwt>
</event>
<event>
 8    1  0.7667702E-014  0.7975053E+02  0.7818608E-02  0.1329761E+00
         -1   -1    0    0    0  501 -0.00000000000E+00  0.00000000000E+00  0.33972583137E+01  0.33972620522E+01  0.50400000000E-02 0.  1.
          2   -1    0    0  501    0  0.00000000000E+00 -0.00000000000E+00 -0.46803500050E+03  0.46803500051E+03  0.25500000000E-02 0. -1.
         24    2    1    2    0    0  0.44408920985E-15  0.00000000000E+00 -0.46463774219E+03  0.47143226256E+03  0.79750528009E+02 0.  0.
         66    2    3    3    0    0  0.30467180952E+01  0.24874985761E+02 -0.41561916029E+03  0.41637883448E+03  0.19999994467E+01 0.  0.
        -13    1    3    3    0    0 -0.30467180952E+01 -0.24874985761E+02 -0.49018581900E+02  0.55053428079E+02  0.10566000000E+00 0.  1.
         13    1    4    4    0    0  0.61473741860E+00  0.29209655205E+01 -0.55970939076E+02  0.56050576507E+02  0.10566000000E+00 0. -1.
        -13    1    4    4    0    0  0.44890726598E+00  0.27182775146E+01 -0.38826216745E+02  0.38923987735E+02  0.10566000000E+00 0.  1.
         14    1    4    4    0    0  0.19830734107E+01  0.19235742726E+02 -0.32082200447E+03  0.32140427024E+03  0.00000000000E+00 0. -1.
<mgrwt>
<rscale>  0 0.79750528E+02</rscale>
<asrwt>0</asrwt>
<pdfrwt beam="1">  1        2 0.72005334E-01 0.79750528E+02</pdfrwt>
<pdfrwt beam="2">  1       -1 0.52265579E-03 0.79750528E+02</pdfrwt>
<totfact> 0.30049433E+05</totfact>
</mgrwt>
</event>
<event>
 8    1  0.7667702E-014  0.8196406E+02  0.7818608E-02  0.1323568E+00
          2   -1    0    0  501    0  0.00000000000E+00  0.00000000000E+00  0.61629439175E+01  0.61629444451E+01  0.25500000000E-02 0. -1.
         -1   -1    0    0    0  501 -0.00000000000E+00 -0.00000000000E+00 -0.27252019595E+03  0.27252019600E+03  0.50400000000E-02 0.  1.
         24    2    1    2    0    0  0.35527136788E-14  0.35527136788E-14 -0.26635725203E+03  0.27868314044E+03  0.81964059539E+02 0.  0.
         66    2    3    3    0    0 -0.25826453910E+02  0.19871045379E+02 -0.21762164146E+03  0.22005690853E+03  0.19999988005E+01 0.  0.
        -13    1    3    3    0    0  0.25826453910E+02 -0.19871045379E+02 -0.48735610575E+02  0.58626231911E+02  0.10566000000E+00 0.  1.
         13    1    4    4    0    0 -0.19171569505E+02  0.14942055594E+02 -0.15953982598E+03  0.16138085804E+03  0.10566000000E+00 0. -1.
        -13    1    4    4    0    0 -0.21288063994E+01  0.12356570050E+01 -0.15258698025E+02  0.15456315679E+02  0.10566000000E+00 0.  1.
         14    1    4    4    0    0 -0.45260780049E+01  0.36933327798E+01 -0.42823117448E+02  0.43219734811E+02  0.00000000000E+00 0. -1.
<mgrwt>
<rscale>  0 0.81964060E+02</rscale>
<asrwt>0</asrwt>
<pdfrwt beam="1">  1        2 0.94814548E-03 0.81964060E+02</pdfrwt>
<pdfrwt beam="2">  1       -1 0.41926175E-01 0.81964060E+02</pdfrwt>
<totfact> 0.84334274E+04</totfact>
</mgrwt>
</event>
<event>
 8    1  0.7667702E-014  0.8023922E+02  0.7818608E-02  0.1328374E+00
         -1   -1    0    0    0  501 -0.00000000000E+00  0.00000000000E+00  0.10176451340E+02  0.10176452588E+02  0.50400000000E-02 0.  1.
          2   -1    0    0  501    0  0.00000000000E+00 -0.00000000000E+00 -0.15816740420E+03  0.15816740423E+03  0.25500000000E-02 0. -1.
         24    2    1    2    0    0  0.00000000000E+00  0.00000000000E+00 -0.14799095286E+03  0.16834385681E+03  0.80239217326E+02 0.  0.
         66    2    3    3    0    0  0.10279240971E+02 -0.36161457606E+02 -0.10328331539E+03  0.10993069200E+03  0.19999985714E+01 0.  0.
        -13    1    3    3    0    0 -0.10279240971E+02  0.36161457606E+02 -0.44707637476E+02  0.58413164816E+02  0.10566000000E+00 0.  1.
         13    1    4    4    0    0  0.42403691358E+01 -0.15657551841E+02 -0.42052992078E+02  0.45073328775E+02  0.10566000000E+00 0. -1.
        -13    1    4    4    0    0  0.42454537901E+00 -0.16566709659E+01 -0.53398424558E+01  0.56080191652E+01  0.10566000000E+00 0. -1.
        -14    1    4    4    0    0  0.56143264563E+01 -0.18847234799E+02 -0.55890480854E+02  0.59249344058E+02  0.00000000000E+00 0.  1.
<mgrwt>
<rscale>  0 0.80239217E+02</rscale>
<asrwt>0</asrwt>
<pdfrwt beam="1">  1        2 0.24333445E-01 0.80239217E+02</pdfrwt>
<pdfrwt beam="2">  1       -1 0.15656081E-02 0.80239217E+02</pdfrwt>
<totfact> 0.20217145E+05</totfact>
</mgrwt>
</event>
<event>
 8    1  0.7667702E-014  0.7966959E+02  0.7818608E-02  0.1329992E+00
         -1   -1    0    0    0  501 -0.00000000000E+00  0.00000000000E+00  0.15459779896E+02  0.15459780717E+02  0.50400000000E-02 0.  1.
          2   -1    0    0  501    0  0.00000000000E+00 -0.00000000000E+00 -0.10264122562E+03  0.10264122565E+03  0.25500000000E-02 0. -1.
         24    2    1    2    0    0  0.00000000000E+00  0.00000000000E+00 -0.87181445725E+02  0.11810100637E+03  0.79669587842E+02 0.  0.
         66    2    3    3    0    0  0.30486536349E+02  0.12766730061E+02 -0.76511955836E+02  0.83369644843E+02  0.20000000540E+01 0.  0.
        -13    1    3    3    0    0 -0.30486536349E+02 -0.12766730061E+02 -0.10669489889E+02  0.34731361528E+02  0.10566000000E+00 0.  1.
         13    1    4    4    0    0  0.19966450628E+02  0.86885145122E+01 -0.51288783844E+02  0.55719834416E+02  0.10566000000E+00 0. -1.
        -13    1    4    4    0    0  0.64551986650E+01  0.23367857106E+01 -0.16441780538E+02  0.17817785176E+02  0.10566000000E+00 0.  1.
         14    1    4    4    0    0  0.40648870563E+01  0.17414298385E+01 -0.87813914538E+01  0.98320252506E+01  0.00000000000E+00 0. -1.
<mgrwt>
<rscale>  0 0.79669588E+02</rscale>
<asrwt>0</asrwt>
<pdfrwt beam="1">  1        2 0.15790957E-01 0.79669588E+02</pdfrwt>
<pdfrwt beam="2">  1       -1 0.23784278E-02 0.79669588E+02</pdfrwt>
<totfact> 0.18055194E+05</totfact>
</mgrwt>
</event>
<event>
 8    1  0.7667702E-014  0.7872888E+02  0.7818608E-02  0.1332698E+00
         -1   -1    0    0    0  501 -0.00000000000E+00  0.00000000000E+00  0.12227406483E+03  0.12227406493E+03  0.50400000000E-02 0.  1.
          2   -1    0    0  501    0  0.00000000000E+00 -0.00000000000E+00 -0.12672834068E+02  0.12672834325E+02  0.25500000000E-02 0. -1.
         24    2    1    2    0    0  0.00000000000E+00  0.00000000000E+00  0.10960123076E+03  0.13494689926E+03  0.78728875485E+02 0.  0.
         66    2    3    3    0    0 -0.99269931882E+01  0.36015344442E+02  0.75961682026E+02  0.84674833137E+02  0.20000003741E+01 0.  0.
        -13    1    3    3    0    0  0.99269931882E+01 -0.36015344442E+02  0.33639548736E+02  0.50272066122E+02  0.10566000000E+00 0.  1.
         13    1    4    4    0    0 -0.13291209914E+01  0.57889846284E+01  0.12742623387E+02  0.14059321479E+02  0.10566000000E+00 0. -1.
        -13    1    4    4    0    0 -0.82544185227E+01  0.29739615058E+02  0.62147118152E+02  0.69389160447E+02  0.10566000000E+00 0.  1.
        -14    1    4    4    0    0 -0.34345367408E+00  0.48674475546E+00  0.10719404870E+01  0.12263512102E+01  0.00000000000E+00 0.  1.
<mgrwt>
<rscale>  0 0.78728875E+02</rscale>
<asrwt>0</asrwt>
<pdfrwt beam="1">  1        2 0.19496669E-02 0.78728875E+02</pdfrwt>
<pdfrwt beam="2">  1       -1 0.18811394E-01 0.78728875E+02</pdfrwt>
<totfact> 0.11800609E+05</totfact>
</mgrwt>
</event>
<event>
 8    1  0.7667702E-014  0.7739932E+02  0.7818608E-02  0.1336598E+00
          2   -1    0    0  501    0  0.00000000000E+00  0.00000000000E+00  0.25188525121E+03  0.25188525122E+03  0.25500000000E-02 0. -1.
         -1   -1    0    0    0  501 -0.00000000000E+00 -0.00000000000E+00 -0.59458166436E+01  0.59458187797E+01  0.50400000000E-02 0.  1.
         24    2    1    2    0    0  0.00000000000E+00  0.00000000000E+00  0.24593943457E+03  0.25783107000E+03  0.77399322890E+02 0.  0.
         66    2    3    3    0    0  0.73589354788E+01 -0.27916028288E+02  0.20877369139E+03  0.21076980996E+03  0.20000020426E+01 0.  0.
        -13    1    3    3    0    0 -0.73589354788E+01  0.27916028288E+02  0.37165743181E+02  0.47061260045E+02  0.10566000000E+00 0.  1.
         13    1    4    4    0    0  0.59673005942E+01 -0.19569681882E+02  0.14831917624E+03  0.14972364652E+03  0.10566000000E+00 0. -1.
        -13    1    4    4    0    0  0.51609857301E+00 -0.20204525416E+01  0.14069273532E+02  0.14223368376E+02  0.10566000000E+00 0.  1.
         14    1    4    4    0    0  0.87553631157E+00 -0.63258938649E+01  0.46385241618E+02  0.46822795058E+02  0.00000000000E+00 0. -1.
<mgrwt>
<rscale>  0 0.77399323E+02</rscale>
<asrwt>0</asrwt>
<pdfrwt beam="1">  1        2 0.38751580E-01 0.77399323E+02</pdfrwt>
<pdfrwt beam="2">  1       -1 0.91474112E-03 0.77399323E+02</pdfrwt>
<totfact> 0.26100920E+05</totfact>
</mgrwt>
</event>
<event>
 8    1  0.7667702E-014  0.7908404E+02  0.7818608E-02  0.1331671E+00
          2   -1    0    0  501    0  0.00000000000E+00  0.00000000000E+00  0.35622339870E+03  0.35622339870E+03  0.25500000000E-02 0. -1.
         -1   -1    0    0    0  501 -0.00000000000E+00 -0.00000000000E+00 -0.43892987342E+01  0.43893016278E+01  0.50400000000E-02 0.  1.
         24    2    1    2    0    0  0.00000000000E+00  0.00000000000E+00  0.35183409996E+03  0.36061270033E+03  0.79084042293E+02 0.  0.
         66    2    3    3    0    0  0.10965908810E+02  0.18786168724E+02  0.32646305986E+03  0.32719306342E+03  0.20000017734E+01 0.  0.
        -13    1    3    3    0    0 -0.10965908810E+02 -0.18786168724E+02  0.25371040101E+02  0.33419636910E+02  0.10566000000E+00 0.  1.
         13    1    4    4    0    0  0.45291847177E+01  0.77914110828E+01  0.12505353144E+03  0.12537789475E+03  0.10566000000E+00 0. -1.
        -13    1    4    4    0    0  0.30882714969E+01  0.45185029284E+01  0.92603727877E+02  0.92765380775E+02  0.10566000000E+00 0.  1.
         14    1    4    4    0    0  0.33484525954E+01  0.64762547128E+01  0.10880580054E+03  0.10904978790E+03  0.00000000000E+00 0. -1.
<mgrwt>
<rscale>  0 0.79084042E+02</rscale>
<asrwt>0</asrwt>
<pdfrwt beam="1">  1        2 0.54803611E-01 0.79084042E+02</pdfrwt>
<pdfrwt beam="2">  1       -1 0.67527681E-03 0.79084042E+02</pdfrwt>
<totfact> 0.27948383E+05</totfact>
</mgrwt>
</event>
<event>
 8    1  0.7667702E-014  0.7906934E+02  0.7818608E-02  0.1331713E+00
         -1   -1    0    0    0  501 -0.00000000000E+00  0.00000000000E+00  0.15347605314E+01  0.15347688068E+01  0.50400000000E-02 0.  1.
          2   -1    0    0  501    0  0.00000000000E+00 -0.00000000000E+00 -0.10183907853E+04  0.10183907853E+04  0.25500000000E-02 0. -1.
         24    2    1    2    0    0  0.00000000000E+00  0.00000000000E+00 -0.10168560248E+04  0.10199255541E+04  0.79069341837E+02 0.  0.
         66    2    3    3    0    0 -0.77373195336E+01  0.28893232352E+02 -0.84171491200E+03  0.84224858449E+03  0.19999986591E+01 0.  0.
        -13    1    3    3    0    0  0.77373195336E+01 -0.28893232352E+02 -0.17514111278E+03  0.17767696964E+03  0.10566000000E+00 0.  1.
         13    1    4    4    0    0 -0.45698015100E+01  0.17431460677E+02 -0.48996674089E+03  0.49029802901E+03  0.10566000000E+00 0. -1.
        -13    1    4    4    0    0 -0.96257405759E-01  0.88919250644E+00 -0.21304655288E+02  0.21323682369E+02  0.10566000000E+00 0. -1.
        -14    1    4    4    0    0 -0.30712606178E+01  0.10572579169E+02 -0.33044351583E+03  0.33062687311E+03  0.00000000000E+00 0.  1.
<mgrwt>
<rscale>  0 0.79069342E+02</rscale>
<asrwt>0</asrwt>
<pdfrwt beam="1">  1        2 0.15667497E+00 0.79069342E+02</pdfrwt>
<pdfrwt beam="2">  1       -1 0.23611846E-03 0.79069342E+02</pdfrwt>
<totfact> 0.36340620E+05</totfact>
</mgrwt>
</event>
<event>
 8    1  0.7667702E-014  0.8054588E+02  0.7818608E-02  0.1327509E+00
          2   -1    0    0  501    0  0.00000000000E+00  0.00000000000E+00  0.73300147672E+02  0.73300147717E+02  0.25500000000E-02 0. -1.
         -1   -1    0    0    0  501 -0.00000000000E+00 -0.00000000000E+00 -0.22126964703E+02  0.22126965277E+02  0.50400000000E-02 0.  1.
         24    2    1    2    0    0  0.00000000000E+00  0.00000000000E+00  0.51173182969E+02  0.95427112994E+02  0.80545882819E+02 0.  0.
         66    2    3    3    0    0 -0.29530488992E+02 -0.27290625703E+02  0.27680478281E+02  0.48857311952E+02  0.20000054963E+01 0.  0.
        -13    1    3    3    0    0  0.29530488992E+02  0.27290625703E+02  0.23492704689E+02  0.46569801041E+02  0.10566000000E+00 0.  1.
         13    1    4    4    0    0 -0.33277280211E+01 -0.28995306650E+01  0.26433062298E+01  0.51458025341E+01  0.10566000000E+00 0. -1.
        -13    1    4    4    0    0 -0.53423294003E+01 -0.56009417177E+01  0.49081101628E+01  0.91657918890E+01  0.10566000000E+00 0.  1.
        -14    1    4    4    0    0 -0.20860431571E+02 -0.18790153320E+02  0.20129061888E+02  0.34545717529E+02  0.00000000000E+00 0.  1.
<mgrwt>
<rscale>  0 0.80545883E+02</rscale>
<asrwt>0</asrwt>
<pdfrwt beam="1">  1        2 0.11276946E-01 0.80545883E+02</pdfrwt>
<pdfrwt beam="2">  1       -1 0.34041485E-02 0.80545883E+02</pdfrwt>
<totfact> 0.16033207E+05</totfact>
</mgrwt>
</event>
<event>
 8    1  0.7667702E-014  0.8195185E+02  0.7818608E-02  0.1323602E+00
          2   -1    0    0  501    0  0.00000000000E+00  0.00000000000E+00  0.50630818344E+02  0.50630818408E+02  0.25500000000E-02 0. -1.
         -1   -1    0    0    0  501 -0.00000000000E+00 -0.00000000000E+00 -0.33162146126E+02  0.33162146509E+02  0.50400000000E-02 0.  1.
         24    2    1    2    0    0  0.00000000000E+00  0.00000000000E+00  0.17468672218E+02  0.83792964917E+02  0.81951854528E+02 0.  0.
         66    2    3    3    0    0  0.21051188943E+02 -0.16980100421E+02  0.40180059041E+02  0.48475906409E+02  0.19999978500E+01 0.  0.
        -13    1    3    3    0    0 -0.21051188943E+02  0.16980100421E+02 -0.22711386823E+02  0.35317058508E+02  0.10566000000E+00 0.  1.
         13    1    4    4    0    0  0.77781803342E+01 -0.73318486149E+01  0.15876116517E+02  0.19139444431E+02  0.10566000000E+00 0. -1.
        -13    1    4    4    0    0  0.73943655724E+01 -0.58163872345E+01  0.13584313489E+02  0.16524277281E+02  0.10566000000E+00 0.  1.
        -14    1    4    4    0    0  0.58786430363E+01 -0.38318645716E+01  0.10719629036E+02  0.12812184697E+02  0.00000000000E+00 0.  1.
<mgrwt>
<rscale>  0 0.81951855E+02</rscale>
<asrwt>0</asrwt>
<pdfrwt beam="1">  1        2 0.77893566E-02 0.81951855E+02</pdfrwt>
<pdfrwt beam="2">  1       -1 0.51018687E-02 0.81951855E+02</pdfrwt>
<totfact> 0.14025314E+05</totfact>
</mgrwt>
</event>
<event>
 8    1  0.7667702E-014  0.8225454E+02  0.7818608E-02  0.1322772E+00
          2   -1    0    0  501    0  0.00000000000E+00  0.00000000000E+00  0.34091296177E+02  0.34091296272E+02  0.25500000000E-02 0. -1.
         -1   -1    0    0    0  501 -0.00000000000E+00 -0.00000000000E+00 -0.49615374457E+02  0.49615374713E+02  0.50400000000E-02 0.  1.
         24    2    1    2    0    0  0.00000000000E+00  0.00000000000E+00 -0.15524078280E+02  0.83706670985E+02  0.82254542495E+02 0.  0.
         66    2    3    3    0    0 -0.31434237240E+02  0.23746019871E+02  0.41648184898E+01  0.39665229698E+02  0.20000008387E+01 0.  0.
        -13    1    3    3    0    0  0.31434237240E+02 -0.23746019871E+02 -0.19688896770E+02  0.44041441287E+02  0.10566000000E+00 0.  1.
         13    1    4    4    0    0 -0.16673964336E+02  0.12545763101E+02  0.12874166482E+01  0.20906598579E+02  0.10566000000E+00 0. -1.
        -13    1    4    4    0    0 -0.11122860876E+02  0.84496347787E+01  0.19378191284E+01  0.14102505769E+02  0.10566000000E+00 0.  1.
         14    1    4    4    0    0 -0.36374120277E+01  0.27506219916E+01  0.93958271316E+00  0.46561253500E+01  0.00000000000E+00 0. -1.
<mgrwt>
<rscale>  0 0.82254542E+02</rscale>
<asrwt>0</asrwt>
<pdfrwt beam="1">  1        2 0.52448148E-02 0.82254542E+02</pdfrwt>
<pdfrwt beam="2">  1       -1 0.76331346E-02 0.82254542E+02</pdfrwt>
<totfact> 0.12770920E+05</totfact>
</mgrwt>
</event>
<event>
 8    1  0.7667702E-014  0.7981867E+02  0.7818608E-02  0.1329567E+00
         -1   -1    0    0    0  501 -0.00000000000E+00  0.00000000000E+00  0.11710204664E+01  0.11710313123E+01  0.50400000000E-02 0.  1.
          2   -1    0    0  501    0  0.00000000000E+00 -0.00000000000E+00 -0.13601364825E+04  0.13601364825E+04  0.25500000000E-02 0. -1.
         24    2    1    2    0    0  0.00000000000E+00  0.22204460493E-15 -0.13589654620E+04  0.13613075138E+04  0.79818670548E+02 0.  0.
         66    2    3    3    0    0 -0.18229599582E+02  0.19029358462E+01 -0.12840526741E+04  0.12841850370E+04  0.19999985001E+01 0.  0.
        -13    1    3    3    0    0  0.18229599582E+02 -0.19029358462E+01 -0.74912787904E+02  0.77122476758E+02  0.10566000000E+00 0.  1.
         13    1    4    4    0    0 -0.31608782292E+01  0.68079755373E+00 -0.25233234186E+03  0.25235307914E+03  0.10566000000E+00 0. -1.
        -13    1    4    4    0    0 -0.16324751533E+01  0.51988274936E+00 -0.10782843939E+03  0.10784210105E+03  0.10566000000E+00 0.  1.
        -14    1    4    4    0    0 -0.13436246200E+02  0.70225554309E+00 -0.92389189286E+03  0.92398985686E+03  0.00000000000E+00 0.  1.
<mgrwt>
<rscale>  0 0.79818671E+02</rscale>
<asrwt>0</asrwt>
<pdfrwt beam="1">  1        2 0.20925050E+00 0.79818671E+02</pdfrwt>
<pdfrwt beam="2">  1       -1 0.18015892E-03 0.79818671E+02</pdfrwt>
<totfact> 0.34477158E+05</totfact>
</mgrwt>
</event>
<event>
 8    1  0.7667702E-014  0.8026377E+02  0.7818608E-02  0.1328305E+00
          2   -1    0    0  501    0  0.00000000000E+00  0.00000000000E+00  0.32357099984E+03  0.32357099985E+03  0.25500000000E-02 0. -1.
         -1   -1    0    0    0  501 -0.00000000000E+00 -0.00000000000E+00 -0.49774793286E+01  0.49774818802E+01  0.50400000000E-02 0.  1.
         24    2    1    2    0    0 -0.88817841970E-15  0.00000000000E+00  0.31859352051E+03  0.32854848173E+03  0.80263774739E+02 0.  0.
         66    2    3    3    0    0  0.67172822429E+01 -0.31987997372E+02  0.25453492624E+03  0.25663277746E+03  0.19999835474E+01 0.  0.
        -13    1    3    3    0    0 -0.67172822429E+01  0.31987997372E+02  0.64058594271E+02  0.71915704270E+02  0.10566000000E+00 0.  1.
         13    1    4    4    0    0  0.36773754755E+00 -0.11221398841E+01  0.85586409950E+01  0.86403662272E+01  0.10566000000E+00 0. -1.
        -13    1    4    4    0    0 -0.41106270679E-01 -0.65886344333E+00  0.42554682000E+01  0.43076634501E+01  0.10566000000E+00 0.  1.
         14    1    4    4    0    0  0.63906509660E+01 -0.30206994045E+02  0.24172081705E+03  0.24368474778E+03  0.00000000000E+00 0. -1.
<mgrwt>
<rscale>  0 0.80263775E+02</rscale>
<asrwt>0</asrwt>
<pdfrwt beam="1">  1        2 0.49780163E-01 0.80263775E+02</pdfrwt>
<pdfrwt beam="2">  1       -1 0.76576611E-03 0.80263775E+02</pdfrwt>
<totfact> 0.25975913E+05</totfact>
</mgrwt>
</event>
<event>
 8    1  0.7667702E-014  0.8075834E+02  0.7818608E-02  0.1326913E+00
         -1   -1    0    0    0  501 -0.00000000000E+00  0.00000000000E+00  0.41010253341E+02  0.41010253650E+02  0.50400000000E-02 0.  1.
          2   -1    0    0  501    0  0.00000000000E+00 -0.00000000000E+00 -0.39757800309E+02  0.39757800391E+02  0.25500000000E-02 0. -1.
         24    2    1    2    0    0  0.35527136788E-14  0.35527136788E-14  0.12524530311E+01  0.80768054042E+02  0.80758342696E+02 0.  0.
         66    2    3    3    0    0 -0.26377558206E+02 -0.29414653399E+02 -0.75887008581E+01  0.40281333038E+02  0.19999997770E+01 0.  0.
        -13    1    3    3    0    0  0.26377558206E+02  0.29414653399E+02  0.88411538892E+01  0.40486721004E+02  0.10566000000E+00 0.  1.
         13    1    4    4    0    0 -0.14158105267E+02 -0.17220615778E+02 -0.42932751899E+01  0.22703412263E+02  0.10566000000E+00 0. -1.
        -13    1    4    4    0    0 -0.43567883008E+01 -0.42696597620E+01 -0.12924559698E+01  0.62364417139E+01  0.10566000000E+00 0.  1.
         14    1    4    4    0    0 -0.78626646377E+01 -0.79243778598E+01 -0.20029696983E+01  0.11341479061E+02  0.00000000000E+00 0. -1.
<mgrwt>
<rscale>  0 0.80758343E+02</rscale>
<asrwt>0</asrwt>
<pdfrwt beam="1">  1        2 0.61165847E-02 0.80758343E+02</pdfrwt>
<pdfrwt beam="2">  1       -1 0.63092698E-02 0.80758343E+02</pdfrwt>
<totfact> 0.13870548E+05</totfact>
</mgrwt>
</event>
<event>
 8    1  0.7667702E-014  0.8376635E+02  0.7818608E-02  0.1318691E+00
         -1   -1    0    0    0  501 -0.00000000000E+00  0.00000000000E+00  0.15850219791E+01  0.15850299921E+01  0.50400000000E-02 0.  1.
          2   -1    0    0  501    0  0.00000000000E+00 -0.00000000000E+00 -0.11067329395E+04  0.11067329395E+04  0.25500000000E-02 0. -1.
         24    2    1    2    0    0  0.44408920985E-15  0.00000000000E+00 -0.11051479175E+04  0.11083179695E+04  0.83766353059E+02 0.  0.
         66    2    3    3    0    0 -0.33146547649E+01  0.19561383016E+02 -0.10405673658E+04  0.10407584146E+04  0.20000034804E+01 0.  0.
        -13    1    3    3    0    0  0.33146547649E+01 -0.19561383016E+02 -0.64580551684E+02  0.67559554924E+02  0.10566000000E+00 0.  1.
         13    1    4    4    0    0 -0.14648612185E+01  0.10110719468E+02 -0.55397398936E+03  0.55406819482E+03  0.10566000000E+00 0. -1.
        -13    1    4    4    0    0  0.12142346306E+00  0.43730865553E+00 -0.30177903004E+02  0.30181500563E+02  0.10566000000E+00 0.  1.
        -14    1    4    4    0    0 -0.19712170095E+01  0.90133548923E+01 -0.45641547346E+03  0.45650871917E+03  0.00000000000E+00 0.  1.
<mgrwt>
<rscale>  0 0.83766353E+02</rscale>
<asrwt>0</asrwt>
<pdfrwt beam="1">  1        2 0.17026599E+00 0.83766353E+02</pdfrwt>
<pdfrwt beam="2">  1       -1 0.24385104E-03 0.83766353E+02</pdfrwt>
<totfact> 0.31267883E+05</totfact>
</mgrwt>
</event>
<event>
 8    1  0.7667702E-014  0.7887805E+02  0.7818608E-02  0.1332266E+00
          2   -1    0    0  501    0  0.00000000000E+00  0.00000000000E+00  0.12173017468E+03  0.12173017471E+03  0.25500000000E-02 0. -1.
         -1   -1    0    0    0  501 -0.00000000000E+00 -0.00000000000E+00 -0.12777740202E+02  0.12777741196E+02  0.50400000000E-02 0.  1.
         24    2    1    2    0    0 -0.71054273576E-14  0.88817841970E-15  0.10895243448E+03  0.13450791591E+03  0.78878048038E+02 0.  0.
         66    2    3    3    0    0 -0.32402182601E+02  0.59589197681E+01  0.91402496547E+02  0.97179352478E+02  0.20000027610E+01 0.  0.
        -13    1    3    3    0    0  0.32402182601E+02 -0.59589197681E+01  0.17549937935E+02  0.37328563429E+02  0.10566000000E+00 0.  1.
         13    1    4    4    0    0 -0.25250272449E+02  0.41172555362E+01  0.70998174315E+02  0.75467078730E+02  0.10566000000E+00 0. -1.
        -13    1    4    4    0    0 -0.69310588776E+01  0.18464438188E+01  0.19396599377E+02  0.20680622896E+02  0.10566000000E+00 0.  1.
        -14    1    4    4    0    0 -0.22085127412E+00 -0.47795868597E-02  0.10077228546E+01  0.10316508525E+01  0.00000000000E+00 0.  1.
<mgrwt>
<rscale>  0 0.78878048E+02</rscale>
<asrwt>0</asrwt>
<pdfrwt beam="1">  1        2 0.18727719E-01 0.78878048E+02</pdfrwt>
<pdfrwt beam="2">  1       -1 0.19658063E-02 0.78878048E+02</pdfrwt>
<totfact> 0.19486378E+05</totfact>
</mgrwt>
</event>
<event>
 8    1  0.7667702E-014  0.7867557E+02  0.7818608E-02  0.1332853E+00
          2   -1    0    0  501    0  0.00000000000E+00  0.00000000000E+00  0.47827251813E+02  0.47827251881E+02  0.25500000000E-02 0. -1.
         -1   -1    0    0    0  501 -0.00000000000E+00 -0.00000000000E+00 -0.32355222889E+02  0.32355223282E+02  0.50400000000E-02 0.  1.
         24    2    1    2    0    0  0.00000000000E+00  0.00000000000E+00  0.15472028924E+02  0.80182475163E+02  0.78675572093E+02 0.  0.
         66    2    3    3    0    0 -0.59317215151E+01  0.18392135521E+02  0.42631198773E+02  0.46849493897E+02  0.20000001040E+01 0.  0.
        -13    1    3    3    0    0  0.59317215151E+01 -0.18392135521E+02 -0.27159169849E+02  0.33332981266E+02  0.10566000000E+00 0.  1.
         13    1    4    4    0    0 -0.74145195129E+00  0.39417980036E+01  0.86324709060E+01  0.95193613481E+01  0.10566000000E+00 0. -1.
        -13    1    4    4    0    0 -0.68914972923E+00  0.15513829986E+01  0.28830721065E+01  0.33473848545E+01  0.10566000000E+00 0.  1.
         14    1    4    4    0    0 -0.45011198346E+01  0.12898954519E+02  0.31115655761E+02  0.33982747694E+02  0.00000000000E+00 0. -1.
<mgrwt>
<rscale>  0 0.78675572E+02</rscale>
<asrwt>0</asrwt>
<pdfrwt beam="1">  1        2 0.73580387E-02 0.78675572E+02</pdfrwt>
<pdfrwt beam="2">  1       -1 0.49777267E-02 0.78675572E+02</pdfrwt>
<totfact> 0.15492994E+05</totfact>
</mgrwt>
</event>
<event>
 8    1  0.7667702E-014  0.7962356E+02  0.7818608E-02  0.1330123E+00
          2   -1    0    0  501    0  0.00000000000E+00  0.00000000000E+00  0.39579115577E+02  0.39579115659E+02  0.25500000000E-02 0. -1.
         -1   -1    0    0    0  501 -0.00000000000E+00 -0.00000000000E+00 -0.40045809902E+02  0.40045810219E+02  0.50400000000E-02 0.  1.
         24    2    1    2    0    0  0.00000000000E+00  0.00000000000E+00 -0.46669432485E+00  0.79624925878E+02  0.79623558181E+02 0.  0.
         66    2    3    3    0    0  0.31805970700E+02 -0.75285993667E+01  0.22453306181E+02  0.39704540511E+02  0.19999995339E+01 0.  0.
        -13    1    3    3    0    0 -0.31805970700E+02  0.75285993667E+01 -0.22920000506E+02  0.39920385367E+02  0.10566000000E+00 0.  1.
         13    1    4    4    0    0  0.11101564287E+02 -0.27543230934E+01  0.81139441597E+01  0.14024203335E+02  0.10566000000E+00 0. -1.
        -13    1    4    4    0    0  0.64501998888E+01 -0.13887345753E+01  0.53162229406E+01  0.84739042192E+01  0.10566000000E+00 0.  1.
        -14    1    4    4    0    0  0.14254206525E+02 -0.33855416981E+01  0.90231390806E+01  0.17206432957E+02  0.00000000000E+00 0.  1.
<mgrwt>
<rscale>  0 0.79623558E+02</rscale>
<asrwt>0</asrwt>
<pdfrwt beam="1">  1        2 0.60890947E-02 0.79623558E+02</pdfrwt>
<pdfrwt beam="2">  1       -1 0.61608939E-02 0.79623558E+02</pdfrwt>
<totfact> 0.14411032E+05</totfact>
</mgrwt>
</event>
<event>
 8    1  0.7667702E-014  0.8229583E+02  0.7818608E-02  0.1322660E+00
         -1   -1    0    0    0  501 -0.00000000000E+00  0.00000000000E+00  0.90140208316E+02  0.90140208457E+02  0.50400000000E-02 0.  1.
          2   -1    0    0  501    0  0.00000000000E+00 -0.00000000000E+00 -0.18783525123E+02  0.18783525296E+02  0.25500000000E-02 0. -1.
         24    2    1    2    0    0  0.00000000000E+00  0.17763568394E-14  0.71356683193E+02  0.10892373375E+03  0.82295829410E+02 0.  0.
         66    2    3    3    0    0  0.23581203529E+02  0.13521487744E+02 -0.51437152416E+01  0.27737368423E+02  0.20000024652E+01 0.  0.
        -13    1    3    3    0    0 -0.23581203529E+02 -0.13521487744E+02  0.76500398435E+02  0.81186365329E+02  0.10566000000E+00 0.  1.
         13    1    4    4    0    0  0.64228525735E+01  0.36007449355E+01 -0.74758293166E+00  0.74019216118E+01  0.10566000000E+00 0. -1.
        -13    1    4    4    0    0  0.14530067203E+02  0.78997081825E+01 -0.36422164036E+01  0.16935322455E+02  0.10566000000E+00 0.  1.
        -14    1    4    4    0    0  0.26282837524E+01  0.20210346264E+01 -0.75391590631E+00  0.34001243562E+01  0.00000000000E+00 0.  1.
<mgrwt>
<rscale>  0 0.82295829E+02</rscale>
<asrwt>0</asrwt>
<pdfrwt beam="1">  1        2 0.28897731E-02 0.82295829E+02</pdfrwt>
<pdfrwt beam="2">  1       -1 0.13867725E-01 0.82295829E+02</pdfrwt>
<totfact> 0.11294309E+05</totfact>
</mgrwt>
</event>
<event>
 8    1  0.7667702E-014  0.7626311E+02  0.7818608E-02  0.1340004E+00
         -1   -1    0    0    0  501 -0.00000000000E+00  0.00000000000E+00  0.23022538747E+02  0.23022539299E+02  0.50400000000E-02 0.  1.
          2   -1    0    0  501    0  0.00000000000E+00 -0.00000000000E+00 -0.63156181770E+02  0.63156181821E+02  0.25500000000E-02 0. -1.
         24    2    1    2    0    0  0.00000000000E+00  0.35527136788E-14 -0.40133643023E+02  0.86178721120E+02  0.76263114752E+02 0.  0.
         66    2    3    3    0    0 -0.21752640315E+02  0.27779298541E+02 -0.36344370513E+02  0.50692998100E+02  0.20000000735E+01 0.  0.
        -13    1    3    3    0    0  0.21752640315E+02 -0.27779298541E+02 -0.37892725096E+01  0.35485723020E+02  0.10566000000E+00 0.  1.
         13    1    4    4    0    0 -0.13469632441E+02  0.16467327001E+02 -0.21145301340E+02  0.29995646175E+02  0.10566000000E+00 0. -1.
        -13    1    4    4    0    0 -0.68962293665E+01  0.98702420199E+01 -0.12797348640E+02  0.17571651978E+02  0.10566000000E+00 0.  1.
        -14    1    4    4    0    0 -0.13867785076E+01  0.14417295194E+01 -0.24017205330E+01  0.31256999464E+01  0.00000000000E+00 0.  1.
<mgrwt>
<rscale>  0 0.76263115E+02</rscale>
<asrwt>0</asrwt>
<pdfrwt beam="1">  1        2 0.97163356E-02 0.76263115E+02</pdfrwt>
<pdfrwt beam="2">  1       -1 0.35419291E-02 0.76263115E+02</pdfrwt>
<totfact> 0.17931530E+05</totfact>
</mgrwt>
</event>
<event>
 8    1  0.7667702E-014  0.8275873E+02  0.7818608E-02  0.1321400E+00
         -1   -1    0    0    0  501 -0.00000000000E+00  0.00000000000E+00  0.39654284914E+01  0.39654316942E+01  0.50400000000E-02 0.  1.
          2   -1    0    0  501    0  0.00000000000E+00 -0.00000000000E+00 -0.43179473343E+03  0.43179473344E+03  0.25500000000E-02 0. -1.
         24    2    1    2    0    0 -0.35527136788E-14  0.00000000000E+00 -0.42782930494E+03  0.43576016513E+03  0.82758729759E+02 0.  0.
         66    2    3    3    0    0 -0.13652605352E+02 -0.39030432941E+02 -0.21768156464E+03  0.22158301358E+03  0.19999990822E+01 0.  0.
        -13    1    3    3    0    0  0.13652605352E+02  0.39030432941E+02 -0.21014774030E+03  0.21417715155E+03  0.10566000000E+00 0.  1.
         13    1    4    4    0    0 -0.62445054600E+01 -0.17057660453E+02 -0.94608425929E+02  0.96336509431E+02  0.10566000000E+00 0. -1.
        -13    1    4    4    0    0 -0.27400521529E+01 -0.67267947460E+01 -0.41115256740E+02  0.41752043712E+02  0.10566000000E+00 0.  1.
        -14    1    4    4    0    0 -0.46680477387E+01 -0.15245977742E+02 -0.81957881969E+02  0.83494460439E+02  0.00000000000E+00 0.  1.
<mgrwt>
<rscale>  0 0.82758730E+02</rscale>
<asrwt>0</asrwt>
<pdfrwt beam="1">  1        2 0.66429922E-01 0.82758730E+02</pdfrwt>
<pdfrwt beam="2">  1       -1 0.61006651E-03 0.82758730E+02</pdfrwt>
<totfact> 0.26549555E+05</totfact>
</mgrwt>
</event>
<event>
 8    1  0.7667702E-014  0.7913866E+02  0.7818608E-02  0.1331514E+00
         -1   -1    0    0    0  501 -0.00000000000E+00  0.00000000000E+00  0.10245642702E+01  0.10245766664E+01  0.50400000000E-02 0.  1.
          2   -1    0    0  501    0  0.00000000000E+00 -0.00000000000E+00 -0.15281835512E+04  0.15281835512E+04  0.25500000000E-02 0. -1.
         24    2    1    2    0    0  0.00000000000E+00  0.00000000000E+00 -0.15271589869E+04  0.15292081278E+04  0.79138656664E+02 0.  0.
         66    2    3    3    0    0 -0.89338078801E+01  0.12616931449E+02 -0.14673666020E+04  0.14674494010E+04  0.20000003161E+01 0.  0.
        -13    1    3    3    0    0  0.89338078801E+01 -0.12616931449E+02 -0.59792384901E+02  0.61758726821E+02  0.10566000000E+00 0.  1.
         13    1    4    4    0    0 -0.36313881488E+01  0.60583147356E+01 -0.66134247537E+03  0.66138020159E+03  0.10566000000E+00 0. -1.
        -13    1    4    4    0    0 -0.29628819155E+00  0.60116090547E+00 -0.96994770538E+02  0.96997143550E+02  0.10566000000E+00 0.  1.
        -14    1    4    4    0    0 -0.50061315398E+01  0.59574558080E+01 -0.70902935610E+03  0.70907205589E+03  0.00000000000E+00 0.  1.
<mgrwt>
<rscale>  0 0.79138657E+02</rscale>
<asrwt>0</asrwt>
<pdfrwt beam="1">  1        2 0.23510334E+00 0.79138657E+02</pdfrwt>
<pdfrwt beam="2">  1       -1 0.15762745E-03 0.79138657E+02</pdfrwt>
<totfact> 0.33952864E+05</totfact>
</mgrwt>
</event>
<event>
 8    1  0.7667702E-014  0.7507168E+02  0.7818608E-02  0.1343649E+00
          2   -1    0    0  501    0  0.00000000000E+00  0.00000000000E+00  0.24004823939E+03  0.24004823940E+03  0.25500000000E-02 0. -1.
         -1   -1    0    0    0  501 -0.00000000000E+00 -0.00000000000E+00 -0.58693993636E+01  0.58694015275E+01  0.50400000000E-02 0.  1.
         24    2    1    2    0    0  0.00000000000E+00  0.00000000000E+00  0.23417884003E+03  0.24591764093E+03  0.75071679114E+02 0.  0.
         66    2    3    3    0    0  0.17928261230E+02 -0.92098405365E+01  0.22079703843E+03  0.22172409858E+03  0.19999996986E+01 0.  0.
        -13    1    3    3    0    0 -0.17928261230E+02  0.92098405365E+01  0.13381801598E+02  0.24193542351E+02  0.10566000000E+00 0.  1.
         13    1    4    4    0    0  0.10125273589E+02 -0.57693016700E+01  0.13285983084E+03  0.13336998097E+03  0.10566000000E+00 0. -1.
        -13    1    4    4    0    0  0.39950904306E+01 -0.13264083479E+01  0.41467539533E+02  0.41680788208E+02  0.10566000000E+00 0.  1.
        -14    1    4    4    0    0  0.38078972106E+01 -0.21141305187E+01  0.46469668051E+02  0.46673329405E+02  0.00000000000E+00 0.  1.
<mgrwt>
<rscale>  0 0.75071679E+02</rscale>
<asrwt>0</asrwt>
<pdfrwt beam="1">  1        2 0.36930489E-01 0.75071679E+02</pdfrwt>
<pdfrwt beam="2">  1       -1 0.90298493E-03 0.75071679E+02</pdfrwt>
<totfact> 0.27791575E+05</totfact>
</mgrwt>
</event>
<event>
 8    1  0.7667702E-014  0.7931160E+02  0.7818608E-02  0.1331016E+00
          2   -1    0    0  501    0  0.00000000000E+00  0.00000000000E+00  0.46532969616E+02  0.46532969686E+02  0.25500000000E-02 0. -1.
         -1   -1    0    0    0  501 -0.00000000000E+00 -0.00000000000E+00 -0.33795018735E+02  0.33795019111E+02  0.50400000000E-02 0.  1.
         24    2    1    2    0    0  0.35527136788E-14 -0.17763568394E-14  0.12737950881E+02  0.80327988797E+02  0.79311603133E+02 0.  0.
         66    2    3    3    0    0  0.18393544431E+02 -0.95149350160E+01  0.40595392228E+02  0.45616252056E+02  0.20000291046E+01 0.  0.
        -13    1    3    3    0    0 -0.18393544431E+02  0.95149350160E+01 -0.27857441347E+02  0.34711736741E+02  0.10566000000E+00 0.  1.
         13    1    4    4    0    0  0.45147511032E+01 -0.26003112933E+01  0.95914288330E+01  0.10915643244E+02  0.10566000000E+00 0. -1.
        -13    1    4    4    0    0  0.10466794970E+02 -0.49686699526E+01  0.21653578681E+02  0.24558707453E+02  0.10566000000E+00 0.  1.
        -14    1    4    4    0    0  0.34119983585E+01 -0.19459537701E+01  0.93503847138E+01  0.10141901359E+02  0.00000000000E+00 0.  1.
<mgrwt>
<rscale>  0 0.79311603E+02</rscale>
<asrwt>0</asrwt>
<pdfrwt beam="1">  1        2 0.71589184E-02 0.79311603E+02</pdfrwt>
<pdfrwt beam="2">  1       -1 0.51992337E-02 0.79311603E+02</pdfrwt>
<totfact> 0.15066720E+05</totfact>
</mgrwt>
</event>
<event>
 8    1  0.7667702E-014  0.7696606E+02  0.7818608E-02  0.1337889E+00
         -1   -1    0    0    0  501 -0.00000000000E+00  0.00000000000E+00  0.14674444490E+01  0.14674531041E+01  0.50400000000E-02 0.  1.
          2   -1    0    0  501    0  0.00000000000E+00 -0.00000000000E+00 -0.10091960020E+04  0.10091960020E+04  0.25500000000E-02 0. -1.
         24    2    1    2    0    0  0.00000000000E+00  0.00000000000E+00 -0.10077285575E+04  0.10106634551E+04  0.76966056061E+02 0.  0.
         66    2    3    3    0    0  0.11863725051E+02 -0.12767649928E+02 -0.95435547039E+03  0.95451669693E+03  0.19999989727E+01 0.  0.
        -13    1    3    3    0    0 -0.11863725051E+02  0.12767649928E+02 -0.53373087155E+02  0.56146758172E+02  0.10566000000E+00 0.  1.
         13    1    4    4    0    0  0.80624037442E+01 -0.76160853707E+01 -0.58828447700E+03  0.58838902450E+03  0.10566000000E+00 0. -1.
        -13    1    4    4    0    0  0.16475300694E+01 -0.24291481104E+01 -0.14930960343E+03  0.14933848786E+03  0.10566000000E+00 0.  1.
         14    1    4    4    0    0  0.21537912378E+01 -0.27224164471E+01 -0.21676138996E+03  0.21678918457E+03  0.00000000000E+00 0. -1.
<mgrwt>
<rscale>  0 0.76966056E+02</rscale>
<asrwt>0</asrwt>
<pdfrwt beam="1">  1        2 0.15526037E+00 0.76966056E+02</pdfrwt>
<pdfrwt beam="2">  1       -1 0.22576216E-03 0.76966056E+02</pdfrwt>
<totfact> 0.38956966E+05</totfact>
</mgrwt>
</event>
<event>
 8    1  0.7667702E-014  0.7898773E+02  0.7818608E-02  0.1331949E+00
          2   -1    0    0  501    0  0.00000000000E+00  0.00000000000E+00  0.91315971066E+02  0.91315971101E+02  0.25500000000E-02 0. -1.
         -1   -1    0    0    0  501 -0.00000000000E+00 -0.00000000000E+00 -0.17080968887E+02  0.17080969630E+02  0.50400000000E-02 0.  1.
         24    2    1    2    0    0  0.00000000000E+00  0.00000000000E+00  0.74235002179E+02  0.10839694073E+03  0.78987728233E+02 0.  0.
         66    2    3    3    0    0 -0.51747594831E+01 -0.37293739121E+02  0.53388047960E+02  0.65359657156E+02  0.20000013277E+01 0.  0.
        -13    1    3    3    0    0  0.51747594831E+01  0.37293739121E+02  0.20846954219E+02  0.43037283575E+02  0.10566000000E+00 0.  1.
         13    1    4    4    0    0 -0.12822535459E+00 -0.49464936942E+01  0.71962223445E+01  0.87339007136E+01  0.10566000000E+00 0. -1.
        -13    1    4    4    0    0 -0.45950018590E+01 -0.29020203326E+02  0.40935821823E+02  0.50388876903E+02  0.10566000000E+00 0.  1.
        -14    1    4    4    0    0 -0.45153226952E+00 -0.33270421000E+01  0.52560037925E+01  0.62368795397E+01  0.00000000000E+00 0.  1.
<mgrwt>
<rscale>  0 0.78987728E+02</rscale>
<asrwt>0</asrwt>
<pdfrwt beam="1">  1        2 0.14048611E-01 0.78987728E+02</pdfrwt>
<pdfrwt beam="2">  1       -1 0.26278414E-02 0.78987728E+02</pdfrwt>
<totfact> 0.17889190E+05</totfact>
</mgrwt>
</event>
<event>
 8    1  0.7667702E-014  0.7915972E+02  0.7818608E-02  0.1331453E+00
          2   -1    0    0  501    0  0.00000000000E+00  0.00000000000E+00  0.56125761272E+02  0.56125761330E+02  0.25500000000E-02 0. -1.
         -1   -1    0    0    0  501 -0.00000000000E+00 -0.00000000000E+00 -0.27911696617E+02  0.27911697072E+02  0.50400000000E-02 0.  1.
         24    2    1    2    0    0 -0.17763568394E-14  0.00000000000E+00  0.28214064655E+02  0.84037458402E+02  0.79159718104E+02 0.  0.
         66    2    3    3    0    0 -0.10817149598E+02 -0.35498615138E+02  0.28648870113E+02  0.46924622052E+02  0.19999984631E+01 0.  0.
        -13    1    3    3    0    0  0.10817149598E+02  0.35498615138E+02 -0.43480545798E+00  0.37112836350E+02  0.10566000000E+00 0.  1.
         13    1    4    4    0    0 -0.55815979710E+01 -0.19417832380E+02  0.16424008332E+02  0.26037773791E+02  0.10566000000E+00 0. -1.
        -13    1    4    4    0    0 -0.10178237980E+01 -0.26603855691E+01  0.17115120418E+01  0.33247637758E+01  0.10566000000E+00 0.  1.
        -14    1    4    4    0    0 -0.42177278286E+01 -0.13420397189E+02  0.10513349739E+02  0.17562084486E+02  0.00000000000E+00 0.  1.
<mgrwt>
<rscale>  0 0.79159718E+02</rscale>
<asrwt>0</asrwt>
<pdfrwt beam="1">  1        2 0.86347324E-02 0.79159718E+02</pdfrwt>
<pdfrwt beam="2">  1       -1 0.42941073E-02 0.79159718E+02</pdfrwt>
<totfact> 0.15778337E+05</totfact>
</mgrwt>
</event>
<event>
 8    1  0.7667702E-014  0.8095894E+02  0.7818608E-02  0.1326352E+00
          2   -1    0    0  501    0  0.00000000000E+00  0.00000000000E+00  0.11195945573E+03  0.11195945576E+03  0.25500000000E-02 0. -1.
         -1   -1    0    0    0  501 -0.00000000000E+00 -0.00000000000E+00 -0.14635541679E+02  0.14635542547E+02  0.50400000000E-02 0.  1.
         24    2    1    2    0    0  0.71054273576E-14  0.88817841970E-15  0.97323914053E+02  0.12659499831E+03  0.80958936196E+02 0.  0.
         66    2    3    3    0    0 -0.31976980694E+02 -0.59165798703E+01  0.86319427235E+02  0.92263626272E+02  0.20000007828E+01 0.  0.
        -13    1    3    3    0    0  0.31976980694E+02  0.59165798703E+01  0.11004486818E+02  0.34331372035E+02  0.10566000000E+00 0.  1.
         13    1    4    4    0    0 -0.13699118323E+02 -0.21192063944E+01  0.35221954746E+02  0.37851738913E+02  0.10566000000E+00 0.  1.
        -13    1    4    4    0    0 -0.29138733448E+01 -0.77706241922E+00  0.93322522575E+01  0.98079855274E+01  0.10566000000E+00 0. -1.
         14    1    4    4    0    0 -0.15363989026E+02 -0.30203110567E+01  0.41765220231E+02  0.44603901832E+02  0.00000000000E+00 0. -1.
<mgrwt>
<rscale>  0 0.80958936E+02</rscale>
<asrwt>0</asrwt>
<pdfrwt beam="1">  1        2 0.17224532E-01 0.80958936E+02</pdfrwt>
<pdfrwt beam="2">  1       -1 0.22516218E-02 0.80958936E+02</pdfrwt>
<totfact> 0.17733620E+05</totfact>
</mgrwt>
</event>
<event>
 8    1  0.7667702E-014  0.8298267E+02  0.7818608E-02  0.1320794E+00
          2   -1    0    0  501    0  0.00000000000E+00  0.00000000000E+00  0.65450585596E+02  0.65450585646E+02  0.25500000000E-02 0. -1.
         -1   -1    0    0    0  501 -0.00000000000E+00 -0.00000000000E+00 -0.26302756046E+02  0.26302756529E+02  0.50400000000E-02 0.  1.
         24    2    1    2    0    0 -0.35527136788E-14 -0.71054273576E-14  0.39147829550E+02  0.91753342175E+02  0.82982668321E+02 0.  0.
         66    2    3    3    0    0  0.28492154164E+02  0.29273945184E+02  0.27462807591E+02  0.49264312793E+02  0.19999996648E+01 0.  0.
        -13    1    3    3    0    0 -0.28492154164E+02 -0.29273945184E+02  0.11685021959E+02  0.42489029381E+02  0.10566000000E+00 0.  1.
         13    1    4    4    0    0  0.23778214763E+02  0.24639712660E+02  0.22682442032E+02  0.41073388926E+02  0.10566000000E+00 0. -1.
        -13    1    4    4    0    0  0.32963102322E+00  0.60270853189E+00  0.48523740232E+00  0.84766358781E+00  0.10566000000E+00 0. -1.
         14    1    4    4    0    0  0.43843083780E+01  0.40315239924E+01  0.42951281563E+01  0.73432602796E+01  0.00000000000E+00 0. -1.
<mgrwt>
<rscale>  0 0.82982668E+02</rscale>
<asrwt>0</asrwt>
<pdfrwt beam="1">  1        2 0.10069321E-01 0.82982668E+02</pdfrwt>
<pdfrwt beam="2">  1       -1 0.40465779E-02 0.82982668E+02</pdfrwt>
<totfact> 0.14381663E+05</totfact>
</mgrwt>
</event>
<event>
 8    1  0.7667702E-014  0.7565092E+02  0.7818608E-02  0.1341867E+00
         -1   -1    0    0    0  501 -0.00000000000E+00  0.00000000000E+00  0.23306292684E+01  0.23306347179E+01  0.50400000000E-02 0.  1.
          2   -1    0    0  501    0  0.00000000000E+00 -0.00000000000E+00 -0.61389583413E+03  0.61389583414E+03  0.25500000000E-02 0. -1.
         24    2    1    2    0    0  0.00000000000E+00  0.00000000000E+00 -0.61156520486E+03  0.61622646885E+03  0.75650916174E+02 0.  0.
         66    2    3    3    0    0  0.67530963298E+01 -0.24795605925E+02 -0.53178389633E+03  0.53240824447E+03  0.20000008538E+01 0.  0.
        -13    1    3    3    0    0 -0.67530963298E+01  0.24795605925E+02 -0.79781308532E+02  0.83818224381E+02  0.10566000000E+00 0.  1.
         13    1    4    4    0    0  0.22566913309E+01 -0.66015463303E+01 -0.13103333412E+03  0.13121897303E+03  0.10566000000E+00 0. -1.
        -13    1    4    4    0    0  0.25868894716E+01 -0.11591489814E+02 -0.24869974942E+03  0.24898319453E+03  0.10566000000E+00 0.  1.
        -14    1    4    4    0    0  0.19095155273E+01 -0.66025697812E+01 -0.15205081280E+03  0.15220607692E+03  0.00000000000E+00 0.  1.
<mgrwt>
<rscale>  0 0.75650916E+02</rscale>
<asrwt>0</asrwt>
<pdfrwt beam="1">  1        2 0.94445384E-01 0.75650916E+02</pdfrwt>
<pdfrwt beam="2">  1       -1 0.35855926E-03 0.75650916E+02</pdfrwt>
<totfact> 0.37418090E+05</totfact>
</mgrwt>
</event>
<event>
 8    1  0.7667702E-014  0.7894442E+02  0.7818608E-02  0.1332074E+00
         -1   -1    0    0    0  501 -0.00000000000E+00  0.00000000000E+00  0.60011294793E+01  0.60011315957E+01  0.50400000000E-02 0.  1.
          2   -1    0    0  501    0  0.00000000000E+00 -0.00000000000E+00 -0.25962695231E+03  0.25962695232E+03  0.25500000000E-02 0. -1.
         24    2    1    2    0    0 -0.17763568394E-14  0.00000000000E+00 -0.25362582283E+03  0.26562808392E+03  0.78944416898E+02 0.  0.
         66    2    3    3    0    0 -0.13635758726E+02  0.22151903163E+02 -0.22667514703E+03  0.22817156486E+03  0.19999997831E+01 0.  0.
        -13    1    3    3    0    0  0.13635758726E+02 -0.22151903163E+02 -0.26950675794E+02  0.37456519053E+02  0.10566000000E+00 0.  1.
         13    1    4    4    0    0 -0.10841323617E+01  0.11355042620E+01 -0.12788335823E+02  0.12884774350E+02  0.10566000000E+00 0. -1.
        -13    1    4    4    0    0 -0.10781788887E+00  0.23343342632E+00 -0.18457134605E+01  0.18665310272E+01  0.10566000000E+00 0. -1.
         14    1    4    4    0    0 -0.12443808475E+02  0.20782965475E+02 -0.21204109775E+03  0.21342025949E+03  0.00000000000E+00 0. -1.
<mgrwt>
<rscale>  0 0.78944417E+02</rscale>
<asrwt>0</asrwt>
<pdfrwt beam="1">  1        2 0.39942599E-01 0.78944417E+02</pdfrwt>
<pdfrwt beam="2">  1       -1 0.92325106E-03 0.78944417E+02</pdfrwt>
<totfact> 0.25053340E+05</totfact>
</mgrwt>
</event>
<event>
 8    1  0.7667702E-014  0.7785764E+02  0.7818608E-02  0.1335243E+00
         -1   -1    0    0    0  501 -0.00000000000E+00  0.00000000000E+00  0.64742079557E+01  0.64742099175E+01  0.50400000000E-02 0.  1.
          2   -1    0    0  501    0  0.00000000000E+00 -0.00000000000E+00 -0.23407537440E+03  0.23407537442E+03  0.25500000000E-02 0. -1.
         24    2    1    2    0    0  0.17763568394E-14  0.00000000000E+00 -0.22760116645E+03  0.24054958434E+03  0.77857636461E+02 0.  0.
         66    2    3    3    0    0 -0.13061868532E+02 -0.33630701141E+02 -0.15884083562E+03  0.16289888744E+03  0.19999999287E+01 0.  0.
        -13    1    3    3    0    0  0.13061868532E+02  0.33630701141E+02 -0.68760330827E+02  0.77650696895E+02  0.10566000000E+00 0.  1.
         13    1    4    4    0    0 -0.51102016865E+01 -0.12720163513E+02 -0.56526503783E+02  0.58165054071E+02  0.10566000000E+00 0. -1.
        -13    1    4    4    0    0 -0.35023184944E+01 -0.93202958763E+01 -0.47089011658E+02  0.48130243434E+02  0.10566000000E+00 0.  1.
        -14    1    4    4    0    0 -0.44493483508E+01 -0.11590241752E+02 -0.55225320180E+02  0.56603589936E+02  0.00000000000E+00 0.  1.
<mgrwt>
<rscale>  0 0.77857636E+02</rscale>
<asrwt>0</asrwt>
<pdfrwt beam="1">  1        2 0.36011590E-01 0.77857636E+02</pdfrwt>
<pdfrwt beam="2">  1       -1 0.99603233E-03 0.77857636E+02</pdfrwt>
<totfact> 0.25037950E+05</totfact>
</mgrwt>
</event>
<event>
 8    1  0.7667702E-014  0.8013257E+02  0.7818608E-02  0.1328676E+00
         -1   -1    0    0    0  501 -0.00000000000E+00  0.00000000000E+00  0.72273350906E+01  0.72273368480E+01  0.50400000000E-02 0.  1.
          2   -1    0    0  501    0  0.00000000000E+00 -0.00000000000E+00 -0.22211602514E+03  0.22211602516E+03  0.25500000000E-02 0. -1.
         24    2    1    2    0    0 -0.71054273576E-14 -0.17763568394E-14 -0.21488869005E+03  0.22934336200E+03  0.80132568806E+02 0.  0.
         66    2    3    3    0    0 -0.32586287130E+02 -0.12421585445E+02 -0.51197747451E+02  0.61978796617E+02  0.19999980407E+01 0.  0.
        -13    1    3    3    0    0  0.32586287130E+02  0.12421585445E+02 -0.16369094260E+03  0.16736456539E+03  0.10566000000E+00 0.  1.
         13    1    4    4    0    0 -0.10555643558E+02 -0.36530102828E+01 -0.16795249138E+02  0.20170712746E+02  0.10566000000E+00 0. -1.
        -13    1    4    4    0    0 -0.19741688193E+02 -0.75448340151E+01 -0.31228524228E+02  0.37707965505E+02  0.10566000000E+00 0.  1.
        -14    1    4    4    0    0 -0.22889553789E+01 -0.12237411472E+01 -0.31739740847E+01  0.41001183657E+01  0.00000000000E+00 0.  1.
<mgrwt>
<rscale>  0 0.80132569E+02</rscale>
<asrwt>0</asrwt>
<pdfrwt beam="1">  1        2 0.34171691E-01 0.80132569E+02</pdfrwt>
<pdfrwt beam="2">  1       -1 0.11118980E-02 0.80132569E+02</pdfrwt>
<totfact> 0.22784849E+05</totfact>
</mgrwt>
</event>
<event>
 8    1  0.7667702E-014  0.7942518E+02  0.7818608E-02  0.1330691E+00
          2   -1    0    0  501    0  0.00000000000E+00  0.00000000000E+00  0.12542061140E+03  0.12542061142E+03  0.25500000000E-02 0. -1.
         -1   -1    0    0    0  501 -0.00000000000E+00 -0.00000000000E+00 -0.12574405756E+02  0.12574406766E+02  0.50400000000E-02 0.  1.
         24    2    1    2    0    0  0.00000000000E+00  0.00000000000E+00  0.11284620564E+03  0.13799501819E+03  0.79425178106E+02 0.  0.
         66    2    3    3    0    0  0.70633532856E+01 -0.34332876343E+02  0.88797577970E+02  0.95486371838E+02  0.19999989488E+01 0.  0.
        -13    1    3    3    0    0 -0.70633532856E+01  0.34332876343E+02  0.24048627671E+02  0.42508646350E+02  0.10566000000E+00 0.  1.
         13    1    4    4    0    0  0.26408102310E+01 -0.15807875553E+02  0.39593309017E+02  0.42714214158E+02  0.10566000000E+00 0. -1.
        -13    1    4    4    0    0  0.20812909040E+01 -0.66962287351E+01  0.17619799211E+02  0.18964169884E+02  0.10566000000E+00 0.  1.
         14    1    4    4    0    0  0.23412521507E+01 -0.11828772055E+02  0.31584469741E+02  0.33807987796E+02  0.00000000000E+00 0. -1.
<mgrwt>
<rscale>  0 0.79425178E+02</rscale>
<asrwt>0</asrwt>
<pdfrwt beam="1">  1        2 0.19295478E-01 0.79425178E+02</pdfrwt>
<pdfrwt beam="2">  1       -1 0.19345241E-02 0.79425178E+02</pdfrwt>
<totfact> 0.19304567E+05</totfact>
</mgrwt>
</event>
<event>
 8    1  0.7667702E-014  0.8070504E+02  0.7818608E-02  0.1327062E+00
          2   -1    0    0  501    0  0.00000000000E+00  0.00000000000E+00  0.18210283822E+03  0.18210283824E+03  0.25500000000E-02 0. -1.
         -1   -1    0    0    0  501 -0.00000000000E+00 -0.00000000000E+00 -0.89417915603E+01  0.89417929807E+01  0.50400000000E-02 0.  1.
         24    2    1    2    0    0 -0.35527136788E-14 -0.35527136788E-14  0.17316104666E+03  0.19104463122E+03  0.80705037248E+02 0.  0.
         66    2    3    3    0    0 -0.31399749900E+02 -0.15526563185E+02  0.13393615789E+03  0.13845545437E+03  0.19999994674E+01 0.  0.
        -13    1    3    3    0    0  0.31399749900E+02  0.15526563185E+02  0.39224888775E+02  0.52589176848E+02  0.10566000000E+00 0.  1.
         13    1    4    4    0    0 -0.37751737277E+01 -0.24627872943E+01  0.15908871765E+02  0.16535435368E+02  0.10566000000E+00 0. -1.
        -13    1    4    4    0    0 -0.41771079168E+01 -0.20057104691E+01  0.17282805623E+02  0.17893508300E+02  0.10566000000E+00 0.  1.
         14    1    4    4    0    0 -0.23447468256E+02 -0.11058065422E+02  0.10074448050E+03  0.10402651071E+03  0.00000000000E+00 0. -1.
<mgrwt>
<rscale>  0 0.80705037E+02</rscale>
<asrwt>0</asrwt>
<pdfrwt beam="1">  1        2 0.28015820E-01 0.80705037E+02</pdfrwt>
<pdfrwt beam="2">  1       -1 0.13756604E-02 0.80705037E+02</pdfrwt>
<totfact> 0.20868744E+05</totfact>
</mgrwt>
</event>
<event>
 8    1  0.7667702E-014  0.7957469E+02  0.7818608E-02  0.1330263E+00
          2   -1    0    0  501    0  0.00000000000E+00  0.00000000000E+00  0.43301736769E+03  0.43301736770E+03  0.25500000000E-02 0. -1.
         -1   -1    0    0    0  501 -0.00000000000E+00 -0.00000000000E+00 -0.36558161309E+01  0.36558196051E+01  0.50400000000E-02 0.  1.
         24    2    1    2    0    0  0.00000000000E+00  0.00000000000E+00  0.42936155156E+03  0.43667318731E+03  0.79574685371E+02 0.  0.
         66    2    3    3    0    0 -0.19063264118E+02  0.29518331541E+02  0.31693350711E+03  0.31888177727E+03  0.20000018267E+01 0.  0.
        -13    1    3    3    0    0  0.19063264118E+02 -0.29518331541E+02  0.11242804445E+03  0.11779141004E+03  0.10566000000E+00 0.  1.
         13    1    4    4    0    0 -0.64394046638E+01  0.10759787422E+02  0.11856554754E+03  0.11922683920E+03  0.10566000000E+00 0. -1.
        -13    1    4    4    0    0 -0.23993921720E+01  0.38736899580E+01  0.43156684451E+02  0.43396694961E+02  0.10566000000E+00 0.  1.
        -14    1    4    4    0    0 -0.10224467282E+02  0.14884854161E+02  0.15521127512E+03  0.15625824311E+03  0.00000000000E+00 0.  1.
<mgrwt>
<rscale>  0 0.79574685E+02</rscale>
<asrwt>0</asrwt>
<pdfrwt beam="1">  1        2 0.66617985E-01 0.79574685E+02</pdfrwt>
<pdfrwt beam="2">  1       -1 0.56243413E-03 0.79574685E+02</pdfrwt>
<totfact> 0.29444884E+05</totfact>
</mgrwt>
</event>
<event>
 8    1  0.7667702E-014  0.7621418E+02  0.7818608E-02  0.1340152E+00
          2   -1    0    0  501    0  0.00000000000E+00  0.00000000000E+00  0.28197873920E+03  0.28197873921E+03  0.25500000000E-02 0. -1.
         -1   -1    0    0    0  501 -0.00000000000E+00 -0.00000000000E+00 -0.51498557490E+01  0.51498582152E+01  0.50400000000E-02 0.  1.
         24    2    1    2    0    0  0.00000000000E+00 -0.35527136788E-14  0.27682888345E+03  0.28712859742E+03  0.76214176814E+02 0.  0.
         66    2    3    3    0    0  0.97849496409E+01  0.30786572662E+02  0.21447517217E+03  0.21690356791E+03  0.20000000052E+01 0.  0.
        -13    1    3    3    0    0 -0.97849496409E+01 -0.30786572662E+02  0.62353711281E+02  0.70225029515E+02  0.10566000000E+00 0.  1.
         13    1    4    4    0    0  0.56747632624E+01  0.15258429100E+02  0.10435973417E+03  0.10562191002E+03  0.10566000000E+00 0. -1.
        -13    1    4    4    0    0  0.98008503839E+00  0.34440304841E+01  0.23630486723E+02  0.23900480737E+02  0.10566000000E+00 0. -1.
         14    1    4    4    0    0  0.31301013401E+01  0.12084113078E+02  0.86484951276E+02  0.87381177152E+02  0.00000000000E+00 0. -1.
<mgrwt>
<rscale>  0 0.76214177E+02</rscale>
<asrwt>0</asrwt>
<pdfrwt beam="1">  1        2 0.43381350E-01 0.76214177E+02</pdfrwt>
<pdfrwt beam="2">  1       -1 0.79228559E-03 0.76214177E+02</pdfrwt>
<totfact> 0.28301764E+05</totfact>
</mgrwt>
</event>
<event>
 8    1  0.7667702E-014  0.8224081E+02  0.7818608E-02  0.1322810E+00
         -1   -1    0    0    0  501 -0.00000000000E+00  0.00000000000E+00  0.24500471059E+01  0.24500522898E+01  0.50400000000E-02 0.  1.
          2   -1    0    0  501    0  0.00000000000E+00 -0.00000000000E+00 -0.69014418462E+03  0.69014418463E+03  0.25500000000E-02 0. -1.
         24    2    1    2    0    0 -0.71054273576E-14 -0.17763568394E-14 -0.68769413752E+03  0.69259423692E+03  0.82240806392E+02 0.  0.
         66    2    3    3    0    0  0.20814349441E+02  0.11428076649E+02 -0.62652247621E+03  0.62697547901E+03  0.20000004089E+01 0.  0.
        -13    1    3    3    0    0 -0.20814349441E+02 -0.11428076649E+02 -0.61171661305E+02  0.65618757908E+02  0.10566000000E+00 0.  1.
         13    1    4    4    0    0  0.77655145671E+01  0.50435702378E+01 -0.24260583351E+03  0.24278250026E+03  0.10566000000E+00 0. -1.
        -13    1    4    4    0    0  0.70297040005E+01  0.38911785736E+01 -0.22156906474E+03  0.22171472577E+03  0.10566000000E+00 0.  1.
        -14    1    4    4    0    0  0.60191308737E+01  0.24933278372E+01 -0.16234757796E+03  0.16247825298E+03  0.00000000000E+00 0.  1.
<mgrwt>
<rscale>  0 0.82240806E+02</rscale>
<asrwt>0</asrwt>
<pdfrwt beam="1">  1        2 0.10617587E+00 0.82240806E+02</pdfrwt>
<pdfrwt beam="2">  1       -1 0.37693127E-03 0.82240806E+02</pdfrwt>
<totfact> 0.31028456E+05</totfact>
</mgrwt>
</event>
<event>
 8    1  0.7667702E-014  0.7745360E+02  0.7818608E-02  0.1336437E+00
          2   -1    0    0  501    0  0.00000000000E+00  0.00000000000E+00  0.53793929303E+02  0.53793929363E+02  0.25500000000E-02 0. -1.
         -1   -1    0    0    0  501 -0.00000000000E+00 -0.00000000000E+00 -0.27879821890E+02  0.27879822346E+02  0.50400000000E-02 0.  1.
         24    2    1    2    0    0  0.17763568394E-14  0.00000000000E+00  0.25914107413E+02  0.81673751709E+02  0.77453603888E+02 0.  0.
         66    2    3    3    0    0  0.10907101956E+02 -0.99407240682E+01  0.50691778954E+02  0.52834073501E+02  0.20000002792E+01 0.  0.
        -13    1    3    3    0    0 -0.10907101956E+02  0.99407240682E+01 -0.24777671542E+02  0.28839678208E+02  0.10566000000E+00 0.  1.
         13    1    4    4    0    0  0.75921153734E+01 -0.72263382384E+01  0.32882507167E+02  0.34512760275E+02  0.10566000000E+00 0. -1.
        -13    1    4    4    0    0  0.34901099109E+00 -0.31327398684E+00  0.22681690044E+01  0.23185564325E+01  0.10566000000E+00 0. -1.
         14    1    4    4    0    0  0.29659755911E+01 -0.24011118430E+01  0.15541102783E+02  0.16002756794E+02  0.00000000000E+00 0. -1.
<mgrwt>
<rscale>  0 0.77453604E+02</rscale>
<asrwt>0</asrwt>
<pdfrwt beam="1">  1        2 0.82759891E-02 0.77453604E+02</pdfrwt>
<pdfrwt beam="2">  1       -1 0.42892035E-02 0.77453604E+02</pdfrwt>
<totfact> 0.16585191E+05</totfact>
</mgrwt>
</event>
<event>
 8    1  0.7667702E-014  0.8074035E+02  0.7818608E-02  0.1326963E+00
         -1   -1    0    0    0  501 -0.00000000000E+00  0.00000000000E+00  0.17048853834E+02  0.17048854579E+02  0.50400000000E-02 0.  1.
          2   -1    0    0  501    0  0.00000000000E+00 -0.00000000000E+00 -0.95593004510E+02  0.95593004544E+02  0.25500000000E-02 0. -1.
         24    2    1    2    0    0  0.00000000000E+00  0.00000000000E+00 -0.78544150676E+02  0.11264185912E+03  0.80740354355E+02 0.  0.
         66    2    3    3    0    0  0.43327221312E+01  0.34873437395E+02 -0.66946692356E+02  0.75635895815E+02  0.20000003865E+01 0.  0.
        -13    1    3    3    0    0 -0.43327221312E+01 -0.34873437395E+02 -0.11597458320E+02  0.37005963308E+02  0.10566000000E+00 0.  1.
         13    1    4    4    0    0  0.45937251527E+00  0.27968117851E+01 -0.53535334027E+01  0.60584373561E+01  0.10566000000E+00 0.  1.
        -13    1    4    4    0    0  0.72837293554E+00  0.94438276566E+01 -0.19643568898E+02  0.21808195043E+02  0.10566000000E+00 0.  1.
         14    1    4    4    0    0  0.31449766804E+01  0.22632797954E+02 -0.41949590055E+02  0.47769263416E+02  0.00000000000E+00 0. -1.
<mgrwt>
<rscale>  0 0.80740354E+02</rscale>
<asrwt>0</asrwt>
<pdfrwt beam="1">  1        2 0.14706616E-01 0.80740354E+02</pdfrwt>
<pdfrwt beam="2">  1       -1 0.26229007E-02 0.80740354E+02</pdfrwt>
<totfact> 0.17078070E+05</totfact>
</mgrwt>
</event>
<event>
 8    1  0.7667702E-014  0.7803784E+02  0.7818608E-02  0.1334714E+00
          2   -1    0    0  501    0  0.00000000000E+00  0.00000000000E+00  0.36582781780E+03  0.36582781781E+03  0.25500000000E-02 0. -1.
         -1   -1    0    0    0  501 -0.00000000000E+00 -0.00000000000E+00 -0.41617276201E+01  0.41617306719E+01  0.50400000000E-02 0.  1.
         24    2    1    2    0    0  0.00000000000E+00 -0.16653345369E-15  0.36166609018E+03  0.36998954848E+03  0.78037844658E+02 0.  0.
         66    2    3    3    0    0  0.28423633797E+02 -0.43980859467E+00  0.30749460387E+03  0.30881228568E+03  0.19999980911E+01 0.  0.
        -13    1    3    3    0    0 -0.28423633797E+02  0.43980859467E+00  0.54171486310E+02  0.61177262793E+02  0.10566000000E+00 0.  1.
         13    1    4    4    0    0  0.12852522680E+02  0.56420385235E+00  0.13784103265E+03  0.13844012104E+03  0.10566000000E+00 0. -1.
        -13    1    4    4    0    0  0.15302229739E+02 -0.10652126494E+01  0.16751912423E+03  0.16821997819E+03  0.10566000000E+00 0.  1.
        -14    1    4    4    0    0  0.26888137800E+00  0.61200202378E-01  0.21344469793E+01  0.21521864621E+01  0.00000000000E+00 0.  1.
<mgrwt>
<rscale>  0 0.78037845E+02</rscale>
<asrwt>0</asrwt>
<pdfrwt beam="1">  1        2 0.56281211E-01 0.78037845E+02</pdfrwt>
<pdfrwt beam="2">  1       -1 0.64026593E-03 0.78037845E+02</pdfrwt>
<totfact> 0.29211512E+05</totfact>
</mgrwt>
</event>
<event>
 8    1  0.7667702E-014  0.8114356E+02  0.7818608E-02  0.1325837E+00
          2   -1    0    0  501    0  0.00000000000E+00  0.00000000000E+00  0.73264770850E+02  0.73264770894E+02  0.25500000000E-02 0. -1.
         -1   -1    0    0    0  501 -0.00000000000E+00 -0.00000000000E+00 -0.22467407860E+02  0.22467408425E+02  0.50400000000E-02 0.  1.
         24    2    1    2    0    0  0.00000000000E+00 -0.44408920985E-15  0.50797362990E+02  0.95732179319E+02  0.81143564566E+02 0.  0.
         66    2    3    3    0    0  0.20358297224E+02 -0.24284118344E+01  0.66684841206E+02  0.69794165170E+02  0.19999988004E+01 0.  0.
        -13    1    3    3    0    0 -0.20358297224E+02  0.24284118344E+01 -0.15887478216E+02  0.25938014149E+02  0.10566000000E+00 0.  1.
         13    1    4    4    0    0  0.20481546294E+01 -0.69099211574E+00  0.63908147023E+01  0.67473019856E+01  0.10566000000E+00 0.  1.
        -13    1    4    4    0    0  0.75190709512E+01 -0.11198762222E+01  0.23650996282E+02  0.24842933400E+02  0.10566000000E+00 0. -1.
         14    1    4    4    0    0  0.10791071644E+02 -0.61754349650E+00  0.36643030221E+02  0.38203929785E+02  0.00000000000E+00 0. -1.
<mgrwt>
<rscale>  0 0.81143565E+02</rscale>
<asrwt>0</asrwt>
<pdfrwt beam="1">  1        2 0.11271503E-01 0.81143565E+02</pdfrwt>
<pdfrwt beam="2">  1       -1 0.34565243E-02 0.81143565E+02</pdfrwt>
<totfact> 0.15713676E+05</totfact>
</mgrwt>
</event>
<event>
 8    1  0.7667702E-014  0.8222325E+02  0.7818608E-02  0.1322858E+00
         -1   -1    0    0    0  501 -0.00000000000E+00  0.00000000000E+00  0.27273225905E+01  0.27273272473E+01  0.50400000000E-02 0.  1.
          2   -1    0    0  501    0  0.00000000000E+00 -0.00000000000E+00 -0.61971552018E+03  0.61971552019E+03  0.25500000000E-02 0. -1.
         24    2    1    2    0    0 -0.17763568394E-14 -0.35527136788E-14 -0.61698819759E+03  0.62244284743E+03  0.82223247049E+02 0.  0.
         66    2    3    3    0    0  0.12544414355E+02  0.17734373296E+02 -0.57268799450E+03  0.57310331475E+03  0.20000007348E+01 0.  0.
        -13    1    3    3    0    0 -0.12544414355E+02 -0.17734373296E+02 -0.44300203088E+02  0.49339532683E+02  0.10566000000E+00 0.  1.
         13    1    4    4    0    0  0.82703540829E+01  0.10201424432E+02 -0.33964050326E+03  0.33989432245E+03  0.10566000000E+00 0. -1.
        -13    1    4    4    0    0  0.15187039729E+00  0.33678240552E+00 -0.10605868302E+02  0.10612826837E+02  0.10566000000E+00 0. -1.
         14    1    4    4    0    0  0.41221898745E+01  0.71961664590E+01 -0.22244162294E+03  0.22259616546E+03  0.00000000000E+00 0. -1.
<mgrwt>
<rscale>  0 0.82223247E+02</rscale>
<asrwt>0</asrwt>
<pdfrwt beam="1">  1        2 0.95340738E-01 0.82223247E+02</pdfrwt>
<pdfrwt beam="2">  1       -1 0.41958894E-03 0.82223247E+02</pdfrwt>
<totfact> 0.30213053E+05</totfact>
</mgrwt>
</event>
<event>
 8    1  0.8630612E-014  0.8029295E+02  0.7818608E-02  0.1328222E+00
          2   -1    0    0  501    0  0.00000000000E+00  0.00000000000E+00  0.12889508379E+03  0.12889508382E+03  0.25500000000E-02 0. -1.
         -1   -1    0    0    0  501 -0.00000000000E+00 -0.00000000000E+00 -0.12504274698E+02  0.12504275713E+02  0.50400000000E-02 0.  1.
         24    2    1    2    0    0  0.55511151231E-16  0.00000000000E+00  0.11639080909E+03  0.14139935953E+03  0.80292953825E+02 0.  0.
         66    2    3    3    0    0 -0.37464136660E+00 -0.23474648367E+02  0.11552719328E+03  0.11790560571E+03  0.19999997782E+01 0.  0.
        -13    1    3    3    0    0  0.37464136660E+00  0.23474648367E+02  0.86361581271E+00  0.23493753817E+02  0.10566000000E+00 0.  1.
         13    1    4    4    0    0 -0.27556871664E+00 -0.99526910243E+01  0.49703676357E+02  0.50691208352E+02  0.10566000000E+00 0. -1.
        -13    1    4    4    0    0 -0.62010724264E+00 -0.10382893640E+02  0.51860244147E+02  0.52893147952E+02  0.10566000000E+00 0.  1.
        -14    1    4    4    0    0  0.52103459268E+00 -0.31390637027E+01  0.13963272777E+02  0.14321249409E+02  0.00000000000E+00 0.  1.
<mgrwt>
<rscale>  0 0.80292954E+02</rscale>
<asrwt>0</asrwt>
<pdfrwt beam="1">  1        2 0.19830013E-01 0.80292954E+02</pdfrwt>
<pdfrwt beam="2">  1       -1 0.19237347E-02 0.80292954E+02</pdfrwt>
<totfact> 0.18911370E+05</totfact>
</mgrwt>
</event>
<event>
 8    1  0.7667702E-014  0.7975047E+02  0.7818608E-02  0.1329761E+00
          2   -1    0    0  501    0  0.00000000000E+00  0.00000000000E+00  0.83251183879E+01  0.83251187784E+01  0.25500000000E-02 0. -1.
         -1   -1    0    0    0  501 -0.00000000000E+00 -0.00000000000E+00 -0.19099238098E+03  0.19099238104E+03  0.50400000000E-02 0.  1.
         24    2    1    2    0    0  0.17763568394E-14  0.71054273576E-14 -0.18266726259E+03  0.19931749982E+03  0.79750466540E+02 0.  0.
         66    2    3    3    0    0 -0.71431436185E+01 -0.37906595153E+02 -0.66386422833E+02  0.76805544017E+02  0.19999995494E+01 0.  0.
        -13    1    3    3    0    0  0.71431436185E+01  0.37906595153E+02 -0.11628083975E+03  0.12251195580E+03  0.10566000000E+00 0.  1.
         13    1    4    4    0    0 -0.34105807883E+01 -0.18091707126E+02 -0.30269848393E+02  0.35429039132E+02  0.10566000000E+00 0. -1.
        -13    1    4    4    0    0 -0.13782799778E+01 -0.78453777298E+01 -0.13286079657E+02  0.15491309955E+02  0.10566000000E+00 0.  1.
        -14    1    4    4    0    0 -0.23542828523E+01 -0.11969510298E+02 -0.22830494783E+02  0.25885194930E+02  0.00000000000E+00 0.  1.
<mgrwt>
<rscale>  0 0.79750467E+02</rscale>
<asrwt>0</asrwt>
<pdfrwt beam="1">  1        2 0.12807876E-02 0.79750467E+02</pdfrwt>
<pdfrwt beam="2">  1       -1 0.29383440E-01 0.79750467E+02</pdfrwt>
<totfact> 0.10178732E+05</totfact>
</mgrwt>
</event>
<event>
 8    1  0.7667702E-014  0.8071191E+02  0.7818608E-02  0.1327043E+00
         -1   -1    0    0    0  501 -0.00000000000E+00  0.00000000000E+00  0.17847038183E+02  0.17847038895E+02  0.50400000000E-02 0.  1.
          2   -1    0    0  501    0  0.00000000000E+00 -0.00000000000E+00 -0.91253415299E+02  0.91253415335E+02  0.25500000000E-02 0. -1.
         24    2    1    2    0    0 -0.35527136788E-14  0.35527136788E-14 -0.73406377116E+02  0.10910045423E+03  0.80711913072E+02 0.  0.
         66    2    3    3    0    0 -0.24245235212E+02  0.18834884712E+02 -0.72078265211E+02  0.78370023744E+02  0.19999983152E+01 0.  0.
        -13    1    3    3    0    0  0.24245235212E+02 -0.18834884712E+02 -0.13281119055E+01  0.30730430486E+02  0.10566000000E+00 0.  1.
         13    1    4    4    0    0 -0.71958617510E+01  0.62191590213E+01 -0.22548421301E+02  0.24472450480E+02  0.10566000000E+00 0. -1.
        -13    1    4    4    0    0 -0.57062805507E+00  0.54285211763E+00 -0.24852108304E+01  0.26091649442E+01  0.10566000000E+00 0.  1.
        -14    1    4    4    0    0 -0.16478745405E+02  0.12072873573E+02 -0.47044633079E+02  0.51288408320E+02  0.00000000000E+00 0.  1.
<mgrwt>
<rscale>  0 0.80711913E+02</rscale>
<asrwt>0</asrwt>
<pdfrwt beam="1">  1        2 0.14038987E-01 0.80711913E+02</pdfrwt>
<pdfrwt beam="2">  1       -1 0.27456983E-02 0.80711913E+02</pdfrwt>
<totfact> 0.16878463E+05</totfact>
</mgrwt>
</event>
<event>
 8    1  0.7667702E-014  0.8042776E+02  0.7818608E-02  0.1327842E+00
         -1   -1    0    0    0  501 -0.00000000000E+00  0.00000000000E+00  0.78053365236E+02  0.78053365399E+02  0.50400000000E-02 0.  1.
          2   -1    0    0  501    0  0.00000000000E+00 -0.00000000000E+00 -0.20718596057E+02  0.20718596214E+02  0.25500000000E-02 0. -1.
         24    2    1    2    0    0  0.00000000000E+00  0.00000000000E+00  0.57334769179E+02  0.98771961613E+02  0.80427760407E+02 0.  0.
         66    2    3    3    0    0  0.24846892214E+02 -0.17619115729E+02 -0.35120293776E+01  0.30726790217E+02  0.19999987347E+01 0.  0.
        -13    1    3    3    0    0 -0.24846892214E+02  0.17619115729E+02  0.60846798557E+02  0.68045171396E+02  0.10566000000E+00 0.  1.
         13    1    4    4    0    0  0.50382517087E+01 -0.38091512893E+01 -0.14872662152E-01  0.63170403716E+01  0.10566000000E+00 0. -1.
        -13    1    4    4    0    0  0.36573032477E+01 -0.24949760568E+01 -0.89982238172E+00  0.45190283163E+01  0.10566000000E+00 0.  1.
         14    1    4    4    0    0  0.16151337257E+02 -0.11314988383E+02 -0.25973343338E+01  0.19890721529E+02  0.00000000000E+00 0. -1.
<mgrwt>
<rscale>  0 0.80427760E+02</rscale>
<asrwt>0</asrwt>
<pdfrwt beam="1">  1        2 0.31874763E-02 0.80427760E+02</pdfrwt>
<pdfrwt beam="2">  1       -1 0.12008210E-01 0.80427760E+02</pdfrwt>
<totfact> 0.12314724E+05</totfact>
</mgrwt>
</event>
<event>
 8    1  0.7667702E-014  0.7783498E+02  0.7818608E-02  0.1335310E+00
          2   -1    0    0  501    0  0.00000000000E+00  0.00000000000E+00  0.11832867536E+03  0.11832867539E+03  0.25500000000E-02 0. -1.
         -1   -1    0    0    0  501 -0.00000000000E+00 -0.00000000000E+00 -0.12799694984E+02  0.12799695976E+02  0.50400000000E-02 0.  1.
         24    2    1    2    0    0  0.00000000000E+00  0.00000000000E+00  0.10552898037E+03  0.13112837136E+03  0.77834979779E+02 0.  0.
         66    2    3    3    0    0  0.34694961339E+02  0.16466848761E+02  0.63139023596E+02  0.73928571973E+02  0.20000007303E+01 0.  0.
        -13    1    3    3    0    0 -0.34694961339E+02 -0.16466848761E+02  0.42389956778E+02  0.57199799388E+02  0.10566000000E+00 0.  1.
         13    1    4    4    0    0  0.14219616914E+02  0.65787179848E+01  0.25207414487E+02  0.29679992329E+02  0.10566000000E+00 0. -1.
        -13    1    4    4    0    0  0.12795725853E+02  0.67588934522E+01  0.23207318058E+02  0.27349662087E+02  0.10566000000E+00 0.  1.
        -14    1    4    4    0    0  0.76796185721E+01  0.31292373239E+01  0.14724291051E+02  0.16898917557E+02  0.00000000000E+00 0.  1.
<mgrwt>
<rscale>  0 0.77834980E+02</rscale>
<asrwt>0</asrwt>
<pdfrwt beam="1">  1        2 0.18204411E-01 0.77834980E+02</pdfrwt>
<pdfrwt beam="2">  1       -1 0.19691840E-02 0.77834980E+02</pdfrwt>
<totfact> 0.20019225E+05</totfact>
</mgrwt>
</event>
<event>
 8    1  0.7667702E-014  0.7292810E+02  0.7818608E-02  0.1350410E+00
         -1   -1    0    0    0  501 -0.00000000000E+00  0.00000000000E+00  0.22892138406E+03  0.22892138411E+03  0.50400000000E-02 0.  1.
          2   -1    0    0  501    0  0.00000000000E+00 -0.00000000000E+00 -0.58082245501E+01  0.58082251099E+01  0.25500000000E-02 0. -1.
         24    2    1    2    0    0  0.00000000000E+00  0.00000000000E+00  0.22311315951E+03  0.23472960922E+03  0.72928098155E+02 0.  0.
         66    2    3    3    0    0 -0.22690839531E+02  0.27717642459E+02  0.90174002036E+02  0.97048918291E+02  0.19999990551E+01 0.  0.
        -13    1    3    3    0    0  0.22690839531E+02 -0.27717642459E+02  0.13293915747E+03  0.13768069093E+03  0.10566000000E+00 0.  1.
         13    1    4    4    0    0 -0.53879127384E+01  0.79018124113E+01  0.24201592633E+02  0.26022999310E+02  0.10566000000E+00 0. -1.
        -13    1    4    4    0    0 -0.48029546628E+01  0.52260722119E+01  0.17514028545E+02  0.18897951322E+02  0.10566000000E+00 0.  1.
         14    1    4    4    0    0 -0.12499972130E+02  0.14589757836E+02  0.48458380857E+02  0.52127967659E+02  0.00000000000E+00 0. -1.
<mgrwt>
<rscale>  0 0.72928098E+02</rscale>
<asrwt>0</asrwt>
<pdfrwt beam="1">  1        2 0.89357312E-03 0.72928098E+02</pdfrwt>
<pdfrwt beam="2">  1       -1 0.35218672E-01 0.72928098E+02</pdfrwt>
<totfact> 0.12078793E+05</totfact>
</mgrwt>
</event>
<event>
 8    1  0.7667702E-014  0.7930124E+02  0.7818608E-02  0.1331046E+00
          2   -1    0    0  501    0  0.00000000000E+00  0.00000000000E+00  0.23654230255E+02  0.23654230393E+02  0.25500000000E-02 0. -1.
         -1   -1    0    0    0  501 -0.00000000000E+00 -0.00000000000E+00 -0.66464708436E+02  0.66464708627E+02  0.50400000000E-02 0.  1.
         24    2    1    2    0    0  0.00000000000E+00  0.35527136788E-14 -0.42810478181E+02  0.90118939020E+02  0.79301236611E+02 0.  0.
         66    2    3    3    0    0  0.13839896151E+02  0.20867071262E+02  0.13481994675E+02  0.28508622896E+02  0.20000026173E+01 0.  0.
        -13    1    3    3    0    0 -0.13839896151E+02 -0.20867071262E+02 -0.56292472856E+02  0.61610316124E+02  0.10566000000E+00 0.  1.
         13    1    4    4    0    0  0.18704178806E+01  0.29466749056E+01  0.24997433656E+01  0.42943261377E+01  0.10566000000E+00 0. -1.
        -13    1    4    4    0    0  0.49629028004E+01  0.71521582066E+01  0.38390442716E+01  0.95148933873E+01  0.10566000000E+00 0.  1.
        -14    1    4    4    0    0  0.70065754705E+01  0.10768238150E+02  0.71432070381E+01  0.14699403371E+02  0.00000000000E+00 0.  1.
<mgrwt>
<rscale>  0 0.79301237E+02</rscale>
<asrwt>0</asrwt>
<pdfrwt beam="1">  1        2 0.36391124E-02 0.79301237E+02</pdfrwt>
<pdfrwt beam="2">  1       -1 0.10225340E-01 0.79301237E+02</pdfrwt>
<totfact> 0.13162960E+05</totfact>
</mgrwt>
</event>
<event>
 8    1  0.7667702E-014  0.7953862E+02  0.7818608E-02  0.1330366E+00
          2   -1    0    0  501    0  0.00000000000E+00  0.00000000000E+00  0.73703480008E+02  0.73703480052E+02  0.25500000000E-02 0. -1.
         -1   -1    0    0    0  501 -0.00000000000E+00 -0.00000000000E+00 -0.21458930471E+02  0.21458931063E+02  0.50400000000E-02 0.  1.
         24    2    1    2    0    0  0.35527136788E-14  0.00000000000E+00  0.52244549537E+02  0.95162411114E+02  0.79538616614E+02 0.  0.
         66    2    3    3    0    0 -0.18296198187E+02 -0.18037836167E+02  0.62417986652E+02  0.67528656602E+02  0.20000007712E+01 0.  0.
        -13    1    3    3    0    0  0.18296198187E+02  0.18037836167E+02 -0.10173437115E+02  0.27633754513E+02  0.10566000000E+00 0.  1.
         13    1    4    4    0    0 -0.63494109635E+01 -0.64755553373E+01  0.19660937717E+02  0.21652054694E+02  0.10566000000E+00 0. -1.
        -13    1    4    4    0    0 -0.78424379327E+01 -0.77613287801E+01  0.28405039206E+02  0.30472930176E+02  0.10566000000E+00 0.  1.
         14    1    4    4    0    0 -0.41043492909E+01 -0.38009520497E+01  0.14352009729E+02  0.15403671732E+02  0.00000000000E+00 0. -1.
<mgrwt>
<rscale>  0 0.79538617E+02</rscale>
<asrwt>0</asrwt>
<pdfrwt beam="1">  1        2 0.11338997E-01 0.79538617E+02</pdfrwt>
<pdfrwt beam="2">  1       -1 0.33013740E-02 0.79538617E+02</pdfrwt>
<totfact> 0.16610614E+05</totfact>
</mgrwt>
</event>
<event>
 8    1  0.7667702E-014  0.7924169E+02  0.7818608E-02  0.1331217E+00
          2   -1    0    0  501    0  0.00000000000E+00  0.00000000000E+00  0.30920511810E+02  0.30920511916E+02  0.25500000000E-02 0. -1.
         -1   -1    0    0    0  501 -0.00000000000E+00 -0.00000000000E+00 -0.50769249590E+02  0.50769249841E+02  0.50400000000E-02 0.  1.
         24    2    1    2    0    0  0.00000000000E+00  0.00000000000E+00 -0.19848737780E+02  0.81689761756E+02  0.79241685900E+02 0.  0.
         66    2    3    3    0    0 -0.10577190592E+01 -0.36522684004E+02  0.57978414878E+01  0.37049159065E+02  0.20000012485E+01 0.  0.
        -13    1    3    3    0    0  0.10577190592E+01  0.36522684004E+02 -0.25646579268E+02  0.44640602691E+02  0.10566000000E+00 0.  1.
         13    1    4    4    0    0 -0.63617303977E+00 -0.77598483835E+01  0.15112006754E+01  0.79318884630E+01  0.10566000000E+00 0. -1.
        -13    1    4    4    0    0 -0.77920663807E-01 -0.11325135783E+02  0.10076759036E+01  0.11370635290E+02  0.10566000000E+00 0.  1.
         14    1    4    4    0    0 -0.34362535565E+00 -0.17437699837E+02  0.32789649087E+01  0.17746635311E+02  0.00000000000E+00 0. -1.
<mgrwt>
<rscale>  0 0.79241686E+02</rscale>
<asrwt>0</asrwt>
<pdfrwt beam="1">  1        2 0.47570018E-02 0.79241686E+02</pdfrwt>
<pdfrwt beam="2">  1       -1 0.78106538E-02 0.79241686E+02</pdfrwt>
<totfact> 0.13901145E+05</totfact>
</mgrwt>
</event>
<event>
 8    1  0.7667702E-014  0.8084740E+02  0.7818608E-02  0.1326664E+00
         -1   -1    0    0    0  501 -0.00000000000E+00  0.00000000000E+00  0.13703219688E+03  0.13703219697E+03  0.50400000000E-02 0.  1.
          2   -1    0    0  501    0  0.00000000000E+00 -0.00000000000E+00 -0.11924755859E+02  0.11924756132E+02  0.25500000000E-02 0. -1.
         24    2    1    2    0    0  0.00000000000E+00  0.71054273576E-14  0.12510744102E+03  0.14895695310E+03  0.80847399953E+02 0.  0.
         66    2    3    3    0    0  0.15492080559E+02  0.35310347001E+02  0.84796644465E+02  0.93173473036E+02  0.19999999459E+01 0.  0.
        -13    1    3    3    0    0 -0.15492080559E+02 -0.35310347001E+02  0.40310796553E+02  0.55783480065E+02  0.10566000000E+00 0.  1.
         13    1    4    4    0    0  0.24381538227E+01  0.62649542297E+01  0.16004491737E+02  0.17359411435E+02  0.10566000000E+00 0.  1.
        -13    1    4    4    0    0  0.51711193155E+01  0.12022657210E+02  0.29538257772E+02  0.32307964925E+02  0.10566000000E+00 0. -1.
        -14    1    4    4    0    0  0.78828074212E+01  0.17022735561E+02  0.39253894956E+02  0.43506096677E+02  0.00000000000E+00 0.  1.
<mgrwt>
<rscale>  0 0.80847400E+02</rscale>
<asrwt>0</asrwt>
<pdfrwt beam="1">  1        2 0.18345779E-02 0.80847400E+02</pdfrwt>
<pdfrwt beam="2">  1       -1 0.21081875E-01 0.80847400E+02</pdfrwt>
<totfact> 0.10743825E+05</totfact>
</mgrwt>
</event>
<event>
 8    1  0.7667702E-014  0.7871057E+02  0.7818608E-02  0.1332751E+00
          2   -1    0    0  501    0  0.00000000000E+00  0.00000000000E+00  0.35360670086E+02  0.35360670178E+02  0.25500000000E-02 0. -1.
         -1   -1    0    0    0  501 -0.00000000000E+00 -0.00000000000E+00 -0.43801164791E+02  0.43801165081E+02  0.50400000000E-02 0.  1.
         24    2    1    2    0    0 -0.17763568394E-14  0.71054273576E-14 -0.84404947047E+01  0.79161835259E+02  0.78710572420E+02 0.  0.
         66    2    3    3    0    0  0.14125854591E+02 -0.30696909130E+02  0.16016866011E+02  0.37448364350E+02  0.19999994072E+01 0.  0.
        -13    1    3    3    0    0 -0.14125854591E+02  0.30696909130E+02 -0.24457360715E+02  0.41713470909E+02  0.10566000000E+00 0.  1.
         13    1    4    4    0    0  0.76579961091E+01 -0.16541029626E+02  0.92681858815E+01  0.20448985282E+02  0.10566000000E+00 0. -1.
        -13    1    4    4    0    0  0.26755541619E+01 -0.46814928948E+01  0.25180881919E+01  0.59520498969E+01  0.10566000000E+00 0.  1.
        -14    1    4    4    0    0  0.37923043201E+01 -0.94743866088E+01  0.42305919374E+01  0.11047329171E+02  0.00000000000E+00 0.  1.
<mgrwt>
<rscale>  0 0.78710572E+02</rscale>
<asrwt>0</asrwt>
<pdfrwt beam="1">  1        2 0.54401031E-02 0.78710572E+02</pdfrwt>
<pdfrwt beam="2">  1       -1 0.67386408E-02 0.78710572E+02</pdfrwt>
<totfact> 0.14544209E+05</totfact>
</mgrwt>
</event>
<event>
 8    1  0.7667702E-014  0.8167082E+02  0.7818608E-02  0.1324376E+00
         -1   -1    0    0    0  501 -0.00000000000E+00  0.00000000000E+00  0.65208469990E+01  0.65208489467E+01  0.50400000000E-02 0.  1.
          2   -1    0    0  501    0  0.00000000000E+00 -0.00000000000E+00 -0.25572296607E+03  0.25572296608E+03  0.25500000000E-02 0. -1.
         24    2    1    2    0    0  0.00000000000E+00 -0.17763568394E-14 -0.24920211907E+03  0.26224381503E+03  0.81670817136E+02 0.  0.
         66    2    3    3    0    0  0.93329709980E+01 -0.13801254390E+02 -0.24430134064E+03  0.24487695683E+03  0.19999943022E+01 0.  0.
        -13    1    3    3    0    0 -0.93329709980E+01  0.13801254390E+02 -0.49007784272E+01  0.17366858196E+02  0.10566000000E+00 0.  1.
         13    1    4    4    0    0  0.59500442107E+01 -0.74501820128E+01 -0.13604295710E+03  0.13637670468E+03  0.10566000000E+00 0. -1.
        -13    1    4    4    0    0  0.52943374301E+00 -0.71114280412E+00 -0.10600137866E+02  0.10637674134E+02  0.10566000000E+00 0.  1.
         14    1    4    4    0    0  0.28534930444E+01 -0.56399295727E+01 -0.97658245674E+02  0.97862578018E+02  0.00000000000E+00 0. -1.
<mgrwt>
<rscale>  0 0.81670817E+02</rscale>
<asrwt>0</asrwt>
<pdfrwt beam="1">  1        2 0.39341987E-01 0.81670817E+02</pdfrwt>
<pdfrwt beam="2">  1       -1 0.10032076E-02 0.81670817E+02</pdfrwt>
<totfact> 0.22789271E+05</totfact>
</mgrwt>
</event>
<event>
 8    1  0.7667702E-014  0.8006218E+02  0.7818608E-02  0.1328875E+00
          2   -1    0    0  501    0  0.00000000000E+00  0.00000000000E+00  0.27194995687E+03  0.27194995688E+03  0.25500000000E-02 0. -1.
         -1   -1    0    0    0  501 -0.00000000000E+00 -0.00000000000E+00 -0.58925836284E+01  0.58925857838E+01  0.50400000000E-02 0.  1.
         24    2    1    2    0    0  0.35527136788E-14 -0.35527136788E-14  0.26605737324E+03  0.27784254266E+03  0.80062179952E+02 0.  0.
         66    2    3    3    0    0 -0.28123375637E+02 -0.28387765363E+02  0.12644181151E+03  0.13262096809E+03  0.20000001483E+01 0.  0.
        -13    1    3    3    0    0  0.28123375637E+02  0.28387765363E+02  0.13961556173E+03  0.14522157457E+03  0.10566000000E+00 0.  1.
         13    1    4    4    0    0 -0.16928540389E+02 -0.17139369306E+02  0.75656026317E+02  0.79398859828E+02  0.10566000000E+00 0. -1.
        -13    1    4    4    0    0 -0.67008808502E+01 -0.75720726573E+01  0.32462148167E+02  0.34000592879E+02  0.10566000000E+00 0.  1.
        -14    1    4    4    0    0 -0.44939543979E+01 -0.36763233997E+01  0.18323637021E+02  0.19221515381E+02  0.00000000000E+00 0.  1.
<mgrwt>
<rscale>  0 0.80062180E+02</rscale>
<asrwt>0</asrwt>
<pdfrwt beam="1">  1        2 0.41838469E-01 0.80062180E+02</pdfrwt>
<pdfrwt beam="2">  1       -1 0.90655119E-03 0.80062180E+02</pdfrwt>
<totfact> 0.24553728E+05</totfact>
</mgrwt>
</event>
<event>
 8    1  0.7667702E-014  0.7944348E+02  0.7818608E-02  0.1330638E+00
          2   -1    0    0  501    0  0.00000000000E+00  0.00000000000E+00  0.16221026544E+03  0.16221026546E+03  0.25500000000E-02 0. -1.
         -1   -1    0    0    0  501 -0.00000000000E+00 -0.00000000000E+00 -0.97269825912E+01  0.97269838969E+01  0.50400000000E-02 0.  1.
         24    2    1    2    0    0 -0.35527136788E-14  0.00000000000E+00  0.15248328285E+03  0.17193724935E+03  0.79443477819E+02 0.  0.
         66    2    3    3    0    0  0.23648473528E+02  0.30046813141E+02  0.99372603045E+02  0.10649401630E+03  0.19999976888E+01 0.  0.
        -13    1    3    3    0    0 -0.23648473528E+02 -0.30046813141E+02  0.53110679801E+02  0.65443233058E+02  0.10566000000E+00 0.  1.
         13    1    4    4    0    0  0.10444755690E+02  0.12522861658E+02  0.41955601818E+02  0.45013316624E+02  0.10566000000E+00 0. -1.
        -13    1    4    4    0    0  0.12713305410E+02  0.17199446918E+02  0.55665267382E+02  0.59632895833E+02  0.10566000000E+00 0.  1.
         14    1    4    4    0    0  0.49041242773E+00  0.32450456433E+00  0.17517338452E+01  0.18478038386E+01  0.00000000000E+00 0. -1.
<mgrwt>
<rscale>  0 0.79443478E+02</rscale>
<asrwt>0</asrwt>
<pdfrwt beam="1">  1        2 0.24955426E-01 0.79443478E+02</pdfrwt>
<pdfrwt beam="2">  1       -1 0.14964589E-02 0.79443478E+02</pdfrwt>
<totfact> 0.20930751E+05</totfact>
</mgrwt>
</event>
<event>
 8    1  0.7667702E-014  0.8001034E+02  0.7818608E-02  0.1329022E+00
         -1   -1    0    0    0  501 -0.00000000000E+00  0.00000000000E+00  0.40163831322E+01  0.40163862945E+01  0.50400000000E-02 0.  1.
          2   -1    0    0  501    0  0.00000000000E+00 -0.00000000000E+00 -0.39847115369E+03  0.39847115370E+03  0.25500000000E-02 0. -1.
         24    2    1    2    0    0  0.88817841970E-15 -0.71054273576E-14 -0.39445477056E+03  0.40248753999E+03  0.80010335792E+02 0.  0.
         66    2    3    3    0    0 -0.40878316316E+01  0.22349905489E+02 -0.36283429937E+03  0.36355048816E+03  0.20000009206E+01 0.  0.
        -13    1    3    3    0    0  0.40878316316E+01 -0.22349905489E+02 -0.31620471190E+02  0.38937051829E+02  0.10566000000E+00 0.  1.
         13    1    4    4    0    0 -0.24390623859E+01  0.11443442348E+02 -0.18890442903E+03  0.18926646790E+03  0.10566000000E+00 0. -1.
        -13    1    4    4    0    0 -0.16444279692E+00  0.48440169068E+01 -0.71503888593E+02  0.71668045803E+02  0.10566000000E+00 0.  1.
        -14    1    4    4    0    0 -0.14843264488E+01  0.60624462334E+01 -0.10242598174E+03  0.10261597446E+03  0.00000000000E+00 0.  1.
<mgrwt>
<rscale>  0 0.80010336E+02</rscale>
<asrwt>0</asrwt>
<pdfrwt beam="1">  1        2 0.61303223E-01 0.80010336E+02</pdfrwt>
<pdfrwt beam="2">  1       -1 0.61790566E-03 0.80010336E+02</pdfrwt>
<totfact> 0.28206277E+05</totfact>
</mgrwt>
</event>
<event>
 8    1  0.7667702E-014  0.7315247E+02  0.7818608E-02  0.1349690E+00
         -1   -1    0    0    0  501 -0.00000000000E+00  0.00000000000E+00  0.55090210723E+02  0.55090210953E+02  0.50400000000E-02 0.  1.
          2   -1    0    0  501    0  0.00000000000E+00 -0.00000000000E+00 -0.24284187827E+02  0.24284187960E+02  0.25500000000E-02 0. -1.
         24    2    1    2    0    0  0.17763568394E-14  0.35527136788E-14  0.30806022896E+02  0.79374398914E+02  0.73152471976E+02 0.  0.
         66    2    3    3    0    0  0.70871522442E+01  0.25639664660E+02 -0.11781132967E+02  0.29161879166E+02  0.19999929281E+01 0.  0.
        -13    1    3    3    0    0 -0.70871522442E+01 -0.25639664660E+02  0.42587155864E+02  0.50212519748E+02  0.10566000000E+00 0.  1.
         13    1    4    4    0    0  0.34937539996E+01  0.11342935263E+02 -0.61519313638E+01  0.13368841421E+02  0.10566000000E+00 0. -1.
        -13    1    4    4    0    0  0.52711840582E+00  0.14085740927E+01 -0.59872454865E+00  0.16222114255E+01  0.10566000000E+00 0.  1.
         14    1    4    4    0    0  0.30662798388E+01  0.12888155304E+02 -0.50304770548E+01  0.14170826320E+02  0.00000000000E+00 0. -1.
<mgrwt>
<rscale>  0 0.73152472E+02</rscale>
<asrwt>0</asrwt>
<pdfrwt beam="1">  1        2 0.37360289E-02 0.73152472E+02</pdfrwt>
<pdfrwt beam="2">  1       -1 0.84754170E-02 0.73152472E+02</pdfrwt>
<totfact> 0.16597602E+05</totfact>
</mgrwt>
</event>
<event>
 8    1  0.7667702E-014  0.7799618E+02  0.7818608E-02  0.1334836E+00
          2   -1    0    0  501    0  0.00000000000E+00  0.00000000000E+00  0.35594076482E+02  0.35594076573E+02  0.25500000000E-02 0. -1.
         -1   -1    0    0    0  501 -0.00000000000E+00 -0.00000000000E+00 -0.42727639082E+02  0.42727639379E+02  0.50400000000E-02 0.  1.
         24    2    1    2    0    0  0.35527136788E-14  0.00000000000E+00 -0.71335625995E+01  0.78321715952E+02  0.77996176024E+02 0.  0.
         66    2    3    3    0    0  0.27075424791E+02  0.13475966395E+02  0.21113252146E+02  0.36938458405E+02  0.19999988162E+01 0.  0.
        -13    1    3    3    0    0 -0.27075424791E+02 -0.13475966395E+02 -0.28246814746E+02  0.41383257547E+02  0.10566000000E+00 0.  1.
         13    1    4    4    0    0  0.54285352958E+01  0.21270218047E+01  0.40347000887E+01  0.70910638170E+01  0.10566000000E+00 0. -1.
        -13    1    4    4    0    0  0.20974345931E+02  0.10743947281E+02  0.16302524598E+02  0.28655524122E+02  0.10566000000E+00 0.  1.
        -14    1    4    4    0    0  0.67254356449E+00  0.60499730898E+00  0.77602745943E+00  0.11918704660E+01  0.00000000000E+00 0.  1.
<mgrwt>
<rscale>  0 0.77996176E+02</rscale>
<asrwt>0</asrwt>
<pdfrwt beam="1">  1        2 0.54760118E-02 0.77996176E+02</pdfrwt>
<pdfrwt beam="2">  1       -1 0.65734830E-02 0.77996176E+02</pdfrwt>
<totfact> 0.14935775E+05</totfact>
</mgrwt>
</event>
<event>
 8    1  0.7667702E-014  0.7922934E+02  0.7818608E-02  0.1331253E+00
          2   -1    0    0  501    0  0.00000000000E+00  0.00000000000E+00  0.74816303013E+02  0.74816303057E+02  0.25500000000E-02 0. -1.
         -1   -1    0    0    0  501 -0.00000000000E+00 -0.00000000000E+00 -0.20975667453E+02  0.20975668058E+02  0.50400000000E-02 0.  1.
         24    2    1    2    0    0  0.00000000000E+00 -0.17763568394E-14  0.53840635560E+02  0.95791971115E+02  0.79229336060E+02 0.  0.
         66    2    3    3    0    0 -0.36496883045E+02  0.15320849969E+02  0.27847072293E+02  0.48437695584E+02  0.20000006044E+01 0.  0.
        -13    1    3    3    0    0  0.36496883045E+02 -0.15320849969E+02  0.25993563267E+02  0.47354275531E+02  0.10566000000E+00 0.  1.
         13    1    4    4    0    0 -0.24486259290E+02  0.10126976766E+02  0.18699603969E+02  0.32431757662E+02  0.10566000000E+00 0. -1.
        -13    1    4    4    0    0 -0.80952875392E+01  0.40625139029E+01  0.63931467988E+01  0.11086982889E+02  0.10566000000E+00 0.  1.
         14    1    4    4    0    0 -0.39153362155E+01  0.11313592996E+01  0.27543215259E+01  0.49189550326E+01  0.00000000000E+00 0. -1.
<mgrwt>
<rscale>  0 0.79229336E+02</rscale>
<asrwt>0</asrwt>
<pdfrwt beam="1">  1        2 0.11510200E-01 0.79229336E+02</pdfrwt>
<pdfrwt beam="2">  1       -1 0.32270259E-02 0.79229336E+02</pdfrwt>
<totfact> 0.16848987E+05</totfact>
</mgrwt>
</event>
<event>
 8    1  0.7667702E-014  0.7971083E+02  0.7818608E-02  0.1329874E+00
         -1   -1    0    0    0  501 -0.00000000000E+00  0.00000000000E+00  0.59873772518E+00  0.59875893743E+00  0.50400000000E-02 0.  1.
          2   -1    0    0  501    0  0.00000000000E+00 -0.00000000000E+00 -0.26529577340E+04  0.26529577340E+04  0.25500000000E-02 0. -1.
         24    2    1    2    0    0 -0.22204460493E-15  0.00000000000E+00 -0.26523589963E+04  0.26535564929E+04  0.79710827978E+02 0.  0.
         66    2    3    3    0    0  0.15620617273E+01  0.11086563254E+02 -0.25994908794E+04  0.25995157595E+04  0.20000075667E+01 0.  0.
        -13    1    3    3    0    0 -0.15620617273E+01 -0.11086563254E+02 -0.52868116885E+02  0.54040733421E+02  0.10566000000E+00 0.  1.
         13    1    4    4    0    0  0.60971269274E+00  0.54384735887E+01 -0.13508381002E+04  0.13508491895E+04  0.10566000000E+00 0. -1.
        -13    1    4    4    0    0 -0.11762662057E+00  0.11692711321E+01 -0.35053597234E+03  0.35053795815E+03  0.10566000000E+00 0.  1.
         14    1    4    4    0    0  0.10699756551E+01  0.44788185335E+01 -0.89811680690E+03  0.89812861189E+03  0.00000000000E+00 0. -1.
<mgrwt>
<rscale>  0 0.79710828E+02</rscale>
<asrwt>0</asrwt>
<pdfrwt beam="1">  1        2 0.40813793E+00 0.79710828E+02</pdfrwt>
<pdfrwt beam="2">  1       -1 0.92117252E-04 0.79710828E+02</pdfrwt>
<totfact> 0.19087994E+05</totfact>
</mgrwt>
</event>
<event>
 8    1  0.7667702E-014  0.7936960E+02  0.7818608E-02  0.1330850E+00
         -1   -1    0    0    0  501 -0.00000000000E+00  0.00000000000E+00  0.39872376422E+02  0.39872376740E+02  0.50400000000E-02 0.  1.
          2   -1    0    0  501    0  0.00000000000E+00 -0.00000000000E+00 -0.39498104723E+02  0.39498104805E+02  0.25500000000E-02 0. -1.
         24    2    1    2    0    0  0.00000000000E+00 -0.44408920985E-15  0.37427169874E+00  0.79370481546E+02  0.79369599101E+02 0.  0.
         66    2    3    3    0    0 -0.35861426585E+02 -0.37712778794E+01 -0.16323953072E+02  0.39632510685E+02  0.20000014478E+01 0.  0.
        -13    1    3    3    0    0  0.35861426585E+02  0.37712778794E+01  0.16698224771E+02  0.39737970860E+02  0.10566000000E+00 0.  1.
         13    1    4    4    0    0 -0.45128165561E+01 -0.37374995988E+00 -0.18202167848E+01  0.48815525687E+01  0.10566000000E+00 0. -1.
        -13    1    4    4    0    0 -0.73775307394E+01 -0.75571673919E+00 -0.26227934078E+01  0.78669738081E+01  0.10566000000E+00 0.  1.
         14    1    4    4    0    0 -0.23971079289E+02 -0.26418111804E+01 -0.11880942879E+02  0.26883984309E+02  0.00000000000E+00 0. -1.
<mgrwt>
<rscale>  0 0.79369599E+02</rscale>
<asrwt>0</asrwt>
<pdfrwt beam="1">  1        2 0.60766315E-02 0.79369599E+02</pdfrwt>
<pdfrwt beam="2">  1       -1 0.61342118E-02 0.79369599E+02</pdfrwt>
<totfact> 0.14532728E+05</totfact>
</mgrwt>
</event>
<event>
 8    1  0.7667702E-014  0.8151088E+02  0.7818608E-02  0.1324818E+00
         -1   -1    0    0    0  501 -0.00000000000E+00  0.00000000000E+00  0.13167407165E+01  0.13167503621E+01  0.50400000000E-02 0.  1.
          2   -1    0    0  501    0  0.00000000000E+00 -0.00000000000E+00 -0.12614478924E+04  0.12614478924E+04  0.25500000000E-02 0. -1.
         24    2    1    2    0    0 -0.35527136788E-14  0.00000000000E+00 -0.12601311517E+04  0.12627646428E+04  0.81510880092E+02 0.  0.
         66    2    3    3    0    0 -0.24830000255E+02  0.11674309463E+02 -0.10967967275E+04  0.10971416863E+04  0.19999985309E+01 0.  0.
        -13    1    3    3    0    0  0.24830000255E+02 -0.11674309463E+02 -0.16333442425E+03  0.16562295651E+03  0.10566000000E+00 0.  1.
         13    1    4    4    0    0 -0.10964763286E+02  0.55327536456E+01 -0.47756137756E+03  0.47771928776E+03  0.10566000000E+00 0. -1.
        -13    1    4    4    0    0 -0.31425934186E+01  0.93775769023E+00 -0.12063754210E+03  0.12068215697E+03  0.10566000000E+00 0.  1.
        -14    1    4    4    0    0 -0.10722643550E+02  0.52037981271E+01 -0.49859780779E+03  0.49874024155E+03  0.00000000000E+00 0.  1.
<mgrwt>
<rscale>  0 0.81510880E+02</rscale>
<asrwt>0</asrwt>
<pdfrwt beam="1">  1        2 0.19406794E+00 0.81510880E+02</pdfrwt>
<pdfrwt beam="2">  1       -1 0.20257725E-03 0.81510880E+02</pdfrwt>
<totfact> 0.33150220E+05</totfact>
</mgrwt>
</event>
<event>
 8    1  0.7667702E-014  0.8036698E+02  0.7818608E-02  0.1328013E+00
          2   -1    0    0  501    0  0.00000000000E+00  0.00000000000E+00  0.18038405688E+02  0.18038405868E+02  0.25500000000E-02 0. -1.
         -1   -1    0    0    0  501 -0.00000000000E+00 -0.00000000000E+00 -0.89515265572E+02  0.89515265713E+02  0.50400000000E-02 0.  1.
         24    2    1    2    0    0  0.00000000000E+00  0.00000000000E+00 -0.71476859884E+02  0.10755367158E+03  0.80366975630E+02 0.  0.
         66    2    3    3    0    0  0.13394160614E+02 -0.11263871630E+02  0.12611113616E+02  0.21663760684E+02  0.19999994295E+01 0.  0.
        -13    1    3    3    0    0 -0.13394160614E+02  0.11263871630E+02 -0.84087973499E+02  0.85889910897E+02  0.10566000000E+00 0.  1.
         13    1    4    4    0    0  0.57028928723E+01 -0.42550456309E+01  0.46683610787E+01  0.85107672762E+01  0.10566000000E+00 0. -1.
        -13    1    4    4    0    0  0.52305002654E+01 -0.43974892182E+01  0.45168337475E+01  0.81920080315E+01  0.10566000000E+00 0.  1.
        -14    1    4    4    0    0  0.24607674760E+01 -0.26113367813E+01  0.34259187894E+01  0.49609853767E+01  0.00000000000E+00 0.  1.
<mgrwt>
<rscale>  0 0.80366976E+02</rscale>
<asrwt>0</asrwt>
<pdfrwt beam="1">  1        2 0.27751394E-02 0.80366976E+02</pdfrwt>
<pdfrwt beam="2">  1       -1 0.13771579E-01 0.80366976E+02</pdfrwt>
<totfact> 0.11996131E+05</totfact>
</mgrwt>
</event>
<event>
 8    1  0.7667702E-014  0.8047972E+02  0.7818608E-02  0.1327696E+00
          2   -1    0    0  501    0  0.00000000000E+00  0.00000000000E+00  0.33304698410E+03  0.33304698411E+03  0.25500000000E-02 0. -1.
         -1   -1    0    0    0  501 -0.00000000000E+00 -0.00000000000E+00 -0.48619139889E+01  0.48619166012E+01  0.50400000000E-02 0.  1.
         24    2    1    2    0    0  0.00000000000E+00  0.00000000000E+00  0.32818507011E+03  0.33790890071E+03  0.80479717543E+02 0.  0.
         66    2    3    3    0    0  0.26577715007E+02  0.22337646433E+02  0.24940679847E+03  0.25181957135E+03  0.20000020537E+01 0.  0.
        -13    1    3    3    0    0 -0.26577715007E+02 -0.22337646433E+02  0.78778271637E+02  0.86089329358E+02  0.10566000000E+00 0.  1.
         13    1    4    4    0    0  0.15519265773E+02  0.11848882051E+02  0.13979657091E+03  0.14115359017E+03  0.10566000000E+00 0.  1.
        -13    1    4    4    0    0  0.88226495062E+01  0.80914189876E+01  0.85968520386E+02  0.86798086770E+02  0.10566000000E+00 0. -1.
        -14    1    4    4    0    0  0.22357997278E+01  0.23973453942E+01  0.23641707175E+02  0.23867894409E+02  0.00000000000E+00 0.  1.
<mgrwt>
<rscale>  0 0.80479718E+02</rscale>
<asrwt>0</asrwt>
<pdfrwt beam="1">  1        2 0.51237998E-01 0.80479718E+02</pdfrwt>
<pdfrwt beam="2">  1       -1 0.74798696E-03 0.80479718E+02</pdfrwt>
<totfact> 0.26063170E+05</totfact>
</mgrwt>
</event>
<event>
 8    1  0.7667702E-014  0.8052753E+02  0.7818608E-02  0.1327561E+00
          2   -1    0    0  501    0  0.00000000000E+00  0.00000000000E+00  0.82525544745E+03  0.82525544745E+03  0.25500000000E-02 0. -1.
         -1   -1    0    0    0  501 -0.00000000000E+00 -0.00000000000E+00 -0.19644442196E+01  0.19644506849E+01  0.50400000000E-02 0.  1.
         24    2    1    2    0    0  0.00000000000E+00  0.35527136788E-14  0.82329100323E+03  0.82721989814E+03  0.80527534898E+02 0.  0.
         66    2    3    3    0    0  0.18371291709E+01 -0.29093845973E+02  0.69682693213E+03  0.69743931654E+03  0.19999988759E+01 0.  0.
        -13    1    3    3    0    0 -0.18371291709E+01  0.29093845973E+02  0.12646407109E+03  0.12978058159E+03  0.10566000000E+00 0.  1.
         13    1    4    4    0    0  0.10556595394E+00 -0.12220611892E+02  0.29728817445E+03  0.29753928199E+03  0.10566000000E+00 0. -1.
        -13    1    4    4    0    0  0.26733199602E+00 -0.10488730055E+01  0.21755104750E+02  0.21782271408E+02  0.10566000000E+00 0.  1.
         14    1    4    4    0    0  0.14642312209E+01 -0.15824361075E+02  0.37778365294E+03  0.37811776314E+03  0.00000000000E+00 0. -1.
<mgrwt>
<rscale>  0 0.80527535E+02</rscale>
<asrwt>0</asrwt>
<pdfrwt beam="1">  1        2 0.12696283E+00 0.80527535E+02</pdfrwt>
<pdfrwt beam="2">  1       -1 0.30222162E-03 0.80527535E+02</pdfrwt>
<totfact> 0.33957395E+05</totfact>
</mgrwt>
</event>
<event>
 8    1  0.7667702E-014  0.8129330E+02  0.7818608E-02  0.1325421E+00
          2   -1    0    0  501    0  0.00000000000E+00  0.00000000000E+00  0.12064705900E+03  0.12064705903E+03  0.25500000000E-02 0. -1.
         -1   -1    0    0    0  501 -0.00000000000E+00 -0.00000000000E+00 -0.13694078359E+02  0.13694079286E+02  0.50400000000E-02 0.  1.
         24    2    1    2    0    0 -0.71054273576E-14 -0.35527136788E-14  0.10695298064E+03  0.13434113832E+03  0.81293304616E+02 0.  0.
         66    2    3    3    0    0  0.30331834091E+02  0.96617104540E+01  0.95209893468E+02  0.10041062007E+03  0.19999999106E+01 0.  0.
        -13    1    3    3    0    0 -0.30331834091E+02 -0.96617104540E+01  0.11743087176E+02  0.33930518249E+02  0.10566000000E+00 0.  1.
         13    1    4    4    0    0  0.26069843411E+01  0.11617366332E+01  0.93337552465E+01  0.97609502814E+01  0.10566000000E+00 0. -1.
        -13    1    4    4    0    0  0.66770669252E+01  0.15927771410E+01  0.21398542638E+02  0.22472849236E+02  0.10566000000E+00 0.  1.
        -14    1    4    4    0    0  0.21047782825E+02  0.69071966799E+01  0.64477595584E+02  0.68176820548E+02  0.00000000000E+00 0.  1.
<mgrwt>
<rscale>  0 0.81293305E+02</rscale>
<asrwt>0</asrwt>
<pdfrwt beam="1">  1        2 0.18561087E-01 0.81293305E+02</pdfrwt>
<pdfrwt beam="2">  1       -1 0.21067813E-02 0.81293305E+02</pdfrwt>
<totfact> 0.17932448E+05</totfact>
</mgrwt>
</event>
<event>
 8    1  0.7667702E-014  0.7968269E+02  0.7818608E-02  0.1329954E+00
         -1   -1    0    0    0  501 -0.00000000000E+00  0.00000000000E+00  0.64297930161E+02  0.64297930359E+02  0.50400000000E-02 0.  1.
          2   -1    0    0  501    0  0.00000000000E+00 -0.00000000000E+00 -0.24687153894E+02  0.24687154025E+02  0.25500000000E-02 0. -1.
         24    2    1    2    0    0  0.17763568394E-14 -0.22204460493E-15  0.39610776267E+02  0.88985084384E+02  0.79682693518E+02 0.  0.
         66    2    3    3    0    0  0.10454876232E+02 -0.13384866840E+01 -0.23060328038E+02  0.25433731428E+02  0.19999953727E+01 0.  0.
        -13    1    3    3    0    0 -0.10454876232E+02  0.13384866840E+01  0.62671104306E+02  0.63551352956E+02  0.10566000000E+00 0.  1.
         13    1    4    4    0    0  0.62172538544E+01 -0.10233908806E+01 -0.13641968633E+02  0.15027176934E+02  0.10566000000E+00 0. -1.
        -13    1    4    4    0    0  0.12505981865E+01 -0.63204671013E+00 -0.25883093022E+01  0.29451634840E+01  0.10566000000E+00 0.  1.
         14    1    4    4    0    0  0.29870241906E+01  0.31695090664E+00 -0.68300501034E+01  0.74613910103E+01  0.00000000000E+00 0. -1.
<mgrwt>
<rscale>  0 0.79682694E+02</rscale>
<asrwt>0</asrwt>
<pdfrwt beam="1">  1        2 0.37980237E-02 0.79682694E+02</pdfrwt>
<pdfrwt beam="2">  1       -1 0.98919893E-02 0.79682694E+02</pdfrwt>
<totfact> 0.13094748E+05</totfact>
</mgrwt>
</event>
<event>
 8    1  0.7667702E-014  0.7701946E+02  0.7818608E-02  0.1337729E+00
         -1   -1    0    0    0  501 -0.00000000000E+00  0.00000000000E+00  0.17192403886E+03  0.17192403893E+03  0.50400000000E-02 0.  1.
          2   -1    0    0  501    0  0.00000000000E+00 -0.00000000000E+00 -0.86258983708E+01  0.86258987477E+01  0.25500000000E-02 0. -1.
         24    2    1    2    0    0 -0.35527136788E-14  0.00000000000E+00  0.16329814049E+03  0.18054993768E+03  0.77019460590E+02 0.  0.
         66    2    3    3    0    0  0.24081148806E+02  0.28673181882E+02  0.10253204565E+03  0.10917359333E+03  0.20000020707E+01 0.  0.
        -13    1    3    3    0    0 -0.24081148806E+02 -0.28673181882E+02  0.60766094843E+02  0.71376344356E+02  0.10566000000E+00 0.  1.
         13    1    4    4    0    0  0.10385592287E+02  0.12131244873E+02  0.42134768214E+02  0.45059710228E+02  0.10566000000E+00 0. -1.
        -13    1    4    4    0    0  0.13374116300E+02  0.16383477047E+02  0.59219775715E+02  0.62883052619E+02  0.10566000000E+00 0.  1.
        -14    1    4    4    0    0  0.32144021882E+00  0.15845996110E+00  0.11775017168E+01  0.12308304784E+01  0.00000000000E+00 0.  1.
<mgrwt>
<rscale>  0 0.77019461E+02</rscale>
<asrwt>0</asrwt>
<pdfrwt beam="1">  1        2 0.13270613E-02 0.77019461E+02</pdfrwt>
<pdfrwt beam="2">  1       -1 0.26449853E-01 0.77019461E+02</pdfrwt>
<totfact> 0.11456056E+05</totfact>
</mgrwt>
</event>
<event>
 8    1  0.7667702E-014  0.8012341E+02  0.7818608E-02  0.1328702E+00
          2   -1    0    0  501    0  0.00000000000E+00  0.00000000000E+00  0.14353193999E+02  0.14353194225E+02  0.25500000000E-02 0. -1.
         -1   -1    0    0    0  501 -0.00000000000E+00 -0.00000000000E+00 -0.11181762933E+03  0.11181762944E+03  0.50400000000E-02 0.  1.
         24    2    1    2    0    0  0.35527136788E-14  0.00000000000E+00 -0.97464435332E+02  0.12617082367E+03  0.80123408507E+02 0.  0.
         66    2    3    3    0    0  0.25186189923E+02  0.28084665302E+02 -0.27644836221E+02  0.46811639122E+02  0.19999999074E+01 0.  0.
        -13    1    3    3    0    0 -0.25186189923E+02 -0.28084665302E+02 -0.69819599111E+02  0.79359184548E+02  0.10566000000E+00 0.  1.
         13    1    4    4    0    0  0.65064199531E+01  0.67756977708E+01 -0.64488118182E+01  0.11394819823E+02  0.10566000000E+00 0. -1.
        -13    1    4    4    0    0  0.11283182435E+02  0.12042194468E+02 -0.12892209895E+02  0.20941463499E+02  0.10566000000E+00 0.  1.
        -14    1    4    4    0    0  0.73965875352E+01  0.92667730629E+01 -0.83038145075E+01  0.14475355800E+02  0.00000000000E+00 0.  1.
<mgrwt>
<rscale>  0 0.80123409E+02</rscale>
<asrwt>0</asrwt>
<pdfrwt beam="1">  1        2 0.22081838E-02 0.80123409E+02</pdfrwt>
<pdfrwt beam="2">  1       -1 0.17202712E-01 0.80123409E+02</pdfrwt>
<totfact> 0.11522885E+05</totfact>
</mgrwt>
</event>
<event>
 8    1  0.7667702E-014  0.7937657E+02  0.7818608E-02  0.1330830E+00
         -1   -1    0    0    0  501 -0.00000000000E+00  0.00000000000E+00  0.36840965113E+02  0.36840965457E+02  0.50400000000E-02 0.  1.
          2   -1    0    0  501    0  0.00000000000E+00 -0.00000000000E+00 -0.42755665439E+02  0.42755665515E+02  0.25500000000E-02 0. -1.
         24    2    1    2    0    0 -0.11102230246E-15  0.00000000000E+00 -0.59147003261E+01  0.79596630972E+02  0.79376570738E+02 0.  0.
         66    2    3    3    0    0 -0.70858159192E+00 -0.21828579892E+02 -0.36159409302E+02  0.42290564802E+02  0.20000005512E+01 0.  0.
        -13    1    3    3    0    0  0.70858159192E+00  0.21828579892E+02  0.30244708976E+02  0.37306066170E+02  0.10566000000E+00 0.  1.
         13    1    4    4    0    0  0.50079605749E+00 -0.63024185139E+01 -0.96491222582E+01  0.11536377256E+02  0.10566000000E+00 0. -1.
        -13    1    4    4    0    0 -0.10535733164E+01 -0.95541461858E+01 -0.16077416084E+02  0.18731956599E+02  0.10566000000E+00 0.  1.
         14    1    4    4    0    0 -0.15580433304E+00 -0.59720151927E+01 -0.10432870960E+02  0.12022230946E+02  0.00000000000E+00 0. -1.
<mgrwt>
<rscale>  0 0.79376571E+02</rscale>
<asrwt>0</asrwt>
<pdfrwt beam="1">  1        2 0.65777947E-02 0.79376571E+02</pdfrwt>
<pdfrwt beam="2">  1       -1 0.56678408E-02 0.79376571E+02</pdfrwt>
<totfact> 0.14768059E+05</totfact>
</mgrwt>
</event>
<event>
 8    1  0.7667702E-014  0.8122496E+02  0.7818608E-02  0.1325611E+00
         -1   -1    0    0    0  501 -0.00000000000E+00  0.00000000000E+00  0.80408110881E+01  0.80408126677E+01  0.50400000000E-02 0.  1.
          2   -1    0    0  501    0  0.00000000000E+00 -0.00000000000E+00 -0.20512526867E+03  0.20512526869E+03  0.25500000000E-02 0. -1.
         24    2    1    2    0    0  0.00000000000E+00  0.44408920985E-15 -0.19708445759E+03  0.21316608136E+03  0.81224964262E+02 0.  0.
         66    2    3    3    0    0 -0.37792592261E+02 -0.27552843060E+01 -0.13676817102E+03  0.14193450682E+03  0.20000004770E+01 0.  0.
        -13    1    3    3    0    0  0.37792592261E+02  0.27552843060E+01 -0.60316286571E+02  0.71231574538E+02  0.10566000000E+00 0.  1.
         13    1    4    4    0    0 -0.30855764483E+02 -0.23997321544E+01 -0.11215308459E+03  0.11634501477E+03  0.10566000000E+00 0. -1.
        -13    1    4    4    0    0 -0.64737639421E+01 -0.53587996843E+00 -0.22947222445E+02  0.23849171242E+02  0.10566000000E+00 0.  1.
        -14    1    4    4    0    0 -0.46306383606E+00  0.18032781687E+00 -0.16678639828E+01  0.17403208046E+01  0.00000000000E+00 0.  1.
<mgrwt>
<rscale>  0 0.81224964E+02</rscale>
<asrwt>0</asrwt>
<pdfrwt beam="1">  1        2 0.31557730E-01 0.81224964E+02</pdfrwt>
<pdfrwt beam="2">  1       -1 0.12370481E-02 0.81224964E+02</pdfrwt>
<totfact> 0.21378751E+05</totfact>
</mgrwt>
</event>
<event>
 8    1  0.7667702E-014  0.7536400E+02  0.7818608E-02  0.1342748E+00
          2   -1    0    0  501    0  0.00000000000E+00  0.00000000000E+00  0.15485673739E+02  0.15485673949E+02  0.25500000000E-02 0. -1.
         -1   -1    0    0    0  501 -0.00000000000E+00 -0.00000000000E+00 -0.91693346353E+02  0.91693346492E+02  0.50400000000E-02 0.  1.
         24    2    1    2    0    0  0.00000000000E+00 -0.71054273576E-14 -0.76207672614E+02  0.10717902044E+03  0.75364003724E+02 0.  0.
         66    2    3    3    0    0 -0.36570388351E+01  0.34428464975E+02 -0.17073376911E+02  0.38654796797E+02  0.19999956766E+01 0.  0.
        -13    1    3    3    0    0  0.36570388351E+01 -0.34428464975E+02 -0.59134295704E+02  0.68524223644E+02  0.10566000000E+00 0.  1.
         13    1    4    4    0    0 -0.16915210419E+00  0.56714816315E+01 -0.24120079909E+01  0.61663005858E+01  0.10566000000E+00 0. -1.
        -13    1    4    4    0    0 -0.40075374595E+00  0.17964996927E+01 -0.11648604240E+01  0.21808435418E+01  0.10566000000E+00 0.  1.
         14    1    4    4    0    0 -0.30871329850E+01  0.26960483651E+02 -0.13496508496E+02  0.30307652669E+02  0.00000000000E+00 0. -1.
<mgrwt>
<rscale>  0 0.75364004E+02</rscale>
<asrwt>0</asrwt>
<pdfrwt beam="1">  1        2 0.23824114E-02 0.75364004E+02</pdfrwt>
<pdfrwt beam="2">  1       -1 0.14106668E-01 0.75364004E+02</pdfrwt>
<totfact> 0.14002041E+05</totfact>
</mgrwt>
</event>
<event>
 8    1  0.7667702E-014  0.8130964E+02  0.7818608E-02  0.1325375E+00
         -1   -1    0    0    0  501 -0.00000000000E+00  0.00000000000E+00  0.18114307933E+01  0.18114378048E+01  0.50400000000E-02 0.  1.
          2   -1    0    0  501    0  0.00000000000E+00 -0.00000000000E+00 -0.91243398277E+03  0.91243398278E+03  0.25500000000E-02 0. -1.
         24    2    1    2    0    0 -0.35527136788E-14  0.35527136788E-14 -0.91062255198E+03  0.91424542058E+03  0.81309635838E+02 0.  0.
         66    2    3    3    0    0 -0.17850549348E+02  0.25238622943E+02 -0.75204803696E+03  0.75268577780E+03  0.19999991743E+01 0.  0.
        -13    1    3    3    0    0  0.17850549348E+02 -0.25238622943E+02 -0.15857451502E+03  0.16155964278E+03  0.10566000000E+00 0.  1.
         13    1    4    4    0    0 -0.77748631704E+01  0.96083849236E+01 -0.29710286209E+03  0.29735986848E+03  0.10566000000E+00 0. -1.
        -13    1    4    4    0    0 -0.16053063960E+01  0.27005658898E+01 -0.70100093156E+02  0.70170537188E+02  0.10566000000E+00 0.  1.
         14    1    4    4    0    0 -0.84703797817E+01  0.12929672129E+02 -0.38484508172E+03  0.38515537213E+03  0.00000000000E+00 0. -1.
<mgrwt>
<rscale>  0 0.81309636E+02</rscale>
<asrwt>0</asrwt>
<pdfrwt beam="1">  1        2 0.14037409E+00 0.81309636E+02</pdfrwt>
<pdfrwt beam="2">  1       -1 0.27868293E-03 0.81309636E+02</pdfrwt>
<totfact> 0.33551322E+05</totfact>
</mgrwt>
</event>
<event>
 8    1  0.7667702E-014  0.7918688E+02  0.7818608E-02  0.1331375E+00
         -1   -1    0    0    0  501 -0.00000000000E+00  0.00000000000E+00  0.78915334824E+02  0.78915334985E+02  0.50400000000E-02 0.  1.
          2   -1    0    0  501    0  0.00000000000E+00 -0.00000000000E+00 -0.19864838577E+02  0.19864838741E+02  0.25500000000E-02 0. -1.
         24    2    1    2    0    0 -0.35527136788E-14  0.00000000000E+00  0.59050496247E+02  0.98780173726E+02  0.79186877791E+02 0.  0.
         66    2    3    3    0    0 -0.26791317745E+02 -0.42331744494E+01 -0.63928338033E+01  0.27938554006E+02  0.20000008741E+01 0.  0.
        -13    1    3    3    0    0  0.26791317745E+02  0.42331744494E+01  0.65443330050E+02  0.70841619720E+02  0.10566000000E+00 0.  1.
         13    1    4    4    0    0 -0.30563414310E+01 -0.14379755041E+00 -0.11106806804E+01  0.32567892606E+01  0.10566000000E+00 0. -1.
        -13    1    4    4    0    0 -0.76483902819E+01 -0.17491830269E+01 -0.14329257447E+01  0.79763372165E+01  0.10566000000E+00 0.  1.
        -14    1    4    4    0    0 -0.16086586032E+02 -0.23401938721E+01 -0.38492273783E+01  0.16705427529E+02  0.00000000000E+00 0.  1.
<mgrwt>
<rscale>  0 0.79186878E+02</rscale>
<asrwt>0</asrwt>
<pdfrwt beam="1">  1        2 0.30561290E-02 0.79186878E+02</pdfrwt>
<pdfrwt beam="2">  1       -1 0.12140821E-01 0.79186878E+02</pdfrwt>
<totfact> 0.12767679E+05</totfact>
</mgrwt>
</event>
<event>
 8    1  0.7667702E-014  0.8044732E+02  0.7818608E-02  0.1327787E+00
          2   -1    0    0  501    0  0.00000000000E+00  0.00000000000E+00  0.67964289997E+03  0.67964289998E+03  0.25500000000E-02 0. -1.
         -1   -1    0    0    0  501 -0.00000000000E+00 -0.00000000000E+00 -0.23805753636E+01  0.23805806988E+01  0.50400000000E-02 0.  1.
         24    2    1    2    0    0  0.00000000000E+00  0.00000000000E+00  0.67726232461E+03  0.68202348068E+03  0.80447323504E+02 0.  0.
         66    2    3    3    0    0  0.16083215728E+02  0.27295208794E+02  0.54861234314E+03  0.54952998217E+03  0.20000009052E+01 0.  0.
        -13    1    3    3    0    0 -0.16083215728E+02 -0.27295208794E+02  0.12864998147E+03  0.13249349851E+03  0.10566000000E+00 0.  1.
         13    1    4    4    0    0  0.34286167074E+01  0.53471188118E+01  0.10239568749E+03  0.10259256832E+03  0.10566000000E+00 0. -1.
        -13    1    4    4    0    0  0.11352661025E+02  0.18829509825E+02  0.38357139640E+03  0.38420106800E+03  0.10566000000E+00 0.  1.
        -14    1    4    4    0    0  0.13019379948E+01  0.31185801563E+01  0.62645259249E+02  0.62736345854E+02  0.00000000000E+00 0.  1.
<mgrwt>
<rscale>  0 0.80447324E+02</rscale>
<asrwt>0</asrwt>
<pdfrwt beam="1">  1        2 0.10456048E+00 0.80447324E+02</pdfrwt>
<pdfrwt beam="2">  1       -1 0.36624265E-03 0.80447324E+02</pdfrwt>
<totfact> 0.32743023E+05</totfact>
</mgrwt>
</event>
<event>
 8    1  0.7667702E-014  0.8164444E+02  0.7818608E-02  0.1324448E+00
         -1   -1    0    0    0  501 -0.00000000000E+00  0.00000000000E+00  0.27926111487E+01  0.27926156967E+01  0.50400000000E-02 0.  1.
          2   -1    0    0  501    0  0.00000000000E+00 -0.00000000000E+00 -0.59673619801E+03  0.59673619802E+03  0.25500000000E-02 0. -1.
         24    2    1    2    0    0  0.71054273576E-14  0.00000000000E+00 -0.59394358686E+03  0.59952881371E+03  0.81644437026E+02 0.  0.
         66    2    3    3    0    0 -0.25333507913E+02  0.15358394412E+02 -0.50312263222E+03  0.50399806543E+03  0.19999997418E+01 0.  0.
        -13    1    3    3    0    0  0.25333507913E+02 -0.15358394412E+02 -0.90820954636E+02  0.95530748281E+02  0.10566000000E+00 0.  1.
         13    1    4    4    0    0 -0.79145822571E+01  0.47208888029E+01 -0.14594028528E+03  0.14623100026E+03  0.10566000000E+00 0.  1.
        -13    1    4    4    0    0 -0.16300557222E+01  0.70704334533E+00 -0.35063117870E+02  0.35108266701E+02  0.10566000000E+00 0. -1.
         14    1    4    4    0    0 -0.15788869933E+02  0.99304622641E+01 -0.32211922907E+03  0.32265879847E+03  0.00000000000E+00 0. -1.
<mgrwt>
<rscale>  0 0.81644437E+02</rscale>
<asrwt>0</asrwt>
<pdfrwt beam="1">  1        2 0.91805467E-01 0.81644437E+02</pdfrwt>
<pdfrwt beam="2">  1       -1 0.42963331E-03 0.81644437E+02</pdfrwt>
<totfact> 0.30456795E+05</totfact>
</mgrwt>
</event>
<event>
 8    1  0.7667702E-014  0.8395873E+02  0.7818608E-02  0.1318178E+00
         -1   -1    0    0    0  501 -0.00000000000E+00  0.00000000000E+00  0.62074272898E+02  0.62074273103E+02  0.50400000000E-02 0.  1.
          2   -1    0    0  501    0  0.00000000000E+00 -0.00000000000E+00 -0.28389654208E+02  0.28389654323E+02  0.25500000000E-02 0. -1.
         24    2    1    2    0    0 -0.35527136788E-14  0.88817841970E-15  0.33684618690E+02  0.90463927425E+02  0.83958731702E+02 0.  0.
         66    2    3    3    0    0 -0.26511725484E+02 -0.75093825770E+01 -0.17238124604E+02  0.32564019279E+02  0.19999992247E+01 0.  0.
        -13    1    3    3    0    0  0.26511725484E+02  0.75093825770E+01  0.50922743293E+02  0.57899908147E+02  0.10566000000E+00 0.  1.
         13    1    4    4    0    0 -0.66380777500E+00 -0.22583326393E+00 -0.80900480691E+00  0.10757761098E+01  0.10566000000E+00 0.  1.
        -13    1    4    4    0    0 -0.83787872498E+01 -0.26538092821E+01 -0.54768533907E+01  0.10356344267E+02  0.10566000000E+00 0. -1.
         14    1    4    4    0    0 -0.17469130460E+02 -0.46297400310E+01 -0.10952266406E+02  0.21131898902E+02  0.00000000000E+00 0. -1.
<mgrwt>
<rscale>  0 0.83958732E+02</rscale>
<asrwt>0</asrwt>
<pdfrwt beam="1">  1        2 0.43676392E-02 0.83958732E+02</pdfrwt>
<pdfrwt beam="2">  1       -1 0.95498881E-02 0.83958732E+02</pdfrwt>
<totfact> 0.11613033E+05</totfact>
</mgrwt>
</event>
<event>
 8    1  0.7667702E-014  0.8086294E+02  0.7818608E-02  0.1326620E+00
          2   -1    0    0  501    0  0.00000000000E+00  0.00000000000E+00  0.17404588597E+04  0.17404588597E+04  0.25500000000E-02 0. -1.
         -1   -1    0    0    0  501 -0.00000000000E+00 -0.00000000000E+00 -0.93923043082E+00  0.93924395329E+00  0.50400000000E-02 0.  1.
         24    2    1    2    0    0  0.00000000000E+00  0.00000000000E+00  0.17395196293E+04  0.17413981036E+04  0.80862938365E+02 0.  0.
         66    2    3    3    0    0  0.97420368007E+01  0.14796699339E+02  0.16523612555E+04  0.16524574331E+04  0.20000045394E+01 0.  0.
        -13    1    3    3    0    0 -0.97420368007E+01 -0.14796699339E+02  0.87158373776E+02  0.88940670538E+02  0.10566000000E+00 0.  1.
         13    1    4    4    0    0  0.26058290359E+01  0.29513185333E+01  0.33579391328E+03  0.33581700967E+03  0.10566000000E+00 0. -1.
        -13    1    4    4    0    0  0.10884744330E+01  0.20585382731E+01  0.18828636676E+03  0.18830079508E+03  0.10566000000E+00 0.  1.
         14    1    4    4    0    0  0.60477333318E+01  0.97868425328E+01  0.11282809754E+04  0.11283396283E+04  0.00000000000E+00 0. -1.
<mgrwt>
<rscale>  0 0.80862938E+02</rscale>
<asrwt>0</asrwt>
<pdfrwt beam="1">  1        2 0.26776373E+00 0.80862938E+02</pdfrwt>
<pdfrwt beam="2">  1       -1 0.14449758E-03 0.80862938E+02</pdfrwt>
<totfact> 0.30042656E+05</totfact>
</mgrwt>
</event>
<event>
 8    1  0.7667702E-014  0.7905189E+02  0.7818608E-02  0.1331764E+00
          2   -1    0    0  501    0  0.00000000000E+00  0.00000000000E+00  0.11059292472E+04  0.11059292472E+04  0.25500000000E-02 0. -1.
         -1   -1    0    0    0  501 -0.00000000000E+00 -0.00000000000E+00 -0.14126539574E+01  0.14126629481E+01  0.50400000000E-02 0.  1.
         24    2    1    2    0    0  0.00000000000E+00 -0.35527136788E-14  0.11045165933E+04  0.11073419102E+04  0.79051889470E+02 0.  0.
         66    2    3    3    0    0 -0.13874700809E+02  0.13142347782E+02  0.10368562643E+04  0.10370343010E+04  0.20000014088E+01 0.  0.
        -13    1    3    3    0    0  0.13874700809E+02 -0.13142347782E+02  0.67660328937E+02  0.70307609145E+02  0.10566000000E+00 0.  1.
         13    1    4    4    0    0 -0.30963991556E+00  0.21495042681E+00  0.20382972265E+02  0.20386731051E+02  0.10566000000E+00 0. -1.
        -13    1    4    4    0    0 -0.58100868941E+01  0.67269508423E+01  0.49218311376E+03  0.49226338236E+03  0.10566000000E+00 0. -1.
         14    1    4    4    0    0 -0.77549739997E+01  0.62004465129E+01  0.52429017831E+03  0.52438418763E+03  0.00000000000E+00 0. -1.
<mgrwt>
<rscale>  0 0.79051889E+02</rscale>
<asrwt>0</asrwt>
<pdfrwt beam="1">  1        2 0.17014216E+00 0.79051889E+02</pdfrwt>
<pdfrwt beam="2">  1       -1 0.21733310E-03 0.79051889E+02</pdfrwt>
<totfact> 0.36352777E+05</totfact>
</mgrwt>
</event>
<event>
 8    1  0.7667702E-014  0.7802706E+02  0.7818608E-02  0.1334745E+00
          2   -1    0    0  501    0  0.00000000000E+00  0.00000000000E+00  0.10173688558E+03  0.10173688561E+03  0.25500000000E-02 0. -1.
         -1   -1    0    0    0  501 -0.00000000000E+00 -0.00000000000E+00 -0.14960703228E+02  0.14960704077E+02  0.50400000000E-02 0.  1.
         24    2    1    2    0    0  0.00000000000E+00  0.00000000000E+00  0.86776182351E+02  0.11669758969E+03  0.78027056946E+02 0.  0.
         66    2    3    3    0    0  0.32524075397E+02  0.18753095734E+02  0.27690868894E+02  0.46693450451E+02  0.20000037240E+01 0.  0.
        -13    1    3    3    0    0 -0.32524075397E+02 -0.18753095734E+02  0.59085313456E+02  0.70004139237E+02  0.10566000000E+00 0.  1.
         13    1    4    4    0    0  0.19660220298E+02  0.11493194089E+02  0.15886532181E+02  0.27767081973E+02  0.10566000000E+00 0. -1.
        -13    1    4    4    0    0  0.71098252659E+01  0.35598231001E+01  0.64630688556E+01  0.10247164431E+02  0.10566000000E+00 0.  1.
         14    1    4    4    0    0  0.57540298334E+01  0.37000785450E+01  0.53412678579E+01  0.86792040472E+01  0.00000000000E+00 0. -1.
<mgrwt>
<rscale>  0 0.78027057E+02</rscale>
<asrwt>0</asrwt>
<pdfrwt beam="1">  1        2 0.15651828E-01 0.78027057E+02</pdfrwt>
<pdfrwt beam="2">  1       -1 0.23016468E-02 0.78027057E+02</pdfrwt>
<totfact> 0.19041592E+05</totfact>
</mgrwt>
</event>
<event>
 8    1  0.7667702E-014  0.7963850E+02  0.7818608E-02  0.1330080E+00
         -1   -1    0    0    0  501 -0.00000000000E+00  0.00000000000E+00  0.42655290091E+01  0.42655319866E+01  0.50400000000E-02 0.  1.
          2   -1    0    0  501    0  0.00000000000E+00 -0.00000000000E+00 -0.37171754718E+03  0.37171754719E+03  0.25500000000E-02 0. -1.
         24    2    1    2    0    0 -0.88817841970E-15 -0.35527136788E-14 -0.36745201817E+03  0.37598307918E+03  0.79638496774E+02 0.  0.
         66    2    3    3    0    0  0.64648578294E+01  0.21875360581E+02 -0.33778502784E+03  0.33856026171E+03  0.19999983781E+01 0.  0.
        -13    1    3    3    0    0 -0.64648578294E+01 -0.21875360581E+02 -0.29666990336E+02  0.37422817464E+02  0.10566000000E+00 0.  1.
         13    1    4    4    0    0  0.14009898485E+01  0.55700729373E+01 -0.87427155369E+02  0.87615678648E+02  0.10566000000E+00 0. -1.
        -13    1    4    4    0    0  0.11319924980E+01  0.20575677287E+01 -0.38605082133E+02  0.38676588817E+02  0.10566000000E+00 0.  1.
         14    1    4    4    0    0  0.39318754829E+01  0.14247719915E+02 -0.21175279033E+03  0.21226799425E+03  0.00000000000E+00 0. -1.
<mgrwt>
<rscale>  0 0.79638497E+02</rscale>
<asrwt>0</asrwt>
<pdfrwt beam="1">  1        2 0.57187290E-01 0.79638497E+02</pdfrwt>
<pdfrwt beam="2">  1       -1 0.65623576E-03 0.79638497E+02</pdfrwt>
<totfact> 0.27860124E+05</totfact>
</mgrwt>
</event>
<event>
 8    1  0.7667702E-014  0.8138448E+02  0.7818608E-02  0.1325168E+00
         -1   -1    0    0    0  501 -0.00000000000E+00  0.00000000000E+00  0.63040073995E+02  0.63040074197E+02  0.50400000000E-02 0.  1.
          2   -1    0    0  501    0  0.00000000000E+00 -0.00000000000E+00 -0.26266760548E+02  0.26266760672E+02  0.25500000000E-02 0. -1.
         24    2    1    2    0    0  0.17763568394E-14  0.35527136788E-14  0.36773313447E+02  0.89306834869E+02  0.81384483610E+02 0.  0.
         66    2    3    3    0    0 -0.14065454826E+02 -0.31992987877E+02 -0.44224308790E+01  0.35283795271E+02  0.20000052674E+01 0.  0.
        -13    1    3    3    0    0  0.14065454826E+02  0.31992987877E+02  0.41195744326E+02  0.54023039598E+02  0.10566000000E+00 0.  1.
         13    1    4    4    0    0 -0.80308018687E+01 -0.18505424706E+02 -0.23414653369E+01  0.20308573218E+02  0.10566000000E+00 0. -1.
        -13    1    4    4    0    0 -0.26980117687E+01 -0.64221396915E+01 -0.15921828438E+01  0.71462826675E+01  0.10566000000E+00 0.  1.
         14    1    4    4    0    0 -0.33366411886E+01 -0.70654234798E+01 -0.48878269831E+00  0.78289393851E+01  0.00000000000E+00 0. -1.
<mgrwt>
<rscale>  0 0.81384484E+02</rscale>
<asrwt>0</asrwt>
<pdfrwt beam="1">  1        2 0.40410401E-02 0.81384484E+02</pdfrwt>
<pdfrwt beam="2">  1       -1 0.96984729E-02 0.81384484E+02</pdfrwt>
<totfact> 0.12486686E+05</totfact>
</mgrwt>
</event>
<event>
 8    1  0.7667702E-014  0.7045732E+02  0.7818608E-02  0.1358545E+00
         -1   -1    0    0    0  501 -0.00000000000E+00  0.00000000000E+00  0.49226005677E+03  0.49226005679E+03  0.50400000000E-02 0.  1.
          2   -1    0    0  501    0  0.00000000000E+00 -0.00000000000E+00 -0.25211430343E+01  0.25211443239E+01  0.25500000000E-02 0. -1.
         24    2    1    2    0    0  0.00000000000E+00  0.00000000000E+00  0.48973891373E+03  0.49478120112E+03  0.70457315834E+02 0.  0.
         66    2    3    3    0    0  0.28057290117E+02 -0.19913419324E+02  0.29728669424E+03  0.29927768772E+03  0.19999996004E+01 0.  0.
        -13    1    3    3    0    0 -0.28057290117E+02  0.19913419324E+02  0.19245221949E+03  0.19550351339E+03  0.10566000000E+00 0.  1.
         13    1    4    4    0    0  0.19065977906E+02 -0.12682504148E+02  0.19418313208E+03  0.19552866126E+03  0.10566000000E+00 0. -1.
        -13    1    4    4    0    0  0.20164825011E+01 -0.17786039046E+01  0.22169891073E+02  0.22332596530E+02  0.10566000000E+00 0. -1.
         14    1    4    4    0    0  0.69748297093E+01 -0.54523112721E+01  0.80933671089E+02  0.81416429937E+02  0.00000000000E+00 0. -1.
<mgrwt>
<rscale>  0 0.70457316E+02</rscale>
<asrwt>0</asrwt>
<pdfrwt beam="1">  1        2 0.38786855E-03 0.70457316E+02</pdfrwt>
<pdfrwt beam="2">  1       -1 0.75732260E-01 0.70457316E+02</pdfrwt>
<totfact> 0.93421648E+04</totfact>
</mgrwt>
</event>
<event>
 8    1  0.7667702E-014  0.7982423E+02  0.7818608E-02  0.1329551E+00
          2   -1    0    0  501    0  0.00000000000E+00  0.00000000000E+00  0.41843679481E+03  0.41843679482E+03  0.25500000000E-02 0. -1.
         -1   -1    0    0    0  501 -0.00000000000E+00 -0.00000000000E+00 -0.38069694241E+01  0.38069727603E+01  0.50400000000E-02 0.  1.
         24    2    1    2    0    0  0.00000000000E+00  0.88817841970E-15  0.41462982538E+03  0.42224376758E+03  0.79824226642E+02 0.  0.
         66    2    3    3    0    0 -0.22249114764E+02  0.73299137560E+01  0.37821346500E+03  0.37894349955E+03  0.20000002129E+01 0.  0.
        -13    1    3    3    0    0  0.22249114764E+02 -0.73299137560E+01  0.36416360386E+02  0.43300268027E+02  0.10566000000E+00 0.  1.
         13    1    4    4    0    0 -0.77931462855E+01  0.20388703245E+01  0.13812824244E+03  0.13836297426E+03  0.10566000000E+00 0. -1.
        -13    1    4    4    0    0 -0.81548730572E+01  0.35303233692E+01  0.13748295081E+03  0.13776987357E+03  0.10566000000E+00 0.  1.
        -14    1    4    4    0    0 -0.63010954215E+01  0.17607200623E+01  0.10260227175E+03  0.10281065172E+03  0.00000000000E+00 0.  1.
<mgrwt>
<rscale>  0 0.79824227E+02</rscale>
<asrwt>0</asrwt>
<pdfrwt beam="1">  1        2 0.64374856E-01 0.79824227E+02</pdfrwt>
<pdfrwt beam="2">  1       -1 0.58568819E-03 0.79824227E+02</pdfrwt>
<totfact> 0.28864456E+05</totfact>
</mgrwt>
</event>
<event>
 8    1  0.7667702E-014  0.8206226E+02  0.7818608E-02  0.1323299E+00
          2   -1    0    0  501    0  0.00000000000E+00  0.00000000000E+00  0.54972536308E+03  0.54972536308E+03  0.25500000000E-02 0. -1.
         -1   -1    0    0    0  501 -0.00000000000E+00 -0.00000000000E+00 -0.30625339095E+01  0.30625380567E+01  0.50400000000E-02 0.  1.
         24    2    1    2    0    0  0.00000000000E+00  0.00000000000E+00  0.54666282917E+03  0.55278790114E+03  0.82062262051E+02 0.  0.
         66    2    3    3    0    0 -0.18623773623E+02 -0.31713720131E+02  0.39566648836E+03  0.39737711937E+03  0.20000000913E+01 0.  0.
        -13    1    3    3    0    0  0.18623773623E+02  0.31713720131E+02  0.15099634081E+03  0.15541078177E+03  0.10566000000E+00 0.  1.
         13    1    4    4    0    0 -0.56038394816E+01 -0.94442021541E+01  0.12519271323E+03  0.12567347605E+03  0.10566000000E+00 0. -1.
        -13    1    4    4    0    0 -0.33302226077E+01 -0.62156221283E+01  0.78629255412E+02  0.78944887813E+02  0.10566000000E+00 0.  1.
        -14    1    4    4    0    0 -0.96897115341E+01 -0.16053895848E+02  0.19184451971E+03  0.19275875551E+03  0.00000000000E+00 0.  1.
<mgrwt>
<rscale>  0 0.82062262E+02</rscale>
<asrwt>0</asrwt>
<pdfrwt beam="1">  1        2 0.84573137E-01 0.82062262E+02</pdfrwt>
<pdfrwt beam="2">  1       -1 0.47115936E-03 0.82062262E+02</pdfrwt>
<totfact> 0.29344992E+05</totfact>
</mgrwt>
</event>
<event>
 8    1  0.7667702E-014  0.7558262E+02  0.7818608E-02  0.1342076E+00
          2   -1    0    0  501    0  0.00000000000E+00  0.00000000000E+00  0.75286267347E+02  0.75286267390E+02  0.25500000000E-02 0. -1.
         -1   -1    0    0    0  501 -0.00000000000E+00 -0.00000000000E+00 -0.18970035118E+02  0.18970035787E+02  0.50400000000E-02 0.  1.
         24    2    1    2    0    0  0.35527136788E-14  0.00000000000E+00  0.56316232229E+02  0.94256303177E+02  0.75582621522E+02 0.  0.
         66    2    3    3    0    0  0.20652531982E+02  0.76934850947E+01  0.66421394136E+02  0.70010844812E+02  0.20000005567E+01 0.  0.
        -13    1    3    3    0    0 -0.20652531982E+02 -0.76934850947E+01 -0.10105161906E+02  0.24245458365E+02  0.10566000000E+00 0.  1.
         13    1    4    4    0    0  0.80079248033E+01  0.22831338187E+01  0.26615108559E+02  0.27887537133E+02  0.10566000000E+00 0. -1.
        -13    1    4    4    0    0  0.21567216660E+01  0.89788212828E+00  0.59144758248E+01  0.63600180015E+01  0.10566000000E+00 0.  1.
        -14    1    4    4    0    0  0.10487885512E+02  0.45124691477E+01  0.33891809752E+02  0.35763289678E+02  0.00000000000E+00 0.  1.
<mgrwt>
<rscale>  0 0.75582622E+02</rscale>
<asrwt>0</asrwt>
<pdfrwt beam="1">  1        2 0.11582503E-01 0.75582622E+02</pdfrwt>
<pdfrwt beam="2">  1       -1 0.29184670E-02 0.75582622E+02</pdfrwt>
<totfact> 0.19155359E+05</totfact>
</mgrwt>
</event>
<event>
 8    1  0.7667702E-014  0.8084019E+02  0.7818608E-02  0.1326684E+00
         -1   -1    0    0    0  501 -0.00000000000E+00  0.00000000000E+00  0.42306682251E+01  0.42306712272E+01  0.50400000000E-02 0.  1.
          2   -1    0    0  501    0  0.00000000000E+00 -0.00000000000E+00 -0.38617617932E+03  0.38617617933E+03  0.25500000000E-02 0. -1.
         24    2    1    2    0    0  0.44408920985E-15  0.00000000000E+00 -0.38194551110E+03  0.39040685056E+03  0.80840185027E+02 0.  0.
         66    2    3    3    0    0 -0.27850873964E+01  0.37800761869E+02 -0.25854928837E+03  0.26132047151E+03  0.20000002532E+01 0.  0.
        -13    1    3    3    0    0  0.27850873964E+01 -0.37800761869E+02 -0.12339622272E+03  0.12908637905E+03  0.10566000000E+00 0.  1.
         13    1    4    4    0    0 -0.47133013411E+00  0.84561264433E+01 -0.58767977945E+02  0.59375202082E+02  0.10566000000E+00 0.  1.
        -13    1    4    4    0    0 -0.14216105477E+01  0.24023359791E+02 -0.16000336248E+03  0.16180305918E+03  0.10566000000E+00 0. -1.
        -14    1    4    4    0    0 -0.89214671466E+00  0.53212756346E+01 -0.39777947948E+02  0.40142210242E+02  0.00000000000E+00 0.  1.
<mgrwt>
<rscale>  0 0.80840185E+02</rscale>
<asrwt>0</asrwt>
<pdfrwt beam="1">  1        2 0.59411692E-01 0.80840185E+02</pdfrwt>
<pdfrwt beam="2">  1       -1 0.65087257E-03 0.80840185E+02</pdfrwt>
<totfact> 0.27154839E+05</totfact>
</mgrwt>
</event>
<event>
 8    1  0.7667702E-014  0.7965010E+02  0.7818608E-02  0.1330047E+00
         -1   -1    0    0    0  501 -0.00000000000E+00  0.00000000000E+00  0.79901279439E+02  0.79901279598E+02  0.50400000000E-02 0.  1.
          2   -1    0    0  501    0  0.00000000000E+00 -0.00000000000E+00 -0.19849928863E+02  0.19849929027E+02  0.25500000000E-02 0. -1.
         24    2    1    2    0    0  0.71054273576E-14 -0.22204460493E-15  0.60051350576E+02  0.99751208625E+02  0.79650103051E+02 0.  0.
         66    2    3    3    0    0 -0.26356322121E+02  0.14749066705E+01 -0.72583186954E+01  0.27450214117E+02  0.19999998361E+01 0.  0.
        -13    1    3    3    0    0  0.26356322121E+02 -0.14749066705E+01  0.67309669272E+02  0.72300994508E+02  0.10566000000E+00 0.  1.
         13    1    4    4    0    0 -0.18620472945E+02  0.14451280071E+01 -0.55005858143E+01  0.19469925937E+02  0.10566000000E+00 0. -1.
        -13    1    4    4    0    0 -0.75633820412E+01 -0.96325542488E-01 -0.16570195270E+01  0.77440883427E+01  0.10566000000E+00 0.  1.
        -14    1    4    4    0    0 -0.17246713397E+00  0.12610420589E+00 -0.10071335407E+00  0.23619983643E+00  0.00000000000E+00 0.  1.
<mgrwt>
<rscale>  0 0.79650103E+02</rscale>
<asrwt>0</asrwt>
<pdfrwt beam="1">  1        2 0.30538352E-02 0.79650103E+02</pdfrwt>
<pdfrwt beam="2">  1       -1 0.12292505E-01 0.79650103E+02</pdfrwt>
<totfact> 0.12553879E+05</totfact>
</mgrwt>
</event>
<event>
 8    1  0.7752200E-014  0.7921495E+02  0.7818608E-02  0.1331294E+00
         -1   -1    0    0    0  501 -0.00000000000E+00  0.00000000000E+00  0.91416816961E+01  0.91416830854E+01  0.50400000000E-02 0.  1.
          2   -1    0    0  501    0  0.00000000000E+00 -0.00000000000E+00 -0.17160430466E+03  0.17160430467E+03  0.25500000000E-02 0. -1.
         24    2    1    2    0    0  0.11102230246E-15  0.00000000000E+00 -0.16246262296E+03  0.18074598776E+03  0.79214949551E+02 0.  0.
         66    2    3    3    0    0 -0.39278469043E+00 -0.17177400709E+02 -0.16264553985E+03  0.16356279837E+03  0.20000007823E+01 0.  0.
        -13    1    3    3    0    0  0.39278469043E+00  0.17177400709E+02  0.18291689075E+00  0.17183189388E+02  0.10566000000E+00 0.  1.
         13    1    4    4    0    0 -0.36031283696E+00 -0.90405363302E+01 -0.88223207113E+02  0.88685999796E+02  0.10566000000E+00 0. -1.
        -13    1    4    4    0    0 -0.58909266956E+00 -0.54410831792E+01 -0.47692368555E+02  0.48005474674E+02  0.10566000000E+00 0.  1.
        -14    1    4    4    0    0  0.55662081609E+00 -0.26957811994E+01 -0.26729964183E+02  0.26871323901E+02  0.00000000000E+00 0.  1.
<mgrwt>
<rscale>  0 0.79214950E+02</rscale>
<asrwt>0</asrwt>
<pdfrwt beam="1">  1        2 0.26400660E-01 0.79214950E+02</pdfrwt>
<pdfrwt beam="2">  1       -1 0.14064128E-02 0.79214950E+02</pdfrwt>
<totfact> 0.21488136E+05</totfact>
</mgrwt>
</event>
<event>
 8    1  0.7667702E-014  0.7964066E+02  0.7818608E-02  0.1330074E+00
          2   -1    0    0  501    0  0.00000000000E+00  0.00000000000E+00  0.77188780954E+01  0.77188785166E+01  0.25500000000E-02 0. -1.
         -1   -1    0    0    0  501 -0.00000000000E+00 -0.00000000000E+00 -0.20542606001E+03  0.20542606007E+03  0.50400000000E-02 0.  1.
         24    2    1    2    0    0  0.00000000000E+00  0.00000000000E+00 -0.19770718192E+03  0.21314493859E+03  0.79640662135E+02 0.  0.
         66    2    3    3    0    0  0.19349010786E+02  0.28982240804E+02 -0.47484233367E+02  0.58933071552E+02  0.20000009262E+01 0.  0.
        -13    1    3    3    0    0 -0.19349010786E+02 -0.28982240804E+02 -0.15022294855E+03  0.15421186704E+03  0.10566000000E+00 0.  1.
         13    1    4    4    0    0  0.93349594247E+01  0.15210588958E+02 -0.23753757219E+02  0.29711203779E+02  0.10566000000E+00 0. -1.
        -13    1    4    4    0    0  0.72415181116E+01  0.10619526166E+02 -0.17803423126E+02  0.21958755875E+02  0.10566000000E+00 0.  1.
         14    1    4    4    0    0  0.27725332502E+01  0.31521256797E+01 -0.59270530218E+01  0.72631118983E+01  0.00000000000E+00 0. -1.
<mgrwt>
<rscale>  0 0.79640662E+02</rscale>
<asrwt>0</asrwt>
<pdfrwt beam="1">  1        2 0.11875199E-02 0.79640662E+02</pdfrwt>
<pdfrwt beam="2">  1       -1 0.31604005E-01 0.79640662E+02</pdfrwt>
<totfact> 0.99932509E+04</totfact>
</mgrwt>
</event>
<event>
 8    1  0.7667702E-014  0.8143534E+02  0.7818608E-02  0.1325027E+00
          2   -1    0    0  501    0  0.00000000000E+00  0.00000000000E+00  0.25867919236E+03  0.25867919237E+03  0.25500000000E-02 0. -1.
         -1   -1    0    0    0  501 -0.00000000000E+00 -0.00000000000E+00 -0.64092068888E+01  0.64092088704E+01  0.50400000000E-02 0.  1.
         24    2    1    2    0    0 -0.71054273576E-14 -0.35527136788E-14  0.25226998547E+03  0.26508840124E+03  0.81435341860E+02 0.  0.
         66    2    3    3    0    0  0.34616010096E+02  0.21386407309E+02  0.12449709063E+03  0.13099302328E+03  0.19999996192E+01 0.  0.
        -13    1    3    3    0    0 -0.34616010096E+02 -0.21386407309E+02  0.12777289484E+03  0.13409537797E+03  0.10566000000E+00 0.  1.
         13    1    4    4    0    0  0.10458108072E+02  0.70500090129E+01  0.39502682487E+02  0.41467429860E+02  0.10566000000E+00 0.  1.
        -13    1    4    4    0    0  0.87440887290E+01  0.53724046348E+01  0.29188847868E+02  0.30940617692E+02  0.10566000000E+00 0. -1.
         14    1    4    4    0    0  0.15413813295E+02  0.89639936618E+01  0.55805560277E+02  0.58584975723E+02  0.00000000000E+00 0. -1.
<mgrwt>
<rscale>  0 0.81435342E+02</rscale>
<asrwt>0</asrwt>
<pdfrwt beam="1">  1        2 0.39796796E-01 0.81435342E+02</pdfrwt>
<pdfrwt beam="2">  1       -1 0.98603205E-03 0.81435342E+02</pdfrwt>
<totfact> 0.23058757E+05</totfact>
</mgrwt>
</event>
<event>
 8    1  0.7667702E-014  0.7618842E+02  0.7818608E-02  0.1340230E+00
          2   -1    0    0  501    0  0.00000000000E+00  0.00000000000E+00  0.25563431184E+03  0.25563431186E+03  0.25500000000E-02 0. -1.
         -1   -1    0    0    0  501 -0.00000000000E+00 -0.00000000000E+00 -0.56767356470E+01  0.56767378843E+01  0.50400000000E-02 0.  1.
         24    2    1    2    0    0  0.00000000000E+00  0.35527136788E-14  0.24995757620E+03  0.26131104974E+03  0.76188416564E+02 0.  0.
         66    2    3    3    0    0 -0.12341895882E+02  0.31955425987E+02  0.18201300648E+03  0.18521934610E+03  0.20000000733E+01 0.  0.
        -13    1    3    3    0    0  0.12341895882E+02 -0.31955425987E+02  0.67944569721E+02  0.76091703638E+02  0.10566000000E+00 0.  1.
         13    1    4    4    0    0 -0.77382224645E+01  0.21381814411E+02  0.11880345850E+03  0.12096005535E+03  0.10566000000E+00 0. -1.
        -13    1    4    4    0    0 -0.18639608053E+00  0.37016029152E+00  0.17044582976E+01  0.17573002772E+01  0.10566000000E+00 0.  1.
         14    1    4    4    0    0 -0.44172773368E+01  0.10203451284E+02  0.61505089681E+02  0.62501990479E+02  0.00000000000E+00 0. -1.
<mgrwt>
<rscale>  0 0.76188417E+02</rscale>
<asrwt>0</asrwt>
<pdfrwt beam="1">  1        2 0.39328360E-01 0.76188417E+02</pdfrwt>
<pdfrwt beam="2">  1       -1 0.87334403E-03 0.76188417E+02</pdfrwt>
<totfact> 0.27344487E+05</totfact>
</mgrwt>
</event>
<event>
 8    1  0.7667702E-014  0.7923669E+02  0.7818608E-02  0.1331232E+00
         -1   -1    0    0    0  501 -0.00000000000E+00  0.00000000000E+00  0.40954851068E+02  0.40954851379E+02  0.50400000000E-02 0.  1.
          2   -1    0    0  501    0  0.00000000000E+00 -0.00000000000E+00 -0.38325456339E+02  0.38325456424E+02  0.25500000000E-02 0. -1.
         24    2    1    2    0    0  0.00000000000E+00  0.00000000000E+00  0.26293947290E+01  0.79280307803E+02  0.79236692818E+02 0.  0.
         66    2    3    3    0    0 -0.10732158404E+01 -0.12292397752E+02 -0.36326360804E+02  0.38416914797E+02  0.20000046292E+01 0.  0.
        -13    1    3    3    0    0  0.10732158404E+01  0.12292397752E+02  0.38955755533E+02  0.40863393006E+02  0.10566000000E+00 0.  1.
         13    1    4    4    0    0 -0.97546039186E-01 -0.39603452420E+00 -0.22358052621E+01  0.22751588471E+01  0.10566000000E+00 0. -1.
        -13    1    4    4    0    0 -0.57454148469E+00 -0.19391635130E+01 -0.63864543659E+01  0.66998818237E+01  0.10566000000E+00 0.  1.
        -14    1    4    4    0    0 -0.40112831655E+00 -0.99571997147E+01 -0.27704101176E+02  0.29441874126E+02  0.00000000000E+00 0.  1.
<mgrwt>
<rscale>  0 0.79236693E+02</rscale>
<asrwt>0</asrwt>
<pdfrwt beam="1">  1        2 0.58962241E-02 0.79236693E+02</pdfrwt>
<pdfrwt beam="2">  1       -1 0.63007464E-02 0.79236693E+02</pdfrwt>
<totfact> 0.14510989E+05</totfact>
</mgrwt>
</event>
<event>
 8    1  0.7667702E-014  0.6949133E+02  0.7818608E-02  0.1361831E+00
         -1   -1    0    0    0  501 -0.00000000000E+00  0.00000000000E+00  0.18191213335E+03  0.18191213342E+03  0.50400000000E-02 0.  1.
          2   -1    0    0  501    0  0.00000000000E+00 -0.00000000000E+00 -0.66365080645E+01  0.66365085544E+01  0.25500000000E-02 0. -1.
         24    2    1    2    0    0  0.00000000000E+00  0.35527136788E-14  0.17527562529E+03  0.18854864198E+03  0.69491334504E+02 0.  0.
         66    2    3    3    0    0 -0.17570664827E+02 -0.27991719944E+02  0.58868786132E+02  0.67541088435E+02  0.19999996035E+01 0.  0.
        -13    1    3    3    0    0  0.17570664827E+02  0.27991719944E+02  0.11640683916E+03  0.12100755354E+03  0.10566000000E+00 0.  1.
         13    1    4    4    0    0 -0.63911697809E+01 -0.92424073401E+01  0.20020423744E+02  0.22958607874E+02  0.10566000000E+00 0. -1.
        -13    1    4    4    0    0 -0.11014889241E+02 -0.18492348995E+02  0.37893969523E+02  0.43580486994E+02  0.10566000000E+00 0.  1.
        -14    1    4    4    0    0 -0.16460580501E+00 -0.25696360927E+00  0.95439286456E+00  0.10019935666E+01  0.00000000000E+00 0.  1.
<mgrwt>
<rscale>  0 0.69491335E+02</rscale>
<asrwt>0</asrwt>
<pdfrwt beam="1">  1        2 0.10210013E-02 0.69491335E+02</pdfrwt>
<pdfrwt beam="2">  1       -1 0.27986481E-01 0.69491335E+02</pdfrwt>
<totfact> 0.14626017E+05</totfact>
</mgrwt>
</event>
<event>
 8    1  0.7667702E-014  0.8410464E+02  0.7818608E-02  0.1317791E+00
         -1   -1    0    0    0  501 -0.00000000000E+00  0.00000000000E+00  0.25778214304E+02  0.25778214797E+02  0.50400000000E-02 0.  1.
          2   -1    0    0  501    0  0.00000000000E+00 -0.00000000000E+00 -0.68600464049E+02  0.68600464097E+02  0.25500000000E-02 0. -1.
         24    2    1    2    0    0 -0.17763568394E-14  0.35527136788E-14 -0.42822249745E+02  0.94378678894E+02  0.84104636950E+02 0.  0.
         66    2    3    3    0    0 -0.12550365956E+02 -0.24184903297E+02 -0.57331745723E+02  0.63508663172E+02  0.19999992987E+01 0.  0.
        -13    1    3    3    0    0  0.12550365956E+02  0.24184903297E+02  0.14509495978E+02  0.30870015722E+02  0.10566000000E+00 0.  1.
         13    1    4    4    0    0 -0.90100882056E+01 -0.17963698476E+02 -0.42669817512E+02  0.47165672294E+02  0.10566000000E+00 0. -1.
        -13    1    4    4    0    0 -0.12569382390E+01 -0.14390793193E+01 -0.42043837505E+01  0.46193992879E+01  0.10566000000E+00 0.  1.
        -14    1    4    4    0    0 -0.22833395112E+01 -0.47821255010E+01 -0.10457544461E+02  0.11723591590E+02  0.00000000000E+00 0.  1.
<mgrwt>
<rscale>  0 0.84104637E+02</rscale>
<asrwt>0</asrwt>
<pdfrwt beam="1">  1        2 0.10553917E-01 0.84104637E+02</pdfrwt>
<pdfrwt beam="2">  1       -1 0.39658792E-02 0.84104637E+02</pdfrwt>
<totfact> 0.14024688E+05</totfact>
</mgrwt>
</event>
<event>
 8    1  0.7667702E-014  0.8036741E+02  0.7818608E-02  0.1328012E+00
          2   -1    0    0  501    0  0.00000000000E+00  0.00000000000E+00  0.16478450505E+03  0.16478450507E+03  0.25500000000E-02 0. -1.
         -1   -1    0    0    0  501 -0.00000000000E+00 -0.00000000000E+00 -0.97990416076E+01  0.97990429037E+01  0.50400000000E-02 0.  1.
         24    2    1    2    0    0  0.00000000000E+00  0.00000000000E+00  0.15498546344E+03  0.17458354797E+03  0.80367414693E+02 0.  0.
         66    2    3    3    0    0  0.10554713580E+02  0.38384955529E+02  0.89018688454E+02  0.97535294546E+02  0.19999996165E+01 0.  0.
        -13    1    3    3    0    0 -0.10554713580E+02 -0.38384955529E+02  0.65966774984E+02  0.77048253423E+02  0.10566000000E+00 0.  1.
         13    1    4    4    0    0  0.34897627771E+01  0.12876388794E+02  0.28462204366E+02  0.31433868264E+02  0.10566000000E+00 0. -1.
        -13    1    4    4    0    0  0.13853303752E+01  0.55333094289E+01  0.14361612293E+02  0.15453275548E+02  0.10566000000E+00 0.  1.
        -14    1    4    4    0    0  0.56796204273E+01  0.19975257306E+02  0.46194871795E+02  0.50648150734E+02  0.00000000000E+00 0.  1.
<mgrwt>
<rscale>  0 0.80367415E+02</rscale>
<asrwt>0</asrwt>
<pdfrwt beam="1">  1        2 0.25351461E-01 0.80367415E+02</pdfrwt>
<pdfrwt beam="2">  1       -1 0.15075450E-02 0.80367415E+02</pdfrwt>
<totfact> 0.20405228E+05</totfact>
</mgrwt>
</event>
<event>
 8    1  0.7667702E-014  0.6991668E+02  0.7818608E-02  0.1360377E+00
          2   -1    0    0  501    0  0.00000000000E+00  0.00000000000E+00  0.12776006945E+02  0.12776007200E+02  0.25500000000E-02 0. -1.
         -1   -1    0    0    0  501 -0.00000000000E+00 -0.00000000000E+00 -0.95654741640E+02  0.95654741773E+02  0.50400000000E-02 0.  1.
         24    2    1    2    0    0  0.17763568394E-14  0.00000000000E+00 -0.82878734694E+02  0.10843074897E+03  0.69916683690E+02 0.  0.
         66    2    3    3    0    0 -0.15825205007E+02 -0.28266098532E+02 -0.21212592424E+02  0.38773490153E+02  0.20000053950E+01 0.  0.
        -13    1    3    3    0    0  0.15825205007E+02  0.28266098532E+02 -0.61666142271E+02  0.69657258820E+02  0.10566000000E+00 0.  1.
         13    1    4    4    0    0 -0.42190527434E+01 -0.61839237637E+01 -0.52635366048E+01  0.91519014851E+01  0.10566000000E+00 0. -1.
        -13    1    4    4    0    0 -0.41872694943E+01 -0.79983669282E+01 -0.62549768933E+01  0.10983760709E+02  0.10566000000E+00 0.  1.
         14    1    4    4    0    0 -0.74188827692E+01 -0.14083807840E+02 -0.96940789255E+01  0.18637827959E+02  0.00000000000E+00 0. -1.
<mgrwt>
<rscale>  0 0.69916684E+02</rscale>
<asrwt>0</asrwt>
<pdfrwt beam="1">  1        2 0.19655396E-02 0.69916684E+02</pdfrwt>
<pdfrwt beam="2">  1       -1 0.14716114E-01 0.69916684E+02</pdfrwt>
<totfact> 0.16723097E+05</totfact>
</mgrwt>
</event>
<event>
 8    1  0.7667702E-014  0.8025425E+02  0.7818608E-02  0.1328331E+00
          2   -1    0    0  501    0  0.00000000000E+00  0.00000000000E+00  0.55013792505E+03  0.55013792505E+03  0.25500000000E-02 0. -1.
         -1   -1    0    0    0  501 -0.00000000000E+00 -0.00000000000E+00 -0.29268748336E+01  0.29268791729E+01  0.50400000000E-02 0.  1.
         24    2    1    2    0    0  0.00000000000E+00  0.35527136788E-14  0.54721105021E+03  0.55306480423E+03  0.80254247225E+02 0.  0.
         66    2    3    3    0    0  0.26406033415E+02  0.23675303585E+02  0.40277184713E+03  0.40433520679E+03  0.20000032170E+01 0.  0.
        -13    1    3    3    0    0 -0.26406033415E+02 -0.23675303585E+02  0.14443920309E+03  0.14872959743E+03  0.10566000000E+00 0.  1.
         13    1    4    4    0    0  0.13117443034E+02  0.12874337167E+02  0.20677427307E+03  0.20758956390E+03  0.10566000000E+00 0. -1.
        -13    1    4    4    0    0  0.49110820694E+01  0.43771254328E+01  0.73143905217E+02  0.73439226498E+02  0.10566000000E+00 0.  1.
        -14    1    4    4    0    0  0.83775083118E+01  0.64238409848E+01  0.12285366884E+03  0.12330641640E+03  0.00000000000E+00 0.  1.
<mgrwt>
<rscale>  0 0.80254247E+02</rscale>
<asrwt>0</asrwt>
<pdfrwt beam="1">  1        2 0.84636657E-01 0.80254247E+02</pdfrwt>
<pdfrwt beam="2">  1       -1 0.45028849E-03 0.80254247E+02</pdfrwt>
<totfact> 0.31107318E+05</totfact>
</mgrwt>
</event>
<event>
 8    1  0.7667702E-014  0.7924782E+02  0.7818608E-02  0.1331200E+00
          2   -1    0    0  501    0  0.00000000000E+00  0.00000000000E+00  0.83090775950E+02  0.83090775989E+02  0.25500000000E-02 0. -1.
         -1   -1    0    0    0  501 -0.00000000000E+00 -0.00000000000E+00 -0.18895647704E+02  0.18895648377E+02  0.50400000000E-02 0.  1.
         24    2    1    2    0    0  0.00000000000E+00 -0.35527136788E-14  0.64195128246E+02  0.10198642437E+03  0.79247815518E+02 0.  0.
         66    2    3    3    0    0 -0.59305483515E+01 -0.28686475204E+02  0.66408400741E+02  0.72609647781E+02  0.19999996270E+01 0.  0.
        -13    1    3    3    0    0  0.59305483515E+01  0.28686475204E+02 -0.22132724948E+01  0.29376776585E+02  0.10566000000E+00 0.  1.
         13    1    4    4    0    0 -0.14260955237E+01 -0.56568961932E+01  0.14080977180E+02  0.15242024319E+02  0.10566000000E+00 0. -1.
        -13    1    4    4    0    0 -0.41632807209E+01 -0.22144857976E+02  0.50743858839E+02  0.55521869701E+02  0.10566000000E+00 0.  1.
        -14    1    4    4    0    0 -0.34117210690E+00 -0.88472103512E+00  0.15835647218E+01  0.18457537606E+01  0.00000000000E+00 0.  1.
<mgrwt>
<rscale>  0 0.79247816E+02</rscale>
<asrwt>0</asrwt>
<pdfrwt beam="1">  1        2 0.12783196E-01 0.79247816E+02</pdfrwt>
<pdfrwt beam="2">  1       -1 0.29070228E-02 0.79247816E+02</pdfrwt>
<totfact> 0.17294359E+05</totfact>
</mgrwt>
</event>
<event>
 8    1  0.7667702E-014  0.7989687E+02  0.7818608E-02  0.1329344E+00
         -1   -1    0    0    0  501 -0.00000000000E+00  0.00000000000E+00  0.58286474495E+01  0.58286496285E+01  0.50400000000E-02 0.  1.
          2   -1    0    0  501    0  0.00000000000E+00 -0.00000000000E+00 -0.27379889109E+03  0.27379889110E+03  0.25500000000E-02 0. -1.
         24    2    1    2    0    0  0.00000000000E+00  0.00000000000E+00 -0.26797024364E+03  0.27962754073E+03  0.79896871392E+02 0.  0.
         66    2    3    3    0    0  0.53622096109E+01 -0.36416962579E+02 -0.18816671247E+03  0.19174373558E+03  0.19999998379E+01 0.  0.
        -13    1    3    3    0    0 -0.53622096109E+01  0.36416962579E+02 -0.79803531175E+02  0.87883805148E+02  0.10566000000E+00 0.  1.
         13    1    4    4    0    0  0.30043126216E+01 -0.17381727811E+02 -0.91603829211E+02  0.93286778517E+02  0.10566000000E+00 0. -1.
        -13    1    4    4    0    0  0.16085857441E+01 -0.81901314196E+01 -0.41424300409E+02  0.42256947703E+02  0.10566000000E+00 0.  1.
        -14    1    4    4    0    0  0.74931124510E+00 -0.10845103348E+02 -0.55138582846E+02  0.56200009362E+02  0.00000000000E+00 0.  1.
<mgrwt>
<rscale>  0 0.79896871E+02</rscale>
<asrwt>0</asrwt>
<pdfrwt beam="1">  1        2 0.42122896E-01 0.79896871E+02</pdfrwt>
<pdfrwt beam="2">  1       -1 0.89671538E-03 0.79896871E+02</pdfrwt>
<totfact> 0.24747952E+05</totfact>
</mgrwt>
</event>
<event>
 8    1  0.7667702E-014  0.8065363E+02  0.7818608E-02  0.1327207E+00
          2   -1    0    0  501    0  0.00000000000E+00  0.00000000000E+00  0.69991461191E+02  0.69991461237E+02  0.25500000000E-02 0. -1.
         -1   -1    0    0    0  501 -0.00000000000E+00 -0.00000000000E+00 -0.23235003907E+02  0.23235004453E+02  0.50400000000E-02 0.  1.
         24    2    1    2    0    0  0.35527136788E-14  0.00000000000E+00  0.46756457284E+02  0.93226465691E+02  0.80653627367E+02 0.  0.
         66    2    3    3    0    0 -0.22801317357E+02  0.25084176828E+02  0.48588005258E+02  0.59278244348E+02  0.19999994266E+01 0.  0.
        -13    1    3    3    0    0  0.22801317357E+02 -0.25084176828E+02 -0.18315479735E+01  0.33948221343E+02  0.10566000000E+00 0.  1.
         13    1    4    4    0    0 -0.90659481866E+01  0.87266564780E+01  0.18119477196E+02  0.22060656556E+02  0.10566000000E+00 0. -1.
        -13    1    4    4    0    0 -0.43132307368E+01  0.50574197017E+01  0.88961274905E+01  0.11105570755E+02  0.10566000000E+00 0.  1.
         14    1    4    4    0    0 -0.94221384332E+01  0.11300100648E+02  0.21572400571E+02  0.26112017037E+02  0.00000000000E+00 0. -1.
<mgrwt>
<rscale>  0 0.80653627E+02</rscale>
<asrwt>0</asrwt>
<pdfrwt beam="1">  1        2 0.10767917E-01 0.80653627E+02</pdfrwt>
<pdfrwt beam="2">  1       -1 0.35746161E-02 0.80653627E+02</pdfrwt>
<totfact> 0.15794091E+05</totfact>
</mgrwt>
</event>
<event>
 8    1  0.7667702E-014  0.8076346E+02  0.7818608E-02  0.1326899E+00
          2   -1    0    0  501    0  0.00000000000E+00  0.00000000000E+00  0.15310980070E+02  0.15310980282E+02  0.25500000000E-02 0. -1.
         -1   -1    0    0    0  501 -0.00000000000E+00 -0.00000000000E+00 -0.10650423518E+03  0.10650423530E+03  0.50400000000E-02 0.  1.
         24    2    1    2    0    0  0.35527136788E-14  0.00000000000E+00 -0.91193255109E+02  0.12181521558E+03  0.80763463086E+02 0.  0.
         66    2    3    3    0    0 -0.30130108634E+02 -0.21134082580E+02 -0.20648367732E+02  0.42247224580E+02  0.20000004928E+01 0.  0.
        -13    1    3    3    0    0  0.30130108634E+02  0.21134082580E+02 -0.70544887377E+02  0.79567991000E+02  0.10566000000E+00 0.  1.
         13    1    4    4    0    0 -0.12309748687E+02 -0.78924238654E+01 -0.85908967979E+01  0.16959803626E+02  0.10566000000E+00 0.  1.
        -13    1    4    4    0    0 -0.82265496263E+01 -0.64257987598E+01 -0.51336998708E+01  0.11633273265E+02  0.10566000000E+00 0. -1.
         14    1    4    4    0    0 -0.95938103203E+01 -0.68158599546E+01 -0.69237710636E+01  0.13654147689E+02  0.00000000000E+00 0. -1.
<mgrwt>
<rscale>  0 0.80763463E+02</rscale>
<asrwt>0</asrwt>
<pdfrwt beam="1">  1        2 0.23555355E-02 0.80763463E+02</pdfrwt>
<pdfrwt beam="2">  1       -1 0.16385267E-01 0.80763463E+02</pdfrwt>
<totfact> 0.11418153E+05</totfact>
</mgrwt>
</event>
<event>
 8    1  0.7667702E-014  0.7867911E+02  0.7818608E-02  0.1332842E+00
         -1   -1    0    0    0  501 -0.00000000000E+00  0.00000000000E+00  0.49028167210E+01  0.49028193115E+01  0.50400000000E-02 0.  1.
          2   -1    0    0  501    0  0.00000000000E+00 -0.00000000000E+00 -0.31565532605E+03  0.31565532606E+03  0.25500000000E-02 0. -1.
         24    2    1    2    0    0 -0.88817841970E-15  0.71054273576E-14 -0.31075250933E+03  0.32055814537E+03  0.78679111014E+02 0.  0.
         66    2    3    3    0    0 -0.63037202998E+01  0.33712994336E+02 -0.23377115124E+03  0.23628214918E+03  0.19999981926E+01 0.  0.
        -13    1    3    3    0    0  0.63037202998E+01 -0.33712994336E+02 -0.76981358087E+02  0.84275996189E+02  0.10566000000E+00 0.  1.
         13    1    4    4    0    0 -0.32366412192E+00  0.33906696900E+01 -0.23087481013E+02  0.23337616480E+02  0.10566000000E+00 0.  1.
        -13    1    4    4    0    0 -0.19553873708E+01  0.12569197086E+02 -0.90762388955E+02  0.91649499006E+02  0.10566000000E+00 0.  1.
         14    1    4    4    0    0 -0.40246688070E+01  0.17753127560E+02 -0.11992128127E+03  0.12129503369E+03  0.00000000000E+00 0. -1.
<mgrwt>
<rscale>  0 0.78679111E+02</rscale>
<asrwt>0</asrwt>
<pdfrwt beam="1">  1        2 0.48562342E-01 0.78679111E+02</pdfrwt>
<pdfrwt beam="2">  1       -1 0.75427994E-03 0.78679111E+02</pdfrwt>
<totfact> 0.27124613E+05</totfact>
</mgrwt>
</event>
<event>
 8    1  0.7667702E-014  0.8125658E+02  0.7818608E-02  0.1325523E+00
          2   -1    0    0  501    0  0.00000000000E+00  0.00000000000E+00  0.90252039290E+02  0.90252039326E+02  0.25500000000E-02 0. -1.
         -1   -1    0    0    0  501 -0.00000000000E+00 -0.00000000000E+00 -0.18289425941E+02  0.18289426636E+02  0.50400000000E-02 0.  1.
         24    2    1    2    0    0  0.00000000000E+00  0.00000000000E+00  0.71962613349E+02  0.10854146596E+03  0.81256581968E+02 0.  0.
         66    2    3    3    0    0  0.17306970956E+02 -0.33386139464E+02  0.56457925959E+02  0.67865034861E+02  0.20000002964E+01 0.  0.
        -13    1    3    3    0    0 -0.17306970956E+02  0.33386139464E+02  0.15504687390E+02  0.40676431100E+02  0.10566000000E+00 0.  1.
         13    1    4    4    0    0  0.68135458664E+01 -0.13304629504E+02  0.23139596636E+02  0.27547952193E+02  0.10566000000E+00 0. -1.
        -13    1    4    4    0    0  0.83749862643E+01 -0.14754595039E+02  0.25168230461E+02  0.30352750424E+02  0.10566000000E+00 0.  1.
        -14    1    4    4    0    0  0.21184388248E+01 -0.53269149207E+01  0.81500988619E+01  0.99643322448E+01  0.00000000000E+00 0.  1.
<mgrwt>
<rscale>  0 0.81256582E+02</rscale>
<asrwt>0</asrwt>
<pdfrwt beam="1">  1        2 0.13884929E-01 0.81256582E+02</pdfrwt>
<pdfrwt beam="2">  1       -1 0.28137579E-02 0.81256582E+02</pdfrwt>
<totfact> 0.16526431E+05</totfact>
</mgrwt>
</event>
<event>
 8    1  0.7667702E-014  0.7894198E+02  0.7818608E-02  0.1332081E+00
          2   -1    0    0  501    0  0.00000000000E+00  0.00000000000E+00  0.29127962548E+03  0.29127962549E+03  0.25500000000E-02 0. -1.
         -1   -1    0    0    0  501 -0.00000000000E+00 -0.00000000000E+00 -0.53486709594E+01  0.53486733339E+01  0.50400000000E-02 0.  1.
         24    2    1    2    0    0  0.00000000000E+00 -0.35527136788E-14  0.28593095452E+03  0.29662829883E+03  0.78941984462E+02 0.  0.
         66    2    3    3    0    0 -0.10611050867E+02 -0.15062977824E+02  0.27411229900E+03  0.27473813017E+03  0.20000010127E+01 0.  0.
        -13    1    3    3    0    0  0.10611050867E+02  0.15062977824E+02  0.11818655518E+02  0.21890168654E+02  0.10566000000E+00 0.  1.
         13    1    4    4    0    0 -0.63800843161E+01 -0.10066244001E+02  0.17498471967E+03  0.17539013092E+03  0.10566000000E+00 0. -1.
        -13    1    4    4    0    0 -0.18310243079E+01 -0.27151838676E+01  0.44882027062E+02  0.45001470984E+02  0.10566000000E+00 0.  1.
        -14    1    4    4    0    0 -0.23999422428E+01 -0.22815499545E+01  0.54245552277E+02  0.54346528268E+02  0.00000000000E+00 0.  1.
<mgrwt>
<rscale>  0 0.78941984E+02</rscale>
<asrwt>0</asrwt>
<pdfrwt beam="1">  1        2 0.44812261E-01 0.78941984E+02</pdfrwt>
<pdfrwt beam="2">  1       -1 0.82287245E-03 0.78941984E+02</pdfrwt>
<totfact> 0.26119296E+05</totfact>
</mgrwt>
</event>
<event>
 8    1  0.7667702E-014  0.7991158E+02  0.7818608E-02  0.1329303E+00
          2   -1    0    0  501    0  0.00000000000E+00  0.00000000000E+00  0.79715067318E+03  0.79715067318E+03  0.25500000000E-02 0. -1.
         -1   -1    0    0    0  501 -0.00000000000E+00 -0.00000000000E+00 -0.20027110400E+01  0.20027173818E+01  0.50400000000E-02 0.  1.
         24    2    1    2    0    0  0.88817841970E-15 -0.35527136788E-14  0.79514796214E+03  0.79915339056E+03  0.79911575867E+02 0.  0.
         66    2    3    3    0    0  0.75000357274E+01  0.29559757666E+02  0.65559989872E+03  0.65631185957E+03  0.20000000650E+01 0.  0.
        -13    1    3    3    0    0 -0.75000357274E+01 -0.29559757666E+02  0.13954806342E+03  0.14284153100E+03  0.10566000000E+00 0.  1.
         13    1    4    4    0    0  0.73828758256E-01  0.11610632236E+01  0.21371244667E+02  0.21403148860E+02  0.10566000000E+00 0. -1.
        -13    1    4    4    0    0  0.26117948384E+00  0.49724371285E+00  0.12172935687E+02  0.12186344542E+02  0.10566000000E+00 0.  1.
         14    1    4    4    0    0  0.71650274853E+01  0.27901450729E+02  0.62205571836E+03  0.62272236616E+03  0.00000000000E+00 0. -1.
<mgrwt>
<rscale>  0 0.79911576E+02</rscale>
<asrwt>0</asrwt>
<pdfrwt beam="1">  1        2 0.12263888E+00 0.79911576E+02</pdfrwt>
<pdfrwt beam="2">  1       -1 0.30810908E-03 0.79911576E+02</pdfrwt>
<totfact> 0.34443228E+05</totfact>
</mgrwt>
</event>
<event>
 8    1  0.7667702E-014  0.8163383E+02  0.7818608E-02  0.1324478E+00
          2   -1    0    0  501    0  0.00000000000E+00  0.00000000000E+00  0.10152957649E+03  0.10152957652E+03  0.25500000000E-02 0. -1.
         -1   -1    0    0    0  501 -0.00000000000E+00 -0.00000000000E+00 -0.16409212305E+02  0.16409213079E+02  0.50400000000E-02 0.  1.
         24    2    1    2    0    0  0.00000000000E+00  0.00000000000E+00  0.85120364181E+02  0.11793878960E+03  0.81633826894E+02 0.  0.
         66    2    3    3    0    0  0.34906371112E+02 -0.20838525926E+02  0.47445734282E+02  0.62512371626E+02  0.19999994425E+01 0.  0.
        -13    1    3    3    0    0 -0.34906371112E+02  0.20838525926E+02  0.37674629899E+02  0.55426417971E+02  0.10566000000E+00 0.  1.
         13    1    4    4    0    0  0.19828413496E+02 -0.11420982096E+02  0.26088004762E+02  0.34701584550E+02  0.10566000000E+00 0. -1.
        -13    1    4    4    0    0  0.66017174463E+01 -0.45230179655E+01  0.89316388598E+01  0.11992735364E+02  0.10566000000E+00 0.  1.
        -14    1    4    4    0    0  0.84762401704E+01 -0.48945258647E+01  0.12426090661E+02  0.15818051712E+02  0.00000000000E+00 0.  1.
<mgrwt>
<rscale>  0 0.81633827E+02</rscale>
<asrwt>0</asrwt>
<pdfrwt beam="1">  1        2 0.15619935E-01 0.81633827E+02</pdfrwt>
<pdfrwt beam="2">  1       -1 0.25244943E-02 0.81633827E+02</pdfrwt>
<totfact> 0.16862338E+05</totfact>
</mgrwt>
</event>
<event>
 8    1  0.7667702E-014  0.8138828E+02  0.7818608E-02  0.1325157E+00
         -1   -1    0    0    0  501 -0.00000000000E+00  0.00000000000E+00  0.19104639634E+01  0.19104706114E+01  0.50400000000E-02 0.  1.
          2   -1    0    0  501    0  0.00000000000E+00 -0.00000000000E+00 -0.86681053276E+03  0.86681053277E+03  0.25500000000E-02 0. -1.
         24    2    1    2    0    0 -0.17763568394E-14 -0.35527136788E-14 -0.86490006880E+03  0.86872100338E+03  0.81388283559E+02 0.  0.
         66    2    3    3    0    0  0.11840122296E+02  0.21201190781E+02 -0.78093261862E+03  0.78131263513E+03  0.19999996089E+01 0.  0.
        -13    1    3    3    0    0 -0.11840122296E+02 -0.21201190781E+02 -0.83967450174E+02  0.87408368246E+02  0.10566000000E+00 0.  1.
         13    1    4    4    0    0  0.37789468086E+01  0.65804766122E+01 -0.25759395176E+03  0.25770572027E+03  0.10566000000E+00 0. -1.
        -13    1    4    4    0    0  0.60955966069E+01  0.98560316360E+01 -0.35184807845E+03  0.35203888866E+03  0.10566000000E+00 0.  1.
        -14    1    4    4    0    0  0.19655788800E+01  0.47646825331E+01 -0.17149058841E+03  0.17156802620E+03  0.00000000000E+00 0.  1.
<mgrwt>
<rscale>  0 0.81388284E+02</rscale>
<asrwt>0</asrwt>
<pdfrwt beam="1">  1        2 0.13335515E+00 0.81388284E+02</pdfrwt>
<pdfrwt beam="2">  1       -1 0.29391874E-03 0.81388284E+02</pdfrwt>
<totfact> 0.33266905E+05</totfact>
</mgrwt>
</event>
<event>
 8    1  0.7667702E-014  0.8269810E+02  0.7818608E-02  0.1321564E+00
         -1   -1    0    0    0  501 -0.00000000000E+00  0.00000000000E+00  0.12771810070E+03  0.12771810080E+03  0.50400000000E-02 0.  1.
          2   -1    0    0  501    0  0.00000000000E+00 -0.00000000000E+00 -0.13386857185E+02  0.13386857428E+02  0.25500000000E-02 0. -1.
         24    2    1    2    0    0  0.00000000000E+00  0.00000000000E+00  0.11433124352E+03  0.14110495823E+03  0.82698101505E+02 0.  0.
         66    2    3    3    0    0 -0.26575555747E+02  0.26759172846E+02  0.86025543238E+02  0.93950559420E+02  0.20000078283E+01 0.  0.
        -13    1    3    3    0    0  0.26575555747E+02 -0.26759172846E+02  0.28305700277E+02  0.47154398807E+02  0.10566000000E+00 0.  1.
         13    1    4    4    0    0 -0.47531454528E+00  0.49032551976E+00  0.12363595473E+01  0.14163657712E+01  0.10566000000E+00 0. -1.
        -13    1    4    4    0    0 -0.71880403155E+01  0.63579138135E+01  0.22234108572E+02  0.24216889554E+02  0.10566000000E+00 0.  1.
         14    1    4    4    0    0 -0.18912200886E+02  0.19910933512E+02  0.62555075119E+02  0.68317304095E+02  0.00000000000E+00 0. -1.
<mgrwt>
<rscale>  0 0.82698102E+02</rscale>
<asrwt>0</asrwt>
<pdfrwt beam="1">  1        2 0.20595166E-02 0.82698102E+02</pdfrwt>
<pdfrwt beam="2">  1       -1 0.19648937E-01 0.82698102E+02</pdfrwt>
<totfact> 0.10322441E+05</totfact>
</mgrwt>
</event>
<event>
 8    1  0.9904225E-014  0.7751922E+02  0.7818608E-02  0.1336243E+00
          2   -1    0    0  501    0  0.00000000000E+00  0.00000000000E+00  0.82413004952E+03  0.82413004952E+03  0.25500000000E-02 0. -1.
         -1   -1    0    0    0  501 -0.00000000000E+00 -0.00000000000E+00 -0.18228973703E+01  0.18229043377E+01  0.50400000000E-02 0.  1.
         24    2    1    2    0    0  0.17763568394E-14  0.00000000000E+00  0.82230715215E+03  0.82595295386E+03  0.77519220302E+02 0.  0.
         66    2    3    3    0    0  0.93692636672E+01 -0.26858628144E+02  0.69153537025E+03  0.69212306515E+03  0.19999993751E+01 0.  0.
        -13    1    3    3    0    0 -0.93692636672E+01  0.26858628144E+02  0.13077178190E+03  0.13382988871E+03  0.10566000000E+00 0.  1.
         13    1    4    4    0    0  0.50020370766E+01 -0.13336323329E+02  0.34650059602E+03  0.34679324114E+03  0.10566000000E+00 0.  1.
        -13    1    4    4    0    0  0.34777387000E+01 -0.11429209609E+02  0.29972017920E+03  0.29995819456E+03  0.10566000000E+00 0. -1.
        -14    1    4    4    0    0  0.88948789055E+00 -0.20930952065E+01  0.45314595029E+02  0.45371629449E+02  0.00000000000E+00 0.  1.
<mgrwt>
<rscale>  0 0.77519220E+02</rscale>
<asrwt>0</asrwt>
<pdfrwt beam="1">  1        2 0.12678936E+00 0.77519220E+02</pdfrwt>
<pdfrwt beam="2">  1       -1 0.28044602E-03 0.77519220E+02</pdfrwt>
<totfact> 0.37474300E+05</totfact>
</mgrwt>
</event>
<event>
 8    1  0.7667702E-014  0.8121480E+02  0.7818608E-02  0.1325639E+00
         -1   -1    0    0    0  501 -0.00000000000E+00  0.00000000000E+00  0.70116452645E+01  0.70116470759E+01  0.50400000000E-02 0.  1.
          2   -1    0    0  501    0  0.00000000000E+00 -0.00000000000E+00 -0.23517457465E+03  0.23517457466E+03  0.25500000000E-02 0. -1.
         24    2    1    2    0    0 -0.71054273576E-14  0.00000000000E+00 -0.22816292938E+03  0.24218622174E+03  0.81214799481E+02 0.  0.
         66    2    3    3    0    0  0.36839132316E+02  0.83403823076E+01 -0.15840870038E+03  0.16286190469E+03  0.19999992457E+01 0.  0.
        -13    1    3    3    0    0 -0.36839132316E+02 -0.83403823076E+01 -0.69754229000E+02  0.79324317043E+02  0.10566000000E+00 0.  1.
         13    1    4    4    0    0  0.16400697275E+02  0.38429307295E+01 -0.67838521137E+02  0.69898691703E+02  0.10566000000E+00 0. -1.
        -13    1    4    4    0    0  0.72381024987E+01  0.19692877319E+01 -0.30780426076E+02  0.31681445917E+02  0.10566000000E+00 0.  1.
         14    1    4    4    0    0  0.13200332542E+02  0.25281638461E+01 -0.59789753170E+02  0.61281767074E+02  0.00000000000E+00 0. -1.
<mgrwt>
<rscale>  0 0.81214799E+02</rscale>
<asrwt>0</asrwt>
<pdfrwt beam="1">  1        2 0.36180698E-01 0.81214799E+02</pdfrwt>
<pdfrwt beam="2">  1       -1 0.10787150E-02 0.81214799E+02</pdfrwt>
<totfact> 0.22444188E+05</totfact>
</mgrwt>
</event>
<event>
 8    1  0.7667702E-014  0.7832123E+02  0.7818608E-02  0.1333884E+00
         -1   -1    0    0    0  501 -0.00000000000E+00  0.00000000000E+00  0.50493166705E+02  0.50493166957E+02  0.50400000000E-02 0.  1.
          2   -1    0    0  501    0  0.00000000000E+00 -0.00000000000E+00 -0.30371509457E+02  0.30371509564E+02  0.25500000000E-02 0. -1.
         24    2    1    2    0    0 -0.35527136788E-14  0.35527136788E-14  0.20121657248E+02  0.80864676521E+02  0.78321228402E+02 0.  0.
         66    2    3    3    0    0 -0.16069311487E+02  0.29940977147E+02 -0.99760398365E+01  0.35471203224E+02  0.20000007772E+01 0.  0.
        -13    1    3    3    0    0  0.16069311487E+02 -0.29940977147E+02  0.30097697084E+02  0.45393473297E+02  0.10566000000E+00 0.  1.
         13    1    4    4    0    0 -0.58035162448E+01  0.98057448569E+01 -0.32250572294E+01  0.11842533140E+02  0.10566000000E+00 0. -1.
        -13    1    4    4    0    0 -0.91064826870E+00  0.25729885989E+01 -0.54930130192E+00  0.27861167519E+01  0.10566000000E+00 0.  1.
         14    1    4    4    0    0 -0.93551469739E+01  0.17562243691E+02 -0.62016813051E+01  0.20842553332E+02  0.00000000000E+00 0. -1.
<mgrwt>
<rscale>  0 0.78321228E+02</rscale>
<asrwt>0</asrwt>
<pdfrwt beam="1">  1        2 0.46725399E-02 0.78321228E+02</pdfrwt>
<pdfrwt beam="2">  1       -1 0.77681796E-02 0.78321228E+02</pdfrwt>
<totfact> 0.14311968E+05</totfact>
</mgrwt>
</event>
<event>
 8    1  0.7667702E-014  0.7536856E+02  0.7818608E-02  0.1342734E+00
         -1   -1    0    0    0  501 -0.00000000000E+00  0.00000000000E+00  0.20505535270E+01  0.20505597209E+01  0.50400000000E-02 0.  1.
          2   -1    0    0  501    0  0.00000000000E+00 -0.00000000000E+00 -0.69254600220E+03  0.69254600221E+03  0.25500000000E-02 0. -1.
         24    2    1    2    0    0  0.00000000000E+00  0.88817841970E-15 -0.69049544868E+03  0.69459656193E+03  0.75368555783E+02 0.  0.
         66    2    3    3    0    0  0.34287773509E+02  0.46818646106E+01 -0.48234965904E+03  0.48359359470E+03  0.19999996999E+01 0.  0.
        -13    1    3    3    0    0 -0.34287773509E+02 -0.46818646106E+01 -0.20814578964E+03  0.21100296722E+03  0.10566000000E+00 0.  1.
         13    1    4    4    0    0  0.11529143179E+02  0.10952947724E+01 -0.16739371451E+03  0.16779388438E+03  0.10566000000E+00 0. -1.
        -13    1    4    4    0    0  0.42680420562E+01  0.39782105252E+00 -0.63639548389E+02  0.63783835944E+02  0.10566000000E+00 0.  1.
        -14    1    4    4    0    0  0.18490588273E+02  0.31887487857E+01 -0.25131639614E+03  0.25201587438E+03  0.00000000000E+00 0.  1.
<mgrwt>
<rscale>  0 0.75368556E+02</rscale>
<asrwt>0</asrwt>
<pdfrwt beam="1">  1        2 0.10654535E+00 0.75368556E+02</pdfrwt>
<pdfrwt beam="2">  1       -1 0.31547080E-03 0.75368556E+02</pdfrwt>
<totfact> 0.38946964E+05</totfact>
</mgrwt>
</event>
<event>
 8    1  0.7667702E-014  0.7903593E+02  0.7818608E-02  0.1331810E+00
          2   -1    0    0  501    0  0.00000000000E+00  0.00000000000E+00  0.58103432266E+03  0.58103432266E+03  0.25500000000E-02 0. -1.
         -1   -1    0    0    0  501 -0.00000000000E+00 -0.00000000000E+00 -0.26877379425E+01  0.26877426679E+01  0.50400000000E-02 0.  1.
         24    2    1    2    0    0  0.00000000000E+00  0.00000000000E+00  0.57834658472E+03  0.58372206533E+03  0.79035925393E+02 0.  0.
         66    2    3    3    0    0 -0.12661503871E+02 -0.35883103891E+02  0.36743300681E+03  0.36940347227E+03  0.20000006934E+01 0.  0.
        -13    1    3    3    0    0  0.12661503871E+02  0.35883103891E+02  0.21091357790E+03  0.21431859307E+03  0.10566000000E+00 0.  1.
         13    1    4    4    0    0 -0.77891780337E+01 -0.21072946706E+02  0.21015267839E+03  0.21135018281E+03  0.10566000000E+00 0. -1.
        -13    1    4    4    0    0 -0.10342992441E+01 -0.34990739814E+01  0.33745412128E+02  0.33942264176E+02  0.10566000000E+00 0.  1.
         14    1    4    4    0    0 -0.38380265931E+01 -0.11311083204E+02  0.12353491630E+03  0.12411102528E+03  0.00000000000E+00 0. -1.
<mgrwt>
<rscale>  0 0.79035925E+02</rscale>
<asrwt>0</asrwt>
<pdfrwt beam="1">  1        2 0.89389856E-01 0.79035925E+02</pdfrwt>
<pdfrwt beam="2">  1       -1 0.41349869E-03 0.79035925E+02</pdfrwt>
<totfact> 0.32894059E+05</totfact>
</mgrwt>
</event>
<event>
 8    1  0.7667702E-014  0.7968894E+02  0.7818608E-02  0.1329937E+00
          2   -1    0    0  501    0  0.00000000000E+00  0.00000000000E+00  0.12333005216E+03  0.12333005219E+03  0.25500000000E-02 0. -1.
         -1   -1    0    0    0  501 -0.00000000000E+00 -0.00000000000E+00 -0.12872625332E+02  0.12872626319E+02  0.50400000000E-02 0.  1.
         24    2    1    2    0    0  0.00000000000E+00  0.00000000000E+00  0.11045742683E+03  0.13620267851E+03  0.79688935811E+02 0.  0.
         66    2    3    3    0    0 -0.12327782291E+02 -0.20317056675E+02  0.10987214151E+03  0.11243062073E+03  0.19999973647E+01 0.  0.
        -13    1    3    3    0    0  0.12327782291E+02  0.20317056675E+02  0.58528532190E+00  0.23772057780E+02  0.10566000000E+00 0.  1.
         13    1    4    4    0    0 -0.15579591086E+01 -0.22986088493E+01  0.13828965064E+02  0.14105398896E+02  0.10566000000E+00 0. -1.
        -13    1    4    4    0    0 -0.81740313734E+00 -0.88627725718E+00  0.43077289806E+01  0.44745198928E+01  0.10566000000E+00 0.  1.
        -14    1    4    4    0    0 -0.99524200448E+01 -0.17132170568E+02  0.91735447466E+02  0.93850701942E+02  0.00000000000E+00 0.  1.
<mgrwt>
<rscale>  0 0.79688936E+02</rscale>
<asrwt>0</asrwt>
<pdfrwt beam="1">  1        2 0.18973854E-01 0.79688936E+02</pdfrwt>
<pdfrwt beam="2">  1       -1 0.19804040E-02 0.79688936E+02</pdfrwt>
<totfact> 0.19037653E+05</totfact>
</mgrwt>
</event>
<event>
 8    1  0.7667702E-014  0.7582083E+02  0.7818608E-02  0.1341348E+00
         -1   -1    0    0    0  501 -0.00000000000E+00  0.00000000000E+00  0.25629122043E+02  0.25629122539E+02  0.50400000000E-02 0.  1.
          2   -1    0    0  501    0  0.00000000000E+00 -0.00000000000E+00 -0.56076815513E+02  0.56076815571E+02  0.25500000000E-02 0. -1.
         24    2    1    2    0    0  0.17763568394E-14  0.00000000000E+00 -0.30447693470E+02  0.81705938110E+02  0.75820830151E+02 0.  0.
         66    2    3    3    0    0 -0.15192676271E+02  0.29818968030E+02 -0.34366508440E+02  0.48010885929E+02  0.19999996712E+01 0.  0.
        -13    1    3    3    0    0  0.15192676271E+02 -0.29818968030E+02  0.39188149703E+01  0.33695052181E+02  0.10566000000E+00 0.  1.
         13    1    4    4    0    0 -0.75314565229E+01  0.13972492130E+02 -0.15721601407E+02  0.22341291111E+02  0.10566000000E+00 0. -1.
        -13    1    4    4    0    0 -0.78556078226E+00  0.11974649240E+01 -0.19184244423E+01  0.23963606497E+01  0.10566000000E+00 0.  1.
         14    1    4    4    0    0 -0.68756589659E+01  0.14649010976E+02 -0.16726482591E+02  0.23273234169E+02  0.00000000000E+00 0. -1.
<mgrwt>
<rscale>  0 0.75820830E+02</rscale>
<asrwt>0</asrwt>
<pdfrwt beam="1">  1        2 0.86272024E-02 0.75820830E+02</pdfrwt>
<pdfrwt beam="2">  1       -1 0.39429419E-02 0.75820830E+02</pdfrwt>
<totfact> 0.17733484E+05</totfact>
</mgrwt>
</event>
<event>
 8    1  0.7667702E-014  0.7954884E+02  0.7818608E-02  0.1330337E+00
          2   -1    0    0  501    0  0.00000000000E+00  0.00000000000E+00  0.38830868122E+03  0.38830868123E+03  0.25500000000E-02 0. -1.
         -1   -1    0    0    0  501 -0.00000000000E+00 -0.00000000000E+00 -0.40740882589E+01  0.40740913764E+01  0.50400000000E-02 0.  1.
         24    2    1    2    0    0  0.00000000000E+00  0.00000000000E+00  0.38423459296E+03  0.39238277261E+03  0.79548839143E+02 0.  0.
         66    2    3    3    0    0  0.12677390508E+02 -0.24367138094E+02  0.33396175124E+03  0.33509539679E+03  0.20000023900E+01 0.  0.
        -13    1    3    3    0    0 -0.12677390508E+02  0.24367138094E+02  0.50272841719E+02  0.57287375813E+02  0.10566000000E+00 0.  1.
         13    1    4    4    0    0  0.51415968826E+01 -0.91884451322E+01  0.12890071726E+03  0.12933008009E+03  0.10566000000E+00 0. -1.
        -13    1    4    4    0    0  0.16698788790E+01 -0.32259263395E+01  0.37212463053E+02  0.37389486045E+02  0.10566000000E+00 0.  1.
         14    1    4    4    0    0  0.58659147459E+01 -0.11952766622E+02  0.16784857094E+03  0.16837583066E+03  0.00000000000E+00 0. -1.
<mgrwt>
<rscale>  0 0.79548839E+02</rscale>
<asrwt>0</asrwt>
<pdfrwt beam="1">  1        2 0.59739803E-01 0.79548839E+02</pdfrwt>
<pdfrwt beam="2">  1       -1 0.62678299E-03 0.79548839E+02</pdfrwt>
<totfact> 0.28377215E+05</totfact>
</mgrwt>
</event>
<event>
 8    1  0.7667702E-014  0.8227561E+02  0.7818608E-02  0.1322715E+00
         -1   -1    0    0    0  501 -0.00000000000E+00  0.00000000000E+00  0.39275285307E+02  0.39275285630E+02  0.50400000000E-02 0.  1.
          2   -1    0    0  501    0  0.00000000000E+00 -0.00000000000E+00 -0.43088645233E+02  0.43088645309E+02  0.25500000000E-02 0. -1.
         24    2    1    2    0    0  0.00000000000E+00  0.17763568394E-14 -0.38133599263E+01  0.82363930939E+02  0.82275606384E+02 0.  0.
         66    2    3    3    0    0  0.29244910368E+02 -0.10409794494E+02 -0.28893843222E+02  0.42455655980E+02  0.19999861868E+01 0.  0.
        -13    1    3    3    0    0 -0.29244910368E+02  0.10409794494E+02  0.25080483296E+02  0.39908274959E+02  0.10566000000E+00 0.  1.
         13    1    4    4    0    0  0.10751440425E+02 -0.40040348828E+01 -0.10267322787E+02  0.15396585589E+02  0.10566000000E+00 0.  1.
        -13    1    4    4    0    0  0.10235442502E+02 -0.33982425233E+01 -0.92630765428E+01  0.14217175758E+02  0.10566000000E+00 0. -1.
         14    1    4    4    0    0  0.82580274403E+01 -0.30075170880E+01 -0.93634438920E+01  0.12841894633E+02  0.00000000000E+00 0. -1.
<mgrwt>
<rscale>  0 0.82275606E+02</rscale>
<asrwt>0</asrwt>
<pdfrwt beam="1">  1        2 0.66290223E-02 0.82275606E+02</pdfrwt>
<pdfrwt beam="2">  1       -1 0.60423517E-02 0.82275606E+02</pdfrwt>
<totfact> 0.13397696E+05</totfact>
</mgrwt>
</event>
<event>
 8    1  0.7667702E-014  0.8269354E+02  0.7818608E-02  0.1321577E+00
          2   -1    0    0  501    0  0.00000000000E+00  0.00000000000E+00  0.61580584542E+03  0.61580584542E+03  0.25500000000E-02 0. -1.
         -1   -1    0    0    0  501 -0.00000000000E+00 -0.00000000000E+00 -0.27761248847E+01  0.27761294597E+01  0.50400000000E-02 0.  1.
         24    2    1    2    0    0  0.00000000000E+00 -0.88817841970E-15  0.61302972053E+03  0.61858197488E+03  0.82693539004E+02 0.  0.
         66    2    3    3    0    0  0.36602263259E+02 -0.62779965865E+01  0.44225467082E+03  0.44381565180E+03  0.19999999997E+01 0.  0.
        -13    1    3    3    0    0 -0.36602263259E+02  0.62779965865E+01  0.17077504971E+03  0.17476632309E+03  0.10566000000E+00 0.  1.
         13    1    4    4    0    0  0.20839888264E+02 -0.28734728977E+01  0.24464771481E+03  0.24555055145E+03  0.10566000000E+00 0. -1.
        -13    1    4    4    0    0  0.15132159446E+02 -0.31248952518E+01  0.18913062468E+03  0.18976077460E+03  0.10566000000E+00 0.  1.
         14    1    4    4    0    0  0.63021554843E+00 -0.27962843708E+00  0.84763313246E+01  0.85043257478E+01  0.00000000000E+00 0. -1.
<mgrwt>
<rscale>  0 0.82693539E+02</rscale>
<asrwt>0</asrwt>
<pdfrwt beam="1">  1        2 0.94739417E-01 0.82693539E+02</pdfrwt>
<pdfrwt beam="2">  1       -1 0.42709624E-03 0.82693539E+02</pdfrwt>
<totfact> 0.29715832E+05</totfact>
</mgrwt>
</event>
<event>
 8    1  0.7667702E-014  0.8143739E+02  0.7818608E-02  0.1325021E+00
          2   -1    0    0  501    0  0.00000000000E+00  0.00000000000E+00  0.82566643735E+01  0.82566647673E+01  0.25500000000E-02 0. -1.
         -1   -1    0    0    0  501 -0.00000000000E+00 -0.00000000000E+00 -0.20080894601E+03  0.20080894607E+03  0.50400000000E-02 0.  1.
         24    2    1    2    0    0 -0.35527136788E-14 -0.71054273576E-14 -0.19255228164E+03  0.20906561084E+03  0.81437389894E+02 0.  0.
         66    2    3    3    0    0 -0.20148487404E+02 -0.35334019599E+02 -0.93135181198E+02  0.10164947840E+03  0.19999989423E+01 0.  0.
        -13    1    3    3    0    0  0.20148487404E+02  0.35334019599E+02 -0.99417100439E+02  0.10741613245E+03  0.10566000000E+00 0.  1.
         13    1    4    4    0    0 -0.11797902394E+01 -0.26128513567E+01 -0.71135526656E+01  0.76702472440E+01  0.10566000000E+00 0.  1.
        -13    1    4    4    0    0 -0.11747408112E+02 -0.19580349707E+02 -0.50490087210E+02  0.55413461925E+02  0.10566000000E+00 0. -1.
         14    1    4    4    0    0 -0.72212890521E+01 -0.13140818536E+02 -0.35531541323E+02  0.38565769228E+02  0.00000000000E+00 0. -1.
<mgrwt>
<rscale>  0 0.81437390E+02</rscale>
<asrwt>0</asrwt>
<pdfrwt beam="1">  1        2 0.12702562E-02 0.81437390E+02</pdfrwt>
<pdfrwt beam="2">  1       -1 0.30893680E-01 0.81437390E+02</pdfrwt>
<totfact> 0.95071748E+04</totfact>
</mgrwt>
</event>
<event>
 8    1  0.7667702E-014  0.7980167E+02  0.7818608E-02  0.1329615E+00
          2   -1    0    0  501    0  0.00000000000E+00  0.00000000000E+00  0.27071700329E+02  0.27071700449E+02  0.25500000000E-02 0. -1.
         -1   -1    0    0    0  501 -0.00000000000E+00 -0.00000000000E+00 -0.58809629699E+02  0.58809629915E+02  0.50400000000E-02 0.  1.
         24    2    1    2    0    0  0.88817841970E-15  0.00000000000E+00 -0.31737929369E+02  0.85881330364E+02  0.79801671314E+02 0.  0.
         66    2    3    3    0    0 -0.75006639105E+01 -0.18416349214E+02  0.21318025154E+02  0.29221226659E+02  0.20000033722E+01 0.  0.
        -13    1    3    3    0    0  0.75006639105E+01  0.18416349214E+02 -0.53055954524E+02  0.56660103705E+02  0.10566000000E+00 0.  1.
         13    1    4    4    0    0 -0.29618741426E+01 -0.80782951809E+01  0.84349662777E+01  0.12049538232E+02  0.10566000000E+00 0. -1.
        -13    1    4    4    0    0 -0.75272304347E+00 -0.26993524616E+01  0.36771195079E+01  0.46244424100E+01  0.10566000000E+00 0.  1.
         14    1    4    4    0    0 -0.37860667245E+01 -0.76387015712E+01  0.92059393687E+01  0.12547246016E+02  0.00000000000E+00 0. -1.
<mgrwt>
<rscale>  0 0.79801671E+02</rscale>
<asrwt>0</asrwt>
<pdfrwt beam="1">  1        2 0.41648770E-02 0.79801671E+02</pdfrwt>
<pdfrwt beam="2">  1       -1 0.90476354E-02 0.79801671E+02</pdfrwt>
<totfact> 0.13278262E+05</totfact>
</mgrwt>
</event>
<event>
 8    1  0.7667702E-014  0.8046356E+02  0.7818608E-02  0.1327741E+00
          2   -1    0    0  501    0  0.00000000000E+00  0.00000000000E+00  0.18897469211E+02  0.18897469384E+02  0.25500000000E-02 0. -1.
         -1   -1    0    0    0  501 -0.00000000000E+00 -0.00000000000E+00 -0.85651484704E+02  0.85651484853E+02  0.50400000000E-02 0.  1.
         24    2    1    2    0    0  0.00000000000E+00  0.71054273576E-14 -0.66754015493E+02  0.10454895424E+03  0.80463564720E+02 0.  0.
         66    2    3    3    0    0 -0.56796342840E+01  0.38274269955E+02 -0.19198926591E+02  0.43240915361E+02  0.19999982121E+01 0.  0.
        -13    1    3    3    0    0  0.56796342840E+01 -0.38274269955E+02 -0.47555088902E+02  0.61308038875E+02  0.10566000000E+00 0.  1.
         13    1    4    4    0    0 -0.27518797341E+01  0.19446532999E+02 -0.97344503393E+01  0.21920565120E+02  0.10566000000E+00 0. -1.
        -13    1    4    4    0    0 -0.16647005534E+01  0.66230185626E+01 -0.36124881377E+01  0.77263728485E+01  0.10566000000E+00 0.  1.
         14    1    4    4    0    0 -0.12630539965E+01  0.12204718393E+02 -0.58519881135E+01  0.13593977392E+02  0.00000000000E+00 0. -1.
<mgrwt>
<rscale>  0 0.80463565E+02</rscale>
<asrwt>0</asrwt>
<pdfrwt beam="1">  1        2 0.29073030E-02 0.80463565E+02</pdfrwt>
<pdfrwt beam="2">  1       -1 0.13177151E-01 0.80463565E+02</pdfrwt>
<totfact> 0.12070342E+05</totfact>
</mgrwt>
</event>
<event>
 8    1  0.7667702E-014  0.7971215E+02  0.7818608E-02  0.1329870E+00
          2   -1    0    0  501    0  0.00000000000E+00  0.00000000000E+00  0.41142684359E+02  0.41142684438E+02  0.25500000000E-02 0. -1.
         -1   -1    0    0    0  501 -0.00000000000E+00 -0.00000000000E+00 -0.38609699719E+02  0.38609700048E+02  0.50400000000E-02 0.  1.
         24    2    1    2    0    0  0.00000000000E+00  0.00000000000E+00  0.25329846401E+01  0.79752384486E+02  0.79712149765E+02 0.  0.
         66    2    3    3    0    0 -0.21771031939E+02 -0.19513833098E+02  0.28331527760E+02  0.40760801997E+02  0.20000001041E+01 0.  0.
        -13    1    3    3    0    0  0.21771031939E+02  0.19513833098E+02 -0.25798543120E+02  0.38991582489E+02  0.10566000000E+00 0.  1.
         13    1    4    4    0    0 -0.95910511407E+01 -0.88312603256E+01  0.13341445640E+02  0.18654349539E+02  0.10566000000E+00 0. -1.
        -13    1    4    4    0    0 -0.45796562289E+01 -0.41901390436E+01  0.65414848677E+01  0.90184646526E+01  0.10566000000E+00 0.  1.
         14    1    4    4    0    0 -0.76003245695E+01 -0.64924337285E+01  0.84485972523E+01  0.13087987806E+02  0.00000000000E+00 0. -1.
<mgrwt>
<rscale>  0 0.79712150E+02</rscale>
<asrwt>0</asrwt>
<pdfrwt beam="1">  1        2 0.63296437E-02 0.79712150E+02</pdfrwt>
<pdfrwt beam="2">  1       -1 0.59399539E-02 0.79712150E+02</pdfrwt>
<totfact> 0.14481609E+05</totfact>
</mgrwt>
</event>
<event>
 8    1  0.7667702E-014  0.7769575E+02  0.7818608E-02  0.1335721E+00
         -1   -1    0    0    0  501 -0.00000000000E+00  0.00000000000E+00  0.28833470208E+02  0.28833470648E+02  0.50400000000E-02 0.  1.
          2   -1    0    0  501    0  0.00000000000E+00 -0.00000000000E+00 -0.52340474798E+02  0.52340474860E+02  0.25500000000E-02 0. -1.
         24    2    1    2    0    0  0.35527136788E-14  0.00000000000E+00 -0.23507004591E+02  0.81173945509E+02  0.77695753839E+02 0.  0.
         66    2    3    3    0    0  0.24970519115E+02 -0.19670865440E+01 -0.42749770386E+02  0.49587691318E+02  0.20000019586E+01 0.  0.
        -13    1    3    3    0    0 -0.24970519115E+02  0.19670865440E+01  0.19242765795E+02  0.31586254191E+02  0.10566000000E+00 0.  1.
         13    1    4    4    0    0  0.12557427283E+02 -0.10535276681E+01 -0.23111333616E+02  0.26323825825E+02  0.10566000000E+00 0.  1.
        -13    1    4    4    0    0  0.83179744502E+01 -0.95988134835E+00 -0.13397687639E+02  0.15799343950E+02  0.10566000000E+00 0.  1.
         14    1    4    4    0    0  0.40951173813E+01  0.46322472499E-01 -0.62407491309E+01  0.74645215421E+01  0.00000000000E+00 0. -1.
<mgrwt>
<rscale>  0 0.77695754E+02</rscale>
<asrwt>0</asrwt>
<pdfrwt beam="1">  1        2 0.80523808E-02 0.77695754E+02</pdfrwt>
<pdfrwt beam="2">  1       -1 0.44359185E-02 0.77695754E+02</pdfrwt>
<totfact> 0.16346703E+05</totfact>
</mgrwt>
</event>
<event>
 8    1  0.7667702E-014  0.8048119E+02  0.7818608E-02  0.1327691E+00
         -1   -1    0    0    0  501 -0.00000000000E+00  0.00000000000E+00  0.14116592604E+02  0.14116593504E+02  0.50400000000E-02 0.  1.
          2   -1    0    0  501    0  0.00000000000E+00 -0.00000000000E+00 -0.11470937543E+03  0.11470937546E+03  0.25500000000E-02 0. -1.
         24    2    1    2    0    0 -0.17763568394E-14  0.17763568394E-14 -0.10059278282E+03  0.12882596896E+03  0.80481192351E+02 0.  0.
         66    2    3    3    0    0  0.88376495909E+01 -0.12437043713E+02 -0.10988783090E+03  0.11095999042E+03  0.19999968529E+01 0.  0.
        -13    1    3    3    0    0 -0.88376495909E+01  0.12437043713E+02  0.92950480729E+01  0.17865978544E+02  0.10566000000E+00 0.  1.
         13    1    4    4    0    0  0.13406026203E+01 -0.14303595233E+01 -0.15416505457E+02  0.15541008599E+02  0.10566000000E+00 0. -1.
        -13    1    4    4    0    0  0.29517860593E+01 -0.56344424979E+01 -0.42547814388E+02  0.43020781681E+02  0.10566000000E+00 0.  1.
        -14    1    4    4    0    0  0.45452609113E+01 -0.53722416915E+01 -0.51923511051E+02  0.52398200135E+02  0.00000000000E+00 0.  1.
<mgrwt>
<rscale>  0 0.80481192E+02</rscale>
<asrwt>0</asrwt>
<pdfrwt beam="1">  1        2 0.17647596E-01 0.80481192E+02</pdfrwt>
<pdfrwt beam="2">  1       -1 0.21717836E-02 0.80481192E+02</pdfrwt>
<totfact> 0.18145261E+05</totfact>
</mgrwt>
</event>
<event>
 8    1  0.7667702E-014  0.8001684E+02  0.7818608E-02  0.1329004E+00
          2   -1    0    0  501    0  0.00000000000E+00  0.00000000000E+00  0.90446282740E+02  0.90446282776E+02  0.25500000000E-02 0. -1.
         -1   -1    0    0    0  501 -0.00000000000E+00 -0.00000000000E+00 -0.17697507534E+02  0.17697508252E+02  0.50400000000E-02 0.  1.
         24    2    1    2    0    0  0.00000000000E+00  0.00000000000E+00  0.72748775206E+02  0.10814379103E+03  0.80016843501E+02 0.  0.
         66    2    3    3    0    0  0.13925230815E+02 -0.10775615188E+02  0.84913214168E+02  0.86742607060E+02  0.20000008265E+01 0.  0.
        -13    1    3    3    0    0 -0.13925230815E+02  0.10775615188E+02 -0.12164438962E+02  0.21401183968E+02  0.10566000000E+00 0.  1.
         13    1    4    4    0    0  0.83274281641E+01 -0.59214274866E+01  0.50271918487E+02  0.51299964091E+02  0.10566000000E+00 0. -1.
        -13    1    4    4    0    0  0.95509657939E+00 -0.69237667237E+00  0.76078249886E+01  0.76994649181E+01  0.10566000000E+00 0.  1.
         14    1    4    4    0    0  0.46427060714E+01 -0.41618110287E+01  0.27033470692E+02  0.27743178051E+02  0.00000000000E+00 0. -1.
<mgrwt>
<rscale>  0 0.80016844E+02</rscale>
<asrwt>0</asrwt>
<pdfrwt beam="1">  1        2 0.13914813E-01 0.80016844E+02</pdfrwt>
<pdfrwt beam="2">  1       -1 0.27226935E-02 0.80016844E+02</pdfrwt>
<totfact> 0.17233909E+05</totfact>
</mgrwt>
</event>
<event>
 8    1  0.7667702E-014  0.8247043E+02  0.7818608E-02  0.1322183E+00
          2   -1    0    0  501    0  0.00000000000E+00  0.00000000000E+00  0.11805312588E+03  0.11805312591E+03  0.25500000000E-02 0. -1.
         -1   -1    0    0    0  501 -0.00000000000E+00 -0.00000000000E+00 -0.14403201976E+02  0.14403202858E+02  0.50400000000E-02 0.  1.
         24    2    1    2    0    0  0.00000000000E+00  0.00000000000E+00  0.10364992390E+03  0.13245632876E+03  0.82470432911E+02 0.  0.
         66    2    3    3    0    0 -0.17509395557E+02  0.36685967353E+02  0.40974180837E+02  0.57752252127E+02  0.19999992694E+01 0.  0.
        -13    1    3    3    0    0  0.17509395557E+02 -0.36685967353E+02  0.62675743067E+02  0.74704076638E+02  0.10566000000E+00 0.  1.
         13    1    4    4    0    0 -0.99362556249E+01  0.20988752988E+02  0.24287608336E+02  0.33602916697E+02  0.10566000000E+00 0. -1.
        -13    1    4    4    0    0 -0.30474621890E+01  0.55810293494E+01  0.56069988513E+01  0.84784735976E+01  0.10566000000E+00 0.  1.
         14    1    4    4    0    0 -0.45256777427E+01  0.10116185015E+02  0.11079573650E+02  0.15670861832E+02  0.00000000000E+00 0. -1.
<mgrwt>
<rscale>  0 0.82470433E+02</rscale>
<asrwt>0</asrwt>
<pdfrwt beam="1">  1        2 0.18162019E-01 0.82470433E+02</pdfrwt>
<pdfrwt beam="2">  1       -1 0.22158773E-02 0.82470433E+02</pdfrwt>
<totfact> 0.17143950E+05</totfact>
</mgrwt>
</event>
<event>
 8    1  0.7667702E-014  0.8030332E+02  0.7818608E-02  0.1328193E+00
         -1   -1    0    0    0  501 -0.00000000000E+00  0.00000000000E+00  0.63288669124E+02  0.63288669324E+02  0.50400000000E-02 0.  1.
          2   -1    0    0  501    0  0.00000000000E+00 -0.00000000000E+00 -0.25473055930E+02  0.25473056058E+02  0.25500000000E-02 0. -1.
         24    2    1    2    0    0 -0.35527136788E-14 -0.35527136788E-14  0.37815613193E+02  0.88761725382E+02  0.80303320552E+02 0.  0.
         66    2    3    3    0    0 -0.28693919167E+02 -0.24090882825E+02  0.30381184097E+01  0.37642287397E+02  0.20000011313E+01 0.  0.
        -13    1    3    3    0    0  0.28693919167E+02  0.24090882825E+02  0.34777494783E+02  0.51119437985E+02  0.10566000000E+00 0.  1.
         13    1    4    4    0    0 -0.62394028343E+01 -0.54818918229E+01  0.15674436755E+00  0.83076481943E+01  0.10566000000E+00 0. -1.
        -13    1    4    4    0    0 -0.73692136884E+01 -0.65083424853E+01  0.15048495158E+01  0.99468371049E+01  0.10566000000E+00 0.  1.
        -14    1    4    4    0    0 -0.15085302645E+02 -0.12100648517E+02  0.13765245264E+01  0.19387802098E+02  0.00000000000E+00 0.  1.
<mgrwt>
<rscale>  0 0.80303321E+02</rscale>
<asrwt>0</asrwt>
<pdfrwt beam="1">  1        2 0.39189317E-02 0.80303321E+02</pdfrwt>
<pdfrwt beam="2">  1       -1 0.97367184E-02 0.80303321E+02</pdfrwt>
<totfact> 0.12889707E+05</totfact>
</mgrwt>
</event>
<event>
 8    1  0.7667702E-014  0.7999170E+02  0.7818608E-02  0.1329075E+00
          2   -1    0    0  501    0  0.00000000000E+00  0.00000000000E+00  0.13809763109E+03  0.13809763111E+03  0.25500000000E-02 0. -1.
         -1   -1    0    0    0  501 -0.00000000000E+00 -0.00000000000E+00 -0.11583602927E+02  0.11583604024E+02  0.50400000000E-02 0.  1.
         24    2    1    2    0    0  0.00000000000E+00 -0.22204460493E-15  0.12651402816E+03  0.14968123514E+03  0.79991704759E+02 0.  0.
         66    2    3    3    0    0 -0.19181491576E+02 -0.10311863921E+01  0.12888681787E+03  0.13032576409E+03  0.19999999966E+01 0.  0.
        -13    1    3    3    0    0  0.19181491576E+02  0.10311863921E+01 -0.23727897087E+01  0.19355471048E+02  0.10566000000E+00 0.  1.
         13    1    4    4    0    0 -0.58132880859E+01 -0.74685225380E+00  0.42639062117E+02  0.43040131145E+02  0.10566000000E+00 0. -1.
        -13    1    4    4    0    0 -0.39862300894E+01  0.33585536952E+00  0.23829834141E+02  0.24163505300E+02  0.10566000000E+00 0.  1.
         14    1    4    4    0    0 -0.93819734008E+01 -0.62018950779E+00  0.62417921612E+02  0.63122127643E+02  0.00000000000E+00 0. -1.
<mgrwt>
<rscale>  0 0.79991705E+02</rscale>
<asrwt>0</asrwt>
<pdfrwt beam="1">  1        2 0.21245789E-01 0.79991705E+02</pdfrwt>
<pdfrwt beam="2">  1       -1 0.17820929E-02 0.79991705E+02</pdfrwt>
<totfact> 0.19515290E+05</totfact>
</mgrwt>
</event>
<event>
 8    1  0.7667702E-014  0.8509279E+02  0.7818608E-02  0.1315190E+00
          2   -1    0    0  501    0  0.00000000000E+00  0.00000000000E+00  0.29477825121E+03  0.29477825122E+03  0.25500000000E-02 0. -1.
         -1   -1    0    0    0  501 -0.00000000000E+00 -0.00000000000E+00 -0.61408721988E+01  0.61408742670E+01  0.50400000000E-02 0.  1.
         24    2    1    2    0    0 -0.71054273576E-14  0.00000000000E+00  0.28863737901E+03  0.30091912548E+03  0.85092793596E+02 0.  0.
         66    2    3    3    0    0  0.37801541596E+02 -0.15530499251E+02  0.18594677118E+03  0.19039525904E+03  0.19999995721E+01 0.  0.
        -13    1    3    3    0    0 -0.37801541596E+02  0.15530499251E+02  0.10269060783E+03  0.11052386645E+03  0.10566000000E+00 0.  1.
         13    1    4    4    0    0  0.13149058379E+02 -0.62182765183E+01  0.63684444900E+02  0.65324454727E+02  0.10566000000E+00 0. -1.
        -13    1    4    4    0    0  0.20562195250E+01 -0.74293183384E+00  0.10338988490E+02  0.10568151848E+02  0.10566000000E+00 0.  1.
         14    1    4    4    0    0  0.22596263692E+02 -0.85692908993E+01  0.11192333779E+03  0.11450265246E+03  0.00000000000E+00 0. -1.
<mgrwt>
<rscale>  0 0.85092794E+02</rscale>
<asrwt>0</asrwt>
<pdfrwt beam="1">  1        2 0.45350503E-01 0.85092794E+02</pdfrwt>
<pdfrwt beam="2">  1       -1 0.94474968E-03 0.85092794E+02</pdfrwt>
<totfact> 0.21536770E+05</totfact>
</mgrwt>
</event>
<event>
 8    1  0.7667702E-014  0.7986800E+02  0.7818608E-02  0.1329426E+00
          2   -1    0    0  501    0  0.00000000000E+00  0.00000000000E+00  0.53646500719E+03  0.53646500719E+03  0.25500000000E-02 0. -1.
         -1   -1    0    0    0  501 -0.00000000000E+00 -0.00000000000E+00 -0.29726512227E+01  0.29726554953E+01  0.50400000000E-02 0.  1.
         24    2    1    2    0    0  0.35527136788E-14 -0.88817841970E-15  0.53349235596E+03  0.53943766269E+03  0.79868003946E+02 0.  0.
         66    2    3    3    0    0  0.25265913083E+02 -0.68662377812E+01  0.47034619412E+03  0.47107860693E+03  0.19999983232E+01 0.  0.
        -13    1    3    3    0    0 -0.25265913083E+02  0.68662377812E+01  0.63146161839E+02  0.68359055759E+02  0.10566000000E+00 0.  1.
         13    1    4    4    0    0  0.12370146919E+01 -0.19573103880E+00  0.26031254983E+02  0.26061579307E+02  0.10566000000E+00 0. -1.
        -13    1    4    4    0    0  0.59347716873E+01 -0.22484706522E+01  0.10659733378E+03  0.10678614081E+03  0.10566000000E+00 0.  1.
         14    1    4    4    0    0  0.18094126704E+02 -0.44220360901E+01  0.33771760536E+03  0.33823088681E+03  0.00000000000E+00 0. -1.
<mgrwt>
<rscale>  0 0.79868004E+02</rscale>
<asrwt>0</asrwt>
<pdfrwt beam="1">  1        2 0.82532991E-01 0.79868004E+02</pdfrwt>
<pdfrwt beam="2">  1       -1 0.45733177E-03 0.79868004E+02</pdfrwt>
<totfact> 0.31261434E+05</totfact>
</mgrwt>
</event>
<event>
 8    1  0.7667702E-014  0.7992809E+02  0.7818608E-02  0.1329256E+00
         -1   -1    0    0    0  501 -0.00000000000E+00  0.00000000000E+00  0.11715580052E+02  0.11715581136E+02  0.50400000000E-02 0.  1.
          2   -1    0    0  501    0  0.00000000000E+00 -0.00000000000E+00 -0.13632486953E+03  0.13632486956E+03  0.25500000000E-02 0. -1.
         24    2    1    2    0    0  0.17763568394E-14  0.00000000000E+00 -0.12460928948E+03  0.14804045069E+03  0.79928092787E+02 0.  0.
         66    2    3    3    0    0  0.95094669348E+01 -0.23048674764E+02 -0.12013152158E+03  0.12270800235E+03  0.19999982281E+01 0.  0.
        -13    1    3    3    0    0 -0.95094669348E+01  0.23048674764E+02 -0.44777678983E+01  0.25332448345E+02  0.10566000000E+00 0.  1.
         13    1    4    4    0    0  0.50900151468E+01 -0.11618559920E+02 -0.57072097188E+02  0.58464815319E+02  0.10566000000E+00 0. -1.
        -13    1    4    4    0    0  0.51255042864E+00 -0.86791165621E+00 -0.50159980586E+01  0.51173605643E+01  0.10566000000E+00 0.  1.
        -14    1    4    4    0    0  0.39069013594E+01 -0.10562203187E+02 -0.58043426336E+02  0.59125826465E+02  0.00000000000E+00 0.  1.
<mgrwt>
<rscale>  0 0.79928093E+02</rscale>
<asrwt>0</asrwt>
<pdfrwt beam="1">  1        2 0.20973056E-01 0.79928093E+02</pdfrwt>
<pdfrwt beam="2">  1       -1 0.18023971E-02 0.79928093E+02</pdfrwt>
<totfact> 0.19477551E+05</totfact>
</mgrwt>
</event>
<event>
 8    1  0.7667702E-014  0.7906418E+02  0.7818608E-02  0.1331728E+00
         -1   -1    0    0    0  501 -0.00000000000E+00  0.00000000000E+00  0.62791017629E+01  0.62791037856E+01  0.50400000000E-02 0.  1.
          2   -1    0    0  501    0  0.00000000000E+00 -0.00000000000E+00 -0.24888686087E+03  0.24888686089E+03  0.25500000000E-02 0. -1.
         24    2    1    2    0    0  0.00000000000E+00  0.35527136788E-14 -0.24260775911E+03  0.25516596467E+03  0.79064181185E+02 0.  0.
         66    2    3    3    0    0 -0.17888271234E+02  0.31787935530E+02 -0.72402605966E+02  0.81096241820E+02  0.19999983893E+01 0.  0.
        -13    1    3    3    0    0  0.17888271234E+02 -0.31787935530E+02 -0.17020515314E+03  0.17406972285E+03  0.10566000000E+00 0.  1.
         13    1    4    4    0    0 -0.10927314716E+01  0.12720415836E+01 -0.33756216003E+01  0.37706945095E+01  0.10566000000E+00 0.  1.
        -13    1    4    4    0    0 -0.99997451953E+01  0.17731295190E+02 -0.41428198532E+02  0.46159511812E+02  0.10566000000E+00 0. -1.
         14    1    4    4    0    0 -0.67957945672E+01  0.12784598756E+02 -0.27598785834E+02  0.31166035498E+02  0.00000000000E+00 0. -1.
<mgrwt>
<rscale>  0 0.79064181E+02</rscale>
<asrwt>0</asrwt>
<pdfrwt beam="1">  1        2 0.38290279E-01 0.79064181E+02</pdfrwt>
<pdfrwt beam="2">  1       -1 0.96601601E-03 0.79064181E+02</pdfrwt>
<totfact> 0.24578549E+05</totfact>
</mgrwt>
</event>
<event>
 8    1  0.7667702E-014  0.7822321E+02  0.7818608E-02  0.1334171E+00
         -1   -1    0    0    0  501 -0.00000000000E+00  0.00000000000E+00  0.11517129428E+02  0.11517130530E+02  0.50400000000E-02 0.  1.
          2   -1    0    0  501    0  0.00000000000E+00 -0.00000000000E+00 -0.13282107984E+03  0.13282107987E+03  0.25500000000E-02 0. -1.
         24    2    1    2    0    0  0.17763568394E-14 -0.22204460493E-15 -0.12130395041E+03  0.14433821040E+03  0.78223210074E+02 0.  0.
         66    2    3    3    0    0  0.15782598224E+02  0.15169314598E+01 -0.12661280080E+03  0.12761736878E+03  0.20000001160E+01 0.  0.
        -13    1    3    3    0    0 -0.15782598224E+02 -0.15169314598E+01  0.53088503886E+01  0.16720841612E+02  0.10566000000E+00 0.  1.
         13    1    4    4    0    0  0.23588994753E+01  0.23181411235E-01 -0.15038265483E+02  0.15222533852E+02  0.10566000000E+00 0. -1.
        -13    1    4    4    0    0  0.40463771331E+01 -0.30274240285E-01 -0.34909653085E+02  0.35143550290E+02  0.10566000000E+00 0.  1.
        -14    1    4    4    0    0  0.93773216153E+01  0.15240242889E+01 -0.76664882234E+02  0.77251284641E+02  0.00000000000E+00 0.  1.
<mgrwt>
<rscale>  0 0.78223210E+02</rscale>
<asrwt>0</asrwt>
<pdfrwt beam="1">  1        2 0.20434011E-01 0.78223210E+02</pdfrwt>
<pdfrwt beam="2">  1       -1 0.17718662E-02 0.78223210E+02</pdfrwt>
<totfact> 0.20459285E+05</totfact>
</mgrwt>
</event>
<event>
 8    1  0.7667702E-014  0.7897472E+02  0.7818608E-02  0.1331986E+00
          2   -1    0    0  501    0  0.00000000000E+00  0.00000000000E+00  0.13362484370E+03  0.13362484372E+03  0.25500000000E-02 0. -1.
         -1   -1    0    0    0  501 -0.00000000000E+00 -0.00000000000E+00 -0.11668873763E+02  0.11668874851E+02  0.50400000000E-02 0.  1.
         24    2    1    2    0    0 -0.35527136788E-14  0.00000000000E+00  0.12195596993E+03  0.14529371857E+03  0.78974717815E+02 0.  0.
         66    2    3    3    0    0  0.17917363642E+02 -0.31819700440E+02  0.88534702711E+02  0.95791016395E+02  0.19999954622E+01 0.  0.
        -13    1    3    3    0    0 -0.17917363642E+02  0.31819700440E+02  0.33421267221E+02  0.49502702176E+02  0.10566000000E+00 0.  1.
         13    1    4    4    0    0  0.78624210394E+01 -0.14780317254E+02  0.39541873525E+02  0.42940032239E+02  0.10566000000E+00 0.  1.
        -13    1    4    4    0    0  0.54281818855E+01 -0.10193634954E+02  0.29403849726E+02  0.31590708997E+02  0.10566000000E+00 0. -1.
        -14    1    4    4    0    0  0.46267607176E+01 -0.68457482313E+01  0.19588979460E+02  0.21260275159E+02  0.00000000000E+00 0.  1.
<mgrwt>
<rscale>  0 0.78974718E+02</rscale>
<asrwt>0</asrwt>
<pdfrwt beam="1">  1        2 0.20557667E-01 0.78974718E+02</pdfrwt>
<pdfrwt beam="2">  1       -1 0.17952116E-02 0.78974718E+02</pdfrwt>
<totfact> 0.19983745E+05</totfact>
</mgrwt>
</event>
<event>
 8    1  0.7667702E-014  0.7930727E+02  0.7818608E-02  0.1331029E+00
         -1   -1    0    0    0  501 -0.00000000000E+00  0.00000000000E+00  0.85479708387E+01  0.85479723245E+01  0.50400000000E-02 0.  1.
          2   -1    0    0  501    0  0.00000000000E+00 -0.00000000000E+00 -0.18395134961E+03  0.18395134963E+03  0.25500000000E-02 0. -1.
         24    2    1    2    0    0  0.00000000000E+00  0.35527136788E-14 -0.17540337877E+03  0.19249932195E+03  0.79307273738E+02 0.  0.
         66    2    3    3    0    0 -0.52827890047E+01  0.31102973378E+02 -0.14596616443E+03  0.14935000487E+03  0.19999957069E+01 0.  0.
        -13    1    3    3    0    0  0.52827890047E+01 -0.31102973378E+02 -0.29437214338E+02  0.43149317082E+02  0.10566000000E+00 0.  1.
         13    1    4    4    0    0 -0.92130375732E+00  0.66103717039E+01 -0.32512566712E+02  0.33190721187E+02  0.10566000000E+00 0. -1.
        -13    1    4    4    0    0 -0.20043250917E+01  0.97648530872E+01 -0.48748580873E+02  0.49757461511E+02  0.10566000000E+00 0.  1.
        -14    1    4    4    0    0 -0.23571601557E+01  0.14727748587E+02 -0.64705016850E+02  0.66401822174E+02  0.00000000000E+00 0.  1.
<mgrwt>
<rscale>  0 0.79307274E+02</rscale>
<asrwt>0</asrwt>
<pdfrwt beam="1">  1        2 0.28300205E-01 0.79307274E+02</pdfrwt>
<pdfrwt beam="2">  1       -1 0.13150727E-02 0.79307274E+02</pdfrwt>
<totfact> 0.21930306E+05</totfact>
</mgrwt>
</event>
<event>
 8    1  0.7667702E-014  0.8024632E+02  0.7818608E-02  0.1328354E+00
         -1   -1    0    0    0  501 -0.00000000000E+00  0.00000000000E+00  0.51812966413E+02  0.51812966658E+02  0.50400000000E-02 0.  1.
          2   -1    0    0  501    0  0.00000000000E+00 -0.00000000000E+00 -0.31070756427E+02  0.31070756532E+02  0.25500000000E-02 0. -1.
         24    2    1    2    0    0 -0.17763568394E-14  0.00000000000E+00  0.20742209986E+02  0.82883723190E+02  0.80246322625E+02 0.  0.
         66    2    3    3    0    0 -0.15434432259E+02 -0.13810419870E+01 -0.27820851649E+02  0.31908130054E+02  0.20000002271E+01 0.  0.
        -13    1    3    3    0    0  0.15434432259E+02  0.13810419870E+01  0.48563061636E+02  0.50975593136E+02  0.10566000000E+00 0.  1.
         13    1    4    4    0    0 -0.21556169739E+01 -0.26629314752E-01 -0.45404369104E+01  0.50273377678E+01  0.10566000000E+00 0. -1.
        -13    1    4    4    0    0 -0.81242835811E+01 -0.45475254275E+00 -0.12819741199E+02  0.15184456264E+02  0.10566000000E+00 0.  1.
        -14    1    4    4    0    0 -0.51545317042E+01 -0.89966012953E+00 -0.10460673540E+02  0.11696336022E+02  0.00000000000E+00 0.  1.
<mgrwt>
<rscale>  0 0.80246323E+02</rscale>
<asrwt>0</asrwt>
<pdfrwt beam="1">  1        2 0.47801165E-02 0.80246323E+02</pdfrwt>
<pdfrwt beam="2">  1       -1 0.79712255E-02 0.80246323E+02</pdfrwt>
<totfact> 0.13432742E+05</totfact>
</mgrwt>
</event>
<event>
 8    1  0.7667702E-014  0.7729735E+02  0.7818608E-02  0.1336901E+00
          2   -1    0    0  501    0  0.00000000000E+00  0.00000000000E+00  0.54919161125E+02  0.54919161184E+02  0.25500000000E-02 0. -1.
         -1   -1    0    0    0  501 -0.00000000000E+00 -0.00000000000E+00 -0.27198525286E+02  0.27198525753E+02  0.50400000000E-02 0.  1.
         24    2    1    2    0    0 -0.88817841970E-15  0.00000000000E+00  0.27720635838E+02  0.82117686938E+02  0.77297353491E+02 0.  0.
         66    2    3    3    0    0  0.26848398471E+01 -0.38340261255E+02  0.98198574530E+01  0.39719184264E+02  0.20000000363E+01 0.  0.
        -13    1    3    3    0    0 -0.26848398471E+01  0.38340261255E+02  0.17900778385E+02  0.42398502673E+02  0.10566000000E+00 0.  1.
         13    1    4    4    0    0  0.49809378463E+00 -0.17695880666E+02  0.44516317825E+01  0.18254327693E+02  0.10566000000E+00 0. -1.
        -13    1    4    4    0    0  0.10985978597E+00 -0.35439812441E+00  0.12762772811E+00  0.40634969637E+00  0.10566000000E+00 0.  1.
         14    1    4    4    0    0  0.20768862766E+01 -0.20289982464E+02  0.52405979424E+01  0.21058506875E+02  0.00000000000E+00 0. -1.
<mgrwt>
<rscale>  0 0.77297353E+02</rscale>
<asrwt>0</asrwt>
<pdfrwt beam="1">  1        2 0.84491017E-02 0.77297353E+02</pdfrwt>
<pdfrwt beam="2">  1       -1 0.41843886E-02 0.77297353E+02</pdfrwt>
<totfact> 0.16752617E+05</totfact>
</mgrwt>
</event>
<event>
 8    1  0.7667702E-014  0.8097243E+02  0.7818608E-02  0.1326314E+00
          2   -1    0    0  501    0  0.00000000000E+00  0.00000000000E+00  0.28616897753E+02  0.28616897866E+02  0.25500000000E-02 0. -1.
         -1   -1    0    0    0  501 -0.00000000000E+00 -0.00000000000E+00 -0.57278518821E+02  0.57278519042E+02  0.50400000000E-02 0.  1.
         24    2    1    2    0    0  0.00000000000E+00  0.17763568394E-14 -0.28661621068E+02  0.85895416909E+02  0.80972428170E+02 0.  0.
         66    2    3    3    0    0  0.21783356525E+02  0.13630501175E+02  0.18814846327E+02  0.31910870008E+02  0.19999996340E+01 0.  0.
        -13    1    3    3    0    0 -0.21783356525E+02 -0.13630501175E+02 -0.47476467395E+02  0.53984546901E+02  0.10566000000E+00 0.  1.
         13    1    4    4    0    0  0.12882921993E+02  0.86289996344E+01  0.11798736519E+02  0.19484626280E+02  0.10566000000E+00 0. -1.
        -13    1    4    4    0    0  0.35433087750E+01  0.19952357291E+01  0.22308090749E+01  0.46393615782E+01  0.10566000000E+00 0.  1.
         14    1    4    4    0    0  0.53571257569E+01  0.30062658118E+01  0.47853007330E+01  0.77868821496E+01  0.00000000000E+00 0. -1.
<mgrwt>
<rscale>  0 0.80972428E+02</rscale>
<asrwt>0</asrwt>
<pdfrwt beam="1">  1        2 0.44025997E-02 0.80972428E+02</pdfrwt>
<pdfrwt beam="2">  1       -1 0.88120798E-02 0.80972428E+02</pdfrwt>
<totfact> 0.12885179E+05</totfact>
</mgrwt>
</event>
<event>
 8    1  0.7667702E-014  0.7923124E+02  0.7818608E-02  0.1331247E+00
          2   -1    0    0  501    0  0.00000000000E+00  0.00000000000E+00  0.92054374358E+02  0.92054374393E+02  0.25500000000E-02 0. -1.
         -1   -1    0    0    0  501 -0.00000000000E+00 -0.00000000000E+00 -0.17048590900E+02  0.17048591645E+02  0.50400000000E-02 0.  1.
         24    2    1    2    0    0  0.00000000000E+00  0.00000000000E+00  0.75005783458E+02  0.10910296604E+03  0.79231241605E+02 0.  0.
         66    2    3    3    0    0  0.12096216151E+02 -0.37292120071E+02  0.45115560043E+02  0.59803297840E+02  0.20000025090E+01 0.  0.
        -13    1    3    3    0    0 -0.12096216151E+02  0.37292120071E+02  0.29890223416E+02  0.49299668198E+02  0.10566000000E+00 0.  1.
         13    1    4    4    0    0  0.27609425834E+01 -0.92009908908E+01  0.10287357343E+02  0.14075578939E+02  0.10566000000E+00 0. -1.
        -13    1    4    4    0    0  0.63788270047E+01 -0.17739964332E+02  0.22842611561E+02  0.29617424523E+02  0.10566000000E+00 0.  1.
        -14    1    4    4    0    0  0.29564465626E+01 -0.10351164849E+02  0.11985591139E+02  0.16110294378E+02  0.00000000000E+00 0.  1.
<mgrwt>
<rscale>  0 0.79231242E+02</rscale>
<asrwt>0</asrwt>
<pdfrwt beam="1">  1        2 0.14162211E-01 0.79231242E+02</pdfrwt>
<pdfrwt beam="2">  1       -1 0.26228602E-02 0.79231242E+02</pdfrwt>
<totfact> 0.17780772E+05</totfact>
</mgrwt>
</event>
<event>
 8    1  0.7667702E-014  0.7822822E+02  0.7818608E-02  0.1334156E+00
         -1   -1    0    0    0  501 -0.00000000000E+00  0.00000000000E+00  0.56103409647E+01  0.56103432286E+01  0.50400000000E-02 0.  1.
          2   -1    0    0  501    0  0.00000000000E+00 -0.00000000000E+00 -0.27269525752E+03  0.27269525754E+03  0.25500000000E-02 0. -1.
         24    2    1    2    0    0  0.00000000000E+00  0.00000000000E+00 -0.26708491656E+03  0.27830560077E+03  0.78228222295E+02 0.  0.
         66    2    3    3    0    0  0.24350927585E+02 -0.19271929081E+02 -0.21808316363E+03  0.22029217233E+03  0.20000013735E+01 0.  0.
        -13    1    3    3    0    0 -0.24350927585E+02  0.19271929081E+02 -0.49001752930E+02  0.58013428437E+02  0.10566000000E+00 0.  1.
         13    1    4    4    0    0  0.11526944680E+02 -0.97941019238E+01 -0.10245419950E+03  0.10356480602E+03  0.10566000000E+00 0. -1.
        -13    1    4    4    0    0  0.87725973446E+01 -0.65650430187E+01 -0.76157172118E+02  0.76941434111E+02  0.10566000000E+00 0.  1.
        -14    1    4    4    0    0  0.40513855601E+01 -0.29127841382E+01 -0.39471792010E+02  0.39785932198E+02  0.00000000000E+00 0.  1.
<mgrwt>
<rscale>  0 0.78228222E+02</rscale>
<asrwt>0</asrwt>
<pdfrwt beam="1">  1        2 0.41953106E-01 0.78228222E+02</pdfrwt>
<pdfrwt beam="2">  1       -1 0.86312977E-03 0.78228222E+02</pdfrwt>
<totfact> 0.26118025E+05</totfact>
</mgrwt>
</event>
<event>
 8    1  0.7667702E-014  0.8330301E+02  0.7818608E-02  0.1319931E+00
         -1   -1    0    0    0  501 -0.00000000000E+00  0.00000000000E+00  0.22885954415E+02  0.22885954970E+02  0.50400000000E-02 0.  1.
          2   -1    0    0  501    0  0.00000000000E+00 -0.00000000000E+00 -0.75804038875E+02  0.75804038917E+02  0.25500000000E-02 0. -1.
         24    2    1    2    0    0  0.17763568394E-14  0.00000000000E+00 -0.52918084460E+02  0.98689993887E+02  0.83303008533E+02 0.  0.
         66    2    3    3    0    0  0.14828160885E+02 -0.26477122103E+02 -0.60231873472E+02  0.67474372416E+02  0.20000002419E+01 0.  0.
        -13    1    3    3    0    0 -0.14828160885E+02  0.26477122103E+02  0.73137890120E+01  0.31215621471E+02  0.10566000000E+00 0.  1.
         13    1    4    4    0    0  0.10483692008E+02 -0.19604160341E+02 -0.43287907894E+02  0.48662973960E+02  0.10566000000E+00 0. -1.
        -13    1    4    4    0    0  0.36756011024E+01 -0.56123755061E+01 -0.13266158947E+02  0.14866436679E+02  0.10566000000E+00 0.  1.
         14    1    4    4    0    0  0.66886777411E+00 -0.12605862556E+01 -0.36778066305E+01  0.39449617765E+01  0.00000000000E+00 0. -1.
<mgrwt>
<rscale>  0 0.83303009E+02</rscale>
<asrwt>0</asrwt>
<pdfrwt beam="1">  1        2 0.11662160E-01 0.83303009E+02</pdfrwt>
<pdfrwt beam="2">  1       -1 0.35209162E-02 0.83303009E+02</pdfrwt>
<totfact> 0.14760026E+05</totfact>
</mgrwt>
</event>
<event>
 8    1  0.7667702E-014  0.8175688E+02  0.7818608E-02  0.1324138E+00
         -1   -1    0    0    0  501 -0.00000000000E+00  0.00000000000E+00  0.83513728308E+01  0.83513743516E+01  0.50400000000E-02 0.  1.
          2   -1    0    0  501    0  0.00000000000E+00 -0.00000000000E+00 -0.20009246472E+03  0.20009246474E+03  0.25500000000E-02 0. -1.
         24    2    1    2    0    0  0.00000000000E+00  0.00000000000E+00 -0.19174109189E+03  0.20844383909E+03  0.81756881881E+02 0.  0.
         66    2    3    3    0    0 -0.24869400815E+02 -0.83226527540E+01 -0.17579396343E+03  0.17775058713E+03  0.20000002140E+01 0.  0.
        -13    1    3    3    0    0  0.24869400815E+02  0.83226527540E+01 -0.15947128463E+02  0.30693251962E+02  0.10566000000E+00 0.  1.
         13    1    4    4    0    0 -0.25776827700E+01 -0.12296417557E+01 -0.18035190844E+02  0.18260222893E+02  0.10566000000E+00 0.  1.
        -13    1    4    4    0    0 -0.15038894632E+02 -0.54221748171E+01 -0.10562543971E+03  0.10682842791E+03  0.10566000000E+00 0. -1.
        -14    1    4    4    0    0 -0.72528234131E+01 -0.16708361812E+01 -0.52133332873E+02  0.52661936325E+02  0.00000000000E+00 0.  1.
<mgrwt>
<rscale>  0 0.81756882E+02</rscale>
<asrwt>0</asrwt>
<pdfrwt beam="1">  1        2 0.30783453E-01 0.81756882E+02</pdfrwt>
<pdfrwt beam="2">  1       -1 0.12848269E-02 0.81756882E+02</pdfrwt>
<totfact> 0.20831711E+05</totfact>
</mgrwt>
</event>
<event>
 8    1  0.7667702E-014  0.8070861E+02  0.7818608E-02  0.1327052E+00
          2   -1    0    0  501    0  0.00000000000E+00  0.00000000000E+00  0.37269572847E+03  0.37269572848E+03  0.25500000000E-02 0. -1.
         -1   -1    0    0    0  501 -0.00000000000E+00 -0.00000000000E+00 -0.43694337625E+01  0.43694366692E+01  0.50400000000E-02 0.  1.
         24    2    1    2    0    0  0.00000000000E+00  0.00000000000E+00  0.36832629471E+03  0.37706516515E+03  0.80708607937E+02 0.  0.
         66    2    3    3    0    0  0.98431613086E+01  0.24388644005E+02  0.32711570829E+03  0.32817736117E+03  0.19999983534E+01 0.  0.
        -13    1    3    3    0    0 -0.98431613086E+01 -0.24388644005E+02  0.41210586421E+02  0.48887803981E+02  0.10566000000E+00 0.  1.
         13    1    4    4    0    0  0.47287947248E+01  0.10413908238E+02  0.14982694073E+03  0.15026288403E+03  0.10566000000E+00 0. -1.
        -13    1    4    4    0    0  0.25348769959E+01  0.56970194053E+01  0.75403966423E+02  0.75661423115E+02  0.10566000000E+00 0. -1.
        -14    1    4    4    0    0  0.25794895879E+01  0.82777163616E+01  0.10188480113E+03  0.10225305402E+03  0.00000000000E+00 0.  1.
<mgrwt>
<rscale>  0 0.80708608E+02</rscale>
<asrwt>0</asrwt>
<pdfrwt beam="1">  1        2 0.57337804E-01 0.80708608E+02</pdfrwt>
<pdfrwt beam="2">  1       -1 0.67222081E-03 0.80708608E+02</pdfrwt>
<totfact> 0.26929568E+05</totfact>
</mgrwt>
</event>
<event>
 8    1  0.7667702E-014  0.8595480E+02  0.7818608E-02  0.1312954E+00
         -1   -1    0    0    0  501 -0.00000000000E+00  0.00000000000E+00  0.94634671488E+01  0.94634684909E+01  0.50400000000E-02 0.  1.
          2   -1    0    0  501    0  0.00000000000E+00 -0.00000000000E+00 -0.19517759603E+03  0.19517759604E+03  0.25500000000E-02 0. -1.
         24    2    1    2    0    0  0.00000000000E+00 -0.44408920985E-15 -0.18571412888E+03  0.20464106453E+03  0.85954799917E+02 0.  0.
         66    2    3    3    0    0 -0.24956839257E+02 -0.35589532172E+01 -0.17570772580E+03  0.17751820996E+03  0.19999969703E+01 0.  0.
        -13    1    3    3    0    0  0.24956839257E+02  0.35589532172E+01 -0.10006403079E+02  0.27122854575E+02  0.10566000000E+00 0.  1.
         13    1    4    4    0    0 -0.75666101001E+01 -0.19320098436E+01 -0.54284813298E+02  0.54843763267E+02  0.10566000000E+00 0. -1.
        -13    1    4    4    0    0 -0.26741054191E+01 -0.57272384550E-01 -0.17932016893E+02  0.18130706379E+02  0.10566000000E+00 0.  1.
         14    1    4    4    0    0 -0.14716123738E+02 -0.15696709891E+01 -0.10349089561E+03  0.10454374031E+03  0.00000000000E+00 0. -1.
<mgrwt>
<rscale>  0 0.85954800E+02</rscale>
<asrwt>0</asrwt>
<pdfrwt beam="1">  1        2 0.30027319E-01 0.85954800E+02</pdfrwt>
<pdfrwt beam="2">  1       -1 0.14559183E-02 0.85954800E+02</pdfrwt>
<totfact> 0.18083552E+05</totfact>
</mgrwt>
</event>
<event>
 8    1  0.7667702E-014  0.8246046E+02  0.7818608E-02  0.1322211E+00
         -1   -1    0    0    0  501 -0.00000000000E+00  0.00000000000E+00  0.69690358256E+01  0.69690376481E+01  0.50400000000E-02 0.  1.
          2   -1    0    0  501    0  0.00000000000E+00 -0.00000000000E+00 -0.24392634515E+03  0.24392634516E+03  0.25500000000E-02 0. -1.
         24    2    1    2    0    0  0.00000000000E+00 -0.88817841970E-15 -0.23695730933E+03  0.25089538281E+03  0.82460455213E+02 0.  0.
         66    2    3    3    0    0 -0.20775184613E+02 -0.69191966222E+01 -0.22475428198E+03  0.22582730315E+03  0.20000006284E+01 0.  0.
        -13    1    3    3    0    0  0.20775184613E+02  0.69191966222E+01 -0.12203027350E+02  0.25068079666E+02  0.10566000000E+00 0.  1.
         13    1    4    4    0    0 -0.10536191184E+02 -0.37745495199E+01 -0.12365418307E+03  0.12415968228E+03  0.10566000000E+00 0. -1.
        -13    1    4    4    0    0 -0.98521608397E+00 -0.15981761838E+00 -0.92113300622E+01  0.92658490142E+01  0.10566000000E+00 0.  1.
         14    1    4    4    0    0 -0.92537773450E+01 -0.29848294839E+01 -0.91888768839E+02  0.92401771849E+02  0.00000000000E+00 0. -1.
<mgrwt>
<rscale>  0 0.82460455E+02</rscale>
<asrwt>0</asrwt>
<pdfrwt beam="1">  1        2 0.37527124E-01 0.82460455E+02</pdfrwt>
<pdfrwt beam="2">  1       -1 0.10721597E-02 0.82460455E+02</pdfrwt>
<totfact> 0.21844814E+05</totfact>
</mgrwt>
</event>
<event>
 8    1  0.7667702E-014  0.7922877E+02  0.7818608E-02  0.1331254E+00
         -1   -1    0    0    0  501 -0.00000000000E+00  0.00000000000E+00  0.66562264041E+01  0.66562283122E+01  0.50400000000E-02 0.  1.
          2   -1    0    0  501    0  0.00000000000E+00 -0.00000000000E+00 -0.23576412296E+03  0.23576412297E+03  0.25500000000E-02 0. -1.
         24    2    1    2    0    0 -0.35527136788E-14  0.00000000000E+00 -0.22910789655E+03  0.24242035128E+03  0.79228772888E+02 0.  0.
         66    2    3    3    0    0 -0.18400029625E+02 -0.10188832299E+02 -0.21725033356E+03  0.21827524085E+03  0.19999851146E+01 0.  0.
        -13    1    3    3    0    0  0.18400029625E+02  0.10188832299E+02 -0.11857562991E+02  0.24145110435E+02  0.10566000000E+00 0.  1.
         13    1    4    4    0    0 -0.51502525035E+01 -0.29139062591E+01 -0.54192513617E+02  0.54514728714E+02  0.10566000000E+00 0. -1.
        -13    1    4    4    0    0 -0.51515731265E+00 -0.21405696912E+00 -0.81906437611E+01  0.82102994281E+01  0.10566000000E+00 0.  1.
         14    1    4    4    0    0 -0.12734619809E+02 -0.70608690708E+01 -0.15486717618E+03  0.15555021271E+03  0.00000000000E+00 0. -1.
<mgrwt>
<rscale>  0 0.79228773E+02</rscale>
<asrwt>0</asrwt>
<pdfrwt beam="1">  1        2 0.36271397E-01 0.79228773E+02</pdfrwt>
<pdfrwt beam="2">  1       -1 0.10240352E-02 0.79228773E+02</pdfrwt>
<totfact> 0.23976905E+05</totfact>
</mgrwt>
</event>
<event>
 8    1  0.7667702E-014  0.8013145E+02  0.7818608E-02  0.1328679E+00
         -1   -1    0    0    0  501 -0.00000000000E+00  0.00000000000E+00  0.44701660203E+01  0.44701688615E+01  0.50400000000E-02 0.  1.
          2   -1    0    0  501    0  0.00000000000E+00 -0.00000000000E+00 -0.35910564632E+03  0.35910564633E+03  0.25500000000E-02 0. -1.
         24    2    1    2    0    0  0.00000000000E+00  0.00000000000E+00 -0.35463548030E+03  0.36357581519E+03  0.80131451404E+02 0.  0.
         66    2    3    3    0    0 -0.68659274761E+01 -0.38526781041E+02 -0.21587512218E+03  0.21940264859E+03  0.20000038988E+01 0.  0.
        -13    1    3    3    0    0  0.68659274761E+01  0.38526781041E+02 -0.13876035812E+03  0.14417316660E+03  0.10566000000E+00 0.  1.
         13    1    4    4    0    0 -0.40916533745E+01 -0.20971959401E+02 -0.12064509649E+03  0.12252271291E+03  0.10566000000E+00 0. -1.
        -13    1    4    4    0    0 -0.86014512266E+00 -0.58827705851E+01 -0.29289958487E+02  0.29887450068E+02  0.10566000000E+00 0.  1.
        -14    1    4    4    0    0 -0.19141289789E+01 -0.11672051055E+02 -0.65940067205E+02  0.66992485613E+02  0.00000000000E+00 0.  1.
<mgrwt>
<rscale>  0 0.80131451E+02</rscale>
<asrwt>0</asrwt>
<pdfrwt beam="1">  1        2 0.55247000E-01 0.80131451E+02</pdfrwt>
<pdfrwt beam="2">  1       -1 0.68771835E-03 0.80131451E+02</pdfrwt>
<totfact> 0.27080813E+05</totfact>
</mgrwt>
</event>
<event>
 8    1  0.7667702E-014  0.8009618E+02  0.7818608E-02  0.1328779E+00
         -1   -1    0    0    0  501 -0.00000000000E+00  0.00000000000E+00  0.34173471829E+02  0.34173472201E+02  0.50400000000E-02 0.  1.
          2   -1    0    0  501    0  0.00000000000E+00 -0.00000000000E+00 -0.46932589648E+02  0.46932589717E+02  0.25500000000E-02 0. -1.
         24    2    1    2    0    0  0.00000000000E+00  0.00000000000E+00 -0.12759117818E+02  0.81106061918E+02  0.80096180885E+02 0.  0.
         66    2    3    3    0    0 -0.11022078964E+02 -0.11328314336E+02 -0.43617062443E+02  0.46435601280E+02  0.19999999375E+01 0.  0.
        -13    1    3    3    0    0  0.11022078964E+02  0.11328314336E+02  0.30857944624E+02  0.34670460638E+02  0.10566000000E+00 0.  1.
         13    1    4    4    0    0 -0.15635899428E+01 -0.10914997097E+01 -0.67529757409E+01  0.70178365981E+01  0.10566000000E+00 0.  1.
        -13    1    4    4    0    0 -0.36972511230E+01 -0.38979543987E+01 -0.15187882211E+02  0.16110451404E+02  0.10566000000E+00 0. -1.
        -14    1    4    4    0    0 -0.57612378980E+01 -0.63388602271E+01 -0.21676204491E+02  0.23307313278E+02  0.00000000000E+00 0.  1.
<mgrwt>
<rscale>  0 0.80096181E+02</rscale>
<asrwt>0</asrwt>
<pdfrwt beam="1">  1        2 0.72203984E-02 0.80096181E+02</pdfrwt>
<pdfrwt beam="2">  1       -1 0.52574573E-02 0.80096181E+02</pdfrwt>
<totfact> 0.14691796E+05</totfact>
</mgrwt>
</event>
<event>
 8    1  0.7667702E-014  0.7831000E+02  0.7818608E-02  0.1333917E+00
         -1   -1    0    0    0  501 -0.00000000000E+00  0.00000000000E+00  0.44981802856E+01  0.44981831091E+01  0.50400000000E-02 0.  1.
          2   -1    0    0  501    0  0.00000000000E+00 -0.00000000000E+00 -0.34082975226E+03  0.34082975227E+03  0.25500000000E-02 0. -1.
         24    2    1    2    0    0  0.00000000000E+00  0.00000000000E+00 -0.33633157198E+03  0.34532793538E+03  0.78310003487E+02 0.  0.
         66    2    3    3    0    0  0.32207477266E+02 -0.63293080678E+01 -0.26220683312E+03  0.26426086557E+03  0.20000016923E+01 0.  0.
        -13    1    3    3    0    0 -0.32207477266E+02  0.63293080678E+01 -0.74124738858E+02  0.81067069808E+02  0.10566000000E+00 0.  1.
         13    1    4    4    0    0  0.13010606573E+02 -0.27810213371E+01 -0.10974393902E+03  0.11054751593E+03  0.10566000000E+00 0. -1.
        -13    1    4    4    0    0  0.11490247603E+02 -0.25518809469E+01 -0.87966599122E+02  0.88750614711E+02  0.10566000000E+00 0.  1.
        -14    1    4    4    0    0  0.77066230905E+01 -0.99640578380E+00 -0.64496294978E+02  0.64962734932E+02  0.00000000000E+00 0.  1.
<mgrwt>
<rscale>  0 0.78310003E+02</rscale>
<asrwt>0</asrwt>
<pdfrwt beam="1">  1        2 0.52435326E-01 0.78310003E+02</pdfrwt>
<pdfrwt beam="2">  1       -1 0.69202823E-03 0.78310003E+02</pdfrwt>
<totfact> 0.28227464E+05</totfact>
</mgrwt>
</event>
<event>
 8    1  0.7667702E-014  0.7874500E+02  0.7818608E-02  0.1332651E+00
          2   -1    0    0  501    0  0.00000000000E+00  0.00000000000E+00  0.64682304472E+03  0.64682304473E+03  0.25500000000E-02 0. -1.
         -1   -1    0    0    0  501 -0.00000000000E+00 -0.00000000000E+00 -0.23966245610E+01  0.23966298605E+01  0.50400000000E-02 0.  1.
         24    2    1    2    0    0  0.00000000000E+00  0.00000000000E+00  0.64442642016E+03  0.64921967459E+03  0.78744999016E+02 0.  0.
         66    2    3    3    0    0 -0.17535367411E+01  0.22120243722E+02  0.59031344887E+03  0.59073373697E+03  0.20000000847E+01 0.  0.
        -13    1    3    3    0    0  0.17535367411E+01 -0.22120243722E+02  0.54112971294E+02  0.58485937624E+02  0.10566000000E+00 0.  1.
         13    1    4    4    0    0  0.14590679642E+00  0.22212570940E+01  0.54238818346E+02  0.54284582079E+02  0.10566000000E+00 0. -1.
        -13    1    4    4    0    0  0.86382791389E-01  0.20955527515E+00  0.57781808665E+01  0.57835900236E+01  0.10566000000E+00 0.  1.
         14    1    4    4    0    0 -0.19858263289E+01  0.19689431353E+02  0.53029644966E+03  0.53066556486E+03  0.00000000000E+00 0. -1.
<mgrwt>
<rscale>  0 0.78744999E+02</rscale>
<asrwt>0</asrwt>
<pdfrwt beam="1">  1        2 0.99511346E-01 0.78744999E+02</pdfrwt>
<pdfrwt beam="2">  1       -1 0.36871148E-03 0.78744999E+02</pdfrwt>
<totfact> 0.34192832E+05</totfact>
</mgrwt>
</event>
<event>
 8    1  0.7667702E-014  0.8020056E+02  0.7818608E-02  0.1328483E+00
         -1   -1    0    0    0  501 -0.00000000000E+00  0.00000000000E+00  0.32829482395E+02  0.32829482781E+02  0.50400000000E-02 0.  1.
          2   -1    0    0  501    0  0.00000000000E+00 -0.00000000000E+00 -0.48981355087E+02  0.48981355153E+02  0.25500000000E-02 0. -1.
         24    2    1    2    0    0  0.00000000000E+00 -0.88817841970E-15 -0.16151872692E+02  0.81810837934E+02  0.80200562418E+02 0.  0.
         66    2    3    3    0    0  0.21879140945E+02 -0.50821262321E+01 -0.41936210107E+02  0.47614814255E+02  0.20000007028E+01 0.  0.
        -13    1    3    3    0    0 -0.21879140945E+02  0.50821262321E+01  0.25784337415E+02  0.34196023680E+02  0.10566000000E+00 0.  1.
         13    1    4    4    0    0  0.13700628323E+02 -0.35683381471E+01 -0.26392156909E+02  0.29949914256E+02  0.10566000000E+00 0.  1.
        -13    1    4    4    0    0  0.36580945781E+01 -0.12342376447E+01 -0.72986813056E+01  0.82575366389E+01  0.10566000000E+00 0. -1.
        -14    1    4    4    0    0  0.45204180441E+01 -0.27955044033E+00 -0.82453718925E+01  0.94073633600E+01  0.00000000000E+00 0.  1.
<mgrwt>
<rscale>  0 0.80200562E+02</rscale>
<asrwt>0</asrwt>
<pdfrwt beam="1">  1        2 0.75355931E-02 0.80200562E+02</pdfrwt>
<pdfrwt beam="2">  1       -1 0.50506896E-02 0.80200562E+02</pdfrwt>
<totfact> 0.14774616E+05</totfact>
</mgrwt>
</event>
<event>
 8    1  0.7667702E-014  0.7689314E+02  0.7818608E-02  0.1338107E+00
         -1   -1    0    0    0  501 -0.00000000000E+00  0.00000000000E+00  0.13576587925E+01  0.13576681474E+01  0.50400000000E-02 0.  1.
          2   -1    0    0  501    0  0.00000000000E+00 -0.00000000000E+00 -0.10887372271E+04  0.10887372271E+04  0.25500000000E-02 0. -1.
         24    2    1    2    0    0  0.17763568394E-14  0.17763568394E-14 -0.10873795683E+04  0.10900948953E+04  0.76893140645E+02 0.  0.
         66    2    3    3    0    0  0.12856630751E+02  0.12591469654E+02 -0.10252932287E+04  0.10254530915E+04  0.19999973357E+01 0.  0.
        -13    1    3    3    0    0 -0.12856630751E+02 -0.12591469654E+02 -0.62086339665E+02  0.64641803806E+02  0.10566000000E+00 0.  1.
         13    1    4    4    0    0  0.27351970448E+00  0.22606140027E+00 -0.34845723624E+02  0.34847690536E+02  0.10566000000E+00 0.  1.
        -13    1    4    4    0    0  0.92869937282E+01  0.95525288971E+01 -0.77121943244E+03  0.77133450798E+03  0.10566000000E+00 0. -1.
         14    1    4    4    0    0  0.32961173185E+01  0.28128793565E+01 -0.21922807260E+03  0.21927089295E+03  0.00000000000E+00 0. -1.
<mgrwt>
<rscale>  0 0.76893141E+02</rscale>
<asrwt>0</asrwt>
<pdfrwt beam="1">  1        2 0.16749734E+00 0.76893141E+02</pdfrwt>
<pdfrwt beam="2">  1       -1 0.20887217E-03 0.76893141E+02</pdfrwt>
<totfact> 0.39072475E+05</totfact>
</mgrwt>
</event>
<event>
 8    1  0.7667702E-014  0.8137617E+02  0.7818608E-02  0.1325191E+00
         -1   -1    0    0    0  501 -0.00000000000E+00  0.00000000000E+00  0.15586220659E+02  0.15586221474E+02  0.50400000000E-02 0.  1.
          2   -1    0    0  501    0  0.00000000000E+00 -0.00000000000E+00 -0.10621691321E+03  0.10621691324E+03  0.25500000000E-02 0. -1.
         24    2    1    2    0    0  0.00000000000E+00  0.00000000000E+00 -0.90630692547E+02  0.12180313471E+03  0.81376170921E+02 0.  0.
         66    2    3    3    0    0 -0.31134345230E+02  0.12021093496E+02 -0.80114012127E+02  0.86810765931E+02  0.20000001535E+01 0.  0.
        -13    1    3    3    0    0  0.31134345230E+02 -0.12021093496E+02 -0.10516680420E+02  0.34992368780E+02  0.10566000000E+00 0.  1.
         13    1    4    4    0    0 -0.17409969121E+02  0.73377298155E+01 -0.44210164438E+02  0.48078052241E+02  0.10566000000E+00 0. -1.
        -13    1    4    4    0    0 -0.11049268541E+02  0.34253718476E+01 -0.29031979476E+02  0.31251983999E+02  0.10566000000E+00 0.  1.
         14    1    4    4    0    0 -0.26751075679E+01  0.12579918330E+01 -0.68718682134E+01  0.74807296899E+01  0.00000000000E+00 0. -1.
<mgrwt>
<rscale>  0 0.81376171E+02</rscale>
<asrwt>0</asrwt>
<pdfrwt beam="1">  1        2 0.16341063E-01 0.81376171E+02</pdfrwt>
<pdfrwt beam="2">  1       -1 0.23978802E-02 0.81376171E+02</pdfrwt>
<totfact> 0.17226184E+05</totfact>
</mgrwt>
</event>
<event>
 8    1  0.7667702E-014  0.7867617E+02  0.7818608E-02  0.1332851E+00
         -1   -1    0    0    0  501 -0.00000000000E+00  0.00000000000E+00  0.47241080125E+02  0.47241080394E+02  0.50400000000E-02 0.  1.
          2   -1    0    0  501    0  0.00000000000E+00 -0.00000000000E+00 -0.32757185501E+02  0.32757185601E+02  0.25500000000E-02 0. -1.
         24    2    1    2    0    0  0.00000000000E+00 -0.35527136788E-14  0.14483894623E+02  0.79998265995E+02  0.78676167666E+02 0.  0.
         66    2    3    3    0    0  0.30404449806E+02 -0.24206574906E+02  0.13269930101E+02  0.41115445745E+02  0.19999993028E+01 0.  0.
        -13    1    3    3    0    0 -0.30404449806E+02  0.24206574906E+02  0.12139645221E+01  0.38882820250E+02  0.10566000000E+00 0.  1.
         13    1    4    4    0    0  0.17419231412E+02 -0.14808544761E+02  0.72240827050E+01  0.23977513547E+02  0.10566000000E+00 0. -1.
        -13    1    4    4    0    0  0.49497564150E+01 -0.37091864968E+01  0.21358338387E+01  0.65445475976E+01  0.10566000000E+00 0.  1.
        -14    1    4    4    0    0  0.80354619785E+01 -0.56888436486E+01  0.39100135577E+01  0.10593384600E+02  0.00000000000E+00 0.  1.
<mgrwt>
<rscale>  0 0.78676168E+02</rscale>
<asrwt>0</asrwt>
<pdfrwt beam="1">  1        2 0.50395670E-02 0.78676168E+02</pdfrwt>
<pdfrwt beam="2">  1       -1 0.72678585E-02 0.78676168E+02</pdfrwt>
<totfact> 0.14343307E+05</totfact>
</mgrwt>
</event>
<event>
 8    1  0.7667702E-014  0.7936819E+02  0.7818608E-02  0.1330854E+00
          2   -1    0    0  501    0  0.00000000000E+00  0.00000000000E+00  0.39691560394E+02  0.39691560476E+02  0.25500000000E-02 0. -1.
         -1   -1    0    0    0  501 -0.00000000000E+00 -0.00000000000E+00 -0.39676630467E+02  0.39676630787E+02  0.50400000000E-02 0.  1.
         24    2    1    2    0    0  0.00000000000E+00 -0.17763568394E-14  0.14929926813E-01  0.79368191263E+02  0.79368189859E+02 0.  0.
         66    2    3    3    0    0  0.26906376507E+02 -0.84976728417E+01  0.27876070848E+02  0.39714466621E+02  0.19999981472E+01 0.  0.
        -13    1    3    3    0    0 -0.26906376507E+02  0.84976728417E+01 -0.27861140921E+02  0.39653724642E+02  0.10566000000E+00 0.  1.
         13    1    4    4    0    0  0.25120982479E+01 -0.88401670279E+00  0.25717623219E+01  0.37036804146E+01  0.10566000000E+00 0. -1.
        -13    1    4    4    0    0  0.12545531113E+02 -0.40161244654E+01  0.14329221664E+02  0.19464258634E+02  0.10566000000E+00 0.  1.
        -14    1    4    4    0    0  0.11848747146E+02 -0.35975316736E+01  0.10975086863E+02  0.16546527573E+02  0.00000000000E+00 0.  1.
<mgrwt>
<rscale>  0 0.79368190E+02</rscale>
<asrwt>0</asrwt>
<pdfrwt beam="1">  1        2 0.61063939E-02 0.79368190E+02</pdfrwt>
<pdfrwt beam="2">  1       -1 0.61040970E-02 0.79368190E+02</pdfrwt>
<totfact> 0.14547937E+05</totfact>
</mgrwt>
</event>
<event>
 8    1  0.7667702E-014  0.8043866E+02  0.7818608E-02  0.1327811E+00
          2   -1    0    0  501    0  0.00000000000E+00  0.00000000000E+00  0.13127043349E+04  0.13127043349E+04  0.25500000000E-02 0. -1.
         -1   -1    0    0    0  501 -0.00000000000E+00 -0.00000000000E+00 -0.12322559437E+01  0.12322662506E+01  0.50400000000E-02 0.  1.
         24    2    1    2    0    0  0.00000000000E+00  0.00000000000E+00  0.13114720790E+04  0.13139366012E+04  0.80438659658E+02 0.  0.
         66    2    3    3    0    0 -0.25335551376E+02  0.44792663840E+00  0.11657964461E+04  0.11660735159E+04  0.19999988001E+01 0.  0.
        -13    1    3    3    0    0  0.25335551376E+02 -0.44792663840E+00  0.14567563289E+03  0.14786308526E+03  0.10566000000E+00 0.  1.
         13    1    4    4    0    0 -0.23806428992E+01  0.34833012763E+00  0.91770581851E+02  0.91802176727E+02  0.10566000000E+00 0. -1.
        -13    1    4    4    0    0 -0.15419599591E+02 -0.22830693129E+00  0.72259135640E+03  0.72275590325E+03  0.10566000000E+00 0.  1.
         14    1    4    4    0    0 -0.75353088864E+01  0.32790344206E+00  0.35143450783E+03  0.35151543592E+03  0.00000000000E+00 0. -1.
<mgrwt>
<rscale>  0 0.80438660E+02</rscale>
<asrwt>0</asrwt>
<pdfrwt beam="1">  1        2 0.20195383E+00 0.80438660E+02</pdfrwt>
<pdfrwt beam="2">  1       -1 0.18957927E-03 0.80438660E+02</pdfrwt>
<totfact> 0.34062627E+05</totfact>
</mgrwt>
</event>
<event>
 8    1  0.7667702E-014  0.7961529E+02  0.7818608E-02  0.1330147E+00
          2   -1    0    0  501    0  0.00000000000E+00  0.00000000000E+00  0.15538235208E+04  0.15538235208E+04  0.25500000000E-02 0. -1.
         -1   -1    0    0    0  501 -0.00000000000E+00 -0.00000000000E+00 -0.10198318915E+01  0.10198443452E+01  0.50400000000E-02 0.  1.
         24    2    1    2    0    0  0.17763568394E-14  0.17763568394E-14  0.15528036889E+04  0.15548433652E+04  0.79615286565E+02 0.  0.
         66    2    3    3    0    0  0.43246789070E+01  0.14049553094E+02  0.14988336782E+04  0.14989070978E+04  0.20000019983E+01 0.  0.
        -13    1    3    3    0    0 -0.43246789070E+01 -0.14049553094E+02  0.53970010729E+02  0.55936267411E+02  0.10566000000E+00 0.  1.
         13    1    4    4    0    0  0.36820281454E+01  0.10458613383E+02  0.11535579991E+04  0.11536112900E+04  0.10566000000E+00 0. -1.
        -13    1    4    4    0    0  0.57403590193E+00  0.33571185790E+01  0.33459003645E+03  0.33460738697E+03  0.10566000000E+00 0.  1.
        -14    1    4    4    0    0  0.68614859658E-01  0.23382113278E+00  0.10685642696E+02  0.10688420845E+02  0.00000000000E+00 0.  1.
<mgrwt>
<rscale>  0 0.79615287E+02</rscale>
<asrwt>0</asrwt>
<pdfrwt beam="1">  1        2 0.23904923E+00 0.79615287E+02</pdfrwt>
<pdfrwt beam="2">  1       -1 0.15689853E-03 0.79615287E+02</pdfrwt>
<totfact> 0.33196582E+05</totfact>
</mgrwt>
</event>
<event>
 8    1  0.7667702E-014  0.8229785E+02  0.7818608E-02  0.1322654E+00
         -1   -1    0    0    0  501 -0.00000000000E+00  0.00000000000E+00  0.35612514142E+01  0.35612549806E+01  0.50400000000E-02 0.  1.
          2   -1    0    0  501    0  0.00000000000E+00 -0.00000000000E+00 -0.47546016101E+03  0.47546016101E+03  0.25500000000E-02 0. -1.
         24    2    1    2    0    0 -0.35527136788E-14  0.35527136788E-14 -0.47189890959E+03  0.47902141599E+03  0.82297849951E+02 0.  0.
         66    2    3    3    0    0 -0.27222018379E+02  0.30020637889E+02 -0.27681255034E+03  0.27977037907E+03  0.19999991965E+01 0.  0.
        -13    1    3    3    0    0  0.27222018379E+02 -0.30020637889E+02 -0.19508635925E+03  0.19925103692E+03  0.10566000000E+00 0.  1.
         13    1    4    4    0    0 -0.66709084966E+01  0.69544767929E+01 -0.63867069121E+02  0.64590087860E+02  0.10566000000E+00 0. -1.
        -13    1    4    4    0    0 -0.19846582317E+01  0.25878505195E+01 -0.25395142456E+02  0.25603911088E+02  0.10566000000E+00 0.  1.
        -14    1    4    4    0    0 -0.18566451650E+02  0.20478310577E+02 -0.18755033876E+03  0.18957638013E+03  0.00000000000E+00 0.  1.
<mgrwt>
<rscale>  0 0.82297850E+02</rscale>
<asrwt>0</asrwt>
<pdfrwt beam="1">  1        2 0.73147667E-01 0.82297850E+02</pdfrwt>
<pdfrwt beam="2">  1       -1 0.54788548E-03 0.82297850E+02</pdfrwt>
<totfact> 0.27824858E+05</totfact>
</mgrwt>
</event>
<event>
 8    1  0.7667702E-014  0.7996649E+02  0.7818608E-02  0.1329147E+00
          2   -1    0    0  501    0  0.00000000000E+00  0.00000000000E+00  0.44094201557E+02  0.44094201631E+02  0.25500000000E-02 0. -1.
         -1   -1    0    0    0  501 -0.00000000000E+00 -0.00000000000E+00 -0.36255559483E+02  0.36255559833E+02  0.50400000000E-02 0.  1.
         24    2    1    2    0    0 -0.17763568394E-14  0.00000000000E+00  0.78386420740E+01  0.80349761464E+02  0.79966492094E+02 0.  0.
         66    2    3    3    0    0 -0.14127853430E+02 -0.97519836715E+01  0.40177354657E+02  0.43736909573E+02  0.20000009143E+01 0.  0.
        -13    1    3    3    0    0  0.14127853430E+02  0.97519836715E+01 -0.32338712583E+02  0.36612851891E+02  0.10566000000E+00 0.  1.
         13    1    4    4    0    0 -0.29579016170E-02 -0.13023698367E+00  0.40900038385E+00  0.44205856025E+00  0.10566000000E+00 0.  1.
        -13    1    4    4    0    0 -0.49335496609E+01 -0.37943697951E+01  0.15077787883E+02  0.16312204201E+02  0.10566000000E+00 0.  1.
         14    1    4    4    0    0 -0.91913458674E+01 -0.58273768927E+01  0.24690566390E+02  0.26982646811E+02  0.00000000000E+00 0. -1.
<mgrwt>
<rscale>  0 0.79966492E+02</rscale>
<asrwt>0</asrwt>
<pdfrwt beam="1">  1        2 0.67837233E-02 0.79966492E+02</pdfrwt>
<pdfrwt beam="2">  1       -1 0.55777784E-02 0.79966492E+02</pdfrwt>
<totfact> 0.14563552E+05</totfact>
</mgrwt>
</event>
<event>
 8    1  0.7667702E-014  0.7669079E+02  0.7818608E-02  0.1338714E+00
          2   -1    0    0  501    0  0.00000000000E+00  0.00000000000E+00  0.13320652541E+03  0.13320652544E+03  0.25500000000E-02 0. -1.
         -1   -1    0    0    0  501 -0.00000000000E+00 -0.00000000000E+00 -0.11038267911E+02  0.11038269061E+02  0.50400000000E-02 0.  1.
         24    2    1    2    0    0 -0.35527136788E-14 -0.35527136788E-14  0.12216825750E+03  0.14424479450E+03  0.76690792138E+02 0.  0.
         66    2    3    3    0    0  0.11749294213E+02  0.26381309608E+02  0.10849733743E+03  0.11229288328E+03  0.19999983144E+01 0.  0.
        -13    1    3    3    0    0 -0.11749294213E+02 -0.26381309608E+02  0.13670920067E+02  0.31951911221E+02  0.10566000000E+00 0.  1.
         13    1    4    4    0    0  0.35448329658E+01  0.69930808516E+01  0.27972474481E+02  0.29050637053E+02  0.10566000000E+00 0. -1.
        -13    1    4    4    0    0  0.66698218648E+01  0.14407455938E+02  0.61524210679E+02  0.63539759002E+02  0.10566000000E+00 0.  1.
         14    1    4    4    0    0  0.15346393822E+01  0.49807728186E+01  0.19000652272E+02  0.19702487221E+02  0.00000000000E+00 0. -1.
<mgrwt>
<rscale>  0 0.76690792E+02</rscale>
<asrwt>0</asrwt>
<pdfrwt beam="1">  1        2 0.20493312E-01 0.76690792E+02</pdfrwt>
<pdfrwt beam="2">  1       -1 0.16981952E-02 0.76690792E+02</pdfrwt>
<totfact> 0.21580183E+05</totfact>
</mgrwt>
</event>
<event>
 8    1  0.7667702E-014  0.7681646E+02  0.7818608E-02  0.1338337E+00
         -1   -1    0    0    0  501 -0.00000000000E+00  0.00000000000E+00  0.82048813443E+02  0.82048813598E+02  0.50400000000E-02 0.  1.
          2   -1    0    0  501    0  0.00000000000E+00 -0.00000000000E+00 -0.17979446952E+02  0.17979447133E+02  0.25500000000E-02 0. -1.
         24    2    1    2    0    0  0.00000000000E+00  0.00000000000E+00  0.64069366490E+02  0.10002826073E+03  0.76816464527E+02 0.  0.
         66    2    3    3    0    0  0.35280804590E+02 -0.52834628564E+01  0.50496550819E+02  0.61859128680E+02  0.20000010385E+01 0.  0.
        -13    1    3    3    0    0 -0.35280804590E+02  0.52834628564E+01  0.13572815671E+02  0.38169132051E+02  0.10566000000E+00 0.  1.
         13    1    4    4    0    0  0.50582199413E+01 -0.89488137991E+00  0.64872423307E+01  0.82753778616E+01  0.10566000000E+00 0. -1.
        -13    1    4    4    0    0  0.11206541232E+01 -0.27251936335E+00  0.13380458461E+01  0.17696505839E+01  0.10566000000E+00 0.  1.
         14    1    4    4    0    0  0.29101930525E+02 -0.41160621131E+01  0.42671262642E+02  0.51814100234E+02  0.00000000000E+00 0. -1.
<mgrwt>
<rscale>  0 0.76816465E+02</rscale>
<asrwt>0</asrwt>
<pdfrwt beam="1">  1        2 0.27660688E-02 0.76816465E+02</pdfrwt>
<pdfrwt beam="2">  1       -1 0.12622895E-01 0.76816465E+02</pdfrwt>
<totfact> 0.13656180E+05</totfact>
</mgrwt>
</event>
<event>
 8    1  0.7667702E-014  0.7941101E+02  0.7818608E-02  0.1330731E+00
         -1   -1    0    0    0  501 -0.00000000000E+00  0.00000000000E+00  0.66256254144E+02  0.66256254336E+02  0.50400000000E-02 0.  1.
          2   -1    0    0  501    0  0.00000000000E+00 -0.00000000000E+00 -0.23794387831E+02  0.23794387968E+02  0.25500000000E-02 0. -1.
         24    2    1    2    0    0  0.35527136788E-14  0.00000000000E+00  0.42461866313E+02  0.90050642303E+02  0.79411007351E+02 0.  0.
         66    2    3    3    0    0  0.25190492295E+02  0.30572452735E+02  0.23851608968E+02  0.46283204512E+02  0.20000003219E+01 0.  0.
        -13    1    3    3    0    0 -0.25190492295E+02 -0.30572452735E+02  0.18610257345E+02  0.43767437791E+02  0.10566000000E+00 0.  1.
         13    1    4    4    0    0  0.16915892513E+02  0.21082802814E+02  0.16373303393E+02  0.31602661629E+02  0.10566000000E+00 0. -1.
        -13    1    4    4    0    0  0.71563695732E+00  0.69232959741E+00  0.32218724392E+00  0.10518674735E+01  0.10566000000E+00 0.  1.
         14    1    4    4    0    0  0.75589628251E+01  0.87973203232E+01  0.71561183311E+01  0.13628675410E+02  0.00000000000E+00 0. -1.
<mgrwt>
<rscale>  0 0.79411007E+02</rscale>
<asrwt>0</asrwt>
<pdfrwt beam="1">  1        2 0.36606751E-02 0.79411007E+02</pdfrwt>
<pdfrwt beam="2">  1       -1 0.10193270E-01 0.79411007E+02</pdfrwt>
<totfact> 0.13126653E+05</totfact>
</mgrwt>
</event>
<event>
 8    1  0.7667702E-014  0.7948823E+02  0.7818608E-02  0.1330510E+00
          2   -1    0    0  501    0  0.00000000000E+00  0.00000000000E+00  0.16674941163E+02  0.16674941358E+02  0.25500000000E-02 0. -1.
         -1   -1    0    0    0  501 -0.00000000000E+00 -0.00000000000E+00 -0.94728658143E+02  0.94728658277E+02  0.50400000000E-02 0.  1.
         24    2    1    2    0    0  0.00000000000E+00  0.00000000000E+00 -0.78053716980E+02  0.11140359963E+03  0.79488233577E+02 0.  0.
         66    2    3    3    0    0  0.33602360160E+02  0.25519969241E+01 -0.95878049988E+01  0.35093550728E+02  0.20000003497E+01 0.  0.
        -13    1    3    3    0    0 -0.33602360160E+02 -0.25519969241E+01 -0.68465911982E+02  0.76310048907E+02  0.10566000000E+00 0.  1.
         13    1    4    4    0    0  0.65386970638E+01  0.75093066458E+00 -0.14020665202E+01  0.67301865292E+01  0.10566000000E+00 0. -1.
        -13    1    4    4    0    0  0.20801693296E+02  0.15628597814E+01 -0.57337843181E+01  0.21634241871E+02  0.10566000000E+00 0.  1.
        -14    1    4    4    0    0  0.62619697997E+01  0.23820647821E+00 -0.24519541605E+01  0.67291223279E+01  0.00000000000E+00 0.  1.
<mgrwt>
<rscale>  0 0.79488234E+02</rscale>
<asrwt>0</asrwt>
<pdfrwt beam="1">  1        2 0.25653756E-02 0.79488234E+02</pdfrwt>
<pdfrwt beam="2">  1       -1 0.14573639E-01 0.79488234E+02</pdfrwt>
<totfact> 0.12183114E+05</totfact>
</mgrwt>
</event>
<event>
 8    1  0.7667702E-014  0.8256231E+02  0.7818608E-02  0.1321933E+00
          2   -1    0    0  501    0  0.00000000000E+00  0.00000000000E+00  0.10881806578E+02  0.10881806876E+02  0.25500000000E-02 0. -1.
         -1   -1    0    0    0  501 -0.00000000000E+00 -0.00000000000E+00 -0.15660393841E+03  0.15660393849E+03  0.50400000000E-02 0.  1.
         24    2    1    2    0    0  0.71054273576E-14  0.00000000000E+00 -0.14572213183E+03  0.16748574537E+03  0.82562310987E+02 0.  0.
         66    2    3    3    0    0  0.36764370390E+02 -0.18701153873E+02 -0.74691530318E+02  0.85347388907E+02  0.20000014558E+01 0.  0.
        -13    1    3    3    0    0 -0.36764370390E+02  0.18701153873E+02 -0.71030601514E+02  0.82138356459E+02  0.10566000000E+00 0.  1.
         13    1    4    4    0    0  0.34037115539E+02 -0.17185448631E+02 -0.69166663439E+02  0.78980398671E+02  0.10566000000E+00 0. -1.
        -13    1    4    4    0    0  0.11691711115E+01 -0.85491456153E+00 -0.21986769916E+01  0.26349923234E+01  0.10566000000E+00 0.  1.
         14    1    4    4    0    0  0.15580837395E+01 -0.66079068056E+00 -0.33261898865E+01  0.37319979132E+01  0.00000000000E+00 0. -1.
<mgrwt>
<rscale>  0 0.82562311E+02</rscale>
<asrwt>0</asrwt>
<pdfrwt beam="1">  1        2 0.16741242E-02 0.82562311E+02</pdfrwt>
<pdfrwt beam="2">  1       -1 0.24092912E-01 0.82562311E+02</pdfrwt>
<totfact> 0.98497867E+04</totfact>
</mgrwt>
</event>
<event>
 8    1  0.7667702E-014  0.8030501E+02  0.7818608E-02  0.1328188E+00
         -1   -1    0    0    0  501 -0.00000000000E+00  0.00000000000E+00  0.24637817740E+02  0.24637818255E+02  0.50400000000E-02 0.  1.
          2   -1    0    0  501    0  0.00000000000E+00 -0.00000000000E+00 -0.65436944728E+02  0.65436944777E+02  0.25500000000E-02 0. -1.
         24    2    1    2    0    0  0.00000000000E+00 -0.35527136788E-14 -0.40799126988E+02  0.90074763033E+02  0.80305007144E+02 0.  0.
         66    2    3    3    0    0  0.17053689958E+02  0.17889894208E+02 -0.55870452393E+02  0.61125969113E+02  0.19999983582E+01 0.  0.
        -13    1    3    3    0    0 -0.17053689958E+02 -0.17889894208E+02  0.15071325405E+02  0.28948793920E+02  0.10566000000E+00 0.  1.
         13    1    4    4    0    0  0.82407471946E+01  0.75462321005E+01 -0.24752406315E+02  0.27157840777E+02  0.10566000000E+00 0. -1.
        -13    1    4    4    0    0  0.65031501500E+00  0.11177358784E+01 -0.32105924846E+01  0.34628472751E+01  0.10566000000E+00 0.  1.
         14    1    4    4    0    0  0.81626277480E+01  0.92259262287E+01 -0.27907453593E+02  0.30505281060E+02  0.00000000000E+00 0. -1.
<mgrwt>
<rscale>  0 0.80305007E+02</rscale>
<asrwt>0</asrwt>
<pdfrwt beam="1">  1        2 0.10067222E-01 0.80305007E+02</pdfrwt>
<pdfrwt beam="2">  1       -1 0.37904336E-02 0.80305007E+02</pdfrwt>
<totfact> 0.15722930E+05</totfact>
</mgrwt>
</event>
<event>
 8    1  0.7667702E-014  0.7986011E+02  0.7818608E-02  0.1329449E+00
          2   -1    0    0  501    0  0.00000000000E+00  0.00000000000E+00  0.21396235877E+03  0.21396235878E+03  0.25500000000E-02 0. -1.
         -1   -1    0    0    0  501 -0.00000000000E+00 -0.00000000000E+00 -0.74518211110E+01  0.74518228154E+01  0.50400000000E-02 0.  1.
         24    2    1    2    0    0  0.00000000000E+00  0.17763568394E-14  0.20651053766E+03  0.22141418160E+03  0.79860113008E+02 0.  0.
         66    2    3    3    0    0  0.10007541260E+02  0.10442168605E+02  0.20643448401E+03  0.20695020167E+03  0.20000033956E+01 0.  0.
        -13    1    3    3    0    0 -0.10007541260E+02 -0.10442168605E+02  0.76053644652E-01  0.14463979931E+02  0.10566000000E+00 0.  1.
         13    1    4    4    0    0  0.25840121883E+01  0.37245700384E+01  0.68503767957E+02  0.68653673822E+02  0.10566000000E+00 0.  1.
        -13    1    4    4    0    0  0.99592697092E+00  0.10759953171E+01  0.16734522072E+02  0.16798959178E+02  0.10566000000E+00 0. -1.
         14    1    4    4    0    0  0.64276021010E+01  0.56416032496E+01  0.12119619398E+03  0.12149756867E+03  0.00000000000E+00 0. -1.
<mgrwt>
<rscale>  0 0.79860113E+02</rscale>
<asrwt>0</asrwt>
<pdfrwt beam="1">  1        2 0.32917279E-01 0.79860113E+02</pdfrwt>
<pdfrwt beam="2">  1       -1 0.11464344E-02 0.79860113E+02</pdfrwt>
<totfact> 0.22689225E+05</totfact>
</mgrwt>
</event>
<event>
 8    1  0.7667702E-014  0.7992464E+02  0.7818608E-02  0.1329265E+00
          2   -1    0    0  501    0  0.00000000000E+00  0.00000000000E+00  0.25322385732E+02  0.25322385860E+02  0.25500000000E-02 0. -1.
         -1   -1    0    0    0  501 -0.00000000000E+00 -0.00000000000E+00 -0.63066207920E+02  0.63066208122E+02  0.50400000000E-02 0.  1.
         24    2    1    2    0    0 -0.71054273576E-14  0.00000000000E+00 -0.37743822188E+02  0.88388593982E+02  0.79924635956E+02 0.  0.
         66    2    3    3    0    0 -0.35191862444E+02 -0.97029345741E+01 -0.97059292235E+00  0.36572615015E+02  0.19999991912E+01 0.  0.
        -13    1    3    3    0    0  0.35191862444E+02  0.97029345741E+01 -0.36773229266E+02  0.51815978967E+02  0.10566000000E+00 0.  1.
         13    1    4    4    0    0 -0.16941618407E+02 -0.43108864767E+01 -0.59361388234E+00  0.17491875770E+02  0.10566000000E+00 0. -1.
        -13    1    4    4    0    0 -0.16596851515E+02 -0.50668168718E+01  0.29402629623E-02  0.17353365267E+02  0.10566000000E+00 0.  1.
        -14    1    4    4    0    0 -0.16533925227E+01 -0.32523122573E+00 -0.37991930297E+00  0.17273739783E+01  0.00000000000E+00 0.  1.
<mgrwt>
<rscale>  0 0.79924636E+02</rscale>
<asrwt>0</asrwt>
<pdfrwt beam="1">  1        2 0.38957517E-02 0.79924636E+02</pdfrwt>
<pdfrwt beam="2">  1       -1 0.97024936E-02 0.79924636E+02</pdfrwt>
<totfact> 0.13047984E+05</totfact>
</mgrwt>
</event>
<event>
 8    1  0.7667702E-014  0.8090695E+02  0.7818608E-02  0.1326497E+00
          2   -1    0    0  501    0  0.00000000000E+00  0.00000000000E+00  0.12969364583E+02  0.12969364834E+02  0.25500000000E-02 0. -1.
         -1   -1    0    0    0  501 -0.00000000000E+00 -0.00000000000E+00 -0.12618070914E+03  0.12618070924E+03  0.50400000000E-02 0.  1.
         24    2    1    2    0    0 -0.69388939039E-16 -0.71054273576E-14 -0.11321134455E+03  0.13915007407E+03  0.80906950124E+02 0.  0.
         66    2    3    3    0    0 -0.11714567682E+00 -0.37394860184E+02 -0.30213897682E+02  0.48117241298E+02  0.20000014368E+01 0.  0.
        -13    1    3    3    0    0  0.11714567682E+00  0.37394860184E+02 -0.82997446873E+02  0.91032832774E+02  0.10566000000E+00 0.  1.
         13    1    4    4    0    0  0.20564521130E+00 -0.38502966345E+01 -0.31673706076E+01  0.49910394436E+01  0.10566000000E+00 0. -1.
        -13    1    4    4    0    0  0.36607523183E+00 -0.44580436199E+01 -0.30868996021E+01  0.54358327036E+01  0.10566000000E+00 0.  1.
         14    1    4    4    0    0 -0.68886611995E+00 -0.29086519930E+02 -0.23959627472E+02  0.37690369151E+02  0.00000000000E+00 0. -1.
<mgrwt>
<rscale>  0 0.80906950E+02</rscale>
<asrwt>0</asrwt>
<pdfrwt beam="1">  1        2 0.19952870E-02 0.80906950E+02</pdfrwt>
<pdfrwt beam="2">  1       -1 0.19412416E-01 0.80906950E+02</pdfrwt>
<totfact> 0.10938252E+05</totfact>
</mgrwt>
</event>
<event>
 8    1  0.7667702E-014  0.8331745E+02  0.7818608E-02  0.1319892E+00
          2   -1    0    0  501    0  0.00000000000E+00  0.00000000000E+00  0.78129319635E+03  0.78129319636E+03  0.25500000000E-02 0. -1.
         -1   -1    0    0    0  501 -0.00000000000E+00 -0.00000000000E+00 -0.22212496338E+01  0.22212553517E+01  0.50400000000E-02 0.  1.
         24    2    1    2    0    0  0.00000000000E+00  0.35527136788E-14  0.77907194672E+03  0.78351445171E+03  0.83317452384E+02 0.  0.
         66    2    3    3    0    0  0.16791044273E+02  0.30315253333E+02  0.60676345867E+03  0.60775558289E+03  0.19999995280E+01 0.  0.
        -13    1    3    3    0    0 -0.16791044273E+02 -0.30315253333E+02  0.17230848805E+03  0.17575886882E+03  0.10566000000E+00 0.  1.
         13    1    4    4    0    0  0.51845909804E+01  0.92816982357E+01  0.19810181497E+03  0.19838692034E+03  0.10566000000E+00 0.  1.
        -13    1    4    4    0    0  0.64524420714E+01  0.11648962933E+02  0.21713772417E+03  0.21754570731E+03  0.10566000000E+00 0. -1.
         14    1    4    4    0    0  0.51540112215E+01  0.93845921641E+01  0.19152391953E+03  0.19182295523E+03  0.00000000000E+00 0. -1.
<mgrwt>
<rscale>  0 0.83317452E+02</rscale>
<asrwt>0</asrwt>
<pdfrwt beam="1">  1        2 0.12019902E+00 0.83317452E+02</pdfrwt>
<pdfrwt beam="2">  1       -1 0.34173095E-03 0.83317452E+02</pdfrwt>
<totfact> 0.30786287E+05</totfact>
</mgrwt>
</event>
<event>
 8    1  0.7667702E-014  0.7988900E+02  0.7818608E-02  0.1329367E+00
         -1   -1    0    0    0  501 -0.00000000000E+00  0.00000000000E+00  0.95485202342E+02  0.95485202475E+02  0.50400000000E-02 0.  1.
          2   -1    0    0  501    0  0.00000000000E+00 -0.00000000000E+00 -0.16710054184E+02  0.16710054379E+02  0.25500000000E-02 0. -1.
         24    2    1    2    0    0 -0.35527136788E-14  0.00000000000E+00  0.78775148157E+02  0.11219525685E+03  0.79888996071E+02 0.  0.
         66    2    3    3    0    0 -0.17627048541E+02 -0.28593178417E+02  0.91191745628E+01  0.34863190324E+02  0.20000006510E+01 0.  0.
        -13    1    3    3    0    0  0.17627048541E+02  0.28593178417E+02  0.69655973595E+02  0.77332066529E+02  0.10566000000E+00 0.  1.
         13    1    4    4    0    0 -0.41214113906E+01 -0.63146107450E+01  0.24349592939E+01  0.79246786376E+01  0.10566000000E+00 0. -1.
        -13    1    4    4    0    0 -0.82752625290E+01 -0.14580130695E+02  0.37458365441E+01  0.17178551641E+02  0.10566000000E+00 0.  1.
        -14    1    4    4    0    0 -0.52303746218E+01 -0.76984369767E+01  0.29383787248E+01  0.97599600460E+01  0.00000000000E+00 0.  1.
<mgrwt>
<rscale>  0 0.79888996E+02</rscale>
<asrwt>0</asrwt>
<pdfrwt beam="1">  1        2 0.25707776E-02 0.79888996E+02</pdfrwt>
<pdfrwt beam="2">  1       -1 0.14690031E-01 0.79888996E+02</pdfrwt>
<totfact> 0.12011515E+05</totfact>
</mgrwt>
</event>
<event>
 8    1  0.7667702E-014  0.8017232E+02  0.7818608E-02  0.1328563E+00
         -1   -1    0    0    0  501 -0.00000000000E+00  0.00000000000E+00  0.12699928307E+01  0.12700028313E+01  0.50400000000E-02 0.  1.
          2   -1    0    0  501    0  0.00000000000E+00 -0.00000000000E+00 -0.12652779364E+04  0.12652779364E+04  0.25500000000E-02 0. -1.
         24    2    1    2    0    0  0.35527136788E-14  0.00000000000E+00 -0.12640079436E+04  0.12665479392E+04  0.80172320481E+02 0.  0.
         66    2    3    3    0    0 -0.22221620423E+02 -0.14937961442E+02 -0.11031479548E+04  0.11034746727E+04  0.20000023965E+01 0.  0.
        -13    1    3    3    0    0  0.22221620423E+02  0.14937961442E+02 -0.16085998874E+03  0.16307326650E+03  0.10566000000E+00 0.  1.
         13    1    4    4    0    0 -0.84283709013E+01 -0.63047407850E+01 -0.42199716830E+03  0.42212842644E+03  0.10566000000E+00 0.  1.
        -13    1    4    4    0    0 -0.17267337291E+01 -0.72339523973E+00 -0.69213042329E+02  0.69238438042E+02  0.10566000000E+00 0. -1.
         14    1    4    4    0    0 -0.12066515793E+02 -0.79098254168E+01 -0.61193774420E+03  0.61210780825E+03  0.00000000000E+00 0. -1.
<mgrwt>
<rscale>  0 0.80172320E+02</rscale>
<asrwt>0</asrwt>
<pdfrwt beam="1">  1        2 0.19465714E+00 0.80172320E+02</pdfrwt>
<pdfrwt beam="2">  1       -1 0.19538529E-03 0.80172320E+02</pdfrwt>
<totfact> 0.34591207E+05</totfact>
</mgrwt>
</event>
<event>
 8    1  0.7667702E-014  0.7951427E+02  0.7818608E-02  0.1330436E+00
         -1   -1    0    0    0  501 -0.00000000000E+00  0.00000000000E+00  0.10621531064E+03  0.10621531076E+03  0.50400000000E-02 0.  1.
          2   -1    0    0  501    0  0.00000000000E+00 -0.00000000000E+00 -0.14881375539E+02  0.14881375757E+02  0.25500000000E-02 0. -1.
         24    2    1    2    0    0  0.00000000000E+00 -0.55511151231E-16  0.91333935100E+02  0.12109668652E+03  0.79514274091E+02 0.  0.
         66    2    3    3    0    0  0.38090254268E+02  0.40817737403E+00  0.28493061870E+02  0.47611854126E+02  0.19999998970E+01 0.  0.
        -13    1    3    3    0    0 -0.38090254268E+02 -0.40817737403E+00  0.62840873230E+02  0.73484832390E+02  0.10566000000E+00 0.  1.
         13    1    4    4    0    0  0.26053377208E+02  0.56778871362E+00  0.19768409262E+02  0.32709356715E+02  0.10566000000E+00 0. -1.
        -13    1    4    4    0    0  0.19047496950E+01  0.32839217580E+00  0.13000355648E+01  0.23317738584E+01  0.10566000000E+00 0.  1.
         14    1    4    4    0    0  0.10132127365E+02 -0.48800351539E+00  0.74246170435E+01  0.12570723552E+02  0.00000000000E+00 0. -1.
<mgrwt>
<rscale>  0 0.79514274E+02</rscale>
<asrwt>0</asrwt>
<pdfrwt beam="1">  1        2 0.22894424E-02 0.79514274E+02</pdfrwt>
<pdfrwt beam="2">  1       -1 0.16340817E-01 0.79514274E+02</pdfrwt>
<totfact> 0.11878739E+05</totfact>
</mgrwt>
</event>
<event>
 8    1  0.7667702E-014  0.8056236E+02  0.7818608E-02  0.1327463E+00
          2   -1    0    0  501    0  0.00000000000E+00  0.00000000000E+00  0.35697766275E+03  0.35697766276E+03  0.25500000000E-02 0. -1.
         -1   -1    0    0    0  501 -0.00000000000E+00 -0.00000000000E+00 -0.45453071060E+01  0.45453099003E+01  0.50400000000E-02 0.  1.
         24    2    1    2    0    0  0.00000000000E+00  0.17763568394E-14  0.35243235564E+03  0.36152297266E+03  0.80562363767E+02 0.  0.
         66    2    3    3    0    0 -0.16618136007E+02  0.92201718744E+01  0.33557637585E+03  0.33612003518E+03  0.20000015749E+01 0.  0.
        -13    1    3    3    0    0  0.16618136007E+02 -0.92201718744E+01  0.16855979791E+02  0.25402937477E+02  0.10566000000E+00 0.  1.
         13    1    4    4    0    0 -0.37173555199E+01  0.27896255504E+01  0.79242596061E+02  0.79378844394E+02  0.10566000000E+00 0. -1.
        -13    1    4    4    0    0 -0.22642516173E+00  0.24431329121E+00  0.73217678050E+01  0.73301026708E+01  0.10566000000E+00 0. -1.
        -14    1    4    4    0    0 -0.12674355325E+02  0.61862330328E+01  0.24901201199E+03  0.24941108812E+03  0.00000000000E+00 0.  1.
<mgrwt>
<rscale>  0 0.80562364E+02</rscale>
<asrwt>0</asrwt>
<pdfrwt beam="1">  1        2 0.54919625E-01 0.80562364E+02</pdfrwt>
<pdfrwt beam="2">  1       -1 0.69927843E-03 0.80562364E+02</pdfrwt>
<totfact> 0.26646968E+05</totfact>
</mgrwt>
</event>
<event>
 8    1  0.7667702E-014  0.8173948E+02  0.7818608E-02  0.1324186E+00
         -1   -1    0    0    0  501 -0.00000000000E+00  0.00000000000E+00  0.25476090539E+03  0.25476090544E+03  0.50400000000E-02 0.  1.
          2   -1    0    0  501    0  0.00000000000E+00 -0.00000000000E+00 -0.65564824545E+01  0.65564829504E+01  0.25500000000E-02 0. -1.
         24    2    1    2    0    0 -0.55511151231E-16  0.00000000000E+00  0.24820442294E+03  0.26131738839E+03  0.81739475839E+02 0.  0.
         66    2    3    3    0    0  0.29779203586E+00  0.38237535527E+02  0.78276597257E+02  0.87140251811E+02  0.20000010460E+01 0.  0.
        -13    1    3    3    0    0 -0.29779203586E+00 -0.38237535527E+02  0.16992782568E+03  0.17417713658E+03  0.10566000000E+00 0.  1.
         13    1    4    4    0    0 -0.28380774383E-02  0.26726077765E+02  0.54489723824E+02  0.60691221829E+02  0.10566000000E+00 0. -1.
        -13    1    4    4    0    0  0.23156401475E+00  0.11092217695E+02  0.23271481497E+02  0.25781076983E+02  0.10566000000E+00 0.  1.
         14    1    4    4    0    0  0.69066098548E-01  0.41924006724E+00  0.51539193664E+00  0.66795299857E+00  0.00000000000E+00 0. -1.
<mgrwt>
<rscale>  0 0.81739476E+02</rscale>
<asrwt>0</asrwt>
<pdfrwt beam="1">  1        2 0.10086895E-02 0.81739476E+02</pdfrwt>
<pdfrwt beam="2">  1       -1 0.39193992E-01 0.81739476E+02</pdfrwt>
<totfact> 0.87063544E+04</totfact>
</mgrwt>
</event>
<event>
 8    1  0.7667702E-014  0.7968296E+02  0.7818608E-02  0.1329954E+00
          2   -1    0    0  501    0  0.00000000000E+00  0.00000000000E+00  0.17180019264E+03  0.17180019266E+03  0.25500000000E-02 0. -1.
         -1   -1    0    0    0  501 -0.00000000000E+00 -0.00000000000E+00 -0.92394736468E+01  0.92394750214E+01  0.50400000000E-02 0.  1.
         24    2    1    2    0    0  0.17763568394E-14 -0.71054273576E-14  0.16256071899E+03  0.18103966768E+03  0.79682958743E+02 0.  0.
         66    2    3    3    0    0  0.12596488963E+02 -0.36488786954E+02  0.59159285442E+02  0.70667702344E+02  0.19999982671E+01 0.  0.
        -13    1    3    3    0    0 -0.12596488963E+02  0.36488786954E+02  0.10340143355E+03  0.11037196533E+03  0.10566000000E+00 0.  1.
         13    1    4    4    0    0  0.29786918987E+01 -0.10382320945E+02  0.15888970049E+02  0.19212905218E+02  0.10566000000E+00 0.  1.
        -13    1    4    4    0    0  0.71662872965E+00 -0.13647390200E+01  0.26204003690E+01  0.30419946512E+01  0.10566000000E+00 0. -1.
         14    1    4    4    0    0  0.89011683345E+01 -0.24741726989E+02  0.40649915023E+02  0.48412802475E+02  0.00000000000E+00 0. -1.
<mgrwt>
<rscale>  0 0.79682959E+02</rscale>
<asrwt>0</asrwt>
<pdfrwt beam="1">  1        2 0.26430797E-01 0.79682959E+02</pdfrwt>
<pdfrwt beam="2">  1       -1 0.14214577E-02 0.79682959E+02</pdfrwt>
<totfact> 0.21164064E+05</totfact>
</mgrwt>
</event>
<event>
 8    1  0.7667702E-014  0.8060580E+02  0.7818608E-02  0.1327341E+00
         -1   -1    0    0    0  501 -0.00000000000E+00  0.00000000000E+00  0.20823604084E+02  0.20823604694E+02  0.50400000000E-02 0.  1.
          2   -1    0    0  501    0  0.00000000000E+00 -0.00000000000E+00 -0.78003957605E+02  0.78003957646E+02  0.25500000000E-02 0. -1.
         24    2    1    2    0    0  0.00000000000E+00  0.00000000000E+00 -0.57180353521E+02  0.98827562340E+02  0.80605795383E+02 0.  0.
         66    2    3    3    0    0  0.12986335035E+02  0.18958620391E+02 -0.69165024091E+02  0.72910045532E+02  0.19999992759E+01 0.  0.
        -13    1    3    3    0    0 -0.12986335035E+02 -0.18958620391E+02  0.11984670571E+02  0.25917516808E+02  0.10566000000E+00 0.  1.
         13    1    4    4    0    0  0.67058307506E+01  0.95053070042E+01 -0.33952078229E+02  0.35889745157E+02  0.10566000000E+00 0. -1.
        -13    1    4    4    0    0  0.87242867209E+00  0.18056001032E+01 -0.76559333734E+01  0.79149101937E+01  0.10566000000E+00 0.  1.
        -14    1    4    4    0    0  0.54080756126E+01  0.76477132838E+01 -0.27557012489E+02  0.29105390181E+02  0.00000000000E+00 0.  1.
<mgrwt>
<rscale>  0 0.80605795E+02</rscale>
<asrwt>0</asrwt>
<pdfrwt beam="1">  1        2 0.12000609E-01 0.80605795E+02</pdfrwt>
<pdfrwt beam="2">  1       -1 0.32036315E-02 0.80605795E+02</pdfrwt>
<totfact> 0.16253798E+05</totfact>
</mgrwt>
</event>
<event>
 8    1  0.7667702E-014  0.7782020E+02  0.7818608E-02  0.1335354E+00
          2   -1    0    0  501    0  0.00000000000E+00  0.00000000000E+00  0.11367990676E+03  0.11367990679E+03  0.25500000000E-02 0. -1.
         -1   -1    0    0    0  501 -0.00000000000E+00 -0.00000000000E+00 -0.13318061656E+02  0.13318062610E+02  0.50400000000E-02 0.  1.
         24    2    1    2    0    0 -0.35527136788E-14  0.35527136788E-14  0.10036184511E+03  0.12699796940E+03  0.77820204824E+02 0.  0.
         66    2    3    3    0    0 -0.25657909734E+02 -0.20305449883E+02  0.84498387882E+02  0.90634525311E+02  0.19999992185E+01 0.  0.
        -13    1    3    3    0    0  0.25657909734E+02  0.20305449883E+02  0.15863457224E+02  0.36363444089E+02  0.10566000000E+00 0.  1.
         13    1    4    4    0    0 -0.12249055597E+01 -0.10220865431E+01  0.40950374279E+01  0.43960834959E+01  0.10566000000E+00 0. -1.
        -13    1    4    4    0    0 -0.19536031831E+02 -0.16247670985E+02  0.66434004665E+02  0.71127571954E+02  0.10566000000E+00 0.  1.
        -14    1    4    4    0    0 -0.48969723438E+01 -0.30356923552E+01  0.13969345789E+02  0.15110869862E+02  0.00000000000E+00 0.  1.
<mgrwt>
<rscale>  0 0.77820205E+02</rscale>
<asrwt>0</asrwt>
<pdfrwt beam="1">  1        2 0.17489217E-01 0.77820205E+02</pdfrwt>
<pdfrwt beam="2">  1       -1 0.20489326E-02 0.77820205E+02</pdfrwt>
<totfact> 0.19794963E+05</totfact>
</mgrwt>
</event>
<event>
 8    1  0.7667702E-014  0.7454449E+02  0.7818608E-02  0.1345287E+00
         -1   -1    0    0    0  501 -0.00000000000E+00  0.00000000000E+00  0.31393656038E+02  0.31393656443E+02  0.50400000000E-02 0.  1.
          2   -1    0    0  501    0  0.00000000000E+00 -0.00000000000E+00 -0.44251619710E+02  0.44251619783E+02  0.25500000000E-02 0. -1.
         24    2    1    2    0    0  0.00000000000E+00  0.00000000000E+00 -0.12857963671E+02  0.75645276226E+02  0.74544487291E+02 0.  0.
         66    2    3    3    0    0  0.12223407831E+02  0.26887569814E+02 -0.29459239974E+02  0.41763619708E+02  0.20000004371E+01 0.  0.
        -13    1    3    3    0    0 -0.12223407831E+02 -0.26887569814E+02  0.16601276302E+02  0.33881656518E+02  0.10566000000E+00 0.  1.
         13    1    4    4    0    0  0.61084391748E+01  0.13488085479E+02 -0.15377023919E+02  0.21347259957E+02  0.10566000000E+00 0. -1.
        -13    1    4    4    0    0  0.38787749920E+01  0.83616234304E+01 -0.96319507474E+01  0.13332189658E+02  0.10566000000E+00 0.  1.
         14    1    4    4    0    0  0.22361936643E+01  0.50378609045E+01 -0.44502653073E+01  0.70841700927E+01  0.00000000000E+00 0. -1.
<mgrwt>
<rscale>  0 0.74544487E+02</rscale>
<asrwt>0</asrwt>
<pdfrwt beam="1">  1        2 0.68079415E-02 0.74544487E+02</pdfrwt>
<pdfrwt beam="2">  1       -1 0.48297933E-02 0.74544487E+02</pdfrwt>
<totfact> 0.17662660E+05</totfact>
</mgrwt>
</event>
<event>
 8    1  0.7667702E-014  0.7835185E+02  0.7818608E-02  0.1333795E+00
          2   -1    0    0  501    0  0.00000000000E+00  0.00000000000E+00  0.75790776424E+03  0.75790776425E+03  0.25500000000E-02 0. -1.
         -1   -1    0    0    0  501 -0.00000000000E+00 -0.00000000000E+00 -0.20249835837E+01  0.20249898558E+01  0.50400000000E-02 0.  1.
         24    2    1    2    0    0  0.00000000000E+00  0.00000000000E+00  0.75588278066E+03  0.75993275410E+03  0.78351851678E+02 0.  0.
         66    2    3    3    0    0 -0.28690167613E+02  0.17558376170E+02  0.57248772539E+03  0.57347852445E+03  0.20000001580E+01 0.  0.
        -13    1    3    3    0    0  0.28690167613E+02 -0.17558376170E+02  0.18339505527E+03  0.18645422965E+03  0.10566000000E+00 0.  1.
         13    1    4    4    0    0 -0.32544921597E+01  0.21992321525E+01  0.63032551663E+02  0.63154905387E+02  0.10566000000E+00 0. -1.
        -13    1    4    4    0    0 -0.24846718305E+01  0.15254658981E+01  0.42334727998E+02  0.42435138730E+02  0.10566000000E+00 0.  1.
         14    1    4    4    0    0 -0.22951003623E+02  0.13833678119E+02  0.46712044573E+03  0.46788848034E+03  0.00000000000E+00 0. -1.
<mgrwt>
<rscale>  0 0.78351852E+02</rscale>
<asrwt>0</asrwt>
<pdfrwt beam="1">  1        2 0.11660136E+00 0.78351852E+02</pdfrwt>
<pdfrwt beam="2">  1       -1 0.31153599E-03 0.78351852E+02</pdfrwt>
<totfact> 0.35912857E+05</totfact>
</mgrwt>
</event>
<event>
 8    1  0.7667702E-014  0.8254505E+02  0.7818608E-02  0.1321980E+00
         -1   -1    0    0    0  501 -0.00000000000E+00  0.00000000000E+00  0.49307746352E+01  0.49307772110E+01  0.50400000000E-02 0.  1.
          2   -1    0    0  501    0  0.00000000000E+00 -0.00000000000E+00 -0.34546718421E+03  0.34546718422E+03  0.25500000000E-02 0. -1.
         24    2    1    2    0    0  0.35527136788E-14  0.17763568394E-14 -0.34053640958E+03  0.35039796143E+03  0.82545049085E+02 0.  0.
         66    2    3    3    0    0 -0.31461296867E+02  0.15171446323E+02 -0.26350810058E+03  0.26582043761E+03  0.19999997104E+01 0.  0.
        -13    1    3    3    0    0  0.31461296867E+02 -0.15171446323E+02 -0.77028309001E+02  0.84577523821E+02  0.10566000000E+00 0.  1.
         13    1    4    4    0    0 -0.10155596334E+02  0.51418890595E+01 -0.89265642963E+02  0.89988562260E+02  0.10566000000E+00 0. -1.
        -13    1    4    4    0    0 -0.18481317990E+02  0.89063549251E+01 -0.15470936827E+03  0.15606371156E+03  0.10566000000E+00 0.  1.
        -14    1    4    4    0    0 -0.28243825427E+01  0.11232023387E+01 -0.19533089346E+02  0.19768163790E+02  0.00000000000E+00 0.  1.
<mgrwt>
<rscale>  0 0.82545049E+02</rscale>
<asrwt>0</asrwt>
<pdfrwt beam="1">  1        2 0.53148778E-01 0.82545049E+02</pdfrwt>
<pdfrwt beam="2">  1       -1 0.75858119E-03 0.82545049E+02</pdfrwt>
<totfact> 0.24710462E+05</totfact>
</mgrwt>
</event>
<event>
 8    1  0.7667702E-014  0.8011169E+02  0.7818608E-02  0.1328735E+00
         -1   -1    0    0    0  501 -0.00000000000E+00  0.00000000000E+00  0.29716272095E+01  0.29716314835E+01  0.50400000000E-02 0.  1.
          2   -1    0    0  501    0  0.00000000000E+00 -0.00000000000E+00 -0.53992965630E+03  0.53992965631E+03  0.25500000000E-02 0. -1.
         24    2    1    2    0    0 -0.35527136788E-14 -0.35527136788E-14 -0.53695802909E+03  0.54290128779E+03  0.80111692522E+02 0.  0.
         66    2    3    3    0    0 -0.24430746399E+02 -0.31297263721E+02 -0.30325788569E+03  0.30585245679E+03  0.20000022054E+01 0.  0.
        -13    1    3    3    0    0  0.24430746399E+02  0.31297263721E+02 -0.23370014341E+03  0.23704883100E+03  0.10566000000E+00 0.  1.
         13    1    4    4    0    0 -0.59346192008E+01 -0.65748882484E+01 -0.68775775325E+02  0.69343833873E+02  0.10566000000E+00 0. -1.
        -13    1    4    4    0    0 -0.10938822993E+02 -0.13852323137E+02 -0.13197512576E+03  0.13315025230E+03  0.10566000000E+00 0.  1.
         14    1    4    4    0    0 -0.75573042046E+01 -0.10870052336E+02 -0.10250698460E+03  0.10335837062E+03  0.00000000000E+00 0. -1.
<mgrwt>
<rscale>  0 0.80111693E+02</rscale>
<asrwt>0</asrwt>
<pdfrwt beam="1">  1        2 0.83066023E-01 0.80111693E+02</pdfrwt>
<pdfrwt beam="2">  1       -1 0.45717418E-03 0.80111693E+02</pdfrwt>
<totfact> 0.31075166E+05</totfact>
</mgrwt>
</event>
<event>
 8    1  0.7667702E-014  0.7648211E+02  0.7818608E-02  0.1339342E+00
          2   -1    0    0  501    0  0.00000000000E+00  0.00000000000E+00  0.21016882696E+04  0.21016882696E+04  0.25500000000E-02 0. -1.
         -1   -1    0    0    0  501 -0.00000000000E+00 -0.00000000000E+00 -0.69580202444E+00  0.69582027767E+00  0.50400000000E-02 0.  1.
         24    2    1    2    0    0 -0.17763568394E-14  0.44408920985E-15  0.21009924675E+04  0.21023840899E+04  0.76482106194E+02 0.  0.
         66    2    3    3    0    0  0.14243457396E+02 -0.31110444769E+01  0.20222320581E+04  0.20222856009E+04  0.20000024592E+01 0.  0.
        -13    1    3    3    0    0 -0.14243457396E+02  0.31110444769E+01  0.78760409423E+02  0.80098488955E+02  0.10566000000E+00 0.  1.
         13    1    4    4    0    0  0.78213631560E+01 -0.18939993044E+01  0.10461354048E+04  0.10461663622E+04  0.10566000000E+00 0. -1.
        -13    1    4    4    0    0  0.15633566633E+01 -0.81049696654E+00  0.25522099751E+03  0.25522709442E+03  0.10566000000E+00 0.  1.
        -14    1    4    4    0    0  0.48587375768E+01 -0.40654820596E+00  0.72087565579E+03  0.72089214430E+03  0.00000000000E+00 0.  1.
<mgrwt>
<rscale>  0 0.76482106E+02</rscale>
<asrwt>0</asrwt>
<pdfrwt beam="1">  1        2 0.32334109E+00 0.76482106E+02</pdfrwt>
<pdfrwt beam="2">  1       -1 0.10704640E-03 0.76482106E+02</pdfrwt>
<totfact> 0.29712497E+05</totfact>
</mgrwt>
</event>
<event>
 8    1  0.7667702E-014  0.8115200E+02  0.7818608E-02  0.1325814E+00
          2   -1    0    0  501    0  0.00000000000E+00  0.00000000000E+00  0.14799279396E+02  0.14799279616E+02  0.25500000000E-02 0. -1.
         -1   -1    0    0    0  501 -0.00000000000E+00 -0.00000000000E+00 -0.11124945546E+03  0.11124945557E+03  0.50400000000E-02 0.  1.
         24    2    1    2    0    0  0.00000000000E+00 -0.35527136788E-14 -0.96450176064E+02  0.12604873519E+03  0.81152000470E+02 0.  0.
         66    2    3    3    0    0 -0.24672136599E+02  0.20510956285E+02 -0.97353503908E+01  0.33588550204E+02  0.20000013717E+01 0.  0.
        -13    1    3    3    0    0  0.24672136599E+02 -0.20510956285E+02 -0.86714825673E+02  0.92460184986E+02  0.10566000000E+00 0.  1.
         13    1    4    4    0    0 -0.10575250092E+02  0.87032023723E+01 -0.37823164992E+01  0.14209107226E+02  0.10566000000E+00 0. -1.
        -13    1    4    4    0    0 -0.15574189652E+01  0.19139292337E+01 -0.79198305367E+00  0.25936615310E+01  0.10566000000E+00 0.  1.
        -14    1    4    4    0    0 -0.12539467542E+02  0.98938246791E+01 -0.51610508378E+01  0.16785781447E+02  0.00000000000E+00 0.  1.
<mgrwt>
<rscale>  0 0.81152000E+02</rscale>
<asrwt>0</asrwt>
<pdfrwt beam="1">  1        2 0.22768123E-02 0.81152000E+02</pdfrwt>
<pdfrwt beam="2">  1       -1 0.17115300E-01 0.81152000E+02</pdfrwt>
<totfact> 0.11173439E+05</totfact>
</mgrwt>
</event>
<event>
 8    1  0.7667702E-014  0.8032778E+02  0.7818608E-02  0.1328124E+00
         -1   -1    0    0    0  501 -0.00000000000E+00  0.00000000000E+00  0.21831965249E+01  0.21832023424E+01  0.50400000000E-02 0.  1.
          2   -1    0    0  501    0  0.00000000000E+00 -0.00000000000E+00 -0.73888716508E+03  0.73888716508E+03  0.25500000000E-02 0. -1.
         24    2    1    2    0    0  0.00000000000E+00  0.00000000000E+00 -0.73670396855E+03  0.74107036742E+03  0.80327779710E+02 0.  0.
         66    2    3    3    0    0  0.11517648497E+02  0.22033480386E+02 -0.65929565349E+03  0.65976729928E+03  0.20000007603E+01 0.  0.
        -13    1    3    3    0    0 -0.11517648497E+02 -0.22033480386E+02 -0.77408315058E+02  0.81303068141E+02  0.10566000000E+00 0.  1.
         13    1    4    4    0    0  0.72011136201E+01  0.14138669674E+02 -0.40860538850E+03  0.40891335597E+03  0.10566000000E+00 0. -1.
        -13    1    4    4    0    0  0.14627682511E+01  0.29762766422E+01 -0.79342614073E+02  0.79411960595E+02  0.10566000000E+00 0.  1.
         14    1    4    4    0    0  0.28537666263E+01  0.49185340699E+01 -0.17134765092E+03  0.17144198272E+03  0.00000000000E+00 0. -1.
<mgrwt>
<rscale>  0 0.80327780E+02</rscale>
<asrwt>0</asrwt>
<pdfrwt beam="1">  1        2 0.11367475E+00 0.80327780E+02</pdfrwt>
<pdfrwt beam="2">  1       -1 0.33587743E-03 0.80327780E+02</pdfrwt>
<totfact> 0.33491323E+05</totfact>
</mgrwt>
</event>
<event>
 8    1  0.7667702E-014  0.7902561E+02  0.7818608E-02  0.1331840E+00
         -1   -1    0    0    0  501 -0.00000000000E+00  0.00000000000E+00  0.20124820151E+01  0.20124883261E+01  0.50400000000E-02 0.  1.
          2   -1    0    0  501    0  0.00000000000E+00 -0.00000000000E+00 -0.77578798831E+03  0.77578798831E+03  0.25500000000E-02 0. -1.
         24    2    1    2    0    0  0.17763568394E-14 -0.35527136788E-14 -0.77377550629E+03  0.77780047664E+03  0.79025611797E+02 0.  0.
         66    2    3    3    0    0  0.94403934393E+01 -0.27906988134E+02 -0.64592331029E+03  0.64659789968E+03  0.20000182768E+01 0.  0.
        -13    1    3    3    0    0 -0.94403934393E+01  0.27906988134E+02 -0.12785219600E+03  0.13120257696E+03  0.10566000000E+00 0.  1.
         13    1    4    4    0    0  0.56257515954E+01 -0.16107572859E+02 -0.37985966078E+03  0.38024265416E+03  0.10566000000E+00 0. -1.
        -13    1    4    4    0    0  0.36830255177E+01 -0.10084231301E+02 -0.22709267595E+03  0.22734632399E+03  0.10566000000E+00 0.  1.
        -14    1    4    4    0    0  0.13161632616E+00 -0.17151839742E+01 -0.38970973560E+02  0.39008921533E+02  0.00000000000E+00 0.  1.
<mgrwt>
<rscale>  0 0.79025612E+02</rscale>
<asrwt>0</asrwt>
<pdfrwt beam="1">  1        2 0.11935176E+00 0.79025612E+02</pdfrwt>
<pdfrwt beam="2">  1       -1 0.30961372E-03 0.79025612E+02</pdfrwt>
<totfact> 0.35281376E+05</totfact>
</mgrwt>
</event>
<event>
 8    1  0.7667702E-014  0.7933270E+02  0.7818608E-02  0.1330956E+00
         -1   -1    0    0    0  501 -0.00000000000E+00  0.00000000000E+00  0.13870482199E+01  0.13870573765E+01  0.50400000000E-02 0.  1.
          2   -1    0    0  501    0  0.00000000000E+00 -0.00000000000E+00 -0.11343614196E+04  0.11343614196E+04  0.25500000000E-02 0. -1.
         24    2    1    2    0    0  0.00000000000E+00  0.00000000000E+00 -0.11329743714E+04  0.11357484770E+04  0.79332696644E+02 0.  0.
         66    2    3    3    0    0 -0.24299312885E+02  0.86441183844E+01 -0.99781995315E+03  0.99815521653E+03  0.19999993200E+01 0.  0.
        -13    1    3    3    0    0  0.24299312885E+02 -0.86441183844E+01 -0.13515441824E+03  0.13759326045E+03  0.10566000000E+00 0.  1.
         13    1    4    4    0    0 -0.99165045425E+01  0.38468501077E+01 -0.38012870550E+03  0.38027750292E+03  0.10566000000E+00 0. -1.
        -13    1    4    4    0    0 -0.11137811988E+02  0.38577551409E+01 -0.46919356051E+03  0.46934160429E+03  0.10566000000E+00 0.  1.
         14    1    4    4    0    0 -0.32449963540E+01  0.93951313581E+00 -0.14849768714E+03  0.14853610932E+03  0.00000000000E+00 0. -1.
<mgrwt>
<rscale>  0 0.79332697E+02</rscale>
<asrwt>0</asrwt>
<pdfrwt beam="1">  1        2 0.17451640E+00 0.79332697E+02</pdfrwt>
<pdfrwt beam="2">  1       -1 0.21339365E-03 0.79332697E+02</pdfrwt>
<totfact> 0.35977047E+05</totfact>
</mgrwt>
</event>
<event>
 8    1  0.7667702E-014  0.7794485E+02  0.7818608E-02  0.1334987E+00
          2   -1    0    0  501    0  0.00000000000E+00  0.00000000000E+00  0.50271926823E+03  0.50271926824E+03  0.25500000000E-02 0. -1.
         -1   -1    0    0    0  501 -0.00000000000E+00 -0.00000000000E+00 -0.30212660431E+01  0.30212702469E+01  0.50400000000E-02 0.  1.
         24    2    1    2    0    0  0.00000000000E+00  0.00000000000E+00  0.49969800219E+03  0.50574053849E+03  0.77944845089E+02 0.  0.
         66    2    3    3    0    0  0.12290279277E+02  0.15868391147E+02  0.46657422740E+03  0.46701002825E+03  0.20000040871E+01 0.  0.
        -13    1    3    3    0    0 -0.12290279277E+02 -0.15868391147E+02  0.33123774794E+02  0.38730510233E+02  0.10566000000E+00 0.  1.
         13    1    4    4    0    0  0.28505803379E+01  0.40394281364E+01  0.11583060653E+03  0.11593611759E+03  0.10566000000E+00 0.  1.
        -13    1    4    4    0    0  0.56862902916E+01  0.61544340877E+01  0.20638682029E+03  0.20655687282E+03  0.10566000000E+00 0.  1.
         14    1    4    4    0    0  0.37534086475E+01  0.56745289230E+01  0.14435680057E+03  0.14451703784E+03  0.00000000000E+00 0. -1.
<mgrwt>
<rscale>  0 0.77944845E+02</rscale>
<asrwt>0</asrwt>
<pdfrwt beam="1">  1        2 0.77341410E-01 0.77944845E+02</pdfrwt>
<pdfrwt beam="2">  1       -1 0.46481058E-03 0.77944845E+02</pdfrwt>
<totfact> 0.32641756E+05</totfact>
</mgrwt>
</event>
<event>
 8    1  0.7667702E-014  0.8143433E+02  0.7818608E-02  0.1325030E+00
          2   -1    0    0  501    0  0.00000000000E+00  0.00000000000E+00  0.35881679702E+03  0.35881679703E+03  0.25500000000E-02 0. -1.
         -1   -1    0    0    0  501 -0.00000000000E+00 -0.00000000000E+00 -0.46204270786E+01  0.46204298274E+01  0.50400000000E-02 0.  1.
         24    2    1    2    0    0  0.00000000000E+00  0.00000000000E+00  0.35419636994E+03  0.36343722686E+03  0.81434325597E+02 0.  0.
         66    2    3    3    0    0  0.48196770533E+01  0.23587707448E+02  0.32361889392E+03  0.32451933337E+03  0.19999997966E+01 0.  0.
        -13    1    3    3    0    0 -0.48196770533E+01 -0.23587707448E+02  0.30577476019E+02  0.38917893485E+02  0.10566000000E+00 0.  1.
         13    1    4    4    0    0 -0.51318983582E-01  0.10318978469E+01  0.11332662740E+02  0.11380151827E+02  0.10566000000E+00 0. -1.
        -13    1    4    4    0    0  0.26222811871E+01  0.11014356653E+02  0.14746450317E+03  0.14789855737E+03  0.10566000000E+00 0.  1.
         14    1    4    4    0    0  0.22487148498E+01  0.11541452948E+02  0.16482172801E+03  0.16524062418E+03  0.00000000000E+00 0. -1.
<mgrwt>
<rscale>  0 0.81434326E+02</rscale>
<asrwt>0</asrwt>
<pdfrwt beam="1">  1        2 0.55202591E-01 0.81434326E+02</pdfrwt>
<pdfrwt beam="2">  1       -1 0.71083507E-03 0.81434326E+02</pdfrwt>
<totfact> 0.25953645E+05</totfact>
</mgrwt>
</event>
<event>
 8    1  0.7667702E-014  0.7779505E+02  0.7818608E-02  0.1335428E+00
          2   -1    0    0  501    0  0.00000000000E+00  0.00000000000E+00  0.11257792369E+03  0.11257792372E+03  0.25500000000E-02 0. -1.
         -1   -1    0    0    0  501 -0.00000000000E+00 -0.00000000000E+00 -0.13439735926E+02  0.13439736871E+02  0.50400000000E-02 0.  1.
         24    2    1    2    0    0  0.17763568394E-14  0.00000000000E+00  0.99138187767E+02  0.12601766059E+03  0.77795054519E+02 0.  0.
         66    2    3    3    0    0 -0.15307667034E+02  0.22971553829E+02  0.93933945379E+02  0.97926518605E+02  0.19999990630E+01 0.  0.
        -13    1    3    3    0    0  0.15307667034E+02 -0.22971553829E+02  0.52042423879E+01  0.28091141988E+02  0.10566000000E+00 0.  1.
         13    1    4    4    0    0 -0.91271025845E+01  0.13367772503E+02  0.55618486277E+02  0.57926060828E+02  0.10566000000E+00 0. -1.
        -13    1    4    4    0    0 -0.36707401981E+01  0.66996157062E+01  0.26240585580E+02  0.27330178921E+02  0.10566000000E+00 0.  1.
        -14    1    4    4    0    0 -0.25098242517E+01  0.29041656198E+01  0.12074873521E+02  0.12670278855E+02  0.00000000000E+00 0.  1.
<mgrwt>
<rscale>  0 0.77795055E+02</rscale>
<asrwt>0</asrwt>
<pdfrwt beam="1">  1        2 0.17319681E-01 0.77795055E+02</pdfrwt>
<pdfrwt beam="2">  1       -1 0.20676517E-02 0.77795055E+02</pdfrwt>
<totfact> 0.19755903E+05</totfact>
</mgrwt>
</event>
<event>
 8    1  0.7667702E-014  0.7826813E+02  0.7818608E-02  0.1334039E+00
          2   -1    0    0  501    0  0.00000000000E+00  0.00000000000E+00  0.21317113271E+02  0.21317113423E+02  0.25500000000E-02 0. -1.
         -1   -1    0    0    0  501 -0.00000000000E+00 -0.00000000000E+00 -0.71842514539E+02  0.71842514716E+02  0.50400000000E-02 0.  1.
         24    2    1    2    0    0  0.88817841970E-15  0.00000000000E+00 -0.50525401268E+02  0.93159628139E+02  0.78268129796E+02 0.  0.
         66    2    3    3    0    0  0.39249368507E+01  0.20412238858E+02  0.14150811171E+02  0.25225187360E+02  0.19999990096E+01 0.  0.
        -13    1    3    3    0    0 -0.39249368507E+01 -0.20412238858E+02 -0.64676212439E+02  0.67934440779E+02  0.10566000000E+00 0.  1.
         13    1    4    4    0    0  0.11873229496E+01  0.57577921103E+01  0.34773659612E+01  0.68311890499E+01  0.10566000000E+00 0. -1.
        -13    1    4    4    0    0  0.52469458608E-01  0.32935450687E+01  0.20623342998E+01  0.38877472864E+01  0.10566000000E+00 0.  1.
        -14    1    4    4    0    0  0.26851444424E+01  0.11360901680E+02  0.86111109101E+01  0.14506251023E+02  0.00000000000E+00 0.  1.
<mgrwt>
<rscale>  0 0.78268130E+02</rscale>
<asrwt>0</asrwt>
<pdfrwt beam="1">  1        2 0.32795559E-02 0.78268130E+02</pdfrwt>
<pdfrwt beam="2">  1       -1 0.11052694E-01 0.78268130E+02</pdfrwt>
<totfact> 0.13386631E+05</totfact>
</mgrwt>
</event>
<event>
 8    1  0.7667702E-014  0.8441269E+02  0.7818608E-02  0.1316976E+00
          2   -1    0    0  501    0  0.00000000000E+00  0.00000000000E+00  0.44419469152E+02  0.44419469226E+02  0.25500000000E-02 0. -1.
         -1   -1    0    0    0  501 -0.00000000000E+00 -0.00000000000E+00 -0.40103488637E+02  0.40103488953E+02  0.50400000000E-02 0.  1.
         24    2    1    2    0    0  0.00000000000E+00  0.00000000000E+00  0.43159805158E+01  0.84522958179E+02  0.84412693189E+02 0.  0.
         66    2    3    3    0    0  0.28031806876E+02  0.27043548099E+01  0.33605236000E+02  0.43890860244E+02  0.19999986732E+01 0.  0.
        -13    1    3    3    0    0 -0.28031806876E+02 -0.27043548099E+01 -0.29289255485E+02  0.40632097934E+02  0.10566000000E+00 0.  1.
         13    1    4    4    0    0  0.15084334039E+02  0.14004445400E+01  0.16997939217E+02  0.22769266127E+02  0.10566000000E+00 0. -1.
        -13    1    4    4    0    0  0.39898374285E+01  0.69058232820E+00  0.46121644961E+01  0.61383167100E+01  0.10566000000E+00 0.  1.
         14    1    4    4    0    0  0.89576354082E+01  0.61332794169E+00  0.11995132287E+02  0.14983277407E+02  0.00000000000E+00 0. -1.
<mgrwt>
<rscale>  0 0.84412693E+02</rscale>
<asrwt>0</asrwt>
<pdfrwt beam="1">  1        2 0.68337645E-02 0.84412693E+02</pdfrwt>
<pdfrwt beam="2">  1       -1 0.61697675E-02 0.84412693E+02</pdfrwt>
<totfact> 0.12560477E+05</totfact>
</mgrwt>
</event>
<event>
 8    1  0.7667702E-014  0.7572808E+02  0.7818608E-02  0.1341631E+00
          2   -1    0    0  501    0  0.00000000000E+00  0.00000000000E+00  0.10849712112E+04  0.10849712112E+04  0.25500000000E-02 0. -1.
         -1   -1    0    0    0  501 -0.00000000000E+00 -0.00000000000E+00 -0.13213993080E+01  0.13214089195E+01  0.50400000000E-02 0.  1.
         24    2    1    2    0    0  0.35527136788E-14 -0.22204460493E-15  0.10836498119E+04  0.10862926201E+04  0.75728077480E+02 0.  0.
         66    2    3    3    0    0  0.19164906615E+02 -0.11566179269E+01  0.10099009100E+04  0.10100853823E+04  0.19999980200E+01 0.  0.
        -13    1    3    3    0    0 -0.19164906615E+02  0.11566179269E+01  0.73748901832E+02  0.76207237819E+02  0.10566000000E+00 0.  1.
         13    1    4    4    0    0  0.31015724846E+01 -0.47264889947E+00  0.14114693869E+03  0.14118184237E+03  0.10566000000E+00 0. -1.
        -13    1    4    4    0    0  0.34828961810E+01 -0.14334308034E+00  0.16386980186E+03  0.16390690723E+03  0.10566000000E+00 0.  1.
        -14    1    4    4    0    0  0.12580437949E+02 -0.54062594705E+00  0.70488416949E+03  0.70499663268E+03  0.00000000000E+00 0.  1.
<mgrwt>
<rscale>  0 0.75728077E+02</rscale>
<asrwt>0</asrwt>
<pdfrwt beam="1">  1        2 0.16691907E+00 0.75728077E+02</pdfrwt>
<pdfrwt beam="2">  1       -1 0.20329243E-03 0.75728077E+02</pdfrwt>
<totfact> 0.40647236E+05</totfact>
</mgrwt>
</event>
<event>
 8    1  0.7667702E-014  0.8128235E+02  0.7818608E-02  0.1325451E+00
          2   -1    0    0  501    0  0.00000000000E+00  0.00000000000E+00  0.31029405829E+03  0.31029405830E+03  0.25500000000E-02 0. -1.
         -1   -1    0    0    0  501 -0.00000000000E+00 -0.00000000000E+00 -0.53230301408E+01  0.53230325268E+01  0.50400000000E-02 0.  1.
         24    2    1    2    0    0  0.00000000000E+00 -0.17763568394E-14  0.30497102815E+03  0.31561709083E+03  0.81282347481E+02 0.  0.
         66    2    3    3    0    0  0.13697240626E+02  0.10891348042E+02  0.29490130651E+03  0.29542683771E+03  0.19999994022E+01 0.  0.
        -13    1    3    3    0    0 -0.13697240626E+02 -0.10891348042E+02  0.10069721644E+02  0.20190253118E+02  0.10566000000E+00 0.  1.
         13    1    4    4    0    0  0.34827540987E+01  0.32128185273E+01  0.70542789592E+02  0.70701825341E+02  0.10566000000E+00 0. -1.
        -13    1    4    4    0    0  0.62794831653E+01  0.51758662851E+01  0.14956149393E+03  0.14978275312E+03  0.10566000000E+00 0.  1.
         14    1    4    4    0    0  0.39350033623E+01  0.25026632294E+01  0.74797022983E+02  0.74942259252E+02  0.00000000000E+00 0. -1.
<mgrwt>
<rscale>  0 0.81282347E+02</rscale>
<asrwt>0</asrwt>
<pdfrwt beam="1">  1        2 0.47737546E-01 0.81282347E+02</pdfrwt>
<pdfrwt beam="2">  1       -1 0.81892792E-03 0.81282347E+02</pdfrwt>
<totfact> 0.24753388E+05</totfact>
</mgrwt>
</event>
<event>
 8    1  0.7667702E-014  0.7678865E+02  0.7818608E-02  0.1338420E+00
         -1   -1    0    0    0  501 -0.00000000000E+00  0.00000000000E+00  0.61762715486E+01  0.61762736050E+01  0.50400000000E-02 0.  1.
          2   -1    0    0  501    0  0.00000000000E+00 -0.00000000000E+00 -0.23867536114E+03  0.23867536115E+03  0.25500000000E-02 0. -1.
         24    2    1    2    0    0 -0.35527136788E-14  0.71054273576E-14 -0.23249908959E+03  0.24485163475E+03  0.76788647488E+02 0.  0.
         66    2    3    3    0    0  0.25688699952E+02 -0.22952522595E+02 -0.17019565521E+03  0.17365854030E+03  0.19999920436E+01 0.  0.
        -13    1    3    3    0    0 -0.25688699952E+02  0.22952522595E+02 -0.62303434378E+02  0.71193094455E+02  0.10566000000E+00 0.  1.
         13    1    4    4    0    0  0.18377573361E+02 -0.16020654012E+02 -0.12072225388E+03  0.12315953192E+03  0.10566000000E+00 0. -1.
        -13    1    4    4    0    0  0.32097258324E+01 -0.36284607542E+01 -0.25035610066E+02  0.25500215740E+02  0.10566000000E+00 0.  1.
        -14    1    4    4    0    0  0.41014007586E+01 -0.33034078291E+01 -0.24437791265E+02  0.24998792639E+02  0.00000000000E+00 0.  1.
<mgrwt>
<rscale>  0 0.76788647E+02</rscale>
<asrwt>0</asrwt>
<pdfrwt beam="1">  1        2 0.36719279E-01 0.76788647E+02</pdfrwt>
<pdfrwt beam="2">  1       -1 0.95019597E-03 0.76788647E+02</pdfrwt>
<totfact> 0.26142139E+05</totfact>
</mgrwt>
</event>
<event>
 8    1  0.7667702E-014  0.8039629E+02  0.7818608E-02  0.1327931E+00
          2   -1    0    0  501    0  0.00000000000E+00  0.00000000000E+00  0.21099464671E+02  0.21099464825E+02  0.25500000000E-02 0. -1.
         -1   -1    0    0    0  501 -0.00000000000E+00 -0.00000000000E+00 -0.76584439464E+02  0.76584439630E+02  0.50400000000E-02 0.  1.
         24    2    1    2    0    0  0.17763568394E-14 -0.17763568394E-14 -0.55484974793E+02  0.97683904455E+02  0.80396285746E+02 0.  0.
         66    2    3    3    0    0 -0.13492802965E+02  0.12858996114E+02  0.15480377856E+02  0.24311553030E+02  0.19999998220E+01 0.  0.
        -13    1    3    3    0    0  0.13492802965E+02 -0.12858996114E+02 -0.70965352649E+02  0.73372351424E+02  0.10566000000E+00 0.  1.
         13    1    4    4    0    0 -0.18602910533E+01  0.16271425889E+01  0.20031593037E+01  0.31830939413E+01  0.10566000000E+00 0. -1.
        -13    1    4    4    0    0 -0.10960656943E+02  0.10146543084E+02  0.11886680423E+02  0.19089072075E+02  0.10566000000E+00 0.  1.
        -14    1    4    4    0    0 -0.67185496813E+00  0.10853104418E+01  0.15905381291E+01  0.20393870141E+01  0.00000000000E+00 0.  1.
<mgrwt>
<rscale>  0 0.80396286E+02</rscale>
<asrwt>0</asrwt>
<pdfrwt beam="1">  1        2 0.32460715E-02 0.80396286E+02</pdfrwt>
<pdfrwt beam="2">  1       -1 0.11782221E-01 0.80396286E+02</pdfrwt>
<totfact> 0.12373955E+05</totfact>
</mgrwt>
</event>
<event>
 8    1  0.7667702E-014  0.7913076E+02  0.7818608E-02  0.1331536E+00
         -1   -1    0    0    0  501 -0.00000000000E+00  0.00000000000E+00  0.10136803403E+02  0.10136804656E+02  0.50400000000E-02 0.  1.
          2   -1    0    0  501    0  0.00000000000E+00 -0.00000000000E+00 -0.15442926873E+03  0.15442926875E+03  0.25500000000E-02 0. -1.
         24    2    1    2    0    0  0.00000000000E+00  0.00000000000E+00 -0.14429246533E+03  0.16456607341E+03  0.79130758661E+02 0.  0.
         66    2    3    3    0    0 -0.57796968449E+01 -0.39078413951E+02 -0.68658607367E+02  0.79237186349E+02  0.20000005981E+01 0.  0.
        -13    1    3    3    0    0  0.57796968449E+01  0.39078413951E+02 -0.75633857959E+02  0.85328887057E+02  0.10566000000E+00 0.  1.
         13    1    4    4    0    0 -0.13436104951E+01 -0.89627415148E+01 -0.16949781929E+02  0.19220881773E+02  0.10566000000E+00 0.  1.
        -13    1    4    4    0    0 -0.28393747991E+01 -0.15352588271E+02 -0.26933627792E+02  0.31131904631E+02  0.10566000000E+00 0. -1.
        -14    1    4    4    0    0 -0.15967115507E+01 -0.14763084165E+02 -0.24775197645E+02  0.28884399945E+02  0.00000000000E+00 0.  1.
<mgrwt>
<rscale>  0 0.79130759E+02</rscale>
<asrwt>0</asrwt>
<pdfrwt beam="1">  1        2 0.23758347E-01 0.79130759E+02</pdfrwt>
<pdfrwt beam="2">  1       -1 0.15595084E-02 0.79130759E+02</pdfrwt>
<totfact> 0.20813525E+05</totfact>
</mgrwt>
</event>
<event>
 8    1  0.7667702E-014  0.7733227E+02  0.7818608E-02  0.1336797E+00
          2   -1    0    0  501    0  0.00000000000E+00  0.00000000000E+00  0.91351497852E+01  0.91351501411E+01  0.25500000000E-02 0. -1.
         -1   -1    0    0    0  501 -0.00000000000E+00 -0.00000000000E+00 -0.16366122132E+03  0.16366122140E+03  0.50400000000E-02 0.  1.
         24    2    1    2    0    0  0.00000000000E+00  0.00000000000E+00 -0.15452607154E+03  0.17279637154E+03  0.77332265148E+02 0.  0.
         66    2    3    3    0    0  0.23052826978E+01 -0.30417465906E+02 -0.24318205113E+02  0.39062919469E+02  0.20000042543E+01 0.  0.
        -13    1    3    3    0    0 -0.23052826978E+01  0.30417465906E+02 -0.13020786642E+03  0.13373345207E+03  0.10566000000E+00 0.  1.
         13    1    4    4    0    0  0.36538217905E+00 -0.11361497164E+02 -0.99331550959E+01  0.15096219929E+02  0.10566000000E+00 0. -1.
        -13    1    4    4    0    0  0.36247006284E+00 -0.44476705172E+01 -0.37257422232E+01  0.58142477351E+01  0.10566000000E+00 0.  1.
         14    1    4    4    0    0  0.15774304559E+01 -0.14608298225E+02 -0.10659307794E+02  0.18152451805E+02  0.00000000000E+00 0. -1.
<mgrwt>
<rscale>  0 0.77332265E+02</rscale>
<asrwt>0</asrwt>
<pdfrwt beam="1">  1        2 0.14054078E-02 0.77332265E+02</pdfrwt>
<pdfrwt beam="2">  1       -1 0.25178647E-01 0.77332265E+02</pdfrwt>
<totfact> 0.11490287E+05</totfact>
</mgrwt>
</event>
<event>
 8    1  0.7667702E-014  0.8024968E+02  0.7818608E-02  0.1328344E+00
          2   -1    0    0  501    0  0.00000000000E+00  0.00000000000E+00  0.30141194704E+04  0.30141194704E+04  0.25500000000E-02 0. -1.
         -1   -1    0    0    0  501 -0.00000000000E+00 -0.00000000000E+00 -0.53414174331E+00  0.53416552074E+00  0.50400000000E-02 0.  1.
         24    2    1    2    0    0  0.00000000000E+00  0.00000000000E+00  0.30135853287E+04  0.30146536359E+04  0.80249682129E+02 0.  0.
         66    2    3    3    0    0  0.11777823608E+02  0.37769231004E+01  0.29406656960E+04  0.29406923875E+04  0.20000001821E+01 0.  0.
        -13    1    3    3    0    0 -0.11777823608E+02 -0.37769231004E+01  0.72919632646E+02  0.73961248410E+02  0.10566000000E+00 0.  1.
         13    1    4    4    0    0  0.57541530402E+01  0.24350581006E+01  0.15122501766E+04  0.15122630881E+04  0.10566000000E+00 0. -1.
        -13    1    4    4    0    0  0.22822498893E+01  0.24873263068E+00  0.42562317406E+03  0.42562937868E+03  0.10566000000E+00 0.  1.
        -14    1    4    4    0    0  0.37414206788E+01  0.10931323691E+01  0.10027923453E+04  0.10027999207E+04  0.00000000000E+00 0.  1.
<mgrwt>
<rscale>  0 0.80249682E+02</rscale>
<asrwt>0</asrwt>
<pdfrwt beam="1">  1        2 0.46372205E+00 0.80249682E+02</pdfrwt>
<pdfrwt beam="2">  1       -1 0.82175469E-04 0.80249682E+02</pdfrwt>
<totfact> 0.14137644E+05</totfact>
</mgrwt>
</event>
<event>
 8    1  0.7667702E-014  0.7914636E+02  0.7818608E-02  0.1331492E+00
         -1   -1    0    0    0  501 -0.00000000000E+00  0.00000000000E+00  0.17523885782E+02  0.17523886507E+02  0.50400000000E-02 0.  1.
          2   -1    0    0  501    0  0.00000000000E+00 -0.00000000000E+00 -0.89365820290E+02  0.89365820327E+02  0.25500000000E-02 0. -1.
         24    2    1    2    0    0  0.00000000000E+00  0.00000000000E+00 -0.71841934508E+02  0.10688970683E+03  0.79146357295E+02 0.  0.
         66    2    3    3    0    0  0.15321006847E+02 -0.35914911303E+02 -0.44422926677E+02  0.59177787367E+02  0.19999996009E+01 0.  0.
        -13    1    3    3    0    0 -0.15321006847E+02  0.35914911303E+02 -0.27419007831E+02  0.47711919467E+02  0.10566000000E+00 0.  1.
         13    1    4    4    0    0  0.58528683392E+01 -0.15350770658E+02 -0.18924427096E+02  0.25060872541E+02  0.10566000000E+00 0. -1.
        -13    1    4    4    0    0  0.85770211515E+01 -0.18551016645E+02 -0.23491237575E+02  0.31137676812E+02  0.10566000000E+00 0.  1.
        -14    1    4    4    0    0  0.89111735643E+00 -0.20131240003E+01 -0.20072620059E+01  0.29792380139E+01  0.00000000000E+00 0.  1.
<mgrwt>
<rscale>  0 0.79146357E+02</rscale>
<asrwt>0</asrwt>
<pdfrwt beam="1">  1        2 0.13748588E-01 0.79146357E+02</pdfrwt>
<pdfrwt beam="2">  1       -1 0.26959825E-02 0.79146357E+02</pdfrwt>
<totfact> 0.17690355E+05</totfact>
</mgrwt>
</event>
<event>
 8    1  0.7667702E-014  0.7855040E+02  0.7818608E-02  0.1333216E+00
          2   -1    0    0  501    0  0.00000000000E+00  0.00000000000E+00  0.41937610208E+03  0.41937610209E+03  0.25500000000E-02 0. -1.
         -1   -1    0    0    0  501 -0.00000000000E+00 -0.00000000000E+00 -0.36781793795E+01  0.36781828325E+01  0.50400000000E-02 0.  1.
         24    2    1    2    0    0  0.35527136788E-14  0.00000000000E+00  0.41569792270E+03  0.42305428492E+03  0.78550398165E+02 0.  0.
         66    2    3    3    0    0  0.25884410215E+02 -0.21907946206E+02  0.31442219142E+03  0.31625191739E+03  0.19999994446E+01 0.  0.
        -13    1    3    3    0    0 -0.25884410215E+02  0.21907946206E+02  0.10127573128E+03  0.10680236753E+03  0.10566000000E+00 0.  1.
         13    1    4    4    0    0  0.16333214942E+02 -0.13815116132E+02  0.19732754113E+03  0.19848375500E+03  0.10566000000E+00 0. -1.
        -13    1    4    4    0    0  0.59056831648E+01 -0.55595126541E+01  0.71967717178E+02  0.72423399219E+02  0.10566000000E+00 0.  1.
         14    1    4    4    0    0  0.36455121077E+01 -0.25333174202E+01  0.45126933108E+02  0.45344763175E+02  0.00000000000E+00 0. -1.
<mgrwt>
<rscale>  0 0.78550398E+02</rscale>
<asrwt>0</asrwt>
<pdfrwt beam="1">  1        2 0.64519358E-01 0.78550398E+02</pdfrwt>
<pdfrwt beam="2">  1       -1 0.56587439E-03 0.78550398E+02</pdfrwt>
<totfact> 0.30124567E+05</totfact>
</mgrwt>
</event>
<event>
 8    1  0.7667702E-014  0.8195239E+02  0.7818608E-02  0.1323600E+00
         -1   -1    0    0    0  501 -0.00000000000E+00  0.00000000000E+00  0.21076337528E+01  0.21076397788E+01  0.50400000000E-02 0.  1.
          2   -1    0    0  501    0  0.00000000000E+00 -0.00000000000E+00 -0.79664992404E+03  0.79664992404E+03  0.25500000000E-02 0. -1.
         24    2    1    2    0    0  0.17763568394E-14  0.00000000000E+00 -0.79454229028E+03  0.79875756382E+03  0.81952392945E+02 0.  0.
         66    2    3    3    0    0  0.11140428169E+02 -0.73488618516E+01 -0.77485664573E+03  0.77497415204E+03  0.19999969780E+01 0.  0.
        -13    1    3    3    0    0 -0.11140428169E+02  0.73488618516E+01 -0.19685644549E+02  0.23783411775E+02  0.10566000000E+00 0.  1.
         13    1    4    4    0    0  0.74097214853E+01 -0.46709502694E+01 -0.55042572608E+03  0.55049542491E+03  0.10566000000E+00 0. -1.
        -13    1    4    4    0    0  0.74652971479E+00 -0.33056832637E+00 -0.46733995573E+02  0.46741246114E+02  0.10566000000E+00 0. -1.
        -14    1    4    4    0    0  0.29841769688E+01 -0.23473432559E+01 -0.17769692408E+03  0.17773748102E+03  0.00000000000E+00 0.  1.
<mgrwt>
<rscale>  0 0.81952393E+02</rscale>
<asrwt>0</asrwt>
<pdfrwt beam="1">  1        2 0.12256129E+00 0.81952393E+02</pdfrwt>
<pdfrwt beam="2">  1       -1 0.32425245E-03 0.81952393E+02</pdfrwt>
<totfact> 0.32253162E+05</totfact>
</mgrwt>
</event>
<event>
 8    1  0.7667702E-014  0.8065558E+02  0.7818608E-02  0.1327201E+00
         -1   -1    0    0    0  501 -0.00000000000E+00  0.00000000000E+00  0.41868942997E+01  0.41868973332E+01  0.50400000000E-02 0.  1.
          2   -1    0    0  501    0  0.00000000000E+00 -0.00000000000E+00 -0.38843346765E+03  0.38843346766E+03  0.25500000000E-02 0. -1.
         24    2    1    2    0    0  0.00000000000E+00  0.16653345369E-15 -0.38424657335E+03  0.39262036499E+03  0.80655575596E+02 0.  0.
         66    2    3    3    0    0 -0.23031792901E+02  0.34420139906E+00 -0.35323008071E+03  0.35398597696E+03  0.20000017348E+01 0.  0.
        -13    1    3    3    0    0  0.23031792901E+02 -0.34420139906E+00 -0.31016492639E+02  0.38634388031E+02  0.10566000000E+00 0.  1.
         13    1    4    4    0    0 -0.91222147686E+00 -0.76853445863E-01 -0.13060919888E+02  0.13093389433E+02  0.10566000000E+00 0. -1.
        -13    1    4    4    0    0 -0.82937038074E+01 -0.70411278587E+00 -0.12916322919E+03  0.12943118726E+03  0.10566000000E+00 0.  1.
        -14    1    4    4    0    0 -0.13825867617E+02  0.11251676308E+01 -0.21100593163E+03  0.21146140026E+03  0.00000000000E+00 0.  1.
<mgrwt>
<rscale>  0 0.80655576E+02</rscale>
<asrwt>0</asrwt>
<pdfrwt beam="1">  1        2 0.59758967E-01 0.80655576E+02</pdfrwt>
<pdfrwt beam="2">  1       -1 0.64413813E-03 0.80655576E+02</pdfrwt>
<totfact> 0.27373919E+05</totfact>
</mgrwt>
</event>
<event>
 8    1  0.7667702E-014  0.7981489E+02  0.7818608E-02  0.1329578E+00
         -1   -1    0    0    0  501 -0.00000000000E+00  0.00000000000E+00  0.99278259421E+02  0.99278259549E+02  0.50400000000E-02 0.  1.
          2   -1    0    0  501    0  0.00000000000E+00 -0.00000000000E+00 -0.16041822855E+02  0.16041823057E+02  0.25500000000E-02 0. -1.
         24    2    1    2    0    0  0.00000000000E+00  0.00000000000E+00  0.83236436567E+02  0.11532008261E+03  0.79814892595E+02 0.  0.
         66    2    3    3    0    0  0.29435298953E+01 -0.31217442211E+02  0.60352070187E+01  0.31994011811E+02  0.20000003896E+01 0.  0.
        -13    1    3    3    0    0 -0.29435298953E+01  0.31217442211E+02  0.77201229548E+02  0.83326070795E+02  0.10566000000E+00 0.  1.
         13    1    4    4    0    0  0.17595570815E+01 -0.19363717347E+02  0.37966921312E+01  0.19810997597E+02  0.10566000000E+00 0. -1.
        -13    1    4    4    0    0 -0.15867678041E+00 -0.39888306444E+01  0.88647749845E+00  0.40905934314E+01  0.10566000000E+00 0.  1.
         14    1    4    4    0    0  0.13426495942E+01 -0.78648942195E+01  0.13520373891E+01  0.80924207824E+01  0.00000000000E+00 0. -1.
<mgrwt>
<rscale>  0 0.79814893E+02</rscale>
<asrwt>0</asrwt>
<pdfrwt beam="1">  1        2 0.24679727E-02 0.79814893E+02</pdfrwt>
<pdfrwt beam="2">  1       -1 0.15273579E-01 0.79814893E+02</pdfrwt>
<totfact> 0.11940116E+05</totfact>
</mgrwt>
</event>
<event>
 8    1  0.7667702E-014  0.8194307E+02  0.7818608E-02  0.1323626E+00
          2   -1    0    0  501    0  0.00000000000E+00  0.00000000000E+00  0.32824689065E+03  0.32824689066E+03  0.25500000000E-02 0. -1.
         -1   -1    0    0    0  501 -0.00000000000E+00 -0.00000000000E+00 -0.51140349988E+01  0.51140374824E+01  0.50400000000E-02 0.  1.
         24    2    1    2    0    0  0.00000000000E+00 -0.88817841970E-15  0.32313285565E+03  0.33336092814E+03  0.81943065665E+02 0.  0.
         66    2    3    3    0    0  0.94933161680E+01 -0.78738954446E+01  0.32050681519E+03  0.32075027654E+03  0.20000077827E+01 0.  0.
        -13    1    3    3    0    0 -0.94933161680E+01  0.78738954446E+01  0.26260404539E+01  0.12610651602E+02  0.10566000000E+00 0.  1.
         13    1    4    4    0    0  0.42108537912E+01 -0.45560078817E+01  0.14746365530E+03  0.14759413707E+03  0.10566000000E+00 0. -1.
        -13    1    4    4    0    0  0.51269442846E+01 -0.32942827955E+01  0.16799512277E+03  0.16810565219E+03  0.10566000000E+00 0.  1.
        -14    1    4    4    0    0  0.15551809215E+00 -0.23604767413E-01  0.50480371179E+01  0.50504872840E+01  0.00000000000E+00 0.  1.
<mgrwt>
<rscale>  0 0.81943066E+02</rscale>
<asrwt>0</asrwt>
<pdfrwt beam="1">  1        2 0.50499505E-01 0.81943066E+02</pdfrwt>
<pdfrwt beam="2">  1       -1 0.78677507E-03 0.81943066E+02</pdfrwt>
<totfact> 0.24730636E+05</totfact>
</mgrwt>
</event>
<event>
 8    1  0.7667702E-014  0.8331365E+02  0.7818608E-02  0.1319902E+00
         -1   -1    0    0    0  501 -0.00000000000E+00  0.00000000000E+00  0.28348772709E+01  0.28348817511E+01  0.50400000000E-02 0.  1.
          2   -1    0    0  501    0  0.00000000000E+00 -0.00000000000E+00 -0.61212169806E+03  0.61212169807E+03  0.25500000000E-02 0. -1.
         24    2    1    2    0    0 -0.88817841970E-15 -0.35527136788E-14 -0.60928682079E+03  0.61495657982E+03  0.83313654777E+02 0.  0.
         66    2    3    3    0    0 -0.36908960078E+01 -0.21388388385E+02 -0.56705454383E+03  0.56747329589E+03  0.20000003852E+01 0.  0.
        -13    1    3    3    0    0  0.36908960078E+01  0.21388388385E+02 -0.42232276959E+02  0.47483283924E+02  0.10566000000E+00 0.  1.
         13    1    4    4    0    0 -0.40123405841E-01 -0.16240011454E+00 -0.70019187265E+01  0.70047136681E+01  0.10566000000E+00 0. -1.
        -13    1    4    4    0    0 -0.15110476162E+00 -0.12243763328E+01 -0.41752811149E+02  0.41771166286E+02  0.10566000000E+00 0.  1.
         14    1    4    4    0    0 -0.34996678404E+01 -0.20001611937E+02 -0.51829981396E+03  0.51869741594E+03  0.00000000000E+00 0. -1.
<mgrwt>
<rscale>  0 0.83313655E+02</rscale>
<asrwt>0</asrwt>
<pdfrwt beam="1">  1        2 0.94172463E-01 0.83313655E+02</pdfrwt>
<pdfrwt beam="2">  1       -1 0.43613580E-03 0.83313655E+02</pdfrwt>
<totfact> 0.29094133E+05</totfact>
</mgrwt>
</event>
<event>
 8    1  0.7667702E-014  0.7779501E+02  0.7818608E-02  0.1335428E+00
          2   -1    0    0  501    0  0.00000000000E+00  0.00000000000E+00  0.15677310544E+03  0.15677310546E+03  0.25500000000E-02 0. -1.
         -1   -1    0    0    0  501 -0.00000000000E+00 -0.00000000000E+00 -0.96509908235E+01  0.96509921395E+01  0.50400000000E-02 0.  1.
         24    2    1    2    0    0  0.35527136788E-14  0.00000000000E+00  0.14712211462E+03  0.16642409760E+03  0.77795010463E+02 0.  0.
         66    2    3    3    0    0 -0.20904273233E+02 -0.32230001135E+02  0.86310607626E+02  0.94494881290E+02  0.19999971530E+01 0.  0.
        -13    1    3    3    0    0  0.20904273233E+02  0.32230001135E+02  0.60811506994E+02  0.71929216314E+02  0.10566000000E+00 0.  1.
         13    1    4    4    0    0 -0.15719340044E+02 -0.25382279209E+02  0.65715522861E+02  0.72179629109E+02  0.10566000000E+00 0. -1.
        -13    1    4    4    0    0 -0.28872652203E+01 -0.39123156422E+01  0.11738611123E+02  0.12706245286E+02  0.10566000000E+00 0.  1.
         14    1    4    4    0    0 -0.22976679690E+01 -0.29354062844E+01  0.88564736412E+01  0.96090068950E+01  0.00000000000E+00 0. -1.
<mgrwt>
<rscale>  0 0.77795010E+02</rscale>
<asrwt>0</asrwt>
<pdfrwt beam="1">  1        2 0.24118938E-01 0.77795010E+02</pdfrwt>
<pdfrwt beam="2">  1       -1 0.14847680E-02 0.77795010E+02</pdfrwt>
<totfact> 0.21879239E+05</totfact>
</mgrwt>
</event>
<event>
 8    1  0.7667702E-014  0.8688145E+02  0.7818608E-02  0.1310584E+00
          2   -1    0    0  501    0  0.00000000000E+00  0.00000000000E+00  0.14373364924E+02  0.14373365150E+02  0.25500000000E-02 0. -1.
         -1   -1    0    0    0  501 -0.00000000000E+00 -0.00000000000E+00 -0.13129121165E+03  0.13129121175E+03  0.50400000000E-02 0.  1.
         24    2    1    2    0    0 -0.35527136788E-14  0.00000000000E+00 -0.11691784673E+03  0.14566457690E+03  0.86881448422E+02 0.  0.
         66    2    3    3    0    0 -0.19311170264E+02  0.15843024226E+02  0.10508249793E+01  0.25080409688E+02  0.20000008510E+01 0.  0.
        -13    1    3    3    0    0  0.19311170264E+02 -0.15843024226E+02 -0.11796867171E+03  0.12058416721E+03  0.10566000000E+00 0.  1.
         13    1    4    4    0    0 -0.93124917006E+01  0.84327611030E+01  0.94020519313E+00  0.12598774200E+02  0.10566000000E+00 0. -1.
        -13    1    4    4    0    0 -0.70353434367E+00  0.39514394887E+00 -0.17709575624E+00  0.83284227530E+00  0.10566000000E+00 0.  1.
        -14    1    4    4    0    0 -0.92951442196E+01  0.70151191744E+01  0.28771554246E+00  0.11648793213E+02  0.00000000000E+00 0.  1.
<mgrwt>
<rscale>  0 0.86881448E+02</rscale>
<asrwt>0</asrwt>
<pdfrwt beam="1">  1        2 0.22112870E-02 0.86881448E+02</pdfrwt>
<pdfrwt beam="2">  1       -1 0.20198647E-01 0.86881448E+02</pdfrwt>
<totfact> 0.90557386E+04</totfact>
</mgrwt>
</event>
<event>
 8    1  0.7667702E-014  0.8000623E+02  0.7818608E-02  0.1329034E+00
          2   -1    0    0  501    0  0.00000000000E+00  0.00000000000E+00  0.46699868921E+02  0.46699868991E+02  0.25500000000E-02 0. -1.
         -1   -1    0    0    0  501 -0.00000000000E+00 -0.00000000000E+00 -0.34266673350E+02  0.34266673721E+02  0.50400000000E-02 0.  1.
         24    2    1    2    0    0  0.00000000000E+00  0.00000000000E+00  0.12433195571E+02  0.80966542711E+02  0.80006229048E+02 0.  0.
         66    2    3    3    0    0 -0.19800001117E+01 -0.35920486608E+02  0.23866578705E+02  0.43218229206E+02  0.19999994908E+01 0.  0.
        -13    1    3    3    0    0  0.19800001117E+01  0.35920486608E+02 -0.11433383133E+02  0.37748313506E+02  0.10566000000E+00 0.  1.
         13    1    4    4    0    0 -0.30404012207E+00 -0.61346719997E+01  0.37616266768E+01  0.72033075896E+01  0.10566000000E+00 0. -1.
        -13    1    4    4    0    0  0.14578008402E+00 -0.81399202715E+01  0.60196461061E+01  0.10125554658E+02  0.10566000000E+00 0.  1.
         14    1    4    4    0    0 -0.18217400737E+01 -0.21645894337E+02  0.14085305922E+02  0.25889366958E+02  0.00000000000E+00 0. -1.
<mgrwt>
<rscale>  0 0.80006229E+02</rscale>
<asrwt>0</asrwt>
<pdfrwt beam="1">  1        2 0.71845952E-02 0.80006229E+02</pdfrwt>
<pdfrwt beam="2">  1       -1 0.52717960E-02 0.80006229E+02</pdfrwt>
<totfact> 0.14721566E+05</totfact>
</mgrwt>
</event>
<event>
 8    1  0.7667702E-014  0.7668887E+02  0.7818608E-02  0.1338719E+00
          2   -1    0    0  501    0  0.00000000000E+00  0.00000000000E+00  0.32866373413E+02  0.32866373512E+02  0.25500000000E-02 0. -1.
         -1   -1    0    0    0  501 -0.00000000000E+00 -0.00000000000E+00 -0.44735564093E+02  0.44735564377E+02  0.50400000000E-02 0.  1.
         24    2    1    2    0    0  0.00000000000E+00  0.00000000000E+00 -0.11869190680E+02  0.77601937890E+02  0.76688871923E+02 0.  0.
         66    2    3    3    0    0  0.16187885685E+02 -0.34597041524E+02 -0.28547234233E+01  0.38355604187E+02  0.20000003824E+01 0.  0.
        -13    1    3    3    0    0 -0.16187885685E+02  0.34597041524E+02 -0.90144672566E+01  0.39246333703E+02  0.10566000000E+00 0.  1.
         13    1    4    4    0    0  0.13775369073E+02 -0.28324945377E+02 -0.23967280606E+01  0.31588269866E+02  0.10566000000E+00 0. -1.
        -13    1    4    4    0    0  0.10841771494E+01 -0.22468734557E+01  0.55374138273E-01  0.24976210177E+01  0.10566000000E+00 0.  1.
        -14    1    4    4    0    0  0.13283394624E+01 -0.40252226916E+01 -0.51336950091E+00  0.42697133029E+01  0.00000000000E+00 0.  1.
<mgrwt>
<rscale>  0 0.76688872E+02</rscale>
<asrwt>0</asrwt>
<pdfrwt beam="1">  1        2 0.50563652E-02 0.76688872E+02</pdfrwt>
<pdfrwt beam="2">  1       -1 0.68823945E-02 0.76688872E+02</pdfrwt>
<totfact> 0.15409320E+05</totfact>
</mgrwt>
</event>
<event>
 8    1  0.7667702E-014  0.8126186E+02  0.7818608E-02  0.1325508E+00
          2   -1    0    0  501    0  0.00000000000E+00  0.00000000000E+00  0.25877825592E+03  0.25877825593E+03  0.25500000000E-02 0. -1.
         -1   -1    0    0    0  501 -0.00000000000E+00 -0.00000000000E+00 -0.63794865425E+01  0.63794885334E+01  0.50400000000E-02 0.  1.
         24    2    1    2    0    0  0.22204460493E-15  0.71054273576E-14  0.25239876938E+03  0.26515774447E+03  0.81261864777E+02 0.  0.
         66    2    3    3    0    0  0.13103844382E+01  0.39258477604E+02  0.15985801146E+03  0.16462542025E+03  0.19999988236E+01 0.  0.
        -13    1    3    3    0    0 -0.13103844382E+01 -0.39258477604E+02  0.92540757921E+02  0.10053232421E+03  0.10566000000E+00 0.  1.
         13    1    4    4    0    0  0.69059424797E+00  0.32933359108E+02  0.13182599344E+03  0.13587930958E+03  0.10566000000E+00 0. -1.
        -13    1    4    4    0    0  0.10351377524E+00  0.67961293775E+00  0.28026109153E+01  0.28876254648E+01  0.10566000000E+00 0.  1.
         14    1    4    4    0    0  0.51627641500E+00  0.56455055584E+01  0.25229407105E+02  0.25858485207E+02  0.00000000000E+00 0. -1.
<mgrwt>
<rscale>  0 0.81261865E+02</rscale>
<asrwt>0</asrwt>
<pdfrwt beam="1">  1        2 0.39812041E-01 0.81261865E+02</pdfrwt>
<pdfrwt beam="2">  1       -1 0.98145959E-03 0.81261865E+02</pdfrwt>
<totfact> 0.23191759E+05</totfact>
</mgrwt>
</event>
<event>
 8    1  0.7667702E-014  0.7516081E+02  0.7818608E-02  0.1343374E+00
          2   -1    0    0  501    0  0.00000000000E+00  0.00000000000E+00  0.47011197884E+02  0.47011197953E+02  0.25500000000E-02 0. -1.
         -1   -1    0    0    0  501 -0.00000000000E+00 -0.00000000000E+00 -0.30041496881E+02  0.30041497304E+02  0.50400000000E-02 0.  1.
         24    2    1    2    0    0 -0.71054273576E-14  0.88817841970E-15  0.16969701002E+02  0.77052695257E+02  0.75160808233E+02 0.  0.
         66    2    3    3    0    0  0.33707864766E+02 -0.49796379605E+01 -0.76946915465E+01  0.34988929791E+02  0.19999971609E+01 0.  0.
        -13    1    3    3    0    0 -0.33707864766E+02  0.49796379605E+01  0.24664392549E+02  0.42063765466E+02  0.10566000000E+00 0.  1.
         13    1    4    4    0    0  0.33327211565E+01 -0.20207909979E+00 -0.57399778233E+00  0.33894695396E+01  0.10566000000E+00 0. -1.
        -13    1    4    4    0    0  0.15521573112E+01 -0.17042061943E+00 -0.47351331292E-01  0.15657719152E+01  0.10566000000E+00 0.  1.
         14    1    4    4    0    0  0.28822986298E+02 -0.46071382412E+01 -0.70733424329E+01  0.30033688337E+02  0.00000000000E+00 0. -1.
<mgrwt>
<rscale>  0 0.75160808E+02</rscale>
<asrwt>0</asrwt>
<pdfrwt beam="1">  1        2 0.72324920E-02 0.75160808E+02</pdfrwt>
<pdfrwt beam="2">  1       -1 0.46217688E-02 0.75160808E+02</pdfrwt>
<totfact> 0.17487504E+05</totfact>
</mgrwt>
</event>
<event>
 8    1  0.7667702E-014  0.7975359E+02  0.7818608E-02  0.1329752E+00
         -1   -1    0    0    0  501 -0.00000000000E+00  0.00000000000E+00  0.64694478619E+00  0.64696441786E+00  0.50400000000E-02 0.  1.
          2   -1    0    0  501    0  0.00000000000E+00 -0.00000000000E+00 -0.24579140564E+04  0.24579140564E+04  0.25500000000E-02 0. -1.
         24    2    1    2    0    0  0.00000000000E+00  0.17763568394E-14 -0.24572671116E+04  0.24585610208E+04  0.79753590969E+02 0.  0.
         66    2    3    3    0    0 -0.81912819717E+01  0.12444686117E+02 -0.23688290572E+04  0.23688767527E+04  0.20000007190E+01 0.  0.
        -13    1    3    3    0    0  0.81912819717E+01 -0.12444686117E+02 -0.88438054384E+02  0.89684268075E+02  0.10566000000E+00 0.  1.
         13    1    4    4    0    0 -0.31952141132E+01  0.53975101445E+01 -0.94331127636E+03  0.94333213546E+03  0.10566000000E+00 0. -1.
        -13    1    4    4    0    0 -0.31171239857E+00  0.12360251148E+01 -0.19386882713E+03  0.19387304666E+03  0.10566000000E+00 0.  1.
        -14    1    4    4    0    0 -0.46843554600E+01  0.58111508572E+01 -0.12316489537E+04  0.12316715706E+04  0.00000000000E+00 0.  1.
<mgrwt>
<rscale>  0 0.79753591E+02</rscale>
<asrwt>0</asrwt>
<pdfrwt beam="1">  1        2 0.37813315E+00 0.79753591E+02</pdfrwt>
<pdfrwt beam="2">  1       -1 0.99533446E-04 0.79753591E+02</pdfrwt>
<totfact> 0.21741549E+05</totfact>
</mgrwt>
</event>
<event>
 8    1  0.7667702E-014  0.8089946E+02  0.7818608E-02  0.1326518E+00
          2   -1    0    0  501    0  0.00000000000E+00  0.00000000000E+00  0.51291043278E+03  0.51291043279E+03  0.25500000000E-02 0. -1.
         -1   -1    0    0    0  501 -0.00000000000E+00 -0.00000000000E+00 -0.31899910974E+01  0.31899950789E+01  0.50400000000E-02 0.  1.
         24    2    1    2    0    0  0.00000000000E+00  0.00000000000E+00  0.50972044169E+03  0.51610042787E+03  0.80899462134E+02 0.  0.
         66    2    3    3    0    0 -0.31287311226E+02 -0.19157662264E+02  0.36332933234E+03  0.36518230461E+03  0.19999993364E+01 0.  0.
        -13    1    3    3    0    0  0.31287311226E+02  0.19157662264E+02  0.14639110935E+03  0.15091812326E+03  0.10566000000E+00 0.  1.
         13    1    4    4    0    0 -0.58005092046E+01 -0.39401764150E+01  0.66335675629E+02  0.66705351527E+02  0.10566000000E+00 0. -1.
        -13    1    4    4    0    0 -0.49463064823E+01 -0.34638694376E+01  0.64237130484E+02  0.64520418754E+02  0.10566000000E+00 0.  1.
         14    1    4    4    0    0 -0.20540495539E+02 -0.11753616412E+02  0.23275652622E+03  0.23395653433E+03  0.00000000000E+00 0. -1.
<mgrwt>
<rscale>  0 0.80899462E+02</rscale>
<asrwt>0</asrwt>
<pdfrwt beam="1">  1        2 0.78909286E-01 0.80899462E+02</pdfrwt>
<pdfrwt beam="2">  1       -1 0.49076824E-03 0.80899462E+02</pdfrwt>
<totfact> 0.29815986E+05</totfact>
</mgrwt>
</event>
<event>
 8    1  0.7667702E-014  0.8119144E+02  0.7818608E-02  0.1325704E+00
         -1   -1    0    0    0  501 -0.00000000000E+00  0.00000000000E+00  0.78883584439E+01  0.78883600539E+01  0.50400000000E-02 0.  1.
          2   -1    0    0  501    0  0.00000000000E+00 -0.00000000000E+00 -0.20891702298E+03  0.20891702300E+03  0.25500000000E-02 0. -1.
         24    2    1    2    0    0 -0.35527136788E-14 -0.35527136788E-14 -0.20102866454E+03  0.21680538305E+03  0.81191441385E+02 0.  0.
         66    2    3    3    0    0  0.29579083589E+02  0.25617519422E+02 -0.12918950078E+03  0.13500039481E+03  0.20000001414E+01 0.  0.
        -13    1    3    3    0    0 -0.29579083589E+02 -0.25617519422E+02 -0.71839163761E+02  0.81804988242E+02  0.10566000000E+00 0.  1.
         13    1    4    4    0    0  0.66426463408E+01  0.66390891536E+01 -0.29971940495E+02  0.31409085251E+02  0.10566000000E+00 0. -1.
        -13    1    4    4    0    0  0.35336658997E+01  0.28653511570E+01 -0.16228708316E+02  0.16854648308E+02  0.10566000000E+00 0.  1.
        -14    1    4    4    0    0  0.19402771348E+02  0.16113079111E+02 -0.82988851968E+02  0.86736661254E+02  0.00000000000E+00 0.  1.
<mgrwt>
<rscale>  0 0.81191441E+02</rscale>
<asrwt>0</asrwt>
<pdfrwt beam="1">  1        2 0.32141076E-01 0.81191441E+02</pdfrwt>
<pdfrwt beam="2">  1       -1 0.12135939E-02 0.81191441E+02</pdfrwt>
<totfact> 0.21539769E+05</totfact>
</mgrwt>
</event>
<event>
 8    1  0.8521025E-014  0.8013870E+02  0.7818608E-02  0.1328658E+00
         -1   -1    0    0    0  501 -0.00000000000E+00  0.00000000000E+00  0.19154572365E+01  0.19154638672E+01  0.50400000000E-02 0.  1.
          2   -1    0    0  501    0  0.00000000000E+00 -0.00000000000E+00 -0.83820725968E+03  0.83820725969E+03  0.25500000000E-02 0. -1.
         24    2    1    2    0    0  0.44408920985E-15 -0.35527136788E-14 -0.83629180245E+03  0.84012272356E+03  0.80138703463E+02 0.  0.
         66    2    3    3    0    0  0.30451380290E+01  0.31032794600E+02 -0.68179479969E+03  0.68251040731E+03  0.19999997262E+01 0.  0.
        -13    1    3    3    0    0 -0.30451380290E+01 -0.31032794600E+02 -0.15449700276E+03  0.15761231624E+03  0.10566000000E+00 0.  1.
         13    1    4    4    0    0  0.20667137910E+01  0.18312725428E+02 -0.40420074130E+03  0.40462065895E+03  0.10566000000E+00 0. -1.
        -13    1    4    4    0    0  0.80235404021E+00  0.10572209711E+02 -0.23979186907E+03  0.24002617988E+03  0.10566000000E+00 0.  1.
        -14    1    4    4    0    0  0.17607019777E+00  0.21478594606E+01 -0.37802189322E+02  0.37863568486E+02  0.00000000000E+00 0.  1.
<mgrwt>
<rscale>  0 0.80138703E+02</rscale>
<asrwt>0</asrwt>
<pdfrwt beam="1">  1        2 0.12895467E+00 0.80138703E+02</pdfrwt>
<pdfrwt beam="2">  1       -1 0.29468691E-03 0.80138703E+02</pdfrwt>
<totfact> 0.34469323E+05</totfact>
</mgrwt>
</event>
<event>
 8    1  0.7667702E-014  0.8146636E+02  0.7818608E-02  0.1324941E+00
         -1   -1    0    0    0  501 -0.00000000000E+00  0.00000000000E+00  0.30319439196E+03  0.30319439200E+03  0.50400000000E-02 0.  1.
          2   -1    0    0  501    0  0.00000000000E+00 -0.00000000000E+00 -0.54723692207E+01  0.54723698148E+01  0.25500000000E-02 0. -1.
         24    2    1    2    0    0  0.71054273576E-14  0.17763568394E-14  0.29772202274E+03  0.30866676182E+03  0.81466355180E+02 0.  0.
         66    2    3    3    0    0 -0.37555522852E+02 -0.14411999414E+02  0.17263141183E+03  0.17726738919E+03  0.19999744208E+01 0.  0.
        -13    1    3    3    0    0  0.37555522852E+02  0.14411999414E+02  0.12509061091E+03  0.13139937262E+03  0.10566000000E+00 0.  1.
         13    1    4    4    0    0 -0.14599870748E+02 -0.54108249491E+01  0.66834597768E+02  0.68624397085E+02  0.10566000000E+00 0. -1.
        -13    1    4    4    0    0 -0.13949097886E+01 -0.53057640133E+00  0.50301801328E+01  0.52479673056E+01  0.10566000000E+00 0.  1.
         14    1    4    4    0    0 -0.21560742314E+02 -0.84705980638E+01  0.10076663393E+03  0.10339502480E+03  0.00000000000E+00 0. -1.
<mgrwt>
<rscale>  0 0.81466355E+02</rscale>
<asrwt>0</asrwt>
<pdfrwt beam="1">  1        2 0.84190297E-03 0.81466355E+02</pdfrwt>
<pdfrwt beam="2">  1       -1 0.46645293E-01 0.81466355E+02</pdfrwt>
<totfact> 0.82142387E+04</totfact>
</mgrwt>
</event>
<event>
 8    1  0.7667702E-014  0.8088173E+02  0.7818608E-02  0.1326568E+00
         -1   -1    0    0    0  501 -0.00000000000E+00  0.00000000000E+00  0.11778527336E+02  0.11778528414E+02  0.50400000000E-02 0.  1.
          2   -1    0    0  501    0  0.00000000000E+00 -0.00000000000E+00 -0.13885127617E+03  0.13885127619E+03  0.25500000000E-02 0. -1.
         24    2    1    2    0    0  0.00000000000E+00  0.00000000000E+00 -0.12707274883E+03  0.15062980461E+03  0.80881731805E+02 0.  0.
         66    2    3    3    0    0  0.23986602063E+02  0.13006372885E+02 -0.11910102439E+03  0.12220301498E+03  0.20000108160E+01 0.  0.
        -13    1    3    3    0    0 -0.23986602063E+02 -0.13006372885E+02 -0.79717244398E+01  0.28426789632E+02  0.10566000000E+00 0.  1.
         13    1    4    4    0    0  0.40682071015E+01  0.26409240183E+01 -0.21078595469E+02  0.21629681913E+02  0.10566000000E+00 0. -1.
        -13    1    4    4    0    0  0.10371788014E+02  0.54343681774E+01 -0.54556534423E+02  0.55799040819E+02  0.10566000000E+00 0.  1.
         14    1    4    4    0    0  0.95466069479E+01  0.49310806896E+01 -0.43465894502E+02  0.44774292243E+02  0.00000000000E+00 0. -1.
<mgrwt>
<rscale>  0 0.80881732E+02</rscale>
<asrwt>0</asrwt>
<pdfrwt beam="1">  1        2 0.21361734E-01 0.80881732E+02</pdfrwt>
<pdfrwt beam="2">  1       -1 0.18120813E-02 0.80881732E+02</pdfrwt>
<totfact> 0.18981854E+05</totfact>
</mgrwt>
</event>
<event>
 8    1  0.7667702E-014  0.8002605E+02  0.7818608E-02  0.1328978E+00
          2   -1    0    0  501    0  0.00000000000E+00  0.00000000000E+00  0.14250701873E+02  0.14250702101E+02  0.25500000000E-02 0. -1.
         -1   -1    0    0    0  501 -0.00000000000E+00 -0.00000000000E+00 -0.11234831100E+03  0.11234831111E+03  0.50400000000E-02 0.  1.
         24    2    1    2    0    0 -0.35527136788E-14  0.00000000000E+00 -0.98097609129E+02  0.12659901322E+03  0.80026053447E+02 0.  0.
         66    2    3    3    0    0  0.17566738419E+02  0.26962226302E+02 -0.11526733717E+02  0.34240583283E+02  0.20000018949E+01 0.  0.
        -13    1    3    3    0    0 -0.17566738419E+02 -0.26962226302E+02 -0.86570875412E+02  0.92358429932E+02  0.10566000000E+00 0.  1.
         13    1    4    4    0    0  0.65700672143E+01  0.11096022164E+02 -0.47897589495E+01  0.13756469238E+02  0.10566000000E+00 0. -1.
        -13    1    4    4    0    0  0.10740820452E+02  0.15231856670E+02 -0.66741887485E+01  0.19797238218E+02  0.10566000000E+00 0.  1.
         14    1    4    4    0    0  0.25585075349E+00  0.63434746803E+00 -0.62786018850E-01  0.68687582752E+00  0.00000000000E+00 0. -1.
<mgrwt>
<rscale>  0 0.80026053E+02</rscale>
<asrwt>0</asrwt>
<pdfrwt beam="1">  1        2 0.21924158E-02 0.80026053E+02</pdfrwt>
<pdfrwt beam="2">  1       -1 0.17284355E-01 0.80026053E+02</pdfrwt>
<totfact> 0.11545821E+05</totfact>
</mgrwt>
</event>
<event>
 8    1  0.7667702E-014  0.8181717E+02  0.7818608E-02  0.1323972E+00
          2   -1    0    0  501    0  0.00000000000E+00  0.00000000000E+00  0.13039626585E+04  0.13039626585E+04  0.25500000000E-02 0. -1.
         -1   -1    0    0    0  501 -0.00000000000E+00 -0.00000000000E+00 -0.12834000328E+01  0.12834099290E+01  0.50400000000E-02 0.  1.
         24    2    1    2    0    0 -0.35527136788E-14  0.00000000000E+00  0.13026792585E+04  0.13052460685E+04  0.81817166385E+02 0.  0.
         66    2    3    3    0    0  0.20862343355E+02 -0.13852159987E+02  0.11672872422E+04  0.11675575470E+04  0.20000000191E+01 0.  0.
        -13    1    3    3    0    0 -0.20862343355E+02  0.13852159987E+02  0.13539201626E+03  0.13768852144E+03  0.10566000000E+00 0.  1.
         13    1    4    4    0    0  0.10895939647E+02 -0.70016862695E+01  0.62399475936E+03  0.62412916611E+03  0.10566000000E+00 0. -1.
        -13    1    4    4    0    0  0.33589250841E+01 -0.29998261482E+01  0.20009686403E+03  0.20014756430E+03  0.10566000000E+00 0.  1.
        -14    1    4    4    0    0  0.66074786240E+01 -0.38506475691E+01  0.34319561883E+03  0.34328081660E+03  0.00000000000E+00 0.  1.
<mgrwt>
<rscale>  0 0.81817166E+02</rscale>
<asrwt>0</asrwt>
<pdfrwt beam="1">  1        2 0.20060960E+00 0.81817166E+02</pdfrwt>
<pdfrwt beam="2">  1       -1 0.19744696E-03 0.81817166E+02</pdfrwt>
<totfact> 0.32633852E+05</totfact>
</mgrwt>
</event>
<event>
 8    1  0.7667702E-014  0.7819354E+02  0.7818608E-02  0.1334257E+00
          2   -1    0    0  501    0  0.00000000000E+00  0.00000000000E+00  0.75622250676E+02  0.75622250719E+02  0.25500000000E-02 0. -1.
         -1   -1    0    0    0  501 -0.00000000000E+00 -0.00000000000E+00 -0.20213063398E+02  0.20213064026E+02  0.50400000000E-02 0.  1.
         24    2    1    2    0    0  0.00000000000E+00  0.00000000000E+00  0.55409187278E+02  0.95835314745E+02  0.78193538848E+02 0.  0.
         66    2    3    3    0    0 -0.11262601520E+02  0.15055722067E+02  0.69699488207E+02  0.72218692958E+02  0.19999990764E+01 0.  0.
        -13    1    3    3    0    0  0.11262601520E+02 -0.15055722067E+02 -0.14290300929E+02  0.23616621787E+02  0.10566000000E+00 0.  1.
         13    1    4    4    0    0 -0.94290280209E+01  0.13009525937E+02  0.58534955018E+02  0.60700135564E+02  0.10566000000E+00 0. -1.
        -13    1    4    4    0    0 -0.15634282507E+00  0.29288576130E-01  0.47676034334E+00  0.51358091887E+00  0.10566000000E+00 0. -1.
         14    1    4    4    0    0 -0.16772306737E+01  0.20169075536E+01  0.10687772846E+02  0.11004976475E+02  0.00000000000E+00 0. -1.
<mgrwt>
<rscale>  0 0.78193539E+02</rscale>
<asrwt>0</asrwt>
<pdfrwt beam="1">  1        2 0.11634192E-01 0.78193539E+02</pdfrwt>
<pdfrwt beam="2">  1       -1 0.31097021E-02 0.78193539E+02</pdfrwt>
<totfact> 0.17504076E+05</totfact>
</mgrwt>
</event>
<event>
 8    1  0.7667702E-014  0.8009714E+02  0.7818608E-02  0.1328776E+00
         -1   -1    0    0    0  501 -0.00000000000E+00  0.00000000000E+00  0.24554904564E+02  0.24554905081E+02  0.50400000000E-02 0.  1.
          2   -1    0    0  501    0  0.00000000000E+00 -0.00000000000E+00 -0.65318428261E+02  0.65318428311E+02  0.25500000000E-02 0. -1.
         24    2    1    2    0    0  0.00000000000E+00  0.00000000000E+00 -0.40763523697E+02  0.89873333393E+02  0.80097135972E+02 0.  0.
         66    2    3    3    0    0 -0.33214697875E+02 -0.20740152360E+02 -0.29681950546E+02  0.49177111179E+02  0.20000002267E+01 0.  0.
        -13    1    3    3    0    0  0.33214697875E+02  0.20740152360E+02 -0.11081573152E+02  0.40696222213E+02  0.10566000000E+00 0.  1.
         13    1    4    4    0    0 -0.16771757686E+02 -0.10737796794E+02 -0.14906726186E+02  0.24875968031E+02  0.10566000000E+00 0. -1.
        -13    1    4    4    0    0 -0.11043152528E+02 -0.66712577995E+01 -0.10686516852E+02  0.16753199839E+02  0.10566000000E+00 0.  1.
         14    1    4    4    0    0 -0.53997876611E+01 -0.33310977671E+01 -0.40887075074E+01  0.75479433093E+01  0.00000000000E+00 0. -1.
<mgrwt>
<rscale>  0 0.80097136E+02</rscale>
<asrwt>0</asrwt>
<pdfrwt beam="1">  1        2 0.10048989E-01 0.80097136E+02</pdfrwt>
<pdfrwt beam="2">  1       -1 0.37776777E-02 0.80097136E+02</pdfrwt>
<totfact> 0.15827069E+05</totfact>
</mgrwt>
</event>
<event>
 8    1  0.7667702E-014  0.7689918E+02  0.7818608E-02  0.1338089E+00
         -1   -1    0    0    0  501 -0.00000000000E+00  0.00000000000E+00  0.17130396890E+02  0.17130397631E+02  0.50400000000E-02 0.  1.
          2   -1    0    0  501    0  0.00000000000E+00 -0.00000000000E+00 -0.86301040385E+02  0.86301040423E+02  0.25500000000E-02 0. -1.
         24    2    1    2    0    0  0.00000000000E+00  0.00000000000E+00 -0.69170643495E+02  0.10343143805E+03  0.76899183717E+02 0.  0.
         66    2    3    3    0    0  0.11965231178E+01 -0.19156754702E+02 -0.79379110826E+02  0.81691224449E+02  0.19999995210E+01 0.  0.
        -13    1    3    3    0    0 -0.11965231178E+01  0.19156754702E+02  0.10208467331E+02  0.21740213605E+02  0.10566000000E+00 0.  1.
         13    1    4    4    0    0  0.44538932504E+00 -0.68171187211E+01 -0.30242735936E+02  0.31004930579E+02  0.10566000000E+00 0. -1.
        -13    1    4    4    0    0  0.81524357035E+00 -0.64724488594E+01 -0.28048249361E+02  0.28797094863E+02  0.10566000000E+00 0.  1.
         14    1    4    4    0    0 -0.64109777596E-01 -0.58671871219E+01 -0.21088125530E+02  0.21889199007E+02  0.00000000000E+00 0. -1.
<mgrwt>
<rscale>  0 0.76899184E+02</rscale>
<asrwt>0</asrwt>
<pdfrwt beam="1">  1        2 0.13277083E-01 0.76899184E+02</pdfrwt>
<pdfrwt beam="2">  1       -1 0.26354458E-02 0.76899184E+02</pdfrwt>
<totfact> 0.18934389E+05</totfact>
</mgrwt>
</event>
<event>
 8    1  0.7667702E-014  0.8077211E+02  0.7818608E-02  0.1326874E+00
         -1   -1    0    0    0  501 -0.00000000000E+00  0.00000000000E+00  0.64259878419E+01  0.64259898184E+01  0.50400000000E-02 0.  1.
          2   -1    0    0  501    0  0.00000000000E+00 -0.00000000000E+00 -0.25381825530E+03  0.25381825531E+03  0.25500000000E-02 0. -1.
         24    2    1    2    0    0  0.00000000000E+00  0.00000000000E+00 -0.24739226746E+03  0.26024424513E+03  0.80772106112E+02 0.  0.
         66    2    3    3    0    0 -0.21580224093E+02 -0.24007156654E+02 -0.20183218166E+03  0.20440714076E+03  0.19999994371E+01 0.  0.
        -13    1    3    3    0    0  0.21580224093E+02  0.24007156654E+02 -0.45560085798E+02  0.55837104370E+02  0.10566000000E+00 0.  1.
         13    1    4    4    0    0 -0.45281199715E+01 -0.59250186271E+01 -0.44847674765E+02  0.45463554767E+02  0.10566000000E+00 0. -1.
        -13    1    4    4    0    0 -0.10445519558E+02 -0.11423841907E+02 -0.94736406287E+02  0.95992764743E+02  0.10566000000E+00 0.  1.
        -14    1    4    4    0    0 -0.66065845628E+01 -0.66582961201E+01 -0.62248100606E+02  0.62950821248E+02  0.00000000000E+00 0.  1.
<mgrwt>
<rscale>  0 0.80772106E+02</rscale>
<asrwt>0</asrwt>
<pdfrwt beam="1">  1        2 0.39048955E-01 0.80772106E+02</pdfrwt>
<pdfrwt beam="2">  1       -1 0.98861387E-03 0.80772106E+02</pdfrwt>
<totfact> 0.23399835E+05</totfact>
</mgrwt>
</event>
<event>
 8    1  0.7667702E-014  0.8355124E+02  0.7818608E-02  0.1319265E+00
         -1   -1    0    0    0  501 -0.00000000000E+00  0.00000000000E+00  0.32665838847E+02  0.32665839236E+02  0.50400000000E-02 0.  1.
          2   -1    0    0  501    0  0.00000000000E+00 -0.00000000000E+00 -0.53425913008E+02  0.53425913069E+02  0.25500000000E-02 0. -1.
         24    2    1    2    0    0  0.00000000000E+00  0.00000000000E+00 -0.20760074161E+02  0.86091752305E+02  0.83551236590E+02 0.  0.
         66    2    3    3    0    0  0.23118428429E+02  0.30785599866E+02 -0.27032135788E+02  0.47084511782E+02  0.19999980763E+01 0.  0.
        -13    1    3    3    0    0 -0.23118428429E+02 -0.30785599866E+02  0.62720616276E+01  0.39007240523E+02  0.10566000000E+00 0.  1.
         13    1    4    4    0    0  0.77719437636E+01  0.10180562447E+02 -0.90598320802E+01  0.15688807569E+02  0.10566000000E+00 0. -1.
        -13    1    4    4    0    0  0.64828729719E+01  0.89587994747E+01 -0.86917694839E+01  0.14065765205E+02  0.10566000000E+00 0.  1.
        -14    1    4    4    0    0  0.88636116935E+01  0.11646237944E+02 -0.92805342242E+01  0.17329939007E+02  0.00000000000E+00 0.  1.
<mgrwt>
<rscale>  0 0.83551237E+02</rscale>
<asrwt>0</asrwt>
<pdfrwt beam="1">  1        2 0.82193713E-02 0.83551237E+02</pdfrwt>
<pdfrwt beam="2">  1       -1 0.50255137E-02 0.83551237E+02</pdfrwt>
<totfact> 0.13460669E+05</totfact>
</mgrwt>
</event>
<event>
 8    1  0.7667702E-014  0.7916644E+02  0.7818608E-02  0.1331434E+00
          2   -1    0    0  501    0  0.00000000000E+00  0.00000000000E+00  0.98664364294E+02  0.98664364326E+02  0.25500000000E-02 0. -1.
         -1   -1    0    0    0  501 -0.00000000000E+00 -0.00000000000E+00 -0.15880416241E+02  0.15880417040E+02  0.50400000000E-02 0.  1.
         24    2    1    2    0    0 -0.35527136788E-14  0.00000000000E+00  0.82783948053E+02  0.11454478137E+03  0.79166437858E+02 0.  0.
         66    2    3    3    0    0 -0.26625106872E+02  0.22015532838E+02  0.69296551751E+02  0.77457033725E+02  0.19999966890E+01 0.  0.
        -13    1    3    3    0    0  0.26625106872E+02 -0.22015532838E+02  0.13487396302E+02  0.37087747642E+02  0.10566000000E+00 0.  1.
         13    1    4    4    0    0 -0.13500894532E+02  0.10393508778E+02  0.35471840491E+02  0.39351770097E+02  0.10566000000E+00 0. -1.
        -13    1    4    4    0    0 -0.10067393076E+02  0.87887457764E+01  0.25102044432E+02  0.28437972051E+02  0.10566000000E+00 0.  1.
        -14    1    4    4    0    0 -0.30568192651E+01  0.28332782836E+01  0.87226668268E+01  0.96672915764E+01  0.00000000000E+00 0.  1.
<mgrwt>
<rscale>  0 0.79166438E+02</rscale>
<asrwt>0</asrwt>
<pdfrwt beam="1">  1        2 0.15179133E-01 0.79166438E+02</pdfrwt>
<pdfrwt beam="2">  1       -1 0.24431410E-02 0.79166438E+02</pdfrwt>
<totfact> 0.18161814E+05</totfact>
</mgrwt>
</event>
<event>
 8    1  0.7667702E-014  0.7889631E+02  0.7818608E-02  0.1332213E+00
         -1   -1    0    0    0  501 -0.00000000000E+00  0.00000000000E+00  0.48098572223E+01  0.48098598629E+01  0.50400000000E-02 0.  1.
          2   -1    0    0  501    0  0.00000000000E+00 -0.00000000000E+00 -0.32353487002E+03  0.32353487003E+03  0.25500000000E-02 0. -1.
         24    2    1    2    0    0 -0.35527136788E-14 -0.17763568394E-14 -0.31872501280E+03  0.32834472989E+03  0.78896310849E+02 0.  0.
         66    2    3    3    0    0 -0.29419625007E+02 -0.91828680275E+01 -0.26177135436E+03  0.26358695218E+03  0.19999989619E+01 0.  0.
        -13    1    3    3    0    0  0.29419625007E+02  0.91828680275E+01 -0.56953658441E+02  0.64757777715E+02  0.10566000000E+00 0.  1.
         13    1    4    4    0    0 -0.73541043759E+01 -0.18326348544E+01 -0.68645674172E+02  0.69062878221E+02  0.10566000000E+00 0. -1.
        -13    1    4    4    0    0 -0.13732996765E+02 -0.47770269941E+01 -0.12471924144E+03  0.12556398981E+03  0.10566000000E+00 0.  1.
        -14    1    4    4    0    0 -0.83325238664E+01 -0.25732061791E+01 -0.68406438741E+02  0.68960084145E+02  0.00000000000E+00 0.  1.
<mgrwt>
<rscale>  0 0.78896311E+02</rscale>
<asrwt>0</asrwt>
<pdfrwt beam="1">  1        2 0.49774578E-01 0.78896311E+02</pdfrwt>
<pdfrwt beam="2">  1       -1 0.73997849E-03 0.78896311E+02</pdfrwt>
<totfact> 0.27169978E+05</totfact>
</mgrwt>
</event>
<event>
 8    1  0.7667702E-014  0.7834156E+02  0.7818608E-02  0.1333825E+00
          2   -1    0    0  501    0  0.00000000000E+00  0.00000000000E+00  0.11127326582E+03  0.11127326585E+03  0.25500000000E-02 0. -1.
         -1   -1    0    0    0  501 -0.00000000000E+00 -0.00000000000E+00 -0.13789025942E+02  0.13789026863E+02  0.50400000000E-02 0.  1.
         24    2    1    2    0    0  0.00000000000E+00  0.00000000000E+00  0.97484239876E+02  0.12506229271E+03  0.78341560066E+02 0.  0.
         66    2    3    3    0    0 -0.16207516946E+02 -0.35616567680E+02  0.50464426608E+02  0.63889606789E+02  0.20000009929E+01 0.  0.
        -13    1    3    3    0    0  0.16207516946E+02  0.35616567680E+02  0.47019813269E+02  0.61172685921E+02  0.10566000000E+00 0.  1.
         13    1    4    4    0    0 -0.56197325100E+01 -0.12307914419E+02  0.18214541700E+02  0.22690236760E+02  0.10566000000E+00 0. -1.
        -13    1    4    4    0    0 -0.68134463453E+01 -0.14041041595E+02  0.20524020560E+02  0.25784113019E+02  0.10566000000E+00 0.  1.
        -14    1    4    4    0    0 -0.37743380907E+01 -0.92676116657E+01  0.11725864348E+02  0.15415257011E+02  0.00000000000E+00 0.  1.
<mgrwt>
<rscale>  0 0.78341560E+02</rscale>
<asrwt>0</asrwt>
<pdfrwt beam="1">  1        2 0.17118964E-01 0.78341560E+02</pdfrwt>
<pdfrwt beam="2">  1       -1 0.21213887E-02 0.78341560E+02</pdfrwt>
<totfact> 0.19325435E+05</totfact>
</mgrwt>
</event>
<event>
 8    1  0.7667702E-014  0.7824168E+02  0.7818608E-02  0.1334117E+00
          2   -1    0    0  501    0  0.00000000000E+00  0.00000000000E+00  0.16224336606E+03  0.16224336608E+03  0.25500000000E-02 0. -1.
         -1   -1    0    0    0  501 -0.00000000000E+00 -0.00000000000E+00 -0.94329898068E+01  0.94329911532E+01  0.50400000000E-02 0.  1.
         24    2    1    2    0    0  0.00000000000E+00  0.35527136788E-14  0.15281037625E+03  0.17167635723E+03  0.78241680339E+02 0.  0.
         66    2    3    3    0    0  0.85584249901E+01  0.27047154273E+02  0.13547964763E+03  0.13843240273E+03  0.20000027052E+01 0.  0.
        -13    1    3    3    0    0 -0.85584249901E+01 -0.27047154273E+02  0.17330728628E+02  0.33243954509E+02  0.10566000000E+00 0.  1.
         13    1    4    4    0    0  0.81101126189E+01  0.24335900177E+02  0.12175545498E+03  0.12442834060E+03  0.10566000000E+00 0.  1.
        -13    1    4    4    0    0  0.30179938360E+00  0.17857877319E+01  0.79526880368E+01  0.81569928121E+01  0.10566000000E+00 0. -1.
        -14    1    4    4    0    0  0.14651298751E+00  0.92546636430E+00  0.57715046129E+01  0.58470693123E+01  0.00000000000E+00 0.  1.
<mgrwt>
<rscale>  0 0.78241680E+02</rscale>
<asrwt>0</asrwt>
<pdfrwt beam="1">  1        2 0.24960517E-01 0.78241680E+02</pdfrwt>
<pdfrwt beam="2">  1       -1 0.14512293E-02 0.78241680E+02</pdfrwt>
<totfact> 0.21793399E+05</totfact>
</mgrwt>
</event>
<event>
 8    1  0.7667702E-014  0.8428248E+02  0.7818608E-02  0.1317320E+00
          2   -1    0    0  501    0  0.00000000000E+00  0.00000000000E+00  0.31221427965E+02  0.31221428069E+02  0.25500000000E-02 0. -1.
         -1   -1    0    0    0  501 -0.00000000000E+00 -0.00000000000E+00 -0.56880290532E+02  0.56880290756E+02  0.50400000000E-02 0.  1.
         24    2    1    2    0    0  0.71054273576E-14  0.00000000000E+00 -0.25658862568E+02  0.88101718824E+02  0.84282475234E+02 0.  0.
         66    2    3    3    0    0  0.32642339234E+02 -0.21676757206E+02  0.33057727956E+01  0.39374258605E+02  0.19999983179E+01 0.  0.
        -13    1    3    3    0    0 -0.32642339234E+02  0.21676757206E+02 -0.28964635363E+02  0.48727460219E+02  0.10566000000E+00 0.  1.
         13    1    4    4    0    0  0.11850207850E+02 -0.80576019135E+01  0.19877137132E+01  0.14467706955E+02  0.10566000000E+00 0.  1.
        -13    1    4    4    0    0  0.28323057291E+01 -0.20023690518E+01  0.45312003616E+00  0.34997027538E+01  0.10566000000E+00 0. -1.
        -14    1    4    4    0    0  0.17959825655E+02 -0.11616786241E+02  0.86493904618E+00  0.21406848897E+02  0.00000000000E+00 0.  1.
<mgrwt>
<rscale>  0 0.84282475E+02</rscale>
<asrwt>0</asrwt>
<pdfrwt beam="1">  1        2 0.48032966E-02 0.84282475E+02</pdfrwt>
<pdfrwt beam="2">  1       -1 0.87508139E-02 0.84282475E+02</pdfrwt>
<totfact> 0.11713554E+05</totfact>
</mgrwt>
</event>
<event>
 8    1  0.7667702E-014  0.8154941E+02  0.7818608E-02  0.1324711E+00
          2   -1    0    0  501    0  0.00000000000E+00  0.00000000000E+00  0.19674555095E+03  0.19674555097E+03  0.25500000000E-02 0. -1.
         -1   -1    0    0    0  501 -0.00000000000E+00 -0.00000000000E+00 -0.84503882311E+01  0.84503897341E+01  0.50400000000E-02 0.  1.
         24    2    1    2    0    0  0.00000000000E+00  0.00000000000E+00  0.18829516272E+03  0.20519594070E+03  0.81549406967E+02 0.  0.
         66    2    3    3    0    0 -0.15113630538E+02  0.46920221904E+01  0.18869239451E+03  0.18936540510E+03  0.20000006733E+01 0.  0.
        -13    1    3    3    0    0  0.15113630538E+02 -0.46920221904E+01 -0.39723179074E+00  0.15830535600E+02  0.10566000000E+00 0.  1.
         13    1    4    4    0    0 -0.12164286412E+02  0.30620529527E+01  0.15252777703E+03  0.15304273900E+03  0.10566000000E+00 0. -1.
        -13    1    4    4    0    0 -0.19732970450E+01  0.12431031169E+01  0.24751748838E+02  0.24861605764E+02  0.10566000000E+00 0.  1.
        -14    1    4    4    0    0 -0.97604708103E+00  0.38686612087E+00  0.11412868642E+02  0.11461060332E+02  0.00000000000E+00 0.  1.
<mgrwt>
<rscale>  0 0.81549407E+02</rscale>
<asrwt>0</asrwt>
<pdfrwt beam="1">  1        2 0.30268543E-01 0.81549407E+02</pdfrwt>
<pdfrwt beam="2">  1       -1 0.13000600E-02 0.81549407E+02</pdfrwt>
<totfact> 0.20849525E+05</totfact>
</mgrwt>
</event>
<event>
 8    1  0.7667702E-014  0.7928736E+02  0.7818608E-02  0.1331086E+00
         -1   -1    0    0    0  501 -0.00000000000E+00  0.00000000000E+00  0.13336838748E+03  0.13336838758E+03  0.50400000000E-02 0.  1.
          2   -1    0    0  501    0  0.00000000000E+00 -0.00000000000E+00 -0.11784060534E+02  0.11784060810E+02  0.25500000000E-02 0. -1.
         24    2    1    2    0    0  0.00000000000E+00  0.00000000000E+00  0.12158432695E+03  0.14515244839E+03  0.79287355319E+02 0.  0.
         66    2    3    3    0    0 -0.17613696620E+02  0.29327293604E+02  0.24249257942E+02  0.41980459547E+02  0.20000035741E+01 0.  0.
        -13    1    3    3    0    0  0.17613696620E+02 -0.29327293604E+02  0.97335069006E+02  0.10317198884E+03  0.10566000000E+00 0.  1.
         13    1    4    4    0    0 -0.28677184161E+01  0.40083176713E+01  0.32247082873E+01  0.58906983492E+01  0.10566000000E+00 0. -1.
        -13    1    4    4    0    0 -0.10763192593E+01  0.13561498223E+01  0.14846475339E+01  0.22831880833E+01  0.10566000000E+00 0.  1.
        -14    1    4    4    0    0 -0.13669658945E+02  0.23962826110E+02  0.19539902121E+02  0.33806573115E+02  0.00000000000E+00 0.  1.
<mgrwt>
<rscale>  0 0.79287355E+02</rscale>
<asrwt>0</asrwt>
<pdfrwt beam="1">  1        2 0.18129324E-02 0.79287355E+02</pdfrwt>
<pdfrwt beam="2">  1       -1 0.20518214E-01 0.79287355E+02</pdfrwt>
<totfact> 0.11358725E+05</totfact>
</mgrwt>
</event>
<event>
 8    1  0.7667702E-014  0.7974293E+02  0.7818608E-02  0.1329783E+00
          2   -1    0    0  501    0  0.00000000000E+00  0.00000000000E+00  0.47595688041E+03  0.47595688042E+03  0.25500000000E-02 0. -1.
         -1   -1    0    0    0  501 -0.00000000000E+00 -0.00000000000E+00 -0.33400771466E+01  0.33400809491E+01  0.50400000000E-02 0.  1.
         24    2    1    2    0    0  0.17763568394E-14  0.00000000000E+00  0.47261680326E+03  0.47929696137E+03  0.79742927258E+02 0.  0.
         66    2    3    3    0    0  0.14337468659E+02 -0.95053588820E+01  0.45248583541E+03  0.45281712214E+03  0.19999986792E+01 0.  0.
        -13    1    3    3    0    0 -0.14337468659E+02  0.95053588820E+01  0.20130967850E+02  0.26479839230E+02  0.10566000000E+00 0.  1.
         13    1    4    4    0    0  0.84998080901E+01 -0.63455521302E+01  0.27277994661E+03  0.27298612274E+03  0.10566000000E+00 0. -1.
        -13    1    4    4    0    0  0.32026070756E+01 -0.15938925074E+01  0.84434730847E+02  0.84510544447E+02  0.10566000000E+00 0.  1.
        -14    1    4    4    0    0  0.26350534933E+01 -0.15659142445E+01  0.95271157957E+02  0.95320454955E+02  0.00000000000E+00 0.  1.
<mgrwt>
<rscale>  0 0.79742927E+02</rscale>
<asrwt>0</asrwt>
<pdfrwt beam="1">  1        2 0.73224189E-01 0.79742927E+02</pdfrwt>
<pdfrwt beam="2">  1       -1 0.51385794E-03 0.79742927E+02</pdfrwt>
<totfact> 0.30223046E+05</totfact>
</mgrwt>
</event>
<event>
 8    1  0.7667702E-014  0.7913340E+02  0.7818608E-02  0.1331529E+00
          2   -1    0    0  501    0  0.00000000000E+00  0.00000000000E+00  0.34889516946E+03  0.34889516947E+03  0.25500000000E-02 0. -1.
         -1   -1    0    0    0  501 -0.00000000000E+00 -0.00000000000E+00 -0.44870876650E+01  0.44870904955E+01  0.50400000000E-02 0.  1.
         24    2    1    2    0    0  0.00000000000E+00  0.00000000000E+00  0.34440808179E+03  0.35338225996E+03  0.79133399093E+02 0.  0.
         66    2    3    3    0    0  0.38062994899E+02 -0.21686046180E+01  0.21915507151E+03  0.22245547823E+03  0.19999995218E+01 0.  0.
        -13    1    3    3    0    0 -0.38062994899E+02  0.21686046180E+01  0.12525301029E+03  0.13092678174E+03  0.10566000000E+00 0.  1.
         13    1    4    4    0    0  0.17431857814E+02 -0.46143983394E+00  0.95992695545E+02  0.97563780962E+02  0.10566000000E+00 0. -1.
        -13    1    4    4    0    0  0.77536517389E+01 -0.66540855877E+00  0.48103333397E+02  0.48728879853E+02  0.10566000000E+00 0.  1.
         14    1    4    4    0    0  0.12877485346E+02 -0.10417562253E+01  0.75059042567E+02  0.76162817410E+02  0.00000000000E+00 0. -1.
<mgrwt>
<rscale>  0 0.79133399E+02</rscale>
<asrwt>0</asrwt>
<pdfrwt beam="1">  1        2 0.53676172E-01 0.79133399E+02</pdfrwt>
<pdfrwt beam="2">  1       -1 0.69032150E-03 0.79133399E+02</pdfrwt>
<totfact> 0.27696954E+05</totfact>
</mgrwt>
</event>
<event>
 8    1  0.7667702E-014  0.8043459E+02  0.7818608E-02  0.1327823E+00
          2   -1    0    0  501    0  0.00000000000E+00  0.00000000000E+00  0.29552075583E+02  0.29552075693E+02  0.25500000000E-02 0. -1.
         -1   -1    0    0    0  501 -0.00000000000E+00 -0.00000000000E+00 -0.54731543211E+02  0.54731543443E+02  0.50400000000E-02 0.  1.
         24    2    1    2    0    0  0.00000000000E+00  0.00000000000E+00 -0.25179467628E+02  0.84283619136E+02  0.80434587490E+02 0.  0.
         66    2    3    3    0    0  0.34130778870E+02 -0.68783144102E+01  0.84433410803E+01  0.35881907339E+02  0.19999975775E+01 0.  0.
        -13    1    3    3    0    0 -0.34130778870E+02  0.68783144102E+01 -0.33622808709E+02  0.48401711797E+02  0.10566000000E+00 0.  1.
         13    1    4    4    0    0  0.92044275323E+01 -0.17358030152E+01  0.24842506650E+01  0.96910868176E+01  0.10566000000E+00 0. -1.
        -13    1    4    4    0    0  0.80741746753E+00  0.31668835485E-01  0.59172349651E-02  0.81493860584E+00  0.10566000000E+00 0. -1.
        -14    1    4    4    0    0  0.24118933870E+02 -0.51741802305E+01  0.59531731804E+01  0.25375881916E+02  0.00000000000E+00 0.  1.
<mgrwt>
<rscale>  0 0.80434587E+02</rscale>
<asrwt>0</asrwt>
<pdfrwt beam="1">  1        2 0.45464732E-02 0.80434587E+02</pdfrwt>
<pdfrwt beam="2">  1       -1 0.84202375E-02 0.80434587E+02</pdfrwt>
<totfact> 0.13212923E+05</totfact>
</mgrwt>
</event>
<event>
 8    1  0.7667702E-014  0.8008149E+02  0.7818608E-02  0.1328820E+00
         -1   -1    0    0    0  501 -0.00000000000E+00  0.00000000000E+00  0.38532110359E+01  0.38532143320E+01  0.50400000000E-02 0.  1.
          2   -1    0    0  501    0  0.00000000000E+00 -0.00000000000E+00 -0.41608431199E+03  0.41608431200E+03  0.25500000000E-02 0. -1.
         24    2    1    2    0    0  0.00000000000E+00  0.00000000000E+00 -0.41223110096E+03  0.41993752633E+03  0.80081492408E+02 0.  0.
         66    2    3    3    0    0 -0.61065922938E+01 -0.24983906184E+02 -0.36699834803E+03  0.36790389164E+03  0.19999980057E+01 0.  0.
        -13    1    3    3    0    0  0.61065922938E+01  0.24983906184E+02 -0.45232752931E+02  0.52033634693E+02  0.10566000000E+00 0.  1.
         13    1    4    4    0    0 -0.46635455167E+01 -0.18615356483E+02 -0.26523850876E+03  0.26593186693E+03  0.10566000000E+00 0. -1.
        -13    1    4    4    0    0 -0.13983226856E+01 -0.54451913368E+01 -0.90349120686E+02  0.90523920528E+02  0.10566000000E+00 0.  1.
         14    1    4    4    0    0 -0.44724091503E-01 -0.92335836345E+00 -0.11410718579E+02  0.11448104183E+02  0.00000000000E+00 0. -1.
<mgrwt>
<rscale>  0 0.80081492E+02</rscale>
<asrwt>0</asrwt>
<pdfrwt beam="1">  1        2 0.64012936E-01 0.80081492E+02</pdfrwt>
<pdfrwt beam="2">  1       -1 0.59280228E-03 0.80081492E+02</pdfrwt>
<totfact> 0.28567341E+05</totfact>
</mgrwt>
</event>
<event>
 8    1  0.7667702E-014  0.8012200E+02  0.7818608E-02  0.1328706E+00
         -1   -1    0    0    0  501 -0.00000000000E+00  0.00000000000E+00  0.29830439053E+03  0.29830439057E+03  0.50400000000E-02 0.  1.
          2   -1    0    0  501    0  0.00000000000E+00 -0.00000000000E+00 -0.53800203701E+01  0.53800209744E+01  0.25500000000E-02 0. -1.
         24    2    1    2    0    0  0.00000000000E+00  0.00000000000E+00  0.29292437016E+03  0.30368441155E+03  0.80122001866E+02 0.  0.
         66    2    3    3    0    0 -0.34487564275E+02  0.10063970978E+02  0.79581787342E+02  0.87338058656E+02  0.20000029753E+01 0.  0.
        -13    1    3    3    0    0  0.34487564275E+02 -0.10063970978E+02  0.21334258282E+03  0.21634635289E+03  0.10566000000E+00 0.  1.
         13    1    4    4    0    0 -0.16696825733E+02  0.51894936270E+01  0.39238591985E+02  0.42958038813E+02  0.10566000000E+00 0. -1.
        -13    1    4    4    0    0 -0.11396967441E+02  0.27793115302E+01  0.26910623327E+02  0.29356570837E+02  0.10566000000E+00 0.  1.
         14    1    4    4    0    0 -0.63937711012E+01  0.20951658211E+01  0.13432572030E+02  0.15023449007E+02  0.00000000000E+00 0. -1.
<mgrwt>
<rscale>  0 0.80122002E+02</rscale>
<asrwt>0</asrwt>
<pdfrwt beam="1">  1        2 0.82769538E-03 0.80122002E+02</pdfrwt>
<pdfrwt beam="2">  1       -1 0.45892990E-01 0.80122002E+02</pdfrwt>
<totfact> 0.86293125E+04</totfact>
</mgrwt>
</event>
<event>
 8    1  0.7667702E-014  0.8074853E+02  0.7818608E-02  0.1326941E+00
          2   -1    0    0  501    0  0.00000000000E+00  0.00000000000E+00  0.22991297118E+03  0.22991297119E+03  0.25500000000E-02 0. -1.
         -1   -1    0    0    0  501 -0.00000000000E+00 -0.00000000000E+00 -0.70899922615E+01  0.70899940528E+01  0.50400000000E-02 0.  1.
         24    2    1    2    0    0  0.00000000000E+00  0.00000000000E+00  0.22282297892E+03  0.23700296525E+03  0.80748533124E+02 0.  0.
         66    2    3    3    0    0  0.25268501514E+02  0.14509760589E+02  0.19340167849E+03  0.19559457957E+03  0.19999986915E+01 0.  0.
        -13    1    3    3    0    0 -0.25268501514E+02 -0.14509760589E+02  0.29421300427E+02  0.41408385672E+02  0.10566000000E+00 0.  1.
         13    1    4    4    0    0  0.11925599957E+02  0.59317544934E+01  0.85388338716E+02  0.86420976611E+02  0.10566000000E+00 0. -1.
        -13    1    4    4    0    0  0.12052757365E+02  0.75320102246E+01  0.96933191698E+02  0.97969663442E+02  0.10566000000E+00 0.  1.
        -14    1    4    4    0    0  0.12901441922E+01  0.10459958705E+01  0.11080148077E+02  0.11203939522E+02  0.00000000000E+00 0.  1.
<mgrwt>
<rscale>  0 0.80748533E+02</rscale>
<asrwt>0</asrwt>
<pdfrwt beam="1">  1        2 0.35371219E-01 0.80748533E+02</pdfrwt>
<pdfrwt beam="2">  1       -1 0.10907684E-02 0.80748533E+02</pdfrwt>
<totfact> 0.22604503E+05</totfact>
</mgrwt>
</event>
<event>
 8    1  0.7667702E-014  0.7986552E+02  0.7818608E-02  0.1329433E+00
         -1   -1    0    0    0  501 -0.00000000000E+00  0.00000000000E+00  0.13379729265E+01  0.13379824191E+01  0.50400000000E-02 0.  1.
          2   -1    0    0  501    0  0.00000000000E+00 -0.00000000000E+00 -0.11918176382E+04  0.11918176382E+04  0.25500000000E-02 0. -1.
         24    2    1    2    0    0  0.00000000000E+00  0.88817841970E-15 -0.11904796653E+04  0.11931556207E+04  0.79865521923E+02 0.  0.
         66    2    3    3    0    0  0.26236268575E+02 -0.68023728495E+01 -0.10332178143E+04  0.10335751864E+04  0.19999993489E+01 0.  0.
        -13    1    3    3    0    0 -0.26236268575E+02  0.68023728495E+01 -0.15726185099E+03  0.15958043428E+03  0.10566000000E+00 0.  1.
         13    1    4    4    0    0  0.11429533401E+02 -0.37176003807E+01 -0.43946417263E+03  0.43962850792E+03  0.10566000000E+00 0. -1.
        -13    1    4    4    0    0  0.11580322964E+02 -0.21162625811E+01 -0.46352423246E+03  0.46367370821E+03  0.10566000000E+00 0.  1.
        -14    1    4    4    0    0  0.32264122104E+01 -0.96850988772E+00 -0.13022940924E+03  0.13027297025E+03  0.00000000000E+00 0.  1.
<mgrwt>
<rscale>  0 0.79865522E+02</rscale>
<asrwt>0</asrwt>
<pdfrwt beam="1">  1        2 0.18335571E+00 0.79865522E+02</pdfrwt>
<pdfrwt beam="2">  1       -1 0.20584367E-03 0.79865522E+02</pdfrwt>
<totfact> 0.35217212E+05</totfact>
</mgrwt>
</event>
<event>
 8    1  0.7667702E-014  0.7757106E+02  0.7818608E-02  0.1336089E+00
          2   -1    0    0  501    0  0.00000000000E+00  0.00000000000E+00  0.12502724606E+04  0.12502724606E+04  0.25500000000E-02 0. -1.
         -1   -1    0    0    0  501 -0.00000000000E+00 -0.00000000000E+00 -0.12031864053E+01  0.12031969612E+01  0.50400000000E-02 0.  1.
         24    2    1    2    0    0 -0.17763568394E-14  0.00000000000E+00  0.12490692742E+04  0.12514756576E+04  0.77571062502E+02 0.  0.
         66    2    3    3    0    0 -0.13825654034E+02 -0.15146826446E+02  0.11555686208E+04  0.11557523145E+04  0.19999996750E+01 0.  0.
        -13    1    3    3    0    0  0.13825654034E+02  0.15146826446E+02  0.93500653375E+02  0.95723343059E+02  0.10566000000E+00 0.  1.
         13    1    4    4    0    0 -0.12538448754E+00 -0.53526570246E+00  0.35987405522E+02  0.35991759486E+02  0.10566000000E+00 0.  1.
        -13    1    4    4    0    0 -0.10533656767E+01 -0.98858935124E+00  0.86222563560E+02  0.86234729193E+02  0.10566000000E+00 0. -1.
        -14    1    4    4    0    0 -0.12646903870E+02 -0.13622971392E+02  0.10333586518E+04  0.10335258258E+04  0.00000000000E+00 0.  1.
<mgrwt>
<rscale>  0 0.77571063E+02</rscale>
<asrwt>0</asrwt>
<pdfrwt beam="1">  1        2 0.19234915E+00 0.77571063E+02</pdfrwt>
<pdfrwt beam="2">  1       -1 0.18510686E-03 0.77571063E+02</pdfrwt>
<totfact> 0.37750541E+05</totfact>
</mgrwt>
</event>
<event>
 8    1  0.1009529E-013  0.7876620E+02  0.7818608E-02  0.1332590E+00
         -1   -1    0    0    0  501 -0.00000000000E+00  0.00000000000E+00  0.53890759653E+02  0.53890759889E+02  0.50400000000E-02 0.  1.
          2   -1    0    0  501    0  0.00000000000E+00 -0.00000000000E+00 -0.28780972360E+02  0.28780972473E+02  0.25500000000E-02 0. -1.
         24    2    1    2    0    0  0.35527136788E-14 -0.17763568394E-14  0.25109787293E+02  0.82671732362E+02  0.78766197787E+02 0.  0.
         66    2    3    3    0    0 -0.23825978819E+02  0.11189450041E+02 -0.18147766916E+02  0.32034708169E+02  0.20000061360E+01 0.  0.
        -13    1    3    3    0    0  0.23825978819E+02 -0.11189450041E+02  0.43257554209E+02  0.50637024193E+02  0.10566000000E+00 0.  1.
         13    1    4    4    0    0 -0.14588199979E+02  0.71700226809E+01 -0.10824480642E+02  0.19529601867E+02  0.10566000000E+00 0. -1.
        -13    1    4    4    0    0 -0.62388148510E+01  0.32208597001E+01 -0.48069976235E+01  0.85097084639E+01  0.10566000000E+00 0.  1.
        -14    1    4    4    0    0 -0.29989639892E+01  0.79856766001E+00 -0.25162886504E+01  0.39953978385E+01  0.00000000000E+00 0.  1.
<mgrwt>
<rscale>  0 0.78766198E+02</rscale>
<asrwt>0</asrwt>
<pdfrwt beam="1">  1        2 0.44278420E-02 0.78766198E+02</pdfrwt>
<pdfrwt beam="2">  1       -1 0.82908861E-02 0.78766198E+02</pdfrwt>
<totfact> 0.13940372E+05</totfact>
</mgrwt>
</event>
<event>
 8    1  0.7667702E-014  0.7968021E+02  0.7818608E-02  0.1329961E+00
         -1   -1    0    0    0  501 -0.00000000000E+00  0.00000000000E+00  0.42860583348E+02  0.42860583644E+02  0.50400000000E-02 0.  1.
          2   -1    0    0  501    0  0.00000000000E+00 -0.00000000000E+00 -0.37032484223E+02  0.37032484310E+02  0.25500000000E-02 0. -1.
         24    2    1    2    0    0 -0.17763568394E-14  0.00000000000E+00  0.58280991254E+01  0.79893067955E+02  0.79680208131E+02 0.  0.
         66    2    3    3    0    0  0.15515795010E+02  0.28476394493E+02 -0.20245264854E+02  0.38282054853E+02  0.20000091404E+01 0.  0.
        -13    1    3    3    0    0 -0.15515795010E+02 -0.28476394493E+02  0.26073363980E+02  0.41611013102E+02  0.10566000000E+00 0.  1.
         13    1    4    4    0    0  0.73372541495E+01  0.13866917592E+02 -0.10301705119E+02  0.18768670554E+02  0.10566000000E+00 0. -1.
        -13    1    4    4    0    0  0.34838030507E+01  0.71928536875E+01 -0.42717988998E+01  0.90627511133E+01  0.10566000000E+00 0.  1.
         14    1    4    4    0    0  0.46947378103E+01  0.74166232140E+01 -0.56717608352E+01  0.10450633185E+02  0.00000000000E+00 0. -1.
<mgrwt>
<rscale>  0 0.79680208E+02</rscale>
<asrwt>0</asrwt>
<pdfrwt beam="1">  1        2 0.56973052E-02 0.79680208E+02</pdfrwt>
<pdfrwt beam="2">  1       -1 0.65939360E-02 0.79680208E+02</pdfrwt>
<totfact> 0.14189545E+05</totfact>
</mgrwt>
</event>
<event>
 8    1  0.7667702E-014  0.7984819E+02  0.7818608E-02  0.1329483E+00
          2   -1    0    0  501    0  0.00000000000E+00  0.00000000000E+00  0.20841182252E+03  0.20841182254E+03  0.25500000000E-02 0. -1.
         -1   -1    0    0    0  501 -0.00000000000E+00 -0.00000000000E+00 -0.76479981327E+01  0.76479997933E+01  0.50400000000E-02 0.  1.
         24    2    1    2    0    0  0.00000000000E+00  0.00000000000E+00  0.20076382439E+03  0.21605982233E+03  0.79848191228E+02 0.  0.
         66    2    3    3    0    0 -0.27083402095E+02  0.10274067482E+02  0.17468957935E+03  0.17708618317E+03  0.20000004083E+01 0.  0.
        -13    1    3    3    0    0  0.27083402095E+02 -0.10274067482E+02  0.26074245038E+02  0.38973639168E+02  0.10566000000E+00 0.  1.
         13    1    4    4    0    0 -0.13575918892E+02  0.56083519908E+01  0.86198851881E+02  0.87441479948E+02  0.10566000000E+00 0. -1.
        -13    1    4    4    0    0 -0.34543159538E+01  0.17212512669E+01  0.23329713836E+02  0.23647023414E+02  0.10566000000E+00 0.  1.
         14    1    4    4    0    0 -0.10053167249E+02  0.29444642247E+01  0.65161013637E+02  0.65997679804E+02  0.00000000000E+00 0. -1.
<mgrwt>
<rscale>  0 0.79848191E+02</rscale>
<asrwt>0</asrwt>
<pdfrwt beam="1">  1        2 0.32063353E-01 0.79848191E+02</pdfrwt>
<pdfrwt beam="2">  1       -1 0.11766154E-02 0.79848191E+02</pdfrwt>
<totfact> 0.22489979E+05</totfact>
</mgrwt>
</event>
<event>
 8    1  0.7667702E-014  0.7967346E+02  0.7818608E-02  0.1329981E+00
         -1   -1    0    0    0  501 -0.00000000000E+00  0.00000000000E+00  0.25105493625E+02  0.25105494131E+02  0.50400000000E-02 0.  1.
          2   -1    0    0  501    0  0.00000000000E+00 -0.00000000000E+00 -0.63211870664E+02  0.63211870715E+02  0.25500000000E-02 0. -1.
         24    2    1    2    0    0  0.88817841970E-15  0.35527136788E-14 -0.38106377038E+02  0.88317364846E+02  0.79673464607E+02 0.  0.
         66    2    3    3    0    0  0.74977916270E+01  0.30855849759E+02 -0.45684195204E+02  0.55671770415E+02  0.19999965167E+01 0.  0.
        -13    1    3    3    0    0 -0.74977916270E+01 -0.30855849759E+02  0.75778181658E+01  0.32645594432E+02  0.10566000000E+00 0.  1.
         13    1    4    4    0    0  0.36517434043E+01  0.12836401751E+02 -0.18849580547E+02  0.23096023265E+02  0.10566000000E+00 0. -1.
        -13    1    4    4    0    0  0.13740787045E+01  0.49437497978E+01 -0.66710512468E+01  0.84168190620E+01  0.10566000000E+00 0.  1.
        -14    1    4    4    0    0  0.24719695181E+01  0.13075698210E+02 -0.20163563410E+02  0.24158928088E+02  0.00000000000E+00 0.  1.
<mgrwt>
<rscale>  0 0.79673465E+02</rscale>
<asrwt>0</asrwt>
<pdfrwt beam="1">  1        2 0.97249031E-02 0.79673465E+02</pdfrwt>
<pdfrwt beam="2">  1       -1 0.38623837E-02 0.79673465E+02</pdfrwt>
<totfact> 0.15932502E+05</totfact>
</mgrwt>
</event>
<event>
 8    1  0.7667702E-014  0.7985585E+02  0.7818608E-02  0.1329461E+00
         -1   -1    0    0    0  501 -0.00000000000E+00  0.00000000000E+00  0.12314761913E+03  0.12314761924E+03  0.50400000000E-02 0.  1.
          2   -1    0    0  501    0  0.00000000000E+00 -0.00000000000E+00 -0.12945758054E+02  0.12945758306E+02  0.25500000000E-02 0. -1.
         24    2    1    2    0    0  0.00000000000E+00  0.00000000000E+00  0.11020186108E+03  0.13609337754E+03  0.79855852794E+02 0.  0.
         66    2    3    3    0    0  0.24025623037E+02  0.20614351843E+02  0.13737765768E+02  0.34567445326E+02  0.20000009614E+01 0.  0.
        -13    1    3    3    0    0 -0.24025623037E+02 -0.20614351843E+02  0.96464095310E+02  0.10152593222E+03  0.10566000000E+00 0.  1.
         13    1    4    4    0    0  0.16089953870E+01  0.12562980823E+01  0.74745215505E+00  0.21764649748E+01  0.10566000000E+00 0. -1.
        -13    1    4    4    0    0  0.39510740575E+01  0.25616490058E+01  0.20317268535E+01  0.51295331054E+01  0.10566000000E+00 0.  1.
        -14    1    4    4    0    0  0.18465553592E+02  0.16796404755E+02  0.10958586760E+02  0.27261447246E+02  0.00000000000E+00 0.  1.
<mgrwt>
<rscale>  0 0.79855853E+02</rscale>
<asrwt>0</asrwt>
<pdfrwt beam="1">  1        2 0.19916551E-02 0.79855853E+02</pdfrwt>
<pdfrwt beam="2">  1       -1 0.18945788E-01 0.79855853E+02</pdfrwt>
<totfact> 0.11368123E+05</totfact>
</mgrwt>
</event>
<event>
 8    1  0.7667702E-014  0.7999744E+02  0.7818608E-02  0.1329059E+00
         -1   -1    0    0    0  501 -0.00000000000E+00  0.00000000000E+00  0.17640043922E+01  0.17640115921E+01  0.50400000000E-02 0.  1.
          2   -1    0    0  501    0  0.00000000000E+00 -0.00000000000E+00 -0.90696730407E+03  0.90696730408E+03  0.25500000000E-02 0. -1.
         24    2    1    2    0    0  0.00000000000E+00 -0.35527136788E-14 -0.90520329968E+03  0.90873131567E+03  0.79997439484E+02 0.  0.
         66    2    3    3    0    0  0.63487282829E+01 -0.25371074457E+02 -0.79628947266E+03  0.79672135785E+03  0.20000043057E+01 0.  0.
        -13    1    3    3    0    0 -0.63487282829E+01  0.25371074457E+02 -0.10891382702E+03  0.11200995782E+03  0.10566000000E+00 0.  1.
         13    1    4    4    0    0  0.12297739273E+01 -0.56340744999E+01 -0.19827230214E+03  0.19835617484E+03  0.10566000000E+00 0. -1.
        -13    1    4    4    0    0  0.23543647724E+00 -0.59812073937E+00 -0.17945750544E+02  0.17957569584E+02  0.10566000000E+00 0.  1.
         14    1    4    4    0    0  0.48835178784E+01 -0.19138879218E+02 -0.58007141998E+03  0.58040761342E+03  0.00000000000E+00 0. -1.
<mgrwt>
<rscale>  0 0.79997439E+02</rscale>
<asrwt>0</asrwt>
<pdfrwt beam="1">  1        2 0.13953306E+00 0.79997439E+02</pdfrwt>
<pdfrwt beam="2">  1       -1 0.27138657E-03 0.79997439E+02</pdfrwt>
<totfact> 0.34978507E+05</totfact>
</mgrwt>
</event>
<event>
 8    1  0.7667702E-014  0.8771487E+02  0.7818608E-02  0.1308482E+00
         -1   -1    0    0    0  501 -0.00000000000E+00  0.00000000000E+00  0.21636898159E+03  0.21636898165E+03  0.50400000000E-02 0.  1.
          2   -1    0    0  501    0  0.00000000000E+00 -0.00000000000E+00 -0.88897897941E+01  0.88897901599E+01  0.25500000000E-02 0. -1.
         24    2    1    2    0    0 -0.35527136788E-14  0.00000000000E+00  0.20747919180E+03  0.22525877181E+03  0.87714874728E+02 0.  0.
         66    2    3    3    0    0 -0.30275566842E+02 -0.20047972466E+02  0.40734680208E+02  0.54606275618E+02  0.20000043975E+01 0.  0.
        -13    1    3    3    0    0  0.30275566842E+02  0.20047972466E+02  0.16674451159E+03  0.17065249619E+03  0.10566000000E+00 0.  1.
         13    1    4    4    0    0 -0.22419125414E+02 -0.14646109898E+02  0.30459126155E+02  0.40557308215E+02  0.10566000000E+00 0. -1.
        -13    1    4    4    0    0 -0.25474137029E+01 -0.17796065892E+01  0.39994311370E+01  0.50658592204E+01  0.10566000000E+00 0. -1.
        -14    1    4    4    0    0 -0.53090277245E+01 -0.36222559783E+01  0.62761229164E+01  0.89831081822E+01  0.00000000000E+00 0.  1.
<mgrwt>
<rscale>  0 0.87714875E+02</rscale>
<asrwt>0</asrwt>
<pdfrwt beam="1">  1        2 0.13676599E-02 0.87714875E+02</pdfrwt>
<pdfrwt beam="2">  1       -1 0.33287538E-01 0.87714875E+02</pdfrwt>
<totfact> 0.76834514E+04</totfact>
</mgrwt>
</event>
<event>
 8    1  0.7667702E-014  0.7858694E+02  0.7818608E-02  0.1333110E+00
          2   -1    0    0  501    0  0.00000000000E+00  0.00000000000E+00  0.22864214191E+03  0.22864214192E+03  0.25500000000E-02 0. -1.
         -1   -1    0    0    0  501 -0.00000000000E+00 -0.00000000000E+00 -0.67528086494E+01  0.67528105302E+01  0.50400000000E-02 0.  1.
         24    2    1    2    0    0  0.00000000000E+00  0.00000000000E+00  0.22188933326E+03  0.23539495245E+03  0.78586941830E+02 0.  0.
         66    2    3    3    0    0  0.22112897984E+02 -0.31991486356E+02  0.12729525768E+03  0.13311843630E+03  0.20000000529E+01 0.  0.
        -13    1    3    3    0    0 -0.22112897984E+02  0.31991486356E+02  0.94594075585E+02  0.10227651615E+03  0.10566000000E+00 0.  1.
         13    1    4    4    0    0  0.46377449588E+01 -0.66826492966E+01  0.24831690976E+02  0.26130260631E+02  0.10566000000E+00 0. -1.
        -13    1    4    4    0    0  0.14385031450E+02 -0.20214688942E+02  0.81242383818E+02  0.84946447079E+02  0.10566000000E+00 0.  1.
        -14    1    4    4    0    0  0.30901215748E+01 -0.50941481180E+01  0.21221182882E+02  0.22041728592E+02  0.00000000000E+00 0.  1.
<mgrwt>
<rscale>  0 0.78586942E+02</rscale>
<asrwt>0</asrwt>
<pdfrwt beam="1">  1        2 0.35175718E-01 0.78586942E+02</pdfrwt>
<pdfrwt beam="2">  1       -1 0.10388937E-02 0.78586942E+02</pdfrwt>
<totfact> 0.24229865E+05</totfact>
</mgrwt>
</event>
<event>
 8    1  0.7667702E-014  0.8126224E+02  0.7818608E-02  0.1325507E+00
         -1   -1    0    0    0  501 -0.00000000000E+00  0.00000000000E+00  0.23151850220E+01  0.23151905078E+01  0.50400000000E-02 0.  1.
          2   -1    0    0  501    0  0.00000000000E+00 -0.00000000000E+00 -0.71306863762E+03  0.71306863763E+03  0.25500000000E-02 0. -1.
         24    2    1    2    0    0  0.71054273576E-14  0.35527136788E-14 -0.71075345260E+03  0.71538382813E+03  0.81262237068E+02 0.  0.
         66    2    3    3    0    0 -0.26888510624E+02 -0.17821189175E+02 -0.57271539090E+03  0.57362662575E+03  0.20000007337E+01 0.  0.
        -13    1    3    3    0    0  0.26888510624E+02  0.17821189175E+02 -0.13803806170E+03  0.14175720238E+03  0.10566000000E+00 0.  1.
         13    1    4    4    0    0 -0.29239535392E+01 -0.17222277750E+01 -0.64676728618E+02  0.64765777703E+02  0.10566000000E+00 0. -1.
        -13    1    4    4    0    0 -0.15825028914E+02 -0.99335143868E+01 -0.31951003370E+03  0.32005589988E+03  0.10566000000E+00 0.  1.
         14    1    4    4    0    0 -0.81395281708E+01 -0.61654470136E+01 -0.18852862859E+03  0.18880494817E+03  0.00000000000E+00 0. -1.
<mgrwt>
<rscale>  0 0.81262237E+02</rscale>
<asrwt>0</asrwt>
<pdfrwt beam="1">  1        2 0.10970269E+00 0.81262237E+02</pdfrwt>
<pdfrwt beam="2">  1       -1 0.35618330E-03 0.81262237E+02</pdfrwt>
<totfact> 0.32250993E+05</totfact>
</mgrwt>
</event>
<event>
 8    1  0.7667702E-014  0.7945246E+02  0.7818608E-02  0.1330612E+00
         -1   -1    0    0    0  501 -0.00000000000E+00  0.00000000000E+00  0.47070919319E+02  0.47070919589E+02  0.50400000000E-02 0.  1.
          2   -1    0    0  501    0  0.00000000000E+00 -0.00000000000E+00 -0.33527567332E+02  0.33527567429E+02  0.25500000000E-02 0. -1.
         24    2    1    2    0    0 -0.35527136788E-14  0.00000000000E+00  0.13543351987E+02  0.80598487018E+02  0.79452462054E+02 0.  0.
         66    2    3    3    0    0  0.31552600516E+02 -0.34533866800E+01 -0.17414942584E+02  0.36259794597E+02  0.20000000315E+01 0.  0.
        -13    1    3    3    0    0 -0.31552600516E+02  0.34533866800E+01  0.30958294570E+02  0.44338692421E+02  0.10566000000E+00 0.  1.
         13    1    4    4    0    0  0.50963464588E+01 -0.76730420020E+00 -0.29969270206E+01  0.59627375061E+01  0.10566000000E+00 0. -1.
        -13    1    4    4    0    0  0.22343788384E+02 -0.18070015395E+01 -0.12601558504E+02  0.25716153964E+02  0.10566000000E+00 0.  1.
        -14    1    4    4    0    0  0.41124656725E+01 -0.87908094026E+00 -0.18164570585E+01  0.45809031263E+01  0.00000000000E+00 0.  1.
<mgrwt>
<rscale>  0 0.79452462E+02</rscale>
<asrwt>0</asrwt>
<pdfrwt beam="1">  1        2 0.51580873E-02 0.79452462E+02</pdfrwt>
<pdfrwt beam="2">  1       -1 0.72416800E-02 0.79452462E+02</pdfrwt>
<totfact> 0.14020888E+05</totfact>
</mgrwt>
</event>
<event>
 8    1  0.7667702E-014  0.7938906E+02  0.7818608E-02  0.1330794E+00
         -1   -1    0    0    0  501 -0.00000000000E+00  0.00000000000E+00  0.22226094558E+02  0.22226095129E+02  0.50400000000E-02 0.  1.
          2   -1    0    0  501    0  0.00000000000E+00 -0.00000000000E+00 -0.70892156272E+02  0.70892156318E+02  0.25500000000E-02 0. -1.
         24    2    1    2    0    0  0.00000000000E+00  0.00000000000E+00 -0.48666061714E+02  0.93118251447E+02  0.79389062155E+02 0.  0.
         66    2    3    3    0    0 -0.97727939345E+01 -0.35001953346E+02 -0.43005355966E+02  0.56339195003E+02  0.20000031222E+01 0.  0.
        -13    1    3    3    0    0  0.97727939345E+01  0.35001953346E+02 -0.56607057478E+01  0.36779056444E+02  0.10566000000E+00 0.  1.
         13    1    4    4    0    0 -0.25473850527E+01 -0.77531673684E+01 -0.85950194009E+01  0.11852691567E+02  0.10566000000E+00 0. -1.
        -13    1    4    4    0    0 -0.61808067468E+00 -0.19766766679E+01 -0.25483611787E+01  0.32855110870E+01  0.10566000000E+00 0. -1.
         14    1    4    4    0    0 -0.66073282072E+01 -0.25272109310E+02 -0.31861975387E+02  0.41200992349E+02  0.00000000000E+00 0. -1.
<mgrwt>
<rscale>  0 0.79389062E+02</rscale>
<asrwt>0</asrwt>
<pdfrwt beam="1">  1        2 0.10906486E-01 0.79389062E+02</pdfrwt>
<pdfrwt beam="2">  1       -1 0.34193992E-02 0.79389062E+02</pdfrwt>
<totfact> 0.16535941E+05</totfact>
</mgrwt>
</event>
<event>
 8    1  0.7667702E-014  0.7889077E+02  0.7818608E-02  0.1332229E+00
          2   -1    0    0  501    0  0.00000000000E+00  0.00000000000E+00  0.82107894551E+03  0.82107894551E+03  0.25500000000E-02 0. -1.
         -1   -1    0    0    0  501 -0.00000000000E+00 -0.00000000000E+00 -0.18949888567E+01  0.18949955590E+01  0.50400000000E-02 0.  1.
         24    2    1    2    0    0  0.00000000000E+00  0.00000000000E+00  0.81918395665E+03  0.82297394107E+03  0.78890765283E+02 0.  0.
         66    2    3    3    0    0  0.22713019338E+02 -0.23091796089E+02  0.64423883804E+03  0.64505565089E+03  0.20000001788E+01 0.  0.
        -13    1    3    3    0    0 -0.22713019338E+02  0.23091796089E+02  0.17494511861E+03  0.17791829018E+03  0.10566000000E+00 0.  1.
         13    1    4    4    0    0  0.10172700209E+02 -0.10191340454E+02  0.28038454579E+03  0.28075407732E+03  0.10566000000E+00 0. -1.
        -13    1    4    4    0    0  0.10905179357E+02 -0.11711799399E+02  0.32841414549E+03  0.32880381887E+03  0.10566000000E+00 0.  1.
        -14    1    4    4    0    0  0.16351397718E+01 -0.11886562358E+01  0.35440146768E+02  0.35497754699E+02  0.00000000000E+00 0.  1.
<mgrwt>
<rscale>  0 0.78890765E+02</rscale>
<asrwt>0</asrwt>
<pdfrwt beam="1">  1        2 0.12631985E+00 0.78890765E+02</pdfrwt>
<pdfrwt beam="2">  1       -1 0.29153723E-03 0.78890765E+02</pdfrwt>
<totfact> 0.35788221E+05</totfact>
</mgrwt>
</event>
<event>
 8    1  0.7667702E-014  0.7715314E+02  0.7818608E-02  0.1337330E+00
          2   -1    0    0  501    0  0.00000000000E+00  0.00000000000E+00  0.26255057672E+02  0.26255057796E+02  0.25500000000E-02 0. -1.
         -1   -1    0    0    0  501 -0.00000000000E+00 -0.00000000000E+00 -0.56680579689E+02  0.56680579913E+02  0.50400000000E-02 0.  1.
         24    2    1    2    0    0 -0.35527136788E-14 -0.35527136788E-14 -0.30425522017E+02  0.82935637709E+02  0.77153143891E+02 0.  0.
         66    2    3    3    0    0  0.23739969622E+02  0.17516924287E+02  0.11450455721E+02  0.31710278074E+02  0.20000012982E+01 0.  0.
        -13    1    3    3    0    0 -0.23739969622E+02 -0.17516924287E+02 -0.41875977739E+02  0.51225359635E+02  0.10566000000E+00 0.  1.
         13    1    4    4    0    0  0.17179453825E+02  0.12597051341E+02  0.73785275811E+01  0.22544914493E+02  0.10566000000E+00 0. -1.
        -13    1    4    4    0    0  0.33913139850E+01  0.22997403606E+01  0.19990637029E+01  0.45603986662E+01  0.10566000000E+00 0.  1.
         14    1    4    4    0    0  0.31692018125E+01  0.26201325854E+01  0.20728644374E+01  0.46049649151E+01  0.00000000000E+00 0. -1.
<mgrwt>
<rscale>  0 0.77153144E+02</rscale>
<asrwt>0</asrwt>
<pdfrwt beam="1">  1        2 0.40392397E-02 0.77153144E+02</pdfrwt>
<pdfrwt beam="2">  1       -1 0.87200892E-02 0.77153144E+02</pdfrwt>
<totfact> 0.14513453E+05</totfact>
</mgrwt>
</event>
<event>
 8    1  0.7667702E-014  0.8172048E+02  0.7818608E-02  0.1324239E+00
          2   -1    0    0  501    0  0.00000000000E+00  0.00000000000E+00  0.21816262985E+03  0.21816262986E+03  0.25500000000E-02 0. -1.
         -1   -1    0    0    0  501 -0.00000000000E+00 -0.00000000000E+00 -0.76528176306E+01  0.76528192902E+01  0.50400000000E-02 0.  1.
         24    2    1    2    0    0 -0.35527136788E-14  0.00000000000E+00  0.21050981222E+03  0.22581544915E+03  0.81720475013E+02 0.  0.
         66    2    3    3    0    0  0.31139415305E+02  0.15957885935E+02  0.16349334164E+03  0.16720762562E+03  0.19999994200E+01 0.  0.
        -13    1    3    3    0    0 -0.31139415305E+02 -0.15957885935E+02  0.47016470578E+02  0.58607823528E+02  0.10566000000E+00 0.  1.
         13    1    4    4    0    0  0.20557994569E+02  0.10983803083E+02  0.11057989712E+03  0.11300973357E+03  0.10566000000E+00 0. -1.
        -13    1    4    4    0    0  0.16508829880E+01  0.10911499637E+01  0.81561342832E+01  0.83934327522E+01  0.10566000000E+00 0.  1.
         14    1    4    4    0    0  0.89305377475E+01  0.38829328881E+01  0.44757310236E+02  0.45804459301E+02  0.00000000000E+00 0. -1.
<mgrwt>
<rscale>  0 0.81720475E+02</rscale>
<asrwt>0</asrwt>
<pdfrwt beam="1">  1        2 0.33563483E-01 0.81720475E+02</pdfrwt>
<pdfrwt beam="2">  1       -1 0.11773566E-02 0.81720475E+02</pdfrwt>
<totfact> 0.21498780E+05</totfact>
</mgrwt>
</event>
<event>
 8    1  0.7667702E-014  0.8144155E+02  0.7818608E-02  0.1325010E+00
          2   -1    0    0  501    0  0.00000000000E+00  0.00000000000E+00  0.14021432978E+03  0.14021432981E+03  0.25500000000E-02 0. -1.
         -1   -1    0    0    0  501 -0.00000000000E+00 -0.00000000000E+00 -0.11826049477E+02  0.11826050551E+02  0.50400000000E-02 0.  1.
         24    2    1    2    0    0 -0.35527136788E-14 -0.35527136788E-14  0.12838828031E+03  0.15204038036E+03  0.81441554131E+02 0.  0.
         66    2    3    3    0    0 -0.12544316827E+02 -0.18829035260E+02  0.12738369084E+03  0.12939280174E+03  0.19999989843E+01 0.  0.
        -13    1    3    3    0    0  0.12544316827E+02  0.18829035260E+02  0.10045894695E+01  0.22647578623E+02  0.10566000000E+00 0.  1.
         13    1    4    4    0    0 -0.78974878596E+01 -0.10794232736E+02  0.73011281639E+02  0.74226303865E+02  0.10566000000E+00 0. -1.
        -13    1    4    4    0    0 -0.39106226443E+01 -0.62616473733E+01  0.41491249156E+02  0.42143043529E+02  0.10566000000E+00 0.  1.
        -14    1    4    4    0    0 -0.73620632309E+00 -0.17731551504E+01  0.12881160043E+02  0.13023454342E+02  0.00000000000E+00 0.  1.
<mgrwt>
<rscale>  0 0.81441554E+02</rscale>
<asrwt>0</asrwt>
<pdfrwt beam="1">  1        2 0.21571435E-01 0.81441554E+02</pdfrwt>
<pdfrwt beam="2">  1       -1 0.18193923E-02 0.81441554E+02</pdfrwt>
<totfact> 0.18694158E+05</totfact>
</mgrwt>
</event>
<event>
 8    1  0.7667702E-014  0.7941886E+02  0.7818608E-02  0.1330709E+00
          2   -1    0    0  501    0  0.00000000000E+00  0.00000000000E+00  0.10410070566E+03  0.10410070569E+03  0.25500000000E-02 0. -1.
         -1   -1    0    0    0  501 -0.00000000000E+00 -0.00000000000E+00 -0.15147242113E+02  0.15147242952E+02  0.50400000000E-02 0.  1.
         24    2    1    2    0    0  0.00000000000E+00 -0.35527136788E-14  0.88953463549E+02  0.11924794864E+03  0.79418855310E+02 0.  0.
         66    2    3    3    0    0 -0.29376595094E+01  0.20310399639E+02  0.95505090357E+02  0.97705498581E+02  0.19999979494E+01 0.  0.
        -13    1    3    3    0    0  0.29376595094E+01 -0.20310399639E+02 -0.65516268088E+01  0.21542450064E+02  0.10566000000E+00 0.  1.
         13    1    4    4    0    0 -0.20363452095E+00  0.66435429986E+00  0.33369221417E+01  0.34101388636E+01  0.10566000000E+00 0.  1.
        -13    1    4    4    0    0 -0.24267097510E+00  0.12175931230E+01  0.40950524470E+01  0.42804253054E+01  0.10566000000E+00 0.  1.
         14    1    4    4    0    0 -0.24913540134E+01  0.18428452216E+02  0.88073115769E+02  0.90014934412E+02  0.00000000000E+00 0. -1.
<mgrwt>
<rscale>  0 0.79418855E+02</rscale>
<asrwt>0</asrwt>
<pdfrwt beam="1">  1        2 0.16015493E-01 0.79418855E+02</pdfrwt>
<pdfrwt beam="2">  1       -1 0.23303450E-02 0.79418855E+02</pdfrwt>
<totfact> 0.18280962E+05</totfact>
</mgrwt>
</event>
<event>
 8    1  0.7667702E-014  0.7960540E+02  0.7818608E-02  0.1330175E+00
          2   -1    0    0  501    0  0.00000000000E+00  0.00000000000E+00  0.18957173016E+03  0.18957173017E+03  0.25500000000E-02 0. -1.
         -1   -1    0    0    0  501 -0.00000000000E+00 -0.00000000000E+00 -0.83570200762E+01  0.83570215960E+01  0.50400000000E-02 0.  1.
         24    2    1    2    0    0 -0.88817841970E-15  0.00000000000E+00  0.18121471008E+03  0.19792875177E+03  0.79605399487E+02 0.  0.
         66    2    3    3    0    0 -0.78626901569E+01 -0.35117309849E+02  0.13280109035E+03  0.13760514870E+03  0.20000009462E+01 0.  0.
        -13    1    3    3    0    0  0.78626901569E+01  0.35117309849E+02  0.48413619731E+02  0.60323603067E+02  0.10566000000E+00 0.  1.
         13    1    4    4    0    0 -0.29730735905E+01 -0.14665588164E+02  0.53802361561E+02  0.55844640892E+02  0.10566000000E+00 0. -1.
        -13    1    4    4    0    0 -0.12575415328E+01 -0.80398165687E+01  0.30684181361E+02  0.31745081682E+02  0.10566000000E+00 0.  1.
         14    1    4    4    0    0 -0.36320750336E+01 -0.12411905117E+02  0.48314547427E+02  0.50015426128E+02  0.00000000000E+00 0. -1.
<mgrwt>
<rscale>  0 0.79605399E+02</rscale>
<asrwt>0</asrwt>
<pdfrwt beam="1">  1        2 0.29164881E-01 0.79605399E+02</pdfrwt>
<pdfrwt beam="2">  1       -1 0.12856955E-02 0.79605399E+02</pdfrwt>
<totfact> 0.21938853E+05</totfact>
</mgrwt>
</event>
<event>
 8    1  0.7667702E-014  0.7949466E+02  0.7818608E-02  0.1330492E+00
          2   -1    0    0  501    0  0.00000000000E+00  0.00000000000E+00  0.13480938436E+03  0.13480938438E+03  0.25500000000E-02 0. -1.
         -1   -1    0    0    0  501 -0.00000000000E+00 -0.00000000000E+00 -0.11719142229E+02  0.11719143313E+02  0.50400000000E-02 0.  1.
         24    2    1    2    0    0  0.35527136788E-14  0.00000000000E+00  0.12309024213E+03  0.14652852769E+03  0.79494664732E+02 0.  0.
         66    2    3    3    0    0  0.26149910518E+02  0.19832257009E+02  0.10282950962E+03  0.10795853050E+03  0.20000047797E+01 0.  0.
        -13    1    3    3    0    0 -0.26149910518E+02 -0.19832257009E+02  0.20260732503E+02  0.38569997197E+02  0.10566000000E+00 0.  1.
         13    1    4    4    0    0  0.78301245346E+01  0.57649648480E+01  0.30210542727E+02  0.31736945755E+02  0.10566000000E+00 0. -1.
        -13    1    4    4    0    0  0.10003400881E+00  0.25176402474E+00  0.93826159120E+00  0.98228854019E+00  0.10566000000E+00 0.  1.
        -14    1    4    4    0    0  0.18219751975E+02  0.13815528136E+02  0.71680705305E+02  0.75239296201E+02  0.00000000000E+00 0.  1.
<mgrwt>
<rscale>  0 0.79494665E+02</rscale>
<asrwt>0</asrwt>
<pdfrwt beam="1">  1        2 0.20739905E-01 0.79494665E+02</pdfrwt>
<pdfrwt beam="2">  1       -1 0.18029451E-02 0.79494665E+02</pdfrwt>
<totfact> 0.19692283E+05</totfact>
</mgrwt>
</event>
<event>
 8    1  0.7667702E-014  0.7908840E+02  0.7818608E-02  0.1331659E+00
         -1   -1    0    0    0  501 -0.00000000000E+00  0.00000000000E+00  0.54007866372E+01  0.54007889889E+01  0.50400000000E-02 0.  1.
          2   -1    0    0  501    0  0.00000000000E+00 -0.00000000000E+00 -0.28953990996E+03  0.28953990997E+03  0.25500000000E-02 0. -1.
         24    2    1    2    0    0  0.00000000000E+00 -0.35527136788E-14 -0.28413912332E+03  0.29494069896E+03  0.79088396750E+02 0.  0.
         66    2    3    3    0    0 -0.21459119604E+02 -0.30923098614E+02 -0.18706738069E+03  0.19082698121E+03  0.19999992981E+01 0.  0.
        -13    1    3    3    0    0  0.21459119604E+02  0.30923098614E+02 -0.97071742636E+02  0.10411371775E+03  0.10566000000E+00 0.  1.
         13    1    4    4    0    0 -0.65018667001E+01 -0.95589847792E+01 -0.54937668086E+02  0.56140956523E+02  0.10566000000E+00 0. -1.
        -13    1    4    4    0    0 -0.70684808144E+01 -0.99828315700E+01 -0.65511276329E+02  0.66643520596E+02  0.10566000000E+00 0.  1.
        -14    1    4    4    0    0 -0.78887720899E+01 -0.11381282265E+02 -0.66618436272E+02  0.68042504087E+02  0.00000000000E+00 0.  1.
<mgrwt>
<rscale>  0 0.79088397E+02</rscale>
<asrwt>0</asrwt>
<pdfrwt beam="1">  1        2 0.44544589E-01 0.79088397E+02</pdfrwt>
<pdfrwt beam="2">  1       -1 0.83089066E-03 0.79088397E+02</pdfrwt>
<totfact> 0.25936524E+05</totfact>
</mgrwt>
</event>
<event>
 8    1  0.7667702E-014  0.8045126E+02  0.7818608E-02  0.1327776E+00
         -1   -1    0    0    0  501 -0.00000000000E+00  0.00000000000E+00  0.95613615833E+01  0.95613629117E+01  0.50400000000E-02 0.  1.
          2   -1    0    0  501    0  0.00000000000E+00 -0.00000000000E+00 -0.16923333371E+03  0.16923333373E+03  0.25500000000E-02 0. -1.
         24    2    1    2    0    0  0.35527136788E-14  0.00000000000E+00 -0.15967197213E+03  0.17879469664E+03  0.80451257691E+02 0.  0.
         66    2    3    3    0    0 -0.26970194820E+02  0.11095685208E+02 -0.14137739653E+03  0.14436784231E+03  0.20000010337E+01 0.  0.
        -13    1    3    3    0    0  0.26970194820E+02 -0.11095685208E+02 -0.18294575593E+02  0.34426854329E+02  0.10566000000E+00 0.  1.
         13    1    4    4    0    0 -0.21925438117E+02  0.84947751731E+01 -0.11197450167E+03  0.11441672181E+03  0.10566000000E+00 0. -1.
        -13    1    4    4    0    0 -0.47584805254E+01  0.23615248143E+01 -0.26801390360E+02  0.27322987129E+02  0.10566000000E+00 0.  1.
         14    1    4    4    0    0 -0.28627617779E+00  0.23938522021E+00 -0.26015045075E+01  0.26281333749E+01  0.00000000000E+00 0. -1.
<mgrwt>
<rscale>  0 0.80451258E+02</rscale>
<asrwt>0</asrwt>
<pdfrwt beam="1">  1        2 0.26035895E-01 0.80451258E+02</pdfrwt>
<pdfrwt beam="2">  1       -1 0.14709789E-02 0.80451258E+02</pdfrwt>
<totfact> 0.20529848E+05</totfact>
</mgrwt>
</event>
<event>
 8    1  0.7667702E-014  0.8005964E+02  0.7818608E-02  0.1328882E+00
         -1   -1    0    0    0  501 -0.00000000000E+00  0.00000000000E+00  0.67104267322E+02  0.67104267511E+02  0.50400000000E-02 0.  1.
          2   -1    0    0  501    0  0.00000000000E+00 -0.00000000000E+00 -0.23879055698E+02  0.23879055834E+02  0.25500000000E-02 0. -1.
         24    2    1    2    0    0  0.00000000000E+00 -0.88817841970E-15  0.43225211624E+02  0.90983323345E+02  0.80059641562E+02 0.  0.
         66    2    3    3    0    0 -0.36598037006E+02  0.60864954054E+01  0.46203580328E+01  0.37440745673E+02  0.19999972944E+01 0.  0.
        -13    1    3    3    0    0  0.36598037006E+02 -0.60864954054E+01  0.38604853591E+02  0.53542577673E+02  0.10566000000E+00 0.  1.
         13    1    4    4    0    0 -0.20719991039E+01  0.71182151456E+00  0.29836672874E+00  0.22136072135E+01  0.10566000000E+00 0. -1.
        -13    1    4    4    0    0 -0.98058348581E+01  0.18687823619E+01  0.16259322088E+01  0.10114423580E+02  0.10566000000E+00 0. -1.
         14    1    4    4    0    0 -0.24720203044E+02  0.35058915290E+01  0.26960590953E+01  0.25112714879E+02  0.00000000000E+00 0. -1.
<mgrwt>
<rscale>  0 0.80059642E+02</rscale>
<asrwt>0</asrwt>
<pdfrwt beam="1">  1        2 0.36737009E-02 0.80059642E+02</pdfrwt>
<pdfrwt beam="2">  1       -1 0.10323733E-01 0.80059642E+02</pdfrwt>
<totfact> 0.12836065E+05</totfact>
</mgrwt>
</event>
<event>
 8    1  0.7667702E-014  0.7980497E+02  0.7818608E-02  0.1329606E+00
          2   -1    0    0  501    0  0.00000000000E+00  0.00000000000E+00  0.29790977298E+02  0.29790977407E+02  0.25500000000E-02 0. -1.
         -1   -1    0    0    0  501 -0.00000000000E+00 -0.00000000000E+00 -0.53445994881E+02  0.53445995119E+02  0.50400000000E-02 0.  1.
         24    2    1    2    0    0  0.00000000000E+00  0.00000000000E+00 -0.23655017583E+02  0.83236972526E+02  0.79804973144E+02 0.  0.
         66    2    3    3    0    0  0.25355783419E+02 -0.27072250955E+02 -0.27106336394E+02  0.45984519048E+02  0.19999986931E+01 0.  0.
        -13    1    3    3    0    0 -0.25355783419E+02  0.27072250955E+02  0.34513188114E+01  0.37252453478E+02  0.10566000000E+00 0.  1.
         13    1    4    4    0    0  0.69060405906E+01 -0.75030012035E+01 -0.73272023877E+01  0.12557367661E+02  0.10566000000E+00 0. -1.
        -13    1    4    4    0    0  0.61683853483E+01 -0.72512450879E+01 -0.77872767101E+01  0.12299690066E+02  0.10566000000E+00 0.  1.
         14    1    4    4    0    0  0.12281357480E+02 -0.12318004664E+02 -0.11991857296E+02  0.21127461321E+02  0.00000000000E+00 0. -1.
<mgrwt>
<rscale>  0 0.79804973E+02</rscale>
<asrwt>0</asrwt>
<pdfrwt beam="1">  1        2 0.45832273E-02 0.79804973E+02</pdfrwt>
<pdfrwt beam="2">  1       -1 0.82224608E-02 0.79804973E+02</pdfrwt>
<totfact> 0.13528922E+05</totfact>
</mgrwt>
</event>
<event>
 8    1  0.7667702E-014  0.7684119E+02  0.7818608E-02  0.1338262E+00
         -1   -1    0    0    0  501 -0.00000000000E+00  0.00000000000E+00  0.51652485911E+01  0.51652510500E+01  0.50400000000E-02 0.  1.
          2   -1    0    0  501    0  0.00000000000E+00 -0.00000000000E+00 -0.28578329942E+03  0.28578329944E+03  0.25500000000E-02 0. -1.
         24    2    1    2    0    0  0.00000000000E+00  0.00000000000E+00 -0.28061805083E+03  0.29094855049E+03  0.76841190622E+02 0.  0.
         66    2    3    3    0    0 -0.16082732827E+02  0.83188088544E+01 -0.26859776382E+03  0.26921481312E+03  0.19999998594E+01 0.  0.
        -13    1    3    3    0    0  0.16082732827E+02 -0.83188088544E+01 -0.12020287018E+02  0.21733737368E+02  0.10566000000E+00 0.  1.
         13    1    4    4    0    0 -0.22319221313E+01  0.14724595866E+01 -0.32228319463E+02  0.32339223137E+02  0.10566000000E+00 0. -1.
        -13    1    4    4    0    0 -0.78949940769E+01  0.34865792563E+01 -0.12822607533E+03  0.12851624304E+03  0.10566000000E+00 0.  1.
         14    1    4    4    0    0 -0.59558166189E+01  0.33597700115E+01 -0.10814336902E+03  0.10835934694E+03  0.00000000000E+00 0. -1.
<mgrwt>
<rscale>  0 0.76841191E+02</rscale>
<asrwt>0</asrwt>
<pdfrwt beam="1">  1        2 0.43966649E-01 0.76841191E+02</pdfrwt>
<pdfrwt beam="2">  1       -1 0.79465404E-03 0.76841191E+02</pdfrwt>
<totfact> 0.27836711E+05</totfact>
</mgrwt>
</event>
<event>
 8    1  0.7667702E-014  0.7984904E+02  0.7818608E-02  0.1329480E+00
          2   -1    0    0  501    0  0.00000000000E+00  0.00000000000E+00  0.24692131511E+03  0.24692131512E+03  0.25500000000E-02 0. -1.
         -1   -1    0    0    0  501 -0.00000000000E+00 -0.00000000000E+00 -0.64553640150E+01  0.64553659825E+01  0.50400000000E-02 0.  1.
         24    2    1    2    0    0  0.17763568394E-14 -0.71054273576E-14  0.24046595110E+03  0.25337668111E+03  0.79849038142E+02 0.  0.
         66    2    3    3    0    0  0.87976746696E+01 -0.20833788034E+02  0.22461500124E+03  0.22575948395E+03  0.20000017492E+01 0.  0.
        -13    1    3    3    0    0 -0.87976746696E+01  0.20833788034E+02  0.15850949852E+02  0.27617197155E+02  0.10566000000E+00 0.  1.
         13    1    4    4    0    0  0.10773137351E+01 -0.30514918558E+01  0.34615779279E+02  0.34766874271E+02  0.10566000000E+00 0. -1.
        -13    1    4    4    0    0  0.15509944145E+01 -0.24461358757E+01  0.32004907671E+02  0.32135874711E+02  0.10566000000E+00 0.  1.
        -14    1    4    4    0    0  0.61693665200E+01 -0.15336160302E+02  0.15799431430E+03  0.15885673497E+03  0.00000000000E+00 0.  1.
<mgrwt>
<rscale>  0 0.79849038E+02</rscale>
<asrwt>0</asrwt>
<pdfrwt beam="1">  1        2 0.37987900E-01 0.79849038E+02</pdfrwt>
<pdfrwt beam="2">  1       -1 0.99313294E-03 0.79849038E+02</pdfrwt>
<totfact> 0.23881026E+05</totfact>
</mgrwt>
</event>
<event>
 8    1  0.7667702E-014  0.8105593E+02  0.7818608E-02  0.1326081E+00
         -1   -1    0    0    0  501 -0.00000000000E+00  0.00000000000E+00  0.54423623037E+01  0.54423646374E+01  0.50400000000E-02 0.  1.
          2   -1    0    0  501    0  0.00000000000E+00 -0.00000000000E+00 -0.30180197968E+03  0.30180197969E+03  0.25500000000E-02 0. -1.
         24    2    1    2    0    0  0.00000000000E+00  0.00000000000E+00 -0.29635961738E+03  0.30724434433E+03  0.81055933221E+02 0.  0.
         66    2    3    3    0    0  0.17997980608E+02 -0.36187757570E+02 -0.13821952481E+03  0.14402124197E+03  0.19999986806E+01 0.  0.
        -13    1    3    3    0    0 -0.17997980608E+02  0.36187757570E+02 -0.15814009257E+03  0.16322310237E+03  0.10566000000E+00 0.  1.
         13    1    4    4    0    0  0.10131221565E+01 -0.28304632606E+01 -0.91930668424E+01  0.96727235450E+01  0.10566000000E+00 0. -1.
        -13    1    4    4    0    0  0.16385665726E+02 -0.32107295325E+02 -0.12468912563E+03  0.12979506026E+03  0.10566000000E+00 0.  1.
        -14    1    4    4    0    0  0.59919272517E+00 -0.12499989848E+01 -0.43373323393E+01  0.45534581590E+01  0.00000000000E+00 0.  1.
<mgrwt>
<rscale>  0 0.81055933E+02</rscale>
<asrwt>0</asrwt>
<pdfrwt beam="1">  1        2 0.46431061E-01 0.81055933E+02</pdfrwt>
<pdfrwt beam="2">  1       -1 0.83728692E-03 0.81055933E+02</pdfrwt>
<totfact> 0.24685882E+05</totfact>
</mgrwt>
</event>
<event>
 8    1  0.7667702E-014  0.8081427E+02  0.7818608E-02  0.1326756E+00
         -1   -1    0    0    0  501 -0.00000000000E+00  0.00000000000E+00  0.17390762781E+01  0.17390835813E+01  0.50400000000E-02 0.  1.
          2   -1    0    0  501    0  0.00000000000E+00 -0.00000000000E+00 -0.93885070031E+03  0.93885070031E+03  0.25500000000E-02 0. -1.
         24    2    1    2    0    0 -0.71054273576E-14  0.17763568394E-14 -0.93711162403E+03  0.94058978389E+03  0.80814266510E+02 0.  0.
         66    2    3    3    0    0 -0.22929434212E+02  0.13780348536E+02 -0.82092124868E+03  0.82135945450E+03  0.20000009160E+01 0.  0.
        -13    1    3    3    0    0  0.22929434212E+02 -0.13780348536E+02 -0.11619037535E+03  0.11923032939E+03  0.10566000000E+00 0.  1.
         13    1    4    4    0    0 -0.59689545091E+01  0.34307731673E+01 -0.19675018880E+03  0.19687063412E+03  0.10566000000E+00 0. -1.
        -13    1    4    4    0    0 -0.49438297508E+00  0.30852727883E+00 -0.26697036040E+02  0.26703604644E+02  0.10566000000E+00 0.  1.
         14    1    4    4    0    0 -0.16466096728E+02  0.10041048089E+02 -0.59747402384E+03  0.59778521573E+03  0.00000000000E+00 0. -1.
<mgrwt>
<rscale>  0 0.80814267E+02</rscale>
<asrwt>0</asrwt>
<pdfrwt beam="1">  1        2 0.14443816E+00 0.80814267E+02</pdfrwt>
<pdfrwt beam="2">  1       -1 0.26755151E-03 0.80814267E+02</pdfrwt>
<totfact> 0.34179404E+05</totfact>
</mgrwt>
</event>
<event>
 8    1  0.7667702E-014  0.7991324E+02  0.7818608E-02  0.1329298E+00
         -1   -1    0    0    0  501 -0.00000000000E+00  0.00000000000E+00  0.31295665596E+01  0.31295706179E+01  0.50400000000E-02 0.  1.
          2   -1    0    0  501    0  0.00000000000E+00 -0.00000000000E+00 -0.51014427538E+03  0.51014427538E+03  0.25500000000E-02 0. -1.
         24    2    1    2    0    0 -0.35527136788E-14  0.35527136788E-14 -0.50701470882E+03  0.51327384600E+03  0.79913240654E+02 0.  0.
         66    2    3    3    0    0  0.21841095937E+02 -0.28553313565E+02 -0.36532080685E+03  0.36709074778E+03  0.19999999097E+01 0.  0.
        -13    1    3    3    0    0 -0.21841095937E+02  0.28553313565E+02 -0.14169390196E+03  0.14618309822E+03  0.10566000000E+00 0.  1.
         13    1    4    4    0    0  0.59141851533E+01 -0.66945538134E+01 -0.90448353820E+02  0.90888450914E+02  0.10566000000E+00 0. -1.
        -13    1    4    4    0    0  0.17154265866E+01 -0.26919856920E+01 -0.29457596590E+02  0.29630231795E+02  0.10566000000E+00 0.  1.
         14    1    4    4    0    0  0.14211484197E+02 -0.19166774060E+02 -0.24541485644E+03  0.24657206507E+03  0.00000000000E+00 0. -1.
<mgrwt>
<rscale>  0 0.79913241E+02</rscale>
<asrwt>0</asrwt>
<pdfrwt beam="1">  1        2 0.78483669E-01 0.79913241E+02</pdfrwt>
<pdfrwt beam="2">  1       -1 0.48147250E-03 0.79913241E+02</pdfrwt>
<totfact> 0.30732473E+05</totfact>
</mgrwt>
</event>
<event>
 8    1  0.7667702E-014  0.7812879E+02  0.7818608E-02  0.1334447E+00
         -1   -1    0    0    0  501 -0.00000000000E+00  0.00000000000E+00  0.41042166730E+02  0.41042167040E+02  0.50400000000E-02 0.  1.
          2   -1    0    0  501    0  0.00000000000E+00 -0.00000000000E+00 -0.37181928224E+02  0.37181928311E+02  0.25500000000E-02 0. -1.
         24    2    1    2    0    0  0.00000000000E+00  0.00000000000E+00  0.38602385065E+01  0.78224095351E+02  0.78128788882E+02 0.  0.
         66    2    3    3    0    0 -0.37101074983E+00 -0.18515398592E+02 -0.32477158844E+02  0.37439597754E+02  0.19999998652E+01 0.  0.
        -13    1    3    3    0    0  0.37101074983E+00  0.18515398592E+02  0.36337397350E+02  0.40784497597E+02  0.10566000000E+00 0.  1.
         13    1    4    4    0    0 -0.93286779199E+00 -0.86169527985E+01 -0.14256214789E+02  0.16684512039E+02  0.10566000000E+00 0. -1.
        -13    1    4    4    0    0  0.26348615478E+00 -0.13393447772E+01 -0.27438228074E+01  0.30664306644E+01  0.10566000000E+00 0.  1.
         14    1    4    4    0    0  0.29837088738E+00 -0.85591010162E+01 -0.15477121248E+02  0.17688655051E+02  0.00000000000E+00 0. -1.
<mgrwt>
<rscale>  0 0.78128789E+02</rscale>
<asrwt>0</asrwt>
<pdfrwt beam="1">  1        2 0.57202967E-02 0.78128789E+02</pdfrwt>
<pdfrwt beam="2">  1       -1 0.63141795E-02 0.78128789E+02</pdfrwt>
<totfact> 0.14995340E+05</totfact>
</mgrwt>
</event>
<event>
 8    1  0.7667702E-014  0.8054340E+02  0.7818608E-02  0.1327516E+00
         -1   -1    0    0    0  501 -0.00000000000E+00  0.00000000000E+00  0.94492677038E+02  0.94492677172E+02  0.50400000000E-02 0.  1.
          2   -1    0    0  501    0  0.00000000000E+00 -0.00000000000E+00 -0.17163338883E+02  0.17163339072E+02  0.25500000000E-02 0. -1.
         24    2    1    2    0    0  0.00000000000E+00  0.00000000000E+00  0.77329338155E+02  0.11165601624E+03  0.80543400872E+02 0.  0.
         66    2    3    3    0    0 -0.15500493744E+02 -0.27365696889E+02  0.38748223123E+01  0.31751549947E+02  0.20000008871E+01 0.  0.
        -13    1    3    3    0    0  0.15500493744E+02  0.27365696889E+02  0.73454515843E+02  0.79904466297E+02  0.10566000000E+00 0.  1.
         13    1    4    4    0    0 -0.71820047600E+01 -0.11670121418E+02  0.10411375838E+01  0.13742927555E+02  0.10566000000E+00 0. -1.
        -13    1    4    4    0    0 -0.43454182255E+01 -0.73556656361E+01  0.15083869777E+01  0.86761092555E+01  0.10566000000E+00 0.  1.
        -14    1    4    4    0    0 -0.39730707581E+01 -0.83399098353E+01  0.13252977508E+01  0.93325131362E+01  0.00000000000E+00 0.  1.
<mgrwt>
<rscale>  0 0.80543401E+02</rscale>
<asrwt>0</asrwt>
<pdfrwt beam="1">  1        2 0.26405136E-02 0.80543401E+02</pdfrwt>
<pdfrwt beam="2">  1       -1 0.14537335E-01 0.80543401E+02</pdfrwt>
<totfact> 0.11796281E+05</totfact>
</mgrwt>
</event>
<event>
 8    1  0.7667702E-014  0.8092818E+02  0.7818608E-02  0.1326438E+00
          2   -1    0    0  501    0  0.00000000000E+00  0.00000000000E+00  0.77115002880E+03  0.77115002881E+03  0.25500000000E-02 0. -1.
         -1   -1    0    0    0  501 -0.00000000000E+00 -0.00000000000E+00 -0.21232445833E+01  0.21232505651E+01  0.50400000000E-02 0.  1.
         24    2    1    2    0    0  0.00000000000E+00 -0.44408920985E-15  0.76902678422E+03  0.77327327937E+03  0.80928176452E+02 0.  0.
         66    2    3    3    0    0  0.25301342045E+02 -0.33193329560E+01  0.68450258792E+03  0.68498099882E+03  0.19999995684E+01 0.  0.
        -13    1    3    3    0    0 -0.25301342045E+02  0.33193329560E+01  0.84524196301E+02  0.88292280551E+02  0.10566000000E+00 0.  1.
         13    1    4    4    0    0  0.55093373470E+01 -0.40598863429E+00  0.13484060124E+03  0.13495375701E+03  0.10566000000E+00 0. -1.
        -13    1    4    4    0    0  0.19133300554E+02 -0.25947577842E+01  0.52843292321E+03  0.52878557228E+03  0.10566000000E+00 0.  1.
        -14    1    4    4    0    0  0.65870414376E+00 -0.31858653751E+00  0.21229063472E+02  0.21241669530E+02  0.00000000000E+00 0.  1.
<mgrwt>
<rscale>  0 0.80928176E+02</rscale>
<asrwt>0</asrwt>
<pdfrwt beam="1">  1        2 0.11863839E+00 0.80928176E+02</pdfrwt>
<pdfrwt beam="2">  1       -1 0.32665368E-03 0.80928176E+02</pdfrwt>
<totfact> 0.33129383E+05</totfact>
</mgrwt>
</event>
<event>
 8    1  0.7667702E-014  0.8447730E+02  0.7818608E-02  0.1316805E+00
          2   -1    0    0  501    0  0.00000000000E+00  0.00000000000E+00  0.60710701487E+03  0.60710701488E+03  0.25500000000E-02 0. -1.
         -1   -1    0    0    0  501 -0.00000000000E+00 -0.00000000000E+00 -0.29386949817E+01  0.29386993036E+01  0.50400000000E-02 0.  1.
         24    2    1    2    0    0  0.35527136788E-14  0.17763568394E-14  0.60416831989E+03  0.61004571418E+03  0.84477302463E+02 0.  0.
         66    2    3    3    0    0  0.20159627192E+02  0.15915018279E+02  0.54418662602E+03  0.54479609243E+03  0.20000026144E+01 0.  0.
        -13    1    3    3    0    0 -0.20159627192E+02 -0.15915018279E+02  0.59981693872E+02  0.65249621755E+02  0.10566000000E+00 0.  1.
         13    1    4    4    0    0  0.34042035872E+01  0.28466573217E+01  0.88835127094E+02  0.88945955669E+02  0.10566000000E+00 0. -1.
        -13    1    4    4    0    0  0.86346155376E+01  0.77935575038E+01  0.24847980754E+03  0.24875192872E+03  0.10566000000E+00 0.  1.
         14    1    4    4    0    0  0.81208080670E+01  0.52748034533E+01  0.20687169138E+03  0.20709820803E+03  0.00000000000E+00 0. -1.
<mgrwt>
<rscale>  0 0.84477302E+02</rscale>
<asrwt>0</asrwt>
<pdfrwt beam="1">  1        2 0.93401096E-01 0.84477302E+02</pdfrwt>
<pdfrwt beam="2">  1       -1 0.45210717E-03 0.84477302E+02</pdfrwt>
<totfact> 0.27994825E+05</totfact>
</mgrwt>
</event>
<event>
 8    1  0.7667702E-014  0.7777617E+02  0.7818608E-02  0.1335483E+00
         -1   -1    0    0    0  501 -0.00000000000E+00  0.00000000000E+00  0.39059878234E+01  0.39059910750E+01  0.50400000000E-02 0.  1.
          2   -1    0    0  501    0  0.00000000000E+00 -0.00000000000E+00 -0.38717026838E+03  0.38717026839E+03  0.25500000000E-02 0. -1.
         24    2    1    2    0    0  0.17763568394E-14  0.35527136788E-14 -0.38326428056E+03  0.39107625947E+03  0.77776165793E+02 0.  0.
         66    2    3    3    0    0 -0.14798210462E+02  0.29253962797E+02 -0.29669035967E+03  0.29850284906E+03  0.20000007838E+01 0.  0.
        -13    1    3    3    0    0  0.14798210462E+02 -0.29253962797E+02 -0.86573920888E+02  0.92573410406E+02  0.10566000000E+00 0.  1.
         13    1    4    4    0    0 -0.67787842773E+01  0.15080442717E+02 -0.15416890880E+03  0.15505300795E+03  0.10566000000E+00 0. -1.
        -13    1    4    4    0    0 -0.69928833681E+01  0.11983308995E+02 -0.12165329876E+03  0.12244197146E+03  0.10566000000E+00 0.  1.
        -14    1    4    4    0    0 -0.10265428166E+01  0.21902110849E+01 -0.20868152112E+02  0.21007869652E+02  0.00000000000E+00 0.  1.
<mgrwt>
<rscale>  0 0.77776166E+02</rscale>
<asrwt>0</asrwt>
<pdfrwt beam="1">  1        2 0.59564626E-01 0.77776166E+02</pdfrwt>
<pdfrwt beam="2">  1       -1 0.60092176E-03 0.77776166E+02</pdfrwt>
<totfact> 0.30064496E+05</totfact>
</mgrwt>
</event>
<event>
 8    1  0.7667702E-014  0.7945401E+02  0.7818608E-02  0.1330608E+00
          2   -1    0    0  501    0  0.00000000000E+00  0.00000000000E+00  0.22148548691E+03  0.22148548693E+03  0.25500000000E-02 0. -1.
         -1   -1    0    0    0  501 -0.00000000000E+00 -0.00000000000E+00 -0.71256799547E+01  0.71256817371E+01  0.50400000000E-02 0.  1.
         24    2    1    2    0    0  0.00000000000E+00  0.00000000000E+00  0.21435980696E+03  0.22861116867E+03  0.79454009333E+02 0.  0.
         66    2    3    3    0    0 -0.32231047413E+02 -0.66444564486E+01  0.17114913103E+03  0.17429576664E+03  0.19999994832E+01 0.  0.
        -13    1    3    3    0    0  0.32231047413E+02  0.66444564486E+01  0.43210675934E+02  0.54315402029E+02  0.10566000000E+00 0.  1.
         13    1    4    4    0    0 -0.12342837022E+02 -0.29266042262E+01  0.63598781469E+02  0.64851575204E+02  0.10566000000E+00 0.  1.
        -13    1    4    4    0    0 -0.63471160660E+01 -0.83856201228E+00  0.31533767161E+02  0.32177301067E+02  0.10566000000E+00 0. -1.
         14    1    4    4    0    0 -0.13541094326E+02 -0.28792902101E+01  0.76016582396E+02  0.77266890366E+02  0.00000000000E+00 0. -1.
<mgrwt>
<rscale>  0 0.79454009E+02</rscale>
<asrwt>0</asrwt>
<pdfrwt beam="1">  1        2 0.34074693E-01 0.79454009E+02</pdfrwt>
<pdfrwt beam="2">  1       -1 0.10962585E-02 0.79454009E+02</pdfrwt>
<totfact> 0.23277466E+05</totfact>
</mgrwt>
</event>
<event>
 8    1  0.7667702E-014  0.8203019E+02  0.7818608E-02  0.1323387E+00
         -1   -1    0    0    0  501 -0.00000000000E+00  0.00000000000E+00  0.17226907995E+01  0.17226981721E+01  0.50400000000E-02 0.  1.
          2   -1    0    0  501    0  0.00000000000E+00 -0.00000000000E+00 -0.97651558960E+03  0.97651558961E+03  0.25500000000E-02 0. -1.
         24    2    1    2    0    0  0.00000000000E+00  0.00000000000E+00 -0.97479289880E+03  0.97823828778E+03  0.82030190283E+02 0.  0.
         66    2    3    3    0    0 -0.19346299689E+02 -0.11774286091E+02 -0.89512745632E+03  0.89541614693E+03  0.20000000168E+01 0.  0.
        -13    1    3    3    0    0  0.19346299689E+02  0.11774286091E+02 -0.79665442484E+02  0.82822140849E+02  0.10566000000E+00 0.  1.
         13    1    4    4    0    0 -0.11994013233E+02 -0.79205391182E+01 -0.59518326087E+03  0.59535679763E+03  0.10566000000E+00 0. -1.
        -13    1    4    4    0    0 -0.28451387158E+01 -0.16319358291E+01 -0.11318431134E+03  0.11323187505E+03  0.10566000000E+00 0.  1.
         14    1    4    4    0    0 -0.45071477406E+01 -0.22218111437E+01 -0.18675988410E+03  0.18682747425E+03  0.00000000000E+00 0. -1.
<mgrwt>
<rscale>  0 0.82030190E+02</rscale>
<asrwt>0</asrwt>
<pdfrwt beam="1">  1        2 0.15023273E+00 0.82030190E+02</pdfrwt>
<pdfrwt beam="2">  1       -1 0.26503070E-03 0.82030190E+02</pdfrwt>
<totfact> 0.32969815E+05</totfact>
</mgrwt>
</event>
<event>
 8    1  0.7667702E-014  0.7772375E+02  0.7818608E-02  0.1335638E+00
         -1   -1    0    0    0  501 -0.00000000000E+00  0.00000000000E+00  0.19366863889E+01  0.19366929469E+01  0.50400000000E-02 0.  1.
          2   -1    0    0  501    0  0.00000000000E+00 -0.00000000000E+00 -0.77980754232E+03  0.77980754232E+03  0.25500000000E-02 0. -1.
         24    2    1    2    0    0  0.00000000000E+00  0.00000000000E+00 -0.77787085593E+03  0.78174423527E+03  0.77723747160E+02 0.  0.
         66    2    3    3    0    0 -0.12138646895E+02  0.13103935163E+02 -0.73603675760E+03  0.73625618396E+03  0.20000024381E+01 0.  0.
        -13    1    3    3    0    0  0.12138646895E+02 -0.13103935163E+02 -0.41834098325E+02  0.45488051309E+02  0.10566000000E+00 0.  1.
         13    1    4    4    0    0 -0.20499739568E+01  0.19358562171E+01 -0.12472941124E+03  0.12476132063E+03  0.10566000000E+00 0. -1.
        -13    1    4    4    0    0 -0.80496280081E+01  0.97954515924E+01 -0.51794954881E+03  0.51810471302E+03  0.10566000000E+00 0.  1.
        -14    1    4    4    0    0 -0.20390449303E+01  0.13726273536E+01 -0.93357797555E+02  0.93390150307E+02  0.00000000000E+00 0.  1.
<mgrwt>
<rscale>  0 0.77723747E+02</rscale>
<asrwt>0</asrwt>
<pdfrwt beam="1">  1        2 0.11997014E+00 0.77723747E+02</pdfrwt>
<pdfrwt beam="2">  1       -1 0.29795288E-03 0.77723747E+02</pdfrwt>
<totfact> 0.36869256E+05</totfact>
</mgrwt>
</event>
<event>
 8    1  0.7667702E-014  0.8090084E+02  0.7818608E-02  0.1326514E+00
          2   -1    0    0  501    0  0.00000000000E+00  0.00000000000E+00  0.82053191766E+03  0.82053191767E+03  0.25500000000E-02 0. -1.
         -1   -1    0    0    0  501 -0.00000000000E+00 -0.00000000000E+00 -0.19941133711E+01  0.19941197402E+01  0.50400000000E-02 0.  1.
         24    2    1    2    0    0  0.44408920985E-15  0.00000000000E+00  0.81853780429E+03  0.82252603741E+03  0.80900835334E+02 0.  0.
         66    2    3    3    0    0  0.28596296523E+01  0.11877591867E+02  0.80131114105E+03  0.80140676278E+03  0.19999971719E+01 0.  0.
        -13    1    3    3    0    0 -0.28596296523E+01 -0.11877591867E+02  0.17226663244E+02  0.21119274629E+02  0.10566000000E+00 0.  1.
         13    1    4    4    0    0  0.14970212016E+01  0.52002098521E+01  0.34168138766E+03  0.34172425301E+03  0.10566000000E+00 0. -1.
        -13    1    4    4    0    0  0.78620482578E+00  0.11531805552E+01  0.10294517730E+03  0.10295469216E+03  0.10566000000E+00 0.  1.
        -14    1    4    4    0    0  0.57640362492E+00  0.55242014594E+01  0.35668457609E+03  0.35672781762E+03  0.00000000000E+00 0.  1.
<mgrwt>
<rscale>  0 0.80900835E+02</rscale>
<asrwt>0</asrwt>
<pdfrwt beam="1">  1        2 0.12623581E+00 0.80900835E+02</pdfrwt>
<pdfrwt beam="2">  1       -1 0.30678684E-03 0.80900835E+02</pdfrwt>
<totfact> 0.33520982E+05</totfact>
</mgrwt>
</event>
<event>
 8    1  0.7667702E-014  0.8026678E+02  0.7818608E-02  0.1328296E+00
          2   -1    0    0  501    0  0.00000000000E+00  0.00000000000E+00  0.10741678428E+02  0.10741678730E+02  0.25500000000E-02 0. -1.
         -1   -1    0    0    0  501 -0.00000000000E+00 -0.00000000000E+00 -0.14994760019E+03  0.14994760027E+03  0.50400000000E-02 0.  1.
         24    2    1    2    0    0 -0.71054273576E-14  0.00000000000E+00 -0.13920592176E+03  0.16068927900E+03  0.80266778517E+02 0.  0.
         66    2    3    3    0    0 -0.33758145800E+02  0.13561284743E+02 -0.10345236140E+03  0.10968095523E+03  0.20000022451E+01 0.  0.
        -13    1    3    3    0    0  0.33758145800E+02 -0.13561284743E+02 -0.35753560361E+02  0.51008323774E+02  0.10566000000E+00 0.  1.
         13    1    4    4    0    0 -0.10905792330E+02  0.39082970210E+01 -0.32050656279E+02  0.34080299645E+02  0.10566000000E+00 0. -1.
        -13    1    4    4    0    0 -0.13045614530E+02  0.61889528894E+01 -0.40797244011E+02  0.43277216630E+02  0.10566000000E+00 0.  1.
        -14    1    4    4    0    0 -0.98067389397E+01  0.34640348331E+01 -0.30604461112E+02  0.32323438955E+02  0.00000000000E+00 0.  1.
<mgrwt>
<rscale>  0 0.80266779E+02</rscale>
<asrwt>0</asrwt>
<pdfrwt beam="1">  1        2 0.16525660E-02 0.80266779E+02</pdfrwt>
<pdfrwt beam="2">  1       -1 0.23068860E-01 0.80266779E+02</pdfrwt>
<totfact> 0.10697823E+05</totfact>
</mgrwt>
</event>
<event>
 8    1  0.7667702E-014  0.7628825E+02  0.7818608E-02  0.1339928E+00
          2   -1    0    0  501    0  0.00000000000E+00  0.00000000000E+00  0.60546067691E+02  0.60546067745E+02  0.25500000000E-02 0. -1.
         -1   -1    0    0    0  501 -0.00000000000E+00 -0.00000000000E+00 -0.24030865696E+02  0.24030866225E+02  0.50400000000E-02 0.  1.
         24    2    1    2    0    0 -0.35527136788E-14 -0.22204460493E-15  0.36515201995E+02  0.84576933970E+02  0.76288254555E+02 0.  0.
         66    2    3    3    0    0  0.24768716989E+02  0.16961455862E+01  0.50336797842E+02  0.56161904023E+02  0.19999988397E+01 0.  0.
        -13    1    3    3    0    0 -0.24768716989E+02 -0.16961455862E+01 -0.13821595847E+02  0.28415029947E+02  0.10566000000E+00 0.  1.
         13    1    4    4    0    0  0.11735317747E+02  0.13087665625E+01  0.24737881217E+02  0.27411758128E+02  0.10566000000E+00 0. -1.
        -13    1    4    4    0    0  0.45770387944E+01 -0.22010667699E+00  0.81468185412E+01  0.93477027902E+01  0.10566000000E+00 0.  1.
         14    1    4    4    0    0  0.84563604468E+01  0.60748570071E+00  0.17452098084E+02  0.19402443104E+02  0.00000000000E+00 0. -1.
<mgrwt>
<rscale>  0 0.76288255E+02</rscale>
<asrwt>0</asrwt>
<pdfrwt beam="1">  1        2 0.93147795E-02 0.76288255E+02</pdfrwt>
<pdfrwt beam="2">  1       -1 0.36970564E-02 0.76288255E+02</pdfrwt>
<totfact> 0.17743132E+05</totfact>
</mgrwt>
</event>
<event>
 8    1  0.7667702E-014  0.7980041E+02  0.7818608E-02  0.1329619E+00
          2   -1    0    0  501    0  0.00000000000E+00  0.00000000000E+00  0.41126664527E+02  0.41126664606E+02  0.25500000000E-02 0. -1.
         -1   -1    0    0    0  501 -0.00000000000E+00 -0.00000000000E+00 -0.38710317834E+02  0.38710318162E+02  0.50400000000E-02 0.  1.
         24    2    1    2    0    0  0.00000000000E+00  0.17763568394E-14  0.24163466924E+01  0.79836982768E+02  0.79800407807E+02 0.  0.
         66    2    3    3    0    0  0.37769513944E+02 -0.12227034129E+02  0.49502655646E+01  0.40056730682E+02  0.19999991633E+01 0.  0.
        -13    1    3    3    0    0 -0.37769513944E+02  0.12227034129E+02 -0.25339188722E+01  0.39780252086E+02  0.10566000000E+00 0.  1.
         13    1    4    4    0    0  0.28163997386E+02 -0.87553462143E+01  0.42397196441E+01  0.29796865989E+02  0.10566000000E+00 0. -1.
        -13    1    4    4    0    0  0.52875473674E+01 -0.19502269155E+01  0.70539989038E-01  0.56371696897E+01  0.10566000000E+00 0.  1.
        -14    1    4    4    0    0  0.43179691906E+01 -0.15214609991E+01  0.64000593150E+00  0.46226950035E+01  0.00000000000E+00 0.  1.
<mgrwt>
<rscale>  0 0.79800408E+02</rscale>
<asrwt>0</asrwt>
<pdfrwt beam="1">  1        2 0.63271792E-02 0.79800408E+02</pdfrwt>
<pdfrwt beam="2">  1       -1 0.59554336E-02 0.79800408E+02</pdfrwt>
<totfact> 0.14436291E+05</totfact>
</mgrwt>
</event>
<event>
 8    1  0.7667702E-014  0.8022823E+02  0.7818608E-02  0.1328405E+00
          2   -1    0    0  501    0  0.00000000000E+00  0.00000000000E+00  0.11023531593E+04  0.11023531593E+04  0.25500000000E-02 0. -1.
         -1   -1    0    0    0  501 -0.00000000000E+00 -0.00000000000E+00 -0.14597293355E+01  0.14597380362E+01  0.50400000000E-02 0.  1.
         24    2    1    2    0    0  0.00000000000E+00  0.00000000000E+00  0.11008934299E+04  0.11038128973E+04  0.80228225664E+02 0.  0.
         66    2    3    3    0    0 -0.15034303572E+02 -0.65038090744E+01  0.10542041744E+04  0.10543333302E+04  0.19999994681E+01 0.  0.
        -13    1    3    3    0    0  0.15034303572E+02  0.65038090744E+01  0.46689255508E+02  0.49479567099E+02  0.10566000000E+00 0.  1.
         13    1    4    4    0    0 -0.37766230734E+01 -0.17116682871E+01  0.30675433261E+03  0.30678237308E+03  0.10566000000E+00 0. -1.
        -13    1    4    4    0    0 -0.14430252812E+01 -0.93058386273E+00  0.88569441790E+02  0.88586147288E+02  0.10566000000E+00 0.  1.
        -14    1    4    4    0    0 -0.98146552170E+01 -0.38615569246E+01  0.65888040003E+03  0.65896480985E+03  0.00000000000E+00 0.  1.
<mgrwt>
<rscale>  0 0.80228226E+02</rscale>
<asrwt>0</asrwt>
<pdfrwt beam="1">  1        2 0.16959217E+00 0.80228226E+02</pdfrwt>
<pdfrwt beam="2">  1       -1 0.22457523E-03 0.80228226E+02</pdfrwt>
<totfact> 0.34989680E+05</totfact>
</mgrwt>
</event>
<event>
 8    1  0.7667702E-014  0.7843219E+02  0.7818608E-02  0.1333560E+00
          2   -1    0    0  501    0  0.00000000000E+00  0.00000000000E+00  0.51151565768E+03  0.51151565769E+03  0.25500000000E-02 0. -1.
         -1   -1    0    0    0  501 -0.00000000000E+00 -0.00000000000E+00 -0.30065573054E+01  0.30065615298E+01  0.50400000000E-02 0.  1.
         24    2    1    2    0    0  0.17763568394E-14  0.00000000000E+00  0.50850910038E+03  0.51452221922E+03  0.78432193029E+02 0.  0.
         66    2    3    3    0    0 -0.10967275351E+02  0.31040553571E+02  0.39390428906E+03  0.39528266607E+03  0.20000147827E+01 0.  0.
        -13    1    3    3    0    0  0.10967275351E+02 -0.31040553571E+02  0.11460481132E+03  0.11923955315E+03  0.10566000000E+00 0.  1.
         13    1    4    4    0    0 -0.20382480314E+01  0.70797859711E+01  0.94306375275E+02  0.94593770440E+02  0.10566000000E+00 0. -1.
        -13    1    4    4    0    0 -0.15346937299E+01  0.37675866226E+01  0.43790746629E+02  0.43979434378E+02  0.10566000000E+00 0.  1.
         14    1    4    4    0    0 -0.73943335898E+01  0.20193180977E+02  0.25580716716E+03  0.25670946125E+03  0.00000000000E+00 0. -1.
<mgrwt>
<rscale>  0 0.78432193E+02</rscale>
<asrwt>0</asrwt>
<pdfrwt beam="1">  1        2 0.78694634E-01 0.78432193E+02</pdfrwt>
<pdfrwt beam="2">  1       -1 0.46254809E-03 0.78432193E+02</pdfrwt>
<totfact> 0.32293267E+05</totfact>
</mgrwt>
</event>
<event>
 8    1  0.7667702E-014  0.8108244E+02  0.7818608E-02  0.1326007E+00
         -1   -1    0    0    0  501 -0.00000000000E+00  0.00000000000E+00  0.20609515120E+02  0.20609515737E+02  0.50400000000E-02 0.  1.
          2   -1    0    0  501    0  0.00000000000E+00 -0.00000000000E+00 -0.79749118961E+02  0.79749119001E+02  0.25500000000E-02 0. -1.
         24    2    1    2    0    0  0.00000000000E+00  0.00000000000E+00 -0.59139603840E+02  0.10035863474E+03  0.81082444611E+02 0.  0.
         66    2    3    3    0    0  0.14286335440E+02  0.36788660077E+02 -0.40937234806E+02  0.56897821434E+02  0.19999999476E+01 0.  0.
        -13    1    3    3    0    0 -0.14286335440E+02 -0.36788660077E+02 -0.18202369034E+02  0.43460813304E+02  0.10566000000E+00 0.  1.
         13    1    4    4    0    0  0.55728355998E+01  0.13036920697E+02 -0.14719854291E+02  0.20437785405E+02  0.10566000000E+00 0. -1.
        -13    1    4    4    0    0  0.66169539446E+01  0.17669293375E+02 -0.20376890225E+02  0.27770790899E+02  0.10566000000E+00 0.  1.
        -14    1    4    4    0    0  0.20965458958E+01  0.60824460057E+01 -0.58404902896E+01  0.86892451299E+01  0.00000000000E+00 0.  1.
<mgrwt>
<rscale>  0 0.81082445E+02</rscale>
<asrwt>0</asrwt>
<pdfrwt beam="1">  1        2 0.12269095E-01 0.81082445E+02</pdfrwt>
<pdfrwt beam="2">  1       -1 0.31706947E-02 0.81082445E+02</pdfrwt>
<totfact> 0.16088034E+05</totfact>
</mgrwt>
</event>
<event>
 8    1  0.7667702E-014  0.8046490E+02  0.7818608E-02  0.1327737E+00
          2   -1    0    0  501    0  0.00000000000E+00  0.00000000000E+00  0.19112647519E+03  0.19112647520E+03  0.25500000000E-02 0. -1.
         -1   -1    0    0    0  501 -0.00000000000E+00 -0.00000000000E+00 -0.84689982345E+01  0.84689997342E+01  0.50400000000E-02 0.  1.
         24    2    1    2    0    0 -0.71054273576E-14  0.00000000000E+00  0.18265747695E+03  0.19959547494E+03  0.80464897496E+02 0.  0.
         66    2    3    3    0    0  0.34155815015E+02  0.20513192093E+02  0.77973114486E+02  0.87585485837E+02  0.19999994112E+01 0.  0.
        -13    1    3    3    0    0 -0.34155815015E+02 -0.20513192093E+02  0.10468436247E+03  0.11200998910E+03  0.10566000000E+00 0.  1.
         13    1    4    4    0    0  0.35864442399E+01  0.22718908221E+01  0.84967332711E+01  0.94989320720E+01  0.10566000000E+00 0. -1.
        -13    1    4    4    0    0  0.19428122019E+02  0.12408275652E+02  0.43822428433E+02  0.49515993656E+02  0.10566000000E+00 0.  1.
        -14    1    4    4    0    0  0.11141248756E+02  0.58330256184E+01  0.25653952781E+02  0.28570560110E+02  0.00000000000E+00 0.  1.
<mgrwt>
<rscale>  0 0.80464897E+02</rscale>
<asrwt>0</asrwt>
<pdfrwt beam="1">  1        2 0.29404071E-01 0.80464897E+02</pdfrwt>
<pdfrwt beam="2">  1       -1 0.13029230E-02 0.80464897E+02</pdfrwt>
<totfact> 0.21385318E+05</totfact>
</mgrwt>
</event>
<event>
 8    1  0.7667702E-014  0.7771460E+02  0.7818608E-02  0.1335665E+00
         -1   -1    0    0    0  501 -0.00000000000E+00  0.00000000000E+00  0.32165179958E+01  0.32165219444E+01  0.50400000000E-02 0.  1.
          2   -1    0    0  501    0  0.00000000000E+00 -0.00000000000E+00 -0.46941719003E+03  0.46941719003E+03  0.25500000000E-02 0. -1.
         24    2    1    2    0    0  0.00000000000E+00  0.00000000000E+00 -0.46620067203E+03  0.47263371198E+03  0.77714600275E+02 0.  0.
         66    2    3    3    0    0 -0.24087796501E+02  0.15361330026E+02 -0.39320220711E+03  0.39424379269E+03  0.20000003526E+01 0.  0.
        -13    1    3    3    0    0  0.24087796501E+02 -0.15361330026E+02 -0.72998464920E+02  0.78389919283E+02  0.10566000000E+00 0.  1.
         13    1    4    4    0    0 -0.89159809248E+00  0.81698598042E+00 -0.16594658227E+02  0.16638998135E+02  0.10566000000E+00 0. -1.
        -13    1    4    4    0    0 -0.44732276365E+01  0.29706772238E+01 -0.82617661375E+02  0.82792051695E+02  0.10566000000E+00 0.  1.
         14    1    4    4    0    0 -0.18722970772E+02  0.11573666822E+02 -0.29398988751E+03  0.29481274286E+03  0.00000000000E+00 0. -1.
<mgrwt>
<rscale>  0 0.77714600E+02</rscale>
<asrwt>0</asrwt>
<pdfrwt beam="1">  1        2 0.72217975E-01 0.77714600E+02</pdfrwt>
<pdfrwt beam="2">  1       -1 0.49484960E-03 0.77714600E+02</pdfrwt>
<totfact> 0.32173624E+05</totfact>
</mgrwt>
</event>
<event>
 8    1  0.7667702E-014  0.7473062E+02  0.7818608E-02  0.1344707E+00
         -1   -1    0    0    0  501 -0.00000000000E+00  0.00000000000E+00  0.91083095247E+01  0.91083109191E+01  0.50400000000E-02 0.  1.
          2   -1    0    0  501    0  0.00000000000E+00 -0.00000000000E+00 -0.15328488807E+03  0.15328488810E+03  0.25500000000E-02 0. -1.
         24    2    1    2    0    0 -0.71054273576E-14  0.55511151231E-16 -0.14417657855E+03  0.16239319901E+03  0.74730618115E+02 0.  0.
         66    2    3    3    0    0  0.37224023316E+02 -0.30111607369E+00 -0.78453916277E+02  0.86860437362E+02  0.20000041921E+01 0.  0.
        -13    1    3    3    0    0 -0.37224023316E+02  0.30111607369E+00 -0.65722662272E+02  0.75532761652E+02  0.10566000000E+00 0.  1.
         13    1    4    4    0    0  0.19426185712E+02  0.41042851432E+00 -0.42030099869E+02  0.46304271962E+02  0.10566000000E+00 0.  1.
        -13    1    4    4    0    0  0.10129484050E+02 -0.24444368383E+00 -0.19759419956E+02  0.22206126201E+02  0.10566000000E+00 0. -1.
        -14    1    4    4    0    0  0.76683535529E+01 -0.46710090418E+00 -0.16664396452E+02  0.18350039198E+02  0.00000000000E+00 0.  1.
<mgrwt>
<rscale>  0 0.74730618E+02</rscale>
<asrwt>0</asrwt>
<pdfrwt beam="1">  1        2 0.23582289E-01 0.74730618E+02</pdfrwt>
<pdfrwt beam="2">  1       -1 0.14012786E-02 0.74730618E+02</pdfrwt>
<totfact> 0.24149039E+05</totfact>
</mgrwt>
</event>
<event>
 8    1  0.7667702E-014  0.7885695E+02  0.7818608E-02  0.1332327E+00
          2   -1    0    0  501    0  0.00000000000E+00  0.00000000000E+00  0.34484374774E+03  0.34484374775E+03  0.25500000000E-02 0. -1.
         -1   -1    0    0    0  501 -0.00000000000E+00 -0.00000000000E+00 -0.45081402823E+01  0.45081430996E+01  0.50400000000E-02 0.  1.
         24    2    1    2    0    0 -0.17763568394E-14  0.00000000000E+00  0.34033560746E+03  0.34935189085E+03  0.78856946024E+02 0.  0.
         66    2    3    3    0    0 -0.15826677594E+02  0.67661065602E+01  0.32730455444E+03  0.32776292542E+03  0.19999998082E+01 0.  0.
        -13    1    3    3    0    0  0.15826677594E+02 -0.67661065602E+01  0.13031053018E+02  0.21588965432E+02  0.10566000000E+00 0.  1.
         13    1    4    4    0    0 -0.79517145632E+00  0.32336936826E+00  0.17791263020E+02  0.17812272996E+02  0.10566000000E+00 0. -1.
        -13    1    4    4    0    0 -0.34159956601E+01  0.92986827024E+00  0.56532663371E+02  0.56643506893E+02  0.10566000000E+00 0.  1.
         14    1    4    4    0    0 -0.11615510477E+02  0.55128689217E+01  0.25298062805E+03  0.25330714553E+03  0.00000000000E+00 0. -1.
<mgrwt>
<rscale>  0 0.78856946E+02</rscale>
<asrwt>0</asrwt>
<pdfrwt beam="1">  1        2 0.53052895E-01 0.78856946E+02</pdfrwt>
<pdfrwt beam="2">  1       -1 0.69356012E-03 0.78856946E+02</pdfrwt>
<totfact> 0.27835102E+05</totfact>
</mgrwt>
</event>
<event>
 8    1  0.7667702E-014  0.7975651E+02  0.7818608E-02  0.1329744E+00
         -1   -1    0    0    0  501 -0.00000000000E+00  0.00000000000E+00  0.67480074787E+02  0.67480074975E+02  0.50400000000E-02 0.  1.
          2   -1    0    0  501    0  0.00000000000E+00 -0.00000000000E+00 -0.23566588340E+02  0.23566588478E+02  0.25500000000E-02 0. -1.
         24    2    1    2    0    0  0.35527136788E-14  0.00000000000E+00  0.43913486447E+02  0.91046663453E+02  0.79756508411E+02 0.  0.
         66    2    3    3    0    0 -0.17105919712E+02 -0.31554156895E+02  0.21983847568E+01  0.36015416151E+02  0.19999996150E+01 0.  0.
        -13    1    3    3    0    0  0.17105919712E+02  0.31554156895E+02  0.41715101690E+02  0.55031247302E+02  0.10566000000E+00 0.  1.
         13    1    4    4    0    0 -0.75032277930E+01 -0.12208845481E+02  0.12059356520E+01  0.14381230132E+02  0.10566000000E+00 0. -1.
        -13    1    4    4    0    0 -0.21361641818E+01 -0.37070753137E+01  0.32336166672E+00  0.42920078747E+01  0.10566000000E+00 0.  1.
        -14    1    4    4    0    0 -0.74665277372E+01 -0.15638236100E+02  0.66908743809E+00  0.17342178144E+02  0.00000000000E+00 0.  1.
<mgrwt>
<rscale>  0 0.79756508E+02</rscale>
<asrwt>0</asrwt>
<pdfrwt beam="1">  1        2 0.36256291E-02 0.79756508E+02</pdfrwt>
<pdfrwt beam="2">  1       -1 0.10381550E-01 0.79756508E+02</pdfrwt>
<totfact> 0.12941349E+05</totfact>
</mgrwt>
</event>
<event>
 8    1  0.7667702E-014  0.8124223E+02  0.7818608E-02  0.1325563E+00
          2   -1    0    0  501    0  0.00000000000E+00  0.00000000000E+00  0.19188622599E+03  0.19188622601E+03  0.25500000000E-02 0. -1.
         -1   -1    0    0    0  501 -0.00000000000E+00 -0.00000000000E+00 -0.85992356926E+01  0.85992371696E+01  0.50400000000E-02 0.  1.
         24    2    1    2    0    0  0.00000000000E+00  0.00000000000E+00  0.18328699030E+03  0.20048546318E+03  0.81242231216E+02 0.  0.
         66    2    3    3    0    0 -0.31135246497E+01 -0.40405601351E+02  0.97623222123E+02  0.10571944080E+03  0.20000019978E+01 0.  0.
        -13    1    3    3    0    0  0.31135246497E+01  0.40405601351E+02  0.85663768179E+02  0.94766022387E+02  0.10566000000E+00 0.  1.
         13    1    4    4    0    0 -0.13028887795E+01 -0.12563784840E+02  0.32647270317E+02  0.35005737128E+02  0.10566000000E+00 0. -1.
        -13    1    4    4    0    0 -0.12890266815E+01 -0.21707176210E+02  0.50726410364E+02  0.55190968113E+02  0.10566000000E+00 0.  1.
         14    1    4    4    0    0 -0.52160918872E+00 -0.61346403013E+01  0.14249541443E+02  0.15522735555E+02  0.00000000000E+00 0. -1.
<mgrwt>
<rscale>  0 0.81242231E+02</rscale>
<asrwt>0</asrwt>
<pdfrwt beam="1">  1        2 0.29520958E-01 0.81242231E+02</pdfrwt>
<pdfrwt beam="2">  1       -1 0.13229595E-02 0.81242231E+02</pdfrwt>
<totfact> 0.20877170E+05</totfact>
</mgrwt>
</event>
<event>
 8    1  0.7667702E-014  0.8127850E+02  0.7818608E-02  0.1325462E+00
          2   -1    0    0  501    0  0.00000000000E+00  0.00000000000E+00  0.54649319885E+02  0.54649319945E+02  0.25500000000E-02 0. -1.
         -1   -1    0    0    0  501 -0.00000000000E+00 -0.00000000000E+00 -0.30220845544E+02  0.30220845964E+02  0.50400000000E-02 0.  1.
         24    2    1    2    0    0  0.00000000000E+00 -0.17763568394E-14  0.24428474341E+02  0.84870165909E+02  0.81278500864E+02 0.  0.
         66    2    3    3    0    0 -0.51799368672E+01 -0.15547074802E+02  0.51025591986E+02  0.53629789601E+02  0.20000035671E+01 0.  0.
        -13    1    3    3    0    0  0.51799368672E+01  0.15547074802E+02 -0.26597117644E+02  0.31240376308E+02  0.10566000000E+00 0.  1.
         13    1    4    4    0    0 -0.18790434840E+01 -0.82368610684E+01  0.25066913276E+02  0.26452561121E+02  0.10566000000E+00 0. -1.
        -13    1    4    4    0    0 -0.14705794073E+01 -0.28748543078E+01  0.95754397851E+01  0.10105820214E+02  0.10566000000E+00 0.  1.
         14    1    4    4    0    0 -0.18303139760E+01 -0.44353594255E+01  0.16383238925E+02  0.17071408265E+02  0.00000000000E+00 0. -1.
<mgrwt>
<rscale>  0 0.81278501E+02</rscale>
<asrwt>0</asrwt>
<pdfrwt beam="1">  1        2 0.84075876E-02 0.81278501E+02</pdfrwt>
<pdfrwt beam="2">  1       -1 0.46493609E-02 0.81278501E+02</pdfrwt>
<totfact> 0.14592835E+05</totfact>
</mgrwt>
</event>
<event>
 8    1  0.7667702E-014  0.7897407E+02  0.7818608E-02  0.1331988E+00
          2   -1    0    0  501    0  0.00000000000E+00  0.00000000000E+00  0.13311681462E+03  0.13311681464E+03  0.25500000000E-02 0. -1.
         -1   -1    0    0    0  501 -0.00000000000E+00 -0.00000000000E+00 -0.11713214176E+02  0.11713215260E+02  0.50400000000E-02 0.  1.
         24    2    1    2    0    0  0.00000000000E+00  0.00000000000E+00  0.12140360044E+03  0.14483002990E+03  0.78974067650E+02 0.  0.
         66    2    3    3    0    0  0.16426896356E+02 -0.27876671536E+02  0.10216669584E+03  0.10718668517E+03  0.19999999309E+01 0.  0.
        -13    1    3    3    0    0 -0.16426896356E+02  0.27876671536E+02  0.19236904605E+02  0.37643344733E+02  0.10566000000E+00 0.  1.
         13    1    4    4    0    0  0.67908652848E+00 -0.11410106485E+01  0.34669683457E+01  0.37140405704E+01  0.10566000000E+00 0. -1.
        -13    1    4    4    0    0  0.17319323437E+01 -0.22573737222E+01  0.98147815995E+01  0.10219414252E+02  0.10566000000E+00 0.  1.
         14    1    4    4    0    0  0.14015877484E+02 -0.24478287165E+02  0.88884945892E+02  0.93253230348E+02  0.00000000000E+00 0. -1.
<mgrwt>
<rscale>  0 0.78974068E+02</rscale>
<asrwt>0</asrwt>
<pdfrwt beam="1">  1        2 0.20479510E-01 0.78974068E+02</pdfrwt>
<pdfrwt beam="2">  1       -1 0.18020330E-02 0.78974068E+02</pdfrwt>
<totfact> 0.19960604E+05</totfact>
</mgrwt>
</event>
<event>
 8    1  0.7667702E-014  0.8063996E+02  0.7818608E-02  0.1327245E+00
          2   -1    0    0  501    0  0.00000000000E+00  0.00000000000E+00  0.47965487406E+01  0.47965494184E+01  0.25500000000E-02 0. -1.
         -1   -1    0    0    0  501 -0.00000000000E+00 -0.00000000000E+00 -0.33893132752E+03  0.33893132756E+03  0.50400000000E-02 0.  1.
         24    2    1    2    0    0  0.71054273576E-14  0.17763568394E-14 -0.33413477878E+03  0.34372787698E+03  0.80639959204E+02 0.  0.
         66    2    3    3    0    0  0.39319111572E+02  0.80475038147E+01 -0.18250358672E+03  0.18687512941E+03  0.19999926154E+01 0.  0.
        -13    1    3    3    0    0 -0.39319111572E+02 -0.80475038147E+01 -0.15163119206E+03  0.15685274758E+03  0.10566000000E+00 0.  1.
         13    1    4    4    0    0  0.26940467708E+02  0.63705986175E+01 -0.12599005216E+03  0.12899565006E+03  0.10566000000E+00 0. -1.
        -13    1    4    4    0    0  0.55232220046E+01  0.70205919945E+00 -0.24222379184E+02  0.24854248848E+02  0.10566000000E+00 0.  1.
        -14    1    4    4    0    0  0.68554218596E+01  0.97484599769E+00 -0.32291155378E+02  0.33025230495E+02  0.00000000000E+00 0.  1.
<mgrwt>
<rscale>  0 0.80639959E+02</rscale>
<asrwt>0</asrwt>
<pdfrwt beam="1">  1        2 0.73793089E-03 0.80639959E+02</pdfrwt>
<pdfrwt beam="2">  1       -1 0.52143263E-01 0.80639959E+02</pdfrwt>
<totfact> 0.80397614E+04</totfact>
</mgrwt>
</event>
<event>
 8    1  0.7667702E-014  0.8035837E+02  0.7818608E-02  0.1328037E+00
          2   -1    0    0  501    0  0.00000000000E+00  0.00000000000E+00  0.17113316515E+02  0.17113316705E+02  0.25500000000E-02 0. -1.
         -1   -1    0    0    0  501 -0.00000000000E+00 -0.00000000000E+00 -0.94333959860E+02  0.94333959995E+02  0.50400000000E-02 0.  1.
         24    2    1    2    0    0  0.17763568394E-14 -0.35527136788E-14 -0.77220643345E+02  0.11144727670E+03  0.80358370598E+02 0.  0.
         66    2    3    3    0    0 -0.11209991463E+02  0.18509733764E+02  0.82761077111E+01  0.23254421219E+02  0.19999986928E+01 0.  0.
        -13    1    3    3    0    0  0.11209991463E+02 -0.18509733764E+02 -0.85496751056E+02  0.88192855480E+02  0.10566000000E+00 0.  1.
         13    1    4    4    0    0 -0.32373791955E+01  0.53678089998E+01  0.23803661513E+01  0.67060647599E+01  0.10566000000E+00 0. -1.
        -13    1    4    4    0    0 -0.65229393203E+01  0.93975133863E+01  0.45850719553E+01  0.12324611316E+02  0.10566000000E+00 0.  1.
        -14    1    4    4    0    0 -0.14496729471E+01  0.37444113783E+01  0.13106696044E+01  0.42237451433E+01  0.00000000000E+00 0.  1.
<mgrwt>
<rscale>  0 0.80358371E+02</rscale>
<asrwt>0</asrwt>
<pdfrwt beam="1">  1        2 0.26328180E-02 0.80358371E+02</pdfrwt>
<pdfrwt beam="2">  1       -1 0.14512917E-01 0.80358371E+02</pdfrwt>
<totfact> 0.11868144E+05</totfact>
</mgrwt>
</event>
<event>
 8    1  0.7667702E-014  0.8072269E+02  0.7818608E-02  0.1327013E+00
          2   -1    0    0  501    0  0.00000000000E+00  0.00000000000E+00  0.11757450707E+03  0.11757450710E+03  0.25500000000E-02 0. -1.
         -1   -1    0    0    0  501 -0.00000000000E+00 -0.00000000000E+00 -0.13855367598E+02  0.13855368515E+02  0.50400000000E-02 0.  1.
         24    2    1    2    0    0  0.00000000000E+00  0.00000000000E+00  0.10371913947E+03  0.13142987561E+03  0.80722687707E+02 0.  0.
         66    2    3    3    0    0 -0.28384247769E+02  0.16834920644E+02  0.89654678389E+02  0.95556482907E+02  0.19999985358E+01 0.  0.
        -13    1    3    3    0    0  0.28384247769E+02 -0.16834920644E+02  0.14064461083E+02  0.35873392704E+02  0.10566000000E+00 0.  1.
         13    1    4    4    0    0 -0.25631661151E+02  0.15415751916E+02  0.79615248690E+02  0.85048377107E+02  0.10566000000E+00 0. -1.
        -13    1    4    4    0    0 -0.24393384708E+01  0.13099813403E+01  0.88968903626E+01  0.93183821260E+01  0.10566000000E+00 0.  1.
         14    1    4    4    0    0 -0.31324814777E+00  0.10918738816E+00  0.11425393358E+01  0.11897236745E+01  0.00000000000E+00 0. -1.
<mgrwt>
<rscale>  0 0.80722688E+02</rscale>
<asrwt>0</asrwt>
<pdfrwt beam="1">  1        2 0.18088386E-01 0.80722688E+02</pdfrwt>
<pdfrwt beam="2">  1       -1 0.21315951E-02 0.80722688E+02</pdfrwt>
<totfact> 0.18132603E+05</totfact>
</mgrwt>
</event>
<event>
 8    1  0.7667702E-014  0.7930058E+02  0.7818608E-02  0.1331048E+00
         -1   -1    0    0    0  501 -0.00000000000E+00  0.00000000000E+00  0.16403583948E+01  0.16403661375E+01  0.50400000000E-02 0.  1.
          2   -1    0    0  501    0  0.00000000000E+00 -0.00000000000E+00 -0.95841351798E+03  0.95841351798E+03  0.25500000000E-02 0. -1.
         24    2    1    2    0    0  0.00000000000E+00  0.00000000000E+00 -0.95677315959E+03  0.96005388412E+03  0.79300577003E+02 0.  0.
         66    2    3    3    0    0  0.24153547295E+02 -0.11313034153E+02 -0.83346716138E+03  0.83389620918E+03  0.20000000237E+01 0.  0.
        -13    1    3    3    0    0 -0.24153547295E+02  0.11313034153E+02 -0.12330599821E+03  0.12615767494E+03  0.10566000000E+00 0.  1.
         13    1    4    4    0    0  0.18346983357E+02 -0.81288148354E+01 -0.63844730200E+03  0.63876259911E+03  0.10566000000E+00 0. -1.
        -13    1    4    4    0    0  0.12264978801E+01 -0.37405660941E+00 -0.35926516240E+02  0.35949547265E+02  0.10566000000E+00 0.  1.
         14    1    4    4    0    0  0.45800660572E+01 -0.28101627082E+01 -0.15909334314E+03  0.15918406280E+03  0.00000000000E+00 0. -1.
<mgrwt>
<rscale>  0 0.79300577E+02</rscale>
<asrwt>0</asrwt>
<pdfrwt beam="1">  1        2 0.14744779E+00 0.79300577E+02</pdfrwt>
<pdfrwt beam="2">  1       -1 0.25236419E-03 0.79300577E+02</pdfrwt>
<totfact> 0.35956806E+05</totfact>
</mgrwt>
</event>
<event>
 8    1  0.7667702E-014  0.8366206E+02  0.7818608E-02  0.1318969E+00
          2   -1    0    0  501    0  0.00000000000E+00  0.00000000000E+00  0.13601630540E+03  0.13601630543E+03  0.25500000000E-02 0. -1.
         -1   -1    0    0    0  501 -0.00000000000E+00 -0.00000000000E+00 -0.12864892322E+02  0.12864893309E+02  0.50400000000E-02 0.  1.
         24    2    1    2    0    0  0.00000000000E+00  0.00000000000E+00  0.12315141308E+03  0.14888119874E+03  0.83662063048E+02 0.  0.
         66    2    3    3    0    0  0.39072620072E+02  0.14687768519E+02  0.57464016703E+02  0.71052891609E+02  0.20000017623E+01 0.  0.
        -13    1    3    3    0    0 -0.39072620072E+02 -0.14687768519E+02  0.65687396378E+02  0.77828307128E+02  0.10566000000E+00 0.  1.
         13    1    4    4    0    0  0.32538520908E+02  0.12627830107E+02  0.47063823898E+02  0.58593789091E+02  0.10566000000E+00 0. -1.
        -13    1    4    4    0    0  0.47608271999E+01  0.16155050514E+01  0.74431410660E+01  0.89825856613E+01  0.10566000000E+00 0.  1.
         14    1    4    4    0    0  0.17732719642E+01  0.44443336003E+00  0.29570517390E+01  0.34765168571E+01  0.00000000000E+00 0. -1.
<mgrwt>
<rscale>  0 0.83662063E+02</rscale>
<asrwt>0</asrwt>
<pdfrwt beam="1">  1        2 0.20925586E-01 0.83662063E+02</pdfrwt>
<pdfrwt beam="2">  1       -1 0.19792143E-02 0.83662063E+02</pdfrwt>
<totfact> 0.17233491E+05</totfact>
</mgrwt>
</event>
<event>
 8    1  0.7667702E-014  0.8290058E+02  0.7818608E-02  0.1321016E+00
          2   -1    0    0  501    0  0.00000000000E+00  0.00000000000E+00  0.17848679415E+03  0.17848679417E+03  0.25500000000E-02 0. -1.
         -1   -1    0    0    0  501 -0.00000000000E+00 -0.00000000000E+00 -0.96260698644E+01  0.96260711838E+01  0.50400000000E-02 0.  1.
         24    2    1    2    0    0  0.00000000000E+00  0.35527136788E-14  0.16886072429E+03  0.18811286536E+03  0.82900578435E+02 0.  0.
         66    2    3    3    0    0  0.28863351124E+02  0.29715663445E+02  0.84279200441E+02  0.93931343640E+02  0.19999997491E+01 0.  0.
        -13    1    3    3    0    0 -0.28863351124E+02 -0.29715663445E+02  0.84581523848E+02  0.94181521715E+02  0.10566000000E+00 0.  1.
         13    1    4    4    0    0  0.16832223189E+02  0.17915391372E+02  0.49120937285E+02  0.54928704967E+02  0.10566000000E+00 0. -1.
        -13    1    4    4    0    0  0.44772276282E+01  0.43887326271E+01  0.11938771471E+02  0.13485250075E+02  0.10566000000E+00 0.  1.
         14    1    4    4    0    0  0.75539003067E+01  0.74115394463E+01  0.23219491685E+02  0.25517388599E+02  0.00000000000E+00 0. -1.
<mgrwt>
<rscale>  0 0.82900578E+02</rscale>
<asrwt>0</asrwt>
<pdfrwt beam="1">  1        2 0.27459505E-01 0.82900578E+02</pdfrwt>
<pdfrwt beam="2">  1       -1 0.14809340E-02 0.82900578E+02</pdfrwt>
<totfact> 0.19303459E+05</totfact>
</mgrwt>
</event>
<event>
 8    1  0.7667702E-014  0.8054533E+02  0.7818608E-02  0.1327511E+00
          2   -1    0    0  501    0  0.00000000000E+00  0.00000000000E+00  0.12458279228E+03  0.12458279230E+03  0.25500000000E-02 0. -1.
         -1   -1    0    0    0  501 -0.00000000000E+00 -0.00000000000E+00 -0.13018550829E+02  0.13018551805E+02  0.50400000000E-02 0.  1.
         24    2    1    2    0    0  0.71054273576E-14  0.88817841970E-15  0.11156424145E+03  0.13760134411E+03  0.80545328421E+02 0.  0.
         66    2    3    3    0    0 -0.38188188353E+02 -0.41796973965E+01  0.35310627994E+02  0.52217315574E+02  0.19999990924E+01 0.  0.
        -13    1    3    3    0    0  0.38188188353E+02  0.41796973965E+01  0.76253613452E+02  0.85384028533E+02  0.10566000000E+00 0.  1.
         13    1    4    4    0    0 -0.25066517358E+02 -0.18576447435E+01  0.23500324838E+02  0.34410137576E+02  0.10566000000E+00 0. -1.
        -13    1    4    4    0    0 -0.70072116575E+01 -0.12315644475E+01  0.62093858382E+01  0.94438023447E+01  0.10566000000E+00 0.  1.
         14    1    4    4    0    0 -0.61144593367E+01 -0.10904882056E+01  0.56009173178E+01  0.83633756527E+01  0.00000000000E+00 0. -1.
<mgrwt>
<rscale>  0 0.80545328E+02</rscale>
<asrwt>0</asrwt>
<pdfrwt beam="1">  1        2 0.19166583E-01 0.80545328E+02</pdfrwt>
<pdfrwt beam="2">  1       -1 0.20028541E-02 0.80545328E+02</pdfrwt>
<totfact> 0.18559778E+05</totfact>
</mgrwt>
</event>
<event>
 8    1  0.7667702E-014  0.7916841E+02  0.7818608E-02  0.1331428E+00
         -1   -1    0    0    0  501 -0.00000000000E+00  0.00000000000E+00  0.24326614200E+01  0.24326666409E+01  0.50400000000E-02 0.  1.
          2   -1    0    0  501    0  0.00000000000E+00 -0.00000000000E+00 -0.64411255007E+03  0.64411255007E+03  0.25500000000E-02 0. -1.
         24    2    1    2    0    0  0.00000000000E+00  0.00000000000E+00 -0.64167988865E+03  0.64654521671E+03  0.79168413906E+02 0.  0.
         66    2    3    3    0    0  0.51657566592E+01 -0.21604060378E+02 -0.58836927649E+03  0.58879183586E+03  0.19999995946E+01 0.  0.
        -13    1    3    3    0    0 -0.51657566592E+01  0.21604060378E+02 -0.53310612161E+02  0.57753380851E+02  0.10566000000E+00 0.  1.
         13    1    4    4    0    0  0.33463685605E+01 -0.11124484223E+02 -0.31567298967E+03  0.31588668839E+03  0.10566000000E+00 0. -1.
        -13    1    4    4    0    0  0.18452568151E+01 -0.88363791216E+01 -0.22795085494E+03  0.22812954653E+03  0.10566000000E+00 0.  1.
        -14    1    4    4    0    0 -0.25868716377E-01 -0.16431970341E+01 -0.44745431872E+02  0.44775600935E+02  0.00000000000E+00 0.  1.
<mgrwt>
<rscale>  0 0.79168414E+02</rscale>
<asrwt>0</asrwt>
<pdfrwt beam="1">  1        2 0.99094103E-01 0.79168414E+02</pdfrwt>
<pdfrwt beam="2">  1       -1 0.37425652E-03 0.79168414E+02</pdfrwt>
<totfact> 0.33683560E+05</totfact>
</mgrwt>
</event>
<event>
 8    1  0.7667702E-014  0.8009874E+02  0.7818608E-02  0.1328771E+00
          2   -1    0    0  501    0  0.00000000000E+00  0.00000000000E+00  0.82583463017E+03  0.82583463018E+03  0.25500000000E-02 0. -1.
         -1   -1    0    0    0  501 -0.00000000000E+00 -0.00000000000E+00 -0.19422162133E+01  0.19422227526E+01  0.50400000000E-02 0.  1.
         24    2    1    2    0    0 -0.17763568394E-14  0.00000000000E+00  0.82389241396E+03  0.82777685293E+03  0.80098741972E+02 0.  0.
         66    2    3    3    0    0  0.10484855676E+02 -0.33154075217E+02  0.61702857693E+03  0.61801083295E+03  0.19999992693E+01 0.  0.
        -13    1    3    3    0    0 -0.10484855676E+02  0.33154075217E+02  0.20686383703E+03  0.20976601998E+03  0.10566000000E+00 0.  1.
         13    1    4    4    0    0  0.59393828600E+01 -0.20796965102E+02  0.38261486243E+03  0.38322569609E+03  0.10566000000E+00 0. -1.
        -13    1    4    4    0    0  0.41232879740E+01 -0.11808793289E+02  0.22155707213E+03  0.22190988369E+03  0.10566000000E+00 0.  1.
        -14    1    4    4    0    0  0.42218484166E+00 -0.54831682677E+00  0.12856642364E+02  0.12875253173E+02  0.00000000000E+00 0.  1.
<mgrwt>
<rscale>  0 0.80098742E+02</rscale>
<asrwt>0</asrwt>
<pdfrwt beam="1">  1        2 0.12705146E+00 0.80098742E+02</pdfrwt>
<pdfrwt beam="2">  1       -1 0.29880306E-03 0.80098742E+02</pdfrwt>
<totfact> 0.34435531E+05</totfact>
</mgrwt>
</event>
<event>
 8    1  0.7667702E-014  0.8445034E+02  0.7818608E-02  0.1316876E+00
         -1   -1    0    0    0  501 -0.00000000000E+00  0.00000000000E+00  0.65522189804E+01  0.65522209188E+01  0.50400000000E-02 0.  1.
          2   -1    0    0  501    0  0.00000000000E+00 -0.00000000000E+00 -0.27211617654E+03  0.27211617656E+03  0.25500000000E-02 0. -1.
         24    2    1    2    0    0 -0.17763568394E-14  0.00000000000E+00 -0.26556395756E+03  0.27866839747E+03  0.84450341588E+02 0.  0.
         66    2    3    3    0    0 -0.11505928341E+02 -0.16625248826E+02 -0.25508996078E+03  0.25589777917E+03  0.20000010651E+01 0.  0.
        -13    1    3    3    0    0  0.11505928341E+02  0.16625248826E+02 -0.10473996779E+02  0.22770618307E+02  0.10566000000E+00 0.  1.
         13    1    4    4    0    0 -0.41154300711E+01 -0.58968141203E+01 -0.99029607658E+02  0.99290400031E+02  0.10566000000E+00 0. -1.
        -13    1    4    4    0    0 -0.53343773367E+01 -0.69849970373E+01 -0.10114439090E+03  0.10152558663E+03  0.10566000000E+00 0.  1.
         14    1    4    4    0    0 -0.20561209336E+01 -0.37434376683E+01 -0.54915962225E+02  0.55081792509E+02  0.00000000000E+00 0. -1.
<mgrwt>
<rscale>  0 0.84450342E+02</rscale>
<asrwt>0</asrwt>
<pdfrwt beam="1">  1        2 0.41864018E-01 0.84450342E+02</pdfrwt>
<pdfrwt beam="2">  1       -1 0.10080341E-02 0.84450342E+02</pdfrwt>
<totfact> 0.21340370E+05</totfact>
</mgrwt>
</event>
<event>
 8    1  0.7667702E-014  0.7949709E+02  0.7818608E-02  0.1330485E+00
          2   -1    0    0  501    0  0.00000000000E+00  0.00000000000E+00  0.10288318757E+04  0.10288318757E+04  0.25500000000E-02 0. -1.
         -1   -1    0    0    0  501 -0.00000000000E+00 -0.00000000000E+00 -0.15356665664E+01  0.15356748369E+01  0.50400000000E-02 0.  1.
         24    2    1    2    0    0  0.00000000000E+00  0.00000000000E+00  0.10272962091E+04  0.10303675505E+04  0.79497093692E+02 0.  0.
         66    2    3    3    0    0 -0.91603578434E+01  0.22035917415E+02  0.92556505650E+03  0.92587481207E+03  0.20000009151E+01 0.  0.
        -13    1    3    3    0    0  0.91603578434E+01 -0.22035917415E+02  0.10173115260E+03  0.10449273843E+03  0.10566000000E+00 0.  1.
         13    1    4    4    0    0 -0.37259228194E+01  0.97275545092E+01  0.36974892343E+03  0.36989564117E+03  0.10566000000E+00 0. -1.
        -13    1    4    4    0    0 -0.10697026934E+01  0.28639589162E+01  0.12759623390E+03  0.12763289777E+03  0.10566000000E+00 0.  1.
         14    1    4    4    0    0 -0.43647323305E+01  0.94444039896E+01  0.42821989917E+03  0.42834627313E+03  0.00000000000E+00 0. -1.
<mgrwt>
<rscale>  0 0.79497094E+02</rscale>
<asrwt>0</asrwt>
<pdfrwt beam="1">  1        2 0.15828106E+00 0.79497094E+02</pdfrwt>
<pdfrwt beam="2">  1       -1 0.23625817E-03 0.79497094E+02</pdfrwt>
<totfact> 0.35844764E+05</totfact>
</mgrwt>
</event>
<event>
 8    1  0.7667702E-014  0.7784885E+02  0.7818608E-02  0.1335269E+00
          2   -1    0    0  501    0  0.00000000000E+00  0.00000000000E+00  0.96200783178E+03  0.96200783178E+03  0.25500000000E-02 0. -1.
         -1   -1    0    0    0  501 -0.00000000000E+00 -0.00000000000E+00 -0.15749425961E+01  0.15749506604E+01  0.50400000000E-02 0.  1.
         24    2    1    2    0    0 -0.17763568394E-14  0.00000000000E+00  0.96043288918E+03  0.96358278244E+03  0.77848853530E+02 0.  0.
         66    2    3    3    0    0  0.13919327779E+02 -0.21372495164E+02  0.84405828110E+03  0.84444592078E+03  0.20000000179E+01 0.  0.
        -13    1    3    3    0    0 -0.13919327779E+02  0.21372495164E+02  0.11637460808E+03  0.11913686166E+03  0.10566000000E+00 0.  1.
         13    1    4    4    0    0  0.47063612919E+01 -0.70495340968E+01  0.25868324854E+03  0.25882210108E+03  0.10566000000E+00 0. -1.
        -13    1    4    4    0    0  0.34854718056E+01 -0.52839514261E+01  0.19936640139E+03  0.19946689406E+03  0.10566000000E+00 0.  1.
         14    1    4    4    0    0  0.57274946817E+01 -0.90390096415E+01  0.38600863116E+03  0.38615692564E+03  0.00000000000E+00 0. -1.
<mgrwt>
<rscale>  0 0.77848854E+02</rscale>
<asrwt>0</asrwt>
<pdfrwt beam="1">  1        2 0.14800122E+00 0.77848854E+02</pdfrwt>
<pdfrwt beam="2">  1       -1 0.24229945E-03 0.77848854E+02</pdfrwt>
<totfact> 0.37730175E+05</totfact>
</mgrwt>
</event>
<event>
 8    1  0.7667702E-014  0.7937812E+02  0.7818608E-02  0.1330826E+00
         -1   -1    0    0    0  501 -0.00000000000E+00  0.00000000000E+00  0.60270978018E+01  0.60270999091E+01  0.50400000000E-02 0.  1.
          2   -1    0    0  501    0  0.00000000000E+00 -0.00000000000E+00 -0.26135648478E+03  0.26135648479E+03  0.25500000000E-02 0. -1.
         24    2    1    2    0    0  0.17763568394E-14  0.00000000000E+00 -0.25532938698E+03  0.26738358470E+03  0.79378117344E+02 0.  0.
         66    2    3    3    0    0  0.12562045065E+02  0.11353408542E+02 -0.24856605898E+03  0.24915013655E+03  0.20000015614E+01 0.  0.
        -13    1    3    3    0    0 -0.12562045065E+02 -0.11353408542E+02 -0.67633280002E+01  0.18233448150E+02  0.10566000000E+00 0.  1.
         13    1    4    4    0    0  0.24995727422E+01  0.21366096109E+01 -0.46794618360E+02  0.46910131486E+02  0.10566000000E+00 0. -1.
        -13    1    4    4    0    0  0.38936780720E+01  0.45848034093E+01 -0.94925164700E+02  0.95115609700E+02  0.10566000000E+00 0.  1.
        -14    1    4    4    0    0  0.61687942510E+01  0.46319955222E+01 -0.10684627592E+03  0.10712439536E+03  0.00000000000E+00 0.  1.
<mgrwt>
<rscale>  0 0.79378117E+02</rscale>
<asrwt>0</asrwt>
<pdfrwt beam="1">  1        2 0.40208681E-01 0.79378117E+02</pdfrwt>
<pdfrwt beam="2">  1       -1 0.92724619E-03 0.79378117E+02</pdfrwt>
<totfact> 0.24754935E+05</totfact>
</mgrwt>
</event>
<event>
 8    1  0.7667702E-014  0.8416423E+02  0.7818608E-02  0.1317633E+00
          2   -1    0    0  501    0  0.00000000000E+00  0.00000000000E+00  0.63548375668E+03  0.63548375669E+03  0.25500000000E-02 0. -1.
         -1   -1    0    0    0  501 -0.00000000000E+00 -0.00000000000E+00 -0.27867002893E+01  0.27867048469E+01  0.50400000000E-02 0.  1.
         24    2    1    2    0    0  0.00000000000E+00  0.00000000000E+00  0.63269705639E+03  0.63827046153E+03  0.84164225767E+02 0.  0.
         66    2    3    3    0    0  0.34987050803E+02 -0.21068301737E+02  0.39271561095E+03  0.39483859759E+03  0.20000004818E+01 0.  0.
        -13    1    3    3    0    0 -0.34987050803E+02  0.21068301737E+02  0.23998144545E+03  0.24343186395E+03  0.10566000000E+00 0.  1.
         13    1    4    4    0    0  0.13157157393E+02 -0.73712633506E+01  0.14940084993E+03  0.15016015263E+03  0.10566000000E+00 0. -1.
        -13    1    4    4    0    0  0.14307554360E+02 -0.90179279989E+01  0.16472578937E+03  0.16559174492E+03  0.10566000000E+00 0.  1.
        -14    1    4    4    0    0  0.75223390498E+01 -0.46791103878E+01  0.78588971646E+02  0.79086700040E+02  0.00000000000E+00 0.  1.
<mgrwt>
<rscale>  0 0.84164226E+02</rscale>
<asrwt>0</asrwt>
<pdfrwt beam="1">  1        2 0.97766705E-01 0.84164226E+02</pdfrwt>
<pdfrwt beam="2">  1       -1 0.42872359E-03 0.84164226E+02</pdfrwt>
<totfact> 0.28617846E+05</totfact>
</mgrwt>
</event>
<event>
 8    1  0.7667702E-014  0.7942644E+02  0.7818608E-02  0.1330687E+00
          2   -1    0    0  501    0  0.00000000000E+00  0.00000000000E+00  0.66649388338E+03  0.66649388339E+03  0.25500000000E-02 0. -1.
         -1   -1    0    0    0  501 -0.00000000000E+00 -0.00000000000E+00 -0.23663204652E+01  0.23663258325E+01  0.50400000000E-02 0.  1.
         24    2    1    2    0    0 -0.35527136788E-14  0.35527136788E-14  0.66412756292E+03  0.66886020922E+03  0.79426441764E+02 0.  0.
         66    2    3    3    0    0  0.24610043559E+02 -0.28082076554E+02  0.44553014353E+03  0.44709659590E+03  0.20000001429E+01 0.  0.
        -13    1    3    3    0    0 -0.24610043559E+02  0.28082076554E+02  0.21859741938E+03  0.22176361332E+03  0.10566000000E+00 0.  1.
         13    1    4    4    0    0  0.55399434412E+01 -0.72682958030E+01  0.11464947490E+03  0.11501318340E+03  0.10566000000E+00 0. -1.
        -13    1    4    4    0    0  0.78023751914E+01 -0.87801583022E+01  0.13432292068E+03  0.13483555326E+03  0.10566000000E+00 0.  1.
         14    1    4    4    0    0  0.11267724927E+02 -0.12033622448E+02  0.19655774795E+03  0.19724785924E+03  0.00000000000E+00 0. -1.
<mgrwt>
<rscale>  0 0.79426442E+02</rscale>
<asrwt>0</asrwt>
<pdfrwt beam="1">  1        2 0.10253751E+00 0.79426442E+02</pdfrwt>
<pdfrwt beam="2">  1       -1 0.36404975E-03 0.79426442E+02</pdfrwt>
<totfact> 0.33688293E+05</totfact>
</mgrwt>
</event>
<event>
 8    1  0.7756717E-014  0.8050180E+02  0.7818608E-02  0.1327633E+00
         -1   -1    0    0    0  501 -0.00000000000E+00  0.00000000000E+00  0.38928672516E+01  0.38928705142E+01  0.50400000000E-02 0.  1.
          2   -1    0    0  501    0  0.00000000000E+00 -0.00000000000E+00 -0.41618023856E+03  0.41618023857E+03  0.25500000000E-02 0. -1.
         24    2    1    2    0    0  0.35527136788E-14  0.35527136788E-14 -0.41228737131E+03  0.42007310908E+03  0.80501803914E+02 0.  0.
         66    2    3    3    0    0 -0.25646956112E+02 -0.30822076539E+02 -0.22306905106E+03  0.22665296887E+03  0.19999985899E+01 0.  0.
        -13    1    3    3    0    0  0.25646956112E+02  0.30822076539E+02 -0.18921832025E+03  0.19342014022E+03  0.10566000000E+00 0.  1.
         13    1    4    4    0    0 -0.10196637201E+02 -0.12334908643E+02 -0.92037065318E+02  0.93418167065E+02  0.10566000000E+00 0. -1.
        -13    1    4    4    0    0 -0.13947028166E+02 -0.16048384190E+02 -0.11568881979E+03  0.11762646139E+03  0.10566000000E+00 0.  1.
        -14    1    4    4    0    0 -0.15032907456E+01 -0.24387837055E+01 -0.15343165951E+02  0.15608340413E+02  0.00000000000E+00 0.  1.
<mgrwt>
<rscale>  0 0.80501804E+02</rscale>
<asrwt>0</asrwt>
<pdfrwt beam="1">  1        2 0.64027694E-01 0.80501804E+02</pdfrwt>
<pdfrwt beam="2">  1       -1 0.59890324E-03 0.80501804E+02</pdfrwt>
<totfact> 0.28181634E+05</totfact>
</mgrwt>
</event>
<event>
 8    1  0.8935764E-014  0.7939512E+02  0.7818608E-02  0.1330777E+00
          2   -1    0    0  501    0  0.00000000000E+00  0.00000000000E+00  0.31322507384E+03  0.31322507385E+03  0.25500000000E-02 0. -1.
         -1   -1    0    0    0  501 -0.00000000000E+00 -0.00000000000E+00 -0.50311931355E+01  0.50311956599E+01  0.50400000000E-02 0.  1.
         24    2    1    2    0    0 -0.44408920985E-15  0.00000000000E+00  0.30819388071E+03  0.31825626951E+03  0.79395119365E+02 0.  0.
         66    2    3    3    0    0 -0.33022386506E+01  0.15585324881E+02  0.29983555841E+03  0.30026516484E+03  0.19999989371E+01 0.  0.
        -13    1    3    3    0    0  0.33022386506E+01 -0.15585324881E+02  0.83583222936E+01  0.17991104673E+02  0.10566000000E+00 0.  1.
         13    1    4    4    0    0 -0.10197868193E+01  0.57738076479E+01  0.11848052071E+03  0.11862555278E+03  0.10566000000E+00 0. -1.
        -13    1    4    4    0    0 -0.17938454262E+01  0.64623241410E+01  0.13027452069E+03  0.13044708284E+03  0.10566000000E+00 0.  1.
        -14    1    4    4    0    0 -0.48860640517E+00  0.33491930916E+01  0.51080517011E+02  0.51192529227E+02  0.00000000000E+00 0.  1.
<mgrwt>
<rscale>  0 0.79395119E+02</rscale>
<asrwt>0</asrwt>
<pdfrwt beam="1">  1        2 0.48188480E-01 0.79395119E+02</pdfrwt>
<pdfrwt beam="2">  1       -1 0.77402979E-03 0.79395119E+02</pdfrwt>
<totfact> 0.26415362E+05</totfact>
</mgrwt>
</event>
<event>
 8    1  0.7667702E-014  0.8099889E+02  0.7818608E-02  0.1326240E+00
         -1   -1    0    0    0  501 -0.00000000000E+00  0.00000000000E+00  0.65281358358E+01  0.65281377814E+01  0.50400000000E-02 0.  1.
          2   -1    0    0  501    0  0.00000000000E+00 -0.00000000000E+00 -0.25125165755E+03  0.25125165756E+03  0.25500000000E-02 0. -1.
         24    2    1    2    0    0  0.00000000000E+00  0.00000000000E+00 -0.24472352171E+03  0.25777979534E+03  0.80998893866E+02 0.  0.
         66    2    3    3    0    0 -0.98297095433E+01  0.23786977186E+01 -0.24716127094E+03  0.24737618165E+03  0.20000000165E+01 0.  0.
        -13    1    3    3    0    0  0.98297095433E+01 -0.23786977186E+01  0.24377492312E+01  0.10403613694E+02  0.10566000000E+00 0.  1.
         13    1    4    4    0    0 -0.45739768276E+01  0.11050170947E+01 -0.10949166915E+03  0.10959278765E+03  0.10566000000E+00 0. -1.
        -13    1    4    4    0    0 -0.31608611915E+01  0.92149149968E+00 -0.99710427286E+02  0.99764826787E+02  0.10566000000E+00 0.  1.
        -14    1    4    4    0    0 -0.20948715242E+01  0.35218912419E+00 -0.37959174505E+02  0.38018567214E+02  0.00000000000E+00 0.  1.
<mgrwt>
<rscale>  0 0.80998894E+02</rscale>
<asrwt>0</asrwt>
<pdfrwt beam="1">  1        2 0.38654094E-01 0.80998894E+02</pdfrwt>
<pdfrwt beam="2">  1       -1 0.10043289E-02 0.80998894E+02</pdfrwt>
<totfact> 0.23143237E+05</totfact>
</mgrwt>
</event>
<event>
 8    1  0.7667702E-014  0.7845680E+02  0.7818608E-02  0.1333489E+00
          2   -1    0    0  501    0  0.00000000000E+00  0.00000000000E+00  0.63188697812E+03  0.63188697813E+03  0.25500000000E-02 0. -1.
         -1   -1    0    0    0  501 -0.00000000000E+00 -0.00000000000E+00 -0.24353498408E+01  0.24353550560E+01  0.50400000000E-02 0.  1.
         24    2    1    2    0    0  0.00000000000E+00  0.00000000000E+00  0.62945162828E+03  0.63432233318E+03  0.78456803586E+02 0.  0.
         66    2    3    3    0    0 -0.94431171595E+01 -0.27948300216E+02  0.52367010087E+03  0.52450419874E+03  0.20000015328E+01 0.  0.
        -13    1    3    3    0    0  0.94431171595E+01  0.27948300216E+02  0.10578152741E+03  0.10981813444E+03  0.10566000000E+00 0.  1.
         13    1    4    4    0    0 -0.21904888523E+01 -0.68971686292E+01  0.12275713616E+03  0.12297030055E+03  0.10566000000E+00 0. -1.
        -13    1    4    4    0    0 -0.33297282529E+01 -0.10809443240E+02  0.21605510285E+03  0.21635098749E+03  0.10566000000E+00 0.  1.
        -14    1    4    4    0    0 -0.39229000542E+01 -0.10241688346E+02  0.18485786186E+03  0.18518291070E+03  0.00000000000E+00 0.  1.
<mgrwt>
<rscale>  0 0.78456804E+02</rscale>
<asrwt>0</asrwt>
<pdfrwt beam="1">  1        2 0.97213424E-01 0.78456804E+02</pdfrwt>
<pdfrwt beam="2">  1       -1 0.37466944E-03 0.78456804E+02</pdfrwt>
<totfact> 0.34311423E+05</totfact>
</mgrwt>
</event>
<event>
 8    1  0.7667702E-014  0.8138038E+02  0.7818608E-02  0.1325179E+00
         -1   -1    0    0    0  501 -0.00000000000E+00  0.00000000000E+00  0.44464764406E+01  0.44464792970E+01  0.50400000000E-02 0.  1.
          2   -1    0    0  501    0  0.00000000000E+00 -0.00000000000E+00 -0.37236025333E+03  0.37236025334E+03  0.25500000000E-02 0. -1.
         24    2    1    2    0    0  0.00000000000E+00  0.00000000000E+00 -0.36791377689E+03  0.37680673264E+03  0.81380381755E+02 0.  0.
         66    2    3    3    0    0  0.19301599945E+01 -0.21563091393E+02 -0.34345620778E+03  0.34414366054E+03  0.19999998048E+01 0.  0.
        -13    1    3    3    0    0 -0.19301599945E+01  0.21563091393E+02 -0.24457569115E+02  0.32663072102E+02  0.10566000000E+00 0.  1.
         13    1    4    4    0    0  0.61744908803E+00 -0.15089095241E+02 -0.23529573928E+03  0.23577989339E+03  0.10566000000E+00 0. -1.
        -13    1    4    4    0    0  0.12809373289E+01 -0.55319485858E+01 -0.90259109947E+02  0.90437610251E+02  0.10566000000E+00 0.  1.
        -14    1    4    4    0    0  0.31773577545E-01 -0.94204756638E+00 -0.17901358552E+02  0.17926156899E+02  0.00000000000E+00 0.  1.
<mgrwt>
<rscale>  0 0.81380382E+02</rscale>
<asrwt>0</asrwt>
<pdfrwt beam="1">  1        2 0.57286168E-01 0.81380382E+02</pdfrwt>
<pdfrwt beam="2">  1       -1 0.68407381E-03 0.81380382E+02</pdfrwt>
<totfact> 0.26343063E+05</totfact>
</mgrwt>
</event>
<event>
 8    1  0.7667702E-014  0.7985269E+02  0.7818608E-02  0.1329470E+00
          2   -1    0    0  501    0  0.00000000000E+00  0.00000000000E+00  0.56682947811E+02  0.56682947869E+02  0.25500000000E-02 0. -1.
         -1   -1    0    0    0  501 -0.00000000000E+00 -0.00000000000E+00 -0.28123323465E+02  0.28123323917E+02  0.50400000000E-02 0.  1.
         24    2    1    2    0    0  0.35527136788E-14  0.35527136788E-14  0.28559624346E+02  0.84806271786E+02  0.79852686814E+02 0.  0.
         66    2    3    3    0    0 -0.20047735895E+02 -0.31475186587E+02  0.29289721479E+02  0.47481437009E+02  0.19999977389E+01 0.  0.
        -13    1    3    3    0    0  0.20047735895E+02  0.31475186587E+02 -0.73009713266E+00  0.37324834776E+02  0.10566000000E+00 0.  1.
         13    1    4    4    0    0 -0.16504039704E+02 -0.26274570358E+02  0.23545731600E+02  0.38950597103E+02  0.10566000000E+00 0. -1.
        -13    1    4    4    0    0 -0.31574711866E+01 -0.44040593759E+01  0.48612357602E+01  0.72806689550E+01  0.10566000000E+00 0.  1.
         14    1    4    4    0    0 -0.38622500512E+00 -0.79655685330E+00  0.88275411824E+00  0.12501709517E+01  0.00000000000E+00 0. -1.
<mgrwt>
<rscale>  0 0.79852687E+02</rscale>
<asrwt>0</asrwt>
<pdfrwt beam="1">  1        2 0.87204534E-02 0.79852687E+02</pdfrwt>
<pdfrwt beam="2">  1       -1 0.43266653E-02 0.79852687E+02</pdfrwt>
<totfact> 0.15442409E+05</totfact>
</mgrwt>
</event>
<event>
 8    1  0.7667702E-014  0.7868573E+02  0.7818608E-02  0.1332823E+00
          2   -1    0    0  501    0  0.00000000000E+00  0.00000000000E+00  0.25796472995E+03  0.25796472996E+03  0.25500000000E-02 0. -1.
         -1   -1    0    0    0  501 -0.00000000000E+00 -0.00000000000E+00 -0.60002799145E+01  0.60002820312E+01  0.50400000000E-02 0.  1.
         24    2    1    2    0    0  0.17763568394E-14  0.00000000000E+00  0.25196445003E+03  0.26396501199E+03  0.78685725994E+02 0.  0.
         66    2    3    3    0    0 -0.98348036842E+01 -0.19629050311E+02  0.23548097480E+03  0.23651070269E+03  0.20000030558E+01 0.  0.
        -13    1    3    3    0    0  0.98348036842E+01  0.19629050311E+02  0.16483475229E+02  0.27454309303E+02  0.10566000000E+00 0.  1.
         13    1    4    4    0    0 -0.31190515188E+00 -0.45532566679E+00  0.90026958778E+01  0.90202163716E+01  0.10566000000E+00 0. -1.
        -13    1    4    4    0    0 -0.48228238040E+00 -0.88575076917E+00  0.87533992373E+01  0.88119414980E+01  0.10566000000E+00 0.  1.
         14    1    4    4    0    0 -0.90406161519E+01 -0.18287973875E+02  0.21772487969E+03  0.21867854482E+03  0.00000000000E+00 0. -1.
<mgrwt>
<rscale>  0 0.78685726E+02</rscale>
<asrwt>0</asrwt>
<pdfrwt beam="1">  1        2 0.39686886E-01 0.78685726E+02</pdfrwt>
<pdfrwt beam="2">  1       -1 0.92312005E-03 0.78685726E+02</pdfrwt>
<totfact> 0.25211561E+05</totfact>
</mgrwt>
</event>
<event>
 8    1  0.7667702E-014  0.7844086E+02  0.7818608E-02  0.1333535E+00
         -1   -1    0    0    0  501 -0.00000000000E+00  0.00000000000E+00  0.51222381111E+01  0.51222405907E+01  0.50400000000E-02 0.  1.
          2   -1    0    0  501    0  0.00000000000E+00 -0.00000000000E+00 -0.30030658769E+03  0.30030658770E+03  0.25500000000E-02 0. -1.
         24    2    1    2    0    0  0.00000000000E+00  0.00000000000E+00 -0.29518434958E+03  0.30542882829E+03  0.78440862535E+02 0.  0.
         66    2    3    3    0    0 -0.84454057455E+01  0.20418244937E+02 -0.27373990200E+03  0.27463751295E+03  0.19999919928E+01 0.  0.
        -13    1    3    3    0    0  0.84454057455E+01 -0.20418244937E+02 -0.21444447581E+02  0.30791315344E+02  0.10566000000E+00 0.  1.
         13    1    4    4    0    0 -0.53670611900E+01  0.14828463294E+02 -0.20051390189E+03  0.20113310191E+03  0.10566000000E+00 0. -1.
        -13    1    4    4    0    0 -0.23905301728E+01  0.44280239309E+01 -0.59204941912E+02  0.59418501675E+02  0.10566000000E+00 0.  1.
         14    1    4    4    0    0 -0.68781438273E+00  0.11617577112E+01 -0.14021058195E+02  0.14085909361E+02  0.00000000000E+00 0. -1.
<mgrwt>
<rscale>  0 0.78440863E+02</rscale>
<asrwt>0</asrwt>
<pdfrwt beam="1">  1        2 0.46201000E-01 0.78440863E+02</pdfrwt>
<pdfrwt beam="2">  1       -1 0.78803706E-03 0.78440863E+02</pdfrwt>
<totfact> 0.26853118E+05</totfact>
</mgrwt>
</event>
<event>
 8    1  0.7667702E-014  0.8110241E+02  0.7818608E-02  0.1325952E+00
         -1   -1    0    0    0  501 -0.00000000000E+00  0.00000000000E+00  0.31943536330E+01  0.31943576090E+01  0.50400000000E-02 0.  1.
          2   -1    0    0  501    0  0.00000000000E+00 -0.00000000000E+00 -0.51478303032E+03  0.51478303032E+03  0.25500000000E-02 0. -1.
         24    2    1    2    0    0  0.00000000000E+00  0.35527136788E-14 -0.51158867668E+03  0.51797738793E+03  0.81102406240E+02 0.  0.
         66    2    3    3    0    0 -0.25716305923E+02 -0.29658385328E+02 -0.32027692179E+03  0.32267980234E+03  0.20000003071E+01 0.  0.
        -13    1    3    3    0    0  0.25716305923E+02  0.29658385328E+02 -0.19131175490E+03  0.19529758559E+03  0.10566000000E+00 0.  1.
         13    1    4    4    0    0 -0.56767284031E+01 -0.58329846105E+01 -0.70312504354E+02  0.70782119122E+02  0.10566000000E+00 0. -1.
        -13    1    4    4    0    0 -0.98484321973E+01 -0.12439994640E+02 -0.12611909133E+03  0.12711326227E+03  0.10566000000E+00 0.  1.
        -14    1    4    4    0    0 -0.10191145323E+02 -0.11385406077E+02 -0.12384532611E+03  0.12478442095E+03  0.00000000000E+00 0.  1.
<mgrwt>
<rscale>  0 0.81102406E+02</rscale>
<asrwt>0</asrwt>
<pdfrwt beam="1">  1        2 0.79197323E-01 0.81102406E+02</pdfrwt>
<pdfrwt beam="2">  1       -1 0.49143974E-03 0.81102406E+02</pdfrwt>
<totfact> 0.29655629E+05</totfact>
</mgrwt>
</event>
<event>
 8    1  0.7667702E-014  0.7840789E+02  0.7818608E-02  0.1333631E+00
          2   -1    0    0  501    0  0.00000000000E+00  0.00000000000E+00  0.18327535663E+03  0.18327535665E+03  0.25500000000E-02 0. -1.
         -1   -1    0    0    0  501 -0.00000000000E+00 -0.00000000000E+00 -0.83860119218E+01  0.83860134363E+01  0.50400000000E-02 0.  1.
         24    2    1    2    0    0  0.88817841970E-15  0.00000000000E+00  0.17488934471E+03  0.19166137008E+03  0.78407894309E+02 0.  0.
         66    2    3    3    0    0  0.61998258261E+01  0.21194897264E+02  0.16660693582E+03  0.16807597267E+03  0.20000032872E+01 0.  0.
        -13    1    3    3    0    0 -0.61998258261E+01 -0.21194897264E+02  0.82824088829E+01  0.23585397415E+02  0.10566000000E+00 0.  1.
         13    1    4    4    0    0  0.85393676246E+00  0.43230927526E+01  0.30739502604E+02  0.31053929273E+02  0.10566000000E+00 0.  1.
        -13    1    4    4    0    0  0.24816068269E+01  0.78015878963E+01  0.57687472164E+02  0.58265588084E+02  0.10566000000E+00 0. -1.
         14    1    4    4    0    0  0.28642822367E+01  0.90702166150E+01  0.78179961057E+02  0.78756455311E+02  0.00000000000E+00 0. -1.
<mgrwt>
<rscale>  0 0.78407894E+02</rscale>
<asrwt>0</asrwt>
<pdfrwt beam="1">  1        2 0.28196207E-01 0.78407894E+02</pdfrwt>
<pdfrwt beam="2">  1       -1 0.12901559E-02 0.78407894E+02</pdfrwt>
<totfact> 0.22572032E+05</totfact>
</mgrwt>
</event>
<event>
 8    1  0.7667702E-014  0.8086863E+02  0.7818608E-02  0.1326604E+00
          2   -1    0    0  501    0  0.00000000000E+00  0.00000000000E+00  0.23621071500E+02  0.23621071638E+02  0.25500000000E-02 0. -1.
         -1   -1    0    0    0  501 -0.00000000000E+00 -0.00000000000E+00 -0.69215065285E+02  0.69215065468E+02  0.50400000000E-02 0.  1.
         24    2    1    2    0    0  0.35527136788E-14  0.00000000000E+00 -0.45593993785E+02  0.92836137106E+02  0.80868634732E+02 0.  0.
         66    2    3    3    0    0 -0.20002234968E+02 -0.31327087184E+02 -0.46069540605E+01  0.37505997177E+02  0.20000008391E+01 0.  0.
        -13    1    3    3    0    0  0.20002234968E+02  0.31327087184E+02 -0.40987039724E+02  0.55330139929E+02  0.10566000000E+00 0.  1.
         13    1    4    4    0    0 -0.63216070801E+01 -0.96763061874E+01 -0.22839544671E+01  0.11782242127E+02  0.10566000000E+00 0. -1.
        -13    1    4    4    0    0 -0.78869184429E+00 -0.13641028657E+01 -0.49371677927E-01  0.15800041303E+01  0.10566000000E+00 0. -1.
         14    1    4    4    0    0 -0.12891936044E+02 -0.20286678131E+02 -0.22736279154E+01  0.24143750919E+02  0.00000000000E+00 0. -1.
<mgrwt>
<rscale>  0 0.80868635E+02</rscale>
<asrwt>0</asrwt>
<pdfrwt beam="1">  1        2 0.36340110E-02 0.80868635E+02</pdfrwt>
<pdfrwt beam="2">  1       -1 0.10648472E-01 0.80868635E+02</pdfrwt>
<totfact> 0.12447360E+05</totfact>
</mgrwt>
</event>
<event>
 8    1  0.7667702E-014  0.7950159E+02  0.7818608E-02  0.1330472E+00
         -1   -1    0    0    0  501 -0.00000000000E+00  0.00000000000E+00  0.43054474962E+01  0.43054504461E+01  0.50400000000E-02 0.  1.
          2   -1    0    0  501    0  0.00000000000E+00 -0.00000000000E+00 -0.36700605202E+03  0.36700605203E+03  0.25500000000E-02 0. -1.
         24    2    1    2    0    0  0.00000000000E+00  0.00000000000E+00 -0.36270060453E+03  0.37131150248E+03  0.79501593370E+02 0.  0.
         66    2    3    3    0    0  0.91885096154E+01  0.74854923407E+01 -0.35855335019E+03  0.35875474386E+03  0.19999999215E+01 0.  0.
        -13    1    3    3    0    0 -0.91885096154E+01 -0.74854923407E+01 -0.41472543325E+01  0.12556758621E+02  0.10566000000E+00 0.  1.
         13    1    4    4    0    0  0.54051643756E+01  0.48384546775E+01 -0.20779933958E+03  0.20792595591E+03  0.10566000000E+00 0. -1.
        -13    1    4    4    0    0 -0.25062685178E-01  0.16486549344E+00 -0.49720402594E+01  0.49759579124E+01  0.10566000000E+00 0.  1.
         14    1    4    4    0    0  0.38084079250E+01  0.24821721697E+01 -0.14578197035E+03  0.14585283004E+03  0.00000000000E+00 0. -1.
<mgrwt>
<rscale>  0 0.79501593E+02</rscale>
<asrwt>0</asrwt>
<pdfrwt beam="1">  1        2 0.56462445E-01 0.79501593E+02</pdfrwt>
<pdfrwt beam="2">  1       -1 0.66237705E-03 0.79501593E+02</pdfrwt>
<totfact> 0.27859716E+05</totfact>
</mgrwt>
</event>
<event>
 8    1  0.7667702E-014  0.7995391E+02  0.7818608E-02  0.1329182E+00
         -1   -1    0    0    0  501 -0.00000000000E+00  0.00000000000E+00  0.14273872213E+02  0.14273873103E+02  0.50400000000E-02 0.  1.
          2   -1    0    0  501    0  0.00000000000E+00 -0.00000000000E+00 -0.11196380592E+03  0.11196380595E+03  0.25500000000E-02 0. -1.
         24    2    1    2    0    0  0.00000000000E+00  0.00000000000E+00 -0.97689933707E+02  0.12623767905E+03  0.79953914631E+02 0.  0.
         66    2    3    3    0    0 -0.10574160121E+02  0.38410557320E+02 -0.44147130776E+02  0.59499184271E+02  0.19999993367E+01 0.  0.
        -13    1    3    3    0    0  0.10574160121E+02 -0.38410557320E+02 -0.53542802931E+02  0.66738494781E+02  0.10566000000E+00 0.  1.
         13    1    4    4    0    0 -0.21587746680E+01  0.68585008149E+01 -0.77896654882E+01  0.10601386416E+02  0.10566000000E+00 0. -1.
        -13    1    4    4    0    0 -0.71730261729E+00  0.17782234603E+01 -0.26049500669E+01  0.32362834558E+01  0.10566000000E+00 0.  1.
        -14    1    4    4    0    0 -0.76980828354E+01  0.29773833044E+02 -0.33752515221E+02  0.45661514399E+02  0.00000000000E+00 0.  1.
<mgrwt>
<rscale>  0 0.79953915E+02</rscale>
<asrwt>0</asrwt>
<pdfrwt beam="1">  1        2 0.17225200E-01 0.79953915E+02</pdfrwt>
<pdfrwt beam="2">  1       -1 0.21959805E-02 0.79953915E+02</pdfrwt>
<totfact> 0.18335964E+05</totfact>
</mgrwt>
</event>
<event>
 8    1  0.7667702E-014  0.8082199E+02  0.7818608E-02  0.1326735E+00
         -1   -1    0    0    0  501 -0.00000000000E+00  0.00000000000E+00  0.27124321946E+01  0.27124368770E+01  0.50400000000E-02 0.  1.
          2   -1    0    0  501    0  0.00000000000E+00 -0.00000000000E+00 -0.60206013471E+03  0.60206013471E+03  0.25500000000E-02 0. -1.
         24    2    1    2    0    0  0.44408920985E-15  0.00000000000E+00 -0.59934770251E+03  0.60477257159E+03  0.80821994779E+02 0.  0.
         66    2    3    3    0    0  0.29159894719E+01  0.11582393941E+02 -0.58853952679E+03  0.58866410579E+03  0.20000016897E+01 0.  0.
        -13    1    3    3    0    0 -0.29159894719E+01 -0.11582393941E+02 -0.10808175728E+02  0.16108465805E+02  0.10566000000E+00 0.  1.
         13    1    4    4    0    0  0.14021050622E+01  0.50037223108E+01 -0.21999869491E+03  0.22006008285E+03  0.10566000000E+00 0. -1.
        -13    1    4    4    0    0  0.10213207064E+01  0.23274962388E+01 -0.14114897784E+03  0.14117190034E+03  0.10566000000E+00 0.  1.
         14    1    4    4    0    0  0.49256370331E+00  0.42511753912E+01 -0.22739185403E+03  0.22743212260E+03  0.00000000000E+00 0. -1.
<mgrwt>
<rscale>  0 0.80821995E+02</rscale>
<asrwt>0</asrwt>
<pdfrwt beam="1">  1        2 0.92624530E-01 0.80821995E+02</pdfrwt>
<pdfrwt beam="2">  1       -1 0.41729810E-03 0.80821995E+02</pdfrwt>
<totfact> 0.31348666E+05</totfact>
</mgrwt>
</event>
<event>
 8    1  0.7667702E-014  0.7907071E+02  0.7818608E-02  0.1331710E+00
         -1   -1    0    0    0  501 -0.00000000000E+00  0.00000000000E+00  0.45182895647E+01  0.45182923757E+01  0.50400000000E-02 0.  1.
          2   -1    0    0  501    0  0.00000000000E+00 -0.00000000000E+00 -0.34593702730E+03  0.34593702731E+03  0.25500000000E-02 0. -1.
         24    2    1    2    0    0  0.00000000000E+00 -0.35527136788E-14 -0.34141873774E+03  0.35045531969E+03  0.79070706453E+02 0.  0.
         66    2    3    3    0    0 -0.16105335743E+02 -0.21376862372E+02 -0.29963284585E+03  0.30083250226E+03  0.20000054425E+01 0.  0.
        -13    1    3    3    0    0  0.16105335743E+02  0.21376862372E+02 -0.41785891892E+02  0.49622817429E+02  0.10566000000E+00 0.  1.
         13    1    4    4    0    0 -0.67126446060E+01 -0.83723743300E+01 -0.12895159725E+03  0.12939737960E+03  0.10566000000E+00 0. -1.
        -13    1    4    4    0    0 -0.19675181537E+01 -0.26321865774E+01 -0.32024498650E+02  0.32192844107E+02  0.10566000000E+00 0.  1.
         14    1    4    4    0    0 -0.74251729834E+01 -0.10372301465E+02 -0.13865674995E+03  0.13924227855E+03  0.00000000000E+00 0. -1.
<mgrwt>
<rscale>  0 0.79070706E+02</rscale>
<asrwt>0</asrwt>
<pdfrwt beam="1">  1        2 0.53221060E-01 0.79070706E+02</pdfrwt>
<pdfrwt beam="2">  1       -1 0.69512196E-03 0.79070706E+02</pdfrwt>
<totfact> 0.27670132E+05</totfact>
</mgrwt>
</event>
<event>
 8    1  0.7667702E-014  0.7899558E+02  0.7818608E-02  0.1331926E+00
         -1   -1    0    0    0  501 -0.00000000000E+00  0.00000000000E+00  0.38231448784E+01  0.38231482005E+01  0.50400000000E-02 0.  1.
          2   -1    0    0  501    0  0.00000000000E+00 -0.00000000000E+00 -0.40806059457E+03  0.40806059458E+03  0.25500000000E-02 0. -1.
         24    2    1    2    0    0 -0.17763568394E-14  0.00000000000E+00 -0.40423744970E+03  0.41188374278E+03  0.78995581092E+02 0.  0.
         66    2    3    3    0    0 -0.88327111124E+01 -0.31730886303E+02 -0.31566966477E+03  0.31738967089E+03  0.20000009911E+01 0.  0.
        -13    1    3    3    0    0  0.88327111124E+01  0.31730886303E+02 -0.88567784929E+02  0.94494071891E+02  0.10566000000E+00 0.  1.
         13    1    4    4    0    0 -0.33971681507E+01 -0.13666889837E+02 -0.12696756953E+03  0.12774623089E+03  0.10566000000E+00 0. -1.
        -13    1    4    4    0    0 -0.32090026117E+01 -0.10729344181E+02 -0.11462664991E+03  0.11517246441E+03  0.10566000000E+00 0.  1.
         14    1    4    4    0    0 -0.22265403500E+01 -0.73346522843E+01 -0.74075445323E+02  0.74470975594E+02  0.00000000000E+00 0. -1.
<mgrwt>
<rscale>  0 0.78995581E+02</rscale>
<asrwt>0</asrwt>
<pdfrwt beam="1">  1        2 0.62778519E-01 0.78995581E+02</pdfrwt>
<pdfrwt beam="2">  1       -1 0.58817672E-03 0.78995581E+02</pdfrwt>
<totfact> 0.29404621E+05</totfact>
</mgrwt>
</event>
<event>
 8    1  0.7667702E-014  0.7766736E+02  0.7818608E-02  0.1335805E+00
          2   -1    0    0  501    0  0.00000000000E+00  0.00000000000E+00  0.28392518922E+03  0.28392518923E+03  0.25500000000E-02 0. -1.
         -1   -1    0    0    0  501 -0.00000000000E+00 -0.00000000000E+00 -0.53114500834E+01  0.53114524746E+01  0.50400000000E-02 0.  1.
         24    2    1    2    0    0  0.17763568394E-14  0.00000000000E+00  0.27861373913E+03  0.28923664170E+03  0.77667362963E+02 0.  0.
         66    2    3    3    0    0 -0.92709677299E+01  0.37384311434E+02  0.15706850785E+03  0.16173451625E+03  0.20000008265E+01 0.  0.
        -13    1    3    3    0    0  0.92709677299E+01 -0.37384311434E+02  0.12154523128E+03  0.12750212545E+03  0.10566000000E+00 0.  1.
         13    1    4    4    0    0 -0.18680477883E+01  0.55578534812E+01  0.22671583038E+02  0.23417753508E+02  0.10566000000E+00 0. -1.
        -13    1    4    4    0    0 -0.39186307505E+00  0.95348942378E+00  0.43329898881E+01  0.44551839644E+01  0.10566000000E+00 0.  1.
         14    1    4    4    0    0 -0.70110568665E+01  0.30872968529E+02  0.13006393493E+03  0.13386157878E+03  0.00000000000E+00 0. -1.
<mgrwt>
<rscale>  0 0.77667363E+02</rscale>
<asrwt>0</asrwt>
<pdfrwt beam="1">  1        2 0.43680806E-01 0.77667363E+02</pdfrwt>
<pdfrwt beam="2">  1       -1 0.81714621E-03 0.77667363E+02</pdfrwt>
<totfact> 0.27005489E+05</totfact>
</mgrwt>
</event>
<event>
 8    1  0.7667702E-014  0.8031764E+02  0.7818608E-02  0.1328152E+00
         -1   -1    0    0    0  501 -0.00000000000E+00  0.00000000000E+00  0.14131644964E+01  0.14131734838E+01  0.50400000000E-02 0.  1.
          2   -1    0    0  501    0  0.00000000000E+00 -0.00000000000E+00 -0.11412158819E+04  0.11412158819E+04  0.25500000000E-02 0. -1.
         24    2    1    2    0    0  0.00000000000E+00  0.00000000000E+00 -0.11398027174E+04  0.11426290553E+04  0.80317641978E+02 0.  0.
         66    2    3    3    0    0 -0.23650971445E+02 -0.86295405522E+01 -0.10149022331E+04  0.10152164204E+04  0.19999997276E+01 0.  0.
        -13    1    3    3    0    0  0.23650971445E+02  0.86295405522E+01 -0.12490048422E+03  0.12741263494E+03  0.10566000000E+00 0.  1.
         13    1    4    4    0    0 -0.95253046235E+01 -0.34989753558E+01 -0.41967670876E+03  0.41979938696E+03  0.10566000000E+00 0. -1.
        -13    1    4    4    0    0 -0.13084237438E+02 -0.50065509455E+01 -0.54100843104E+03  0.54118979706E+03  0.10566000000E+00 0.  1.
        -14    1    4    4    0    0 -0.10414293833E+01 -0.12401425094E+00 -0.54217093344E+02  0.54227236380E+02  0.00000000000E+00 0.  1.
<mgrwt>
<rscale>  0 0.80317642E+02</rscale>
<asrwt>0</asrwt>
<pdfrwt beam="1">  1        2 0.17557094E+00 0.80317642E+02</pdfrwt>
<pdfrwt beam="2">  1       -1 0.21741153E-03 0.80317642E+02</pdfrwt>
<totfact> 0.34830368E+05</totfact>
</mgrwt>
</event>
<event>
 8    1  0.7667702E-014  0.7617133E+02  0.7818608E-02  0.1340282E+00
         -1   -1    0    0    0  501 -0.00000000000E+00  0.00000000000E+00  0.13297133131E+02  0.13297134086E+02  0.50400000000E-02 0.  1.
          2   -1    0    0  501    0  0.00000000000E+00 -0.00000000000E+00 -0.10908500774E+03  0.10908500777E+03  0.25500000000E-02 0. -1.
         24    2    1    2    0    0  0.00000000000E+00  0.00000000000E+00 -0.95787874613E+02  0.12238214186E+03  0.76171331374E+02 0.  0.
         66    2    3    3    0    0  0.15457730909E+02  0.16882829114E+02 -0.96779696046E+02  0.99470000154E+02  0.20000000638E+01 0.  0.
        -13    1    3    3    0    0 -0.15457730909E+02 -0.16882829114E+02  0.99182143277E+00  0.22912141705E+02  0.10566000000E+00 0.  1.
         13    1    4    4    0    0  0.77115526911E+01  0.72910372748E+01 -0.42553502891E+02  0.43857029560E+02  0.10566000000E+00 0. -1.
        -13    1    4    4    0    0  0.66959654929E+00  0.98692851590E+00 -0.56725441482E+01  0.57975260744E+01  0.10566000000E+00 0.  1.
         14    1    4    4    0    0  0.70765816684E+01  0.86048633230E+01 -0.48553649006E+02  0.49815444520E+02  0.00000000000E+00 0. -1.
<mgrwt>
<rscale>  0 0.76171331E+02</rscale>
<asrwt>0</asrwt>
<pdfrwt beam="1">  1        2 0.16782308E-01 0.76171331E+02</pdfrwt>
<pdfrwt beam="2">  1       -1 0.20457129E-02 0.76171331E+02</pdfrwt>
<totfact> 0.20707106E+05</totfact>
</mgrwt>
</event>
<event>
 8    1  0.7667702E-014  0.7999470E+02  0.7818608E-02  0.1329066E+00
          2   -1    0    0  501    0  0.00000000000E+00  0.00000000000E+00  0.14033730443E+03  0.14033730446E+03  0.25500000000E-02 0. -1.
         -1   -1    0    0    0  501 -0.00000000000E+00 -0.00000000000E+00 -0.11399592268E+02  0.11399593382E+02  0.50400000000E-02 0.  1.
         24    2    1    2    0    0  0.35527136788E-14  0.00000000000E+00  0.12893771216E+03  0.15173689784E+03  0.79994703245E+02 0.  0.
         66    2    3    3    0    0  0.23447506930E+02 -0.22386609209E+02  0.10886572320E+03  0.11360762092E+03  0.19999976438E+01 0.  0.
        -13    1    3    3    0    0 -0.23447506930E+02  0.22386609209E+02  0.20071988965E+02  0.38129276917E+02  0.10566000000E+00 0.  1.
         13    1    4    4    0    0  0.21566681371E+02 -0.20249369089E+02  0.99283885387E+02  0.10359758566E+03  0.10566000000E+00 0. -1.
        -13    1    4    4    0    0  0.16730749061E+00 -0.68911465901E-01  0.76305591234E+00  0.79130205832E+00  0.10566000000E+00 0. -1.
         14    1    4    4    0    0  0.17135180688E+01 -0.20683286543E+01  0.88187818989E+01  0.92187331979E+01  0.00000000000E+00 0. -1.
<mgrwt>
<rscale>  0 0.79994703E+02</rscale>
<asrwt>0</asrwt>
<pdfrwt beam="1">  1        2 0.21590354E-01 0.79994703E+02</pdfrwt>
<pdfrwt beam="2">  1       -1 0.17537836E-02 0.79994703E+02</pdfrwt>
<totfact> 0.19612474E+05</totfact>
</mgrwt>
</event>
<event>
 8    1  0.7667702E-014  0.7865026E+02  0.7818608E-02  0.1332926E+00
         -1   -1    0    0    0  501 -0.00000000000E+00  0.00000000000E+00  0.50227833886E+01  0.50227859172E+01  0.50400000000E-02 0.  1.
          2   -1    0    0  501    0  0.00000000000E+00 -0.00000000000E+00 -0.30789016978E+03  0.30789016979E+03  0.25500000000E-02 0. -1.
         24    2    1    2    0    0 -0.17763568394E-14  0.00000000000E+00 -0.30286738639E+03  0.31291295571E+03  0.78650264527E+02 0.  0.
         66    2    3    3    0    0  0.98644730968E+01 -0.30520486121E+02 -0.24187594441E+03  0.24400159916E+03  0.20000011688E+01 0.  0.
        -13    1    3    3    0    0 -0.98644730968E+01  0.30520486121E+02 -0.60991441978E+02  0.68911356546E+02  0.10566000000E+00 0.  1.
         13    1    4    4    0    0  0.39252846783E+01 -0.11955831247E+02 -0.10199770495E+03  0.10277106957E+03  0.10566000000E+00 0. -1.
        -13    1    4    4    0    0  0.75534790489E+00 -0.28002629053E+01 -0.20980155043E+02  0.21179945525E+02  0.10566000000E+00 0.  1.
         14    1    4    4    0    0  0.51838405136E+01 -0.15764391969E+02 -0.11889808442E+03  0.12005058407E+03  0.00000000000E+00 0. -1.
<mgrwt>
<rscale>  0 0.78650265E+02</rscale>
<asrwt>0</asrwt>
<pdfrwt beam="1">  1        2 0.47367704E-01 0.78650265E+02</pdfrwt>
<pdfrwt beam="2">  1       -1 0.77273635E-03 0.78650265E+02</pdfrwt>
<totfact> 0.26907750E+05</totfact>
</mgrwt>
</event>
<event>
 8    1  0.7667702E-014  0.7827688E+02  0.7818608E-02  0.1334014E+00
          2   -1    0    0  501    0  0.00000000000E+00  0.00000000000E+00  0.54572623713E+03  0.54572623713E+03  0.25500000000E-02 0. -1.
         -1   -1    0    0    0  501 -0.00000000000E+00 -0.00000000000E+00 -0.28069314679E+01  0.28069359927E+01  0.50400000000E-02 0.  1.
         24    2    1    2    0    0 -0.35527136788E-14  0.00000000000E+00  0.54291930566E+03  0.54853317313E+03  0.78276877569E+02 0.  0.
         66    2    3    3    0    0  0.29848858313E+02  0.20471545529E+02  0.37552248566E+03  0.37726804232E+03  0.20000007984E+01 0.  0.
        -13    1    3    3    0    0 -0.29848858313E+02 -0.20471545529E+02  0.16739682000E+03  0.17126513080E+03  0.10566000000E+00 0.  1.
         13    1    4    4    0    0  0.23724427870E+02  0.17106755638E+02  0.30381119735E+03  0.30521589795E+03  0.10566000000E+00 0. -1.
        -13    1    4    4    0    0  0.11870397103E+01  0.79897265771E+00  0.14185009148E+02  0.14257386477E+02  0.10566000000E+00 0.  1.
         14    1    4    4    0    0  0.49373907328E+01  0.25658172331E+01  0.57526279167E+02  0.57794757895E+02  0.00000000000E+00 0. -1.
<mgrwt>
<rscale>  0 0.78276878E+02</rscale>
<asrwt>0</asrwt>
<pdfrwt beam="1">  1        2 0.83957845E-01 0.78276878E+02</pdfrwt>
<pdfrwt beam="2">  1       -1 0.43183615E-03 0.78276878E+02</pdfrwt>
<totfact> 0.33112912E+05</totfact>
</mgrwt>
</event>
<event>
 8    1  0.7667702E-014  0.8006128E+02  0.7818608E-02  0.1328878E+00
         -1   -1    0    0    0  501 -0.00000000000E+00  0.00000000000E+00  0.80856727196E+02  0.80856727353E+02  0.50400000000E-02 0.  1.
          2   -1    0    0  501    0  0.00000000000E+00 -0.00000000000E+00 -0.19818414290E+02  0.19818414454E+02  0.25500000000E-02 0. -1.
         24    2    1    2    0    0  0.00000000000E+00 -0.71054273576E-14  0.61038312906E+02  0.10067514181E+03  0.80061279877E+02 0.  0.
         66    2    3    3    0    0  0.84733225069E+01 -0.34556892846E+02  0.75407324979E+01  0.36425796977E+02  0.20000003273E+01 0.  0.
        -13    1    3    3    0    0 -0.84733225069E+01  0.34556892846E+02  0.53497580408E+02  0.64249344830E+02  0.10566000000E+00 0.  1.
         13    1    4    4    0    0  0.69986500180E+01 -0.29122271178E+02  0.60127088361E+01  0.30549167128E+02  0.10566000000E+00 0. -1.
        -13    1    4    4    0    0  0.95064545562E-01 -0.21405735289E+00 -0.24451262231E-01  0.25810795798E+00  0.10566000000E+00 0. -1.
         14    1    4    4    0    0  0.13796079433E+01 -0.52205643152E+01  0.15524749241E+01  0.56185218908E+01  0.00000000000E+00 0. -1.
<mgrwt>
<rscale>  0 0.80061280E+02</rscale>
<asrwt>0</asrwt>
<pdfrwt beam="1">  1        2 0.30489869E-02 0.80061280E+02</pdfrwt>
<pdfrwt beam="2">  1       -1 0.12439496E-01 0.80061280E+02</pdfrwt>
<totfact> 0.12365573E+05</totfact>
</mgrwt>
</event>
<event>
 8    1  0.7667702E-014  0.7959141E+02  0.7818608E-02  0.1330215E+00
          2   -1    0    0  501    0  0.00000000000E+00  0.00000000000E+00  0.65243769061E+02  0.65243769111E+02  0.25500000000E-02 0. -1.
         -1   -1    0    0    0  501 -0.00000000000E+00 -0.00000000000E+00 -0.24273554667E+02  0.24273555190E+02  0.50400000000E-02 0.  1.
         24    2    1    2    0    0  0.00000000000E+00  0.00000000000E+00  0.40970214394E+02  0.89517324301E+02  0.79591412115E+02 0.  0.
         66    2    3    3    0    0 -0.75619865177E+00 -0.13993964338E+02  0.62359169387E+02  0.63945827786E+02  0.20000025998E+01 0.  0.
        -13    1    3    3    0    0  0.75619865177E+00  0.13993964338E+02 -0.21388954992E+02  0.25571496515E+02  0.10566000000E+00 0.  1.
         13    1    4    4    0    0 -0.11790663443E+01 -0.65568210902E+01  0.28630245189E+02  0.29395309216E+02  0.10566000000E+00 0.  1.
        -13    1    4    4    0    0  0.92939202841E-01 -0.63850659899E+01  0.28922080235E+02  0.29618838508E+02  0.10566000000E+00 0. -1.
         14    1    4    4    0    0  0.32992848966E+00 -0.10520772582E+01  0.48068439623E+01  0.49316800629E+01  0.00000000000E+00 0. -1.
<mgrwt>
<rscale>  0 0.79591412E+02</rscale>
<asrwt>0</asrwt>
<pdfrwt beam="1">  1        2 0.10037503E-01 0.79591412E+02</pdfrwt>
<pdfrwt beam="2">  1       -1 0.37343931E-02 0.79591412E+02</pdfrwt>
<totfact> 0.16096935E+05</totfact>
</mgrwt>
</event>
<event>
 8    1  0.7667702E-014  0.7868819E+02  0.7818608E-02  0.1332816E+00
          2   -1    0    0  501    0  0.00000000000E+00  0.00000000000E+00  0.27474371775E+03  0.27474371776E+03  0.25500000000E-02 0. -1.
         -1   -1    0    0    0  501 -0.00000000000E+00 -0.00000000000E+00 -0.56341867033E+01  0.56341889575E+01  0.50400000000E-02 0.  1.
         24    2    1    2    0    0  0.00000000000E+00 -0.35527136788E-14  0.26910953105E+03  0.28037790672E+03  0.78688187653E+02 0.  0.
         66    2    3    3    0    0 -0.13900268800E+02  0.19888009653E+02  0.24488066671E+03  0.24608797479E+03  0.20000019939E+01 0.  0.
        -13    1    3    3    0    0  0.13900268800E+02 -0.19888009653E+02  0.24228864343E+02  0.34289931934E+02  0.10566000000E+00 0.  1.
         13    1    4    4    0    0 -0.44904933021E+01  0.70251624248E+01  0.89792818128E+02  0.90179148303E+02  0.10566000000E+00 0. -1.
        -13    1    4    4    0    0 -0.49036092991E+01  0.71787290144E+01  0.79697060200E+02  0.80169895241E+02  0.10566000000E+00 0.  1.
        -14    1    4    4    0    0 -0.45061661984E+01  0.56841182136E+01  0.75390788377E+02  0.75738931242E+02  0.00000000000E+00 0.  1.
<mgrwt>
<rscale>  0 0.78688188E+02</rscale>
<asrwt>0</asrwt>
<pdfrwt beam="1">  1        2 0.42268274E-01 0.78688188E+02</pdfrwt>
<pdfrwt beam="2">  1       -1 0.86679793E-03 0.78688188E+02</pdfrwt>
<totfact> 0.25789562E+05</totfact>
</mgrwt>
</event>
<event>
 8    1  0.8067903E-014  0.7985346E+02  0.7818608E-02  0.1329468E+00
         -1   -1    0    0    0  501 -0.00000000000E+00  0.00000000000E+00  0.21686859344E+02  0.21686859930E+02  0.50400000000E-02 0.  1.
          2   -1    0    0  501    0  0.00000000000E+00 -0.00000000000E+00 -0.73507352362E+02  0.73507352406E+02  0.25500000000E-02 0. -1.
         24    2    1    2    0    0  0.00000000000E+00  0.35527136788E-14 -0.51820493018E+02  0.95194212336E+02  0.79853456817E+02 0.  0.
         66    2    3    3    0    0 -0.94032405313E+01 -0.14712329004E+02 -0.68697594449E+02  0.70910034896E+02  0.20000021672E+01 0.  0.
        -13    1    3    3    0    0  0.94032405313E+01  0.14712329004E+02  0.16877101431E+02  0.24284177440E+02  0.10566000000E+00 0.  1.
         13    1    4    4    0    0 -0.50165825834E+01 -0.76784452772E+01 -0.37367837284E+02  0.38477149712E+02  0.10566000000E+00 0. -1.
        -13    1    4    4    0    0 -0.18034478256E+01 -0.40838626543E+01 -0.16725239803E+02  0.17311128465E+02  0.10566000000E+00 0.  1.
        -14    1    4    4    0    0 -0.25832101223E+01 -0.29500210722E+01 -0.14604517362E+02  0.15121756719E+02  0.00000000000E+00 0.  1.
<mgrwt>
<rscale>  0 0.79853457E+02</rscale>
<asrwt>0</asrwt>
<pdfrwt beam="1">  1        2 0.11308823E-01 0.79853457E+02</pdfrwt>
<pdfrwt beam="2">  1       -1 0.33364400E-02 0.79853457E+02</pdfrwt>
<totfact> 0.16423414E+05</totfact>
</mgrwt>
</event>
<event>
 8    1  0.7667702E-014  0.7172230E+02  0.7818608E-02  0.1354332E+00
          2   -1    0    0  501    0  0.00000000000E+00  0.00000000000E+00  0.32573933443E+01  0.32573943424E+01  0.25500000000E-02 0. -1.
         -1   -1    0    0    0  501 -0.00000000000E+00 -0.00000000000E+00 -0.39480093565E+03  0.39480093569E+03  0.50400000000E-02 0.  1.
         24    2    1    2    0    0  0.00000000000E+00  0.00000000000E+00 -0.39154354231E+03  0.39805833003E+03  0.71722301836E+02 0.  0.
         66    2    3    3    0    0 -0.13135332667E+02 -0.33322470316E+02 -0.20172680587E+03  0.20489174754E+03  0.20000032095E+01 0.  0.
        -13    1    3    3    0    0  0.13135332667E+02  0.33322470316E+02 -0.18981673644E+03  0.19316658249E+03  0.10566000000E+00 0.  1.
         13    1    4    4    0    0 -0.44688434776E+01 -0.11076803629E+02 -0.67607114112E+02  0.68654200041E+02  0.10566000000E+00 0. -1.
        -13    1    4    4    0    0 -0.16013386858E+01 -0.30743981727E+01 -0.17217920904E+02  0.17563717545E+02  0.10566000000E+00 0.  1.
        -14    1    4    4    0    0 -0.70651505033E+01 -0.19171268514E+02 -0.11690177085E+03  0.11867382996E+03  0.00000000000E+00 0.  1.
<mgrwt>
<rscale>  0 0.71722302E+02</rscale>
<asrwt>0</asrwt>
<pdfrwt beam="1">  1        2 0.50113783E-03 0.71722302E+02</pdfrwt>
<pdfrwt beam="2">  1       -1 0.60738568E-01 0.71722302E+02</pdfrwt>
<totfact> 0.10095146E+05</totfact>
</mgrwt>
</event>
<event>
 8    1  0.7667702E-014  0.8136039E+02  0.7818608E-02  0.1325235E+00
          2   -1    0    0  501    0  0.00000000000E+00  0.00000000000E+00  0.27176045261E+03  0.27176045262E+03  0.25500000000E-02 0. -1.
         -1   -1    0    0    0  501 -0.00000000000E+00 -0.00000000000E+00 -0.60894732977E+01  0.60894753834E+01  0.50400000000E-02 0.  1.
         24    2    1    2    0    0 -0.35527136788E-14  0.00000000000E+00  0.26567097931E+03  0.27784992800E+03  0.81360391123E+02 0.  0.
         66    2    3    3    0    0 -0.22792655399E+02 -0.23555704374E+01  0.24760329094E+03  0.24866934577E+03  0.19999978729E+01 0.  0.
        -13    1    3    3    0    0  0.22792655399E+02  0.23555704374E+01  0.18067688374E+02  0.29180582232E+02  0.10566000000E+00 0.  1.
         13    1    4    4    0    0 -0.13927003653E+02 -0.70572776345E+00  0.15685466110E+03  0.15747334808E+03  0.10566000000E+00 0. -1.
        -13    1    4    4    0    0 -0.14920864998E+01 -0.30994361157E+00  0.15499886874E+02  0.15574981358E+02  0.10566000000E+00 0.  1.
         14    1    4    4    0    0 -0.73735652457E+01 -0.13398990624E+01  0.75248742957E+02  0.75621016329E+02  0.00000000000E+00 0. -1.
<mgrwt>
<rscale>  0 0.81360391E+02</rscale>
<asrwt>0</asrwt>
<pdfrwt beam="1">  1        2 0.41809297E-01 0.81360391E+02</pdfrwt>
<pdfrwt beam="2">  1       -1 0.93684229E-03 0.81360391E+02</pdfrwt>
<totfact> 0.23531577E+05</totfact>
</mgrwt>
</event>
<event>
 8    1  0.7667702E-014  0.8061092E+02  0.7818608E-02  0.1327327E+00
          2   -1    0    0  501    0  0.00000000000E+00  0.00000000000E+00  0.30379814969E+03  0.30379814970E+03  0.25500000000E-02 0. -1.
         -1   -1    0    0    0  501 -0.00000000000E+00 -0.00000000000E+00 -0.53473984651E+01  0.53474008403E+01  0.50400000000E-02 0.  1.
         24    2    1    2    0    0  0.00000000000E+00  0.00000000000E+00  0.29845075123E+03  0.30914555054E+03  0.80610920555E+02 0.  0.
         66    2    3    3    0    0 -0.13281447242E+01  0.14588117870E+02  0.29321751828E+03  0.29359000354E+03  0.20000004896E+01 0.  0.
        -13    1    3    3    0    0  0.13281447242E+01 -0.14588117870E+02  0.52332329473E+01  0.15555547002E+02  0.10566000000E+00 0.  1.
         13    1    4    4    0    0 -0.13555796954E+01  0.13138810895E+02  0.26024249442E+03  0.26057749905E+03  0.10566000000E+00 0. -1.
        -13    1    4    4    0    0  0.29558402514E+00  0.69073723881E+00  0.14211133720E+02  0.14231372860E+02  0.10566000000E+00 0.  1.
         14    1    4    4    0    0 -0.26814905397E+00  0.75856973612E+00  0.18763890146E+02  0.18781131631E+02  0.00000000000E+00 0. -1.
<mgrwt>
<rscale>  0 0.80610921E+02</rscale>
<asrwt>0</asrwt>
<pdfrwt beam="1">  1        2 0.46738195E-01 0.80610921E+02</pdfrwt>
<pdfrwt beam="2">  1       -1 0.82267655E-03 0.80610921E+02</pdfrwt>
<totfact> 0.25104999E+05</totfact>
</mgrwt>
</event>
<event>
 8    1  0.7667702E-014  0.7973453E+02  0.7818608E-02  0.1329806E+00
          2   -1    0    0  501    0  0.00000000000E+00  0.00000000000E+00  0.12068238950E+03  0.12068238953E+03  0.25500000000E-02 0. -1.
         -1   -1    0    0    0  501 -0.00000000000E+00 -0.00000000000E+00 -0.13170096797E+02  0.13170097762E+02  0.50400000000E-02 0.  1.
         24    2    1    2    0    0  0.00000000000E+00  0.88817841970E-15  0.10751229271E+03  0.13385248729E+03  0.79734529981E+02 0.  0.
         66    2    3    3    0    0 -0.18560520438E+02 -0.65864071387E+01  0.11193104631E+03  0.11366808179E+03  0.20000032982E+01 0.  0.
        -13    1    3    3    0    0  0.18560520438E+02  0.65864071387E+01 -0.44187536006E+01  0.20184405499E+02  0.10566000000E+00 0.  1.
         13    1    4    4    0    0 -0.48861731106E+01 -0.11357032617E+01  0.31441982615E+02  0.31839816965E+02  0.10566000000E+00 0. -1.
        -13    1    4    4    0    0 -0.93275292549E+01 -0.37834349117E+01  0.57063389894E+02  0.57944445912E+02  0.10566000000E+00 0.  1.
         14    1    4    4    0    0 -0.43468180728E+01 -0.16672689653E+01  0.23425673796E+02  0.23883818915E+02  0.00000000000E+00 0. -1.
<mgrwt>
<rscale>  0 0.79734530E+02</rscale>
<asrwt>0</asrwt>
<pdfrwt beam="1">  1        2 0.18566522E-01 0.79734530E+02</pdfrwt>
<pdfrwt beam="2">  1       -1 0.20261688E-02 0.79734530E+02</pdfrwt>
<totfact> 0.18884912E+05</totfact>
</mgrwt>
</event>
<event>
 8    1  0.7667702E-014  0.7354646E+02  0.7818608E-02  0.1348432E+00
         -1   -1    0    0    0  501 -0.00000000000E+00  0.00000000000E+00  0.15870312549E+01  0.15870392577E+01  0.50400000000E-02 0.  1.
          2   -1    0    0  501    0  0.00000000000E+00 -0.00000000000E+00 -0.85207325360E+03  0.85207325360E+03  0.25500000000E-02 0. -1.
         24    2    1    2    0    0  0.00000000000E+00 -0.88817841970E-15 -0.85048622234E+03  0.85366029286E+03  0.73546456132E+02 0.  0.
         66    2    3    3    0    0 -0.24491160817E+02  0.74423308717E+01 -0.73156594184E+03  0.73201634715E+03  0.19999997522E+01 0.  0.
        -13    1    3    3    0    0  0.24491160817E+02 -0.74423308717E+01 -0.11892028051E+03  0.12164394570E+03  0.10566000000E+00 0.  1.
         13    1    4    4    0    0 -0.12413948863E+02  0.31599633598E+01 -0.36589434051E+03  0.36611852053E+03  0.10566000000E+00 0. -1.
        -13    1    4    4    0    0 -0.76428954374E+00  0.18882105066E+00 -0.30613544337E+02  0.30623847779E+02  0.10566000000E+00 0.  1.
         14    1    4    4    0    0 -0.11312922410E+02  0.40935464613E+01 -0.33505805699E+03  0.33527397885E+03  0.00000000000E+00 0. -1.
<mgrwt>
<rscale>  0 0.73546456E+02</rscale>
<asrwt>0</asrwt>
<pdfrwt beam="1">  1        2 0.13108783E+00 0.73546456E+02</pdfrwt>
<pdfrwt beam="2">  1       -1 0.24415995E-03 0.73546456E+02</pdfrwt>
<totfact> 0.43139606E+05</totfact>
</mgrwt>
</event>
<event>
 8    1  0.7667702E-014  0.8103329E+02  0.7818608E-02  0.1326144E+00
          2   -1    0    0  501    0  0.00000000000E+00  0.00000000000E+00  0.10078137337E+03  0.10078137340E+03  0.25500000000E-02 0. -1.
         -1   -1    0    0    0  501 -0.00000000000E+00 -0.00000000000E+00 -0.16288710203E+02  0.16288710983E+02  0.50400000000E-02 0.  1.
         24    2    1    2    0    0 -0.17763568394E-14  0.00000000000E+00  0.84492663163E+02  0.11707008438E+03  0.81033292718E+02 0.  0.
         66    2    3    3    0    0 -0.11453171575E+02  0.18903121595E+02  0.91287917280E+02  0.93946724164E+02  0.19999986696E+01 0.  0.
        -13    1    3    3    0    0  0.11453171575E+02 -0.18903121595E+02 -0.67952541175E+01  0.23123360217E+02  0.10566000000E+00 0.  1.
         13    1    4    4    0    0 -0.33723067428E+01  0.65283180626E+01  0.30102249290E+02  0.30986254466E+02  0.10566000000E+00 0. -1.
        -13    1    4    4    0    0 -0.59461977311E+01  0.98248300007E+01  0.49138007861E+02  0.50462258497E+02  0.10566000000E+00 0.  1.
        -14    1    4    4    0    0 -0.21346671014E+01  0.25499735318E+01  0.12047660130E+02  0.12498211202E+02  0.00000000000E+00 0.  1.
<mgrwt>
<rscale>  0 0.81033293E+02</rscale>
<asrwt>0</asrwt>
<pdfrwt beam="1">  1        2 0.15504827E-01 0.81033293E+02</pdfrwt>
<pdfrwt beam="2">  1       -1 0.25059555E-02 0.81033293E+02</pdfrwt>
<totfact> 0.17163886E+05</totfact>
</mgrwt>
</event>
<event>
 8    1  0.7667702E-014  0.8244959E+02  0.7818608E-02  0.1322240E+00
         -1   -1    0    0    0  501 -0.00000000000E+00  0.00000000000E+00  0.30302553402E+01  0.30302595316E+01  0.50400000000E-02 0.  1.
          2   -1    0    0  501    0  0.00000000000E+00 -0.00000000000E+00 -0.56083805188E+03  0.56083805189E+03  0.25500000000E-02 0. -1.
         24    2    1    2    0    0 -0.88817841970E-15  0.00000000000E+00 -0.55780779654E+03  0.56386831142E+03  0.82449589084E+02 0.  0.
         66    2    3    3    0    0  0.47172869293E+01  0.38568584734E+02 -0.37276115722E+03  0.37478616416E+03  0.19999970968E+01 0.  0.
        -13    1    3    3    0    0 -0.47172869293E+01 -0.38568584734E+02 -0.18504663932E+03  0.18908214726E+03  0.10566000000E+00 0.  1.
         13    1    4    4    0    0  0.29490972972E+01  0.21258899171E+02 -0.20067751484E+03  0.20182198616E+03  0.10566000000E+00 0. -1.
        -13    1    4    4    0    0  0.31944289801E+00  0.98764261730E+00 -0.10758038463E+02  0.10808516888E+02  0.10566000000E+00 0. -1.
         14    1    4    4    0    0  0.14487467342E+01  0.16322042946E+02 -0.16132560392E+03  0.16215566112E+03  0.00000000000E+00 0. -1.
<mgrwt>
<rscale>  0 0.82449589E+02</rscale>
<asrwt>0</asrwt>
<pdfrwt beam="1">  1        2 0.86282695E-01 0.82449589E+02</pdfrwt>
<pdfrwt beam="2">  1       -1 0.46619390E-03 0.82449589E+02</pdfrwt>
<totfact> 0.29160221E+05</totfact>
</mgrwt>
</event>
<event>
 8    1  0.7667702E-014  0.8135020E+02  0.7818608E-02  0.1325263E+00
         -1   -1    0    0    0  501 -0.00000000000E+00  0.00000000000E+00  0.54140745376E+01  0.54140768835E+01  0.50400000000E-02 0.  1.
          2   -1    0    0  501    0  0.00000000000E+00 -0.00000000000E+00 -0.30558560320E+03  0.30558560321E+03  0.25500000000E-02 0. -1.
         24    2    1    2    0    0  0.00000000000E+00  0.00000000000E+00 -0.30017152867E+03  0.31099968010E+03  0.81350196062E+02 0.  0.
         66    2    3    3    0    0 -0.33001405311E+02 -0.19422943160E+02 -0.20233077549E+03  0.20593223690E+03  0.20000029670E+01 0.  0.
        -13    1    3    3    0    0  0.33001405311E+02  0.19422943160E+02 -0.97840753180E+02  0.10506744320E+03  0.10566000000E+00 0.  1.
         13    1    4    4    0    0 -0.21808394770E+02 -0.13592807100E+02 -0.13633783562E+03  0.13873855655E+03  0.10566000000E+00 0. -1.
        -13    1    4    4    0    0 -0.51276755613E+01 -0.30137389081E+01 -0.29734796862E+02  0.30324000187E+02  0.10566000000E+00 0.  1.
         14    1    4    4    0    0 -0.60653349796E+01 -0.28163971519E+01 -0.36258143003E+02  0.36869680164E+02  0.00000000000E+00 0. -1.
<mgrwt>
<rscale>  0 0.81350196E+02</rscale>
<asrwt>0</asrwt>
<pdfrwt beam="1">  1        2 0.47013156E-01 0.81350196E+02</pdfrwt>
<pdfrwt beam="2">  1       -1 0.83293496E-03 0.81350196E+02</pdfrwt>
<totfact> 0.24562809E+05</totfact>
</mgrwt>
</event>
<event>
 8    1  0.7667702E-014  0.8025987E+02  0.7818608E-02  0.1328316E+00
         -1   -1    0    0    0  501 -0.00000000000E+00  0.00000000000E+00  0.99758720493E+01  0.99758733224E+01  0.50400000000E-02 0.  1.
          2   -1    0    0  501    0  0.00000000000E+00 -0.00000000000E+00 -0.16143065191E+03  0.16143065193E+03  0.25500000000E-02 0. -1.
         24    2    1    2    0    0  0.00000000000E+00 -0.35527136788E-14 -0.15145477986E+03  0.17140652526E+03  0.80259868905E+02 0.  0.
         66    2    3    3    0    0  0.17220524989E+02  0.24824812742E+02 -0.13209980323E+03  0.13552555407E+03  0.19999962882E+01 0.  0.
        -13    1    3    3    0    0 -0.17220524989E+02 -0.24824812742E+02 -0.19354976638E+02  0.35880971186E+02  0.10566000000E+00 0.  1.
         13    1    4    4    0    0  0.10112435577E+02  0.14944241316E+02 -0.81383264590E+02  0.83359694225E+02  0.10566000000E+00 0. -1.
        -13    1    4    4    0    0  0.98220492236E+00  0.15842134151E+01 -0.65188059646E+01  0.67808888720E+01  0.10566000000E+00 0.  1.
         14    1    4    4    0    0  0.61258844890E+01  0.82963580101E+01 -0.44197732670E+02  0.45384970973E+02  0.00000000000E+00 0. -1.
<mgrwt>
<rscale>  0 0.80259869E+02</rscale>
<asrwt>0</asrwt>
<pdfrwt beam="1">  1        2 0.24835483E-01 0.80259869E+02</pdfrwt>
<pdfrwt beam="2">  1       -1 0.15347498E-02 0.80259869E+02</pdfrwt>
<totfact> 0.20339235E+05</totfact>
</mgrwt>
</event>
<event>
 8    1  0.7667702E-014  0.8104140E+02  0.7818608E-02  0.1326122E+00
         -1   -1    0    0    0  501 -0.00000000000E+00  0.00000000000E+00  0.34412116378E+01  0.34412153286E+01  0.50400000000E-02 0.  1.
          2   -1    0    0  501    0  0.00000000000E+00 -0.00000000000E+00 -0.47713603017E+03  0.47713603017E+03  0.25500000000E-02 0. -1.
         24    2    1    2    0    0  0.00000000000E+00  0.00000000000E+00 -0.47369481853E+03  0.48057724550E+03  0.81041395553E+02 0.  0.
         66    2    3    3    0    0 -0.73297996653E+01 -0.38517549046E+02 -0.29705580255E+03  0.29963891160E+03  0.19999911489E+01 0.  0.
        -13    1    3    3    0    0  0.73297996653E+01  0.38517549046E+02 -0.17663901598E+03  0.18093833391E+03  0.10566000000E+00 0.  1.
         13    1    4    4    0    0 -0.50294650349E+01 -0.26206041919E+02 -0.20887311919E+03  0.21057075589E+03  0.10566000000E+00 0. -1.
        -13    1    4    4    0    0 -0.50551936939E+00 -0.24364695516E+01 -0.17875321649E+02  0.18047997723E+02  0.10566000000E+00 0.  1.
         14    1    4    4    0    0 -0.17948152610E+01 -0.98750375747E+01 -0.70307361716E+02  0.71020157986E+02  0.00000000000E+00 0. -1.
<mgrwt>
<rscale>  0 0.81041396E+02</rscale>
<asrwt>0</asrwt>
<pdfrwt beam="1">  1        2 0.73405491E-01 0.81041396E+02</pdfrwt>
<pdfrwt beam="2">  1       -1 0.52941784E-03 0.81041396E+02</pdfrwt>
<totfact> 0.28999495E+05</totfact>
</mgrwt>
</event>
<event>
 8    1  0.7667702E-014  0.8314031E+02  0.7818608E-02  0.1320369E+00
          2   -1    0    0  501    0  0.00000000000E+00  0.00000000000E+00  0.36694754183E+03  0.36694754184E+03  0.25500000000E-02 0. -1.
         -1   -1    0    0    0  501 -0.00000000000E+00 -0.00000000000E+00 -0.47093306037E+01  0.47093333006E+01  0.50400000000E-02 0.  1.
         24    2    1    2    0    0  0.00000000000E+00  0.00000000000E+00  0.36223821123E+03  0.37165687514E+03  0.83140310115E+02 0.  0.
         66    2    3    3    0    0  0.24803213097E+02 -0.15237646121E+02  0.31373335174E+03  0.31508729147E+03  0.20000025394E+01 0.  0.
        -13    1    3    3    0    0 -0.24803213097E+02  0.15237646121E+02  0.48504859489E+02  0.56569583676E+02  0.10566000000E+00 0.  1.
         13    1    4    4    0    0  0.12349194355E+01 -0.97199756148E+00  0.19533710901E+02  0.19597112820E+02  0.10566000000E+00 0. -1.
        -13    1    4    4    0    0  0.82920936431E+01 -0.42795890387E+01  0.10193936179E+03  0.10236561115E+03  0.10566000000E+00 0.  1.
         14    1    4    4    0    0  0.15276200018E+02 -0.99860595204E+01  0.19226027905E+03  0.19312456750E+03  0.00000000000E+00 0. -1.
<mgrwt>
<rscale>  0 0.83140310E+02</rscale>
<asrwt>0</asrwt>
<pdfrwt beam="1">  1        2 0.56453474E-01 0.83140310E+02</pdfrwt>
<pdfrwt beam="2">  1       -1 0.72451254E-03 0.83140310E+02</pdfrwt>
<totfact> 0.24776929E+05</totfact>
</mgrwt>
</event>
<event>
 8    1  0.7667702E-014  0.8005448E+02  0.7818608E-02  0.1328897E+00
          2   -1    0    0  501    0  0.00000000000E+00  0.00000000000E+00  0.61379765296E+03  0.61379765296E+03  0.25500000000E-02 0. -1.
         -1   -1    0    0    0  501 -0.00000000000E+00 -0.00000000000E+00 -0.26102715837E+01  0.26102764494E+01  0.50400000000E-02 0.  1.
         24    2    1    2    0    0  0.00000000000E+00 -0.35527136788E-14  0.61118738138E+03  0.61640792941E+03  0.80054483270E+02 0.  0.
         66    2    3    3    0    0 -0.21993779324E+02  0.27106714552E+02  0.45621211091E+03  0.45754998683E+03  0.20000006438E+01 0.  0.
        -13    1    3    3    0    0  0.21993779324E+02 -0.27106714552E+02  0.15497527047E+03  0.15885794259E+03  0.10566000000E+00 0.  1.
         13    1    4    4    0    0 -0.91915958113E+01  0.10498197912E+02  0.19103912716E+03  0.19154805366E+03  0.10566000000E+00 0. -1.
        -13    1    4    4    0    0 -0.41997356287E+01  0.57677573225E+01  0.93931119106E+02  0.94201757438E+02  0.10566000000E+00 0.  1.
        -14    1    4    4    0    0 -0.86024478842E+01  0.10840759317E+02  0.17124186465E+03  0.17180017573E+03  0.00000000000E+00 0.  1.
<mgrwt>
<rscale>  0 0.80054483E+02</rscale>
<asrwt>0</asrwt>
<pdfrwt beam="1">  1        2 0.94430554E-01 0.80054483E+02</pdfrwt>
<pdfrwt beam="2">  1       -1 0.40158000E-03 0.80054483E+02</pdfrwt>
<totfact> 0.32308068E+05</totfact>
</mgrwt>
</event>
<event>
 8    1  0.7667702E-014  0.8062223E+02  0.7818608E-02  0.1327295E+00
         -1   -1    0    0    0  501 -0.00000000000E+00  0.00000000000E+00  0.72983749815E+01  0.72983767218E+01  0.50400000000E-02 0.  1.
          2   -1    0    0  501    0  0.00000000000E+00 -0.00000000000E+00 -0.22265037121E+03  0.22265037122E+03  0.25500000000E-02 0. -1.
         24    2    1    2    0    0  0.35527136788E-14  0.35527136788E-14 -0.21535199623E+03  0.22994874794E+03  0.80622232681E+02 0.  0.
         66    2    3    3    0    0  0.10477931711E+02  0.21684225100E+02 -0.19985402662E+03  0.20130977280E+03  0.19999997509E+01 0.  0.
        -13    1    3    3    0    0 -0.10477931711E+02 -0.21684225100E+02 -0.15497969605E+02  0.28638975139E+02  0.10566000000E+00 0.  1.
         13    1    4    4    0    0  0.25359415591E+01  0.50734168758E+01 -0.47657132676E+02  0.47993583084E+02  0.10566000000E+00 0. -1.
        -13    1    4    4    0    0  0.22265857654E+00  0.15326462096E+01 -0.13104130560E+02  0.13195756251E+02  0.10566000000E+00 0.  1.
        -14    1    4    4    0    0  0.77193315753E+01  0.15078162014E+02 -0.13909276338E+03  0.14012043347E+03  0.00000000000E+00 0.  1.
<mgrwt>
<rscale>  0 0.80622233E+02</rscale>
<asrwt>0</asrwt>
<pdfrwt beam="1">  1        2 0.34253898E-01 0.80622233E+02</pdfrwt>
<pdfrwt beam="2">  1       -1 0.11228272E-02 0.80622233E+02</pdfrwt>
<totfact> 0.22441047E+05</totfact>
</mgrwt>
</event>
<event>
 8    1  0.7667702E-014  0.7808616E+02  0.7818608E-02  0.1334572E+00
          2   -1    0    0  501    0  0.00000000000E+00  0.00000000000E+00  0.39618125777E+03  0.39618125778E+03  0.25500000000E-02 0. -1.
         -1   -1    0    0    0  501 -0.00000000000E+00 -0.00000000000E+00 -0.38476364061E+01  0.38476397070E+01  0.50400000000E-02 0.  1.
         24    2    1    2    0    0 -0.17763568394E-14  0.00000000000E+00  0.39233362137E+03  0.40002889749E+03  0.78086159918E+02 0.  0.
         66    2    3    3    0    0 -0.12733436308E+02 -0.16497544874E+01  0.38504490904E+03  0.38526412246E+03  0.19999977295E+01 0.  0.
        -13    1    3    3    0    0  0.12733436308E+02  0.16497544874E+01  0.72887123268E+01  0.14764775023E+02  0.10566000000E+00 0.  1.
         13    1    4    4    0    0 -0.79473523602E+01 -0.34827900452E+00  0.23760230721E+03  0.23773546068E+03  0.10566000000E+00 0. -1.
        -13    1    4    4    0    0 -0.41760315736E+01 -0.14289970504E+01  0.12952553265E+03  0.12960075634E+03  0.10566000000E+00 0.  1.
        -14    1    4    4    0    0 -0.61005237391E+00  0.12752156753E+00  0.17917069181E+02  0.17927905446E+02  0.00000000000E+00 0.  1.
<mgrwt>
<rscale>  0 0.78086160E+02</rscale>
<asrwt>0</asrwt>
<pdfrwt beam="1">  1        2 0.60950978E-01 0.78086160E+02</pdfrwt>
<pdfrwt beam="2">  1       -1 0.59194417E-03 0.78086160E+02</pdfrwt>
<totfact> 0.29995489E+05</totfact>
</mgrwt>
</event>
<event>
 8    1  0.7667702E-014  0.8248835E+02  0.7818608E-02  0.1322135E+00
         -1   -1    0    0    0  501 -0.00000000000E+00  0.00000000000E+00  0.16180421631E+01  0.16180500126E+01  0.50400000000E-02 0.  1.
          2   -1    0    0  501    0  0.00000000000E+00 -0.00000000000E+00 -0.10513185101E+04  0.10513185101E+04  0.25500000000E-02 0. -1.
         24    2    1    2    0    0  0.00000000000E+00  0.00000000000E+00 -0.10497004679E+04  0.10529365601E+04  0.82488346092E+02 0.  0.
         66    2    3    3    0    0 -0.29644393643E+02 -0.51365132443E+01 -0.88481889148E+03  0.88533250509E+03  0.20000005254E+01 0.  0.
        -13    1    3    3    0    0  0.29644393643E+02  0.51365132443E+01 -0.16488157644E+03  0.16760405501E+03  0.10566000000E+00 0.  1.
         13    1    4    4    0    0 -0.69807829638E+01 -0.36189601901E+00 -0.20486288971E+03  0.20498213835E+03  0.10566000000E+00 0. -1.
        -13    1    4    4    0    0 -0.12219566737E+02 -0.25680623896E+01 -0.36672296437E+03  0.36693549367E+03  0.10566000000E+00 0.  1.
         14    1    4    4    0    0 -0.10444043943E+02 -0.22065548357E+01 -0.31323303740E+03  0.31341487306E+03  0.00000000000E+00 0. -1.
<mgrwt>
<rscale>  0 0.82488346E+02</rscale>
<asrwt>0</asrwt>
<pdfrwt beam="1">  1        2 0.16174076E+00 0.82488346E+02</pdfrwt>
<pdfrwt beam="2">  1       -1 0.24893101E-03 0.82488346E+02</pdfrwt>
<totfact> 0.32572524E+05</totfact>
</mgrwt>
</event>
<event>
 8    1  0.7667702E-014  0.8089052E+02  0.7818608E-02  0.1326543E+00
         -1   -1    0    0    0  501 -0.00000000000E+00  0.00000000000E+00  0.52329464116E+01  0.52329488387E+01  0.50400000000E-02 0.  1.
          2   -1    0    0  501    0  0.00000000000E+00 -0.00000000000E+00 -0.31259994139E+03  0.31259994141E+03  0.25500000000E-02 0. -1.
         24    2    1    2    0    0  0.00000000000E+00  0.00000000000E+00 -0.30736699498E+03  0.31783289024E+03  0.80890521792E+02 0.  0.
         66    2    3    3    0    0  0.13261872773E+02 -0.18534105815E+02 -0.28494472951E+03  0.28586166097E+03  0.19999985290E+01 0.  0.
        -13    1    3    3    0    0 -0.13261872773E+02  0.18534105815E+02 -0.22422265477E+02  0.31971229269E+02  0.10566000000E+00 0.  1.
         13    1    4    4    0    0  0.37828477736E+01 -0.53262942035E+01 -0.88315126384E+02  0.88556490781E+02  0.10566000000E+00 0. -1.
        -13    1    4    4    0    0  0.48113009800E+00 -0.12862170502E+01 -0.16438416991E+02  0.16496016419E+02  0.10566000000E+00 0.  1.
        -14    1    4    4    0    0  0.89978949013E+01 -0.11921594562E+02 -0.18019118613E+03  0.18080915378E+03  0.00000000000E+00 0.  1.
<mgrwt>
<rscale>  0 0.80890522E+02</rscale>
<asrwt>0</asrwt>
<pdfrwt beam="1">  1        2 0.48092284E-01 0.80890522E+02</pdfrwt>
<pdfrwt beam="2">  1       -1 0.80506912E-03 0.80890522E+02</pdfrwt>
<totfact> 0.25136504E+05</totfact>
</mgrwt>
</event>
<event>
 8    1  0.7667702E-014  0.7983113E+02  0.7818608E-02  0.1329531E+00
          2   -1    0    0  501    0  0.00000000000E+00  0.00000000000E+00  0.54942470999E+02  0.54942471058E+02  0.25500000000E-02 0. -1.
         -1   -1    0    0    0  501 -0.00000000000E+00 -0.00000000000E+00 -0.28998558322E+02  0.28998558760E+02  0.50400000000E-02 0.  1.
         24    2    1    2    0    0  0.00000000000E+00  0.00000000000E+00  0.25943912678E+02  0.83941029818E+02  0.79831133538E+02 0.  0.
         66    2    3    3    0    0 -0.18903730355E+02 -0.19892872477E+02  0.43421718065E+02  0.51405476312E+02  0.19999996040E+01 0.  0.
        -13    1    3    3    0    0  0.18903730355E+02  0.19892872477E+02 -0.17477805388E+02  0.32535553506E+02  0.10566000000E+00 0.  1.
         13    1    4    4    0    0 -0.12608749749E+02 -0.13531178227E+02  0.30503258030E+02  0.35672584276E+02  0.10566000000E+00 0. -1.
        -13    1    4    4    0    0 -0.27716350992E+01 -0.23589582225E+01  0.49570799290E+01  0.61506463462E+01  0.10566000000E+00 0.  1.
         14    1    4    4    0    0 -0.35233455068E+01 -0.40027360270E+01  0.79613801067E+01  0.95822456901E+01  0.00000000000E+00 0. -1.
<mgrwt>
<rscale>  0 0.79831134E+02</rscale>
<asrwt>0</asrwt>
<pdfrwt beam="1">  1        2 0.84526878E-02 0.79831134E+02</pdfrwt>
<pdfrwt beam="2">  1       -1 0.44613167E-02 0.79831134E+02</pdfrwt>
<totfact> 0.15345636E+05</totfact>
</mgrwt>
</event>
<event>
 8    1  0.7667702E-014  0.7973703E+02  0.7818608E-02  0.1329799E+00
          2   -1    0    0  501    0  0.00000000000E+00  0.00000000000E+00  0.30211947763E+03  0.30211947764E+03  0.25500000000E-02 0. -1.
         -1   -1    0    0    0  501 -0.00000000000E+00 -0.00000000000E+00 -0.52611570827E+01  0.52611594968E+01  0.50400000000E-02 0.  1.
         24    2    1    2    0    0  0.00000000000E+00  0.00000000000E+00  0.29685832054E+03  0.30738063713E+03  0.79737027841E+02 0.  0.
         66    2    3    3    0    0  0.18978537627E+02  0.24889486456E+02  0.24356189786E+03  0.24557294133E+03  0.19999985753E+01 0.  0.
        -13    1    3    3    0    0 -0.18978537627E+02 -0.24889486456E+02  0.53296422680E+02  0.61807695807E+02  0.10566000000E+00 0.  1.
         13    1    4    4    0    0  0.25423063089E+01  0.32345052961E+01  0.32932682980E+02  0.33188825200E+02  0.10566000000E+00 0. -1.
        -13    1    4    4    0    0  0.67771132599E+00  0.72399110160E+00  0.56593442815E+01  0.57465465707E+01  0.10566000000E+00 0.  1.
        -14    1    4    4    0    0  0.15758519993E+02  0.20930990058E+02  0.20496987060E+03  0.20663756956E+03  0.00000000000E+00 0.  1.
<mgrwt>
<rscale>  0 0.79737028E+02</rscale>
<asrwt>0</asrwt>
<pdfrwt beam="1">  1        2 0.46479922E-01 0.79737028E+02</pdfrwt>
<pdfrwt beam="2">  1       -1 0.80940894E-03 0.79737028E+02</pdfrwt>
<totfact> 0.25781084E+05</totfact>
</mgrwt>
</event>
<event>
 8    1  0.7667702E-014  0.8106636E+02  0.7818608E-02  0.1326052E+00
          2   -1    0    0  501    0  0.00000000000E+00  0.00000000000E+00  0.19692158324E+03  0.19692158326E+03  0.25500000000E-02 0. -1.
         -1   -1    0    0    0  501 -0.00000000000E+00 -0.00000000000E+00 -0.83431098551E+01  0.83431113774E+01  0.50400000000E-02 0.  1.
         24    2    1    2    0    0 -0.35527136788E-14 -0.17763568394E-14  0.18857847339E+03  0.20526469464E+03  0.81066357012E+02 0.  0.
         66    2    3    3    0    0  0.30467486337E+02 -0.15644150720E+02  0.14911894354E+03  0.15301459574E+03  0.20000024323E+01 0.  0.
        -13    1    3    3    0    0 -0.30467486337E+02  0.15644150720E+02  0.39459529847E+02  0.52250098902E+02  0.10566000000E+00 0.  1.
         13    1    4    4    0    0  0.21463235981E+02 -0.10999365277E+02  0.10147066911E+03  0.10429748027E+03  0.10566000000E+00 0. -1.
        -13    1    4    4    0    0  0.66336197748E+01 -0.31318575549E+01  0.34366766207E+02  0.35141132973E+02  0.10566000000E+00 0.  1.
        -14    1    4    4    0    0  0.23706305814E+01 -0.15129278881E+01  0.13281508222E+02  0.13575982498E+02  0.00000000000E+00 0.  1.
<mgrwt>
<rscale>  0 0.81066357E+02</rscale>
<asrwt>0</asrwt>
<pdfrwt beam="1">  1        2 0.30295630E-01 0.81066357E+02</pdfrwt>
<pdfrwt beam="2">  1       -1 0.12835554E-02 0.81066357E+02</pdfrwt>
<totfact> 0.21186173E+05</totfact>
</mgrwt>
</event>
<event>
 8    1  0.7667702E-014  0.8034266E+02  0.7818608E-02  0.1328082E+00
          2   -1    0    0  501    0  0.00000000000E+00  0.00000000000E+00  0.25097498885E+03  0.25097498887E+03  0.25500000000E-02 0. -1.
         -1   -1    0    0    0  501 -0.00000000000E+00 -0.00000000000E+00 -0.64298661074E+01  0.64298680827E+01  0.50400000000E-02 0.  1.
         24    2    1    2    0    0  0.00000000000E+00 -0.71054273576E-14  0.24454512275E+03  0.25740485695E+03  0.80342661906E+02 0.  0.
         66    2    3    3    0    0  0.14565135315E+02 -0.34912404485E+02  0.79279228970E+02  0.87864755607E+02  0.19999945134E+01 0.  0.
        -13    1    3    3    0    0 -0.14565135315E+02  0.34912404485E+02  0.16526589378E+03  0.16954010134E+03  0.10566000000E+00 0.  1.
         13    1    4    4    0    0  0.17484369601E+01 -0.52021116071E+01  0.10722917006E+02  0.12046207293E+02  0.10566000000E+00 0. -1.
        -13    1    4    4    0    0  0.13815538932E+01 -0.27637628026E+01  0.72819915446E+01  0.79111087010E+01  0.10566000000E+00 0.  1.
        -14    1    4    4    0    0  0.11435144462E+02 -0.26946530075E+02  0.61274320419E+02  0.67907439613E+02  0.00000000000E+00 0.  1.
<mgrwt>
<rscale>  0 0.80342662E+02</rscale>
<asrwt>0</asrwt>
<pdfrwt beam="1">  1        2 0.38611536E-01 0.80342662E+02</pdfrwt>
<pdfrwt beam="2">  1       -1 0.98921036E-03 0.80342662E+02</pdfrwt>
<totfact> 0.23634563E+05</totfact>
</mgrwt>
</event>
<event>
 8    1  0.7667702E-014  0.7866365E+02  0.7818608E-02  0.1332887E+00
         -1   -1    0    0    0  501 -0.00000000000E+00  0.00000000000E+00  0.25816816477E+01  0.25816865672E+01  0.50400000000E-02 0.  1.
          2   -1    0    0  501    0  0.00000000000E+00 -0.00000000000E+00 -0.59921838238E+03  0.59921838239E+03  0.25500000000E-02 0. -1.
         24    2    1    2    0    0  0.00000000000E+00  0.00000000000E+00 -0.59663670073E+03  0.60180006895E+03  0.78663653174E+02 0.  0.
         66    2    3    3    0    0 -0.71626691772E+01 -0.31027399755E+02 -0.47479710738E+03  0.47586794026E+03  0.20000058952E+01 0.  0.
        -13    1    3    3    0    0  0.71626691772E+01  0.31027399755E+02 -0.12183959335E+03  0.12593212869E+03  0.10566000000E+00 0.  1.
         13    1    4    4    0    0 -0.48538220637E+01 -0.17774525510E+02 -0.28398240117E+03  0.28457952963E+03  0.10566000000E+00 0. -1.
        -13    1    4    4    0    0 -0.17672742774E+01 -0.10415438867E+02 -0.15034464413E+03  0.15071538677E+03  0.10566000000E+00 0.  1.
         14    1    4    4    0    0 -0.54157283605E+00 -0.28374353784E+01 -0.40470062083E+02  0.40573023866E+02  0.00000000000E+00 0. -1.
<mgrwt>
<rscale>  0 0.78663653E+02</rscale>
<asrwt>0</asrwt>
<pdfrwt beam="1">  1        2 0.92187333E-01 0.78663653E+02</pdfrwt>
<pdfrwt beam="2">  1       -1 0.39718265E-03 0.78663653E+02</pdfrwt>
<totfact> 0.33591331E+05</totfact>
</mgrwt>
</event>
<event>
 8    1  0.7667702E-014  0.8730166E+02  0.7818608E-02  0.1309521E+00
         -1   -1    0    0    0  501 -0.00000000000E+00  0.00000000000E+00  0.48446253410E+01  0.48446279627E+01  0.50400000000E-02 0.  1.
          2   -1    0    0  501    0  0.00000000000E+00 -0.00000000000E+00 -0.39330065777E+03  0.39330065777E+03  0.25500000000E-02 0. -1.
         24    2    1    2    0    0  0.71054273576E-14  0.00000000000E+00 -0.38845603242E+03  0.39814528574E+03  0.87301657643E+02 0.  0.
         66    2    3    3    0    0 -0.35795848921E+02 -0.57124877270E+01 -0.30505053742E+03  0.30720319934E+03  0.19999981127E+01 0.  0.
        -13    1    3    3    0    0  0.35795848921E+02  0.57124877270E+01 -0.83405495009E+02  0.90942086394E+02  0.10566000000E+00 0.  1.
         13    1    4    4    0    0 -0.19040573357E+02 -0.23607261567E+01 -0.15987448121E+03  0.16102166738E+03  0.10566000000E+00 0. -1.
        -13    1    4    4    0    0 -0.37471696051E+01 -0.91947985022E+00 -0.29748777571E+02  0.29998127512E+02  0.10566000000E+00 0.  1.
         14    1    4    4    0    0 -0.13008105959E+02 -0.24322817201E+01 -0.11542727864E+03  0.11618340445E+03  0.00000000000E+00 0. -1.
<mgrwt>
<rscale>  0 0.87301658E+02</rscale>
<asrwt>0</asrwt>
<pdfrwt beam="1">  1        2 0.60507768E-01 0.87301658E+02</pdfrwt>
<pdfrwt beam="2">  1       -1 0.74532749E-03 0.87301658E+02</pdfrwt>
<totfact> 0.22334176E+05</totfact>
</mgrwt>
</event>
<event>
 8    1  0.7667702E-014  0.7723330E+02  0.7818608E-02  0.1337091E+00
         -1   -1    0    0    0  501 -0.00000000000E+00  0.00000000000E+00  0.53521320418E+02  0.53521320655E+02  0.50400000000E-02 0.  1.
          2   -1    0    0  501    0  0.00000000000E+00 -0.00000000000E+00 -0.27862645363E+02  0.27862645479E+02  0.25500000000E-02 0. -1.
         24    2    1    2    0    0  0.44408920985E-15  0.00000000000E+00  0.25658675055E+02  0.81383966135E+02  0.77233298118E+02 0.  0.
         66    2    3    3    0    0  0.25860398733E+01 -0.38351938285E+02  0.16439479147E+02  0.41854692049E+02  0.19999998618E+01 0.  0.
        -13    1    3    3    0    0 -0.25860398733E+01  0.38351938285E+02  0.92191959081E+01  0.39529274085E+02  0.10566000000E+00 0.  1.
         13    1    4    4    0    0  0.12898356161E+01 -0.16217505842E+02  0.76747853979E+01  0.17988459261E+02  0.10566000000E+00 0.  1.
        -13    1    4    4    0    0  0.11136347688E+01 -0.14630594696E+02  0.53260435111E+01  0.15610009195E+02  0.10566000000E+00 0. -1.
        -14    1    4    4    0    0  0.18256948849E+00 -0.75038377477E+01  0.34386502382E+01  0.82562235933E+01  0.00000000000E+00 0.  1.
<mgrwt>
<rscale>  0 0.77233298E+02</rscale>
<asrwt>0</asrwt>
<pdfrwt beam="1">  1        2 0.42865609E-02 0.77233298E+02</pdfrwt>
<pdfrwt beam="2">  1       -1 0.82340493E-02 0.77233298E+02</pdfrwt>
<totfact> 0.14636815E+05</totfact>
</mgrwt>
</event>
<event>
 8    1  0.7667702E-014  0.7949598E+02  0.7818608E-02  0.1330488E+00
         -1   -1    0    0    0  501 -0.00000000000E+00  0.00000000000E+00  0.31677379717E+01  0.31677419811E+01  0.50400000000E-02 0.  1.
          2   -1    0    0  501    0  0.00000000000E+00 -0.00000000000E+00 -0.49874754640E+03  0.49874754641E+03  0.25500000000E-02 0. -1.
         24    2    1    2    0    0  0.00000000000E+00  0.00000000000E+00 -0.49557980843E+03  0.50191528839E+03  0.79495975970E+02 0.  0.
         66    2    3    3    0    0  0.81533295246E+01  0.24546725447E+02 -0.43828992913E+03  0.43905703558E+03  0.19999998623E+01 0.  0.
        -13    1    3    3    0    0 -0.81533295246E+01 -0.24546725447E+02 -0.57289879301E+02  0.62858252814E+02  0.10566000000E+00 0.  1.
         13    1    4    4    0    0  0.54618741705E+01  0.17456827137E+02 -0.31210093525E+03  0.31263649472E+03  0.10566000000E+00 0. -1.
        -13    1    4    4    0    0  0.25683324192E+01  0.66681856010E+01 -0.12184207990E+03  0.12205148352E+03  0.10566000000E+00 0.  1.
        -14    1    4    4    0    0  0.12312293491E+00  0.42171270883E+00 -0.43469139812E+01  0.43690573384E+01  0.00000000000E+00 0.  1.
<mgrwt>
<rscale>  0 0.79495976E+02</rscale>
<asrwt>0</asrwt>
<pdfrwt beam="1">  1        2 0.76730330E-01 0.79495976E+02</pdfrwt>
<pdfrwt beam="2">  1       -1 0.48734501E-03 0.79495976E+02</pdfrwt>
<totfact> 0.30932184E+05</totfact>
</mgrwt>
</event>
<event>
 8    1  0.7667702E-014  0.8027831E+02  0.7818608E-02  0.1328263E+00
         -1   -1    0    0    0  501 -0.00000000000E+00  0.00000000000E+00  0.26817384418E+01  0.26817431778E+01  0.50400000000E-02 0.  1.
          2   -1    0    0  501    0  0.00000000000E+00 -0.00000000000E+00 -0.60078584944E+03  0.60078584944E+03  0.25500000000E-02 0. -1.
         24    2    1    2    0    0 -0.35527136788E-14  0.00000000000E+00 -0.59810411100E+03  0.60346759262E+03  0.80278314341E+02 0.  0.
         66    2    3    3    0    0 -0.27583429251E+02  0.14214137811E+02 -0.49033651537E+03  0.49132146868E+03  0.20000005194E+01 0.  0.
        -13    1    3    3    0    0  0.27583429251E+02 -0.14214137811E+02 -0.10776759563E+03  0.11214612394E+03  0.10566000000E+00 0.  1.
         13    1    4    4    0    0 -0.18521147444E+01  0.91412662383E+00 -0.26523992803E+02  0.26604498017E+02  0.10566000000E+00 0. -1.
        -13    1    4    4    0    0 -0.74021226768E+01  0.42391512746E+01 -0.13918754726E+03  0.13944872283E+03  0.10566000000E+00 0.  1.
         14    1    4    4    0    0 -0.18329191830E+02  0.90608599131E+01 -0.32462497531E+03  0.32526824783E+03  0.00000000000E+00 0. -1.
<mgrwt>
<rscale>  0 0.80278314E+02</rscale>
<asrwt>0</asrwt>
<pdfrwt beam="1">  1        2 0.92428485E-01 0.80278314E+02</pdfrwt>
<pdfrwt beam="2">  1       -1 0.41257599E-03 0.80278314E+02</pdfrwt>
<totfact> 0.31885722E+05</totfact>
</mgrwt>
</event>
<event>
 8    1  0.7667702E-014  0.8165662E+02  0.7818608E-02  0.1324415E+00
         -1   -1    0    0    0  501 -0.00000000000E+00  0.00000000000E+00  0.97929719102E+02  0.97929719232E+02  0.50400000000E-02 0.  1.
          2   -1    0    0  501    0  0.00000000000E+00 -0.00000000000E+00 -0.17021909281E+02  0.17021909472E+02  0.25500000000E-02 0. -1.
         24    2    1    2    0    0  0.00000000000E+00  0.00000000000E+00  0.80907809821E+02  0.11495162870E+03  0.81656617930E+02 0.  0.
         66    2    3    3    0    0 -0.11811992518E+02 -0.11070165126E+02 -0.12248898080E+02  0.20398706411E+02  0.19999989851E+01 0.  0.
        -13    1    3    3    0    0  0.11811992518E+02  0.11070165126E+02  0.93156707901E+02  0.94552922293E+02  0.10566000000E+00 0.  1.
         13    1    4    4    0    0 -0.46283589138E+01 -0.37418833596E+01 -0.36554941863E+01  0.69854992014E+01  0.10566000000E+00 0. -1.
        -13    1    4    4    0    0 -0.38953965001E+01 -0.39744882677E+01 -0.41004304846E+01  0.69134192031E+01  0.10566000000E+00 0.  1.
        -14    1    4    4    0    0 -0.32882371037E+01 -0.33537934986E+01 -0.44929734089E+01  0.64997880069E+01  0.00000000000E+00 0.  1.
<mgrwt>
<rscale>  0 0.81656618E+02</rscale>
<asrwt>0</asrwt>
<pdfrwt beam="1">  1        2 0.26187553E-02 0.81656618E+02</pdfrwt>
<pdfrwt beam="2">  1       -1 0.15066110E-01 0.81656618E+02</pdfrwt>
<totfact> 0.11313654E+05</totfact>
</mgrwt>
</event>
<event>
 8    1  0.7667702E-014  0.8020885E+02  0.7818608E-02  0.1328460E+00
          2   -1    0    0  501    0  0.00000000000E+00  0.00000000000E+00  0.90839314428E+03  0.90839314428E+03  0.25500000000E-02 0. -1.
         -1   -1    0    0    0  501 -0.00000000000E+00 -0.00000000000E+00 -0.17705568897E+01  0.17705640631E+01  0.50400000000E-02 0.  1.
         24    2    1    2    0    0  0.00000000000E+00 -0.17763568394E-14  0.90662258739E+03  0.91016370834E+03  0.80208852535E+02 0.  0.
         66    2    3    3    0    0  0.13639034547E+02  0.11699739226E+02  0.86011727567E+03  0.86030729107E+03  0.20000005151E+01 0.  0.
        -13    1    3    3    0    0 -0.13639034547E+02 -0.11699739226E+02  0.46505311717E+02  0.49856417272E+02  0.10566000000E+00 0.  1.
         13    1    4    4    0    0  0.62338554473E+01  0.48405074338E+01  0.39074111962E+03  0.39082083516E+03  0.10566000000E+00 0. -1.
        -13    1    4    4    0    0  0.10993992450E+01  0.50036713491E+00  0.50076815585E+02  0.50091492981E+02  0.10566000000E+00 0.  1.
         14    1    4    4    0    0  0.63057798548E+01  0.63588646575E+01  0.41929934047E+03  0.41939496293E+03  0.00000000000E+00 0. -1.
<mgrwt>
<rscale>  0 0.80208853E+02</rscale>
<asrwt>0</asrwt>
<pdfrwt beam="1">  1        2 0.13975269E+00 0.80208853E+02</pdfrwt>
<pdfrwt beam="2">  1       -1 0.27239412E-03 0.80208853E+02</pdfrwt>
<totfact> 0.34745322E+05</totfact>
</mgrwt>
</event>
<event>
 8    1  0.7667702E-014  0.8319549E+02  0.7818608E-02  0.1320220E+00
          2   -1    0    0  501    0  0.00000000000E+00  0.00000000000E+00  0.11553034402E+03  0.11553034405E+03  0.25500000000E-02 0. -1.
         -1   -1    0    0    0  501 -0.00000000000E+00 -0.00000000000E+00 -0.14977642797E+02  0.14977643645E+02  0.50400000000E-02 0.  1.
         24    2    1    2    0    0  0.00000000000E+00  0.35527136788E-14  0.10055270123E+03  0.13050798770E+03  0.83195487429E+02 0.  0.
         66    2    3    3    0    0 -0.70192194937E+01  0.29863598199E+02  0.94319983140E+02  0.99203644891E+02  0.20000000634E+01 0.  0.
        -13    1    3    3    0    0  0.70192194937E+01 -0.29863598199E+02  0.62327180861E+01  0.31304342806E+02  0.10566000000E+00 0.  1.
         13    1    4    4    0    0 -0.43388068828E+01  0.16179427220E+02  0.49095850961E+02  0.51874973310E+02  0.10566000000E+00 0. -1.
        -13    1    4    4    0    0 -0.14908843698E+01  0.70014950868E+01  0.22344160210E+02  0.23463084392E+02  0.10566000000E+00 0.  1.
        -14    1    4    4    0    0 -0.11895282411E+01  0.66826758925E+01  0.22879971969E+02  0.23865587188E+02  0.00000000000E+00 0.  1.
<mgrwt>
<rscale>  0 0.83195487E+02</rscale>
<asrwt>0</asrwt>
<pdfrwt beam="1">  1        2 0.17773900E-01 0.83195487E+02</pdfrwt>
<pdfrwt beam="2">  1       -1 0.23042527E-02 0.83195487E+02</pdfrwt>
<totfact> 0.16638932E+05</totfact>
</mgrwt>
</event>
<event>
 8    1  0.7667702E-014  0.7859620E+02  0.7818608E-02  0.1333083E+00
         -1   -1    0    0    0  501 -0.00000000000E+00  0.00000000000E+00  0.74858385611E+01  0.74858402578E+01  0.50400000000E-02 0.  1.
          2   -1    0    0  501    0  0.00000000000E+00 -0.00000000000E+00 -0.20630159003E+03  0.20630159005E+03  0.25500000000E-02 0. -1.
         24    2    1    2    0    0  0.35527136788E-14  0.00000000000E+00 -0.19881575147E+03  0.21378743031E+03  0.78596197896E+02 0.  0.
         66    2    3    3    0    0  0.29016360440E+02  0.26463950516E+02 -0.10005414035E+03  0.10750405040E+03  0.19999999774E+01 0.  0.
        -13    1    3    3    0    0 -0.29016360440E+02 -0.26463950516E+02 -0.98761611118E+02  0.10628337991E+03  0.10566000000E+00 0.  1.
         13    1    4    4    0    0  0.17528137933E+02  0.16447409682E+02 -0.60497703240E+02  0.65097896787E+02  0.10566000000E+00 0. -1.
        -13    1    4    4    0    0  0.82315097283E+01  0.77691714573E+01 -0.28751052879E+02  0.30899061203E+02  0.10566000000E+00 0.  1.
        -14    1    4    4    0    0  0.32567127784E+01  0.22473693768E+01 -0.10805384234E+02  0.11507092408E+02  0.00000000000E+00 0.  1.
<mgrwt>
<rscale>  0 0.78596198E+02</rscale>
<asrwt>0</asrwt>
<pdfrwt beam="1">  1        2 0.31738702E-01 0.78596198E+02</pdfrwt>
<pdfrwt beam="2">  1       -1 0.11516678E-02 0.78596198E+02</pdfrwt>
<totfact> 0.23362918E+05</totfact>
</mgrwt>
</event>
<event>
 8    1  0.7667702E-014  0.7535595E+02  0.7818608E-02  0.1342772E+00
          2   -1    0    0  501    0  0.00000000000E+00  0.00000000000E+00  0.56774269469E+01  0.56774275195E+01  0.25500000000E-02 0. -1.
         -1   -1    0    0    0  501 -0.00000000000E+00 -0.00000000000E+00 -0.25004807327E+03  0.25004807332E+03  0.50400000000E-02 0.  1.
         24    2    1    2    0    0  0.00000000000E+00  0.00000000000E+00 -0.24437064632E+03  0.25572550084E+03  0.75355948641E+02 0.  0.
         66    2    3    3    0    0 -0.56505085382E+01 -0.37120609453E+02 -0.11281960675E+03  0.11892069439E+03  0.19999981373E+01 0.  0.
        -13    1    3    3    0    0  0.56505085382E+01  0.37120609453E+02 -0.13155103957E+03  0.13680480645E+03  0.10566000000E+00 0.  1.
         13    1    4    4    0    0 -0.16306530535E+01 -0.10239616003E+02 -0.30469522405E+02  0.32185582563E+02  0.10566000000E+00 0. -1.
        -13    1    4    4    0    0 -0.40685924324E+01 -0.25362473716E+02 -0.78513586878E+02  0.82608734440E+02  0.10566000000E+00 0.  1.
        -14    1    4    4    0    0  0.48736947677E-01 -0.15185197338E+01 -0.38364974707E+01  0.41263773840E+01  0.00000000000E+00 0.  1.
<mgrwt>
<rscale>  0 0.75355949E+02</rscale>
<asrwt>0</asrwt>
<pdfrwt beam="1">  1        2 0.87345054E-03 0.75355949E+02</pdfrwt>
<pdfrwt beam="2">  1       -1 0.38468926E-01 0.75355949E+02</pdfrwt>
<totfact> 0.10787322E+05</totfact>
</mgrwt>
</event>
<event>
 8    1  0.7667702E-014  0.7930163E+02  0.7818608E-02  0.1331045E+00
          2   -1    0    0  501    0  0.00000000000E+00  0.00000000000E+00  0.19604727486E+02  0.19604727652E+02  0.25500000000E-02 0. -1.
         -1   -1    0    0    0  501 -0.00000000000E+00 -0.00000000000E+00 -0.80194283226E+02  0.80194283385E+02  0.50400000000E-02 0.  1.
         24    2    1    2    0    0  0.00000000000E+00 -0.35527136788E-14 -0.60589555740E+02  0.99799011037E+02  0.79301628855E+02 0.  0.
         66    2    3    3    0    0  0.71195618482E+01  0.29378697874E+02  0.19281432886E+01  0.30356445520E+02  0.19999995986E+01 0.  0.
        -13    1    3    3    0    0 -0.71195618482E+01 -0.29378697874E+02 -0.62517699029E+02  0.69442565517E+02  0.10566000000E+00 0.  1.
         13    1    4    4    0    0  0.21162271548E+01  0.80106281791E+01  0.40457443894E+00  0.82959885310E+01  0.10566000000E+00 0. -1.
        -13    1    4    4    0    0  0.34293159786E+01  0.15874161791E+02  0.17916649082E+01  0.16339230332E+02  0.10566000000E+00 0.  1.
        -14    1    4    4    0    0  0.15740187148E+01  0.54939079034E+01 -0.26809605851E+00  0.57212266571E+01  0.00000000000E+00 0.  1.
<mgrwt>
<rscale>  0 0.79301629E+02</rscale>
<asrwt>0</asrwt>
<pdfrwt beam="1">  1        2 0.30161120E-02 0.79301629E+02</pdfrwt>
<pdfrwt beam="2">  1       -1 0.12337582E-01 0.79301629E+02</pdfrwt>
<totfact> 0.12681110E+05</totfact>
</mgrwt>
</event>
<event>
 8    1  0.7667702E-014  0.8193189E+02  0.7818608E-02  0.1323657E+00
         -1   -1    0    0    0  501 -0.00000000000E+00  0.00000000000E+00  0.60826477373E+02  0.60826477581E+02  0.50400000000E-02 0.  1.
          2   -1    0    0  501    0  0.00000000000E+00 -0.00000000000E+00 -0.27590103327E+02  0.27590103445E+02  0.25500000000E-02 0. -1.
         24    2    1    2    0    0  0.00000000000E+00 -0.71054273576E-14  0.33236374046E+02  0.88416581026E+02  0.81931893916E+02 0.  0.
         66    2    3    3    0    0  0.11684764543E+02  0.39207413037E+02  0.18316801180E+02  0.44869367820E+02  0.20000009043E+01 0.  0.
        -13    1    3    3    0    0 -0.11684764543E+02 -0.39207413037E+02  0.14919572866E+02  0.43547213206E+02  0.10566000000E+00 0.  1.
         13    1    4    4    0    0  0.85005550072E+01  0.29467988039E+02  0.14361418475E+02  0.33865664901E+02  0.10566000000E+00 0. -1.
        -13    1    4    4    0    0  0.13522226090E+01  0.50964594292E+01  0.18981864262E+01  0.56050584690E+01  0.10566000000E+00 0.  1.
        -14    1    4    4    0    0  0.18319869266E+01  0.46429655687E+01  0.20571962784E+01  0.53986444501E+01  0.00000000000E+00 0.  1.
<mgrwt>
<rscale>  0 0.81931894E+02</rscale>
<asrwt>0</asrwt>
<pdfrwt beam="1">  1        2 0.42446314E-02 0.81931894E+02</pdfrwt>
<pdfrwt beam="2">  1       -1 0.93579195E-02 0.81931894E+02</pdfrwt>
<totfact> 0.12373255E+05</totfact>
</mgrwt>
</event>
<event>
 8    1  0.7667702E-014  0.8209515E+02  0.7818608E-02  0.1323209E+00
         -1   -1    0    0    0  501 -0.00000000000E+00  0.00000000000E+00  0.29128068653E+02  0.29128069089E+02  0.50400000000E-02 0.  1.
          2   -1    0    0  501    0  0.00000000000E+00 -0.00000000000E+00 -0.57844669974E+02  0.57844670030E+02  0.25500000000E-02 0. -1.
         24    2    1    2    0    0  0.00000000000E+00  0.88817841970E-15 -0.28716601320E+02  0.86972739119E+02  0.82095153076E+02 0.  0.
         66    2    3    3    0    0  0.39967132346E+02  0.73926128274E+01 -0.20253571356E+02  0.45455797607E+02  0.19999977562E+01 0.  0.
        -13    1    3    3    0    0 -0.39967132346E+02 -0.73926128274E+01 -0.84630299643E+01  0.41516941513E+02  0.10566000000E+00 0.  1.
         13    1    4    4    0    0  0.30893598136E+02  0.58931063217E+01 -0.16476029354E+02  0.35505123788E+02  0.10566000000E+00 0. -1.
        -13    1    4    4    0    0  0.18261981126E+01  0.43947562884E+00 -0.76555238058E+00  0.20311013903E+01  0.10566000000E+00 0.  1.
        -14    1    4    4    0    0  0.72473360966E+01  0.10600308769E+01 -0.30119896218E+01  0.79195724278E+01  0.00000000000E+00 0.  1.
<mgrwt>
<rscale>  0 0.82095153E+02</rscale>
<asrwt>0</asrwt>
<pdfrwt beam="1">  1        2 0.88991800E-02 0.82095153E+02</pdfrwt>
<pdfrwt beam="2">  1       -1 0.44812414E-02 0.82095153E+02</pdfrwt>
<totfact> 0.14384359E+05</totfact>
</mgrwt>
</event>
<event>
 8    1  0.7667702E-014  0.8936649E+02  0.7818608E-02  0.1304393E+00
          2   -1    0    0  501    0  0.00000000000E+00  0.00000000000E+00  0.23515585062E+02  0.23515585200E+02  0.25500000000E-02 0. -1.
         -1   -1    0    0    0  501 -0.00000000000E+00 -0.00000000000E+00 -0.84905076891E+02  0.84905077041E+02  0.50400000000E-02 0.  1.
         24    2    1    2    0    0  0.17763568394E-14 -0.71054273576E-14 -0.61389491829E+02  0.10842066224E+03  0.89366494245E+02 0.  0.
         66    2    3    3    0    0  0.10049224402E+02 -0.37092972260E+02 -0.31054774146E+01  0.38607246606E+02  0.19999995846E+01 0.  0.
        -13    1    3    3    0    0 -0.10049224402E+02  0.37092972260E+02 -0.58284014415E+02  0.69813415634E+02  0.10566000000E+00 0.  1.
         13    1    4    4    0    0  0.28107599763E+01 -0.10949732411E+02 -0.13289580175E+01  0.11383070981E+02  0.10566000000E+00 0. -1.
        -13    1    4    4    0    0  0.14216035093E+01 -0.75221688407E+01 -0.36641776099E+00  0.76648161503E+01  0.10566000000E+00 0.  1.
         14    1    4    4    0    0  0.58168609164E+01 -0.18621071009E+02 -0.14101016361E+01  0.19559359474E+02  0.00000000000E+00 0. -1.
<mgrwt>
<rscale>  0 0.89366494E+02</rscale>
<asrwt>0</asrwt>
<pdfrwt beam="1">  1        2 0.36177824E-02 0.89366494E+02</pdfrwt>
<pdfrwt beam="2">  1       -1 0.13062319E-01 0.89366494E+02</pdfrwt>
<totfact> 0.93300214E+04</totfact>
</mgrwt>
</event>
<event>
 8    1  0.7667702E-014  0.7914402E+02  0.7818608E-02  0.1331498E+00
          2   -1    0    0  501    0  0.00000000000E+00  0.00000000000E+00  0.65962120909E+03  0.65962120909E+03  0.25500000000E-02 0. -1.
         -1   -1    0    0    0  501 -0.00000000000E+00 -0.00000000000E+00 -0.23740020968E+01  0.23740074467E+01  0.50400000000E-02 0.  1.
         24    2    1    2    0    0  0.35527136788E-14  0.88817841970E-15  0.65724720699E+03  0.66199521654E+03  0.79144018243E+02 0.  0.
         66    2    3    3    0    0  0.18038221479E+02  0.78831509641E+01  0.61572424484E+03  0.61604209855E+03  0.19999993268E+01 0.  0.
        -13    1    3    3    0    0 -0.18038221479E+02 -0.78831509641E+01  0.41522962155E+02  0.45953117994E+02  0.10566000000E+00 0.  1.
         13    1    4    4    0    0  0.20252360525E+01  0.46284961338E+00  0.75194541441E+02  0.75223307806E+02  0.10566000000E+00 0. -1.
        -13    1    4    4    0    0  0.76186382030E+01  0.30751075498E+01  0.24152878067E+03  0.24166849813E+03  0.10566000000E+00 0.  1.
         14    1    4    4    0    0  0.83943472240E+01  0.43451938009E+01  0.29900092273E+03  0.29915029261E+03  0.00000000000E+00 0. -1.
<mgrwt>
<rscale>  0 0.79144018E+02</rscale>
<asrwt>0</asrwt>
<pdfrwt beam="1">  1        2 0.10148039E+00 0.79144018E+02</pdfrwt>
<pdfrwt beam="2">  1       -1 0.36523076E-03 0.79144018E+02</pdfrwt>
<totfact> 0.33914328E+05</totfact>
</mgrwt>
</event>
<event>
 8    1  0.7667702E-014  0.8111840E+02  0.7818608E-02  0.1325907E+00
          2   -1    0    0  501    0  0.00000000000E+00  0.00000000000E+00  0.29929330432E+03  0.29929330433E+03  0.25500000000E-02 0. -1.
         -1   -1    0    0    0  501 -0.00000000000E+00 -0.00000000000E+00 -0.54964428621E+01  0.54964451728E+01  0.50400000000E-02 0.  1.
         24    2    1    2    0    0  0.00000000000E+00  0.00000000000E+00  0.29379686146E+03  0.30478974951E+03  0.81118404817E+02 0.  0.
         66    2    3    3    0    0  0.15604911741E+02 -0.43208591834E+01  0.28661013962E+03  0.28707412845E+03  0.19999992777E+01 0.  0.
        -13    1    3    3    0    0 -0.15604911741E+02  0.43208591834E+01  0.71867218360E+01  0.17715621053E+02  0.10566000000E+00 0.  1.
         13    1    4    4    0    0  0.20552013840E+01 -0.93843595673E+00  0.38089861599E+02  0.38156955270E+02  0.10566000000E+00 0.  1.
        -13    1    4    4    0    0  0.99155641094E+00  0.10280751463E+00  0.21030930311E+02  0.21054808175E+02  0.10566000000E+00 0. -1.
         14    1    4    4    0    0  0.12558153946E+02 -0.34852307413E+01  0.22748934771E+03  0.22786236501E+03  0.00000000000E+00 0. -1.
<mgrwt>
<rscale>  0 0.81118405E+02</rscale>
<asrwt>0</asrwt>
<pdfrwt beam="1">  1        2 0.46045142E-01 0.81118405E+02</pdfrwt>
<pdfrwt beam="2">  1       -1 0.84560644E-03 0.81118405E+02</pdfrwt>
<totfact> 0.24561576E+05</totfact>
</mgrwt>
</event>
<event>
 8    1  0.7667702E-014  0.8115260E+02  0.7818608E-02  0.1325812E+00
         -1   -1    0    0    0  501 -0.00000000000E+00  0.00000000000E+00  0.96042618458E+01  0.96042631682E+01  0.50400000000E-02 0.  1.
          2   -1    0    0  501    0  0.00000000000E+00 -0.00000000000E+00 -0.17142764953E+03  0.17142764954E+03  0.25500000000E-02 0. -1.
         24    2    1    2    0    0  0.00000000000E+00  0.00000000000E+00 -0.16182338768E+03  0.18103191271E+03  0.81152600823E+02 0.  0.
         66    2    3    3    0    0  0.24862944100E+02  0.10508621817E+02 -0.14846960955E+03  0.15091660637E+03  0.19999990253E+01 0.  0.
        -13    1    3    3    0    0 -0.24862944100E+02 -0.10508621817E+02 -0.13353778130E+02  0.30115306344E+02  0.10566000000E+00 0.  1.
         13    1    4    4    0    0  0.10477105376E+02  0.37774020202E+01 -0.64578978178E+02  0.65532389622E+02  0.10566000000E+00 0. -1.
        -13    1    4    4    0    0  0.45281028893E+01  0.23658217667E+01 -0.28368752448E+02  0.28825303258E+02  0.10566000000E+00 0.  1.
        -14    1    4    4    0    0  0.98577358349E+01  0.43653980301E+01 -0.55521878924E+02  0.56558913488E+02  0.00000000000E+00 0.  1.
<mgrwt>
<rscale>  0 0.81152601E+02</rscale>
<asrwt>0</asrwt>
<pdfrwt beam="1">  1        2 0.26373482E-01 0.81152601E+02</pdfrwt>
<pdfrwt beam="2">  1       -1 0.14775790E-02 0.81152601E+02</pdfrwt>
<totfact> 0.20149664E+05</totfact>
</mgrwt>
</event>
<event>
 8    1  0.7667702E-014  0.8006623E+02  0.7818608E-02  0.1328864E+00
          2   -1    0    0  501    0  0.00000000000E+00  0.00000000000E+00  0.28763690572E+03  0.28763690573E+03  0.25500000000E-02 0. -1.
         -1   -1    0    0    0  501 -0.00000000000E+00 -0.00000000000E+00 -0.55717811855E+01  0.55717834650E+01  0.50400000000E-02 0.  1.
         24    2    1    2    0    0  0.00000000000E+00  0.00000000000E+00  0.28206512453E+03  0.29320868920E+03  0.80066228471E+02 0.  0.
         66    2    3    3    0    0 -0.13856464030E+02 -0.43500154336E+01  0.27763874524E+03  0.27802553316E+03  0.19999989799E+01 0.  0.
        -13    1    3    3    0    0  0.13856464030E+02  0.43500154336E+01  0.44263792890E+01  0.15183156040E+02  0.10566000000E+00 0.  1.
         13    1    4    4    0    0 -0.67488567077E+01 -0.15842344706E+01  0.14179430426E+03  0.14196370223E+03  0.10566000000E+00 0. -1.
        -13    1    4    4    0    0 -0.23235102297E+01 -0.54878794016E+00  0.37386217137E+02  0.37462518119E+02  0.10566000000E+00 0.  1.
         14    1    4    4    0    0 -0.47840970923E+01 -0.22169930228E+01  0.98458223846E+02  0.98599312807E+02  0.00000000000E+00 0. -1.
<mgrwt>
<rscale>  0 0.80066228E+02</rscale>
<asrwt>0</asrwt>
<pdfrwt beam="1">  1        2 0.44251841E-01 0.80066228E+02</pdfrwt>
<pdfrwt beam="2">  1       -1 0.85719710E-03 0.80066228E+02</pdfrwt>
<totfact> 0.25054352E+05</totfact>
</mgrwt>
</event>
<event>
 8    1  0.7667702E-014  0.8048191E+02  0.7818608E-02  0.1327689E+00
         -1   -1    0    0    0  501 -0.00000000000E+00  0.00000000000E+00  0.13673391470E+02  0.13673392398E+02  0.50400000000E-02 0.  1.
          2   -1    0    0  501    0  0.00000000000E+00 -0.00000000000E+00 -0.11842961969E+03  0.11842961972E+03  0.25500000000E-02 0. -1.
         24    2    1    2    0    0  0.35527136788E-14  0.00000000000E+00 -0.10475622822E+03  0.13210301212E+03  0.80481913864E+02 0.  0.
         66    2    3    3    0    0 -0.28841023874E+02 -0.26476987709E+02 -0.67498229237E+02  0.78056687649E+02  0.20000000650E+01 0.  0.
        -13    1    3    3    0    0  0.28841023874E+02  0.26476987709E+02 -0.37257998985E+02  0.54046324469E+02  0.10566000000E+00 0.  1.
         13    1    4    4    0    0 -0.12118423420E+02 -0.11822895505E+02 -0.29230124167E+02  0.33779407442E+02  0.10566000000E+00 0. -1.
        -13    1    4    4    0    0 -0.66332209403E+01 -0.50119002457E+01 -0.14525377749E+02  0.16736682076E+02  0.10566000000E+00 0.  1.
        -14    1    4    4    0    0 -0.10089379514E+02 -0.96421919580E+01 -0.23742727321E+02  0.27540598130E+02  0.00000000000E+00 0.  1.
<mgrwt>
<rscale>  0 0.80481914E+02</rscale>
<asrwt>0</asrwt>
<pdfrwt beam="1">  1        2 0.18219941E-01 0.80481914E+02</pdfrwt>
<pdfrwt beam="2">  1       -1 0.21035989E-02 0.80481914E+02</pdfrwt>
<totfact> 0.18317301E+05</totfact>
</mgrwt>
</event>
<event>
 8    1  0.7667702E-014  0.7913667E+02  0.7818608E-02  0.1331519E+00
          2   -1    0    0  501    0  0.00000000000E+00  0.00000000000E+00  0.31863494072E+02  0.31863494174E+02  0.25500000000E-02 0. -1.
         -1   -1    0    0    0  501 -0.00000000000E+00 -0.00000000000E+00 -0.49136261581E+02  0.49136261839E+02  0.50400000000E-02 0.  1.
         24    2    1    2    0    0  0.00000000000E+00  0.35527136788E-14 -0.17272767508E+02  0.80999756014E+02  0.79136666450E+02 0.  0.
         66    2    3    3    0    0  0.47591195240E+01  0.21386551364E+02  0.25051397194E+02  0.33340760224E+02  0.19999982654E+01 0.  0.
        -13    1    3    3    0    0 -0.47591195240E+01 -0.21386551364E+02 -0.42324164702E+02  0.47658995790E+02  0.10566000000E+00 0.  1.
         13    1    4    4    0    0  0.35011024364E+01  0.14137232680E+02  0.16490905563E+02  0.22001822571E+02  0.10566000000E+00 0. -1.
        -13    1    4    4    0    0  0.61299452160E+00  0.56662028419E+01  0.61699864140E+01  0.84000900777E+01  0.10566000000E+00 0.  1.
         14    1    4    4    0    0  0.64502256607E+00  0.15831158427E+01  0.23905052161E+01  0.29388475752E+01  0.00000000000E+00 0. -1.
<mgrwt>
<rscale>  0 0.79136666E+02</rscale>
<asrwt>0</asrwt>
<pdfrwt beam="1">  1        2 0.49020761E-02 0.79136666E+02</pdfrwt>
<pdfrwt beam="2">  1       -1 0.75594248E-02 0.79136666E+02</pdfrwt>
<totfact> 0.14035383E+05</totfact>
</mgrwt>
</event>
<event>
 8    1  0.7667702E-014  0.7901028E+02  0.7818608E-02  0.1331884E+00
         -1   -1    0    0    0  501 -0.00000000000E+00  0.00000000000E+00  0.86586791321E+01  0.86586805990E+01  0.50400000000E-02 0.  1.
          2   -1    0    0  501    0  0.00000000000E+00 -0.00000000000E+00 -0.18024178658E+03  0.18024178660E+03  0.25500000000E-02 0. -1.
         24    2    1    2    0    0 -0.88817841970E-15  0.00000000000E+00 -0.17158310745E+03  0.18890046720E+03  0.79010276204E+02 0.  0.
         66    2    3    3    0    0 -0.70740668725E+01 -0.27207045057E+02 -0.15211972838E+03  0.15470836267E+03  0.19999992800E+01 0.  0.
        -13    1    3    3    0    0  0.70740668725E+01  0.27207045057E+02 -0.19463379073E+02  0.34192104525E+02  0.10566000000E+00 0.  1.
         13    1    4    4    0    0 -0.53775195311E+01 -0.21911362421E+02 -0.12484285111E+03  0.12686518102E+03  0.10566000000E+00 0. -1.
        -13    1    4    4    0    0 -0.15482324652E+01 -0.43443407168E+01 -0.21870891471E+02  0.22352122445E+02  0.10566000000E+00 0.  1.
         14    1    4    4    0    0 -0.14831487625E+00 -0.95134191889E+00 -0.54059857996E+01  0.54910592070E+01  0.00000000000E+00 0. -1.
<mgrwt>
<rscale>  0 0.79010276E+02</rscale>
<asrwt>0</asrwt>
<pdfrwt beam="1">  1        2 0.27729503E-01 0.79010276E+02</pdfrwt>
<pdfrwt beam="2">  1       -1 0.13321047E-02 0.79010276E+02</pdfrwt>
<totfact> 0.21995769E+05</totfact>
</mgrwt>
</event>
<event>
 8    1  0.7667702E-014  0.8030021E+02  0.7818608E-02  0.1328202E+00
         -1   -1    0    0    0  501 -0.00000000000E+00  0.00000000000E+00  0.28166807607E+02  0.28166808058E+02  0.50400000000E-02 0.  1.
          2   -1    0    0  501    0  0.00000000000E+00 -0.00000000000E+00 -0.57231578785E+02  0.57231578841E+02  0.25500000000E-02 0. -1.
         24    2    1    2    0    0  0.00000000000E+00  0.88817841970E-15 -0.29064771178E+02  0.85398386899E+02  0.80300208975E+02 0.  0.
         66    2    3    3    0    0  0.25104155028E+02  0.39811106367E+01 -0.47560234771E+02  0.53963355817E+02  0.19999995146E+01 0.  0.
        -13    1    3    3    0    0 -0.25104155028E+02 -0.39811106367E+01  0.18495463593E+02  0.31435031082E+02  0.10566000000E+00 0.  1.
         13    1    4    4    0    0  0.53034476806E+01  0.28891024281E+00 -0.10920073142E+02  0.12143689221E+02  0.10566000000E+00 0. -1.
        -13    1    4    4    0    0  0.51315551344E+01  0.89917732949E+00 -0.10208872977E+02  0.11461833600E+02  0.10566000000E+00 0.  1.
         14    1    4    4    0    0  0.14669152213E+02  0.27930230644E+01 -0.26431288651E+02  0.30357832996E+02  0.00000000000E+00 0. -1.
<mgrwt>
<rscale>  0 0.80300209E+02</rscale>
<asrwt>0</asrwt>
<pdfrwt beam="1">  1        2 0.88048583E-02 0.80300209E+02</pdfrwt>
<pdfrwt beam="2">  1       -1 0.43333551E-02 0.80300209E+02</pdfrwt>
<totfact> 0.15242183E+05</totfact>
</mgrwt>
</event>
<event>
 8    1  0.7667702E-014  0.7942645E+02  0.7818608E-02  0.1330687E+00
         -1   -1    0    0    0  501 -0.00000000000E+00  0.00000000000E+00  0.78599488782E+01  0.78599504941E+01  0.50400000000E-02 0.  1.
          2   -1    0    0  501    0  0.00000000000E+00 -0.00000000000E+00 -0.20065527573E+03  0.20065527574E+03  0.25500000000E-02 0. -1.
         24    2    1    2    0    0  0.35527136788E-14  0.35527136788E-14 -0.19279532685E+03  0.20851522624E+03  0.79426453516E+02 0.  0.
         66    2    3    3    0    0 -0.20379485986E+02 -0.23324637604E+02 -0.16160390365E+03  0.16455753961E+03  0.19999999540E+01 0.  0.
        -13    1    3    3    0    0  0.20379485986E+02  0.23324637604E+02 -0.31191423203E+02  0.43957686630E+02  0.10566000000E+00 0.  1.
         13    1    4    4    0    0 -0.13332526942E+02 -0.15334618531E+02 -0.10544911338E+03  0.10738916834E+03  0.10566000000E+00 0. -1.
        -13    1    4    4    0    0 -0.11502716269E+01 -0.15652549226E+01 -0.82448964116E+01  0.84712825866E+01  0.10566000000E+00 0.  1.
        -14    1    4    4    0    0 -0.58966874167E+01 -0.64247641502E+01 -0.47909893851E+02  0.48697088678E+02  0.00000000000E+00 0.  1.
<mgrwt>
<rscale>  0 0.79426454E+02</rscale>
<asrwt>0</asrwt>
<pdfrwt beam="1">  1        2 0.30870039E-01 0.79426454E+02</pdfrwt>
<pdfrwt beam="2">  1       -1 0.12092232E-02 0.79426454E+02</pdfrwt>
<totfact> 0.22506731E+05</totfact>
</mgrwt>
</event>
<event>
 8    1  0.7667702E-014  0.7812539E+02  0.7818608E-02  0.1334457E+00
          2   -1    0    0  501    0  0.00000000000E+00  0.00000000000E+00  0.10346766651E+04  0.10346766651E+04  0.25500000000E-02 0. -1.
         -1   -1    0    0    0  501 -0.00000000000E+00 -0.00000000000E+00 -0.14747502966E+01  0.14747589088E+01  0.50400000000E-02 0.  1.
         24    2    1    2    0    0  0.17763568394E-14  0.35527136788E-14  0.10332019148E+04  0.10361514240E+04  0.78125391063E+02 0.  0.
         66    2    3    3    0    0 -0.84226541880E+01 -0.17926126780E+02  0.96308549035E+03  0.96329120670E+03  0.20000139776E+01 0.  0.
        -13    1    3    3    0    0  0.84226541880E+01  0.17926126780E+02  0.70116424488E+02  0.72860217348E+02  0.10566000000E+00 0.  1.
         13    1    4    4    0    0 -0.91383572833E+00 -0.11515246717E+01  0.59730009734E+02  0.59748191032E+02  0.10566000000E+00 0. -1.
        -13    1    4    4    0    0 -0.37537159620E+01 -0.91838745835E+01  0.46775186573E+03  0.46785708608E+03  0.10566000000E+00 0.  1.
         14    1    4    4    0    0 -0.37551024977E+01 -0.75907275251E+01  0.43560361489E+03  0.43568592959E+03  0.00000000000E+00 0. -1.
<mgrwt>
<rscale>  0 0.78125391E+02</rscale>
<asrwt>0</asrwt>
<pdfrwt beam="1">  1        2 0.15918205E+00 0.78125391E+02</pdfrwt>
<pdfrwt beam="2">  1       -1 0.22688386E-03 0.78125391E+02</pdfrwt>
<totfact> 0.37503067E+05</totfact>
</mgrwt>
</event>
<event>
 8    1  0.7667702E-014  0.7973557E+02  0.7818608E-02  0.1329804E+00
          2   -1    0    0  501    0  0.00000000000E+00  0.00000000000E+00  0.42180164470E+02  0.42180164547E+02  0.25500000000E-02 0. -1.
         -1   -1    0    0    0  501 -0.00000000000E+00 -0.00000000000E+00 -0.37682177608E+02  0.37682177945E+02  0.50400000000E-02 0.  1.
         24    2    1    2    0    0  0.00000000000E+00  0.17763568394E-14  0.44979868623E+01  0.79862342491E+02  0.79735574635E+02 0.  0.
         66    2    3    3    0    0 -0.17044484482E+02 -0.13906145458E+02  0.35522793964E+02  0.41830183040E+02  0.19999973492E+01 0.  0.
        -13    1    3    3    0    0  0.17044484482E+02  0.13906145458E+02 -0.31024807102E+02  0.38032159451E+02  0.10566000000E+00 0.  1.
         13    1    4    4    0    0 -0.24735570211E+01 -0.22084119510E+01  0.62710439091E+01  0.70945559007E+01  0.10566000000E+00 0. -1.
        -13    1    4    4    0    0 -0.58476117558E+01 -0.40983378685E+01  0.11980953001E+02  0.13947950939E+02  0.10566000000E+00 0.  1.
         14    1    4    4    0    0 -0.87233157053E+01 -0.75993956385E+01  0.17270797054E+02  0.20787676201E+02  0.00000000000E+00 0. -1.
<mgrwt>
<rscale>  0 0.79735575E+02</rscale>
<asrwt>0</asrwt>
<pdfrwt beam="1">  1        2 0.64892561E-02 0.79735575E+02</pdfrwt>
<pdfrwt beam="2">  1       -1 0.57972581E-02 0.79735575E+02</pdfrwt>
<totfact> 0.14544625E+05</totfact>
</mgrwt>
</event>
<event>
 8    1  0.7667702E-014  0.8090213E+02  0.7818608E-02  0.1326511E+00
         -1   -1    0    0    0  501 -0.00000000000E+00  0.00000000000E+00  0.74893219065E+01  0.74893236023E+01  0.50400000000E-02 0.  1.
          2   -1    0    0  501    0  0.00000000000E+00 -0.00000000000E+00 -0.21848284525E+03  0.21848284527E+03  0.25500000000E-02 0. -1.
         24    2    1    2    0    0 -0.44408920985E-15  0.00000000000E+00 -0.21099352334E+03  0.22597216887E+03  0.80902127349E+02 0.  0.
         66    2    3    3    0    0  0.39604896400E+01 -0.13726651299E+02 -0.21119169929E+03  0.21168382146E+03  0.19999951780E+01 0.  0.
        -13    1    3    3    0    0 -0.39604896400E+01  0.13726651299E+02  0.19817594989E+00  0.14288347414E+02  0.10566000000E+00 0.  1.
         13    1    4    4    0    0  0.17109330464E+01 -0.44265520041E+01 -0.60845974128E+02  0.61030856016E+02  0.10566000000E+00 0. -1.
        -13    1    4    4    0    0  0.21446913879E+01 -0.71883099724E+01 -0.11714037903E+03  0.11738036917E+03  0.10566000000E+00 0.  1.
        -14    1    4    4    0    0  0.10486520564E+00 -0.21117893222E+01 -0.33205346134E+02  0.33272596273E+02  0.00000000000E+00 0.  1.
<mgrwt>
<rscale>  0 0.80902127E+02</rscale>
<asrwt>0</asrwt>
<pdfrwt beam="1">  1        2 0.33612741E-01 0.80902127E+02</pdfrwt>
<pdfrwt beam="2">  1       -1 0.11522037E-02 0.80902127E+02</pdfrwt>
<totfact> 0.22088903E+05</totfact>
</mgrwt>
</event>
<event>
 8    1  0.7667702E-014  0.7518524E+02  0.7818608E-02  0.1343298E+00
         -1   -1    0    0    0  501 -0.00000000000E+00  0.00000000000E+00  0.76395949898E+01  0.76395966523E+01  0.50400000000E-02 0.  1.
          2   -1    0    0  501    0  0.00000000000E+00 -0.00000000000E+00 -0.18498429627E+03  0.18498429629E+03  0.25500000000E-02 0. -1.
         24    2    1    2    0    0  0.00000000000E+00 -0.44408920985E-15 -0.17734470128E+03  0.19262389294E+03  0.75185244956E+02 0.  0.
         66    2    3    3    0    0  0.11214444530E+02  0.31332653095E+01 -0.18023849820E+03  0.18062529542E+03  0.19999992057E+01 0.  0.
        -13    1    3    3    0    0 -0.11214444530E+02 -0.31332653095E+01  0.28937969209E+01  0.11998597513E+02  0.10566000000E+00 0.  1.
         13    1    4    4    0    0  0.37933262939E+01  0.92027119548E+00 -0.57471957233E+02  0.57604455172E+02  0.10566000000E+00 0. -1.
        -13    1    4    4    0    0  0.54498922351E+00  0.64813077575E+00 -0.13728882485E+02  0.13755379496E+02  0.10566000000E+00 0.  1.
        -14    1    4    4    0    0  0.68761290125E+01  0.15648633383E+01 -0.10903765848E+03  0.10926546076E+03  0.00000000000E+00 0.  1.
<mgrwt>
<rscale>  0 0.75185245E+02</rscale>
<asrwt>0</asrwt>
<pdfrwt beam="1">  1        2 0.28459119E-01 0.75185245E+02</pdfrwt>
<pdfrwt beam="2">  1       -1 0.11753226E-02 0.75185245E+02</pdfrwt>
<totfact> 0.25286701E+05</totfact>
</mgrwt>
</event>
<event>
 8    1  0.7667702E-014  0.7945705E+02  0.7818608E-02  0.1330599E+00
         -1   -1    0    0    0  501 -0.00000000000E+00  0.00000000000E+00  0.14552967181E+01  0.14553054454E+01  0.50400000000E-02 0.  1.
          2   -1    0    0  501    0  0.00000000000E+00 -0.00000000000E+00 -0.10845562398E+04  0.10845562398E+04  0.25500000000E-02 0. -1.
         24    2    1    2    0    0  0.00000000000E+00  0.00000000000E+00 -0.10831009431E+04  0.10860115453E+04  0.79457054490E+02 0.  0.
         66    2    3    3    0    0 -0.18761723206E+02  0.22382004509E+01 -0.10191627330E+04  0.10193398296E+04  0.20000043041E+01 0.  0.
        -13    1    3    3    0    0  0.18761723206E+02 -0.22382004509E+01 -0.63938210121E+02  0.66671715716E+02  0.10566000000E+00 0.  1.
         13    1    4    4    0    0 -0.67738269517E+01  0.73986977804E+00 -0.34413002291E+03  0.34419749559E+03  0.10566000000E+00 0. -1.
        -13    1    4    4    0    0 -0.60459566873E+01  0.79868352208E+00 -0.38022992556E+03  0.38027884367E+03  0.10566000000E+00 0.  1.
        -14    1    4    4    0    0 -0.59419395672E+01  0.69964715078E+00 -0.29480278451E+03  0.29486349030E+03  0.00000000000E+00 0.  1.
<mgrwt>
<rscale>  0 0.79457054E+02</rscale>
<asrwt>0</asrwt>
<pdfrwt beam="1">  1        2 0.16685416E+00 0.79457054E+02</pdfrwt>
<pdfrwt beam="2">  1       -1 0.22389334E-03 0.79457054E+02</pdfrwt>
<totfact> 0.35893525E+05</totfact>
</mgrwt>
</event>
<event>
 8    1  0.7667702E-014  0.7999401E+02  0.7818608E-02  0.1329068E+00
         -1   -1    0    0    0  501 -0.00000000000E+00  0.00000000000E+00  0.78074347655E+01  0.78074363923E+01  0.50400000000E-02 0.  1.
          2   -1    0    0  501    0  0.00000000000E+00 -0.00000000000E+00 -0.20490213349E+03  0.20490213351E+03  0.25500000000E-02 0. -1.
         24    2    1    2    0    0  0.00000000000E+00  0.00000000000E+00 -0.19709469873E+03  0.21270956990E+03  0.79994005157E+02 0.  0.
         66    2    3    3    0    0  0.20652181028E+02 -0.34188053212E+02 -0.10274505771E+03  0.11025371850E+03  0.19999985133E+01 0.  0.
        -13    1    3    3    0    0 -0.20652181028E+02  0.34188053212E+02 -0.94349641016E+02  0.10245585141E+03  0.10566000000E+00 0.  1.
         13    1    4    4    0    0  0.12155400301E+02 -0.20575649563E+02 -0.61630257681E+02  0.66101519932E+02  0.10566000000E+00 0. -1.
        -13    1    4    4    0    0  0.14835218542E+01 -0.33044665557E+01 -0.95441845877E+01  0.10208964678E+02  0.10566000000E+00 0.  1.
        -14    1    4    4    0    0  0.70132588732E+01 -0.10307937093E+02 -0.31570615444E+02  0.33943233886E+02  0.00000000000E+00 0.  1.
<mgrwt>
<rscale>  0 0.79994005E+02</rscale>
<asrwt>0</asrwt>
<pdfrwt beam="1">  1        2 0.31523401E-01 0.79994005E+02</pdfrwt>
<pdfrwt beam="2">  1       -1 0.12011441E-02 0.79994005E+02</pdfrwt>
<totfact> 0.22249655E+05</totfact>
</mgrwt>
</event>
<event>
 8    1  0.7667702E-014  0.8112467E+02  0.7818608E-02  0.1325890E+00
          2   -1    0    0  501    0  0.00000000000E+00  0.00000000000E+00  0.58250195027E+01  0.58250200608E+01  0.25500000000E-02 0. -1.
         -1   -1    0    0    0  501 -0.00000000000E+00 -0.00000000000E+00 -0.28245450007E+03  0.28245450011E+03  0.50400000000E-02 0.  1.
         24    2    1    2    0    0  0.00000000000E+00  0.00000000000E+00 -0.27662948057E+03  0.28827952017E+03  0.81124670932E+02 0.  0.
         66    2    3    3    0    0 -0.14403211096E+02  0.34442013715E+02 -0.82257940974E+02  0.90355263536E+02  0.19999991717E+01 0.  0.
        -13    1    3    3    0    0  0.14403211096E+02 -0.34442013715E+02 -0.19437153959E+03  0.19792425664E+03  0.10566000000E+00 0.  1.
         13    1    4    4    0    0 -0.45574385139E+01  0.93488506794E+01 -0.23855959189E+02  0.26024780646E+02  0.10566000000E+00 0. -1.
        -13    1    4    4    0    0 -0.77300736509E+01  0.20570101132E+02 -0.48113404049E+02  0.52894176546E+02  0.10566000000E+00 0.  1.
        -14    1    4    4    0    0 -0.21156989316E+01  0.45230619035E+01 -0.10288577736E+02  0.11436306343E+02  0.00000000000E+00 0.  1.
<mgrwt>
<rscale>  0 0.81124671E+02</rscale>
<asrwt>0</asrwt>
<pdfrwt beam="1">  1        2 0.89615711E-03 0.81124671E+02</pdfrwt>
<pdfrwt beam="2">  1       -1 0.43454528E-01 0.81124671E+02</pdfrwt>
<totfact> 0.85410427E+04</totfact>
</mgrwt>
</event>
<event>
 8    1  0.7667702E-014  0.7147929E+02  0.7818608E-02  0.1355134E+00
          2   -1    0    0  501    0  0.00000000000E+00  0.00000000000E+00  0.21817985527E+03  0.21817985528E+03  0.25500000000E-02 0. -1.
         -1   -1    0    0    0  501 -0.00000000000E+00 -0.00000000000E+00 -0.58544446478E+01  0.58544468172E+01  0.50400000000E-02 0.  1.
         24    2    1    2    0    0  0.00000000000E+00  0.17763568394E-14  0.21232541062E+03  0.22403430210E+03  0.71479287366E+02 0.  0.
         66    2    3    3    0    0  0.29480743856E+01 -0.15253519313E+02  0.20702815092E+03  0.20761988410E+03  0.20000010814E+01 0.  0.
        -13    1    3    3    0    0 -0.29480743856E+01  0.15253519313E+02  0.52972596972E+01  0.16414418002E+02  0.10566000000E+00 0.  1.
         13    1    4    4    0    0  0.10539886101E+01 -0.97127672490E+01  0.13171583277E+03  0.13207770632E+03  0.10566000000E+00 0. -1.
        -13    1    4    4    0    0  0.32039413650E+00 -0.72686372465E+00  0.82153510814E+01  0.82543407188E+01  0.10566000000E+00 0.  1.
         14    1    4    4    0    0  0.15736916390E+01 -0.48138883392E+01  0.67096967066E+02  0.67287837057E+02  0.00000000000E+00 0. -1.
<mgrwt>
<rscale>  0 0.71479287E+02</rscale>
<asrwt>0</asrwt>
<pdfrwt beam="1">  1        2 0.33566132E-01 0.71479287E+02</pdfrwt>
<pdfrwt beam="2">  1       -1 0.90068396E-03 0.71479287E+02</pdfrwt>
<totfact> 0.30536806E+05</totfact>
</mgrwt>
</event>
<event>
 8    1  0.7667702E-014  0.7960794E+02  0.7818608E-02  0.1330168E+00
          2   -1    0    0  501    0  0.00000000000E+00  0.00000000000E+00  0.40924107322E+03  0.40924107323E+03  0.25500000000E-02 0. -1.
         -1   -1    0    0    0  501 -0.00000000000E+00 -0.00000000000E+00 -0.38714477550E+01  0.38714510356E+01  0.50400000000E-02 0.  1.
         24    2    1    2    0    0  0.00000000000E+00  0.00000000000E+00  0.40536962546E+03  0.41311252426E+03  0.79607942152E+02 0.  0.
         66    2    3    3    0    0 -0.27246336003E+02 -0.21282249048E+02  0.30490583011E+03  0.30686619590E+03  0.19999998093E+01 0.  0.
        -13    1    3    3    0    0  0.27246336003E+02  0.21282249048E+02  0.10046379535E+03  0.10624632837E+03  0.10566000000E+00 0.  1.
         13    1    4    4    0    0 -0.75317718203E+01 -0.63119384278E+01  0.87258078165E+02  0.87809746171E+02  0.10566000000E+00 0. -1.
        -13    1    4    4    0    0 -0.18376232967E+02 -0.14398465772E+02  0.20551629798E+03  0.20683800824E+03  0.10566000000E+00 0.  1.
        -14    1    4    4    0    0 -0.13383312163E+01 -0.57184484833E+00  0.12131453963E+02  0.12218441481E+02  0.00000000000E+00 0.  1.
<mgrwt>
<rscale>  0 0.79607942E+02</rscale>
<asrwt>0</asrwt>
<pdfrwt beam="1">  1        2 0.62960123E-01 0.79607942E+02</pdfrwt>
<pdfrwt beam="2">  1       -1 0.59560800E-03 0.79607942E+02</pdfrwt>
<totfact> 0.28846986E+05</totfact>
</mgrwt>
</event>
<event>
 8    1  0.7667702E-014  0.7817929E+02  0.7818608E-02  0.1334299E+00
         -1   -1    0    0    0  501 -0.00000000000E+00  0.00000000000E+00  0.99260071158E+01  0.99260083954E+01  0.50400000000E-02 0.  1.
          2   -1    0    0  501    0  0.00000000000E+00 -0.00000000000E+00 -0.15393904446E+03  0.15393904448E+03  0.25500000000E-02 0. -1.
         24    2    1    2    0    0 -0.44408920985E-15  0.00000000000E+00 -0.14401303734E+03  0.16386505288E+03  0.78179285166E+02 0.  0.
         66    2    3    3    0    0  0.30955377262E+01  0.38777306319E+02 -0.79532909877E+02  0.88559277259E+02  0.19999989998E+01 0.  0.
        -13    1    3    3    0    0 -0.30955377262E+01 -0.38777306319E+02 -0.64480127468E+02  0.75305775618E+02  0.10566000000E+00 0.  1.
         13    1    4    4    0    0  0.17985534380E+01  0.29015155536E+02 -0.59101789985E+02  0.65864609531E+02  0.10566000000E+00 0. -1.
        -13    1    4    4    0    0  0.44445285171E+00  0.44393915133E+01 -0.10089021375E+02  0.11032010320E+02  0.10566000000E+00 0.  1.
         14    1    4    4    0    0  0.85253143642E+00  0.53227592694E+01 -0.10342098517E+02  0.11662657409E+02  0.00000000000E+00 0. -1.
<mgrwt>
<rscale>  0 0.78179285E+02</rscale>
<asrwt>0</asrwt>
<pdfrwt beam="1">  1        2 0.23682928E-01 0.78179285E+02</pdfrwt>
<pdfrwt beam="2">  1       -1 0.15270782E-02 0.78179285E+02</pdfrwt>
<totfact> 0.21468685E+05</totfact>
</mgrwt>
</event>
<event>
 8    1  0.7667702E-014  0.7565107E+02  0.7818608E-02  0.1341867E+00
          2   -1    0    0  501    0  0.00000000000E+00  0.00000000000E+00  0.24337281682E+04  0.24337281682E+04  0.25500000000E-02 0. -1.
         -1   -1    0    0    0  501 -0.00000000000E+00 -0.00000000000E+00 -0.58788184771E+00  0.58790345165E+00  0.50400000000E-02 0.  1.
         24    2    1    2    0    0  0.00000000000E+00  0.00000000000E+00  0.24331402864E+04  0.24343160717E+04  0.75651065013E+02 0.  0.
         66    2    3    3    0    0  0.67796121127E+01  0.89206005460E+01  0.23790585711E+04  0.23790857960E+04  0.19999984507E+01 0.  0.
        -13    1    3    3    0    0 -0.67796121127E+01 -0.89206005460E+01  0.54081715304E+02  0.55230275653E+02  0.10566000000E+00 0.  1.
         13    1    4    4    0    0  0.40327499622E+01  0.61881207148E+01  0.16111119174E+04  0.16111288519E+04  0.10566000000E+00 0. -1.
        -13    1    4    4    0    0  0.17436829005E+01  0.11937108407E+01  0.36971180755E+03  0.36971786160E+03  0.10566000000E+00 0.  1.
        -14    1    4    4    0    0  0.10031792501E+01  0.15387689905E+01  0.39823484612E+03  0.39823908252E+03  0.00000000000E+00 0.  1.
<mgrwt>
<rscale>  0 0.75651065E+02</rscale>
<asrwt>0</asrwt>
<pdfrwt beam="1">  1        2 0.37441997E+00 0.75651065E+02</pdfrwt>
<pdfrwt beam="2">  1       -1 0.90444963E-04 0.75651065E+02</pdfrwt>
<totfact> 0.25340053E+05</totfact>
</mgrwt>
</event>
<event>
 8    1  0.7667702E-014  0.8031908E+02  0.7818608E-02  0.1328148E+00
          2   -1    0    0  501    0  0.00000000000E+00  0.00000000000E+00  0.63950015686E+03  0.63950015687E+03  0.25500000000E-02 0. -1.
         -1   -1    0    0    0  501 -0.00000000000E+00 -0.00000000000E+00 -0.25219496763E+01  0.25219547124E+01  0.50400000000E-02 0.  1.
         24    2    1    2    0    0  0.00000000000E+00  0.00000000000E+00  0.63697820718E+03  0.64202211158E+03  0.80319084454E+02 0.  0.
         66    2    3    3    0    0  0.92259274095E+01  0.22349884004E+02  0.57474288657E+03  0.57525474419E+03  0.20000006103E+01 0.  0.
        -13    1    3    3    0    0 -0.92259274095E+01 -0.22349884004E+02  0.62235320617E+02  0.66767367388E+02  0.10566000000E+00 0.  1.
         13    1    4    4    0    0  0.73246001971E+01  0.16894902617E+02  0.44668338437E+03  0.44706279709E+03  0.10566000000E+00 0. -1.
        -13    1    4    4    0    0  0.79018721735E+00  0.30524987569E+01  0.75362095487E+02  0.75428103150E+02  0.10566000000E+00 0.  1.
         14    1    4    4    0    0  0.11111399950E+01  0.24024826297E+01  0.52697406711E+02  0.52763843956E+02  0.00000000000E+00 0. -1.
<mgrwt>
<rscale>  0 0.80319084E+02</rscale>
<asrwt>0</asrwt>
<pdfrwt beam="1">  1        2 0.98384739E-01 0.80319084E+02</pdfrwt>
<pdfrwt beam="2">  1       -1 0.38799225E-03 0.80319084E+02</pdfrwt>
<totfact> 0.32383049E+05</totfact>
</mgrwt>
</event>
<event>
 8    1  0.7667702E-014  0.7728147E+02  0.7818608E-02  0.1336948E+00
         -1   -1    0    0    0  501 -0.00000000000E+00  0.00000000000E+00  0.22173490681E+01  0.22173547960E+01  0.50400000000E-02 0.  1.
          2   -1    0    0  501    0  0.00000000000E+00 -0.00000000000E+00 -0.67337369325E+03  0.67337369326E+03  0.25500000000E-02 0. -1.
         24    2    1    2    0    0 -0.17763568394E-14  0.00000000000E+00 -0.67115634418E+03  0.67559104805E+03  0.77281471718E+02 0.  0.
         66    2    3    3    0    0  0.11617947452E+02 -0.14750272998E+02 -0.63077740878E+03  0.63105997076E+03  0.20000027677E+01 0.  0.
        -13    1    3    3    0    0 -0.11617947452E+02  0.14750272998E+02 -0.40378935402E+02  0.44531077291E+02  0.10566000000E+00 0.  1.
         13    1    4    4    0    0  0.62241220471E+01 -0.85498428061E+01 -0.37125595222E+03  0.37140655989E+03  0.10566000000E+00 0. -1.
        -13    1    4    4    0    0  0.45294071345E+01 -0.46741083460E+01 -0.19817601181E+03  0.19828289295E+03  0.10566000000E+00 0.  1.
        -14    1    4    4    0    0  0.86441827085E+00 -0.15263218455E+01 -0.61345444754E+02  0.61370517917E+02  0.00000000000E+00 0.  1.
<mgrwt>
<rscale>  0 0.77281472E+02</rscale>
<asrwt>0</asrwt>
<pdfrwt beam="1">  1        2 0.10359579E+00 0.77281472E+02</pdfrwt>
<pdfrwt beam="2">  1       -1 0.34113160E-03 0.77281472E+02</pdfrwt>
<totfact> 0.36259218E+05</totfact>
</mgrwt>
</event>
<event>
 8    1  0.7667702E-014  0.8091625E+02  0.7818608E-02  0.1326471E+00
          2   -1    0    0  501    0  0.00000000000E+00  0.00000000000E+00  0.27929865879E+03  0.27929865880E+03  0.25500000000E-02 0. -1.
         -1   -1    0    0    0  501 -0.00000000000E+00 -0.00000000000E+00 -0.58606062752E+01  0.58606084424E+01  0.50400000000E-02 0.  1.
         24    2    1    2    0    0  0.00000000000E+00  0.00000000000E+00  0.27343805251E+03  0.28515926724E+03  0.80916247639E+02 0.  0.
         66    2    3    3    0    0 -0.32669473173E+02  0.12960994903E+02  0.20724725618E+03  0.21021585826E+03  0.20000011104E+01 0.  0.
        -13    1    3    3    0    0  0.32669473173E+02 -0.12960994903E+02  0.66190796331E+02  0.74943408978E+02  0.10566000000E+00 0.  1.
         13    1    4    4    0    0 -0.18923616317E+02  0.76132133737E+01  0.11717541837E+03  0.11893760594E+03  0.10566000000E+00 0. -1.
        -13    1    4    4    0    0 -0.11982432539E+02  0.43927855670E+01  0.75983317147E+02  0.77047718352E+02  0.10566000000E+00 0. -1.
         14    1    4    4    0    0 -0.17634243172E+01  0.95499596277E+00  0.14088520668E+02  0.14230533975E+02  0.00000000000E+00 0. -1.
<mgrwt>
<rscale>  0 0.80916248E+02</rscale>
<asrwt>0</asrwt>
<pdfrwt beam="1">  1        2 0.42969032E-01 0.80916248E+02</pdfrwt>
<pdfrwt beam="2">  1       -1 0.90163174E-03 0.80916248E+02</pdfrwt>
<totfact> 0.24110706E+05</totfact>
</mgrwt>
</event>
<event>
 8    1  0.7667702E-014  0.8152385E+02  0.7818608E-02  0.1324782E+00
          2   -1    0    0  501    0  0.00000000000E+00  0.00000000000E+00  0.60034779788E+02  0.60034779842E+02  0.25500000000E-02 0. -1.
         -1   -1    0    0    0  501 -0.00000000000E+00 -0.00000000000E+00 -0.27676201628E+02  0.27676202087E+02  0.50400000000E-02 0.  1.
         24    2    1    2    0    0  0.00000000000E+00  0.00000000000E+00  0.32358578159E+02  0.87710981929E+02  0.81523853996E+02 0.  0.
         66    2    3    3    0    0 -0.36939661199E+02 -0.13978430859E+02  0.26926104720E+02  0.47842974323E+02  0.19999944929E+01 0.  0.
        -13    1    3    3    0    0  0.36939661199E+02  0.13978430859E+02  0.54324734397E+01  0.39868007606E+02  0.10566000000E+00 0.  1.
         13    1    4    4    0    0 -0.67181829568E+01 -0.24509932858E+01  0.43769732396E+01  0.83851302377E+01  0.10566000000E+00 0. -1.
        -13    1    4    4    0    0 -0.14020333212E+01 -0.83888409526E+00  0.99197729044E+00  0.19143163112E+01  0.10566000000E+00 0. -1.
         14    1    4    4    0    0 -0.28819444921E+02 -0.10688553477E+02  0.21557154190E+02  0.37543527774E+02  0.00000000000E+00 0. -1.
<mgrwt>
<rscale>  0 0.81523854E+02</rscale>
<asrwt>0</asrwt>
<pdfrwt beam="1">  1        2 0.92361198E-02 0.81523854E+02</pdfrwt>
<pdfrwt beam="2">  1       -1 0.42578773E-02 0.81523854E+02</pdfrwt>
<totfact> 0.14788243E+05</totfact>
</mgrwt>
</event>
<event>
 8    1  0.7667702E-014  0.7955332E+02  0.7818608E-02  0.1330324E+00
          2   -1    0    0  501    0  0.00000000000E+00  0.00000000000E+00  0.72170806428E+01  0.72170810933E+01  0.25500000000E-02 0. -1.
         -1   -1    0    0    0  501 -0.00000000000E+00 -0.00000000000E+00 -0.21922750766E+03  0.21922750772E+03  0.50400000000E-02 0.  1.
         24    2    1    2    0    0  0.00000000000E+00  0.71054273576E-14 -0.21201042702E+03  0.22644458881E+03  0.79553319465E+02 0.  0.
         66    2    3    3    0    0 -0.15160097961E+01  0.36673002946E+02 -0.62625615923E+02  0.72616631728E+02  0.20000007544E+01 0.  0.
        -13    1    3    3    0    0  0.15160097961E+01 -0.36673002946E+02 -0.14938481110E+03  0.15382795708E+03  0.10566000000E+00 0.  1.
         13    1    4    4    0    0 -0.15773711129E+01  0.17651538637E+02 -0.29954877040E+02  0.34804751665E+02  0.10566000000E+00 0. -1.
        -13    1    4    4    0    0 -0.32232224761E+00  0.10552835034E+02 -0.18038698708E+02  0.20901484014E+02  0.10566000000E+00 0.  1.
        -14    1    4    4    0    0  0.38368356445E+00  0.84686292744E+01 -0.14632040175E+02  0.16910396049E+02  0.00000000000E+00 0.  1.
<mgrwt>
<rscale>  0 0.79553319E+02</rscale>
<asrwt>0</asrwt>
<pdfrwt beam="1">  1        2 0.11103203E-02 0.79553319E+02</pdfrwt>
<pdfrwt beam="2">  1       -1 0.33727304E-01 0.79553319E+02</pdfrwt>
<totfact> 0.98184889E+04</totfact>
</mgrwt>
</event>
<event>
 8    1  0.7667702E-014  0.7977275E+02  0.7818608E-02  0.1329698E+00
         -1   -1    0    0    0  501 -0.00000000000E+00  0.00000000000E+00  0.26244536069E+01  0.26244584463E+01  0.50400000000E-02 0.  1.
          2   -1    0    0  501    0  0.00000000000E+00 -0.00000000000E+00 -0.60619152463E+03  0.60619152463E+03  0.25500000000E-02 0. -1.
         24    2    1    2    0    0  0.17763568394E-14  0.00000000000E+00 -0.60356707102E+03  0.60881598308E+03  0.79772752442E+02 0.  0.
         66    2    3    3    0    0  0.10773486629E+02 -0.36989038438E+02 -0.38004986834E+03  0.38200282641E+03  0.19999958571E+01 0.  0.
        -13    1    3    3    0    0 -0.10773486629E+02  0.36989038438E+02 -0.22351720268E+03  0.22681315667E+03  0.10566000000E+00 0.  1.
         13    1    4    4    0    0  0.50159278117E+01 -0.19681142172E+02 -0.19743098144E+03  0.19847294648E+03  0.10566000000E+00 0. -1.
        -13    1    4    4    0    0  0.21893949164E+01 -0.56750462084E+01 -0.64069285995E+02  0.64357471761E+02  0.10566000000E+00 0.  1.
         14    1    4    4    0    0  0.35681639008E+01 -0.11632850058E+02 -0.11854960090E+03  0.11917240817E+03  0.00000000000E+00 0. -1.
<mgrwt>
<rscale>  0 0.79772752E+02</rscale>
<asrwt>0</asrwt>
<pdfrwt beam="1">  1        2 0.93260123E-01 0.79772752E+02</pdfrwt>
<pdfrwt beam="2">  1       -1 0.40376295E-03 0.79772752E+02</pdfrwt>
<totfact> 0.32494661E+05</totfact>
</mgrwt>
</event>
<event>
 8    1  0.7667702E-014  0.8026151E+02  0.7818608E-02  0.1328311E+00
         -1   -1    0    0    0  501 -0.00000000000E+00  0.00000000000E+00  0.10412048328E+02  0.10412049548E+02  0.50400000000E-02 0.  1.
          2   -1    0    0  501    0  0.00000000000E+00 -0.00000000000E+00 -0.15467441211E+03  0.15467441213E+03  0.25500000000E-02 0. -1.
         24    2    1    2    0    0  0.00000000000E+00  0.00000000000E+00 -0.14426236378E+03  0.16508646168E+03  0.80261511484E+02 0.  0.
         66    2    3    3    0    0  0.33585095018E+02  0.50969718142E+01 -0.11602767582E+03  0.12091467773E+03  0.20000012403E+01 0.  0.
        -13    1    3    3    0    0 -0.33585095018E+02 -0.50969718142E+01 -0.28234687961E+02  0.44171783950E+02  0.10566000000E+00 0.  1.
         13    1    4    4    0    0  0.18872331832E+02  0.33134757239E+01 -0.62990885730E+02  0.65840769127E+02  0.10566000000E+00 0. -1.
        -13    1    4    4    0    0  0.15829935807E+01  0.22223453478E+00 -0.49807309418E+01  0.52320265305E+01  0.10566000000E+00 0. -1.
         14    1    4    4    0    0  0.13129769605E+02  0.15612615555E+01 -0.48056059148E+02  0.49841882071E+02  0.00000000000E+00 0. -1.
<mgrwt>
<rscale>  0 0.80261511E+02</rscale>
<asrwt>0</asrwt>
<pdfrwt beam="1">  1        2 0.23796062E-01 0.80261511E+02</pdfrwt>
<pdfrwt beam="2">  1       -1 0.16018538E-02 0.80261511E+02</pdfrwt>
<totfact> 0.20055588E+05</totfact>
</mgrwt>
</event>
<event>
 8    1  0.7667702E-014  0.8042704E+02  0.7818608E-02  0.1327844E+00
          2   -1    0    0  501    0  0.00000000000E+00  0.00000000000E+00  0.97120490048E+03  0.97120490048E+03  0.25500000000E-02 0. -1.
         -1   -1    0    0    0  501 -0.00000000000E+00 -0.00000000000E+00 -0.16650691378E+01  0.16650767656E+01  0.50400000000E-02 0.  1.
         24    2    1    2    0    0  0.00000000000E+00  0.00000000000E+00  0.96953983134E+03  0.97286997725E+03  0.80427035712E+02 0.  0.
         66    2    3    3    0    0 -0.62160801911E+01  0.21769304420E+02  0.88672808148E+03  0.88701929672E+03  0.20000005628E+01 0.  0.
        -13    1    3    3    0    0  0.62160801911E+01 -0.21769304420E+02  0.82811749863E+02  0.85850680529E+02  0.10566000000E+00 0.  1.
         13    1    4    4    0    0 -0.21345534325E+01  0.83769682822E+01  0.30948495947E+03  0.30960568667E+03  0.10566000000E+00 0. -1.
        -13    1    4    4    0    0 -0.12652228893E+01  0.56071307332E+01  0.24193244343E+03  0.24200074184E+03  0.10566000000E+00 0.  1.
        -14    1    4    4    0    0 -0.28163038693E+01  0.77852054044E+01  0.33531067858E+03  0.33541286821E+03  0.00000000000E+00 0.  1.
<mgrwt>
<rscale>  0 0.80427036E+02</rscale>
<asrwt>0</asrwt>
<pdfrwt beam="1">  1        2 0.14941594E+00 0.80427036E+02</pdfrwt>
<pdfrwt beam="2">  1       -1 0.25616542E-03 0.80427036E+02</pdfrwt>
<totfact> 0.34694652E+05</totfact>
</mgrwt>
</event>
<event>
 8    1  0.7667702E-014  0.8077163E+02  0.7818608E-02  0.1326876E+00
          2   -1    0    0  501    0  0.00000000000E+00  0.00000000000E+00  0.11545857426E+04  0.11545857426E+04  0.25500000000E-02 0. -1.
         -1   -1    0    0    0  501 -0.00000000000E+00 -0.00000000000E+00 -0.14126355830E+01  0.14126445739E+01  0.50400000000E-02 0.  1.
         24    2    1    2    0    0  0.11102230246E-15  0.00000000000E+00  0.11531731070E+04  0.11559983872E+04  0.80771631209E+02 0.  0.
         66    2    3    3    0    0 -0.95881627033E+00 -0.16292892417E+02  0.11052475589E+04  0.11053698675E+04  0.19999994466E+01 0.  0.
        -13    1    3    3    0    0  0.95881627033E+00  0.16292892417E+02  0.47925548187E+02  0.50628519680E+02  0.10566000000E+00 0.  1.
         13    1    4    4    0    0 -0.72281396902E+00 -0.64368140693E+01  0.44400799465E+03  0.44405525052E+03  0.10566000000E+00 0. -1.
        -13    1    4    4    0    0 -0.32709497559E+00 -0.68610915159E+01  0.50029733201E+03  0.50034449447E+03  0.10566000000E+00 0.  1.
         14    1    4    4    0    0  0.91092674281E-01 -0.29949868315E+01  0.16094223220E+03  0.16097012253E+03  0.00000000000E+00 0. -1.
<mgrwt>
<rscale>  0 0.80771631E+02</rscale>
<asrwt>0</asrwt>
<pdfrwt beam="1">  1        2 0.17762890E+00 0.80771631E+02</pdfrwt>
<pdfrwt beam="2">  1       -1 0.21732884E-03 0.80771631E+02</pdfrwt>
<totfact> 0.34296612E+05</totfact>
</mgrwt>
</event>
<event>
 8    1  0.7667702E-014  0.8031719E+02  0.7818608E-02  0.1328154E+00
          2   -1    0    0  501    0  0.00000000000E+00  0.00000000000E+00  0.70117503536E+02  0.70117503582E+02  0.25500000000E-02 0. -1.
         -1   -1    0    0    0  501 -0.00000000000E+00 -0.00000000000E+00 -0.23000143000E+02  0.23000143553E+02  0.50400000000E-02 0.  1.
         24    2    1    2    0    0  0.17763568394E-14  0.00000000000E+00  0.47117360535E+02  0.93117647135E+02  0.80317187103E+02 0.  0.
         66    2    3    3    0    0 -0.89480609506E+01  0.32408654083E+02  0.48982295591E+02  0.59444545094E+02  0.20000014340E+01 0.  0.
        -13    1    3    3    0    0  0.89480609506E+01 -0.32408654083E+02 -0.18649350560E+01  0.33673102041E+02  0.10566000000E+00 0.  1.
         13    1    4    4    0    0 -0.37145760752E+01  0.12106013370E+02  0.18821074457E+02  0.22684744717E+02  0.10566000000E+00 0.  1.
        -13    1    4    4    0    0 -0.73448923027E+00  0.43000335988E+01  0.55334902445E+01  0.70470165106E+01  0.10566000000E+00 0. -1.
         14    1    4    4    0    0 -0.44989956451E+01  0.16002607115E+02  0.24627730890E+02  0.29712783866E+02  0.00000000000E+00 0. -1.
<mgrwt>
<rscale>  0 0.80317187E+02</rscale>
<asrwt>0</asrwt>
<pdfrwt beam="1">  1        2 0.10787308E-01 0.80317187E+02</pdfrwt>
<pdfrwt beam="2">  1       -1 0.35384837E-02 0.80317187E+02</pdfrwt>
<totfact> 0.15980992E+05</totfact>
</mgrwt>
</event>
<event>
 8    1  0.7667702E-014  0.7974974E+02  0.7818608E-02  0.1329763E+00
          2   -1    0    0  501    0  0.00000000000E+00  0.00000000000E+00  0.47788877118E+03  0.47788877119E+03  0.25500000000E-02 0. -1.
         -1   -1    0    0    0  501 -0.00000000000E+00 -0.00000000000E+00 -0.33271434212E+01  0.33271472385E+01  0.50400000000E-02 0.  1.
         24    2    1    2    0    0  0.00000000000E+00  0.00000000000E+00  0.47456162776E+03  0.48121591842E+03  0.79749743603E+02 0.  0.
         66    2    3    3    0    0 -0.25800262031E+02 -0.13852853626E+02  0.40051107805E+03  0.40158520732E+03  0.20000064145E+01 0.  0.
        -13    1    3    3    0    0  0.25800262031E+02  0.13852853626E+02  0.74050549712E+02  0.79630711105E+02  0.10566000000E+00 0.  1.
         13    1    4    4    0    0 -0.31587768122E+01 -0.18784467868E+01  0.47204084145E+02  0.47347050143E+02  0.10566000000E+00 0. -1.
        -13    1    4    4    0    0 -0.22231588910E+02 -0.11901555250E+02  0.34474525429E+03  0.34566630163E+03  0.10566000000E+00 0.  1.
        -14    1    4    4    0    0 -0.40989630807E+00 -0.72851589482E-01  0.85617396092E+01  0.85718555443E+01  0.00000000000E+00 0.  1.
<mgrwt>
<rscale>  0 0.79749744E+02</rscale>
<asrwt>0</asrwt>
<pdfrwt beam="1">  1        2 0.73521382E-01 0.79749744E+02</pdfrwt>
<pdfrwt beam="2">  1       -1 0.51186829E-03 0.79749744E+02</pdfrwt>
<totfact> 0.30256328E+05</totfact>
</mgrwt>
</event>
<event>
 8    1  0.7667702E-014  0.7922715E+02  0.7818608E-02  0.1331259E+00
          2   -1    0    0  501    0  0.00000000000E+00  0.00000000000E+00  0.54701585364E+03  0.54701585364E+03  0.25500000000E-02 0. -1.
         -1   -1    0    0    0  501 -0.00000000000E+00 -0.00000000000E+00 -0.28687180794E+01  0.28687225068E+01  0.50400000000E-02 0.  1.
         24    2    1    2    0    0  0.00000000000E+00 -0.44408920985E-15  0.54414713556E+03  0.54988457615E+03  0.79227154132E+02 0.  0.
         66    2    3    3    0    0  0.23004935370E+02 -0.28308468746E+01  0.49499452981E+03  0.49554094210E+03  0.20000037835E+01 0.  0.
        -13    1    3    3    0    0 -0.23004935370E+02  0.28308468746E+01  0.49152605750E+02  0.54343634047E+02  0.10566000000E+00 0.  1.
         13    1    4    4    0    0  0.72932443383E+01 -0.48220565707E+00  0.15090944404E+03  0.15108638390E+03  0.10566000000E+00 0.  1.
        -13    1    4    4    0    0  0.94259556400E+01 -0.18174707842E+01  0.21961018973E+03  0.21981992275E+03  0.10566000000E+00 0. -1.
         14    1    4    4    0    0  0.62857353916E+01 -0.53117043330E+00  0.12447489604E+03  0.12463463546E+03  0.00000000000E+00 0. -1.
<mgrwt>
<rscale>  0 0.79227154E+02</rscale>
<asrwt>0</asrwt>
<pdfrwt beam="1">  1        2 0.84156258E-01 0.79227154E+02</pdfrwt>
<pdfrwt beam="2">  1       -1 0.44134173E-03 0.79227154E+02</pdfrwt>
<totfact> 0.32112998E+05</totfact>
</mgrwt>
</event>
<event>
 8    1  0.7667702E-014  0.7908957E+02  0.7818608E-02  0.1331655E+00
         -1   -1    0    0    0  501 -0.00000000000E+00  0.00000000000E+00  0.33482601953E+01  0.33482639886E+01  0.50400000000E-02 0.  1.
          2   -1    0    0  501    0  0.00000000000E+00 -0.00000000000E+00 -0.46704523551E+03  0.46704523552E+03  0.25500000000E-02 0. -1.
         24    2    1    2    0    0 -0.35527136788E-14  0.00000000000E+00 -0.46369697532E+03  0.47039349951E+03  0.79089566070E+02 0.  0.
         66    2    3    3    0    0 -0.26860266457E+02  0.79243133340E+01 -0.39783922546E+03  0.39882868248E+03  0.19999996190E+01 0.  0.
        -13    1    3    3    0    0  0.26860266457E+02 -0.79243133340E+01 -0.65857749859E+02  0.71564817030E+02  0.10566000000E+00 0.  1.
         13    1    4    4    0    0 -0.81962672617E+01  0.18507385847E+01 -0.11580796984E+03  0.11611245012E+03  0.10566000000E+00 0. -1.
        -13    1    4    4    0    0 -0.57653329157E+01  0.24130084878E+01 -0.85663131247E+02  0.85890889462E+02  0.10566000000E+00 0.  1.
         14    1    4    4    0    0 -0.12898666279E+02  0.36605662615E+01 -0.19636812437E+03  0.19682534290E+03  0.00000000000E+00 0. -1.
<mgrwt>
<rscale>  0 0.79089566E+02</rscale>
<asrwt>0</asrwt>
<pdfrwt beam="1">  1        2 0.71853062E-01 0.79089566E+02</pdfrwt>
<pdfrwt beam="2">  1       -1 0.51511762E-03 0.79089566E+02</pdfrwt>
<totfact> 0.30686847E+05</totfact>
</mgrwt>
</event>
<event>
 8    1  0.7667702E-014  0.7504429E+02  0.7818608E-02  0.1343734E+00
          2   -1    0    0  501    0  0.00000000000E+00  0.00000000000E+00  0.17888894037E+02  0.17888894218E+02  0.25500000000E-02 0. -1.
         -1   -1    0    0    0  501 -0.00000000000E+00 -0.00000000000E+00 -0.78703102350E+02  0.78703102512E+02  0.50400000000E-02 0.  1.
         24    2    1    2    0    0  0.17763568394E-14  0.00000000000E+00 -0.60814208314E+02  0.96591996730E+02  0.75044292918E+02 0.  0.
         66    2    3    3    0    0 -0.10150247794E+02  0.19473941968E+02  0.86892949146E+01  0.23701599070E+02  0.20000015772E+01 0.  0.
        -13    1    3    3    0    0  0.10150247794E+02 -0.19473941968E+02 -0.69503503228E+02  0.72890397660E+02  0.10566000000E+00 0.  1.
         13    1    4    4    0    0 -0.81456837226E+00  0.11141032018E+01  0.27337982481E+00  0.14109033069E+01  0.10566000000E+00 0.  1.
        -13    1    4    4    0    0 -0.68456368426E+01  0.13337838501E+02  0.67587519224E+01  0.16445442263E+02  0.10566000000E+00 0. -1.
         14    1    4    4    0    0 -0.24900425787E+01  0.50220002657E+01  0.16571631674E+01  0.58452534997E+01  0.00000000000E+00 0. -1.
<mgrwt>
<rscale>  0 0.75044293E+02</rscale>
<asrwt>0</asrwt>
<pdfrwt beam="1">  1        2 0.27521376E-02 0.75044293E+02</pdfrwt>
<pdfrwt beam="2">  1       -1 0.12108170E-01 0.75044293E+02</pdfrwt>
<totfact> 0.14585015E+05</totfact>
</mgrwt>
</event>
<event>
 8    1  0.7667702E-014  0.7885672E+02  0.7818608E-02  0.1332328E+00
         -1   -1    0    0    0  501 -0.00000000000E+00  0.00000000000E+00  0.10697101583E+02  0.10697102770E+02  0.50400000000E-02 0.  1.
          2   -1    0    0  501    0  0.00000000000E+00 -0.00000000000E+00 -0.14532866234E+03  0.14532866236E+03  0.25500000000E-02 0. -1.
         24    2    1    2    0    0 -0.35527136788E-14  0.00000000000E+00 -0.13463156075E+03  0.15602576513E+03  0.78856719644E+02 0.  0.
         66    2    3    3    0    0  0.22368671366E+02  0.14508724512E+02 -0.99547119194E+01  0.28529928550E+02  0.19999970074E+01 0.  0.
        -13    1    3    3    0    0 -0.22368671366E+02 -0.14508724512E+02 -0.12467684883E+03  0.12749583658E+03  0.10566000000E+00 0.  1.
         13    1    4    4    0    0  0.66163028870E+01  0.38370570943E+01 -0.30710973595E+01  0.82426496993E+01  0.10566000000E+00 0. -1.
        -13    1    4    4    0    0  0.10389562504E+01  0.32079739124E+00 -0.45744413732E+00  0.11843817927E+01  0.10566000000E+00 0.  1.
        -14    1    4    4    0    0  0.14713412228E+02  0.10350870027E+02 -0.64261704226E+01  0.19102897058E+02  0.00000000000E+00 0.  1.
<mgrwt>
<rscale>  0 0.78856720E+02</rscale>
<asrwt>0</asrwt>
<pdfrwt beam="1">  1        2 0.22358254E-01 0.78856720E+02</pdfrwt>
<pdfrwt beam="2">  1       -1 0.16457081E-02 0.78856720E+02</pdfrwt>
<totfact> 0.20599669E+05</totfact>
</mgrwt>
</event>
<event>
 8    1  0.7667702E-014  0.8135071E+02  0.7818608E-02  0.1325261E+00
          2   -1    0    0  501    0  0.00000000000E+00  0.00000000000E+00  0.26057481943E+03  0.26057481944E+03  0.25500000000E-02 0. -1.
         -1   -1    0    0    0  501 -0.00000000000E+00 -0.00000000000E+00 -0.63493640552E+01  0.63493660555E+01  0.50400000000E-02 0.  1.
         24    2    1    2    0    0  0.17763568394E-14  0.35527136788E-14  0.25422545537E+03  0.26692418550E+03  0.81350713846E+02 0.  0.
         66    2    3    3    0    0  0.11650438419E+02 -0.16984812994E+02  0.24218256879E+03  0.24306503905E+03  0.19999990080E+01 0.  0.
        -13    1    3    3    0    0 -0.11650438419E+02  0.16984812994E+02  0.12042886586E+02  0.23859146446E+02  0.10566000000E+00 0.  1.
         13    1    4    4    0    0  0.48044892796E+00 -0.47536795464E+00  0.69577642118E+01  0.69913126612E+01  0.10566000000E+00 0. -1.
        -13    1    4    4    0    0  0.42888687274E+01 -0.50436099741E+01  0.81224633874E+02  0.81494077751E+02  0.10566000000E+00 0. -1.
         14    1    4    4    0    0  0.68811207641E+01 -0.11465835065E+02  0.15400017070E+03  0.15457964864E+03  0.00000000000E+00 0. -1.
<mgrwt>
<rscale>  0 0.81350714E+02</rscale>
<asrwt>0</asrwt>
<pdfrwt beam="1">  1        2 0.40088417E-01 0.81350714E+02</pdfrwt>
<pdfrwt beam="2">  1       -1 0.97682580E-03 0.81350714E+02</pdfrwt>
<totfact> 0.23183130E+05</totfact>
</mgrwt>
</event>
<event>
 8    1  0.7667702E-014  0.7846318E+02  0.7818608E-02  0.1333470E+00
          2   -1    0    0  501    0  0.00000000000E+00  0.00000000000E+00  0.11159935604E+04  0.11159935604E+04  0.25500000000E-02 0. -1.
         -1   -1    0    0    0  501 -0.00000000000E+00 -0.00000000000E+00 -0.13791411011E+01  0.13791503103E+01  0.50400000000E-02 0.  1.
         24    2    1    2    0    0 -0.35527136788E-14 -0.35527136788E-14  0.11146144193E+04  0.11173727108E+04  0.78463182052E+02 0.  0.
         66    2    3    3    0    0 -0.18742135370E+02 -0.17974189135E+02  0.97596128675E+03  0.97630874847E+03  0.19999994523E+01 0.  0.
        -13    1    3    3    0    0  0.18742135370E+02  0.17974189135E+02  0.13865313259E+03  0.14106396228E+03  0.10566000000E+00 0.  1.
         13    1    4    4    0    0 -0.10293398255E+02 -0.10131607737E+02  0.56901177401E+03  0.56919505765E+03  0.10566000000E+00 0. -1.
        -13    1    4    4    0    0 -0.17643189366E+01 -0.21003884154E+01  0.92463229177E+02  0.92503969464E+02  0.10566000000E+00 0.  1.
        -14    1    4    4    0    0 -0.66844181781E+01 -0.57421929827E+01  0.31448628356E+03  0.31460972136E+03  0.00000000000E+00 0.  1.
<mgrwt>
<rscale>  0 0.78463182E+02</rscale>
<asrwt>0</asrwt>
<pdfrwt beam="1">  1        2 0.17169156E+00 0.78463182E+02</pdfrwt>
<pdfrwt beam="2">  1       -1 0.21217597E-03 0.78463182E+02</pdfrwt>
<totfact> 0.37050478E+05</totfact>
</mgrwt>
</event>
<event>
 8    1  0.7667702E-014  0.8762817E+02  0.7818608E-02  0.1308699E+00
         -1   -1    0    0    0  501 -0.00000000000E+00  0.00000000000E+00  0.17839219555E+02  0.17839220267E+02  0.50400000000E-02 0.  1.
          2   -1    0    0  501    0  0.00000000000E+00 -0.00000000000E+00 -0.10760975446E+03  0.10760975449E+03  0.25500000000E-02 0. -1.
         24    2    1    2    0    0  0.00000000000E+00 -0.17763568394E-14 -0.89770534909E+02  0.12544897476E+03  0.87628170875E+02 0.  0.
         66    2    3    3    0    0 -0.38864624098E+02  0.82890587958E+01 -0.18569317206E+02  0.43908849251E+02  0.19999997626E+01 0.  0.
        -13    1    3    3    0    0  0.38864624098E+02 -0.82890587958E+01 -0.71201217703E+02  0.81540125511E+02  0.10566000000E+00 0.  1.
         13    1    4    4    0    0 -0.16692056815E+01  0.58081362262E+00 -0.11930121347E+01  0.21349552830E+01  0.10566000000E+00 0.  1.
        -13    1    4    4    0    0 -0.28212082337E+02  0.56664245997E+01 -0.13092567305E+02  0.31614180999E+02  0.10566000000E+00 0. -1.
         14    1    4    4    0    0 -0.89833360787E+01  0.20418205735E+01 -0.42837377657E+01  0.10159712968E+02  0.00000000000E+00 0. -1.
<mgrwt>
<rscale>  0 0.87628171E+02</rscale>
<asrwt>0</asrwt>
<pdfrwt beam="1">  1        2 0.16555346E-01 0.87628171E+02</pdfrwt>
<pdfrwt beam="2">  1       -1 0.27444954E-02 0.87628171E+02</pdfrwt>
<totfact> 0.14168251E+05</totfact>
</mgrwt>
</event>
<event>
 8    1  0.7667702E-014  0.7985919E+02  0.7818608E-02  0.1329452E+00
          2   -1    0    0  501    0  0.00000000000E+00  0.00000000000E+00  0.16268946971E+03  0.16268946973E+03  0.25500000000E-02 0. -1.
         -1   -1    0    0    0  501 -0.00000000000E+00 -0.00000000000E+00 -0.98000958821E+01  0.98000971781E+01  0.50400000000E-02 0.  1.
         24    2    1    2    0    0  0.00000000000E+00  0.35527136788E-14  0.15288937383E+03  0.17248956691E+03  0.79859188968E+02 0.  0.
         66    2    3    3    0    0  0.50098675696E+01  0.29385914878E+02  0.13379097484E+03  0.13708630753E+03  0.19999996964E+01 0.  0.
        -13    1    3    3    0    0 -0.50098675696E+01 -0.29385914878E+02  0.19098398989E+02  0.35403259373E+02  0.10566000000E+00 0.  1.
         13    1    4    4    0    0  0.11257815260E+01  0.49869301814E+01  0.23719462672E+02  0.24264396349E+02  0.10566000000E+00 0. -1.
        -13    1    4    4    0    0  0.19915899542E+01  0.11300719347E+02  0.47555288285E+02  0.48920234016E+02  0.10566000000E+00 0.  1.
        -14    1    4    4    0    0  0.18924960894E+01  0.13098265349E+02  0.62516223881E+02  0.63901677169E+02  0.00000000000E+00 0.  1.
<mgrwt>
<rscale>  0 0.79859189E+02</rscale>
<asrwt>0</asrwt>
<pdfrwt beam="1">  1        2 0.25029149E-01 0.79859189E+02</pdfrwt>
<pdfrwt beam="2">  1       -1 0.15077072E-02 0.79859189E+02</pdfrwt>
<totfact> 0.20663538E+05</totfact>
</mgrwt>
</event>
<event>
 8    1  0.7667702E-014  0.8456104E+02  0.7818608E-02  0.1316584E+00
         -1   -1    0    0    0  501 -0.00000000000E+00  0.00000000000E+00  0.68096516651E+01  0.68096535302E+01  0.50400000000E-02 0.  1.
          2   -1    0    0  501    0  0.00000000000E+00 -0.00000000000E+00 -0.26251594877E+03  0.26251594879E+03  0.25500000000E-02 0. -1.
         24    2    1    2    0    0  0.00000000000E+00  0.35527136788E-14 -0.25570629711E+03  0.26932560232E+03  0.84561041160E+02 0.  0.
         66    2    3    3    0    0 -0.21003912445E+01 -0.16063423536E+02 -0.25222834464E+03  0.25275597539E+03  0.20000092529E+01 0.  0.
        -13    1    3    3    0    0  0.21003912445E+01  0.16063423536E+02 -0.34779524705E+01  0.16569626927E+02  0.10566000000E+00 0.  1.
         13    1    4    4    0    0 -0.12791211356E+00 -0.58968034665E+01 -0.84809860930E+02  0.85014777113E+02  0.10566000000E+00 0.  1.
        -13    1    4    4    0    0 -0.81208758601E+00 -0.46744792547E+01 -0.69340015443E+02  0.69502224053E+02  0.10566000000E+00 0. -1.
        -14    1    4    4    0    0 -0.11603915449E+01 -0.54921408148E+01 -0.98078468265E+02  0.98238974223E+02  0.00000000000E+00 0.  1.
<mgrwt>
<rscale>  0 0.84561041E+02</rscale>
<asrwt>0</asrwt>
<pdfrwt beam="1">  1        2 0.40387061E-01 0.84561041E+02</pdfrwt>
<pdfrwt beam="2">  1       -1 0.10476391E-02 0.84561041E+02</pdfrwt>
<totfact> 0.20990423E+05</totfact>
</mgrwt>
</event>
<event>
 8    1  0.7667702E-014  0.8031033E+02  0.7818608E-02  0.1328173E+00
          2   -1    0    0  501    0  0.00000000000E+00  0.00000000000E+00  0.29720577274E+02  0.29720577383E+02  0.25500000000E-02 0. -1.
         -1   -1    0    0    0  501 -0.00000000000E+00 -0.00000000000E+00 -0.54253222018E+02  0.54253222252E+02  0.50400000000E-02 0.  1.
         24    2    1    2    0    0 -0.17763568394E-14  0.00000000000E+00 -0.24532644744E+02  0.83973799636E+02  0.80310325408E+02 0.  0.
         66    2    3    3    0    0 -0.10305621844E+02  0.31950480621E+02  0.10715226483E+02  0.35296673143E+02  0.20000007082E+01 0.  0.
        -13    1    3    3    0    0  0.10305621844E+02 -0.31950480621E+02 -0.35247871227E+02  0.48677126493E+02  0.10566000000E+00 0.  1.
         13    1    4    4    0    0 -0.38809032295E+01  0.13722177683E+02  0.48031326366E+01  0.15047950604E+02  0.10566000000E+00 0. -1.
        -13    1    4    4    0    0 -0.34346062334E+01  0.96214537421E+01  0.24890243079E+01  0.10515478978E+02  0.10566000000E+00 0.  1.
        -14    1    4    4    0    0 -0.29901123807E+01  0.86068491966E+01  0.34230695386E+01  0.97332435605E+01  0.00000000000E+00 0.  1.
<mgrwt>
<rscale>  0 0.80310325E+02</rscale>
<asrwt>0</asrwt>
<pdfrwt beam="1">  1        2 0.45723965E-02 0.80310325E+02</pdfrwt>
<pdfrwt beam="2">  1       -1 0.83466496E-02 0.80310325E+02</pdfrwt>
<totfact> 0.13285330E+05</totfact>
</mgrwt>
</event>
<event>
 8    1  0.7667702E-014  0.7847857E+02  0.7818608E-02  0.1333425E+00
         -1   -1    0    0    0  501 -0.00000000000E+00  0.00000000000E+00  0.22194341656E+03  0.22194341661E+03  0.50400000000E-02 0.  1.
          2   -1    0    0  501    0  0.00000000000E+00 -0.00000000000E+00 -0.69374510252E+01  0.69374514938E+01  0.25500000000E-02 0. -1.
         24    2    1    2    0    0  0.00000000000E+00  0.00000000000E+00  0.21500596553E+03  0.22888086811E+03  0.78478573965E+02 0.  0.
         66    2    3    3    0    0  0.20637991108E+01 -0.35867048415E+02  0.61735452080E+02  0.71456073725E+02  0.19999999827E+01 0.  0.
        -13    1    3    3    0    0 -0.20637991108E+01  0.35867048415E+02  0.15327051345E+03  0.15742479438E+03  0.10566000000E+00 0.  1.
         13    1    4    4    0    0  0.59190257931E-02 -0.67936333023E+01  0.11919062876E+02  0.13719646947E+02  0.10566000000E+00 0. -1.
        -13    1    4    4    0    0  0.79834794274E+00 -0.13319859059E+02  0.24278957514E+02  0.27704421069E+02  0.10566000000E+00 0.  1.
        -14    1    4    4    0    0  0.12595321423E+01 -0.15753556054E+02  0.25537431690E+02  0.30032005709E+02  0.00000000000E+00 0.  1.
<mgrwt>
<rscale>  0 0.78478574E+02</rscale>
<asrwt>0</asrwt>
<pdfrwt beam="1">  1        2 0.10673000E-02 0.78478574E+02</pdfrwt>
<pdfrwt beam="2">  1       -1 0.34145146E-01 0.78478574E+02</pdfrwt>
<totfact> 0.10124665E+05</totfact>
</mgrwt>
</event>
<event>
 8    1  0.7667702E-014  0.7995226E+02  0.7818608E-02  0.1329187E+00
         -1   -1    0    0    0  501 -0.00000000000E+00  0.00000000000E+00  0.32849754012E+01  0.32849792676E+01  0.50400000000E-02 0.  1.
          2   -1    0    0  501    0  0.00000000000E+00 -0.00000000000E+00 -0.48648467631E+03  0.48648467632E+03  0.25500000000E-02 0. -1.
         24    2    1    2    0    0 -0.17763568394E-14  0.00000000000E+00 -0.48319970091E+03  0.48976965559E+03  0.79952264338E+02 0.  0.
         66    2    3    3    0    0  0.11295941230E+02  0.38264947166E+02 -0.25442625080E+03  0.25754324213E+03  0.19999994428E+01 0.  0.
        -13    1    3    3    0    0 -0.11295941230E+02 -0.38264947166E+02 -0.22877345011E+03  0.23222641346E+03  0.10566000000E+00 0.  1.
         13    1    4    4    0    0  0.28270770257E+01  0.11199002635E+02 -0.77725864079E+02  0.78579457464E+02  0.10566000000E+00 0. -1.
        -13    1    4    4    0    0  0.43368390459E+01  0.12713617129E+02 -0.85179985826E+02  0.86232739622E+02  0.10566000000E+00 0.  1.
         14    1    4    4    0    0  0.41320251583E+01  0.14352327401E+02 -0.91520400898E+02  0.92731045041E+02  0.00000000000E+00 0. -1.
<mgrwt>
<rscale>  0 0.79952264E+02</rscale>
<asrwt>0</asrwt>
<pdfrwt beam="1">  1        2 0.74843739E-01 0.79952264E+02</pdfrwt>
<pdfrwt beam="2">  1       -1 0.50538152E-03 0.79952264E+02</pdfrwt>
<totfact> 0.30231574E+05</totfact>
</mgrwt>
</event>
<event>
 8    1  0.7667702E-014  0.8077919E+02  0.7818608E-02  0.1326855E+00
         -1   -1    0    0    0  501 -0.00000000000E+00  0.00000000000E+00  0.35483713632E+01  0.35483749425E+01  0.50400000000E-02 0.  1.
          2   -1    0    0  501    0  0.00000000000E+00 -0.00000000000E+00 -0.45973722195E+03  0.45973722195E+03  0.25500000000E-02 0. -1.
         24    2    1    2    0    0  0.88817841970E-15  0.00000000000E+00 -0.45618885058E+03  0.46328559689E+03  0.80779186024E+02 0.  0.
         66    2    3    3    0    0  0.59201162461E+01 -0.17406455078E+02 -0.43432524328E+03  0.43471881648E+03  0.20000000884E+01 0.  0.
        -13    1    3    3    0    0 -0.59201162461E+01  0.17406455078E+02 -0.21863607303E+02  0.28566780412E+02  0.10566000000E+00 0.  1.
         13    1    4    4    0    0  0.16001753574E+01 -0.56091622567E+01 -0.12593805622E+03  0.12607310748E+03  0.10566000000E+00 0. -1.
        -13    1    4    4    0    0  0.43035221299E+01 -0.11372290757E+02 -0.29213807274E+03  0.29239102929E+03  0.10566000000E+00 0.  1.
        -14    1    4    4    0    0  0.16418758719E-01 -0.42500206410E+00 -0.16249114325E+02  0.16254679716E+02  0.00000000000E+00 0.  1.
<mgrwt>
<rscale>  0 0.80779186E+02</rscale>
<asrwt>0</asrwt>
<pdfrwt beam="1">  1        2 0.70728756E-01 0.80779186E+02</pdfrwt>
<pdfrwt beam="2">  1       -1 0.54590393E-03 0.80779186E+02</pdfrwt>
<totfact> 0.28889604E+05</totfact>
</mgrwt>
</event>
<event>
 8    1  0.7667702E-014  0.8022316E+02  0.7818608E-02  0.1328419E+00
         -1   -1    0    0    0  501 -0.00000000000E+00  0.00000000000E+00  0.50256811265E+01  0.50256836536E+01  0.50400000000E-02 0.  1.
          2   -1    0    0  501    0  0.00000000000E+00 -0.00000000000E+00 -0.32014335112E+03  0.32014335113E+03  0.25500000000E-02 0. -1.
         24    2    1    2    0    0  0.00000000000E+00  0.00000000000E+00 -0.31511767000E+03  0.32516903479E+03  0.80223159001E+02 0.  0.
         66    2    3    3    0    0 -0.13767147030E+02 -0.35734078938E+02 -0.20569716473E+03  0.20924096712E+03  0.20000027167E+01 0.  0.
        -13    1    3    3    0    0  0.13767147030E+02  0.35734078938E+02 -0.10942050527E+03  0.11592806766E+03  0.10566000000E+00 0.  1.
         13    1    4    4    0    0 -0.38691672473E+01 -0.11051814617E+02 -0.63198091042E+02  0.64273812217E+02  0.10566000000E+00 0. -1.
        -13    1    4    4    0    0 -0.12348371489E+01 -0.46204645319E+01 -0.25741619714E+02  0.26182354074E+02  0.10566000000E+00 0.  1.
         14    1    4    4    0    0 -0.86631426337E+01 -0.20061799789E+02 -0.11675745397E+03  0.11878480083E+03  0.00000000000E+00 0. -1.
<mgrwt>
<rscale>  0 0.80223159E+02</rscale>
<asrwt>0</asrwt>
<pdfrwt beam="1">  1        2 0.49252807E-01 0.80223159E+02</pdfrwt>
<pdfrwt beam="2">  1       -1 0.77318216E-03 0.80223159E+02</pdfrwt>
<totfact> 0.25910670E+05</totfact>
</mgrwt>
</event>
<event>
 8    1  0.7667702E-014  0.7701048E+02  0.7818608E-02  0.1337756E+00
         -1   -1    0    0    0  501 -0.00000000000E+00  0.00000000000E+00  0.24011159548E+01  0.24011212443E+01  0.50400000000E-02 0.  1.
          2   -1    0    0  501    0  0.00000000000E+00 -0.00000000000E+00 -0.61748455125E+03  0.61748455126E+03  0.25500000000E-02 0. -1.
         24    2    1    2    0    0 -0.35527136788E-14 -0.44408920985E-15 -0.61508343530E+03  0.61988567250E+03  0.77010483674E+02 0.  0.
         66    2    3    3    0    0 -0.24840449978E+02 -0.35831697136E+01 -0.54253105676E+03  0.54311493683E+03  0.19999992978E+01 0.  0.
        -13    1    3    3    0    0  0.24840449978E+02  0.35831697136E+01 -0.72552378538E+02  0.76770735674E+02  0.10566000000E+00 0.  1.
         13    1    4    4    0    0 -0.16130446922E+02 -0.31417153597E+01 -0.35703180710E+03  0.35740982658E+03  0.10566000000E+00 0. -1.
        -13    1    4    4    0    0 -0.36785675280E+01 -0.18908666023E+00 -0.72391099635E+02  0.72484826572E+02  0.10566000000E+00 0.  1.
         14    1    4    4    0    0 -0.50314355283E+01 -0.25236769369E+00 -0.11310815003E+03  0.11322028367E+03  0.00000000000E+00 0. -1.
<mgrwt>
<rscale>  0 0.77010484E+02</rscale>
<asrwt>0</asrwt>
<pdfrwt beam="1">  1        2 0.94997497E-01 0.77010484E+02</pdfrwt>
<pdfrwt beam="2">  1       -1 0.36940336E-03 0.77010484E+02</pdfrwt>
<totfact> 0.35787739E+05</totfact>
</mgrwt>
</event>
<event>
 8    1  0.7667702E-014  0.8328483E+02  0.7818608E-02  0.1319980E+00
         -1   -1    0    0    0  501 -0.00000000000E+00  0.00000000000E+00  0.14556586706E+02  0.14556587578E+02  0.50400000000E-02 0.  1.
          2   -1    0    0  501    0  0.00000000000E+00 -0.00000000000E+00 -0.11912757492E+03  0.11912757495E+03  0.25500000000E-02 0. -1.
         24    2    1    2    0    0  0.00000000000E+00  0.88817841970E-15 -0.10457098822E+03  0.13368416253E+03  0.83284834958E+02 0.  0.
         66    2    3    3    0    0 -0.39436979969E+02 -0.61985031783E+01 -0.71198299488E+02  0.81651054339E+02  0.19999984759E+01 0.  0.
        -13    1    3    3    0    0  0.39436979969E+02  0.61985031783E+01 -0.33372688727E+02  0.52033108187E+02  0.10566000000E+00 0.  1.
         13    1    4    4    0    0 -0.26361221569E+02 -0.49958328895E+01 -0.48589997465E+02  0.55505597615E+02  0.10566000000E+00 0. -1.
        -13    1    4    4    0    0 -0.77186916656E+01 -0.68990212418E+00 -0.13260250752E+02  0.15359022756E+02  0.10566000000E+00 0.  1.
         14    1    4    4    0    0 -0.53570667346E+01 -0.51276816453E+00 -0.93480512702E+01  0.10786433968E+02  0.00000000000E+00 0. -1.
<mgrwt>
<rscale>  0 0.83284835E+02</rscale>
<asrwt>0</asrwt>
<pdfrwt beam="1">  1        2 0.18327319E-01 0.83284835E+02</pdfrwt>
<pdfrwt beam="2">  1       -1 0.22394750E-02 0.83284835E+02</pdfrwt>
<totfact> 0.16744079E+05</totfact>
</mgrwt>
</event>
<event>
 8    1  0.7667702E-014  0.7980616E+02  0.7818608E-02  0.1329602E+00
          2   -1    0    0  501    0  0.00000000000E+00  0.00000000000E+00  0.26876462551E+03  0.26876462552E+03  0.25500000000E-02 0. -1.
         -1   -1    0    0    0  501 -0.00000000000E+00 -0.00000000000E+00 -0.59243487726E+01  0.59243509165E+01  0.50400000000E-02 0.  1.
         24    2    1    2    0    0  0.00000000000E+00 -0.17763568394E-14  0.26284027674E+03  0.27468897644E+03  0.79806157040E+02 0.  0.
         66    2    3    3    0    0  0.35958514858E+02 -0.11199457085E+02  0.86386855751E+02  0.94260975365E+02  0.20000000746E+01 0.  0.
        -13    1    3    3    0    0 -0.35958514858E+02  0.11199457085E+02  0.17645342099E+03  0.18042800107E+03  0.10566000000E+00 0.  1.
         13    1    4    4    0    0  0.14201217508E+02 -0.45910097393E+01  0.34373189256E+02  0.37473714158E+02  0.10566000000E+00 0. -1.
        -13    1    4    4    0    0  0.10418974808E+02 -0.31997045730E+01  0.26821286538E+02  0.28951437287E+02  0.10566000000E+00 0.  1.
         14    1    4    4    0    0  0.11338322542E+02 -0.34087427730E+01  0.25192379957E+02  0.27835823919E+02  0.00000000000E+00 0. -1.
<mgrwt>
<rscale>  0 0.79806157E+02</rscale>
<asrwt>0</asrwt>
<pdfrwt beam="1">  1        2 0.41348388E-01 0.79806157E+02</pdfrwt>
<pdfrwt beam="2">  1       -1 0.91143879E-03 0.79806157E+02</pdfrwt>
<totfact> 0.24655711E+05</totfact>
</mgrwt>
</event>
<event>
 8    1  0.7667702E-014  0.7914399E+02  0.7818608E-02  0.1331498E+00
          2   -1    0    0  501    0  0.00000000000E+00  0.00000000000E+00  0.45672621933E+03  0.45672621934E+03  0.25500000000E-02 0. -1.
         -1   -1    0    0    0  501 -0.00000000000E+00 -0.00000000000E+00 -0.34286229525E+01  0.34286266568E+01  0.50400000000E-02 0.  1.
         24    2    1    2    0    0  0.00000000000E+00 -0.17763568394E-14  0.45329759638E+03  0.46015484600E+03  0.79143991623E+02 0.  0.
         66    2    3    3    0    0  0.24038172870E+02 -0.14656619541E+02  0.38826402084E+03  0.38928858207E+03  0.20000000808E+01 0.  0.
        -13    1    3    3    0    0 -0.24038172870E+02  0.14656619541E+02  0.65033575543E+02  0.70866263929E+02  0.10566000000E+00 0.  1.
         13    1    4    4    0    0  0.57412929312E+01 -0.33652319706E+01  0.92601206258E+02  0.92840087221E+02  0.10566000000E+00 0. -1.
        -13    1    4    4    0    0  0.37923829116E+01 -0.27950951673E+01  0.73164369458E+02  0.73315965842E+02  0.10566000000E+00 0.  1.
        -14    1    4    4    0    0  0.14504497027E+02 -0.84962924035E+01  0.22249844512E+03  0.22313252900E+03  0.00000000000E+00 0.  1.
<mgrwt>
<rscale>  0 0.79143992E+02</rscale>
<asrwt>0</asrwt>
<pdfrwt beam="1">  1        2 0.70265526E-01 0.79143992E+02</pdfrwt>
<pdfrwt beam="2">  1       -1 0.52748109E-03 0.79143992E+02</pdfrwt>
<totfact> 0.30405830E+05</totfact>
</mgrwt>
</event>
<event>
 8    1  0.7667702E-014  0.7960890E+02  0.7818608E-02  0.1330165E+00
         -1   -1    0    0    0  501 -0.00000000000E+00  0.00000000000E+00  0.34525777221E+02  0.34525777589E+02  0.50400000000E-02 0.  1.
          2   -1    0    0  501    0  0.00000000000E+00 -0.00000000000E+00 -0.45890177447E+02  0.45890177518E+02  0.25500000000E-02 0. -1.
         24    2    1    2    0    0  0.17763568394E-14  0.35527136788E-14 -0.11364400226E+02  0.80415955107E+02  0.79608895503E+02 0.  0.
         66    2    3    3    0    0 -0.12166288249E+02 -0.29334468250E+02 -0.29883996290E+02  0.43652981891E+02  0.19999991252E+01 0.  0.
        -13    1    3    3    0    0  0.12166288249E+02  0.29334468250E+02  0.18519596064E+02  0.36762973215E+02  0.10566000000E+00 0.  1.
         13    1    4    4    0    0 -0.21202940673E+01 -0.50166495010E+01 -0.46807466145E+01  0.71821286575E+01  0.10566000000E+00 0.  1.
        -13    1    4    4    0    0 -0.69509617623E+01 -0.18482829189E+02 -0.19302691129E+02  0.27614052457E+02  0.10566000000E+00 0. -1.
         14    1    4    4    0    0 -0.30950324191E+01 -0.58349895601E+01 -0.59005585462E+01  0.88568007768E+01  0.00000000000E+00 0. -1.
<mgrwt>
<rscale>  0 0.79608896E+02</rscale>
<asrwt>0</asrwt>
<pdfrwt beam="1">  1        2 0.70600273E-02 0.79608896E+02</pdfrwt>
<pdfrwt beam="2">  1       -1 0.53116581E-02 0.79608896E+02</pdfrwt>
<totfact> 0.14868850E+05</totfact>
</mgrwt>
</event>
<event>
 8    1  0.7667702E-014  0.7979345E+02  0.7818608E-02  0.1329639E+00
          2   -1    0    0  501    0  0.00000000000E+00  0.00000000000E+00  0.66073419469E+03  0.66073419470E+03  0.25500000000E-02 0. -1.
         -1   -1    0    0    0  501 -0.00000000000E+00 -0.00000000000E+00 -0.24090576235E+01  0.24090628956E+01  0.50400000000E-02 0.  1.
         24    2    1    2    0    0  0.00000000000E+00  0.88817841970E-15  0.65832513707E+03  0.66314325759E+03  0.79793445809E+02 0.  0.
         66    2    3    3    0    0 -0.32333523565E+02 -0.44893755466E+01  0.51963452740E+03  0.52066270589E+03  0.20000000885E+01 0.  0.
        -13    1    3    3    0    0  0.32333523565E+02  0.44893755466E+01  0.13869060967E+03  0.14248055170E+03  0.10566000000E+00 0.  1.
         13    1    4    4    0    0 -0.22272989929E+02 -0.27086574266E+01  0.35472563500E+03  0.35543453715E+03  0.10566000000E+00 0. -1.
        -13    1    4    4    0    0 -0.31470312327E+01 -0.62883390439E+00  0.44764053309E+02  0.44879069402E+02  0.10566000000E+00 0.  1.
         14    1    4    4    0    0 -0.69135024039E+01 -0.11518842156E+01  0.12014483909E+03  0.12034909934E+03  0.00000000000E+00 0. -1.
<mgrwt>
<rscale>  0 0.79793446E+02</rscale>
<asrwt>0</asrwt>
<pdfrwt beam="1">  1        2 0.10165132E+00 0.79793446E+02</pdfrwt>
<pdfrwt beam="2">  1       -1 0.37062501E-03 0.79793446E+02</pdfrwt>
<totfact> 0.33215609E+05</totfact>
</mgrwt>
</event>
<event>
 8    1  0.7667702E-014  0.6960219E+02  0.7818608E-02  0.1361451E+00
          2   -1    0    0  501    0  0.00000000000E+00  0.00000000000E+00  0.44862686457E+03  0.44862686458E+03  0.25500000000E-02 0. -1.
         -1   -1    0    0    0  501 -0.00000000000E+00 -0.00000000000E+00 -0.26996044234E+01  0.26996091280E+01  0.50400000000E-02 0.  1.
         24    2    1    2    0    0  0.35527136788E-14  0.00000000000E+00  0.44592726014E+03  0.45132647370E+03  0.69602187648E+02 0.  0.
         66    2    3    3    0    0  0.27902731070E+02 -0.20332462827E+02  0.24999277775E+03  0.25237345413E+03  0.19999929436E+01 0.  0.
        -13    1    3    3    0    0 -0.27902731070E+02  0.20332462827E+02  0.19593448239E+03  0.19895301958E+03  0.10566000000E+00 0.  1.
         13    1    4    4    0    0  0.23132785153E+00 -0.20126385970E+00  0.28328832856E+01  0.28513876379E+01  0.10566000000E+00 0. -1.
        -13    1    4    4    0    0  0.10594115069E+02 -0.69031782067E+01  0.93580061594E+02  0.94430547152E+02  0.10566000000E+00 0. -1.
         14    1    4    4    0    0  0.17077288150E+02 -0.13228020761E+02  0.15357983287E+03  0.15509151933E+03  0.00000000000E+00 0. -1.
<mgrwt>
<rscale>  0 0.69602188E+02</rscale>
<asrwt>0</asrwt>
<pdfrwt beam="1">  1        2 0.69019455E-01 0.69602188E+02</pdfrwt>
<pdfrwt beam="2">  1       -1 0.41532450E-03 0.69602188E+02</pdfrwt>
<totfact> 0.42146328E+05</totfact>
</mgrwt>
</event>
<event>
 8    1  0.7667702E-014  0.7598312E+02  0.7818608E-02  0.1340853E+00
         -1   -1    0    0    0  501 -0.00000000000E+00  0.00000000000E+00  0.16650430206E+01  0.16650506485E+01  0.50400000000E-02 0.  1.
          2   -1    0    0  501    0  0.00000000000E+00 -0.00000000000E+00 -0.86685767398E+03  0.86685767398E+03  0.25500000000E-02 0. -1.
         24    2    1    2    0    0  0.17763568394E-14  0.00000000000E+00 -0.86519263096E+03  0.86852272463E+03  0.75983120073E+02 0.  0.
         66    2    3    3    0    0  0.12046567560E+02  0.11944356325E+01 -0.84420269386E+03  0.84429185404E+03  0.20000002988E+01 0.  0.
        -13    1    3    3    0    0 -0.12046567560E+02 -0.11944356325E+01 -0.20989937096E+02  0.24230870595E+02  0.10566000000E+00 0.  1.
         13    1    4    4    0    0  0.50844113274E+01  0.65540019203E-01 -0.33060817304E+03  0.33064729059E+03  0.10566000000E+00 0. -1.
        -13    1    4    4    0    0  0.19158812251E+01 -0.25600828896E+00 -0.13469358548E+03  0.13470749525E+03  0.10566000000E+00 0.  1.
         14    1    4    4    0    0  0.50462750073E+01  0.13849039023E+01 -0.37890093534E+03  0.37893706820E+03  0.00000000000E+00 0. -1.
<mgrwt>
<rscale>  0 0.75983120E+02</rscale>
<asrwt>0</asrwt>
<pdfrwt beam="1">  1        2 0.13336236E+00 0.75983120E+02</pdfrwt>
<pdfrwt beam="2">  1       -1 0.25616174E-03 0.75983120E+02</pdfrwt>
<totfact> 0.39754236E+05</totfact>
</mgrwt>
</event>
<event>
 8    1  0.7667702E-014  0.8016249E+02  0.7818608E-02  0.1328591E+00
          2   -1    0    0  501    0  0.00000000000E+00  0.00000000000E+00  0.25734364599E+03  0.25734364600E+03  0.25500000000E-02 0. -1.
         -1   -1    0    0    0  501 -0.00000000000E+00 -0.00000000000E+00 -0.62426481098E+01  0.62426501443E+01  0.50400000000E-02 0.  1.
         24    2    1    2    0    0  0.35527136788E-14  0.00000000000E+00  0.25110099788E+03  0.26358629615E+03  0.80162487362E+02 0.  0.
         66    2    3    3    0    0  0.26598237595E+02  0.34260640866E+01  0.22346385642E+03  0.22507620773E+03  0.19999995672E+01 0.  0.
        -13    1    3    3    0    0 -0.26598237595E+02 -0.34260640866E+01  0.27637141458E+02  0.38510088423E+02  0.10566000000E+00 0.  1.
         13    1    4    4    0    0  0.10106543896E+02  0.10482899624E+01  0.85511160366E+02  0.86112779844E+02  0.10566000000E+00 0. -1.
        -13    1    4    4    0    0  0.13032915720E+02  0.12778593199E+01  0.10665815853E+03  0.10745912601E+03  0.10566000000E+00 0.  1.
         14    1    4    4    0    0  0.34587779794E+01  0.10999148042E+01  0.31294537526E+02  0.31504301875E+02  0.00000000000E+00 0. -1.
<mgrwt>
<rscale>  0 0.80162487E+02</rscale>
<asrwt>0</asrwt>
<pdfrwt beam="1">  1        2 0.39591331E-01 0.80162487E+02</pdfrwt>
<pdfrwt beam="2">  1       -1 0.96040753E-03 0.80162487E+02</pdfrwt>
<totfact> 0.23989395E+05</totfact>
</mgrwt>
</event>
<event>
 8    1  0.7667702E-014  0.8020837E+02  0.7818608E-02  0.1328461E+00
         -1   -1    0    0    0  501 -0.00000000000E+00  0.00000000000E+00  0.34810713766E+01  0.34810750251E+01  0.50400000000E-02 0.  1.
          2   -1    0    0  501    0  0.00000000000E+00 -0.00000000000E+00 -0.46202581346E+03  0.46202581347E+03  0.25500000000E-02 0. -1.
         24    2    1    2    0    0  0.17763568394E-14  0.17763568394E-14 -0.45854474208E+03  0.46550688849E+03  0.80208370768E+02 0.  0.
         66    2    3    3    0    0  0.96715513178E+01  0.11234744149E+02 -0.44552670747E+03  0.44577775343E+03  0.20000010328E+01 0.  0.
        -13    1    3    3    0    0 -0.96715513178E+01 -0.11234744149E+02 -0.13018034611E+02  0.19729135059E+02  0.10566000000E+00 0.  1.
         13    1    4    4    0    0  0.53415080200E+00  0.83060698712E+00 -0.31547900090E+02  0.31563529416E+02  0.10566000000E+00 0. -1.
        -13    1    4    4    0    0  0.74565631600E+01  0.90626650874E+01 -0.33259875742E+03  0.33280576442E+03  0.10566000000E+00 0.  1.
        -14    1    4    4    0    0  0.16808373558E+01  0.13414720747E+01 -0.81380049964E+02  0.81408459596E+02  0.00000000000E+00 0.  1.
<mgrwt>
<rscale>  0 0.80208371E+02</rscale>
<asrwt>0</asrwt>
<pdfrwt beam="1">  1        2 0.71080846E-01 0.80208371E+02</pdfrwt>
<pdfrwt beam="2">  1       -1 0.53555009E-03 0.80208371E+02</pdfrwt>
<totfact> 0.29477866E+05</totfact>
</mgrwt>
</event>
<event>
 8    1  0.7667702E-014  0.8140247E+02  0.7818608E-02  0.1325118E+00
         -1   -1    0    0    0  501 -0.00000000000E+00  0.00000000000E+00  0.89089244568E+01  0.89089258824E+01  0.50400000000E-02 0.  1.
          2   -1    0    0  501    0  0.00000000000E+00 -0.00000000000E+00 -0.18594728597E+03  0.18594728599E+03  0.25500000000E-02 0. -1.
         24    2    1    2    0    0  0.00000000000E+00  0.17763568394E-14 -0.17703836151E+03  0.19485621187E+03  0.81402468372E+02 0.  0.
         66    2    3    3    0    0  0.22025640160E+02  0.14934571501E+02 -0.16221310422E+03  0.16439361730E+03  0.19999939491E+01 0.  0.
        -13    1    3    3    0    0 -0.22025640160E+02 -0.14934571501E+02 -0.14825257289E+02  0.30462594572E+02  0.10566000000E+00 0.  1.
         13    1    4    4    0    0  0.66262360355E+01  0.37146590650E+01 -0.43707957372E+02  0.44363300121E+02  0.10566000000E+00 0. -1.
        -13    1    4    4    0    0  0.48630961727E+01  0.39688212945E+01 -0.37674676635E+02  0.38194157543E+02  0.10566000000E+00 0.  1.
         14    1    4    4    0    0  0.10536307951E+02  0.72510911413E+01 -0.80830470218E+02  0.81836159634E+02  0.00000000000E+00 0. -1.
<mgrwt>
<rscale>  0 0.81402468E+02</rscale>
<asrwt>0</asrwt>
<pdfrwt beam="1">  1        2 0.28607272E-01 0.81402468E+02</pdfrwt>
<pdfrwt beam="2">  1       -1 0.13706040E-02 0.81402468E+02</pdfrwt>
<totfact> 0.20545170E+05</totfact>
</mgrwt>
</event>
<event>
 8    1  0.7667702E-014  0.7986155E+02  0.7818608E-02  0.1329445E+00
         -1   -1    0    0    0  501 -0.00000000000E+00  0.00000000000E+00  0.22849794191E+01  0.22849849775E+01  0.50400000000E-02 0.  1.
          2   -1    0    0  501    0  0.00000000000E+00 -0.00000000000E+00 -0.69780279342E+03  0.69780279343E+03  0.25500000000E-02 0. -1.
         24    2    1    2    0    0  0.00000000000E+00 -0.35527136788E-14 -0.69551781400E+03  0.70008777841E+03  0.79861554427E+02 0.  0.
         66    2    3    3    0    0 -0.11983227674E+02  0.19069568444E+02 -0.63676018134E+03  0.63716149815E+03  0.20000004446E+01 0.  0.
        -13    1    3    3    0    0  0.11983227674E+02 -0.19069568444E+02 -0.58757632667E+02  0.62926280255E+02  0.10566000000E+00 0.  1.
         13    1    4    4    0    0 -0.28653988462E+01  0.34333915395E+01 -0.11955378174E+03  0.11963743804E+03  0.10566000000E+00 0. -1.
        -13    1    4    4    0    0 -0.19679498924E+01  0.39073621744E+01 -0.11552540336E+03  0.11560826221E+03  0.10566000000E+00 0.  1.
         14    1    4    4    0    0 -0.71498789352E+01  0.11728814731E+02 -0.40168099624E+03  0.40191579790E+03  0.00000000000E+00 0. -1.
<mgrwt>
<rscale>  0 0.79861554E+02</rscale>
<asrwt>0</asrwt>
<pdfrwt beam="1">  1        2 0.10735411E+00 0.79861554E+02</pdfrwt>
<pdfrwt beam="2">  1       -1 0.35153628E-03 0.79861554E+02</pdfrwt>
<totfact> 0.33578413E+05</totfact>
</mgrwt>
</event>
<event>
 8    1  0.7667702E-014  0.7958181E+02  0.7818608E-02  0.1330242E+00
          2   -1    0    0  501    0  0.00000000000E+00  0.00000000000E+00  0.61811741726E+03  0.61811741727E+03  0.25500000000E-02 0. -1.
         -1   -1    0    0    0  501 -0.00000000000E+00 -0.00000000000E+00 -0.25615111709E+01  0.25615161292E+01  0.50400000000E-02 0.  1.
         24    2    1    2    0    0 -0.22204460493E-15  0.00000000000E+00  0.61555590609E+03  0.62067893340E+03  0.79581812234E+02 0.  0.
         66    2    3    3    0    0  0.15575821494E+01 -0.23972976777E+02  0.55512105343E+03  0.55564423299E+03  0.20000018991E+01 0.  0.
        -13    1    3    3    0    0 -0.15575821494E+01  0.23972976777E+02  0.60434852656E+02  0.65034700409E+02  0.10566000000E+00 0.  1.
         13    1    4    4    0    0  0.16482573386E+00 -0.11427181316E+02  0.26540607864E+03  0.26565203817E+03  0.10566000000E+00 0.  1.
        -13    1    4    4    0    0  0.53577000171E+00 -0.93799832053E+01  0.21661345374E+03  0.21681713641E+03  0.10566000000E+00 0. -1.
        -14    1    4    4    0    0  0.85698641386E+00 -0.31658122558E+01  0.73101521048E+02  0.73175058405E+02  0.00000000000E+00 0.  1.
<mgrwt>
<rscale>  0 0.79581812E+02</rscale>
<asrwt>0</asrwt>
<pdfrwt beam="1">  1        2 0.95095068E-01 0.79581812E+02</pdfrwt>
<pdfrwt beam="2">  1       -1 0.39407869E-03 0.79581812E+02</pdfrwt>
<totfact> 0.32871934E+05</totfact>
</mgrwt>
</event>
<event>
 8    1  0.7667702E-014  0.8052635E+02  0.7818608E-02  0.1327564E+00
          2   -1    0    0  501    0  0.00000000000E+00  0.00000000000E+00  0.53111638806E+02  0.53111638867E+02  0.25500000000E-02 0. -1.
         -1   -1    0    0    0  501 -0.00000000000E+00 -0.00000000000E+00 -0.30522936358E+02  0.30522936774E+02  0.50400000000E-02 0.  1.
         24    2    1    2    0    0  0.00000000000E+00  0.00000000000E+00  0.22588702448E+02  0.83634575641E+02  0.80526348262E+02 0.  0.
         66    2    3    3    0    0  0.23963712227E+01 -0.31503952812E+02 -0.14577880000E+02  0.34853353304E+02  0.20000033451E+01 0.  0.
        -13    1    3    3    0    0 -0.23963712227E+01  0.31503952812E+02  0.37166582448E+02  0.48781222338E+02  0.10566000000E+00 0.  1.
         13    1    4    4    0    0  0.10398495190E+01 -0.16931807021E+02 -0.70545604925E+01  0.18372407676E+02  0.10566000000E+00 0. -1.
        -13    1    4    4    0    0  0.63302787987E-01 -0.35112256350E+01 -0.21150422208E+01  0.41008877495E+01  0.10566000000E+00 0.  1.
         14    1    4    4    0    0  0.12932189156E+01 -0.11060920156E+02 -0.54082772867E+01  0.12380057879E+02  0.00000000000E+00 0. -1.
<mgrwt>
<rscale>  0 0.80526348E+02</rscale>
<asrwt>0</asrwt>
<pdfrwt beam="1">  1        2 0.81710213E-02 0.80526348E+02</pdfrwt>
<pdfrwt beam="2">  1       -1 0.46958364E-02 0.80526348E+02</pdfrwt>
<totfact> 0.14873418E+05</totfact>
</mgrwt>
</event>
<event>
 8    1  0.7667702E-014  0.7097768E+02  0.7818608E-02  0.1356800E+00
          2   -1    0    0  501    0  0.00000000000E+00  0.00000000000E+00  0.78824648258E+02  0.78824648299E+02  0.25500000000E-02 0. -1.
         -1   -1    0    0    0  501 -0.00000000000E+00 -0.00000000000E+00 -0.15977968388E+02  0.15977969183E+02  0.50400000000E-02 0.  1.
         24    2    1    2    0    0  0.00000000000E+00 -0.35527136788E-14  0.62846679870E+02  0.94802617482E+02  0.70977680371E+02 0.  0.
         66    2    3    3    0    0 -0.20211285390E+02 -0.25949123029E+02  0.49147708454E+02  0.59172208771E+02  0.20000003731E+01 0.  0.
        -13    1    3    3    0    0  0.20211285390E+02  0.25949123029E+02  0.13698971416E+02  0.35630408711E+02  0.10566000000E+00 0.  1.
         13    1    4    4    0    0 -0.10044215547E+02 -0.13398718841E+02  0.25292455472E+02  0.30333667770E+02  0.10566000000E+00 0. -1.
        -13    1    4    4    0    0 -0.80332373631E+01 -0.90273504772E+01  0.17938064522E+02  0.21628945467E+02  0.10566000000E+00 0.  1.
        -14    1    4    4    0    0 -0.21338324792E+01 -0.35230537108E+01  0.59171884604E+01  0.72095955347E+01  0.00000000000E+00 0.  1.
<mgrwt>
<rscale>  0 0.70977680E+02</rscale>
<asrwt>0</asrwt>
<pdfrwt beam="1">  1        2 0.12126869E-01 0.70977680E+02</pdfrwt>
<pdfrwt beam="2">  1       -1 0.24581491E-02 0.70977680E+02</pdfrwt>
<totfact> 0.22904010E+05</totfact>
</mgrwt>
</event>
<event>
 8    1  0.7667702E-014  0.7910068E+02  0.7818608E-02  0.1331623E+00
         -1   -1    0    0    0  501 -0.00000000000E+00  0.00000000000E+00  0.95946190831E+01  0.95946204069E+01  0.50400000000E-02 0.  1.
          2   -1    0    0  501    0  0.00000000000E+00 -0.00000000000E+00 -0.16303195114E+03  0.16303195116E+03  0.25500000000E-02 0. -1.
         24    2    1    2    0    0 -0.17763568394E-14 -0.71054273576E-14 -0.15343733206E+03  0.17262657157E+03  0.79100684840E+02 0.  0.
         66    2    3    3    0    0 -0.82822960613E+01 -0.37051758400E+02 -0.10075328697E+03  0.10768776191E+03  0.20000004946E+01 0.  0.
        -13    1    3    3    0    0  0.82822960613E+01  0.37051758400E+02 -0.52684045089E+02  0.64938809656E+02  0.10566000000E+00 0.  1.
         13    1    4    4    0    0 -0.74502775079E+01 -0.34041659174E+02 -0.92773752017E+02  0.99102580298E+02  0.10566000000E+00 0. -1.
        -13    1    4    4    0    0 -0.33697386846E+00 -0.86933037098E+00 -0.29766883844E+01  0.31210774511E+01  0.10566000000E+00 0.  1.
         14    1    4    4    0    0 -0.49504468500E+00 -0.21407688541E+01 -0.50028465648E+01  0.54641041606E+01  0.00000000000E+00 0. -1.
<mgrwt>
<rscale>  0 0.79100685E+02</rscale>
<asrwt>0</asrwt>
<pdfrwt beam="1">  1        2 0.25081837E-01 0.79100685E+02</pdfrwt>
<pdfrwt beam="2">  1       -1 0.14760955E-02 0.79100685E+02</pdfrwt>
<totfact> 0.21206909E+05</totfact>
</mgrwt>
</event>
<event>
 8    1  0.7667702E-014  0.7985726E+02  0.7818608E-02  0.1329457E+00
          2   -1    0    0  501    0  0.00000000000E+00  0.00000000000E+00  0.10624940846E+02  0.10624941152E+02  0.25500000000E-02 0. -1.
         -1   -1    0    0    0  501 -0.00000000000E+00 -0.00000000000E+00 -0.15005217999E+03  0.15005218007E+03  0.50400000000E-02 0.  1.
         24    2    1    2    0    0  0.35527136788E-14  0.00000000000E+00 -0.13942723914E+03  0.16067712122E+03  0.79857261849E+02 0.  0.
         66    2    3    3    0    0  0.27632989908E+02  0.70005919378E+01 -0.13574415244E+02  0.31636294871E+02  0.19999962981E+01 0.  0.
        -13    1    3    3    0    0 -0.27632989908E+02 -0.70005919378E+01 -0.12585282390E+03  0.12904082635E+03  0.10566000000E+00 0.  1.
         13    1    4    4    0    0  0.24088305225E+02  0.61611021719E+01 -0.12123299269E+02  0.27662089180E+02  0.10566000000E+00 0. -1.
        -13    1    4    4    0    0  0.17546796935E+01  0.15886190577E+00 -0.90115634122E+00  0.19817630329E+01  0.10566000000E+00 0.  1.
         14    1    4    4    0    0  0.17900049894E+01  0.68062786018E+00 -0.54995963347E+00  0.19924426577E+01  0.00000000000E+00 0. -1.
<mgrwt>
<rscale>  0 0.79857262E+02</rscale>
<asrwt>0</asrwt>
<pdfrwt beam="1">  1        2 0.16346064E-02 0.79857262E+02</pdfrwt>
<pdfrwt beam="2">  1       -1 0.23084949E-01 0.79857262E+02</pdfrwt>
<totfact> 0.10835098E+05</totfact>
</mgrwt>
</event>
<event>
 8    1  0.7667702E-014  0.8118826E+02  0.7818608E-02  0.1325713E+00
          2   -1    0    0  501    0  0.00000000000E+00  0.00000000000E+00  0.21751259583E+02  0.21751259733E+02  0.25500000000E-02 0. -1.
         -1   -1    0    0    0  501 -0.00000000000E+00 -0.00000000000E+00 -0.75760367601E+02  0.75760367768E+02  0.50400000000E-02 0.  1.
         24    2    1    2    0    0  0.00000000000E+00 -0.71054273576E-14 -0.54009108017E+02  0.97511627501E+02  0.81188261153E+02 0.  0.
         66    2    3    3    0    0  0.18424558272E+02 -0.36141636707E+02 -0.27552897421E+02  0.49079979847E+02  0.20000035113E+01 0.  0.
        -13    1    3    3    0    0 -0.18424558272E+02  0.36141636707E+02 -0.26456210596E+02  0.48431647654E+02  0.10566000000E+00 0.  1.
         13    1    4    4    0    0  0.89985669062E+01 -0.16402247542E+02 -0.13490656406E+02  0.23065491651E+02  0.10566000000E+00 0. -1.
        -13    1    4    4    0    0  0.35178146650E+01 -0.78003556531E+01 -0.51636187348E+01  0.99947331534E+01  0.10566000000E+00 0.  1.
        -14    1    4    4    0    0  0.59081767007E+01 -0.11939033512E+02 -0.88986222808E+01  0.16019755043E+02  0.00000000000E+00 0.  1.
<mgrwt>
<rscale>  0 0.81188261E+02</rscale>
<asrwt>0</asrwt>
<pdfrwt beam="1">  1        2 0.33463477E-02 0.81188261E+02</pdfrwt>
<pdfrwt beam="2">  1       -1 0.11655441E-01 0.81188261E+02</pdfrwt>
<totfact> 0.12105481E+05</totfact>
</mgrwt>
</event>
<event>
 8    1  0.7667702E-014  0.7982735E+02  0.7818608E-02  0.1329542E+00
         -1   -1    0    0    0  501 -0.00000000000E+00  0.00000000000E+00  0.10523527809E+03  0.10523527821E+03  0.50400000000E-02 0.  1.
          2   -1    0    0  501    0  0.00000000000E+00 -0.00000000000E+00 -0.15138471900E+02  0.15138472115E+02  0.25500000000E-02 0. -1.
         24    2    1    2    0    0  0.17763568394E-14  0.00000000000E+00  0.90096806191E+02  0.12037375033E+03  0.79827346704E+02 0.  0.
         66    2    3    3    0    0  0.12067911378E+02  0.33842640776E+02  0.18952566200E+02  0.40671348433E+02  0.19999995185E+01 0.  0.
        -13    1    3    3    0    0 -0.12067911378E+02 -0.33842640776E+02  0.71144239991E+02  0.79702401893E+02  0.10566000000E+00 0.  1.
         13    1    4    4    0    0  0.21261550481E+01  0.79327051989E+01  0.47391280041E+01  0.94825547895E+01  0.10566000000E+00 0.  1.
        -13    1    4    4    0    0  0.75622476365E+01  0.19166735273E+02  0.10262006204E+02  0.23018932766E+02  0.10566000000E+00 0. -1.
         14    1    4    4    0    0  0.23795086930E+01  0.67432003038E+01  0.39514319923E+01  0.81698608768E+01  0.00000000000E+00 0. -1.
<mgrwt>
<rscale>  0 0.79827347E+02</rscale>
<asrwt>0</asrwt>
<pdfrwt beam="1">  1        2 0.23289957E-02 0.79827347E+02</pdfrwt>
<pdfrwt beam="2">  1       -1 0.16190043E-01 0.79827347E+02</pdfrwt>
<totfact> 0.11786472E+05</totfact>
</mgrwt>
</event>
<event>
 8    1  0.7667702E-014  0.8011125E+02  0.7818608E-02  0.1328736E+00
          2   -1    0    0  501    0  0.00000000000E+00  0.00000000000E+00  0.35786937144E+03  0.35786937145E+03  0.25500000000E-02 0. -1.
         -1   -1    0    0    0  501 -0.00000000000E+00 -0.00000000000E+00 -0.44833475333E+01  0.44833503662E+01  0.50400000000E-02 0.  1.
         24    2    1    2    0    0 -0.35527136788E-14 -0.71054273576E-14  0.35338602391E+03  0.36235272182E+03  0.80111254605E+02 0.  0.
         66    2    3    3    0    0  0.19629526112E+02  0.32044301259E+02  0.23919773922E+03  0.24213986451E+03  0.19999992053E+01 0.  0.
        -13    1    3    3    0    0 -0.19629526112E+02 -0.32044301259E+02  0.11418828469E+03  0.12021285731E+03  0.10566000000E+00 0.  1.
         13    1    4    4    0    0  0.98885002788E+01  0.15815563050E+02  0.12076873150E+03  0.12220070435E+03  0.10566000000E+00 0. -1.
        -13    1    4    4    0    0  0.77758615239E+01  0.12412365374E+02  0.88509573520E+02  0.89713358010E+02  0.10566000000E+00 0.  1.
         14    1    4    4    0    0  0.19651643094E+01  0.38163728349E+01  0.29919434207E+02  0.30225802151E+02  0.00000000000E+00 0. -1.
<mgrwt>
<rscale>  0 0.80111255E+02</rscale>
<asrwt>0</asrwt>
<pdfrwt beam="1">  1        2 0.55056844E-01 0.80111255E+02</pdfrwt>
<pdfrwt beam="2">  1       -1 0.68974578E-03 0.80111255E+02</pdfrwt>
<totfact> 0.27065458E+05</totfact>
</mgrwt>
</event>
<event>
 8    1  0.7667702E-014  0.7991349E+02  0.7818608E-02  0.1329297E+00
         -1   -1    0    0    0  501 -0.00000000000E+00  0.00000000000E+00  0.23564763572E+01  0.23564817469E+01  0.50400000000E-02 0.  1.
          2   -1    0    0  501    0  0.00000000000E+00 -0.00000000000E+00 -0.67751147428E+03  0.67751147428E+03  0.25500000000E-02 0. -1.
         24    2    1    2    0    0  0.88817841970E-15  0.00000000000E+00 -0.67515499792E+03  0.67986795603E+03  0.79913493345E+02 0.  0.
         66    2    3    3    0    0  0.77464169758E+01  0.28850750142E+02 -0.56322457536E+03  0.56401976477E+03  0.20000002451E+01 0.  0.
        -13    1    3    3    0    0 -0.77464169758E+01 -0.28850750142E+02 -0.11193042256E+03  0.11584819126E+03  0.10566000000E+00 0.  1.
         13    1    4    4    0    0  0.15582065650E+01  0.41754731980E+01 -0.89622565090E+02  0.89733371281E+02  0.10566000000E+00 0. -1.
        -13    1    4    4    0    0  0.13357269486E+01  0.40245424412E+01 -0.85182115469E+02  0.85287660703E+02  0.10566000000E+00 0.  1.
        -14    1    4    4    0    0  0.48524834621E+01  0.20650734503E+02 -0.38841989480E+03  0.38899873278E+03  0.00000000000E+00 0.  1.
<mgrwt>
<rscale>  0 0.79913493E+02</rscale>
<asrwt>0</asrwt>
<pdfrwt beam="1">  1        2 0.10423238E+00 0.79913493E+02</pdfrwt>
<pdfrwt beam="2">  1       -1 0.36253578E-03 0.79913493E+02</pdfrwt>
<totfact> 0.33289760E+05</totfact>
</mgrwt>
</event>
<event>
 8    1  0.7667702E-014  0.7803361E+02  0.7818608E-02  0.1334726E+00
         -1   -1    0    0    0  501 -0.00000000000E+00  0.00000000000E+00  0.13140666960E+03  0.13140666970E+03  0.50400000000E-02 0.  1.
          2   -1    0    0  501    0  0.00000000000E+00 -0.00000000000E+00 -0.11584732255E+02  0.11584732535E+02  0.25500000000E-02 0. -1.
         24    2    1    2    0    0  0.00000000000E+00 -0.88817841970E-15  0.11982193735E+03  0.14299140223E+03  0.78033610984E+02 0.  0.
         66    2    3    3    0    0 -0.28081454137E+02 -0.40188618127E+01  0.10931783643E+02  0.30466755802E+02  0.19999996914E+01 0.  0.
        -13    1    3    3    0    0  0.28081454137E+02  0.40188618127E+01  0.10889015371E+03  0.11252464643E+03  0.10566000000E+00 0.  1.
         13    1    4    4    0    0 -0.50802906575E+01 -0.82909663050E+00  0.26996255505E+01  0.58134238221E+01  0.10566000000E+00 0. -1.
        -13    1    4    4    0    0 -0.60734545297E+01 -0.72151099338E+00  0.25544949905E+01  0.66290298483E+01  0.10566000000E+00 0.  1.
        -14    1    4    4    0    0 -0.16927708950E+02 -0.24682541889E+01  0.56776631019E+01  0.18024302132E+02  0.00000000000E+00 0.  1.
<mgrwt>
<rscale>  0 0.78033611E+02</rscale>
<asrwt>0</asrwt>
<pdfrwt beam="1">  1        2 0.17822665E-02 0.78033611E+02</pdfrwt>
<pdfrwt beam="2">  1       -1 0.20216411E-01 0.78033611E+02</pdfrwt>
<totfact> 0.11865560E+05</totfact>
</mgrwt>
</event>
<event>
 8    1  0.7667702E-014  0.7779501E+02  0.7818608E-02  0.1335428E+00
          2   -1    0    0  501    0  0.00000000000E+00  0.00000000000E+00  0.17450702876E+04  0.17450702876E+04  0.25500000000E-02 0. -1.
         -1   -1    0    0    0  501 -0.00000000000E+00 -0.00000000000E+00 -0.86701553854E+00  0.86703018729E+00  0.50400000000E-02 0.  1.
         24    2    1    2    0    0  0.00000000000E+00  0.44408920985E-15  0.17442032720E+04  0.17459373178E+04  0.77795008701E+02 0.  0.
         66    2    3    3    0    0 -0.19300782853E+02 -0.35647507975E+01  0.16256926032E+04  0.16258123102E+04  0.20000005914E+01 0.  0.
        -13    1    3    3    0    0  0.19300782853E+02  0.35647507975E+01  0.11851066880E+03  0.12012500760E+03  0.10566000000E+00 0.  1.
         13    1    4    4    0    0 -0.38837274697E+01 -0.57217490428E+00  0.31201137392E+03  0.31203608660E+03  0.10566000000E+00 0. -1.
        -13    1    4    4    0    0 -0.13385249751E+02 -0.19899270975E+01  0.11245250324E+04  0.11246064576E+04  0.10566000000E+00 0.  1.
         14    1    4    4    0    0 -0.20318056324E+01 -0.10026487957E+01  0.18915619687E+03  0.18916976596E+03  0.00000000000E+00 0. -1.
<mgrwt>
<rscale>  0 0.77795009E+02</rscale>
<asrwt>0</asrwt>
<pdfrwt beam="1">  1        2 0.26847141E+00 0.77795009E+02</pdfrwt>
<pdfrwt beam="2">  1       -1 0.13338860E-03 0.77795009E+02</pdfrwt>
<totfact> 0.33166673E+05</totfact>
</mgrwt>
</event>
<event>
 8    1  0.7667702E-014  0.7845851E+02  0.7818608E-02  0.1333484E+00
          2   -1    0    0  501    0  0.00000000000E+00  0.00000000000E+00  0.28763132973E+02  0.28763133086E+02  0.25500000000E-02 0. -1.
         -1   -1    0    0    0  501 -0.00000000000E+00 -0.00000000000E+00 -0.53503711377E+02  0.53503711615E+02  0.50400000000E-02 0.  1.
         24    2    1    2    0    0 -0.35527136788E-14  0.35527136788E-14 -0.24740578405E+02  0.82266844700E+02  0.78458508252E+02 0.  0.
         66    2    3    3    0    0  0.21388692964E+02 -0.20300382241E+02  0.14708693951E+02  0.33014048239E+02  0.19999993793E+01 0.  0.
        -13    1    3    3    0    0 -0.21388692964E+02  0.20300382241E+02 -0.39449272356E+02  0.49252796462E+02  0.10566000000E+00 0.  1.
         13    1    4    4    0    0  0.47339941821E+01 -0.41676708708E+01  0.31700742791E+01  0.70597957743E+01  0.10566000000E+00 0. -1.
        -13    1    4    4    0    0  0.51060581996E+01 -0.46094983540E+01  0.42437407065E+01  0.80833040666E+01  0.10566000000E+00 0.  1.
        -14    1    4    4    0    0  0.11548640582E+02 -0.11523213016E+02  0.72948789657E+01  0.17870948398E+02  0.00000000000E+00 0.  1.
<mgrwt>
<rscale>  0 0.78458508E+02</rscale>
<asrwt>0</asrwt>
<pdfrwt beam="1">  1        2 0.44250974E-02 0.78458508E+02</pdfrwt>
<pdfrwt beam="2">  1       -1 0.82313403E-02 0.78458508E+02</pdfrwt>
<totfact> 0.14092321E+05</totfact>
</mgrwt>
</event>
<event>
 8    1  0.7667702E-014  0.7360546E+02  0.7818608E-02  0.1348245E+00
          2   -1    0    0  501    0  0.00000000000E+00  0.00000000000E+00  0.50084633803E+03  0.50084633803E+03  0.25500000000E-02 0. -1.
         -1   -1    0    0    0  501 -0.00000000000E+00 -0.00000000000E+00 -0.27043019922E+01  0.27043066887E+01  0.50400000000E-02 0.  1.
         24    2    1    2    0    0  0.00000000000E+00  0.00000000000E+00  0.49814203603E+03  0.50355064472E+03  0.73605459955E+02 0.  0.
         66    2    3    3    0    0  0.66961335386E+01  0.31909189691E+02  0.36563577903E+03  0.36709202865E+03  0.19999999375E+01 0.  0.
        -13    1    3    3    0    0 -0.66961335386E+01 -0.31909189691E+02  0.13250625701E+03  0.13645861608E+03  0.10566000000E+00 0.  1.
         13    1    4    4    0    0  0.27716213421E+01  0.16113138732E+02  0.17604457024E+03  0.17680219739E+03  0.10566000000E+00 0. -1.
        -13    1    4    4    0    0  0.29439486758E+01  0.10564671914E+02  0.12680198608E+03  0.12727542561E+03  0.10566000000E+00 0.  1.
         14    1    4    4    0    0  0.98056352060E+00  0.52313790454E+01  0.62789222699E+02  0.63014405644E+02  0.00000000000E+00 0. -1.
<mgrwt>
<rscale>  0 0.73605460E+02</rscale>
<asrwt>0</asrwt>
<pdfrwt beam="1">  1        2 0.77053234E-01 0.73605460E+02</pdfrwt>
<pdfrwt beam="2">  1       -1 0.41604708E-03 0.73605460E+02</pdfrwt>
<totfact> 0.37819744E+05</totfact>
</mgrwt>
</event>
<event>
 8    1  0.7667702E-014  0.8150228E+02  0.7818608E-02  0.1324841E+00
          2   -1    0    0  501    0  0.00000000000E+00  0.00000000000E+00  0.18246724717E+03  0.18246724719E+03  0.25500000000E-02 0. -1.
         -1   -1    0    0    0  501 -0.00000000000E+00 -0.00000000000E+00 -0.91011146360E+01  0.91011160315E+01  0.50400000000E-02 0.  1.
         24    2    1    2    0    0  0.00000000000E+00 -0.35527136788E-14  0.17336613254E+03  0.19156836322E+03  0.81502281421E+02 0.  0.
         66    2    3    3    0    0  0.92434040813E+01 -0.21767918532E+02  0.16466885672E+03  0.16637041555E+03  0.20000002241E+01 0.  0.
        -13    1    3    3    0    0 -0.92434040813E+01  0.21767918532E+02  0.86972758190E+01  0.25197947673E+02  0.10566000000E+00 0.  1.
         13    1    4    4    0    0  0.70083911361E+01 -0.15149287610E+02  0.11474190539E+03  0.11594970668E+03  0.10566000000E+00 0. -1.
        -13    1    4    4    0    0  0.37431116474E+00 -0.10466586314E+01  0.10370094334E+02  0.10430034692E+02  0.10566000000E+00 0.  1.
        -14    1    4    4    0    0  0.18607017805E+01 -0.55719722911E+01  0.39556856991E+02  0.39990674180E+02  0.00000000000E+00 0.  1.
<mgrwt>
<rscale>  0 0.81502281E+02</rscale>
<asrwt>0</asrwt>
<pdfrwt beam="1">  1        2 0.28071884E-01 0.81502281E+02</pdfrwt>
<pdfrwt beam="2">  1       -1 0.14001716E-02 0.81502281E+02</pdfrwt>
<totfact> 0.20346608E+05</totfact>
</mgrwt>
</event>
<event>
 8    1  0.7667702E-014  0.8972563E+02  0.7818608E-02  0.1303517E+00
          2   -1    0    0  501    0  0.00000000000E+00  0.00000000000E+00  0.46847976442E+03  0.46847976443E+03  0.25500000000E-02 0. -1.
         -1   -1    0    0    0  501 -0.00000000000E+00 -0.00000000000E+00 -0.42961756292E+01  0.42961785855E+01  0.50400000000E-02 0.  1.
         24    2    1    2    0    0 -0.17763568394E-14  0.00000000000E+00  0.46418358879E+03  0.47277594301E+03  0.89725627268E+02 0.  0.
         66    2    3    3    0    0 -0.92444630233E+01 -0.41116529191E+02  0.31291875600E+03  0.31575018120E+03  0.20000005542E+01 0.  0.
        -13    1    3    3    0    0  0.92444630233E+01  0.41116529191E+02  0.15126483279E+03  0.15702576181E+03  0.10566000000E+00 0.  1.
         13    1    4    4    0    0 -0.29646230025E+01 -0.17547715375E+02  0.13283807431E+03  0.13402490983E+03  0.10566000000E+00 0. -1.
        -13    1    4    4    0    0 -0.52362977569E+01 -0.19697570680E+02  0.15126448392E+03  0.15263147894E+03  0.10566000000E+00 0.  1.
         14    1    4    4    0    0 -0.10435422640E+01 -0.38712431364E+01  0.28816197776E+02  0.29093792433E+02  0.00000000000E+00 0. -1.
<mgrwt>
<rscale>  0 0.89725627E+02</rscale>
<asrwt>0</asrwt>
<pdfrwt beam="1">  1        2 0.72073770E-01 0.89725627E+02</pdfrwt>
<pdfrwt beam="2">  1       -1 0.66095069E-03 0.89725627E+02</pdfrwt>
<totfact> 0.22068315E+05</totfact>
</mgrwt>
</event>
<event>
 8    1  0.7667702E-014  0.7880359E+02  0.7818608E-02  0.1332481E+00
         -1   -1    0    0    0  501 -0.00000000000E+00  0.00000000000E+00  0.35696681072E+01  0.35696716652E+01  0.50400000000E-02 0.  1.
          2   -1    0    0  501    0  0.00000000000E+00 -0.00000000000E+00 -0.43491461371E+03  0.43491461372E+03  0.25500000000E-02 0. -1.
         24    2    1    2    0    0  0.00000000000E+00  0.35527136788E-14 -0.43134494560E+03  0.43848428538E+03  0.78803594020E+02 0.  0.
         66    2    3    3    0    0 -0.11905879447E+02  0.17973365769E+02 -0.39915381806E+03  0.39974061882E+03  0.20000043209E+01 0.  0.
        -13    1    3    3    0    0  0.11905879447E+02 -0.17973365769E+02 -0.32191127542E+02  0.38743666565E+02  0.10566000000E+00 0.  1.
         13    1    4    4    0    0 -0.48952498083E+01  0.72350094371E+01 -0.17135143828E+03  0.17157399394E+03  0.10566000000E+00 0. -1.
        -13    1    4    4    0    0 -0.16770731522E+01  0.33770978860E+01 -0.73448055915E+02  0.73544853295E+02  0.10566000000E+00 0.  1.
        -14    1    4    4    0    0 -0.53335564862E+01  0.73612584463E+01 -0.15435432386E+03  0.15462177158E+03  0.00000000000E+00 0.  1.
<mgrwt>
<rscale>  0 0.78803594E+02</rscale>
<asrwt>0</asrwt>
<pdfrwt beam="1">  1        2 0.66909899E-01 0.78803594E+02</pdfrwt>
<pdfrwt beam="2">  1       -1 0.54918033E-03 0.78803594E+02</pdfrwt>
<totfact> 0.30246961E+05</totfact>
</mgrwt>
</event>
<event>
 8    1  0.7667702E-014  0.7937175E+02  0.7818608E-02  0.1330844E+00
          2   -1    0    0  501    0  0.00000000000E+00  0.00000000000E+00  0.68622017708E+01  0.68622022446E+01  0.25500000000E-02 0. -1.
         -1   -1    0    0    0  501 -0.00000000000E+00 -0.00000000000E+00 -0.22951361882E+03  0.22951361887E+03  0.50400000000E-02 0.  1.
         24    2    1    2    0    0  0.00000000000E+00 -0.35527136788E-14 -0.22265141704E+03  0.23637582111E+03  0.79371753767E+02 0.  0.
         66    2    3    3    0    0 -0.34002686685E+02 -0.17987600000E+02 -0.14015089930E+03  0.14534789657E+03  0.20000015297E+01 0.  0.
        -13    1    3    3    0    0  0.34002686685E+02  0.17987600000E+02 -0.82500517744E+02  0.91027924549E+02  0.10566000000E+00 0.  1.
         13    1    4    4    0    0 -0.16026085761E+02 -0.83525896933E+01 -0.64658181561E+02  0.67136374539E+02  0.10566000000E+00 0. -1.
        -13    1    4    4    0    0 -0.15384348394E+02 -0.84223988441E+01 -0.66521942722E+02  0.68795312379E+02  0.10566000000E+00 0.  1.
         14    1    4    4    0    0 -0.25922525296E+01 -0.12126114622E+01 -0.89707750172E+01  0.94162096485E+01  0.00000000000E+00 0. -1.
<mgrwt>
<rscale>  0 0.79371754E+02</rscale>
<asrwt>0</asrwt>
<pdfrwt beam="1">  1        2 0.10557236E-02 0.79371754E+02</pdfrwt>
<pdfrwt beam="2">  1       -1 0.35309782E-01 0.79371754E+02</pdfrwt>
<totfact> 0.97292562E+04</totfact>
</mgrwt>
</event>
<event>
 8    1  0.7667702E-014  0.7941373E+02  0.7818608E-02  0.1330723E+00
          2   -1    0    0  501    0  0.00000000000E+00  0.00000000000E+00  0.64695457659E+03  0.64695457660E+03  0.25500000000E-02 0. -1.
         -1   -1    0    0    0  501 -0.00000000000E+00 -0.00000000000E+00 -0.24370077076E+01  0.24370129192E+01  0.50400000000E-02 0.  1.
         24    2    1    2    0    0  0.35527136788E-14 -0.17763568394E-14  0.64451756888E+03  0.64939158951E+03  0.79413726356E+02 0.  0.
         66    2    3    3    0    0 -0.22726353164E+02  0.15890344712E+02  0.55456603800E+03  0.55526253313E+03  0.20000035726E+01 0.  0.
        -13    1    3    3    0    0  0.22726353164E+02 -0.15890344712E+02  0.89951530880E+02  0.94129056380E+02  0.10566000000E+00 0.  1.
         13    1    4    4    0    0 -0.12283764824E+02  0.80630720643E+01  0.29122118484E+03  0.29159165570E+03  0.10566000000E+00 0. -1.
        -13    1    4    4    0    0 -0.99937029547E+01  0.72885199077E+01  0.24403372410E+03  0.24434702021E+03  0.10566000000E+00 0.  1.
         14    1    4    4    0    0 -0.44888538533E+00  0.53875273995E+00  0.19311129054E+02  0.19323857223E+02  0.00000000000E+00 0. -1.
<mgrwt>
<rscale>  0 0.79413726E+02</rscale>
<asrwt>0</asrwt>
<pdfrwt beam="1">  1        2 0.99531320E-01 0.79413726E+02</pdfrwt>
<pdfrwt beam="2">  1       -1 0.37492524E-03 0.79413726E+02</pdfrwt>
<totfact> 0.33451590E+05</totfact>
</mgrwt>
</event>
<event>
 8    1  0.7667702E-014  0.7889025E+02  0.7818608E-02  0.1332231E+00
          2   -1    0    0  501    0  0.00000000000E+00  0.00000000000E+00  0.23354032386E+02  0.23354032525E+02  0.25500000000E-02 0. -1.
         -1   -1    0    0    0  501 -0.00000000000E+00 -0.00000000000E+00 -0.66623087255E+02  0.66623087446E+02  0.50400000000E-02 0.  1.
         24    2    1    2    0    0  0.00000000000E+00  0.00000000000E+00 -0.43269054869E+02  0.89977119971E+02  0.78890246602E+02 0.  0.
         66    2    3    3    0    0  0.13863939433E+02  0.36721344891E+02 -0.25799508358E+02  0.47013621434E+02  0.19999953943E+01 0.  0.
        -13    1    3    3    0    0 -0.13863939433E+02 -0.36721344891E+02 -0.17469546511E+02  0.42963498537E+02  0.10566000000E+00 0.  1.
         13    1    4    4    0    0  0.11401798581E+02  0.30235053771E+02 -0.21967271782E+02  0.39073413992E+02  0.10566000000E+00 0.  1.
        -13    1    4    4    0    0  0.22946368429E+01  0.56902784620E+01 -0.32918332659E+01  0.69636166970E+01  0.10566000000E+00 0. -1.
        -14    1    4    4    0    0  0.16750400920E+00  0.79601265772E+00 -0.54040331044E+00  0.97659074452E+00  0.00000000000E+00 0.  1.
<mgrwt>
<rscale>  0 0.78890247E+02</rscale>
<asrwt>0</asrwt>
<pdfrwt beam="1">  1        2 0.35929281E-02 0.78890247E+02</pdfrwt>
<pdfrwt beam="2">  1       -1 0.10249706E-01 0.78890247E+02</pdfrwt>
<totfact> 0.13324955E+05</totfact>
</mgrwt>
</event>
<event>
 8    1  0.7667702E-014  0.7902020E+02  0.7818608E-02  0.1331855E+00
          2   -1    0    0  501    0  0.00000000000E+00  0.00000000000E+00  0.60375385350E+03  0.60375385350E+03  0.25500000000E-02 0. -1.
         -1   -1    0    0    0  501 -0.00000000000E+00 -0.00000000000E+00 -0.25855678450E+01  0.25855727572E+01  0.50400000000E-02 0.  1.
         24    2    1    2    0    0  0.00000000000E+00  0.00000000000E+00  0.60116828565E+03  0.60633942626E+03  0.79020200980E+02 0.  0.
         66    2    3    3    0    0  0.16828106078E+02  0.32540913330E+02  0.41379592413E+03  0.41541926173E+03  0.20000005043E+01 0.  0.
        -13    1    3    3    0    0 -0.16828106078E+02 -0.32540913330E+02  0.18737236153E+03  0.19092016453E+03  0.10566000000E+00 0.  1.
         13    1    4    4    0    0  0.24843953676E+01  0.52516775086E+01  0.64736234207E+02  0.64996488523E+02  0.10566000000E+00 0. -1.
        -13    1    4    4    0    0  0.36091336582E+01  0.84400721950E+01  0.10712362405E+03  0.10751624369E+03  0.10566000000E+00 0.  1.
        -14    1    4    4    0    0  0.10734577052E+02  0.18849163626E+02  0.24193606587E+03  0.24290652952E+03  0.00000000000E+00 0.  1.
<mgrwt>
<rscale>  0 0.79020201E+02</rscale>
<asrwt>0</asrwt>
<pdfrwt beam="1">  1        2 0.92885152E-01 0.79020201E+02</pdfrwt>
<pdfrwt beam="2">  1       -1 0.39778029E-03 0.79020201E+02</pdfrwt>
<totfact> 0.33268429E+05</totfact>
</mgrwt>
</event>
<event>
 8    1  0.7667702E-014  0.7801992E+02  0.7818608E-02  0.1334766E+00
         -1   -1    0    0    0  501 -0.00000000000E+00  0.00000000000E+00  0.16528770339E+02  0.16528771108E+02  0.50400000000E-02 0.  1.
          2   -1    0    0  501    0  0.00000000000E+00 -0.00000000000E+00 -0.92068366768E+02  0.92068366803E+02  0.25500000000E-02 0. -1.
         24    2    1    2    0    0  0.00000000000E+00  0.35527136788E-14 -0.75539596429E+02  0.10859713791E+03  0.78019918828E+02 0.  0.
         66    2    3    3    0    0  0.26762884339E+02 -0.19512266766E+02 -0.66414967958E+02  0.74242363261E+02  0.20000003128E+01 0.  0.
        -13    1    3    3    0    0 -0.26762884339E+02  0.19512266766E+02 -0.91246284707E+01  0.34354774650E+02  0.10566000000E+00 0.  1.
         13    1    4    4    0    0  0.15698812039E+02 -0.11362649426E+02 -0.39468221644E+02  0.43969468784E+02  0.10566000000E+00 0. -1.
        -13    1    4    4    0    0  0.47773338703E+01 -0.38745875126E+01 -0.13222962913E+02  0.14584006978E+02  0.10566000000E+00 0.  1.
        -14    1    4    4    0    0  0.62867384292E+01 -0.42750298273E+01 -0.13723783401E+02  0.15688887499E+02  0.00000000000E+00 0.  1.
<mgrwt>
<rscale>  0 0.78019919E+02</rscale>
<asrwt>0</asrwt>
<pdfrwt beam="1">  1        2 0.14164364E-01 0.78019919E+02</pdfrwt>
<pdfrwt beam="2">  1       -1 0.25428879E-02 0.78019919E+02</pdfrwt>
<totfact> 0.18530808E+05</totfact>
</mgrwt>
</event>
<event>
 8    1  0.7667702E-014  0.7963936E+02  0.7818608E-02  0.1330078E+00
         -1   -1    0    0    0  501 -0.00000000000E+00  0.00000000000E+00  0.41111477581E+02  0.41111477890E+02  0.50400000000E-02 0.  1.
          2   -1    0    0  501    0  0.00000000000E+00 -0.00000000000E+00 -0.38568470081E+02  0.38568470166E+02  0.25500000000E-02 0. -1.
         24    2    1    2    0    0 -0.17763568394E-14 -0.71054273576E-14  0.25430074993E+01  0.79679948056E+02  0.79639357324E+02 0.  0.
         66    2    3    3    0    0  0.13718441710E+02  0.33601753901E+02 -0.15055582615E+02  0.39343921401E+02  0.20000187862E+01 0.  0.
        -13    1    3    3    0    0 -0.13718441710E+02 -0.33601753901E+02  0.17598590114E+02  0.40336026654E+02  0.10566000000E+00 0.  1.
         13    1    4    4    0    0  0.70524025010E+01  0.18901695718E+02 -0.78757832409E+01  0.21657553134E+02  0.10566000000E+00 0. -1.
        -13    1    4    4    0    0  0.50478916541E+01  0.10323056813E+02 -0.53105685303E+01  0.12659384435E+02  0.10566000000E+00 0.  1.
        -14    1    4    4    0    0  0.16181475553E+01  0.43770013700E+01 -0.18692308440E+01  0.50269838324E+01  0.00000000000E+00 0.  1.
<mgrwt>
<rscale>  0 0.79639357E+02</rscale>
<asrwt>0</asrwt>
<pdfrwt beam="1">  1        2 0.59336108E-02 0.79639357E+02</pdfrwt>
<pdfrwt beam="2">  1       -1 0.63248428E-02 0.79639357E+02</pdfrwt>
<totfact> 0.14327302E+05</totfact>
</mgrwt>
</event>
<event>
 8    1  0.7667702E-014  0.8024078E+02  0.7818608E-02  0.1328370E+00
         -1   -1    0    0    0  501 -0.00000000000E+00  0.00000000000E+00  0.68782545816E+01  0.68782564281E+01  0.50400000000E-02 0.  1.
          2   -1    0    0  501    0  0.00000000000E+00 -0.00000000000E+00 -0.23401943923E+03  0.23401943925E+03  0.25500000000E-02 0. -1.
         24    2    1    2    0    0  0.00000000000E+00  0.00000000000E+00 -0.22714118465E+03  0.24089769568E+03  0.80240775275E+02 0.  0.
         66    2    3    3    0    0  0.67744519446E+01 -0.98289688856E+01 -0.22855599934E+03  0.22887626926E+03  0.19999921042E+01 0.  0.
        -13    1    3    3    0    0 -0.67744519446E+01  0.98289688856E+01  0.14148146836E+01  0.12021426418E+02  0.10566000000E+00 0.  1.
         13    1    4    4    0    0  0.32458955999E+01 -0.33896332240E+01 -0.94072275813E+02  0.94189328972E+02  0.10566000000E+00 0. -1.
        -13    1    4    4    0    0  0.27581433088E+01 -0.51385475531E+01 -0.11267550651E+03  0.11282638413E+03  0.10566000000E+00 0.  1.
        -14    1    4    4    0    0  0.77041303577E+00 -0.13007881085E+01 -0.21808217013E+02  0.21860556151E+02  0.00000000000E+00 0.  1.
<mgrwt>
<rscale>  0 0.80240775E+02</rscale>
<asrwt>0</asrwt>
<pdfrwt beam="1">  1        2 0.36002985E-01 0.80240775E+02</pdfrwt>
<pdfrwt beam="2">  1       -1 0.10581933E-02 0.80240775E+02</pdfrwt>
<totfact> 0.23128349E+05</totfact>
</mgrwt>
</event>
<event>
 8    1  0.7667702E-014  0.7931518E+02  0.7818608E-02  0.1331006E+00
         -1   -1    0    0    0  501 -0.00000000000E+00  0.00000000000E+00  0.16574811424E+02  0.16574812190E+02  0.50400000000E-02 0.  1.
          2   -1    0    0  501    0  0.00000000000E+00 -0.00000000000E+00 -0.94886404786E+02  0.94886404820E+02  0.25500000000E-02 0. -1.
         24    2    1    2    0    0  0.00000000000E+00  0.00000000000E+00 -0.78311593363E+02  0.11146121701E+03  0.79315176621E+02 0.  0.
         66    2    3    3    0    0 -0.32247606954E+02 -0.19756435395E+02 -0.55837635771E+02  0.67469003749E+02  0.20000011509E+01 0.  0.
        -13    1    3    3    0    0  0.32247606954E+02  0.19756435395E+02 -0.22473957592E+02  0.43992213262E+02  0.10566000000E+00 0.  1.
         13    1    4    4    0    0 -0.11944880864E+02 -0.81204639228E+01 -0.22188586657E+02  0.26475774872E+02  0.10566000000E+00 0. -1.
        -13    1    4    4    0    0 -0.16274382408E+02 -0.92884792669E+01 -0.26406785193E+02  0.32379944999E+02  0.10566000000E+00 0.  1.
         14    1    4    4    0    0 -0.40283436819E+01 -0.23474922051E+01 -0.72422639203E+01  0.86132838780E+01  0.00000000000E+00 0. -1.
<mgrwt>
<rscale>  0 0.79315177E+02</rscale>
<asrwt>0</asrwt>
<pdfrwt beam="1">  1        2 0.14597908E-01 0.79315177E+02</pdfrwt>
<pdfrwt beam="2">  1       -1 0.25499711E-02 0.79315177E+02</pdfrwt>
<totfact> 0.17877213E+05</totfact>
</mgrwt>
</event>
<event>
 8    1  0.9462995E-014  0.7989260E+02  0.7818608E-02  0.1329356E+00
          2   -1    0    0  501    0  0.00000000000E+00  0.00000000000E+00  0.12124114063E+03  0.12124114065E+03  0.25500000000E-02 0. -1.
         -1   -1    0    0    0  501 -0.00000000000E+00 -0.00000000000E+00 -0.13161431354E+02  0.13161432319E+02  0.50400000000E-02 0.  1.
         24    2    1    2    0    0  0.35527136788E-14  0.00000000000E+00  0.10807970927E+03  0.13440257297E+03  0.79892603318E+02 0.  0.
         66    2    3    3    0    0 -0.24162176919E+02 -0.27420389784E+02  0.81095919881E+02  0.88973236378E+02  0.20000002341E+01 0.  0.
        -13    1    3    3    0    0  0.24162176919E+02  0.27420389784E+02  0.26983789390E+02  0.45429336593E+02  0.10566000000E+00 0.  1.
         13    1    4    4    0    0 -0.13676277376E+02 -0.15364301214E+02  0.45697964575E+02  0.50114044389E+02  0.10566000000E+00 0. -1.
        -13    1    4    4    0    0 -0.76965862844E+01 -0.96115997865E+01  0.27746813857E+02  0.30356500690E+02  0.10566000000E+00 0.  1.
        -14    1    4    4    0    0 -0.27893132577E+01 -0.24444887834E+01  0.76511414485E+01  0.85026912990E+01  0.00000000000E+00 0.  1.
<mgrwt>
<rscale>  0 0.79892603E+02</rscale>
<asrwt>0</asrwt>
<pdfrwt beam="1">  1        2 0.18652483E-01 0.79892603E+02</pdfrwt>
<pdfrwt beam="2">  1       -1 0.20248357E-02 0.79892603E+02</pdfrwt>
<totfact> 0.18811505E+05</totfact>
</mgrwt>
</event>
<event>
 8    1  0.7667702E-014  0.8038259E+02  0.7818608E-02  0.1327969E+00
         -1   -1    0    0    0  501 -0.00000000000E+00  0.00000000000E+00  0.34606470842E+01  0.34606507542E+01  0.50400000000E-02 0.  1.
          2   -1    0    0  501    0  0.00000000000E+00 -0.00000000000E+00 -0.46677377621E+03  0.46677377621E+03  0.25500000000E-02 0. -1.
         24    2    1    2    0    0  0.17763568394E-14  0.00000000000E+00 -0.46331312912E+03  0.47023442697E+03  0.80382589461E+02 0.  0.
         66    2    3    3    0    0  0.10382077262E+02 -0.19649980576E+02 -0.42752629207E+03  0.42810821024E+03  0.20000014569E+01 0.  0.
        -13    1    3    3    0    0 -0.10382077262E+02  0.19649980576E+02 -0.35786837058E+02  0.42126216725E+02  0.10566000000E+00 0.  1.
         13    1    4    4    0    0  0.21475855310E+01 -0.33928344305E+01 -0.69652676598E+02  0.69768402378E+02  0.10566000000E+00 0. -1.
        -13    1    4    4    0    0  0.42580964598E+01 -0.73882683868E+01 -0.17665625413E+03  0.17686198343E+03  0.10566000000E+00 0.  1.
        -14    1    4    4    0    0  0.39763952711E+01 -0.88688777590E+01 -0.18121736134E+03  0.18147782444E+03  0.00000000000E+00 0.  1.
<mgrwt>
<rscale>  0 0.80382589E+02</rscale>
<asrwt>0</asrwt>
<pdfrwt beam="1">  1        2 0.71811300E-01 0.80382589E+02</pdfrwt>
<pdfrwt beam="2">  1       -1 0.53240790E-03 0.80382589E+02</pdfrwt>
<totfact> 0.29410863E+05</totfact>
</mgrwt>
</event>
<event>
 8    1  0.7667702E-014  0.8056614E+02  0.7818608E-02  0.1327452E+00
         -1   -1    0    0    0  501 -0.00000000000E+00  0.00000000000E+00  0.56542524842E+02  0.56542525067E+02  0.50400000000E-02 0.  1.
          2   -1    0    0  501    0  0.00000000000E+00 -0.00000000000E+00 -0.28699210515E+02  0.28699210628E+02  0.25500000000E-02 0. -1.
         24    2    1    2    0    0  0.00000000000E+00  0.00000000000E+00  0.27843314327E+02  0.85241735695E+02  0.80566142713E+02 0.  0.
         66    2    3    3    0    0 -0.13903338510E+02 -0.37778501598E+02  0.14406760446E+02  0.42802718872E+02  0.19999978990E+01 0.  0.
        -13    1    3    3    0    0  0.13903338510E+02  0.37778501598E+02  0.13436553881E+02  0.42439016823E+02  0.10566000000E+00 0.  1.
         13    1    4    4    0    0 -0.42101489105E+01 -0.12637930787E+02  0.53476441900E+01  0.14354480515E+02  0.10566000000E+00 0.  1.
        -13    1    4    4    0    0 -0.41732729694E+01 -0.11284286755E+02  0.45937295594E+01  0.12878852827E+02  0.10566000000E+00 0. -1.
        -14    1    4    4    0    0 -0.55199166297E+01 -0.13856284056E+02  0.44653866965E+01  0.15569385530E+02  0.00000000000E+00 0.  1.
<mgrwt>
<rscale>  0 0.80566143E+02</rscale>
<asrwt>0</asrwt>
<pdfrwt beam="1">  1        2 0.44152632E-02 0.80566143E+02</pdfrwt>
<pdfrwt beam="2">  1       -1 0.86988499E-02 0.80566143E+02</pdfrwt>
<totfact> 0.13076337E+05</totfact>
</mgrwt>
</event>
<event>
 8    1  0.7667702E-014  0.7680204E+02  0.7818608E-02  0.1338380E+00
         -1   -1    0    0    0  501 -0.00000000000E+00  0.00000000000E+00  0.23106726710E+02  0.23106727259E+02  0.50400000000E-02 0.  1.
          2   -1    0    0  501    0  0.00000000000E+00 -0.00000000000E+00 -0.63818564273E+02  0.63818564324E+02  0.25500000000E-02 0. -1.
         24    2    1    2    0    0  0.00000000000E+00 -0.17763568394E-14 -0.40711837563E+02  0.86925291583E+02  0.76802035123E+02 0.  0.
         66    2    3    3    0    0  0.21752094822E+01  0.15245107421E+02 -0.60152247781E+02  0.62124373253E+02  0.20000006239E+01 0.  0.
        -13    1    3    3    0    0 -0.21752094822E+01 -0.15245107421E+02  0.19440410217E+02  0.24800918330E+02  0.10566000000E+00 0.  1.
         13    1    4    4    0    0  0.32700977254E-01  0.29511153071E+01 -0.12636222270E+02  0.12976726405E+02  0.10566000000E+00 0. -1.
        -13    1    4    4    0    0  0.44239679379E+00  0.52379855006E+01 -0.17981752815E+02  0.18734641853E+02  0.10566000000E+00 0.  1.
         14    1    4    4    0    0  0.17001117112E+01  0.70560066129E+01 -0.29534272695E+02  0.30413004995E+02  0.00000000000E+00 0. -1.
<mgrwt>
<rscale>  0 0.76802035E+02</rscale>
<asrwt>0</asrwt>
<pdfrwt beam="1">  1        2 0.98182406E-02 0.76802035E+02</pdfrwt>
<pdfrwt beam="2">  1       -1 0.35548811E-02 0.76802035E+02</pdfrwt>
<totfact> 0.17636458E+05</totfact>
</mgrwt>
</event>
<event>
 8    1  0.7667702E-014  0.7985762E+02  0.7818608E-02  0.1329456E+00
          2   -1    0    0  501    0  0.00000000000E+00  0.00000000000E+00  0.63484081006E+02  0.63484081058E+02  0.25500000000E-02 0. -1.
         -1   -1    0    0    0  501 -0.00000000000E+00 -0.00000000000E+00 -0.25113540410E+02  0.25113540915E+02  0.50400000000E-02 0.  1.
         24    2    1    2    0    0  0.35527136788E-14 -0.44408920985E-15  0.38370540597E+02  0.88597621973E+02  0.79857624768E+02 0.  0.
         66    2    3    3    0    0 -0.17309725602E+02  0.33470699417E+01  0.58912844954E+02  0.61526846034E+02  0.20000011766E+01 0.  0.
        -13    1    3    3    0    0  0.17309725602E+02 -0.33470699417E+01 -0.20542304357E+02  0.27070775939E+02  0.10566000000E+00 0.  1.
         13    1    4    4    0    0 -0.43316668789E+01  0.13750027608E+01  0.13349010391E+02  0.14101815947E+02  0.10566000000E+00 0. -1.
        -13    1    4    4    0    0 -0.61461082663E+01  0.51068949588E+00  0.21083298547E+02  0.21967068358E+02  0.10566000000E+00 0.  1.
         14    1    4    4    0    0 -0.68319504567E+01  0.14613776850E+01  0.24480536016E+02  0.25457961729E+02  0.00000000000E+00 0. -1.
<mgrwt>
<rscale>  0 0.79857625E+02</rscale>
<asrwt>0</asrwt>
<pdfrwt beam="1">  1        2 0.97667817E-02 0.79857625E+02</pdfrwt>
<pdfrwt beam="2">  1       -1 0.38636217E-02 0.79857625E+02</pdfrwt>
<totfact> 0.15848967E+05</totfact>
</mgrwt>
</event>
<event>
 8    1  0.7667702E-014  0.7430819E+02  0.7818608E-02  0.1346027E+00
         -1   -1    0    0    0  501 -0.00000000000E+00  0.00000000000E+00  0.74153530534E+02  0.74153530705E+02  0.50400000000E-02 0.  1.
          2   -1    0    0  501    0  0.00000000000E+00 -0.00000000000E+00 -0.18615791676E+02  0.18615791850E+02  0.25500000000E-02 0. -1.
         24    2    1    2    0    0 -0.88817841970E-15  0.35527136788E-14  0.55537738858E+02  0.92769322556E+02  0.74308187772E+02 0.  0.
         66    2    3    3    0    0  0.78597451867E+01 -0.29561872200E+02  0.15199590739E+01  0.30691858213E+02  0.20000006597E+01 0.  0.
        -13    1    3    3    0    0 -0.78597451867E+01  0.29561872200E+02  0.54017779785E+02  0.62077464343E+02  0.10566000000E+00 0.  1.
         13    1    4    4    0    0  0.26741735975E+01 -0.87268544220E+01  0.73240470941E+00  0.91573343953E+01  0.10566000000E+00 0. -1.
        -13    1    4    4    0    0  0.46604973885E+01 -0.16785913972E+02  0.96249724328E+00  0.17447770882E+02  0.10566000000E+00 0.  1.
        -14    1    4    4    0    0  0.52507420070E+00 -0.40491038057E+01 -0.17494287881E+00  0.40867529356E+01  0.00000000000E+00 0.  1.
<mgrwt>
<rscale>  0 0.74308188E+02</rscale>
<asrwt>0</asrwt>
<pdfrwt beam="1">  1        2 0.28639680E-02 0.74308188E+02</pdfrwt>
<pdfrwt beam="2">  1       -1 0.11408235E-01 0.74308188E+02</pdfrwt>
<totfact> 0.15115179E+05</totfact>
</mgrwt>
</event>
<event>
 8    1  0.7667702E-014  0.8072539E+02  0.7818608E-02  0.1327005E+00
         -1   -1    0    0    0  501 -0.00000000000E+00  0.00000000000E+00  0.60781999725E+01  0.60782020621E+01  0.50400000000E-02 0.  1.
          2   -1    0    0  501    0  0.00000000000E+00 -0.00000000000E+00 -0.26803112100E+03  0.26803112102E+03  0.25500000000E-02 0. -1.
         24    2    1    2    0    0  0.00000000000E+00  0.35527136788E-14 -0.26195292103E+03  0.27410932308E+03  0.80725387342E+02 0.  0.
         66    2    3    3    0    0 -0.98248820222E+01  0.20788296871E+02 -0.24359636655E+03  0.24468729307E+03  0.19999994855E+01 0.  0.
        -13    1    3    3    0    0  0.98248820222E+01 -0.20788296871E+02 -0.18356554481E+02  0.29422030012E+02  0.10566000000E+00 0.  1.
         13    1    4    4    0    0 -0.48217248942E+01  0.11625481203E+02 -0.13884231005E+03  0.13941161741E+03  0.10566000000E+00 0. -1.
        -13    1    4    4    0    0 -0.28415677664E+01  0.51531851718E+01 -0.55337383893E+02  0.55649501749E+02  0.10566000000E+00 0.  1.
         14    1    4    4    0    0 -0.21615893617E+01  0.40096304961E+01 -0.49416672605E+02  0.49626173907E+02  0.00000000000E+00 0. -1.
<mgrwt>
<rscale>  0 0.80725387E+02</rscale>
<asrwt>0</asrwt>
<pdfrwt beam="1">  1        2 0.41235548E-01 0.80725387E+02</pdfrwt>
<pdfrwt beam="2">  1       -1 0.93510806E-03 0.80725387E+02</pdfrwt>
<totfact> 0.23901373E+05</totfact>
</mgrwt>
</event>
<event>
 8    1  0.7819231E-014  0.8037495E+02  0.7818608E-02  0.1327991E+00
         -1   -1    0    0    0  501 -0.00000000000E+00  0.00000000000E+00  0.20915923429E+01  0.20915984152E+01  0.50400000000E-02 0.  1.
          2   -1    0    0  501    0  0.00000000000E+00 -0.00000000000E+00 -0.77215371245E+03  0.77215371245E+03  0.25500000000E-02 0. -1.
         24    2    1    2    0    0 -0.71054273576E-14  0.00000000000E+00 -0.77006212010E+03  0.77424531087E+03  0.80374949949E+02 0.  0.
         66    2    3    3    0    0 -0.34082042379E+02  0.11829158055E+02 -0.55528737157E+03  0.55646166050E+03  0.19999983252E+01 0.  0.
        -13    1    3    3    0    0  0.34082042379E+02 -0.11829158055E+02 -0.21477474854E+03  0.21778365037E+03  0.10566000000E+00 0.  1.
         13    1    4    4    0    0 -0.15078996075E+02  0.50333218907E+01 -0.24053854757E+03  0.24106329974E+03  0.10566000000E+00 0. -1.
        -13    1    4    4    0    0 -0.16825338921E+02  0.64693008310E+01 -0.27884919143E+03  0.27943125560E+03  0.10566000000E+00 0.  1.
        -14    1    4    4    0    0 -0.21777073838E+01  0.32653533327E+00 -0.35899632572E+02  0.35967105160E+02  0.00000000000E+00 0.  1.
<mgrwt>
<rscale>  0 0.80374950E+02</rscale>
<asrwt>0</asrwt>
<pdfrwt beam="1">  1        2 0.11879265E+00 0.80374950E+02</pdfrwt>
<pdfrwt beam="2">  1       -1 0.32178452E-03 0.80374950E+02</pdfrwt>
<totfact> 0.33733897E+05</totfact>
</mgrwt>
</event>
<event>
 8    1  0.7667702E-014  0.8026164E+02  0.7818608E-02  0.1328311E+00
          2   -1    0    0  501    0  0.00000000000E+00  0.00000000000E+00  0.98916338424E+03  0.98916338424E+03  0.25500000000E-02 0. -1.
         -1   -1    0    0    0  501 -0.00000000000E+00 -0.00000000000E+00 -0.16281220949E+01  0.16281298958E+01  0.50400000000E-02 0.  1.
         24    2    1    2    0    0  0.00000000000E+00  0.00000000000E+00  0.98753526214E+03  0.99079151414E+03  0.80261637847E+02 0.  0.
         66    2    3    3    0    0  0.17818451783E+02  0.52285012335E+01  0.93289345432E+03  0.93308039931E+03  0.20000006116E+01 0.  0.
        -13    1    3    3    0    0 -0.17818451783E+02 -0.52285012335E+01  0.54641807820E+02  0.57711114830E+02  0.10566000000E+00 0.  1.
         13    1    4    4    0    0  0.55121329028E+01  0.16928918805E+01  0.28147711978E+03  0.28153619592E+03  0.10566000000E+00 0. -1.
        -13    1    4    4    0    0  0.64165100091E+01  0.13895002171E+01  0.29859100240E+03  0.29866318854E+03  0.10566000000E+00 0.  1.
        -14    1    4    4    0    0  0.58898088709E+01  0.21461091358E+01  0.35282533215E+03  0.35288101485E+03  0.00000000000E+00 0.  1.
<mgrwt>
<rscale>  0 0.80261638E+02</rscale>
<asrwt>0</asrwt>
<pdfrwt beam="1">  1        2 0.15217945E+00 0.80261638E+02</pdfrwt>
<pdfrwt beam="2">  1       -1 0.25048015E-03 0.80261638E+02</pdfrwt>
<totfact> 0.34916358E+05</totfact>
</mgrwt>
</event>
<event>
 8    1  0.7667702E-014  0.7770231E+02  0.7818608E-02  0.1335701E+00
          2   -1    0    0  501    0  0.00000000000E+00  0.00000000000E+00  0.19881835492E+03  0.19881835494E+03  0.25500000000E-02 0. -1.
         -1   -1    0    0    0  501 -0.00000000000E+00 -0.00000000000E+00 -0.75919158158E+01  0.75919174888E+01  0.50400000000E-02 0.  1.
         24    2    1    2    0    0  0.17763568394E-14  0.00000000000E+00  0.19122643911E+03  0.20641027243E+03  0.77702313674E+02 0.  0.
         66    2    3    3    0    0  0.10517674165E+02 -0.34767638874E+02  0.13209917162E+03  0.13701679213E+03  0.20000003339E+01 0.  0.
        -13    1    3    3    0    0 -0.10517674165E+02  0.34767638874E+02  0.59127267487E+02  0.69393480293E+02  0.10566000000E+00 0.  1.
         13    1    4    4    0    0  0.30791606060E+01 -0.10579978270E+02  0.38208783048E+02  0.39766058848E+02  0.10566000000E+00 0. -1.
        -13    1    4    4    0    0  0.16699100724E+00 -0.29293091194E+00  0.17363767639E+01  0.17719658060E+01  0.10566000000E+00 0.  1.
         14    1    4    4    0    0  0.72715225518E+01 -0.23894729692E+02  0.92154011808E+02  0.95478767480E+02  0.00000000000E+00 0. -1.
<mgrwt>
<rscale>  0 0.77702314E+02</rscale>
<asrwt>0</asrwt>
<pdfrwt beam="1">  1        2 0.30587432E-01 0.77702314E+02</pdfrwt>
<pdfrwt beam="2">  1       -1 0.11679875E-02 0.77702314E+02</pdfrwt>
<totfact> 0.23770159E+05</totfact>
</mgrwt>
</event>
<event>
 8    1  0.7667702E-014  0.7929608E+02  0.7818608E-02  0.1331061E+00
          2   -1    0    0  501    0  0.00000000000E+00  0.00000000000E+00  0.12523359631E+03  0.12523359634E+03  0.25500000000E-02 0. -1.
         -1   -1    0    0    0  501 -0.00000000000E+00 -0.00000000000E+00 -0.12552279677E+02  0.12552280689E+02  0.50400000000E-02 0.  1.
         24    2    1    2    0    0  0.44408920985E-15  0.17763568394E-14  0.11268131664E+03  0.13778587703E+03  0.79296083066E+02 0.  0.
         66    2    3    3    0    0 -0.29347954937E+01  0.13737350636E+02  0.12075335139E+03  0.12158412600E+03  0.19999993455E+01 0.  0.
        -13    1    3    3    0    0  0.29347954937E+01 -0.13737350636E+02 -0.80720347547E+01  0.16201751022E+02  0.10566000000E+00 0.  1.
         13    1    4    4    0    0  0.18277375058E+00  0.52101350306E+00  0.40220089991E+01  0.40611059748E+01  0.10566000000E+00 0. -1.
        -13    1    4    4    0    0 -0.31305903720E+00  0.27761428713E+01  0.26048557192E+02  0.26198157779E+02  0.10566000000E+00 0. -1.
         14    1    4    4    0    0 -0.28045102071E+01  0.10440194261E+02  0.90682785199E+02  0.91324862251E+02  0.00000000000E+00 0. -1.
<mgrwt>
<rscale>  0 0.79296083E+02</rscale>
<asrwt>0</asrwt>
<pdfrwt beam="1">  1        2 0.19266708E-01 0.79296083E+02</pdfrwt>
<pdfrwt beam="2">  1       -1 0.19311200E-02 0.79296083E+02</pdfrwt>
<totfact> 0.19379536E+05</totfact>
</mgrwt>
</event>
<event>
 8    1  0.7667702E-014  0.7168401E+02  0.7818608E-02  0.1354458E+00
         -1   -1    0    0    0  501 -0.00000000000E+00  0.00000000000E+00  0.26857446949E+02  0.26857447422E+02  0.50400000000E-02 0.  1.
          2   -1    0    0  501    0  0.00000000000E+00 -0.00000000000E+00 -0.47832141280E+02  0.47832141348E+02  0.25500000000E-02 0. -1.
         24    2    1    2    0    0  0.00000000000E+00  0.00000000000E+00 -0.20974694331E+02  0.74689588770E+02  0.71684007062E+02 0.  0.
         66    2    3    3    0    0 -0.22259616265E+02  0.85430121371E+01 -0.38339951265E+02  0.45193201109E+02  0.19999976915E+01 0.  0.
        -13    1    3    3    0    0  0.22259616265E+02 -0.85430121371E+01  0.17365256934E+02  0.29496387662E+02  0.10566000000E+00 0.  1.
         13    1    4    4    0    0 -0.46257142897E+01  0.21942068922E+01 -0.77390023779E+01  0.92798221113E+01  0.10566000000E+00 0. -1.
        -13    1    4    4    0    0 -0.15658211559E+02  0.61042426005E+01 -0.27272124335E+02  0.32034688959E+02  0.10566000000E+00 0.  1.
        -14    1    4    4    0    0 -0.19756904168E+01  0.24456264444E+00 -0.33288245529E+01  0.38786900384E+01  0.00000000000E+00 0.  1.
<mgrwt>
<rscale>  0 0.71684007E+02</rscale>
<asrwt>0</asrwt>
<pdfrwt beam="1">  1        2 0.73587910E-02 0.71684007E+02</pdfrwt>
<pdfrwt beam="2">  1       -1 0.41319150E-02 0.71684007E+02</pdfrwt>
<totfact> 0.19948723E+05</totfact>
</mgrwt>
</event>
<event>
 8    1  0.7667702E-014  0.8018800E+02  0.7818608E-02  0.1328519E+00
          2   -1    0    0  501    0  0.00000000000E+00  0.00000000000E+00  0.19798882974E+03  0.19798882976E+03  0.25500000000E-02 0. -1.
         -1   -1    0    0    0  501 -0.00000000000E+00 -0.00000000000E+00 -0.81192887960E+01  0.81192903602E+01  0.50400000000E-02 0.  1.
         24    2    1    2    0    0  0.00000000000E+00  0.00000000000E+00  0.18986954094E+03  0.20610812012E+03  0.80187995359E+02 0.  0.
         66    2    3    3    0    0  0.37009028568E+02  0.52300898882E+01  0.13210789496E+03  0.13730811324E+03  0.20000035341E+01 0.  0.
        -13    1    3    3    0    0 -0.37009028568E+02 -0.52300898882E+01  0.57761645983E+02  0.68800006879E+02  0.10566000000E+00 0.  1.
         13    1    4    4    0    0  0.18137853792E+02  0.25649290353E+01  0.68240842506E+02  0.70656806828E+02  0.10566000000E+00 0. -1.
        -13    1    4    4    0    0  0.39220744695E+01  0.41896469529E+00  0.13084614681E+02  0.13666620100E+02  0.10566000000E+00 0. -1.
         14    1    4    4    0    0  0.14949100307E+02  0.22461961576E+01  0.50782437773E+02  0.52984686310E+02  0.00000000000E+00 0. -1.
<mgrwt>
<rscale>  0 0.80187995E+02</rscale>
<asrwt>0</asrwt>
<pdfrwt beam="1">  1        2 0.30459817E-01 0.80187995E+02</pdfrwt>
<pdfrwt beam="2">  1       -1 0.12491216E-02 0.80187995E+02</pdfrwt>
<totfact> 0.21845589E+05</totfact>
</mgrwt>
</event>
<event>
 8    1  0.7667702E-014  0.7994773E+02  0.7818608E-02  0.1329200E+00
          2   -1    0    0  501    0  0.00000000000E+00  0.00000000000E+00  0.58061479181E+03  0.58061479182E+03  0.25500000000E-02 0. -1.
         -1   -1    0    0    0  501 -0.00000000000E+00 -0.00000000000E+00 -0.27520977879E+01  0.27521024028E+01  0.50400000000E-02 0.  1.
         24    2    1    2    0    0  0.00000000000E+00 -0.35527136788E-14  0.57786269402E+03  0.58336689422E+03  0.79947733724E+02 0.  0.
         66    2    3    3    0    0  0.25528618952E+02  0.25521789790E+02  0.41397805783E+03  0.41555373239E+03  0.19999992837E+01 0.  0.
        -13    1    3    3    0    0 -0.25528618952E+02 -0.25521789790E+02  0.16388463619E+03  0.16781316183E+03  0.10566000000E+00 0.  1.
         13    1    4    4    0    0  0.10116282965E+02  0.10134857374E+02  0.17384978880E+03  0.17443857012E+03  0.10566000000E+00 0. -1.
        -13    1    4    4    0    0  0.62803658750E+01  0.60314897968E+01  0.92227400350E+02  0.92637607936E+02  0.10566000000E+00 0.  1.
         14    1    4    4    0    0  0.91319701117E+01  0.93554426200E+01  0.14790086868E+03  0.14847755433E+03  0.00000000000E+00 0. -1.
<mgrwt>
<rscale>  0 0.79947734E+02</rscale>
<asrwt>0</asrwt>
<pdfrwt beam="1">  1        2 0.89325299E-01 0.79947734E+02</pdfrwt>
<pdfrwt beam="2">  1       -1 0.42340027E-03 0.79947734E+02</pdfrwt>
<totfact> 0.31920488E+05</totfact>
</mgrwt>
</event>
<event>
 8    1  0.7667702E-014  0.7712120E+02  0.7818608E-02  0.1337425E+00
         -1   -1    0    0    0  501 -0.00000000000E+00  0.00000000000E+00  0.31152300917E+02  0.31152301325E+02  0.50400000000E-02 0.  1.
          2   -1    0    0  501    0  0.00000000000E+00 -0.00000000000E+00 -0.47730659508E+02  0.47730659576E+02  0.25500000000E-02 0. -1.
         24    2    1    2    0    0  0.35527136788E-14  0.00000000000E+00 -0.16578358591E+02  0.78882960901E+02  0.77121200373E+02 0.  0.
         66    2    3    3    0    0 -0.12855416466E+02  0.15046565097E+02 -0.42114456737E+02  0.46575619223E+02  0.19999964949E+01 0.  0.
        -13    1    3    3    0    0  0.12855416466E+02 -0.15046565097E+02  0.25536098147E+02  0.32307341678E+02  0.10566000000E+00 0.  1.
         13    1    4    4    0    0 -0.21798751333E+01  0.27045441609E+01 -0.63084015467E+01  0.72023266258E+01  0.10566000000E+00 0.  1.
        -13    1    4    4    0    0 -0.66837829954E+01  0.67175460861E+01 -0.20384992381E+02  0.22480157005E+02  0.10566000000E+00 0. -1.
         14    1    4    4    0    0 -0.39917583374E+01  0.56244748496E+01 -0.15421062809E+02  0.16893135592E+02  0.00000000000E+00 0. -1.
<mgrwt>
<rscale>  0 0.77121200E+02</rscale>
<asrwt>0</asrwt>
<pdfrwt beam="1">  1        2 0.73431784E-02 0.77121200E+02</pdfrwt>
<pdfrwt beam="2">  1       -1 0.47926617E-02 0.77121200E+02</pdfrwt>
<totfact> 0.16354552E+05</totfact>
</mgrwt>
</event>
<event>
 8    1  0.7667702E-014  0.8128559E+02  0.7818608E-02  0.1325442E+00
          2   -1    0    0  501    0  0.00000000000E+00  0.00000000000E+00  0.10547050032E+02  0.10547050341E+02  0.25500000000E-02 0. -1.
         -1   -1    0    0    0  501 -0.00000000000E+00 -0.00000000000E+00 -0.15661598703E+03  0.15661598712E+03  0.50400000000E-02 0.  1.
         24    2    1    2    0    0  0.17763568394E-14  0.35527136788E-14 -0.14606893700E+03  0.16716303746E+03  0.81285587497E+02 0.  0.
         66    2    3    3    0    0 -0.11650668055E+02 -0.25908883796E+02 -0.13375719336E+02  0.31462965590E+02  0.20000025827E+01 0.  0.
        -13    1    3    3    0    0  0.11650668055E+02  0.25908883796E+02 -0.13269321767E+03  0.13570007187E+03  0.10566000000E+00 0.  1.
         13    1    4    4    0    0 -0.18461098043E+01 -0.46714439237E+01 -0.17965085187E+01  0.53356458498E+01  0.10566000000E+00 0. -1.
        -13    1    4    4    0    0 -0.24916522196E+01 -0.64920690762E+01 -0.37440735845E+01  0.78983886151E+01  0.10566000000E+00 0.  1.
         14    1    4    4    0    0 -0.73129060308E+01 -0.14745370796E+02 -0.78351372323E+01  0.18228931125E+02  0.00000000000E+00 0. -1.
<mgrwt>
<rscale>  0 0.81285587E+02</rscale>
<asrwt>0</asrwt>
<pdfrwt beam="1">  1        2 0.16226232E-02 0.81285587E+02</pdfrwt>
<pdfrwt beam="2">  1       -1 0.24094766E-01 0.81285587E+02</pdfrwt>
<totfact> 0.10246000E+05</totfact>
</mgrwt>
</event>
<event>
 8    1  0.7667702E-014  0.8086040E+02  0.7818608E-02  0.1326627E+00
          2   -1    0    0  501    0  0.00000000000E+00  0.00000000000E+00  0.11160305785E+04  0.11160305785E+04  0.25500000000E-02 0. -1.
         -1   -1    0    0    0  501 -0.00000000000E+00 -0.00000000000E+00 -0.14646516825E+01  0.14646603540E+01  0.50400000000E-02 0.  1.
         24    2    1    2    0    0  0.00000000000E+00  0.55511151231E-16  0.11145659269E+04  0.11174952389E+04  0.80860396027E+02 0.  0.
         66    2    3    3    0    0  0.28614736935E+02  0.38530352767E+00  0.95183246424E+03  0.95226466470E+03  0.20000084468E+01 0.  0.
        -13    1    3    3    0    0 -0.28614736935E+02 -0.38530352767E+00  0.16273346262E+03  0.16523057420E+03  0.10566000000E+00 0.  1.
         13    1    4    4    0    0  0.83446517225E+01 -0.93379218905E-01  0.25529823891E+03  0.25543461764E+03  0.10566000000E+00 0. -1.
        -13    1    4    4    0    0  0.19812356986E+02  0.60637594838E+00  0.68246273305E+03  0.68275053303E+03  0.10566000000E+00 0.  1.
        -14    1    4    4    0    0  0.45772822621E+00 -0.12769320181E+00  0.14071492273E+02  0.14079514035E+02  0.00000000000E+00 0.  1.
<mgrwt>
<rscale>  0 0.80860396E+02</rscale>
<asrwt>0</asrwt>
<pdfrwt beam="1">  1        2 0.17169714E+00 0.80860396E+02</pdfrwt>
<pdfrwt beam="2">  1       -1 0.22533153E-03 0.80860396E+02</pdfrwt>
<totfact> 0.34267088E+05</totfact>
</mgrwt>
</event>
<event>
 8    1  0.7667702E-014  0.8087779E+02  0.7818608E-02  0.1326579E+00
          2   -1    0    0  501    0  0.00000000000E+00  0.00000000000E+00  0.31390204513E+02  0.31390204616E+02  0.25500000000E-02 0. -1.
         -1   -1    0    0    0  501 -0.00000000000E+00 -0.00000000000E+00 -0.52095999887E+02  0.52096000131E+02  0.50400000000E-02 0.  1.
         24    2    1    2    0    0 -0.71054273576E-14  0.00000000000E+00 -0.20705795374E+02  0.83486204747E+02  0.80877786944E+02 0.  0.
         66    2    3    3    0    0  0.30878762769E+02  0.19981689760E+02  0.69300960028E+01  0.37480557572E+02  0.20000123794E+01 0.  0.
        -13    1    3    3    0    0 -0.30878762769E+02 -0.19981689760E+02 -0.27635891377E+02  0.46005647175E+02  0.10566000000E+00 0.  1.
         13    1    4    4    0    0  0.10595891381E+02  0.63344585913E+01  0.27941820002E+01  0.12657681340E+02  0.10566000000E+00 0. -1.
        -13    1    4    4    0    0  0.14228854349E+02  0.94189084600E+01  0.34226698682E+01  0.17404078997E+02  0.10566000000E+00 0.  1.
        -14    1    4    4    0    0  0.60540170384E+01  0.42283227084E+01  0.71324413444E+00  0.74187972356E+01  0.00000000000E+00 0.  1.
<mgrwt>
<rscale>  0 0.80877787E+02</rscale>
<asrwt>0</asrwt>
<pdfrwt beam="1">  1        2 0.48292622E-02 0.80877787E+02</pdfrwt>
<pdfrwt beam="2">  1       -1 0.80147693E-02 0.80877787E+02</pdfrwt>
<totfact> 0.13167882E+05</totfact>
</mgrwt>
</event>
<event>
 8    1  0.7667702E-014  0.7989295E+02  0.7818608E-02  0.1329355E+00
          2   -1    0    0  501    0  0.00000000000E+00  0.00000000000E+00  0.88736760372E+03  0.88736760372E+03  0.25500000000E-02 0. -1.
         -1   -1    0    0    0  501 -0.00000000000E+00 -0.00000000000E+00 -0.17982602110E+01  0.17982672738E+01  0.50400000000E-02 0.  1.
         24    2    1    2    0    0  0.00000000000E+00 -0.17763568394E-14  0.88556934351E+03  0.88916587099E+03  0.79892953279E+02 0.  0.
         66    2    3    3    0    0  0.28024117079E+02  0.89974772091E+01  0.74322913425E+03  0.74381439330E+03  0.19999853452E+01 0.  0.
        -13    1    3    3    0    0 -0.28024117079E+02 -0.89974772091E+01  0.14234020925E+03  0.14535147770E+03  0.10566000000E+00 0.  1.
         13    1    4    4    0    0  0.21878395715E+01  0.59184850880E+00  0.54336006198E+02  0.54383358302E+02  0.10566000000E+00 0.  1.
        -13    1    4    4    0    0  0.19676618370E+02  0.68972966701E+01  0.51264992044E+03  0.51307377062E+03  0.10566000000E+00 0.  1.
         14    1    4    4    0    0  0.61596591371E+01  0.15083320302E+01  0.17624320762E+03  0.17635726437E+03  0.00000000000E+00 0. -1.
<mgrwt>
<rscale>  0 0.79892953E+02</rscale>
<asrwt>0</asrwt>
<pdfrwt beam="1">  1        2 0.13651801E+00 0.79892953E+02</pdfrwt>
<pdfrwt beam="2">  1       -1 0.27665613E-03 0.79892953E+02</pdfrwt>
<totfact> 0.35011747E+05</totfact>
</mgrwt>
</event>
<event>
 8    1  0.7667702E-014  0.7967769E+02  0.7818608E-02  0.1329969E+00
         -1   -1    0    0    0  501 -0.00000000000E+00  0.00000000000E+00  0.31834608915E+01  0.31834648811E+01  0.50400000000E-02 0.  1.
          2   -1    0    0  501    0  0.00000000000E+00 -0.00000000000E+00 -0.49855564317E+03  0.49855564318E+03  0.25500000000E-02 0. -1.
         24    2    1    2    0    0  0.00000000000E+00  0.00000000000E+00 -0.49537218228E+03  0.50173910806E+03  0.79677685578E+02 0.  0.
         66    2    3    3    0    0  0.17703489707E+02  0.35559161437E+02 -0.26480997895E+03  0.26778011961E+03  0.19999986041E+01 0.  0.
        -13    1    3    3    0    0 -0.17703489707E+02 -0.35559161437E+02 -0.23056220333E+03  0.23395898845E+03  0.10566000000E+00 0.  1.
         13    1    4    4    0    0  0.74154919323E+01  0.16310673275E+02 -0.11458397644E+03  0.11597640451E+03  0.10566000000E+00 0. -1.
        -13    1    4    4    0    0  0.34981845839E+01  0.67576385040E+01 -0.53390010710E+02  0.53929652151E+02  0.10566000000E+00 0.  1.
         14    1    4    4    0    0  0.67898131906E+01  0.12490849658E+02 -0.96835991803E+02  0.97874062942E+02  0.00000000000E+00 0. -1.
<mgrwt>
<rscale>  0 0.79677686E+02</rscale>
<asrwt>0</asrwt>
<pdfrwt beam="1">  1        2 0.76700806E-01 0.79677686E+02</pdfrwt>
<pdfrwt beam="2">  1       -1 0.48976392E-03 0.79677686E+02</pdfrwt>
<totfact> 0.30744984E+05</totfact>
</mgrwt>
</event>
<event>
 8    1  0.7667702E-014  0.8401015E+02  0.7818608E-02  0.1318042E+00
          2   -1    0    0  501    0  0.00000000000E+00  0.00000000000E+00  0.16720707814E+04  0.16720707815E+04  0.25500000000E-02 0. -1.
         -1   -1    0    0    0  501 -0.00000000000E+00 -0.00000000000E+00 -0.10552282693E+01  0.10552403053E+01  0.50400000000E-02 0.  1.
         24    2    1    2    0    0  0.00000000000E+00  0.00000000000E+00  0.16710155532E+04  0.16731260218E+04  0.84010152418E+02 0.  0.
         66    2    3    3    0    0  0.11705304593E+02 -0.96680952876E+01  0.16154817027E+04  0.16155542758E+04  0.19999993126E+01 0.  0.
        -13    1    3    3    0    0 -0.11705304593E+02  0.96680952876E+01  0.55533850484E+02  0.57571745984E+02  0.10566000000E+00 0.  1.
         13    1    4    4    0    0  0.47589937080E+01 -0.43030094319E+01  0.67686573869E+03  0.67689615399E+03  0.10566000000E+00 0. -1.
        -13    1    4    4    0    0  0.53511313955E+01 -0.47172461607E+01  0.71820596933E+03  0.71824140271E+03  0.10566000000E+00 0.  1.
         14    1    4    4    0    0  0.15951794894E+01 -0.64783969500E+00  0.22040999467E+03  0.22041671907E+03  0.00000000000E+00 0. -1.
<mgrwt>
<rscale>  0 0.84010152E+02</rscale>
<asrwt>0</asrwt>
<pdfrwt beam="1">  1        2 0.25724156E+00 0.84010152E+02</pdfrwt>
<pdfrwt beam="2">  1       -1 0.16234380E-03 0.84010152E+02</pdfrwt>
<totfact> 0.27840683E+05</totfact>
</mgrwt>
</event>
<event>
 8    1  0.7667702E-014  0.8095450E+02  0.7818608E-02  0.1326364E+00
          2   -1    0    0  501    0  0.00000000000E+00  0.00000000000E+00  0.15970837484E+03  0.15970837486E+03  0.25500000000E-02 0. -1.
         -1   -1    0    0    0  501 -0.00000000000E+00 -0.00000000000E+00 -0.10258746792E+02  0.10258748030E+02  0.50400000000E-02 0.  1.
         24    2    1    2    0    0 -0.35527136788E-14  0.17763568394E-14  0.14944962805E+03  0.16996712289E+03  0.80954502902E+02 0.  0.
         66    2    3    3    0    0 -0.20208871199E+02  0.15325506518E+02  0.14093519809E+03  0.14321312680E+03  0.20000008928E+01 0.  0.
        -13    1    3    3    0    0  0.20208871199E+02 -0.15325506518E+02  0.85144299641E+01  0.26753996091E+02  0.10566000000E+00 0.  1.
         13    1    4    4    0    0 -0.23635348122E+00  0.17001309355E+00  0.22360317718E+01  0.22573811242E+01  0.10566000000E+00 0.  1.
        -13    1    4    4    0    0 -0.31228156256E+01  0.20186062934E+01  0.18042602928E+02  0.18422090904E+02  0.10566000000E+00 0. -1.
         14    1    4    4    0    0 -0.16849702092E+02  0.13136887131E+02  0.12065656339E+03  0.12253365478E+03  0.00000000000E+00 0. -1.
<mgrwt>
<rscale>  0 0.80954503E+02</rscale>
<asrwt>0</asrwt>
<pdfrwt beam="1">  1        2 0.24570519E-01 0.80954503E+02</pdfrwt>
<pdfrwt beam="2">  1       -1 0.15782688E-02 0.80954503E+02</pdfrwt>
<totfact> 0.19809674E+05</totfact>
</mgrwt>
</event>
<event>
 8    1  0.7667702E-014  0.7903374E+02  0.7818608E-02  0.1331816E+00
          2   -1    0    0  501    0  0.00000000000E+00  0.00000000000E+00  0.21016670815E+03  0.21016670817E+03  0.25500000000E-02 0. -1.
         -1   -1    0    0    0  501 -0.00000000000E+00 -0.00000000000E+00 -0.74302100291E+01  0.74302117384E+01  0.50400000000E-02 0.  1.
         24    2    1    2    0    0  0.00000000000E+00  0.00000000000E+00  0.20273649813E+03  0.21759691991E+03  0.79033738881E+02 0.  0.
         66    2    3    3    0    0  0.38491714546E+02  0.22925109417E+01  0.77956215921E+02  0.86994478560E+02  0.20000010338E+01 0.  0.
        -13    1    3    3    0    0 -0.38491714546E+02 -0.22925109417E+01  0.12478028220E+03  0.13060244135E+03  0.10566000000E+00 0.  1.
         13    1    4    4    0    0  0.16949896115E+02  0.13272360803E+01  0.35556227493E+02  0.39412142945E+02  0.10566000000E+00 0. -1.
        -13    1    4    4    0    0  0.58105048384E+01  0.62148514377E+00  0.10714910853E+02  0.12205272995E+02  0.10566000000E+00 0.  1.
         14    1    4    4    0    0  0.15731313593E+02  0.34378971763E+00  0.31685077575E+02  0.35377062621E+02  0.00000000000E+00 0. -1.
<mgrwt>
<rscale>  0 0.79033739E+02</rscale>
<asrwt>0</asrwt>
<pdfrwt beam="1">  1        2 0.32333341E-01 0.79033739E+02</pdfrwt>
<pdfrwt beam="2">  1       -1 0.11431093E-02 0.79033739E+02</pdfrwt>
<totfact> 0.23173627E+05</totfact>
</mgrwt>
</event>
<event>
 8    1  0.7667702E-014  0.8003369E+02  0.7818608E-02  0.1328956E+00
          2   -1    0    0  501    0  0.00000000000E+00  0.00000000000E+00  0.12567328021E+02  0.12567328280E+02  0.25500000000E-02 0. -1.
         -1   -1    0    0    0  501 -0.00000000000E+00 -0.00000000000E+00 -0.12742151873E+03  0.12742151883E+03  0.50400000000E-02 0.  1.
         24    2    1    2    0    0  0.00000000000E+00  0.00000000000E+00 -0.11485419071E+03  0.13998884711E+03  0.80033694104E+02 0.  0.
         66    2    3    3    0    0 -0.21611639416E+01  0.35652970692E+02 -0.26001074834E+02  0.44225115387E+02  0.19999974252E+01 0.  0.
        -13    1    3    3    0    0  0.21611639416E+01 -0.35652970692E+02 -0.88853115878E+02  0.95763731726E+02  0.10566000000E+00 0.  1.
         13    1    4    4    0    0 -0.48056699951E+00  0.21775266505E+02 -0.15641015256E+02  0.26815027471E+02  0.10566000000E+00 0. -1.
        -13    1    4    4    0    0 -0.12070960969E+01  0.10613134397E+02 -0.82088575906E+01  0.13471904457E+02  0.10566000000E+00 0.  1.
         14    1    4    4    0    0 -0.47350084521E+00  0.32645697899E+01 -0.21512019873E+01  0.39381834586E+01  0.00000000000E+00 0. -1.
<mgrwt>
<rscale>  0 0.80033694E+02</rscale>
<asrwt>0</asrwt>
<pdfrwt beam="1">  1        2 0.19334352E-02 0.80033694E+02</pdfrwt>
<pdfrwt beam="2">  1       -1 0.19603310E-01 0.80033694E+02</pdfrwt>
<totfact> 0.11214963E+05</totfact>
</mgrwt>
</event>
<event>
 8    1  0.7667702E-014  0.8037258E+02  0.7818608E-02  0.1327997E+00
          2   -1    0    0  501    0  0.00000000000E+00  0.00000000000E+00  0.49274096367E+03  0.49274096368E+03  0.25500000000E-02 0. -1.
         -1   -1    0    0    0  501 -0.00000000000E+00 -0.00000000000E+00 -0.32774565188E+01  0.32774603940E+01  0.50400000000E-02 0.  1.
         24    2    1    2    0    0  0.88817841970E-15  0.00000000000E+00  0.48946350715E+03  0.49601842407E+03  0.80372583539E+02 0.  0.
         66    2    3    3    0    0  0.74101962196E+01 -0.25046620857E+02  0.43315764767E+03  0.43394906609E+03  0.19999999773E+01 0.  0.
        -13    1    3    3    0    0 -0.74101962196E+01  0.25046620857E+02  0.56305859484E+02  0.62069357985E+02  0.10566000000E+00 0.  1.
         13    1    4    4    0    0  0.10659930791E+01 -0.32303197105E+01  0.49488732995E+02  0.49605616256E+02  0.10566000000E+00 0. -1.
        -13    1    4    4    0    0  0.11886801936E+01 -0.28495312425E+01  0.47306464059E+02  0.47407230405E+02  0.10566000000E+00 0.  1.
         14    1    4    4    0    0  0.51555229468E+01 -0.18966769904E+02  0.33636245061E+03  0.33693621942E+03  0.00000000000E+00 0. -1.
<mgrwt>
<rscale>  0 0.80372584E+02</rscale>
<asrwt>0</asrwt>
<pdfrwt beam="1">  1        2 0.75806268E-01 0.80372584E+02</pdfrwt>
<pdfrwt beam="2">  1       -1 0.50422461E-03 0.80372584E+02</pdfrwt>
<totfact> 0.29944221E+05</totfact>
</mgrwt>
</event>
<event>
 8    1  0.7667702E-014  0.7952554E+02  0.7818608E-02  0.1330403E+00
         -1   -1    0    0    0  501 -0.00000000000E+00  0.00000000000E+00  0.23606118305E+01  0.23606172108E+01  0.50400000000E-02 0.  1.
          2   -1    0    0  501    0  0.00000000000E+00 -0.00000000000E+00 -0.66977378688E+03  0.66977378688E+03  0.25500000000E-02 0. -1.
         24    2    1    2    0    0  0.88817841970E-15  0.00000000000E+00 -0.66741317505E+03  0.67213440409E+03  0.79525536398E+02 0.  0.
         66    2    3    3    0    0  0.46295782300E+01  0.25625834556E+02 -0.58760592475E+03  0.58818605834E+03  0.20000071489E+01 0.  0.
        -13    1    3    3    0    0 -0.46295782300E+01 -0.25625834556E+02 -0.79807250295E+02  0.83948345755E+02  0.10566000000E+00 0.  1.
         13    1    4    4    0    0  0.44567048404E+01  0.22073391590E+02 -0.51377708677E+03  0.51427035972E+03  0.10566000000E+00 0. -1.
        -13    1    4    4    0    0  0.28727857317E+00  0.26862264416E+01 -0.54066887575E+02  0.54134442248E+02  0.10566000000E+00 0.  1.
        -14    1    4    4    0    0 -0.11440518350E+00  0.86621652448E+00 -0.19761950406E+02  0.19781256367E+02  0.00000000000E+00 0.  1.
<mgrwt>
<rscale>  0 0.79525536E+02</rscale>
<asrwt>0</asrwt>
<pdfrwt beam="1">  1        2 0.10304197E+00 0.79525536E+02</pdfrwt>
<pdfrwt beam="2">  1       -1 0.36317200E-03 0.79525536E+02</pdfrwt>
<totfact> 0.33619755E+05</totfact>
</mgrwt>
</event>
<event>
 8    1  0.7667702E-014  0.7996622E+02  0.7818608E-02  0.1329147E+00
          2   -1    0    0  501    0  0.00000000000E+00  0.00000000000E+00  0.45308245397E+03  0.45308245398E+03  0.25500000000E-02 0. -1.
         -1   -1    0    0    0  501 -0.00000000000E+00 -0.00000000000E+00 -0.35283827193E+01  0.35283863190E+01  0.50400000000E-02 0.  1.
         24    2    1    2    0    0  0.00000000000E+00  0.00000000000E+00  0.44955407125E+03  0.45661084030E+03  0.79966220981E+02 0.  0.
         66    2    3    3    0    0  0.74889768030E+01 -0.16290747016E+02  0.42882035796E+03  0.42919968850E+03  0.19999990847E+01 0.  0.
        -13    1    3    3    0    0 -0.74889768030E+01  0.16290747016E+02  0.20733713291E+02  0.27411151796E+02  0.10566000000E+00 0.  1.
         13    1    4    4    0    0  0.26343688991E+01 -0.69373022998E+01  0.19660292238E+03  0.19674294476E+03  0.10566000000E+00 0. -1.
        -13    1    4    4    0    0  0.33512267533E+01 -0.67274677052E+01  0.16787286194E+03  0.16804106190E+03  0.10566000000E+00 0.  1.
        -14    1    4    4    0    0  0.15033811507E+01 -0.26259770111E+01  0.64344573643E+02  0.64415681844E+02  0.00000000000E+00 0.  1.
<mgrwt>
<rscale>  0 0.79966221E+02</rscale>
<asrwt>0</asrwt>
<pdfrwt beam="1">  1        2 0.69704913E-01 0.79966221E+02</pdfrwt>
<pdfrwt beam="2">  1       -1 0.54282901E-03 0.79966221E+02</pdfrwt>
<totfact> 0.29518374E+05</totfact>
</mgrwt>
</event>
<event>
 8    1  0.7667702E-014  0.7967813E+02  0.7818608E-02  0.1329967E+00
         -1   -1    0    0    0  501 -0.00000000000E+00  0.00000000000E+00  0.22705814754E+01  0.22705870690E+01  0.50400000000E-02 0.  1.
          2   -1    0    0  501    0  0.00000000000E+00 -0.00000000000E+00 -0.69900556497E+03  0.69900556498E+03  0.25500000000E-02 0. -1.
         24    2    1    2    0    0  0.00000000000E+00  0.00000000000E+00 -0.69673498350E+03  0.70127615205E+03  0.79678128743E+02 0.  0.
         66    2    3    3    0    0 -0.19810969938E+02 -0.27183659517E+02 -0.53606165179E+03  0.53711965183E+03  0.19999991206E+01 0.  0.
        -13    1    3    3    0    0  0.19810969938E+02  0.27183659517E+02 -0.16067333171E+03  0.16415650021E+03  0.10566000000E+00 0.  1.
         13    1    4    4    0    0 -0.13962272293E+02 -0.18104291653E+02 -0.35845350800E+03  0.35918190237E+03  0.10566000000E+00 0. -1.
        -13    1    4    4    0    0 -0.31970464420E+01 -0.50629086918E+01 -0.92562044641E+02  0.92755578930E+02  0.10566000000E+00 0.  1.
         14    1    4    4    0    0 -0.26516512026E+01 -0.40164591723E+01 -0.85046099142E+02  0.85182170539E+02  0.00000000000E+00 0. -1.
<mgrwt>
<rscale>  0 0.79678129E+02</rscale>
<asrwt>0</asrwt>
<pdfrwt beam="1">  1        2 0.10753915E+00 0.79678129E+02</pdfrwt>
<pdfrwt beam="2">  1       -1 0.34932121E-03 0.79678129E+02</pdfrwt>
<totfact> 0.33793032E+05</totfact>
</mgrwt>
</event>
<event>
 8    1  0.7667702E-014  0.7899665E+02  0.7818608E-02  0.1331923E+00
         -1   -1    0    0    0  501 -0.00000000000E+00  0.00000000000E+00  0.65381986009E+01  0.65382005434E+01  0.50400000000E-02 0.  1.
          2   -1    0    0  501    0  0.00000000000E+00 -0.00000000000E+00 -0.23861581719E+03  0.23861581720E+03  0.25500000000E-02 0. -1.
         24    2    1    2    0    0  0.00000000000E+00  0.00000000000E+00 -0.23207761859E+03  0.24515401775E+03  0.78996654154E+02 0.  0.
         66    2    3    3    0    0 -0.38683930867E+02  0.42382064615E+01 -0.95597064392E+02  0.10323375232E+03  0.19999990165E+01 0.  0.
        -13    1    3    3    0    0  0.38683930867E+02 -0.42382064615E+01 -0.13648055420E+03  0.14192026543E+03  0.10566000000E+00 0.  1.
         13    1    4    4    0    0 -0.33137523083E+01  0.36793657211E+00 -0.78003045767E+01  0.84836458676E+01  0.10566000000E+00 0. -1.
        -13    1    4    4    0    0 -0.10371596260E+02  0.13570668335E+01 -0.27954018876E+02  0.29847109989E+02  0.10566000000E+00 0.  1.
        -14    1    4    4    0    0 -0.24998582299E+02  0.25132030560E+01 -0.59842740939E+02  0.64902996461E+02  0.00000000000E+00 0.  1.
<mgrwt>
<rscale>  0 0.78996654E+02</rscale>
<asrwt>0</asrwt>
<pdfrwt beam="1">  1        2 0.36710119E-01 0.78996654E+02</pdfrwt>
<pdfrwt beam="2">  1       -1 0.10058770E-02 0.78996654E+02</pdfrwt>
<totfact> 0.24266108E+05</totfact>
</mgrwt>
</event>
<event>
 8    1  0.7667702E-014  0.7886247E+02  0.7818608E-02  0.1332311E+00
         -1   -1    0    0    0  501 -0.00000000000E+00  0.00000000000E+00  0.30782183874E+01  0.30782225134E+01  0.50400000000E-02 0.  1.
          2   -1    0    0  501    0  0.00000000000E+00 -0.00000000000E+00 -0.50510421624E+03  0.50510421625E+03  0.25500000000E-02 0. -1.
         24    2    1    2    0    0  0.35527136788E-14 -0.17763568394E-14 -0.50202599786E+03  0.50818243876E+03  0.78862466003E+02 0.  0.
         66    2    3    3    0    0  0.16147300379E+02 -0.15347995286E+02 -0.46062784173E+03  0.46117058107E+03  0.20000004355E+01 0.  0.
        -13    1    3    3    0    0 -0.16147300379E+02  0.15347995286E+02 -0.41398156129E+02  0.47011857694E+02  0.10566000000E+00 0.  1.
         13    1    4    4    0    0  0.84070832073E+01 -0.78644638248E+01 -0.22763076180E+03  0.22792170524E+03  0.10566000000E+00 0. -1.
        -13    1    4    4    0    0  0.81211483720E+00 -0.12061330962E+01 -0.26116297710E+02  0.26156958112E+02  0.10566000000E+00 0.  1.
         14    1    4    4    0    0  0.69281023348E+01 -0.62773983650E+01 -0.20688078222E+03  0.20709191771E+03  0.00000000000E+00 0. -1.
<mgrwt>
<rscale>  0 0.78862466E+02</rscale>
<asrwt>0</asrwt>
<pdfrwt beam="1">  1        2 0.77708275E-01 0.78862466E+02</pdfrwt>
<pdfrwt beam="2">  1       -1 0.47357278E-03 0.78862466E+02</pdfrwt>
<totfact> 0.31710603E+05</totfact>
</mgrwt>
</event>
<event>
 8    1  0.7667702E-014  0.8182482E+02  0.7818608E-02  0.1323951E+00
         -1   -1    0    0    0  501 -0.00000000000E+00  0.00000000000E+00  0.42703464087E+02  0.42703464384E+02  0.50400000000E-02 0.  1.
          2   -1    0    0  501    0  0.00000000000E+00 -0.00000000000E+00 -0.39196477684E+02  0.39196477767E+02  0.25500000000E-02 0. -1.
         24    2    1    2    0    0  0.17763568394E-14  0.00000000000E+00  0.35069864024E+01  0.81899942151E+02  0.81824822461E+02 0.  0.
         66    2    3    3    0    0 -0.11345942644E+02 -0.59329191871E+01 -0.37112676927E+02  0.39310058874E+02  0.19999988462E+01 0.  0.
        -13    1    3    3    0    0  0.11345942644E+02  0.59329191871E+01  0.40619663330E+02  0.42589883278E+02  0.10566000000E+00 0.  1.
         13    1    4    4    0    0 -0.39930091571E+01 -0.14256688365E+01 -0.12254270118E+02  0.12967457496E+02  0.10566000000E+00 0. -1.
        -13    1    4    4    0    0 -0.43236094576E+01 -0.24487734721E+01 -0.16087143349E+02  0.16837382084E+02  0.10566000000E+00 0.  1.
        -14    1    4    4    0    0 -0.30293240295E+01 -0.20584768784E+01 -0.87712634604E+01  0.95052192939E+01  0.00000000000E+00 0.  1.
<mgrwt>
<rscale>  0 0.81824822E+02</rscale>
<asrwt>0</asrwt>
<pdfrwt beam="1">  1        2 0.60302274E-02 0.81824822E+02</pdfrwt>
<pdfrwt beam="2">  1       -1 0.65697637E-02 0.81824822E+02</pdfrwt>
<totfact> 0.13335661E+05</totfact>
</mgrwt>
</event>
<event>
 8    1  0.7667702E-014  0.8011294E+02  0.7818608E-02  0.1328731E+00
          2   -1    0    0  501    0  0.00000000000E+00  0.00000000000E+00  0.90539374731E+02  0.90539374767E+02  0.25500000000E-02 0. -1.
         -1   -1    0    0    0  501 -0.00000000000E+00 -0.00000000000E+00 -0.17721802024E+02  0.17721802741E+02  0.50400000000E-02 0.  1.
         24    2    1    2    0    0  0.35527136788E-14  0.00000000000E+00  0.72817572706E+02  0.10826117751E+03  0.80112943152E+02 0.  0.
         66    2    3    3    0    0 -0.25086091214E+02 -0.54634658624E+01  0.77937093785E+02  0.82081374381E+02  0.20000002559E+01 0.  0.
        -13    1    3    3    0    0  0.25086091214E+02  0.54634658624E+01 -0.51195210787E+01  0.26179803126E+02  0.10566000000E+00 0.  1.
         13    1    4    4    0    0 -0.12843359834E+01 -0.22968342612E+00  0.32770561050E+01  0.35288148358E+01  0.10566000000E+00 0.  1.
        -13    1    4    4    0    0 -0.18888124929E+02 -0.36519378327E+01  0.57505413296E+02  0.60638120317E+02  0.10566000000E+00 0. -1.
         14    1    4    4    0    0 -0.49136303016E+01 -0.15818446036E+01  0.17154624384E+02  0.17914439228E+02  0.00000000000E+00 0. -1.
<mgrwt>
<rscale>  0 0.80112943E+02</rscale>
<asrwt>0</asrwt>
<pdfrwt beam="1">  1        2 0.13929134E-01 0.80112943E+02</pdfrwt>
<pdfrwt beam="2">  1       -1 0.27264312E-02 0.80112943E+02</pdfrwt>
<totfact> 0.17183197E+05</totfact>
</mgrwt>
</event>
<event>
 8    1  0.7667702E-014  0.7908052E+02  0.7818608E-02  0.1331681E+00
          2   -1    0    0  501    0  0.00000000000E+00  0.00000000000E+00  0.52074252207E+03  0.52074252207E+03  0.25500000000E-02 0. -1.
         -1   -1    0    0    0  501 -0.00000000000E+00 -0.00000000000E+00 -0.30023112693E+01  0.30023154996E+01  0.50400000000E-02 0.  1.
         24    2    1    2    0    0  0.00000000000E+00  0.00000000000E+00  0.51774021080E+03  0.52374483757E+03  0.79080522301E+02 0.  0.
         66    2    3    3    0    0  0.45290407999E+01 -0.16881087672E+02  0.49374725672E+03  0.49406055990E+03  0.19999997207E+01 0.  0.
        -13    1    3    3    0    0 -0.45290407999E+01  0.16881087672E+02  0.23992954080E+02  0.29684277675E+02  0.10566000000E+00 0.  1.
         13    1    4    4    0    0  0.11836442115E+01 -0.65991110163E+01  0.19304684539E+03  0.19316325986E+03  0.10566000000E+00 0. -1.
        -13    1    4    4    0    0  0.38417482980E+00 -0.76992080583E+00  0.33555035587E+02  0.33566232222E+02  0.10566000000E+00 0.  1.
        -14    1    4    4    0    0  0.29612217585E+01 -0.95120558502E+01  0.26714537574E+03  0.26733106781E+03  0.00000000000E+00 0.  1.
<mgrwt>
<rscale>  0 0.79080522E+02</rscale>
<asrwt>0</asrwt>
<pdfrwt beam="1">  1        2 0.80114235E-01 0.79080522E+02</pdfrwt>
<pdfrwt beam="2">  1       -1 0.46189437E-03 0.79080522E+02</pdfrwt>
<totfact> 0.31786022E+05</totfact>
</mgrwt>
</event>
<event>
 8    1  0.7667702E-014  0.7900349E+02  0.7818608E-02  0.1331903E+00
         -1   -1    0    0    0  501 -0.00000000000E+00  0.00000000000E+00  0.54769578065E+02  0.54769578297E+02  0.50400000000E-02 0.  1.
          2   -1    0    0  501    0  0.00000000000E+00 -0.00000000000E+00 -0.28490046840E+02  0.28490046954E+02  0.25500000000E-02 0. -1.
         24    2    1    2    0    0  0.17763568394E-14  0.00000000000E+00  0.26279531225E+02  0.83259625251E+02  0.79003490021E+02 0.  0.
         66    2    3    3    0    0 -0.78858880811E+01 -0.16539142086E+02 -0.23702023367E+02  0.30025262145E+02  0.20000008515E+01 0.  0.
        -13    1    3    3    0    0  0.78858880811E+01  0.16539142086E+02  0.49981554592E+02  0.53234363106E+02  0.10566000000E+00 0.  1.
         13    1    4    4    0    0 -0.53800819063E+00 -0.18300482287E+01 -0.17955795478E+01  0.26217931422E+01  0.10566000000E+00 0. -1.
        -13    1    4    4    0    0 -0.99414339660E+00 -0.26532571815E+01 -0.36706976502E+01  0.46382410501E+01  0.10566000000E+00 0.  1.
         14    1    4    4    0    0 -0.63537364939E+01 -0.12055836676E+02 -0.18235746169E+02  0.22765227953E+02  0.00000000000E+00 0. -1.
<mgrwt>
<rscale>  0 0.79003490E+02</rscale>
<asrwt>0</asrwt>
<pdfrwt beam="1">  1        2 0.43830841E-02 0.79003490E+02</pdfrwt>
<pdfrwt beam="2">  1       -1 0.84260890E-02 0.79003490E+02</pdfrwt>
<totfact> 0.13795992E+05</totfact>
</mgrwt>
</event>
<event>
 8    1  0.7667702E-014  0.8276762E+02  0.7818608E-02  0.1321376E+00
          2   -1    0    0  501    0  0.00000000000E+00  0.00000000000E+00  0.15031785220E+02  0.15031785436E+02  0.25500000000E-02 0. -1.
         -1   -1    0    0    0  501 -0.00000000000E+00 -0.00000000000E+00 -0.11393321910E+03  0.11393321921E+03  0.50400000000E-02 0.  1.
         24    2    1    2    0    0  0.00000000000E+00  0.71054273576E-14 -0.98901433882E+02  0.12896500465E+03  0.82767619274E+02 0.  0.
         66    2    3    3    0    0 -0.11699391091E+02  0.39187529633E+02 -0.39864722951E+02  0.57146604276E+02  0.20000034254E+01 0.  0.
        -13    1    3    3    0    0  0.11699391091E+02 -0.39187529633E+02 -0.59036710931E+02  0.71818400373E+02  0.10566000000E+00 0.  1.
         13    1    4    4    0    0 -0.59840170894E+01  0.17276427640E+02 -0.17635588661E+02  0.25402924319E+02  0.10566000000E+00 0. -1.
        -13    1    4    4    0    0 -0.18776504400E+01  0.62430055056E+01 -0.68245338668E+01  0.94385441384E+01  0.10566000000E+00 0.  1.
         14    1    4    4    0    0 -0.38377235615E+01  0.15668096488E+02 -0.15404600424E+02  0.22305135819E+02  0.00000000000E+00 0. -1.
<mgrwt>
<rscale>  0 0.82767619E+02</rscale>
<asrwt>0</asrwt>
<pdfrwt beam="1">  1        2 0.23125824E-02 0.82767619E+02</pdfrwt>
<pdfrwt beam="2">  1       -1 0.17528187E-01 0.82767619E+02</pdfrwt>
<totfact> 0.10578201E+05</totfact>
</mgrwt>
</event>
<event>
 8    1  0.7667702E-014  0.7947607E+02  0.7818608E-02  0.1330545E+00
          2   -1    0    0  501    0  0.00000000000E+00  0.00000000000E+00  0.67473374800E+02  0.67473374848E+02  0.25500000000E-02 0. -1.
         -1   -1    0    0    0  501 -0.00000000000E+00 -0.00000000000E+00 -0.23403476757E+02  0.23403477299E+02  0.50400000000E-02 0.  1.
         24    2    1    2    0    0  0.35527136788E-14  0.71054273576E-14  0.44069898043E+02  0.90876852148E+02  0.79476074027E+02 0.  0.
         66    2    3    3    0    0 -0.16190475995E+02 -0.35515840014E+02  0.13677423534E+02  0.41407466911E+02  0.19999991671E+01 0.  0.
        -13    1    3    3    0    0  0.16190475995E+02  0.35515840014E+02  0.30392474509E+02  0.49469385236E+02  0.10566000000E+00 0.  1.
         13    1    4    4    0    0 -0.13971155501E+01 -0.32874825183E+01  0.14336295005E+01  0.38504455260E+01  0.10566000000E+00 0. -1.
        -13    1    4    4    0    0 -0.37216527923E+01 -0.65069653966E+01  0.28512412873E+01  0.80207255965E+01  0.10566000000E+00 0.  1.
         14    1    4    4    0    0 -0.11071707653E+02 -0.25721392099E+02  0.93925527462E+01  0.29536295789E+02  0.00000000000E+00 0. -1.
<mgrwt>
<rscale>  0 0.79476074E+02</rscale>
<asrwt>0</asrwt>
<pdfrwt beam="1">  1        2 0.10380519E-01 0.79476074E+02</pdfrwt>
<pdfrwt beam="2">  1       -1 0.36005350E-02 0.79476074E+02</pdfrwt>
<totfact> 0.16290564E+05</totfact>
</mgrwt>
</event>
<event>
 8    1  0.7667702E-014  0.7991506E+02  0.7818608E-02  0.1329293E+00
          2   -1    0    0  501    0  0.00000000000E+00  0.00000000000E+00  0.34934080467E+03  0.34934080468E+03  0.25500000000E-02 0. -1.
         -1   -1    0    0    0  501 -0.00000000000E+00 -0.00000000000E+00 -0.45703331664E+01  0.45703359453E+01  0.50400000000E-02 0.  1.
         24    2    1    2    0    0 -0.71054273576E-14  0.00000000000E+00  0.34477047150E+03  0.35391114063E+03  0.79915063895E+02 0.  0.
         66    2    3    3    0    0 -0.35221991920E+02 -0.21203070531E+01  0.25528683126E+03  0.25772165340E+03  0.20000002202E+01 0.  0.
        -13    1    3    3    0    0  0.35221991920E+02  0.21203070531E+01  0.89483640245E+02  0.96189487224E+02  0.10566000000E+00 0.  1.
         13    1    4    4    0    0 -0.40498901133E+01 -0.26986689171E+00  0.26945767526E+02  0.27249953939E+02  0.10566000000E+00 0. -1.
        -13    1    4    4    0    0 -0.26836692903E+02 -0.11842805239E+01  0.19358521092E+03  0.19544015876E+03  0.10566000000E+00 0.  1.
        -14    1    4    4    0    0 -0.43354089037E+01 -0.66615963748E+00  0.34755852817E+02  0.35031540703E+02  0.00000000000E+00 0.  1.
<mgrwt>
<rscale>  0 0.79915064E+02</rscale>
<asrwt>0</asrwt>
<pdfrwt beam="1">  1        2 0.53744728E-01 0.79915064E+02</pdfrwt>
<pdfrwt beam="2">  1       -1 0.70312854E-03 0.79915064E+02</pdfrwt>
<totfact> 0.27006405E+05</totfact>
</mgrwt>
</event>
<event>
 8    1  0.7667702E-014  0.7488884E+02  0.7818608E-02  0.1344216E+00
         -1   -1    0    0    0  501 -0.00000000000E+00  0.00000000000E+00  0.44224584012E+01  0.44224612731E+01  0.50400000000E-02 0.  1.
          2   -1    0    0  501    0  0.00000000000E+00 -0.00000000000E+00 -0.31703725148E+03  0.31703725149E+03  0.25500000000E-02 0. -1.
         24    2    1    2    0    0 -0.17763568394E-14 -0.35527136788E-14 -0.31261479308E+03  0.32145971277E+03  0.74888838142E+02 0.  0.
         66    2    3    3    0    0  0.14431615228E+02 -0.20602716274E+02 -0.27532416683E+03  0.27647810090E+03  0.19999999998E+01 0.  0.
        -13    1    3    3    0    0 -0.14431615228E+02  0.20602716274E+02 -0.37290626254E+02  0.44981611870E+02  0.10566000000E+00 0.  1.
         13    1    4    4    0    0  0.74913772073E+01 -0.11105955275E+02 -0.14082609791E+03  0.14146188176E+03  0.10566000000E+00 0. -1.
        -13    1    4    4    0    0  0.31295805281E+01 -0.34931854514E+01 -0.56851091783E+02  0.57044319786E+02  0.10566000000E+00 0.  1.
        -14    1    4    4    0    0  0.38106574924E+01 -0.60035755472E+01 -0.77646977135E+02  0.77971899349E+02  0.00000000000E+00 0.  1.
<mgrwt>
<rscale>  0 0.74888838E+02</rscale>
<asrwt>0</asrwt>
<pdfrwt beam="1">  1        2 0.48774944E-01 0.74888838E+02</pdfrwt>
<pdfrwt beam="2">  1       -1 0.68037869E-03 0.74888838E+02</pdfrwt>
<totfact> 0.30901639E+05</totfact>
</mgrwt>
</event>
<event>
 8    1  0.7667702E-014  0.7971821E+02  0.7818608E-02  0.1329853E+00
         -1   -1    0    0    0  501 -0.00000000000E+00  0.00000000000E+00  0.44805013064E+01  0.44805041411E+01  0.50400000000E-02 0.  1.
          2   -1    0    0  501    0  0.00000000000E+00 -0.00000000000E+00 -0.35459152321E+03  0.35459152322E+03  0.25500000000E-02 0. -1.
         24    2    1    2    0    0  0.00000000000E+00  0.00000000000E+00 -0.35011102190E+03  0.35907202736E+03  0.79718211057E+02 0.  0.
         66    2    3    3    0    0 -0.12118086369E+02  0.36557197315E+02 -0.22098213105E+03  0.22432204291E+03  0.19999995466E+01 0.  0.
        -13    1    3    3    0    0  0.12118086369E+02 -0.36557197315E+02 -0.12912889085E+03  0.13474998445E+03  0.10566000000E+00 0.  1.
         13    1    4    4    0    0 -0.86848332227E+01  0.25374226300E+02 -0.15272205186E+03  0.15505906609E+03  0.10566000000E+00 0. -1.
        -13    1    4    4    0    0 -0.71633889562E+00  0.35014461867E+01 -0.22754859844E+02  0.23034063414E+02  0.10566000000E+00 0.  1.
        -14    1    4    4    0    0 -0.27169142508E+01  0.76815248282E+01 -0.45505219348E+02  0.46228913406E+02  0.00000000000E+00 0.  1.
<mgrwt>
<rscale>  0 0.79718211E+02</rscale>
<asrwt>0</asrwt>
<pdfrwt beam="1">  1        2 0.54552520E-01 0.79718211E+02</pdfrwt>
<pdfrwt beam="2">  1       -1 0.68930839E-03 0.79718211E+02</pdfrwt>
<totfact> 0.27326211E+05</totfact>
</mgrwt>
</event>
<event>
 8    1  0.7667702E-014  0.8658521E+02  0.7818608E-02  0.1311338E+00
         -1   -1    0    0    0  501 -0.00000000000E+00  0.00000000000E+00  0.37792756039E+01  0.37792789646E+01  0.50400000000E-02 0.  1.
          2   -1    0    0  501    0  0.00000000000E+00 -0.00000000000E+00 -0.49592810078E+03  0.49592810079E+03  0.25500000000E-02 0. -1.
         24    2    1    2    0    0  0.00000000000E+00  0.00000000000E+00 -0.49214882518E+03  0.49970737975E+03  0.86585213839E+02 0.  0.
         66    2    3    3    0    0  0.26443452164E+02 -0.16719507461E+02 -0.41871218894E+03  0.41988414505E+03  0.20000018159E+01 0.  0.
        -13    1    3    3    0    0 -0.26443452164E+02  0.16719507461E+02 -0.73436636236E+02  0.79823234699E+02  0.10566000000E+00 0.  1.
         13    1    4    4    0    0  0.18625512747E+02 -0.11779414643E+02 -0.29529346120E+03  0.29611468002E+03  0.10566000000E+00 0. -1.
        -13    1    4    4    0    0  0.42638587660E+01 -0.30853171300E+01 -0.64450525684E+02  0.64665145932E+02  0.10566000000E+00 0.  1.
        -14    1    4    4    0    0  0.35540806512E+01 -0.18547756879E+01 -0.58968202061E+02  0.59104319101E+02  0.00000000000E+00 0.  1.
<mgrwt>
<rscale>  0 0.86585214E+02</rscale>
<asrwt>0</asrwt>
<pdfrwt beam="1">  1        2 0.76296579E-01 0.86585214E+02</pdfrwt>
<pdfrwt beam="2">  1       -1 0.58142767E-03 0.86585214E+02</pdfrwt>
<totfact> 0.24693675E+05</totfact>
</mgrwt>
</event>
<event>
 8    1  0.7667702E-014  0.7924411E+02  0.7818608E-02  0.1331210E+00
          2   -1    0    0  501    0  0.00000000000E+00  0.00000000000E+00  0.60676915339E+03  0.60676915339E+03  0.25500000000E-02 0. -1.
         -1   -1    0    0    0  501 -0.00000000000E+00 -0.00000000000E+00 -0.25873194508E+01  0.25873243597E+01  0.50400000000E-02 0.  1.
         24    2    1    2    0    0  0.35527136788E-14 -0.44408920985E-15  0.60418183394E+03  0.60935647775E+03  0.79244107162E+02 0.  0.
         66    2    3    3    0    0  0.16764978034E+02 -0.28453076379E+01  0.57725951268E+03  0.57751338101E+03  0.20000019311E+01 0.  0.
        -13    1    3    3    0    0 -0.16764978034E+02  0.28453076379E+01  0.26922321263E+02  0.31843096744E+02  0.10566000000E+00 0.  1.
         13    1    4    4    0    0  0.82902019239E+00 -0.31127797708E+00  0.40283083607E+02  0.40292954190E+02  0.10566000000E+00 0. -1.
        -13    1    4    4    0    0  0.11294272930E+01 -0.33221254982E-01  0.29302201999E+02  0.29324169480E+02  0.10566000000E+00 0.  1.
         14    1    4    4    0    0  0.14806530548E+02 -0.25008084058E+01  0.50767422707E+03  0.50789625734E+03  0.00000000000E+00 0. -1.
<mgrwt>
<rscale>  0 0.79244107E+02</rscale>
<asrwt>0</asrwt>
<pdfrwt beam="1">  1        2 0.93349129E-01 0.79244107E+02</pdfrwt>
<pdfrwt beam="2">  1       -1 0.39804940E-03 0.79244107E+02</pdfrwt>
<totfact> 0.33070048E+05</totfact>
</mgrwt>
</event>
<event>
 8    1  0.7667702E-014  0.7234710E+02  0.7818608E-02  0.1352289E+00
          2   -1    0    0  501    0  0.00000000000E+00  0.00000000000E+00  0.12224051740E+04  0.12224051740E+04  0.25500000000E-02 0. -1.
         -1   -1    0    0    0  501 -0.00000000000E+00 -0.00000000000E+00 -0.10704457292E+01  0.10704575941E+01  0.50400000000E-02 0.  1.
         24    2    1    2    0    0  0.00000000000E+00  0.00000000000E+00  0.12213347283E+04  0.12234756316E+04  0.72347098287E+02 0.  0.
         66    2    3    3    0    0 -0.73984256697E+01 -0.10065431546E+02  0.11847366331E+04  0.11848041777E+04  0.20000003120E+01 0.  0.
        -13    1    3    3    0    0  0.73984256697E+01  0.10065431546E+02  0.36598095167E+02  0.38671453923E+02  0.10566000000E+00 0.  1.
         13    1    4    4    0    0 -0.42703576369E+01 -0.45632149206E+01  0.56887970658E+03  0.56891404500E+03  0.10566000000E+00 0. -1.
        -13    1    4    4    0    0 -0.56080991887E+00 -0.97521336263E+00  0.80865817182E+02  0.80873710818E+02  0.10566000000E+00 0.  1.
         14    1    4    4    0    0 -0.25672581139E+01 -0.45270032628E+01  0.53499110934E+03  0.53501642185E+03  0.00000000000E+00 0. -1.
<mgrwt>
<rscale>  0 0.72347098E+02</rscale>
<asrwt>0</asrwt>
<pdfrwt beam="1">  1        2 0.18806104E+00 0.72347098E+02</pdfrwt>
<pdfrwt beam="2">  1       -1 0.16468600E-03 0.72347098E+02</pdfrwt>
<totfact> 0.45331214E+05</totfact>
</mgrwt>
</event>
<event>
 8    1  0.7667702E-014  0.7431900E+02  0.7818608E-02  0.1345993E+00
          2   -1    0    0  501    0  0.00000000000E+00  0.00000000000E+00  0.12501915525E+03  0.12501915527E+03  0.25500000000E-02 0. -1.
         -1   -1    0    0    0  501 -0.00000000000E+00 -0.00000000000E+00 -0.11044932925E+02  0.11044934075E+02  0.50400000000E-02 0.  1.
         24    2    1    2    0    0  0.35527136788E-14 -0.35527136788E-14  0.11397422232E+03  0.13606408935E+03  0.74318995258E+02 0.  0.
         66    2    3    3    0    0  0.23353211562E+02 -0.26939175351E+02  0.76030975836E+02  0.83998815155E+02  0.20000005151E+01 0.  0.
        -13    1    3    3    0    0 -0.23353211562E+02  0.26939175351E+02  0.37943246485E+02  0.52065274192E+02  0.10566000000E+00 0.  1.
         13    1    4    4    0    0  0.17989728654E+02 -0.21406539929E+02  0.59663864561E+02  0.65891260324E+02  0.10566000000E+00 0. -1.
        -13    1    4    4    0    0  0.81213234033E+00 -0.12615798261E+01  0.31044583136E+01  0.34496330315E+01  0.10566000000E+00 0.  1.
        -14    1    4    4    0    0  0.45513505681E+01 -0.42710555954E+01  0.13262652962E+02  0.14657921799E+02  0.00000000000E+00 0.  1.
<mgrwt>
<rscale>  0 0.74318995E+02</rscale>
<asrwt>0</asrwt>
<pdfrwt beam="1">  1        2 0.19233715E-01 0.74318995E+02</pdfrwt>
<pdfrwt beam="2">  1       -1 0.16992207E-02 0.74318995E+02</pdfrwt>
<totfact> 0.23000344E+05</totfact>
</mgrwt>
</event>
<event>
 8    1  0.7667702E-014  0.7918962E+02  0.7818608E-02  0.1331367E+00
         -1   -1    0    0    0  501 -0.00000000000E+00  0.00000000000E+00  0.62046751936E+01  0.62046772406E+01  0.50400000000E-02 0.  1.
          2   -1    0    0  501    0  0.00000000000E+00 -0.00000000000E+00 -0.25267217380E+03  0.25267217381E+03  0.25500000000E-02 0. -1.
         24    2    1    2    0    0  0.00000000000E+00  0.00000000000E+00 -0.24646749861E+03  0.25887685106E+03  0.79189621429E+02 0.  0.
         66    2    3    3    0    0 -0.37073934158E+02  0.73181862813E+01 -0.16167493385E+03  0.16604462257E+03  0.20000006002E+01 0.  0.
        -13    1    3    3    0    0  0.37073934158E+02 -0.73181862813E+01 -0.84792564755E+02  0.92832228489E+02  0.10566000000E+00 0.  1.
         13    1    4    4    0    0 -0.91638438678E+01  0.21830545575E+01 -0.42142298817E+02  0.43182476484E+02  0.10566000000E+00 0. -1.
        -13    1    4    4    0    0 -0.23787292211E+02  0.43114355103E+01 -0.10372358216E+03  0.10650359809E+03  0.10566000000E+00 0.  1.
        -14    1    4    4    0    0 -0.41227980799E+01  0.82369621355E+00 -0.15809052879E+02  0.16358547992E+02  0.00000000000E+00 0.  1.
<mgrwt>
<rscale>  0 0.79189621E+02</rscale>
<asrwt>0</asrwt>
<pdfrwt beam="1">  1        2 0.38872634E-01 0.79189621E+02</pdfrwt>
<pdfrwt beam="2">  1       -1 0.95456577E-03 0.79189621E+02</pdfrwt>
<totfact> 0.24609008E+05</totfact>
</mgrwt>
</event>
<event>
 8    1  0.7667702E-014  0.7870244E+02  0.7818608E-02  0.1332775E+00
          2   -1    0    0  501    0  0.00000000000E+00  0.00000000000E+00  0.13077204810E+04  0.13077204810E+04  0.25500000000E-02 0. -1.
         -1   -1    0    0    0  501 -0.00000000000E+00 -0.00000000000E+00 -0.11841302161E+01  0.11841409419E+01  0.50400000000E-02 0.  1.
         24    2    1    2    0    0 -0.44408920985E-15  0.00000000000E+00  0.13065363508E+04  0.13089046220E+04  0.78702435972E+02 0.  0.
         66    2    3    3    0    0 -0.35563047494E+01  0.23004409541E+02  0.11808338596E+04  0.11810649661E+04  0.19999811692E+01 0.  0.
        -13    1    3    3    0    0  0.35563047494E+01 -0.23004409541E+02  0.12570249121E+03  0.12783965591E+03  0.10566000000E+00 0.  1.
         13    1    4    4    0    0 -0.11848527246E+01  0.91527361237E+01  0.50805520647E+03  0.50813903653E+03  0.10566000000E+00 0. -1.
        -13    1    4    4    0    0 -0.23112314197E+00  0.21773549800E+01  0.11744567813E+03  0.11746613456E+03  0.10566000000E+00 0.  1.
        -14    1    4    4    0    0 -0.21403288828E+01  0.11674318437E+02  0.55533297500E+03  0.55545979498E+03  0.00000000000E+00 0.  1.
<mgrwt>
<rscale>  0 0.78702436E+02</rscale>
<asrwt>0</asrwt>
<pdfrwt beam="1">  1        2 0.20118865E+00 0.78702436E+02</pdfrwt>
<pdfrwt beam="2">  1       -1 0.18217391E-03 0.78702436E+02</pdfrwt>
<totfact> 0.36075295E+05</totfact>
</mgrwt>
</event>
<event>
 8    1  0.7667702E-014  0.7925549E+02  0.7818608E-02  0.1331178E+00
         -1   -1    0    0    0  501 -0.00000000000E+00  0.00000000000E+00  0.77978877204E+01  0.77978893492E+01  0.50400000000E-02 0.  1.
          2   -1    0    0  501    0  0.00000000000E+00 -0.00000000000E+00 -0.20138248269E+03  0.20138248270E+03  0.25500000000E-02 0. -1.
         24    2    1    2    0    0  0.00000000000E+00  0.35527136788E-14 -0.19358459497E+03  0.20918037205E+03  0.79255489675E+02 0.  0.
         66    2    3    3    0    0  0.24366946752E+02 -0.28430806114E+02 -0.13088912335E+03  0.13615440301E+03  0.20000038630E+01 0.  0.
        -13    1    3    3    0    0 -0.24366946752E+02  0.28430806114E+02 -0.62695471613E+02  0.73025969046E+02  0.10566000000E+00 0.  1.
         13    1    4    4    0    0  0.17821343570E+02 -0.19846630727E+02 -0.95090743813E+02  0.98761074118E+02  0.10566000000E+00 0. -1.
        -13    1    4    4    0    0  0.90521793410E+00 -0.14031600162E+01 -0.55151918108E+01  0.57634002364E+01  0.10566000000E+00 0. -1.
         14    1    4    4    0    0  0.56403852478E+01 -0.71810153702E+01 -0.30283187731E+02  0.31629928653E+02  0.00000000000E+00 0. -1.
<mgrwt>
<rscale>  0 0.79255490E+02</rscale>
<asrwt>0</asrwt>
<pdfrwt beam="1">  1        2 0.30981917E-01 0.79255490E+02</pdfrwt>
<pdfrwt beam="2">  1       -1 0.11996753E-02 0.79255490E+02</pdfrwt>
<totfact> 0.22663393E+05</totfact>
</mgrwt>
</event>
<event>
 8    1  0.7667702E-014  0.7778308E+02  0.7818608E-02  0.1335463E+00
          2   -1    0    0  501    0  0.00000000000E+00  0.00000000000E+00  0.10960540464E+03  0.10960540466E+03  0.25500000000E-02 0. -1.
         -1   -1    0    0    0  501 -0.00000000000E+00 -0.00000000000E+00 -0.13799974916E+02  0.13799975836E+02  0.50400000000E-02 0.  1.
         24    2    1    2    0    0  0.00000000000E+00  0.00000000000E+00  0.95805429720E+02  0.12340538050E+03  0.77783080247E+02 0.  0.
         66    2    3    3    0    0  0.32705663745E+02 -0.45966372563E+01  0.80439146490E+02  0.86978421536E+02  0.20000024480E+01 0.  0.
        -13    1    3    3    0    0 -0.32705663745E+02  0.45966372563E+01  0.15366283229E+02  0.36426958964E+02  0.10566000000E+00 0.  1.
         13    1    4    4    0    0  0.14207464935E+02 -0.21294558434E+01  0.32553968401E+02  0.35583123313E+02  0.10566000000E+00 0. -1.
        -13    1    4    4    0    0  0.33992270954E+01 -0.54193879067E+00  0.91844699956E+01  0.98088784086E+01  0.10566000000E+00 0.  1.
         14    1    4    4    0    0  0.15098971714E+02 -0.19252426223E+01  0.38700708094E+02  0.41586419814E+02  0.00000000000E+00 0. -1.
<mgrwt>
<rscale>  0 0.77783080E+02</rscale>
<asrwt>0</asrwt>
<pdfrwt beam="1">  1        2 0.16862369E-01 0.77783080E+02</pdfrwt>
<pdfrwt beam="2">  1       -1 0.21230733E-02 0.77783080E+02</pdfrwt>
<totfact> 0.19611671E+05</totfact>
</mgrwt>
</event>
<event>
 8    1  0.7667702E-014  0.7973633E+02  0.7818608E-02  0.1329801E+00
          2   -1    0    0  501    0  0.00000000000E+00  0.00000000000E+00  0.56738486010E+03  0.56738486011E+03  0.25500000000E-02 0. -1.
         -1   -1    0    0    0  501 -0.00000000000E+00 -0.00000000000E+00 -0.28013951135E+01  0.28013996472E+01  0.50400000000E-02 0.  1.
         24    2    1    2    0    0  0.00000000000E+00  0.00000000000E+00  0.56458346499E+03  0.57018625975E+03  0.79736327197E+02 0.  0.
         66    2    3    3    0    0 -0.65518769447E+01 -0.10470938390E+02  0.55334514229E+03  0.55348659798E+03  0.20000011219E+01 0.  0.
        -13    1    3    3    0    0  0.65518769447E+01  0.10470938390E+02  0.11238322695E+02  0.16699661772E+02  0.10566000000E+00 0.  1.
         13    1    4    4    0    0 -0.24795161149E+01 -0.29659533854E+01  0.15263363882E+03  0.15268262423E+03  0.10566000000E+00 0. -1.
        -13    1    4    4    0    0 -0.28964143326E+01 -0.53132490154E+01  0.30577850867E+03  0.30583840073E+03  0.10566000000E+00 0.  1.
        -14    1    4    4    0    0 -0.11759464972E+01 -0.21917359895E+01  0.94932994801E+02  0.94965573018E+02  0.00000000000E+00 0.  1.
<mgrwt>
<rscale>  0 0.79736327E+02</rscale>
<asrwt>0</asrwt>
<pdfrwt beam="1">  1        2 0.87290012E-01 0.79736327E+02</pdfrwt>
<pdfrwt beam="2">  1       -1 0.43098405E-03 0.79736327E+02</pdfrwt>
<totfact> 0.31927113E+05</totfact>
</mgrwt>
</event>
<event>
 8    1  0.7667702E-014  0.7785106E+02  0.7818608E-02  0.1335263E+00
          2   -1    0    0  501    0  0.00000000000E+00  0.00000000000E+00  0.24985217066E+02  0.24985217196E+02  0.25500000000E-02 0. -1.
         -1   -1    0    0    0  501 -0.00000000000E+00 -0.00000000000E+00 -0.60643727398E+02  0.60643727607E+02  0.50400000000E-02 0.  1.
         24    2    1    2    0    0  0.00000000000E+00  0.17763568394E-14 -0.35658510332E+02  0.85628944803E+02  0.77851055414E+02 0.  0.
         66    2    3    3    0    0  0.36902139153E+02  0.12050108037E+02 -0.15098092941E+02  0.41700424397E+02  0.20000016650E+01 0.  0.
        -13    1    3    3    0    0 -0.36902139153E+02 -0.12050108037E+02 -0.20560417390E+02  0.43928520406E+02  0.10566000000E+00 0.  1.
         13    1    4    4    0    0  0.46469892811E+01  0.18098766729E+01 -0.21521371389E+01  0.54325888166E+01  0.10566000000E+00 0. -1.
        -13    1    4    4    0    0  0.19984617330E+02  0.67175972865E+01 -0.73371252726E+01  0.22323879914E+02  0.10566000000E+00 0.  1.
        -14    1    4    4    0    0  0.12270532542E+02  0.35226340779E+01 -0.56088305300E+01  0.13943955666E+02  0.00000000000E+00 0.  1.
<mgrwt>
<rscale>  0 0.77851055E+02</rscale>
<asrwt>0</asrwt>
<pdfrwt beam="1">  1        2 0.38438796E-02 0.77851055E+02</pdfrwt>
<pdfrwt beam="2">  1       -1 0.93298042E-02 0.77851055E+02</pdfrwt>
<totfact> 0.14016534E+05</totfact>
</mgrwt>
</event>
<event>
 8    1  0.7667702E-014  0.7429853E+02  0.7818608E-02  0.1346057E+00
          2   -1    0    0  501    0  0.00000000000E+00  0.00000000000E+00  0.66472237593E+02  0.66472237642E+02  0.25500000000E-02 0. -1.
         -1   -1    0    0    0  501 -0.00000000000E+00 -0.00000000000E+00 -0.20761568310E+02  0.20761568922E+02  0.50400000000E-02 0.  1.
         24    2    1    2    0    0  0.17763568394E-14  0.00000000000E+00  0.45710669283E+02  0.87233806564E+02  0.74298531084E+02 0.  0.
         66    2    3    3    0    0 -0.68815829536E+01 -0.10074905309E+02  0.64035741584E+02  0.65218372436E+02  0.20000005140E+01 0.  0.
        -13    1    3    3    0    0  0.68815829536E+01  0.10074905309E+02 -0.18325072301E+02  0.22015434127E+02  0.10566000000E+00 0.  1.
         13    1    4    4    0    0 -0.38215364165E+01 -0.46453505133E+01  0.32280934884E+02  0.32836768157E+02  0.10566000000E+00 0. -1.
        -13    1    4    4    0    0 -0.40322266556E+00 -0.12796375090E+01  0.89407785381E+01  0.90415012899E+01  0.10566000000E+00 0.  1.
        -14    1    4    4    0    0 -0.26568238716E+01 -0.41499172868E+01  0.22814028162E+02  0.23340102989E+02  0.00000000000E+00 0.  1.
<mgrwt>
<rscale>  0 0.74298531E+02</rscale>
<asrwt>0</asrwt>
<pdfrwt beam="1">  1        2 0.10226498E-01 0.74298531E+02</pdfrwt>
<pdfrwt beam="2">  1       -1 0.31940875E-02 0.74298531E+02</pdfrwt>
<totfact> 0.19464820E+05</totfact>
</mgrwt>
</event>
<event>
 8    1  0.7667702E-014  0.8005766E+02  0.7818608E-02  0.1328888E+00
          2   -1    0    0  501    0  0.00000000000E+00  0.00000000000E+00  0.17428338590E+03  0.17428338592E+03  0.25500000000E-02 0. -1.
         -1   -1    0    0    0  501 -0.00000000000E+00 -0.00000000000E+00 -0.91936892009E+01  0.91936905824E+01  0.50400000000E-02 0.  1.
         24    2    1    2    0    0  0.00000000000E+00 -0.17763568394E-14  0.16508969670E+03  0.18347707650E+03  0.80057664500E+02 0.  0.
         66    2    3    3    0    0 -0.23591399684E+02 -0.14271153245E+02  0.14902249029E+03  0.15156491205E+03  0.19999998175E+01 0.  0.
        -13    1    3    3    0    0  0.23591399684E+02  0.14271153245E+02  0.16067206409E+02  0.31912164449E+02  0.10566000000E+00 0.  1.
         13    1    4    4    0    0 -0.29715095303E+01 -0.16918079635E+01  0.20266312494E+02  0.20553020927E+02  0.10566000000E+00 0. -1.
        -13    1    4    4    0    0 -0.22166108035E+01 -0.19146181305E+01  0.16538939082E+02  0.16796630496E+02  0.10566000000E+00 0.  1.
         14    1    4    4    0    0 -0.18403279350E+02 -0.10664727151E+02  0.11221723872E+03  0.11421526063E+03  0.00000000000E+00 0. -1.
<mgrwt>
<rscale>  0 0.80057665E+02</rscale>
<asrwt>0</asrwt>
<pdfrwt beam="1">  1        2 0.26812827E-01 0.80057665E+02</pdfrwt>
<pdfrwt beam="2">  1       -1 0.14144139E-02 0.80057665E+02</pdfrwt>
<totfact> 0.21003735E+05</totfact>
</mgrwt>
</event>
<event>
 8    1  0.7667702E-014  0.8215487E+02  0.7818608E-02  0.1323045E+00
         -1   -1    0    0    0  501 -0.00000000000E+00  0.00000000000E+00  0.13378739728E+01  0.13378834661E+01  0.50400000000E-02 0.  1.
          2   -1    0    0  501    0  0.00000000000E+00 -0.00000000000E+00 -0.12612173305E+04  0.12612173306E+04  0.25500000000E-02 0. -1.
         24    2    1    2    0    0 -0.35527136788E-14  0.17763568394E-14 -0.12598794566E+04  0.12625552140E+04  0.82154874112E+02 0.  0.
         66    2    3    3    0    0  0.26638926510E+02 -0.54716110044E+01 -0.11029320067E+04  0.11032690435E+04  0.20000004989E+01 0.  0.
        -13    1    3    3    0    0 -0.26638926510E+02  0.54716110044E+01 -0.15694744988E+03  0.15928617052E+03  0.10566000000E+00 0.  1.
         13    1    4    4    0    0  0.67534974489E+01 -0.15837107836E+01 -0.28448551295E+03  0.28457008998E+03  0.10566000000E+00 0.  1.
        -13    1    4    4    0    0  0.72644309753E+01 -0.10482627263E+01 -0.32531861547E+03  0.32540141909E+03  0.10566000000E+00 0. -1.
        -14    1    4    4    0    0  0.12620998086E+02 -0.28396374946E+01 -0.49312787828E+03  0.49329753443E+03  0.00000000000E+00 0.  1.
<mgrwt>
<rscale>  0 0.82154874E+02</rscale>
<asrwt>0</asrwt>
<pdfrwt beam="1">  1        2 0.19403248E+00 0.82154874E+02</pdfrwt>
<pdfrwt beam="2">  1       -1 0.20582851E-03 0.82154874E+02</pdfrwt>
<totfact> 0.32479065E+05</totfact>
</mgrwt>
</event>
<event>
 8    1  0.7667702E-014  0.8055937E+02  0.7818608E-02  0.1327471E+00
         -1   -1    0    0    0  501 -0.00000000000E+00  0.00000000000E+00  0.42269895951E+01  0.42269925998E+01  0.50400000000E-02 0.  1.
          2   -1    0    0  501    0  0.00000000000E+00 -0.00000000000E+00 -0.38383169779E+03  0.38383169780E+03  0.25500000000E-02 0. -1.
         24    2    1    2    0    0  0.00000000000E+00  0.00000000000E+00 -0.37960470819E+03  0.38805869040E+03  0.80559373817E+02 0.  0.
         66    2    3    3    0    0 -0.87007113435E+01 -0.20746057233E+02 -0.35072104870E+03  0.35144751425E+03  0.20000018357E+01 0.  0.
        -13    1    3    3    0    0  0.87007113435E+01  0.20746057233E+02 -0.28883659495E+02  0.36611176142E+02  0.10566000000E+00 0.  1.
         13    1    4    4    0    0 -0.73901827499E+01 -0.18125255608E+02 -0.30711426567E+03  0.30773742547E+03  0.10566000000E+00 0. -1.
        -13    1    4    4    0    0 -0.13211800096E+01 -0.25234614351E+01 -0.43085995211E+02  0.43180175099E+02  0.10566000000E+00 0.  1.
         14    1    4    4    0    0  0.10651416007E-01 -0.97340190578E-01 -0.52078781568E+00  0.52991368573E+00  0.00000000000E+00 0. -1.
<mgrwt>
<rscale>  0 0.80559374E+02</rscale>
<asrwt>0</asrwt>
<pdfrwt beam="1">  1        2 0.59051003E-01 0.80559374E+02</pdfrwt>
<pdfrwt beam="2">  1       -1 0.65030663E-03 0.80559374E+02</pdfrwt>
<totfact> 0.27344242E+05</totfact>
</mgrwt>
</event>
<event>
 8    1  0.7667702E-014  0.8281313E+02  0.7818608E-02  0.1321253E+00
         -1   -1    0    0    0  501 -0.00000000000E+00  0.00000000000E+00  0.12759647707E+01  0.12759747245E+01  0.50400000000E-02 0.  1.
          2   -1    0    0  501    0  0.00000000000E+00 -0.00000000000E+00 -0.13436868112E+04  0.13436868112E+04  0.25500000000E-02 0. -1.
         24    2    1    2    0    0  0.00000000000E+00  0.00000000000E+00 -0.13424108464E+04  0.13449627859E+04  0.82813132517E+02 0.  0.
         66    2    3    3    0    0  0.15546416757E+02  0.12614354321E+02 -0.12597970772E+04  0.12599577329E+04  0.19999947448E+01 0.  0.
        -13    1    3    3    0    0 -0.15546416757E+02 -0.12614354321E+02 -0.82613769255E+02  0.85005053046E+02  0.10566000000E+00 0.  1.
         13    1    4    4    0    0  0.13006808609E+02  0.10728367689E+02 -0.10564445225E+04  0.10565790625E+04  0.10566000000E+00 0. -1.
        -13    1    4    4    0    0  0.87336005792E+00  0.76012182293E+00 -0.98256164590E+02  0.98263042833E+02  0.10566000000E+00 0.  1.
         14    1    4    4    0    0  0.16662480894E+01  0.11258648086E+01 -0.10509639007E+03  0.10511562757E+03  0.00000000000E+00 0. -1.
<mgrwt>
<rscale>  0 0.82813133E+02</rscale>
<asrwt>0</asrwt>
<pdfrwt beam="1">  1        2 0.20671992E+00 0.82813133E+02</pdfrwt>
<pdfrwt beam="2">  1       -1 0.19630411E-03 0.82813133E+02</pdfrwt>
<totfact> 0.31418157E+05</totfact>
</mgrwt>
</event>
<event>
 8    1  0.7667702E-014  0.7885313E+02  0.7818608E-02  0.1332338E+00
         -1   -1    0    0    0  501 -0.00000000000E+00  0.00000000000E+00  0.20253773556E+03  0.20253773562E+03  0.50400000000E-02 0.  1.
          2   -1    0    0  501    0  0.00000000000E+00 -0.00000000000E+00 -0.76748861446E+01  0.76748865682E+01  0.25500000000E-02 0. -1.
         24    2    1    2    0    0 -0.35527136788E-14  0.00000000000E+00  0.19486284942E+03  0.21021262219E+03  0.78853132126E+02 0.  0.
         66    2    3    3    0    0  0.16486553762E+02  0.31526369395E+02  0.52352326669E+02  0.63328386550E+02  0.20000033079E+01 0.  0.
        -13    1    3    3    0    0 -0.16486553762E+02 -0.31526369395E+02  0.14251052275E+03  0.14688423564E+03  0.10566000000E+00 0.  1.
         13    1    4    4    0    0  0.10048584720E+02  0.19397360479E+02  0.32646842506E+02  0.39281791432E+02  0.10566000000E+00 0. -1.
        -13    1    4    4    0    0  0.11280698312E+01  0.19890877653E+01  0.25918024982E+01  0.34579785869E+01  0.10566000000E+00 0. -1.
        -14    1    4    4    0    0  0.53098992105E+01  0.10139921150E+02  0.17113681665E+02  0.20588616532E+02  0.00000000000E+00 0.  1.
<mgrwt>
<rscale>  0 0.78853132E+02</rscale>
<asrwt>0</asrwt>
<pdfrwt beam="1">  1        2 0.11807520E-02 0.78853132E+02</pdfrwt>
<pdfrwt beam="2">  1       -1 0.31159645E-01 0.78853132E+02</pdfrwt>
<totfact> 0.10293774E+05</totfact>
</mgrwt>
</event>
<event>
 8    1  0.7667702E-014  0.7833998E+02  0.7818608E-02  0.1333829E+00
         -1   -1    0    0    0  501 -0.00000000000E+00  0.00000000000E+00  0.56371680732E+02  0.56371680957E+02  0.50400000000E-02 0.  1.
          2   -1    0    0  501    0  0.00000000000E+00 -0.00000000000E+00 -0.27217352586E+02  0.27217352705E+02  0.25500000000E-02 0. -1.
         24    2    1    2    0    0 -0.71054273576E-14 -0.53290705182E-14  0.29154328146E+02  0.83589033662E+02  0.78339975101E+02 0.  0.
         66    2    3    3    0    0 -0.27637247755E+02 -0.12461743384E+02 -0.11834802144E+02  0.32606365258E+02  0.20000004896E+01 0.  0.
        -13    1    3    3    0    0  0.27637247755E+02  0.12461743384E+02  0.40989130290E+02  0.50982668404E+02  0.10566000000E+00 0.  1.
         13    1    4    4    0    0 -0.62087037193E+00 -0.16471113020E+00 -0.43326260983E+00  0.78197845228E+00  0.10566000000E+00 0.  1.
        -13    1    4    4    0    0 -0.50020830700E+01 -0.18037858424E+01 -0.17929845328E+01  0.56125249197E+01  0.10566000000E+00 0.  1.
         14    1    4    4    0    0 -0.22014294313E+02 -0.10493246412E+02 -0.96085550010E+01  0.26211861886E+02  0.00000000000E+00 0. -1.
<mgrwt>
<rscale>  0 0.78339975E+02</rscale>
<asrwt>0</asrwt>
<pdfrwt beam="1">  1        2 0.41872851E-02 0.78339975E+02</pdfrwt>
<pdfrwt beam="2">  1       -1 0.86725662E-02 0.78339975E+02</pdfrwt>
<totfact> 0.14001498E+05</totfact>
</mgrwt>
</event>
<event>
 8    1  0.7667702E-014  0.8224089E+02  0.7818608E-02  0.1322810E+00
          2   -1    0    0  501    0  0.00000000000E+00  0.00000000000E+00  0.90445021677E+03  0.90445021677E+03  0.25500000000E-02 0. -1.
         -1   -1    0    0    0  501 -0.00000000000E+00 -0.00000000000E+00 -0.18695202171E+01  0.18695270107E+01  0.50400000000E-02 0.  1.
         24    2    1    2    0    0  0.00000000000E+00  0.00000000000E+00  0.90258069655E+03  0.90631974378E+03  0.82240891187E+02 0.  0.
         66    2    3    3    0    0 -0.19205249255E+02 -0.63830734720E+01  0.84572323628E+03  0.84596771666E+03  0.20000029411E+01 0.  0.
        -13    1    3    3    0    0  0.19205249255E+02  0.63830734720E+01  0.56857460265E+02  0.60352027122E+02  0.10566000000E+00 0.  1.
         13    1    4    4    0    0 -0.11638033447E+02 -0.43224391487E+01  0.52780175041E+03  0.52794774950E+03  0.10566000000E+00 0. -1.
        -13    1    4    4    0    0 -0.12565007316E+01 -0.70109438005E+00  0.66184340798E+02  0.66200063885E+02  0.10566000000E+00 0.  1.
         14    1    4    4    0    0 -0.63107150766E+01 -0.13595399432E+01  0.25173714508E+03  0.25181990328E+03  0.00000000000E+00 0. -1.
<mgrwt>
<rscale>  0 0.82240891E+02</rscale>
<asrwt>0</asrwt>
<pdfrwt beam="1">  1        2 0.13914665E+00 0.82240891E+02</pdfrwt>
<pdfrwt beam="2">  1       -1 0.28761805E-03 0.82240891E+02</pdfrwt>
<totfact> 0.32541687E+05</totfact>
</mgrwt>
</event>
<event>
 8    1  0.7667702E-014  0.7827920E+02  0.7818608E-02  0.1334007E+00
          2   -1    0    0  501    0  0.00000000000E+00  0.00000000000E+00  0.74788220889E+03  0.74788220889E+03  0.25500000000E-02 0. -1.
         -1   -1    0    0    0  501 -0.00000000000E+00 -0.00000000000E+00 -0.20483249760E+01  0.20483311765E+01  0.50400000000E-02 0.  1.
         24    2    1    2    0    0  0.00000000000E+00  0.00000000000E+00  0.74583388391E+03  0.74993054007E+03  0.78279196066E+02 0.  0.
         66    2    3    3    0    0 -0.61409614962E+01  0.23669115535E+02  0.66562505174E+03  0.66607705857E+03  0.20000002263E+01 0.  0.
        -13    1    3    3    0    0  0.61409614962E+01 -0.23669115535E+02  0.80208832169E+02  0.83853481504E+02  0.10566000000E+00 0.  1.
         13    1    4    4    0    0 -0.15628733341E+01  0.73859589731E+01  0.18983864540E+03  0.18998872971E+03  0.10566000000E+00 0. -1.
        -13    1    4    4    0    0 -0.25432447633E+01  0.73135184140E+01  0.20885865046E+03  0.20900215952E+03  0.10566000000E+00 0.  1.
        -14    1    4    4    0    0 -0.20348433988E+01  0.89696381479E+01  0.26692775588E+03  0.26708616934E+03  0.00000000000E+00 0.  1.
<mgrwt>
<rscale>  0 0.78279196E+02</rscale>
<asrwt>0</asrwt>
<pdfrwt beam="1">  1        2 0.11505877E+00 0.78279196E+02</pdfrwt>
<pdfrwt beam="2">  1       -1 0.31512749E-03 0.78279196E+02</pdfrwt>
<totfact> 0.35903765E+05</totfact>
</mgrwt>
</event>
<event>
 8    1  0.7667702E-014  0.7708426E+02  0.7818608E-02  0.1337536E+00
          2   -1    0    0  501    0  0.00000000000E+00  0.00000000000E+00  0.15677337177E+03  0.15677337179E+03  0.25500000000E-02 0. -1.
         -1   -1    0    0    0  501 -0.00000000000E+00 -0.00000000000E+00 -0.94754329447E+01  0.94754342851E+01  0.50400000000E-02 0.  1.
         24    2    1    2    0    0 -0.35527136788E-14  0.00000000000E+00  0.14729793882E+03  0.16624880607E+03  0.77084257403E+02 0.  0.
         66    2    3    3    0    0  0.28237321195E+02 -0.11416075898E+02  0.12454467033E+03  0.12823044882E+03  0.19999999135E+01 0.  0.
        -13    1    3    3    0    0 -0.28237321195E+02  0.11416075898E+02  0.22753268495E+02  0.38018357256E+02  0.10566000000E+00 0.  1.
         13    1    4    4    0    0  0.74700698678E+01 -0.24237696161E+01  0.31551700244E+02  0.32514574506E+02  0.10566000000E+00 0. -1.
        -13    1    4    4    0    0  0.12176577625E+02 -0.56631784018E+01  0.57354519616E+02  0.58905795272E+02  0.10566000000E+00 0.  1.
        -14    1    4    4    0    0  0.85906737023E+01 -0.33291278807E+01  0.35638450466E+02  0.36810079037E+02  0.00000000000E+00 0.  1.
<mgrwt>
<rscale>  0 0.77084257E+02</rscale>
<asrwt>0</asrwt>
<pdfrwt beam="1">  1        2 0.24118982E-01 0.77084257E+02</pdfrwt>
<pdfrwt beam="2">  1       -1 0.14577589E-02 0.77084257E+02</pdfrwt>
<totfact> 0.22416247E+05</totfact>
</mgrwt>
</event>
<event>
 8    1  0.7667702E-014  0.7962293E+02  0.7818608E-02  0.1330125E+00
         -1   -1    0    0    0  501 -0.00000000000E+00  0.00000000000E+00  0.52411624390E+01  0.52411648623E+01  0.50400000000E-02 0.  1.
          2   -1    0    0  501    0  0.00000000000E+00 -0.00000000000E+00 -0.30240477043E+03  0.30240477044E+03  0.25500000000E-02 0. -1.
         24    2    1    2    0    0  0.00000000000E+00  0.00000000000E+00 -0.29716360799E+03  0.30764593530E+03  0.79622933846E+02 0.  0.
         66    2    3    3    0    0  0.13015889357E+02 -0.36979460947E+02 -0.17489614404E+03  0.17924718994E+03  0.19999977191E+01 0.  0.
        -13    1    3    3    0    0 -0.13015889357E+02  0.36979460947E+02 -0.12226746395E+03  0.12839874537E+03  0.10566000000E+00 0.  1.
         13    1    4    4    0    0  0.12206992013E+01 -0.31238529637E+01 -0.15823115417E+02  0.16175002609E+02  0.10566000000E+00 0. -1.
        -13    1    4    4    0    0  0.17694430467E+01 -0.71709325032E+01 -0.32450104899E+02  0.33280229471E+02  0.10566000000E+00 0. -1.
        -14    1    4    4    0    0  0.10025747109E+02 -0.26684675480E+02 -0.12662292373E+03  0.12979195786E+03  0.00000000000E+00 0.  1.
<mgrwt>
<rscale>  0 0.79622934E+02</rscale>
<asrwt>0</asrwt>
<pdfrwt beam="1">  1        2 0.46523797E-01 0.79622934E+02</pdfrwt>
<pdfrwt beam="2">  1       -1 0.80633311E-03 0.79622934E+02</pdfrwt>
<totfact> 0.25886839E+05</totfact>
</mgrwt>
</event>
<event>
 8    1  0.7667702E-014  0.8163979E+02  0.7818608E-02  0.1324461E+00
          2   -1    0    0  501    0  0.00000000000E+00  0.00000000000E+00  0.13938012685E+02  0.13938012918E+02  0.25500000000E-02 0. -1.
         -1   -1    0    0    0  501 -0.00000000000E+00 -0.00000000000E+00 -0.11954817121E+03  0.11954817131E+03  0.50400000000E-02 0.  1.
         24    2    1    2    0    0 -0.17763568394E-14  0.17763568394E-14 -0.10561015852E+03  0.13348618423E+03  0.81639792979E+02 0.  0.
         66    2    3    3    0    0 -0.13497899919E+02 -0.15056413502E+02  0.50955571500E+01  0.20948832493E+02  0.19999975975E+01 0.  0.
        -13    1    3    3    0    0  0.13497899919E+02  0.15056413502E+02 -0.11070571567E+03  0.11253735174E+03  0.10566000000E+00 0.  1.
         13    1    4    4    0    0 -0.70879961131E+01 -0.71923203080E+01  0.26972236117E+01  0.10452527903E+02  0.10566000000E+00 0. -1.
        -13    1    4    4    0    0 -0.17837266695E+01 -0.18167380103E+01  0.10865485012E+01  0.27701930457E+01  0.10566000000E+00 0.  1.
        -14    1    4    4    0    0 -0.46261771360E+01 -0.60473551842E+01  0.13117850372E+01  0.77261115447E+01  0.00000000000E+00 0.  1.
<mgrwt>
<rscale>  0 0.81639793E+02</rscale>
<asrwt>0</asrwt>
<pdfrwt beam="1">  1        2 0.21443098E-02 0.81639793E+02</pdfrwt>
<pdfrwt beam="2">  1       -1 0.18392026E-01 0.81639793E+02</pdfrwt>
<totfact> 0.10828571E+05</totfact>
</mgrwt>
</event>
<event>
 8    1  0.7667702E-014  0.7930076E+02  0.7818608E-02  0.1331048E+00
          2   -1    0    0  501    0  0.00000000000E+00  0.00000000000E+00  0.86358886251E+03  0.86358886252E+03  0.25500000000E-02 0. -1.
         -1   -1    0    0    0  501 -0.00000000000E+00 -0.00000000000E+00 -0.18204839919E+01  0.18204909685E+01  0.50400000000E-02 0.  1.
         24    2    1    2    0    0 -0.22204460493E-15  0.00000000000E+00  0.86176837852E+03  0.86540935348E+03  0.79300762172E+02 0.  0.
         66    2    3    3    0    0  0.18838185442E+01  0.21827498230E+02  0.79147819440E+03  0.79178388507E+03  0.19999993798E+01 0.  0.
        -13    1    3    3    0    0 -0.18838185442E+01 -0.21827498230E+02  0.70290184119E+02  0.73625468411E+02  0.10566000000E+00 0.  1.
         13    1    4    4    0    0  0.42082295944E+00  0.37688426539E+01  0.11246702430E+03  0.11253099123E+03  0.10566000000E+00 0. -1.
        -13    1    4    4    0    0  0.35847280756E+00  0.51467060569E+01  0.19534142524E+03  0.19540957158E+03  0.10566000000E+00 0. -1.
         14    1    4    4    0    0  0.11045227772E+01  0.12911949519E+02  0.48366974486E+03  0.48384332226E+03  0.00000000000E+00 0. -1.
<mgrwt>
<rscale>  0 0.79300762E+02</rscale>
<asrwt>0</asrwt>
<pdfrwt beam="1">  1        2 0.13285976E+00 0.79300762E+02</pdfrwt>
<pdfrwt beam="2">  1       -1 0.28007514E-03 0.79300762E+02</pdfrwt>
<totfact> 0.35572612E+05</totfact>
</mgrwt>
</event>
<event>
 8    1  0.7667702E-014  0.7938484E+02  0.7818608E-02  0.1330806E+00
          2   -1    0    0  501    0  0.00000000000E+00  0.00000000000E+00  0.96667230387E+02  0.96667230421E+02  0.25500000000E-02 0. -1.
         -1   -1    0    0    0  501 -0.00000000000E+00 -0.00000000000E+00 -0.16298059786E+02  0.16298060566E+02  0.50400000000E-02 0.  1.
         24    2    1    2    0    0  0.00000000000E+00 -0.35527136788E-14  0.80369170601E+02  0.11296529099E+03  0.79384843545E+02 0.  0.
         66    2    3    3    0    0  0.19923584095E+02 -0.24479960102E+02  0.74399722957E+02  0.80842664709E+02  0.20000028450E+01 0.  0.
        -13    1    3    3    0    0 -0.19923584095E+02  0.24479960102E+02  0.59694476439E+01  0.32122626278E+02  0.10566000000E+00 0.  1.
         13    1    4    4    0    0  0.45865440689E+01 -0.55207008264E+01  0.18104460128E+02  0.19475553000E+02  0.10566000000E+00 0. -1.
        -13    1    4    4    0    0  0.55648540562E+01 -0.65239339764E+01  0.18192486119E+02  0.20112360140E+02  0.10566000000E+00 0.  1.
        -14    1    4    4    0    0  0.97721859698E+01 -0.12435325299E+02  0.38102776711E+02  0.41254751569E+02  0.00000000000E+00 0.  1.
<mgrwt>
<rscale>  0 0.79384844E+02</rscale>
<asrwt>0</asrwt>
<pdfrwt beam="1">  1        2 0.14871881E-01 0.79384844E+02</pdfrwt>
<pdfrwt beam="2">  1       -1 0.25073939E-02 0.79384844E+02</pdfrwt>
<totfact> 0.17926576E+05</totfact>
</mgrwt>
</event>
<event>
 8    1  0.7667702E-014  0.7466112E+02  0.7818608E-02  0.1344924E+00
         -1   -1    0    0    0  501 -0.00000000000E+00  0.00000000000E+00  0.15394190900E+01  0.15394273404E+01  0.50400000000E-02 0.  1.
          2   -1    0    0  501    0  0.00000000000E+00 -0.00000000000E+00 -0.90525508631E+03  0.90525508631E+03  0.25500000000E-02 0. -1.
         24    2    1    2    0    0  0.00000000000E+00 -0.17763568394E-14 -0.90371566722E+03  0.90679451365E+03  0.74661119828E+02 0.  0.
         66    2    3    3    0    0 -0.13170620327E+02  0.14812627140E+02 -0.83600241970E+03  0.83623975324E+03  0.20000001577E+01 0.  0.
        -13    1    3    3    0    0  0.13170620327E+02 -0.14812627140E+02 -0.67713247517E+02  0.70554760406E+02  0.10566000000E+00 0.  1.
         13    1    4    4    0    0 -0.24597793696E+01  0.24005738353E+01 -0.15884909392E+03  0.15888630864E+03  0.10566000000E+00 0. -1.
        -13    1    4    4    0    0 -0.12662084550E+01  0.82935586055E+00 -0.65025511631E+02  0.65043212113E+02  0.10566000000E+00 0.  1.
         14    1    4    4    0    0 -0.94446325029E+01  0.11582697444E+02 -0.61212781415E+03  0.61231023249E+03  0.00000000000E+00 0. -1.
<mgrwt>
<rscale>  0 0.74661120E+02</rscale>
<asrwt>0</asrwt>
<pdfrwt beam="1">  1        2 0.13926959E+00 0.74661120E+02</pdfrwt>
<pdfrwt beam="2">  1       -1 0.23683507E-03 0.74661120E+02</pdfrwt>
<totfact> 0.41810846E+05</totfact>
</mgrwt>
</event>
<event>
 8    1  0.7667702E-014  0.8005260E+02  0.7818608E-02  0.1328902E+00
         -1   -1    0    0    0  501 -0.00000000000E+00  0.00000000000E+00  0.85384154909E+02  0.85384155058E+02  0.50400000000E-02 0.  1.
          2   -1    0    0  501    0  0.00000000000E+00 -0.00000000000E+00 -0.18763489354E+02  0.18763489527E+02  0.25500000000E-02 0. -1.
         24    2    1    2    0    0  0.00000000000E+00  0.00000000000E+00  0.66620665555E+02  0.10414764458E+03  0.80052600167E+02 0.  0.
         66    2    3    3    0    0 -0.14378317752E+02 -0.74971805761E+01 -0.14242427582E+02  0.21674650619E+02  0.19999995183E+01 0.  0.
        -13    1    3    3    0    0  0.14378317752E+02  0.74971805761E+01  0.80863093137E+02  0.82472993966E+02  0.10566000000E+00 0.  1.
         13    1    4    4    0    0 -0.95193392768E+00 -0.50919888303E+00 -0.13886075031E+01  0.17620603107E+01  0.10566000000E+00 0.  1.
        -13    1    4    4    0    0 -0.59682782466E+01 -0.39079243661E+01 -0.62737888257E+01  0.95007267272E+01  0.10566000000E+00 0.  1.
         14    1    4    4    0    0 -0.74581055776E+01 -0.30800573270E+01 -0.65800312530E+01  0.10411863581E+02  0.00000000000E+00 0. -1.
<mgrwt>
<rscale>  0 0.80052600E+02</rscale>
<asrwt>0</asrwt>
<pdfrwt beam="1">  1        2 0.28866908E-02 0.80052600E+02</pdfrwt>
<pdfrwt beam="2">  1       -1 0.13136024E-01 0.80052600E+02</pdfrwt>
<totfact> 0.12232164E+05</totfact>
</mgrwt>
</event>
<event>
 8    1  0.7667702E-014  0.8215867E+02  0.7818608E-02  0.1323035E+00
         -1   -1    0    0    0  501 -0.00000000000E+00  0.00000000000E+00  0.42581218533E+03  0.42581218536E+03  0.50400000000E-02 0.  1.
          2   -1    0    0  501    0  0.00000000000E+00 -0.00000000000E+00 -0.39630424525E+01  0.39630432729E+01  0.25500000000E-02 0. -1.
         24    2    1    2    0    0  0.00000000000E+00  0.17763568394E-14  0.42184914288E+03  0.42977522863E+03  0.82158674525E+02 0.  0.
         66    2    3    3    0    0 -0.36166292239E+02 -0.15250914469E+02  0.27402098807E+03  0.27682502234E+03  0.20000013647E+01 0.  0.
        -13    1    3    3    0    0  0.36166292239E+02  0.15250914469E+02  0.14782815481E+03  0.15295020629E+03  0.10566000000E+00 0.  1.
         13    1    4    4    0    0 -0.13178799557E+02 -0.55829714881E+01  0.96145136308E+02  0.97204674415E+02  0.10566000000E+00 0. -1.
        -13    1    4    4    0    0 -0.20889910198E+02 -0.89257358855E+01  0.16437796951E+03  0.16594030594E+03  0.10566000000E+00 0.  1.
         14    1    4    4    0    0 -0.20975824843E+01 -0.74220709558E+00  0.13497882243E+02  0.13680041984E+02  0.00000000000E+00 0. -1.
<mgrwt>
<rscale>  0 0.82158675E+02</rscale>
<asrwt>0</asrwt>
<pdfrwt beam="1">  1        2 0.60969917E-03 0.82158675E+02</pdfrwt>
<pdfrwt beam="2">  1       -1 0.65509538E-01 0.82158675E+02</pdfrwt>
<totfact> 0.68472433E+04</totfact>
</mgrwt>
</event>
<event>
 8    1  0.7667702E-014  0.8131782E+02  0.7818608E-02  0.1325353E+00
         -1   -1    0    0    0  501 -0.00000000000E+00  0.00000000000E+00  0.97424853718E+01  0.97424866754E+01  0.50400000000E-02 0.  1.
          2   -1    0    0  501    0  0.00000000000E+00 -0.00000000000E+00 -0.16968428311E+03  0.16968428313E+03  0.25500000000E-02 0. -1.
         24    2    1    2    0    0  0.00000000000E+00 -0.35527136788E-14 -0.15994179774E+03  0.17942676980E+03  0.81317815137E+02 0.  0.
         66    2    3    3    0    0 -0.23548185048E+02 -0.28659351363E+02 -0.11662731454E+03  0.12240018777E+03  0.20000075315E+01 0.  0.
        -13    1    3    3    0    0  0.23548185048E+02  0.28659351363E+02 -0.43314483198E+02  0.57026582033E+02  0.10566000000E+00 0.  1.
         13    1    4    4    0    0 -0.32529088239E+01 -0.45413536675E+01 -0.17859400158E+02  0.18712953989E+02  0.10566000000E+00 0. -1.
        -13    1    4    4    0    0 -0.69679911836E+01 -0.91524905340E+01 -0.37593987670E+02  0.39314629046E+02  0.10566000000E+00 0.  1.
        -14    1    4    4    0    0 -0.13327285040E+02 -0.14965507162E+02 -0.61173926711E+02  0.64372604735E+02  0.00000000000E+00 0.  1.
<mgrwt>
<rscale>  0 0.81317815E+02</rscale>
<asrwt>0</asrwt>
<pdfrwt beam="1">  1        2 0.26105272E-01 0.81317815E+02</pdfrwt>
<pdfrwt beam="2">  1       -1 0.14988441E-02 0.81317815E+02</pdfrwt>
<totfact> 0.19972890E+05</totfact>
</mgrwt>
</event>
<event>
 8    1  0.7667702E-014  0.7642564E+02  0.7818608E-02  0.1339512E+00
         -1   -1    0    0    0  501 -0.00000000000E+00  0.00000000000E+00  0.18760627338E+02  0.18760628015E+02  0.50400000000E-02 0.  1.
          2   -1    0    0  501    0  0.00000000000E+00 -0.00000000000E+00 -0.77834253545E+02  0.77834253587E+02  0.25500000000E-02 0. -1.
         24    2    1    2    0    0 -0.35527136788E-14 -0.35527136788E-14 -0.59073626207E+02  0.96594881602E+02  0.76425636003E+02 0.  0.
         66    2    3    3    0    0  0.21359083621E+02  0.29903395162E+02 -0.42679177858E+02  0.56355440800E+02  0.19999974614E+01 0.  0.
        -13    1    3    3    0    0 -0.21359083621E+02 -0.29903395162E+02 -0.16394448349E+02  0.40239440802E+02  0.10566000000E+00 0.  1.
         13    1    4    4    0    0  0.63485460373E+01  0.98869651592E+01 -0.13829724787E+02  0.18147412173E+02  0.10566000000E+00 0. -1.
        -13    1    4    4    0    0  0.17603927197E+01  0.19388227747E+01 -0.26072942594E+01  0.36969127214E+01  0.10566000000E+00 0.  1.
        -14    1    4    4    0    0  0.13250144864E+02  0.18077607228E+02 -0.26242158811E+02  0.34511115906E+02  0.00000000000E+00 0.  1.
<mgrwt>
<rscale>  0 0.76425636E+02</rscale>
<asrwt>0</asrwt>
<pdfrwt beam="1">  1        2 0.11974500E-01 0.76425636E+02</pdfrwt>
<pdfrwt beam="2">  1       -1 0.28862505E-02 0.76425636E+02</pdfrwt>
<totfact> 0.18748314E+05</totfact>
</mgrwt>
</event>
<event>
 8    1  0.7667702E-014  0.7756776E+02  0.7818608E-02  0.1336099E+00
         -1   -1    0    0    0  501 -0.00000000000E+00  0.00000000000E+00  0.75577198647E+02  0.75577198815E+02  0.50400000000E-02 0.  1.
          2   -1    0    0  501    0  0.00000000000E+00 -0.00000000000E+00 -0.19902686043E+02  0.19902686207E+02  0.25500000000E-02 0. -1.
         24    2    1    2    0    0  0.13877787808E-16  0.71054273576E-14  0.55674512604E+02  0.95479885022E+02  0.77567758058E+02 0.  0.
         66    2    3    3    0    0 -0.79446224238E-01  0.38300744316E+02  0.35161940316E+02  0.52031868810E+02  0.19999995270E+01 0.  0.
        -13    1    3    3    0    0  0.79446224238E-01 -0.38300744316E+02  0.20512572288E+02  0.43448016213E+02  0.10566000000E+00 0.  1.
         13    1    4    4    0    0  0.13819474275E+00  0.24955923284E+02  0.22005190845E+02  0.33272462983E+02  0.10566000000E+00 0. -1.
        -13    1    4    4    0    0 -0.30091842376E+00  0.53791998561E+01  0.57825272037E+01  0.79041209433E+01  0.10566000000E+00 0.  1.
        -14    1    4    4    0    0  0.83277456772E-01  0.79656211761E+01  0.73742222676E+01  0.10855284884E+02  0.00000000000E+00 0.  1.
<mgrwt>
<rscale>  0 0.77567758E+02</rscale>
<asrwt>0</asrwt>
<pdfrwt beam="1">  1        2 0.30619517E-02 0.77567758E+02</pdfrwt>
<pdfrwt beam="2">  1       -1 0.11627262E-01 0.77567758E+02</pdfrwt>
<totfact> 0.13550293E+05</totfact>
</mgrwt>
</event>
<event>
 8    1  0.7667702E-014  0.7946445E+02  0.7818608E-02  0.1330578E+00
         -1   -1    0    0    0  501 -0.00000000000E+00  0.00000000000E+00  0.56889725170E+01  0.56889747495E+01  0.50400000000E-02 0.  1.
          2   -1    0    0  501    0  0.00000000000E+00 -0.00000000000E+00 -0.27749288113E+03  0.27749288114E+03  0.25500000000E-02 0. -1.
         24    2    1    2    0    0  0.44408920985E-15  0.35527136788E-14 -0.27180390862E+03  0.28318185589E+03  0.79464449717E+02 0.  0.
         66    2    3    3    0    0 -0.33071022497E+01 -0.26972983071E+02 -0.23915878324E+03  0.24070604965E+03  0.19999993839E+01 0.  0.
        -13    1    3    3    0    0  0.33071022497E+01  0.26972983071E+02 -0.32645125376E+02  0.42475806241E+02  0.10566000000E+00 0.  1.
         13    1    4    4    0    0 -0.11785455879E+01 -0.74995458615E+01 -0.72123316854E+02  0.72521832271E+02  0.10566000000E+00 0. -1.
        -13    1    4    4    0    0 -0.57010501302E-01 -0.49837077219E+01 -0.43297999539E+02  0.43584039751E+02  0.10566000000E+00 0.  1.
         14    1    4    4    0    0 -0.20715461604E+01 -0.14489729487E+02 -0.12373746685E+03  0.12460017763E+03  0.00000000000E+00 0. -1.
<mgrwt>
<rscale>  0 0.79464450E+02</rscale>
<asrwt>0</asrwt>
<pdfrwt beam="1">  1        2 0.42691202E-01 0.79464450E+02</pdfrwt>
<pdfrwt beam="2">  1       -1 0.87522693E-03 0.79464450E+02</pdfrwt>
<totfact> 0.25224957E+05</totfact>
</mgrwt>
</event>
<event>
 8    1  0.7667702E-014  0.7967217E+02  0.7818608E-02  0.1329984E+00
          2   -1    0    0  501    0  0.00000000000E+00  0.00000000000E+00  0.30095008976E+03  0.30095008977E+03  0.25500000000E-02 0. -1.
         -1   -1    0    0    0  501 -0.00000000000E+00 -0.00000000000E+00 -0.52730117783E+01  0.52730141869E+01  0.50400000000E-02 0.  1.
         24    2    1    2    0    0  0.00000000000E+00  0.00000000000E+00  0.29567707798E+03  0.30622310396E+03  0.79672171764E+02 0.  0.
         66    2    3    3    0    0  0.13473669779E+02  0.37309231811E+02  0.16090315706E+03  0.16573275027E+03  0.20000008501E+01 0.  0.
        -13    1    3    3    0    0 -0.13473669779E+02 -0.37309231811E+02  0.13477392092E+03  0.14049035369E+03  0.10566000000E+00 0.  1.
         13    1    4    4    0    0  0.10710526010E+01  0.25990179437E+01  0.10260118316E+02  0.10638761199E+02  0.10566000000E+00 0. -1.
        -13    1    4    4    0    0  0.53671244675E+01  0.15470563048E+02  0.63923827437E+02  0.65987962723E+02  0.10566000000E+00 0.  1.
         14    1    4    4    0    0  0.70354927106E+01  0.19239650819E+02  0.86719211309E+02  0.89106026347E+02  0.00000000000E+00 0. -1.
<mgrwt>
<rscale>  0 0.79672172E+02</rscale>
<asrwt>0</asrwt>
<pdfrwt beam="1">  1        2 0.46300004E-01 0.79672172E+02</pdfrwt>
<pdfrwt beam="2">  1       -1 0.81123294E-03 0.79672172E+02</pdfrwt>
<totfact> 0.25799886E+05</totfact>
</mgrwt>
</event>
<event>
 8    1  0.7667702E-014  0.7806175E+02  0.7818608E-02  0.1334644E+00
         -1   -1    0    0    0  501 -0.00000000000E+00  0.00000000000E+00  0.14740825002E+03  0.14740825010E+03  0.50400000000E-02 0.  1.
          2   -1    0    0  501    0  0.00000000000E+00 -0.00000000000E+00 -0.10334626904E+02  0.10334627219E+02  0.25500000000E-02 0. -1.
         24    2    1    2    0    0  0.71054273576E-14 -0.35527136788E-14  0.13707362311E+03  0.15774287732E+03  0.78061752432E+02 0.  0.
         66    2    3    3    0    0 -0.24091440904E+02 -0.29776145353E+02  0.83484309772E+02  0.91872990233E+02  0.19999998170E+01 0.  0.
        -13    1    3    3    0    0  0.24091440904E+02  0.29776145353E+02  0.53589313342E+02  0.65869887091E+02  0.10566000000E+00 0.  1.
         13    1    4    4    0    0 -0.67855030737E+01 -0.85836171618E+01  0.22470531103E+02  0.24993148414E+02  0.10566000000E+00 0. -1.
        -13    1    4    4    0    0 -0.54449719628E+01 -0.69317639885E+01  0.18301842596E+02  0.20314174315E+02  0.10566000000E+00 0.  1.
        -14    1    4    4    0    0 -0.11860965868E+02 -0.14260764202E+02  0.42711936073E+02  0.46565667504E+02  0.00000000000E+00 0.  1.
<mgrwt>
<rscale>  0 0.78061752E+02</rscale>
<asrwt>0</asrwt>
<pdfrwt beam="1">  1        2 0.15899427E-02 0.78061752E+02</pdfrwt>
<pdfrwt beam="2">  1       -1 0.22678191E-01 0.78061752E+02</pdfrwt>
<totfact> 0.11527444E+05</totfact>
</mgrwt>
</event>
<event>
 8    1  0.7667702E-014  0.8025950E+02  0.7818608E-02  0.1328317E+00
          2   -1    0    0  501    0  0.00000000000E+00  0.00000000000E+00  0.22678925568E+02  0.22678925711E+02  0.25500000000E-02 0. -1.
         -1   -1    0    0    0  501 -0.00000000000E+00 -0.00000000000E+00 -0.71008510448E+02  0.71008510626E+02  0.50400000000E-02 0.  1.
         24    2    1    2    0    0 -0.35527136788E-14  0.00000000000E+00 -0.48329584879E+02  0.93687436338E+02  0.80259497587E+02 0.  0.
         66    2    3    3    0    0  0.24103673715E+02 -0.44154827554E+01  0.12879390005E+02  0.27755400536E+02  0.19999993713E+01 0.  0.
        -13    1    3    3    0    0 -0.24103673715E+02  0.44154827554E+01 -0.61208974884E+02  0.65932035802E+02  0.10566000000E+00 0.  1.
         13    1    4    4    0    0  0.10301898403E+02 -0.12976200865E+01  0.53845155997E+01  0.11696884238E+02  0.10566000000E+00 0.  1.
        -13    1    4    4    0    0  0.33149934642E+00  0.66144278119E-01  0.11372050991E+00  0.37197213898E+00  0.10566000000E+00 0. -1.
         14    1    4    4    0    0  0.13470275966E+02 -0.31840069470E+01  0.73811538951E+01  0.15686544160E+02  0.00000000000E+00 0. -1.
<mgrwt>
<rscale>  0 0.80259498E+02</rscale>
<asrwt>0</asrwt>
<pdfrwt beam="1">  1        2 0.34890655E-02 0.80259498E+02</pdfrwt>
<pdfrwt beam="2">  1       -1 0.10924386E-01 0.80259498E+02</pdfrwt>
<totfact> 0.12615457E+05</totfact>
</mgrwt>
</event>
<event>
 8    1  0.7667702E-014  0.8032587E+02  0.7818608E-02  0.1328129E+00
         -1   -1    0    0    0  501 -0.00000000000E+00  0.00000000000E+00  0.50425501261E+01  0.50425526448E+01  0.50400000000E-02 0.  1.
          2   -1    0    0  501    0  0.00000000000E+00 -0.00000000000E+00 -0.31988993421E+03  0.31988993422E+03  0.25500000000E-02 0. -1.
         24    2    1    2    0    0  0.35527136788E-14  0.35527136788E-14 -0.31484738408E+03  0.32493248686E+03  0.80325872269E+02 0.  0.
         66    2    3    3    0    0 -0.26036283053E+02 -0.21276839585E+02 -0.24618930862E+03  0.24848293207E+03  0.19999782541E+01 0.  0.
        -13    1    3    3    0    0  0.26036283053E+02  0.21276839585E+02 -0.68658075458E+02  0.76449554790E+02  0.10566000000E+00 0.  1.
         13    1    4    4    0    0 -0.17806084167E+02 -0.15123239205E+02 -0.16979962275E+03  0.17139921834E+03  0.10566000000E+00 0. -1.
        -13    1    4    4    0    0 -0.73277659030E+01 -0.53747077472E+01 -0.69495216502E+02  0.70086945412E+02  0.10566000000E+00 0.  1.
         14    1    4    4    0    0 -0.90243298347E+00 -0.77889263212E+00 -0.68944693743E+01  0.69967683236E+01  0.00000000000E+00 0. -1.
<mgrwt>
<rscale>  0 0.80325872E+02</rscale>
<asrwt>0</asrwt>
<pdfrwt beam="1">  1        2 0.49213820E-01 0.80325872E+02</pdfrwt>
<pdfrwt beam="2">  1       -1 0.77577739E-03 0.80325872E+02</pdfrwt>
<totfact> 0.25816563E+05</totfact>
</mgrwt>
</event>
<event>
 8    1  0.7667702E-014  0.7992613E+02  0.7818608E-02  0.1329261E+00
          2   -1    0    0  501    0  0.00000000000E+00  0.00000000000E+00  0.29798793633E+02  0.29798793742E+02  0.25500000000E-02 0. -1.
         -1   -1    0    0    0  501 -0.00000000000E+00 -0.00000000000E+00 -0.53594330807E+02  0.53594331044E+02  0.50400000000E-02 0.  1.
         24    2    1    2    0    0  0.35527136788E-14  0.35527136788E-14 -0.23795537175E+02  0.83393124786E+02  0.79926126342E+02 0.  0.
         66    2    3    3    0    0 -0.30544187047E+02 -0.24665931356E+02 -0.42602987176E+01  0.39541189394E+02  0.19999953691E+01 0.  0.
        -13    1    3    3    0    0  0.30544187047E+02  0.24665931356E+02 -0.19535238457E+02  0.43851935392E+02  0.10566000000E+00 0.  1.
         13    1    4    4    0    0 -0.11785879440E+02 -0.10671841984E+02 -0.20288798729E+01  0.16028807912E+02  0.10566000000E+00 0. -1.
        -13    1    4    4    0    0 -0.20796526056E+01 -0.15331093281E+01 -0.18288736634E+00  0.25922945427E+01  0.10566000000E+00 0.  1.
         14    1    4    4    0    0 -0.16678655002E+02 -0.12460980044E+02 -0.20485314783E+01  0.20920086939E+02  0.00000000000E+00 0. -1.
<mgrwt>
<rscale>  0 0.79926126E+02</rscale>
<asrwt>0</asrwt>
<pdfrwt beam="1">  1        2 0.45844298E-02 0.79926126E+02</pdfrwt>
<pdfrwt beam="2">  1       -1 0.82452817E-02 0.79926126E+02</pdfrwt>
<totfact> 0.13472214E+05</totfact>
</mgrwt>
</event>
<event>
 8    1  0.7667702E-014  0.7945063E+02  0.7818608E-02  0.1330618E+00
          2   -1    0    0  501    0  0.00000000000E+00  0.00000000000E+00  0.16406136834E+02  0.16406137033E+02  0.25500000000E-02 0. -1.
         -1   -1    0    0    0  501 -0.00000000000E+00 -0.00000000000E+00 -0.96189644746E+02  0.96189644878E+02  0.50400000000E-02 0.  1.
         24    2    1    2    0    0  0.00000000000E+00  0.00000000000E+00 -0.79783507911E+02  0.11259578191E+03  0.79450625985E+02 0.  0.
         66    2    3    3    0    0 -0.17731176259E+02 -0.19537868366E+02  0.21227158962E+01  0.26544845981E+02  0.20000033905E+01 0.  0.
        -13    1    3    3    0    0  0.17731176259E+02  0.19537868366E+02 -0.81906223808E+02  0.86050935929E+02  0.10566000000E+00 0.  1.
         13    1    4    4    0    0 -0.76054244831E+01 -0.90020921458E+01  0.92566542002E+00  0.11821512808E+02  0.10566000000E+00 0. -1.
        -13    1    4    4    0    0 -0.91074585137E+00 -0.15670291890E+01  0.15426096562E+00  0.18220864321E+01  0.10566000000E+00 0.  1.
         14    1    4    4    0    0 -0.92150059250E+01 -0.89687470313E+01  0.10427895106E+01  0.12901246741E+02  0.00000000000E+00 0. -1.
<mgrwt>
<rscale>  0 0.79450626E+02</rscale>
<asrwt>0</asrwt>
<pdfrwt beam="1">  1        2 0.25240211E-02 0.79450626E+02</pdfrwt>
<pdfrwt beam="2">  1       -1 0.14798407E-01 0.79450626E+02</pdfrwt>
<totfact> 0.12158210E+05</totfact>
</mgrwt>
</event>
<event>
 8    1  0.7667702E-014  0.7848616E+02  0.7818608E-02  0.1333403E+00
         -1   -1    0    0    0  501 -0.00000000000E+00  0.00000000000E+00  0.71198005551E+01  0.71198023390E+01  0.50400000000E-02 0.  1.
          2   -1    0    0  501    0  0.00000000000E+00 -0.00000000000E+00 -0.21630086350E+03  0.21630086351E+03  0.25500000000E-02 0. -1.
         24    2    1    2    0    0  0.00000000000E+00  0.35527136788E-14 -0.20918106294E+03  0.22342066585E+03  0.78486156969E+02 0.  0.
         66    2    3    3    0    0 -0.37206141132E+01 -0.22838203553E+02 -0.19479284456E+03  0.19617257412E+03  0.20000082123E+01 0.  0.
        -13    1    3    3    0    0  0.37206141132E+01  0.22838203553E+02 -0.14388218380E+02  0.27248091733E+02  0.10566000000E+00 0.  1.
         13    1    4    4    0    0 -0.20779232633E+01 -0.10473694218E+02 -0.96179126658E+02  0.96770096643E+02  0.10566000000E+00 0. -1.
        -13    1    4    4    0    0 -0.51505670436E+00 -0.66197981815E+01 -0.51415687128E+02  0.51842753189E+02  0.10566000000E+00 0.  1.
         14    1    4    4    0    0 -0.11276341455E+01 -0.57447111529E+01 -0.47198030774E+02  0.47559724284E+02  0.00000000000E+00 0. -1.
<mgrwt>
<rscale>  0 0.78486157E+02</rscale>
<asrwt>0</asrwt>
<pdfrwt beam="1">  1        2 0.33277051E-01 0.78486157E+02</pdfrwt>
<pdfrwt beam="2">  1       -1 0.10953542E-02 0.78486157E+02</pdfrwt>
<totfact> 0.23840697E+05</totfact>
</mgrwt>
</event>
<event>
 8    1  0.7667702E-014  0.7751010E+02  0.7818608E-02  0.1336270E+00
          2   -1    0    0  501    0  0.00000000000E+00  0.00000000000E+00  0.16901341714E+02  0.16901341906E+02  0.25500000000E-02 0. -1.
         -1   -1    0    0    0  501 -0.00000000000E+00 -0.00000000000E+00 -0.88865963191E+02  0.88865963334E+02  0.50400000000E-02 0.  1.
         24    2    1    2    0    0 -0.71054273576E-14 -0.17763568394E-14 -0.71964621477E+02  0.10576730524E+03  0.77510103299E+02 0.  0.
         66    2    3    3    0    0 -0.33218552058E+02 -0.15594207039E+02 -0.19111098741E+02  0.41423249387E+02  0.20000001863E+01 0.  0.
        -13    1    3    3    0    0  0.33218552058E+02  0.15594207039E+02 -0.52853522736E+02  0.64344055853E+02  0.10566000000E+00 0.  1.
         13    1    4    4    0    0 -0.86973345583E+01 -0.38648140379E+01 -0.42118143360E+01  0.10408215986E+02  0.10566000000E+00 0.  1.
        -13    1    4    4    0    0 -0.20224376963E+02 -0.10038130790E+02 -0.12134795603E+02  0.25633063056E+02  0.10566000000E+00 0. -1.
         14    1    4    4    0    0 -0.42968405367E+01 -0.16912622112E+01 -0.27644888018E+01  0.53819703455E+01  0.00000000000E+00 0. -1.
<mgrwt>
<rscale>  0 0.77510103E+02</rscale>
<asrwt>0</asrwt>
<pdfrwt beam="1">  1        2 0.26002065E-02 0.77510103E+02</pdfrwt>
<pdfrwt beam="2">  1       -1 0.13671686E-01 0.77510103E+02</pdfrwt>
<totfact> 0.13142717E+05</totfact>
</mgrwt>
</event>
<event>
 8    1  0.7667702E-014  0.8117232E+02  0.7818608E-02  0.1325757E+00
          2   -1    0    0  501    0  0.00000000000E+00  0.00000000000E+00  0.56949901305E+03  0.56949901306E+03  0.25500000000E-02 0. -1.
         -1   -1    0    0    0  501 -0.00000000000E+00 -0.00000000000E+00 -0.28924283437E+01  0.28924327348E+01  0.50400000000E-02 0.  1.
         24    2    1    2    0    0  0.00000000000E+00  0.00000000000E+00  0.56660658471E+03  0.57239144579E+03  0.81172319060E+02 0.  0.
         66    2    3    3    0    0  0.58329950241E+01 -0.11158125489E+02  0.55536740865E+03  0.55551371378E+03  0.20000027693E+01 0.  0.
        -13    1    3    3    0    0 -0.58329950241E+01  0.11158125489E+02  0.11239176056E+02  0.16877732011E+02  0.10566000000E+00 0.  1.
         13    1    4    4    0    0  0.23442696405E+01 -0.47145985437E+01  0.20645059905E+03  0.20651775723E+03  0.10566000000E+00 0. -1.
        -13    1    4    4    0    0  0.94700189459E+00 -0.94793120143E+00  0.51627958425E+02  0.51645451313E+02  0.10566000000E+00 0.  1.
        -14    1    4    4    0    0  0.25417234891E+01 -0.54955957435E+01  0.29728885118E+03  0.29735050524E+03  0.00000000000E+00 0.  1.
<mgrwt>
<rscale>  0 0.81172319E+02</rscale>
<asrwt>0</asrwt>
<pdfrwt beam="1">  1        2 0.87615279E-01 0.81172319E+02</pdfrwt>
<pdfrwt beam="2">  1       -1 0.44498908E-03 0.81172319E+02</pdfrwt>
<totfact> 0.30509946E+05</totfact>
</mgrwt>
</event>
<event>
 8    1  0.7667702E-014  0.7702130E+02  0.7818608E-02  0.1337724E+00
          2   -1    0    0  501    0  0.00000000000E+00  0.00000000000E+00  0.10431517582E+02  0.10431517894E+02  0.25500000000E-02 0. -1.
         -1   -1    0    0    0  501 -0.00000000000E+00 -0.00000000000E+00 -0.14217203350E+03  0.14217203359E+03  0.50400000000E-02 0.  1.
         24    2    1    2    0    0 -0.35527136788E-14  0.00000000000E+00 -0.13174051591E+03  0.15260355148E+03  0.77021298293E+02 0.  0.
         66    2    3    3    0    0  0.23230928423E+02  0.59910359875E+01 -0.62938273112E+01  0.24883344021E+02  0.19999999692E+01 0.  0.
        -13    1    3    3    0    0 -0.23230928423E+02 -0.59910359875E+01 -0.12544668860E+03  0.12772020746E+03  0.10566000000E+00 0.  1.
         13    1    4    4    0    0  0.46333221431E+01  0.90174895702E+00 -0.17730479470E+01  0.50433806441E+01  0.10566000000E+00 0. -1.
        -13    1    4    4    0    0  0.78683022784E+01  0.26897968769E+01 -0.16703019452E+01  0.84821141590E+01  0.10566000000E+00 0.  1.
        -14    1    4    4    0    0  0.10729304001E+02  0.23994901536E+01 -0.28504774190E+01  0.11357849218E+02  0.00000000000E+00 0.  1.
<mgrwt>
<rscale>  0 0.77021298E+02</rscale>
<asrwt>0</asrwt>
<pdfrwt beam="1">  1        2 0.16048490E-02 0.77021298E+02</pdfrwt>
<pdfrwt beam="2">  1       -1 0.21872619E-01 0.77021298E+02</pdfrwt>
<totfact> 0.12031860E+05</totfact>
</mgrwt>
</event>
<event>
 8    1  0.7667702E-014  0.8211926E+02  0.7818608E-02  0.1323143E+00
         -1   -1    0    0    0  501 -0.00000000000E+00  0.00000000000E+00  0.14353833703E+01  0.14353922186E+01  0.50400000000E-02 0.  1.
          2   -1    0    0  501    0  0.00000000000E+00 -0.00000000000E+00 -0.11745210493E+04  0.11745210493E+04  0.25500000000E-02 0. -1.
         24    2    1    2    0    0  0.00000000000E+00  0.35527136788E-14 -0.11730856660E+04  0.11759564415E+04  0.82119259289E+02 0.  0.
         66    2    3    3    0    0 -0.79376643973E+01  0.24711532531E+02 -0.10420398173E+04  0.10423649300E+04  0.20000003245E+01 0.  0.
        -13    1    3    3    0    0  0.79376643973E+01 -0.24711532531E+02 -0.13104584865E+03  0.13359151159E+03  0.10566000000E+00 0.  1.
         13    1    4    4    0    0 -0.25877356688E+01  0.62216368058E+01 -0.27314491841E+03  0.27322804167E+03  0.10566000000E+00 0. -1.
        -13    1    4    4    0    0 -0.29897663267E+00  0.24753563283E+01 -0.94108804751E+02  0.94141887976E+02  0.10566000000E+00 0.  1.
         14    1    4    4    0    0 -0.50509520959E+01  0.16014539396E+02 -0.67478609415E+03  0.67499500031E+03  0.00000000000E+00 0. -1.
<mgrwt>
<rscale>  0 0.82119259E+02</rscale>
<asrwt>0</asrwt>
<pdfrwt beam="1">  1        2 0.18069478E+00 0.82119259E+02</pdfrwt>
<pdfrwt beam="2">  1       -1 0.22082983E-03 0.82119259E+02</pdfrwt>
<totfact> 0.32805845E+05</totfact>
</mgrwt>
</event>
<event>
 8    1  0.7667702E-014  0.7905448E+02  0.7818608E-02  0.1331756E+00
         -1   -1    0    0    0  501 -0.00000000000E+00  0.00000000000E+00  0.11647778634E+02  0.11647779725E+02  0.50400000000E-02 0.  1.
          2   -1    0    0  501    0  0.00000000000E+00 -0.00000000000E+00 -0.13413739943E+03  0.13413739945E+03  0.25500000000E-02 0. -1.
         24    2    1    2    0    0  0.00000000000E+00  0.00000000000E+00 -0.12248962079E+03  0.14578517918E+03  0.79054482893E+02 0.  0.
         66    2    3    3    0    0 -0.68235476819E+01 -0.38111448151E+02 -0.75728662129E+02  0.85075693078E+02  0.20000004170E+01 0.  0.
        -13    1    3    3    0    0  0.68235476819E+01  0.38111448151E+02 -0.46760958664E+02  0.60709486099E+02  0.10566000000E+00 0.  1.
         13    1    4    4    0    0 -0.18190987077E+01 -0.78054473684E+01 -0.15178464625E+02  0.17164821035E+02  0.10566000000E+00 0. -1.
        -13    1    4    4    0    0 -0.20124111005E+01 -0.10569447193E+02 -0.19839442670E+02  0.22569396578E+02  0.10566000000E+00 0.  1.
        -14    1    4    4    0    0 -0.29920378736E+01 -0.19736553590E+02 -0.40710754833E+02  0.45341475465E+02  0.00000000000E+00 0.  1.
<mgrwt>
<rscale>  0 0.79054483E+02</rscale>
<asrwt>0</asrwt>
<pdfrwt beam="1">  1        2 0.20636522E-01 0.79054483E+02</pdfrwt>
<pdfrwt beam="2">  1       -1 0.17919661E-02 0.79054483E+02</pdfrwt>
<totfact> 0.19953925E+05</totfact>
</mgrwt>
</event>
<event>
 8    1  0.7667702E-014  0.8051978E+02  0.7818608E-02  0.1327583E+00
         -1   -1    0    0    0  501 -0.00000000000E+00  0.00000000000E+00  0.21559384917E+03  0.21559384923E+03  0.50400000000E-02 0.  1.
          2   -1    0    0  501    0  0.00000000000E+00 -0.00000000000E+00 -0.75181113784E+01  0.75181118108E+01  0.25500000000E-02 0. -1.
         24    2    1    2    0    0  0.00000000000E+00  0.00000000000E+00  0.20807573780E+03  0.22311196104E+03  0.80519777083E+02 0.  0.
         66    2    3    3    0    0 -0.29460078849E+02 -0.17177501274E+02  0.44938801988E+02  0.56448726392E+02  0.19999978325E+01 0.  0.
        -13    1    3    3    0    0  0.29460078849E+02  0.17177501274E+02  0.16313693581E+03  0.16666323465E+03  0.10566000000E+00 0.  1.
         13    1    4    4    0    0 -0.19716004411E+02 -0.11317243742E+02  0.28554336755E+02  0.36498796520E+02  0.10566000000E+00 0. -1.
        -13    1    4    4    0    0 -0.15737270484E+01 -0.11256472268E+01  0.28981882829E+01  0.34863100638E+01  0.10566000000E+00 0.  1.
         14    1    4    4    0    0 -0.81703473893E+01 -0.47346103057E+01  0.13486276951E+02  0.16463619808E+02  0.00000000000E+00 0. -1.
<mgrwt>
<rscale>  0 0.80519777E+02</rscale>
<asrwt>0</asrwt>
<pdfrwt beam="1">  1        2 0.11566326E-02 0.80519777E+02</pdfrwt>
<pdfrwt beam="2">  1       -1 0.33168285E-01 0.80519777E+02</pdfrwt>
<totfact> 0.95717871E+04</totfact>
</mgrwt>
</event>
<event>
 8    1  0.7667702E-014  0.8058885E+02  0.7818608E-02  0.1327389E+00
          2   -1    0    0  501    0  0.00000000000E+00  0.00000000000E+00  0.27297117527E+03  0.27297117529E+03  0.25500000000E-02 0. -1.
         -1   -1    0    0    0  501 -0.00000000000E+00 -0.00000000000E+00 -0.59480284172E+01  0.59480305525E+01  0.50400000000E-02 0.  1.
         24    2    1    2    0    0  0.00000000000E+00  0.35527136788E-14  0.26702314686E+03  0.27891920584E+03  0.80588848039E+02 0.  0.
         66    2    3    3    0    0 -0.36531639694E+02  0.16561039627E+02  0.14597941708E+03  0.15140283664E+03  0.19999995248E+01 0.  0.
        -13    1    3    3    0    0  0.36531639694E+02 -0.16561039627E+02  0.12104372977E+03  0.12751636920E+03  0.10566000000E+00 0.  1.
         13    1    4    4    0    0 -0.12642192753E+02  0.54857241627E+01  0.48720836710E+02  0.50632492542E+02  0.10566000000E+00 0. -1.
        -13    1    4    4    0    0 -0.18881019161E+02  0.88602628540E+01  0.79140994517E+02  0.81843175156E+02  0.10566000000E+00 0.  1.
        -14    1    4    4    0    0 -0.50084277803E+01  0.22150526099E+01  0.18117585855E+02  0.18927168941E+02  0.00000000000E+00 0.  1.
<mgrwt>
<rscale>  0 0.80588848E+02</rscale>
<asrwt>0</asrwt>
<pdfrwt beam="1">  1        2 0.41995576E-01 0.80588848E+02</pdfrwt>
<pdfrwt beam="2">  1       -1 0.91508124E-03 0.80588848E+02</pdfrwt>
<totfact> 0.24167300E+05</totfact>
</mgrwt>
</event>
<event>
 8    1  0.7667702E-014  0.7996684E+02  0.7818608E-02  0.1329146E+00
          2   -1    0    0  501    0  0.00000000000E+00  0.00000000000E+00  0.41867481541E+02  0.41867481618E+02  0.25500000000E-02 0. -1.
         -1   -1    0    0    0  501 -0.00000000000E+00 -0.00000000000E+00 -0.38184140543E+02  0.38184140876E+02  0.50400000000E-02 0.  1.
         24    2    1    2    0    0  0.00000000000E+00  0.17763568394E-14  0.36833409976E+01  0.80051622494E+02  0.79966838521E+02 0.  0.
         66    2    3    3    0    0 -0.36269479105E+02 -0.15173295367E+02  0.89893552472E+01  0.40379605175E+02  0.19999998723E+01 0.  0.
        -13    1    3    3    0    0  0.36269479105E+02  0.15173295367E+02 -0.53060142496E+01  0.39672017319E+02  0.10566000000E+00 0.  1.
         13    1    4    4    0    0 -0.27626341132E+02 -0.12435484998E+02  0.68129621760E+01  0.31052916596E+02  0.10566000000E+00 0. -1.
        -13    1    4    4    0    0 -0.22560269526E+01 -0.75601710463E+00  0.56227080922E+00  0.24471477217E+01  0.10566000000E+00 0. -1.
         14    1    4    4    0    0 -0.63871110206E+01 -0.19817932644E+01  0.16141222619E+01  0.68795408574E+01  0.00000000000E+00 0. -1.
<mgrwt>
<rscale>  0 0.79966839E+02</rscale>
<asrwt>0</asrwt>
<pdfrwt beam="1">  1        2 0.64411510E-02 0.79966839E+02</pdfrwt>
<pdfrwt beam="2">  1       -1 0.58744832E-02 0.79966839E+02</pdfrwt>
<totfact> 0.14406663E+05</totfact>
</mgrwt>
</event>
<event>
 8    1  0.7667702E-014  0.8020805E+02  0.7818608E-02  0.1328462E+00
          2   -1    0    0  501    0  0.00000000000E+00  0.00000000000E+00  0.38839387329E+03  0.38839387330E+03  0.25500000000E-02 0. -1.
         -1   -1    0    0    0  501 -0.00000000000E+00 -0.00000000000E+00 -0.41409828423E+01  0.41409859094E+01  0.50400000000E-02 0.  1.
         24    2    1    2    0    0 -0.11102230246E-15 -0.17763568394E-14  0.38425289045E+03  0.39253485921E+03  0.80208053684E+02 0.  0.
         66    2    3    3    0    0 -0.50270040795E+00  0.11739777726E+02  0.37977122257E+03  0.37995823010E+03  0.20000106394E+01 0.  0.
        -13    1    3    3    0    0  0.50270040795E+00 -0.11739777726E+02  0.44816678858E+01  0.12576629112E+02  0.10566000000E+00 0.  1.
         13    1    4    4    0    0 -0.18901137101E+00  0.50515793955E+01  0.16415192571E+03  0.16422977824E+03  0.10566000000E+00 0. -1.
        -13    1    4    4    0    0 -0.78376999983E+00  0.20105238219E+01  0.67516386703E+02  0.67550944767E+02  0.10566000000E+00 0.  1.
        -14    1    4    4    0    0  0.47008096289E+00  0.46776745082E+01  0.14810291015E+03  0.14817750710E+03  0.00000000000E+00 0.  1.
<mgrwt>
<rscale>  0 0.80208054E+02</rscale>
<asrwt>0</asrwt>
<pdfrwt beam="1">  1        2 0.59752892E-01 0.80208054E+02</pdfrwt>
<pdfrwt beam="2">  1       -1 0.63707465E-03 0.80208054E+02</pdfrwt>
<totfact> 0.27774040E+05</totfact>
</mgrwt>
</event>
<event>
 8    1  0.7667702E-014  0.7967124E+02  0.7818608E-02  0.1329987E+00
          2   -1    0    0  501    0  0.00000000000E+00  0.00000000000E+00  0.85750409581E+01  0.85750413373E+01  0.25500000000E-02 0. -1.
         -1   -1    0    0    0  501 -0.00000000000E+00 -0.00000000000E+00 -0.18505759664E+03  0.18505759671E+03  0.50400000000E-02 0.  1.
         24    2    1    2    0    0  0.00000000000E+00  0.35527136788E-14 -0.17648255568E+03  0.19363263805E+03  0.79671237323E+02 0.  0.
         66    2    3    3    0    0  0.28813256361E+02  0.22457799574E+02 -0.49844594823E+02  0.61830738218E+02  0.20000129213E+01 0.  0.
        -13    1    3    3    0    0 -0.28813256361E+02 -0.22457799574E+02 -0.12663796086E+03  0.13180189983E+03  0.10566000000E+00 0.  1.
         13    1    4    4    0    0  0.18661386946E+01  0.19477664584E+01 -0.41967523637E+01  0.49900062366E+01  0.10566000000E+00 0.  1.
        -13    1    4    4    0    0  0.15547796562E+02  0.11554951422E+02 -0.25828779211E+02  0.32286032272E+02  0.10566000000E+00 0. -1.
        -14    1    4    4    0    0  0.11399321104E+02  0.89550816938E+01 -0.19819063249E+02  0.24554699710E+02  0.00000000000E+00 0.  1.
<mgrwt>
<rscale>  0 0.79671237E+02</rscale>
<asrwt>0</asrwt>
<pdfrwt beam="1">  1        2 0.13192372E-02 0.79671237E+02</pdfrwt>
<pdfrwt beam="2">  1       -1 0.28470397E-01 0.79671237E+02</pdfrwt>
<totfact> 0.10298572E+05</totfact>
</mgrwt>
</event>
<event>
 8    1  0.7667702E-014  0.8000143E+02  0.7818608E-02  0.1329047E+00
          2   -1    0    0  501    0  0.00000000000E+00  0.00000000000E+00  0.43046059903E+03  0.43046059904E+03  0.25500000000E-02 0. -1.
         -1   -1    0    0    0  501 -0.00000000000E+00 -0.00000000000E+00 -0.37170797401E+01  0.37170831570E+01  0.50400000000E-02 0.  1.
         24    2    1    2    0    0  0.00000000000E+00 -0.71054273576E-14  0.42674351929E+03  0.43417768220E+03  0.80001427862E+02 0.  0.
         66    2    3    3    0    0 -0.53248261457E+01  0.39599947438E+02  0.20676429128E+03  0.21059910198E+03  0.19999990088E+01 0.  0.
        -13    1    3    3    0    0  0.53248261457E+01 -0.39599947438E+02  0.21997922801E+03  0.22357858022E+03  0.10566000000E+00 0.  1.
         13    1    4    4    0    0 -0.31320472624E+01  0.21529430341E+02  0.10957848580E+03  0.11171741943E+03  0.10566000000E+00 0. -1.
        -13    1    4    4    0    0 -0.76497885282E+00  0.39973598225E+01  0.19938494615E+02  0.20349909331E+02  0.10566000000E+00 0.  1.
        -14    1    4    4    0    0 -0.14278000305E+01  0.14073157275E+02  0.77247310864E+02  0.78531773215E+02  0.00000000000E+00 0.  1.
<mgrwt>
<rscale>  0 0.80001428E+02</rscale>
<asrwt>0</asrwt>
<pdfrwt beam="1">  1        2 0.66224686E-01 0.80001428E+02</pdfrwt>
<pdfrwt beam="2">  1       -1 0.57185887E-03 0.80001428E+02</pdfrwt>
<totfact> 0.28978226E+05</totfact>
</mgrwt>
</event>
<event>
 8    1  0.7667702E-014  0.7679549E+02  0.7818608E-02  0.1338399E+00
          2   -1    0    0  501    0  0.00000000000E+00  0.00000000000E+00  0.45706563373E+03  0.45706563374E+03  0.25500000000E-02 0. -1.
         -1   -1    0    0    0  501 -0.00000000000E+00 -0.00000000000E+00 -0.32257644414E+01  0.32257683787E+01  0.50400000000E-02 0.  1.
         24    2    1    2    0    0 -0.71054273576E-14  0.00000000000E+00  0.45383986929E+03  0.46029140212E+03  0.76795494047E+02 0.  0.
         66    2    3    3    0    0  0.33904697799E+02  0.77639839408E+01  0.32419663016E+03  0.32606328064E+03  0.19999986103E+01 0.  0.
        -13    1    3    3    0    0 -0.33904697799E+02 -0.77639839408E+01  0.12964323913E+03  0.13422812148E+03  0.10566000000E+00 0.  1.
         13    1    4    4    0    0  0.28370025154E+02  0.66466649323E+01  0.27584298732E+03  0.27737772315E+03  0.10566000000E+00 0. -1.
        -13    1    4    4    0    0  0.42665631091E+01  0.72823599995E+00  0.38627008013E+02  0.38868892453E+02  0.10566000000E+00 0.  1.
        -14    1    4    4    0    0  0.12681095361E+01  0.38908300855E+00  0.97266348264E+01  0.98166650360E+01  0.00000000000E+00 0.  1.
<mgrwt>
<rscale>  0 0.76795494E+02</rscale>
<asrwt>0</asrwt>
<pdfrwt beam="1">  1        2 0.70317750E-01 0.76795494E+02</pdfrwt>
<pdfrwt beam="2">  1       -1 0.49627204E-03 0.76795494E+02</pdfrwt>
<totfact> 0.32892910E+05</totfact>
</mgrwt>
</event>
<event>
 8    1  0.7667702E-014  0.7954762E+02  0.7818608E-02  0.1330340E+00
          2   -1    0    0  501    0  0.00000000000E+00  0.00000000000E+00  0.53687826790E+03  0.53687826791E+03  0.25500000000E-02 0. -1.
         -1   -1    0    0    0  501 -0.00000000000E+00 -0.00000000000E+00 -0.29465800764E+01  0.29465843867E+01  0.50400000000E-02 0.  1.
         24    2    1    2    0    0  0.00000000000E+00  0.00000000000E+00  0.53393168782E+03  0.53982485229E+03  0.79547620271E+02 0.  0.
         66    2    3    3    0    0 -0.51553942536E+01 -0.15776518456E+02  0.51223421486E+03  0.51250694386E+03  0.19999998096E+01 0.  0.
        -13    1    3    3    0    0  0.51553942536E+01  0.15776518456E+02  0.21697472961E+02  0.27317908438E+02  0.10566000000E+00 0.  1.
         13    1    4    4    0    0 -0.13810003100E+01 -0.47259785584E+01  0.13055553605E+03  0.13064838764E+03  0.10566000000E+00 0. -1.
        -13    1    4    4    0    0 -0.23979724275E+01 -0.71752017531E+01  0.26209087411E+03  0.26220005958E+03  0.10566000000E+00 0.  1.
        -14    1    4    4    0    0 -0.13764215160E+01 -0.38753381440E+01  0.11958780471E+03  0.11965849664E+03  0.00000000000E+00 0.  1.
<mgrwt>
<rscale>  0 0.79547620E+02</rscale>
<asrwt>0</asrwt>
<pdfrwt beam="1">  1        2 0.82596739E-01 0.79547620E+02</pdfrwt>
<pdfrwt beam="2">  1       -1 0.45331989E-03 0.79547620E+02</pdfrwt>
<totfact> 0.31597739E+05</totfact>
</mgrwt>
</event>
<event>
 8    1  0.7667702E-014  0.7969148E+02  0.7818608E-02  0.1329929E+00
          2   -1    0    0  501    0  0.00000000000E+00  0.00000000000E+00  0.12891353178E+03  0.12891353181E+03  0.25500000000E-02 0. -1.
         -1   -1    0    0    0  501 -0.00000000000E+00 -0.00000000000E+00 -0.12315876100E+02  0.12315877131E+02  0.50400000000E-02 0.  1.
         24    2    1    2    0    0  0.17763568394E-14  0.00000000000E+00  0.11659765568E+03  0.14122940894E+03  0.79691484102E+02 0.  0.
         66    2    3    3    0    0 -0.12305434475E+02 -0.15219470019E+02  0.11979336204E+03  0.12139812838E+03  0.20000001444E+01 0.  0.
        -13    1    3    3    0    0  0.12305434475E+02  0.15219470019E+02 -0.31957063586E+01  0.19831280555E+02  0.10566000000E+00 0.  1.
         13    1    4    4    0    0 -0.69354523576E+01 -0.83466398480E+01  0.60841409373E+02  0.61801740710E+02  0.10566000000E+00 0. -1.
        -13    1    4    4    0    0 -0.35123960881E+01 -0.48581032952E+01  0.39575536208E+02  0.40027144841E+02  0.10566000000E+00 0.  1.
         14    1    4    4    0    0 -0.18575860291E+01 -0.20147268762E+01  0.19376416461E+02  0.19569242834E+02  0.00000000000E+00 0. -1.
<mgrwt>
<rscale>  0 0.79691484E+02</rscale>
<asrwt>0</asrwt>
<pdfrwt beam="1">  1        2 0.19832850E-01 0.79691484E+02</pdfrwt>
<pdfrwt beam="2">  1       -1 0.18947503E-02 0.79691484E+02</pdfrwt>
<totfact> 0.19294574E+05</totfact>
</mgrwt>
</event>
<event>
 8    1  0.7667702E-014  0.7967429E+02  0.7818608E-02  0.1329978E+00
         -1   -1    0    0    0  501 -0.00000000000E+00  0.00000000000E+00  0.71543916520E+01  0.71543934273E+01  0.50400000000E-02 0.  1.
          2   -1    0    0  501    0  0.00000000000E+00 -0.00000000000E+00 -0.22182152059E+03  0.22182152060E+03  0.25500000000E-02 0. -1.
         24    2    1    2    0    0  0.35527136788E-14  0.17763568394E-14 -0.21466712894E+03  0.22897591403E+03  0.79674292970E+02 0.  0.
         66    2    3    3    0    0  0.18959145825E+02 -0.13359557370E+02 -0.20039581081E+03  0.20174342115E+03  0.20000004850E+01 0.  0.
        -13    1    3    3    0    0 -0.18959145825E+02  0.13359557370E+02 -0.14271318125E+02  0.27232492883E+02  0.10566000000E+00 0.  1.
         13    1    4    4    0    0  0.26516490858E+01 -0.24525348295E+01 -0.27456418070E+02  0.27693180158E+02  0.10566000000E+00 0. -1.
        -13    1    4    4    0    0  0.12258154736E+01 -0.10080977553E+01 -0.14743975914E+02  0.14829527115E+02  0.10566000000E+00 0.  1.
         14    1    4    4    0    0  0.15081681266E+02 -0.98989247856E+01 -0.15819541683E+03  0.15922071388E+03  0.00000000000E+00 0. -1.
<mgrwt>
<rscale>  0 0.79674293E+02</rscale>
<asrwt>0</asrwt>
<pdfrwt beam="1">  1        2 0.34126383E-01 0.79674293E+02</pdfrwt>
<pdfrwt beam="2">  1       -1 0.11006759E-02 0.79674293E+02</pdfrwt>
<totfact> 0.23120790E+05</totfact>
</mgrwt>
</event>
<event>
 8    1  0.7667702E-014  0.7847005E+02  0.7818608E-02  0.1333450E+00
          2   -1    0    0  501    0  0.00000000000E+00  0.00000000000E+00  0.14483054721E+03  0.14483054723E+03  0.25500000000E-02 0. -1.
         -1   -1    0    0    0  501 -0.00000000000E+00 -0.00000000000E+00 -0.10628883255E+02  0.10628884450E+02  0.50400000000E-02 0.  1.
         24    2    1    2    0    0  0.00000000000E+00  0.00000000000E+00  0.13420166395E+03  0.15545943168E+03  0.78470047093E+02 0.  0.
         66    2    3    3    0    0  0.11250156744E+02 -0.34409351119E+02  0.96980727705E+02  0.10353661656E+03  0.19999876810E+01 0.  0.
        -13    1    3    3    0    0 -0.11250156744E+02  0.34409351119E+02  0.37220936250E+02  0.51922815125E+02  0.10566000000E+00 0.  1.
         13    1    4    4    0    0  0.36813181350E+01 -0.10126369917E+02  0.30963744193E+02  0.32785058936E+02  0.10566000000E+00 0.  1.
        -13    1    4    4    0    0  0.41851095499E+00 -0.13324667365E+01  0.32573216691E+01  0.35456914015E+01  0.10566000000E+00 0. -1.
         14    1    4    4    0    0  0.71503276537E+01 -0.22950514466E+02  0.62759661842E+02  0.67205866220E+02  0.00000000000E+00 0. -1.
<mgrwt>
<rscale>  0 0.78470047E+02</rscale>
<asrwt>0</asrwt>
<pdfrwt beam="1">  1        2 0.22281621E-01 0.78470047E+02</pdfrwt>
<pdfrwt beam="2">  1       -1 0.16352130E-02 0.78470047E+02</pdfrwt>
<totfact> 0.20847025E+05</totfact>
</mgrwt>
</event>
<event>
 8    1  0.7667702E-014  0.8260965E+02  0.7818608E-02  0.1321805E+00
         -1   -1    0    0    0  501 -0.00000000000E+00  0.00000000000E+00  0.22646957066E+02  0.22646957627E+02  0.50400000000E-02 0.  1.
          2   -1    0    0  501    0  0.00000000000E+00 -0.00000000000E+00 -0.75334116181E+02  0.75334116224E+02  0.25500000000E-02 0. -1.
         24    2    1    2    0    0  0.00000000000E+00  0.00000000000E+00 -0.52687159115E+02  0.97981073851E+02  0.82609648937E+02 0.  0.
         66    2    3    3    0    0 -0.13717853140E+02  0.65846160482E+01 -0.71873079602E+02  0.73493375465E+02  0.20000006204E+01 0.  0.
        -13    1    3    3    0    0  0.13717853140E+02 -0.65846160482E+01  0.19185920487E+02  0.24487698386E+02  0.10566000000E+00 0.  1.
         13    1    4    4    0    0 -0.61663973401E+01  0.25500812800E+01 -0.33263538513E+02  0.33926413443E+02  0.10566000000E+00 0. -1.
        -13    1    4    4    0    0 -0.52288556724E+00  0.42541776153E+00 -0.46892524516E+01  0.47386329440E+01  0.10566000000E+00 0.  1.
        -14    1    4    4    0    0 -0.70285702332E+01  0.36091170066E+01 -0.33920288638E+02  0.34828329078E+02  0.00000000000E+00 0.  1.
<mgrwt>
<rscale>  0 0.82609649E+02</rscale>
<asrwt>0</asrwt>
<pdfrwt beam="1">  1        2 0.11589864E-01 0.82609649E+02</pdfrwt>
<pdfrwt beam="2">  1       -1 0.34841473E-02 0.82609649E+02</pdfrwt>
<totfact> 0.15074681E+05</totfact>
</mgrwt>
</event>
<event>
 8    1  0.7667702E-014  0.7918085E+02  0.7818608E-02  0.1331392E+00
         -1   -1    0    0    0  501 -0.00000000000E+00  0.00000000000E+00  0.49058024247E+02  0.49058024506E+02  0.50400000000E-02 0.  1.
          2   -1    0    0  501    0  0.00000000000E+00 -0.00000000000E+00 -0.31949953378E+02  0.31949953480E+02  0.25500000000E-02 0. -1.
         24    2    1    2    0    0  0.00000000000E+00  0.71054273576E-14  0.17108070869E+02  0.81007977985E+02  0.79180846222E+02 0.  0.
         66    2    3    3    0    0 -0.19071970811E+01 -0.38650775756E+02  0.16988326976E+02  0.42309846636E+02  0.20000004104E+01 0.  0.
        -13    1    3    3    0    0  0.19071970811E+01  0.38650775756E+02  0.11974389295E+00  0.38698131349E+02  0.10566000000E+00 0.  1.
         13    1    4    4    0    0 -0.35513865108E+00 -0.63997966778E+01  0.30386656439E+01  0.70942352590E+01  0.10566000000E+00 0. -1.
        -13    1    4    4    0    0 -0.38702045286E+00 -0.10300676059E+02  0.53286205250E+01  0.11604269595E+02  0.10566000000E+00 0.  1.
        -14    1    4    4    0    0 -0.11650379772E+01 -0.21950303020E+02  0.86210408071E+01  0.23611341782E+02  0.00000000000E+00 0.  1.
<mgrwt>
<rscale>  0 0.79180846E+02</rscale>
<asrwt>0</asrwt>
<pdfrwt beam="1">  1        2 0.49153775E-02 0.79180846E+02</pdfrwt>
<pdfrwt beam="2">  1       -1 0.75473883E-02 0.79180846E+02</pdfrwt>
<totfact> 0.14021031E+05</totfact>
</mgrwt>
</event>
<event>
 8    1  0.7667702E-014  0.8139126E+02  0.7818608E-02  0.1325149E+00
         -1   -1    0    0    0  501 -0.00000000000E+00  0.00000000000E+00  0.31383004596E+02  0.31383005001E+02  0.50400000000E-02 0.  1.
          2   -1    0    0  501    0  0.00000000000E+00 -0.00000000000E+00 -0.52771694032E+02  0.52771694094E+02  0.25500000000E-02 0. -1.
         24    2    1    2    0    0  0.00000000000E+00  0.00000000000E+00 -0.21388689436E+02  0.84154699095E+02  0.81391260858E+02 0.  0.
         66    2    3    3    0    0 -0.32383070044E+01  0.21779176423E+02 -0.46056974465E+02  0.51088786009E+02  0.20000002846E+01 0.  0.
        -13    1    3    3    0    0  0.32383070044E+01 -0.21779176423E+02  0.24668285029E+02  0.33065913086E+02  0.10566000000E+00 0.  1.
         13    1    4    4    0    0 -0.76438643841E+00  0.45643005602E+01 -0.11457066116E+02  0.12356886916E+02  0.10566000000E+00 0. -1.
        -13    1    4    4    0    0 -0.14053594101E+01  0.11705657033E+02 -0.23872213757E+02  0.26625010710E+02  0.10566000000E+00 0.  1.
        -14    1    4    4    0    0 -0.10685611559E+01  0.55092188297E+01 -0.10727694592E+02  0.12106888383E+02  0.00000000000E+00 0.  1.
<mgrwt>
<rscale>  0 0.81391261E+02</rscale>
<asrwt>0</asrwt>
<pdfrwt beam="1">  1        2 0.81187222E-02 0.81391261E+02</pdfrwt>
<pdfrwt beam="2">  1       -1 0.48281546E-02 0.81391261E+02</pdfrwt>
<totfact> 0.14424010E+05</totfact>
</mgrwt>
</event>
<event>
 8    1  0.7667702E-014  0.7003761E+02  0.7818608E-02  0.1359965E+00
          2   -1    0    0  501    0  0.00000000000E+00  0.00000000000E+00  0.41773463510E+03  0.41773463511E+03  0.25500000000E-02 0. -1.
         -1   -1    0    0    0  501 -0.00000000000E+00 -0.00000000000E+00 -0.29356333638E+01  0.29356376902E+01  0.50400000000E-02 0.  1.
         24    2    1    2    0    0  0.00000000000E+00 -0.17763568394E-14  0.41479900174E+03  0.42067027280E+03  0.70037608287E+02 0.  0.
         66    2    3    3    0    0 -0.10726801451E+02 -0.11828298571E+02  0.39457105622E+03  0.39489909005E+03  0.19999994409E+01 0.  0.
        -13    1    3    3    0    0  0.10726801451E+02  0.11828298571E+02  0.20227945512E+02  0.25771182746E+02  0.10566000000E+00 0.  1.
         13    1    4    4    0    0 -0.11996616954E+01 -0.13738197022E+01  0.52698741829E+02  0.52730400369E+02  0.10566000000E+00 0. -1.
        -13    1    4    4    0    0 -0.61899038927E+00 -0.43438537710E+00  0.27515754472E+02  0.27526346433E+02  0.10566000000E+00 0.  1.
         14    1    4    4    0    0 -0.89081493661E+01 -0.10020093491E+02  0.31435655992E+03  0.31464234325E+03  0.00000000000E+00 0. -1.
<mgrwt>
<rscale>  0 0.70037608E+02</rscale>
<asrwt>0</asrwt>
<pdfrwt beam="1">  1        2 0.64266898E-01 0.70037608E+02</pdfrwt>
<pdfrwt beam="2">  1       -1 0.45163602E-03 0.70037608E+02</pdfrwt>
<totfact> 0.40490007E+05</totfact>
</mgrwt>
</event>
<event>
 8    1  0.7667702E-014  0.7918781E+02  0.7818608E-02  0.1331372E+00
         -1   -1    0    0    0  501 -0.00000000000E+00  0.00000000000E+00  0.35532272449E+01  0.35532308193E+01  0.50400000000E-02 0.  1.
          2   -1    0    0  501    0  0.00000000000E+00 -0.00000000000E+00 -0.44119794881E+03  0.44119794882E+03  0.25500000000E-02 0. -1.
         24    2    1    2    0    0  0.00000000000E+00  0.71054273576E-14 -0.43764472157E+03  0.44475117964E+03  0.79187811400E+02 0.  0.
         66    2    3    3    0    0  0.66953407751E+01  0.38189687642E+02 -0.26332500136E+03  0.26617162917E+03  0.20000001564E+01 0.  0.
        -13    1    3    3    0    0 -0.66953407751E+01 -0.38189687642E+02 -0.17431972020E+03  0.17857955047E+03  0.10566000000E+00 0.  1.
         13    1    4    4    0    0  0.49832698634E+01  0.27127328557E+02 -0.18627485687E+03  0.18830575774E+03  0.10566000000E+00 0. -1.
        -13    1    4    4    0    0  0.10371914726E+01  0.83157944301E+01 -0.60061965393E+02  0.60643870705E+02  0.10566000000E+00 0.  1.
         14    1    4    4    0    0  0.67487943910E+00  0.27465646555E+01 -0.16988179099E+02  0.17222000719E+02  0.00000000000E+00 0. -1.
<mgrwt>
<rscale>  0 0.79187811E+02</rscale>
<asrwt>0</asrwt>
<pdfrwt beam="1">  1        2 0.67876564E-01 0.79187811E+02</pdfrwt>
<pdfrwt beam="2">  1       -1 0.54665097E-03 0.79187811E+02</pdfrwt>
<totfact> 0.30011492E+05</totfact>
</mgrwt>
</event>
<event>
 8    1  0.7667702E-014  0.7531737E+02  0.7818608E-02  0.1342891E+00
         -1   -1    0    0    0  501 -0.00000000000E+00  0.00000000000E+00  0.15427476961E+01  0.15427559287E+01  0.50400000000E-02 0.  1.
          2   -1    0    0  501    0  0.00000000000E+00 -0.00000000000E+00 -0.91925114703E+03  0.91925114704E+03  0.25500000000E-02 0. -1.
         24    2    1    2    0    0  0.00000000000E+00 -0.11102230246E-15 -0.91770839934E+03  0.92079390297E+03  0.75317365358E+02 0.  0.
         66    2    3    3    0    0  0.25034505790E+02 -0.65393564502E+00 -0.80258500250E+03  0.80297810702E+03  0.19999990717E+01 0.  0.
        -13    1    3    3    0    0 -0.25034505790E+02  0.65393564502E+00 -0.11512339683E+03  0.11781579595E+03  0.10566000000E+00 0.  1.
         13    1    4    4    0    0  0.16424326821E+02  0.32284745656E+00 -0.52149604886E+03  0.52175473442E+03  0.10566000000E+00 0. -1.
        -13    1    4    4    0    0  0.63728474737E+01 -0.10210672245E+01 -0.21077462868E+03  0.21087344788E+03  0.10566000000E+00 0.  1.
        -14    1    4    4    0    0  0.22373314950E+01  0.44284122956E-01 -0.70314324962E+02  0.70349924721E+02  0.00000000000E+00 0.  1.
<mgrwt>
<rscale>  0 0.75317365E+02</rscale>
<asrwt>0</asrwt>
<pdfrwt beam="1">  1        2 0.14142282E+00 0.75317365E+02</pdfrwt>
<pdfrwt beam="2">  1       -1 0.23734717E-03 0.75317365E+02</pdfrwt>
<totfact> 0.40941352E+05</totfact>
</mgrwt>
</event>
<event>
 8    1  0.7667702E-014  0.8160607E+02  0.7818608E-02  0.1324554E+00
          2   -1    0    0  501    0  0.00000000000E+00  0.00000000000E+00  0.67551344433E+03  0.67551344433E+03  0.25500000000E-02 0. -1.
         -1   -1    0    0    0  501 -0.00000000000E+00 -0.00000000000E+00 -0.24646229848E+01  0.24646281380E+01  0.50400000000E-02 0.  1.
         24    2    1    2    0    0 -0.71054273576E-14  0.17763568394E-14  0.67304882134E+03  0.67797807247E+03  0.81606071096E+02 0.  0.
         66    2    3    3    0    0  0.36336074612E+02  0.13498428604E+02  0.44193372949E+03  0.44363491653E+03  0.20000012405E+01 0.  0.
        -13    1    3    3    0    0 -0.36336074612E+02 -0.13498428604E+02  0.23111509185E+03  0.23434315594E+03  0.10566000000E+00 0.  1.
         13    1    4    4    0    0  0.53642459644E+01  0.14763730810E+01  0.58805498479E+02  0.59068203187E+02  0.10566000000E+00 0. -1.
        -13    1    4    4    0    0  0.20801465410E+02  0.80665495135E+01  0.26115608555E+03  0.26210738709E+03  0.10566000000E+00 0.  1.
         14    1    4    4    0    0  0.10170363237E+02  0.39555060094E+01  0.12197214546E+03  0.12245932625E+03  0.00000000000E+00 0. -1.
<mgrwt>
<rscale>  0 0.81606071E+02</rscale>
<asrwt>0</asrwt>
<pdfrwt beam="1">  1        2 0.10392506E+00 0.81606071E+02</pdfrwt>
<pdfrwt beam="2">  1       -1 0.37917347E-03 0.81606071E+02</pdfrwt>
<totfact> 0.31500159E+05</totfact>
</mgrwt>
</event>
<event>
 8    1  0.7667702E-014  0.8076786E+02  0.7818608E-02  0.1326886E+00
         -1   -1    0    0    0  501 -0.00000000000E+00  0.00000000000E+00  0.17558758981E+02  0.17558759704E+02  0.50400000000E-02 0.  1.
          2   -1    0    0  501    0  0.00000000000E+00 -0.00000000000E+00 -0.92880243096E+02  0.92880243131E+02  0.25500000000E-02 0. -1.
         24    2    1    2    0    0  0.35527136788E-14  0.00000000000E+00 -0.75321484115E+02  0.11043900283E+03  0.80767861046E+02 0.  0.
         66    2    3    3    0    0  0.30704670878E+02 -0.26033468357E+02 -0.41632250416E+02  0.57946204094E+02  0.20000014500E+01 0.  0.
        -13    1    3    3    0    0 -0.30704670878E+02  0.26033468357E+02 -0.33689233698E+02  0.52492798741E+02  0.10566000000E+00 0.  1.
         13    1    4    4    0    0  0.18913352828E+02 -0.16937994617E+02 -0.25705344200E+02  0.36130132318E+02  0.10566000000E+00 0. -1.
        -13    1    4    4    0    0  0.54245337141E+01 -0.45604278230E+01 -0.78403280585E+01  0.10569057481E+02  0.10566000000E+00 0.  1.
         14    1    4    4    0    0  0.63667843355E+01 -0.45350459167E+01 -0.80865781579E+01  0.11247014295E+02  0.00000000000E+00 0. -1.
<mgrwt>
<rscale>  0 0.80767861E+02</rscale>
<asrwt>0</asrwt>
<pdfrwt beam="1">  1        2 0.14289268E-01 0.80767861E+02</pdfrwt>
<pdfrwt beam="2">  1       -1 0.27013477E-02 0.80767861E+02</pdfrwt>
<totfact> 0.16928212E+05</totfact>
</mgrwt>
</event>
<event>
 8    1  0.7667702E-014  0.8184604E+02  0.7818608E-02  0.1323893E+00
         -1   -1    0    0    0  501 -0.00000000000E+00  0.00000000000E+00  0.95163753267E+02  0.95163753401E+02  0.50400000000E-02 0.  1.
          2   -1    0    0  501    0  0.00000000000E+00 -0.00000000000E+00 -0.17598019727E+02  0.17598019911E+02  0.25500000000E-02 0. -1.
         24    2    1    2    0    0  0.44408920985E-15  0.71054273576E-14  0.77565733541E+02  0.11276177331E+03  0.81846041448E+02 0.  0.
         66    2    3    3    0    0  0.19833008397E+01  0.34918158410E+02  0.95968633548E+01  0.36322321801E+02  0.20000014453E+01 0.  0.
        -13    1    3    3    0    0 -0.19833008397E+01 -0.34918158410E+02  0.67968870186E+02  0.76439451511E+02  0.10566000000E+00 0.  1.
         13    1    4    4    0    0  0.21426237454E+01  0.29534120550E+02  0.81529686381E+01  0.30713794536E+02  0.10566000000E+00 0. -1.
        -13    1    4    4    0    0  0.11103781009E+00  0.29417225473E+01  0.56884559204E+00  0.30001350443E+01  0.10566000000E+00 0.  1.
         14    1    4    4    0    0 -0.27036071578E+00  0.24423153130E+01  0.87504912474E+00  0.26083922204E+01  0.00000000000E+00 0. -1.
<mgrwt>
<rscale>  0 0.81846041E+02</rscale>
<asrwt>0</asrwt>
<pdfrwt beam="1">  1        2 0.27073877E-02 0.81846041E+02</pdfrwt>
<pdfrwt beam="2">  1       -1 0.14640577E-01 0.81846041E+02</pdfrwt>
<totfact> 0.11317914E+05</totfact>
</mgrwt>
</event>
<event>
 8    1  0.7667702E-014  0.7949797E+02  0.7818608E-02  0.1330482E+00
          2   -1    0    0  501    0  0.00000000000E+00  0.00000000000E+00  0.20818465427E+02  0.20818465583E+02  0.25500000000E-02 0. -1.
         -1   -1    0    0    0  501 -0.00000000000E+00 -0.00000000000E+00 -0.75893281020E+02  0.75893281187E+02  0.50400000000E-02 0.  1.
         24    2    1    2    0    0 -0.35527136788E-14 -0.22204460493E-15 -0.55074815593E+02  0.96711746770E+02  0.79497966330E+02 0.  0.
         66    2    3    3    0    0  0.29398325734E+02  0.10404782494E+01  0.49207259753E+01  0.29892435766E+02  0.20000052411E+01 0.  0.
        -13    1    3    3    0    0 -0.29398325734E+02 -0.10404782494E+01 -0.59995541569E+02  0.66819311004E+02  0.10566000000E+00 0.  1.
         13    1    4    4    0    0  0.11496376280E+02 -0.34400358697E+00  0.13698502658E+01  0.11583292271E+02  0.10566000000E+00 0. -1.
        -13    1    4    4    0    0  0.15235163141E+02  0.13366428278E+01  0.30578415376E+01  0.15596742253E+02  0.10566000000E+00 0.  1.
         14    1    4    4    0    0  0.26667863118E+01  0.47839008568E-01  0.49303417191E+00  0.27124012421E+01  0.00000000000E+00 0. -1.
<mgrwt>
<rscale>  0 0.79497966E+02</rscale>
<asrwt>0</asrwt>
<pdfrwt beam="1">  1        2 0.32028409E-02 0.79497966E+02</pdfrwt>
<pdfrwt beam="2">  1       -1 0.11675889E-01 0.79497966E+02</pdfrwt>
<totfact> 0.12744136E+05</totfact>
</mgrwt>
</event>
<event>
 8    1  0.7667702E-014  0.8130806E+02  0.7818608E-02  0.1325380E+00
          2   -1    0    0  501    0  0.00000000000E+00  0.00000000000E+00  0.78395728109E+03  0.78395728109E+03  0.25500000000E-02 0. -1.
         -1   -1    0    0    0  501 -0.00000000000E+00 -0.00000000000E+00 -0.21082115471E+01  0.21082175715E+01  0.50400000000E-02 0.  1.
         24    2    1    2    0    0  0.00000000000E+00  0.35527136788E-14  0.78184906954E+03  0.78606549866E+03  0.81308060162E+02 0.  0.
         66    2    3    3    0    0  0.11097349723E+02  0.27627899817E+02  0.65843342490E+03  0.65910926792E+03  0.20000023844E+01 0.  0.
        -13    1    3    3    0    0 -0.11097349723E+02 -0.27627899817E+02  0.12341564464E+03  0.12695623075E+03  0.10566000000E+00 0.  1.
         13    1    4    4    0    0  0.15872143616E+01  0.45222858883E+01  0.10220404980E+03  0.10231641745E+03  0.10566000000E+00 0. -1.
        -13    1    4    4    0    0  0.65078700318E+01  0.17485728593E+02  0.42253599964E+03  0.42294773345E+03  0.10566000000E+00 0.  1.
        -14    1    4    4    0    0  0.30022653296E+01  0.56198853363E+01  0.13369337546E+03  0.13384511702E+03  0.00000000000E+00 0.  1.
<mgrwt>
<rscale>  0 0.81308060E+02</rscale>
<asrwt>0</asrwt>
<pdfrwt beam="1">  1        2 0.12060863E+00 0.81308060E+02</pdfrwt>
<pdfrwt beam="2">  1       -1 0.32434120E-03 0.81308060E+02</pdfrwt>
<totfact> 0.32828520E+05</totfact>
</mgrwt>
</event>
<event>
 8    1  0.7667702E-014  0.8052030E+02  0.7818608E-02  0.1327581E+00
         -1   -1    0    0    0  501 -0.00000000000E+00  0.00000000000E+00  0.59753771547E+01  0.59753792802E+01  0.50400000000E-02 0.  1.
          2   -1    0    0  501    0  0.00000000000E+00 -0.00000000000E+00 -0.27125978546E+03  0.27125978548E+03  0.25500000000E-02 0. -1.
         24    2    1    2    0    0  0.44408920985E-15  0.00000000000E+00 -0.26528440831E+03  0.27723516476E+03  0.80520303560E+02 0.  0.
         66    2    3    3    0    0 -0.36432861890E+01  0.29443533364E+02 -0.22630121119E+03  0.22824643122E+03  0.19999976355E+01 0.  0.
        -13    1    3    3    0    0  0.36432861890E+01 -0.29443533364E+02 -0.38983197123E+02  0.48988733533E+02  0.10566000000E+00 0.  1.
         13    1    4    4    0    0 -0.54776224628E+00  0.91725590538E+01 -0.72115555226E+02  0.72698695674E+02  0.10566000000E+00 0.  1.
        -13    1    4    4    0    0 -0.29584536866E+01  0.16314787325E+02 -0.12450302156E+03  0.12560230203E+03  0.10566000000E+00 0. -1.
         14    1    4    4    0    0 -0.13707025607E+00  0.39561869855E+01 -0.29682634398E+02  0.29945433517E+02  0.00000000000E+00 0. -1.
<mgrwt>
<rscale>  0 0.80520304E+02</rscale>
<asrwt>0</asrwt>
<pdfrwt beam="1">  1        2 0.41732265E-01 0.80520304E+02</pdfrwt>
<pdfrwt beam="2">  1       -1 0.91928917E-03 0.80520304E+02</pdfrwt>
<totfact> 0.24166257E+05</totfact>
</mgrwt>
</event>
<event>
 8    1  0.7667702E-014  0.7786658E+02  0.7818608E-02  0.1335217E+00
         -1   -1    0    0    0  501 -0.00000000000E+00  0.00000000000E+00  0.79311795631E+00  0.79313396991E+00  0.50400000000E-02 0.  1.
          2   -1    0    0  501    0  0.00000000000E+00 -0.00000000000E+00 -0.19111729628E+04  0.19111729628E+04  0.25500000000E-02 0. -1.
         24    2    1    2    0    0  0.00000000000E+00 -0.17763568394E-14 -0.19103798448E+04  0.19119660968E+04  0.77866575750E+02 0.  0.
         66    2    3    3    0    0 -0.65152281579E+01 -0.14375298038E+02 -0.18290362136E+04  0.18291054010E+04  0.20000024036E+01 0.  0.
        -13    1    3    3    0    0  0.65152281579E+01  0.14375298038E+02 -0.81343631267E+02  0.82860695769E+02  0.10566000000E+00 0.  1.
         13    1    4    4    0    0 -0.47667680091E+01 -0.99766179795E+01 -0.13577021902E+04  0.13577472163E+04  0.10566000000E+00 0. -1.
        -13    1    4    4    0    0 -0.39280753251E+00 -0.60564254008E+00 -0.86750295321E+02  0.86753363064E+02  0.10566000000E+00 0.  1.
         14    1    4    4    0    0 -0.13556526163E+01 -0.37930375179E+01 -0.38458372808E+03  0.38460482164E+03  0.00000000000E+00 0. -1.
<mgrwt>
<rscale>  0 0.77866576E+02</rscale>
<asrwt>0</asrwt>
<pdfrwt beam="1">  1        2 0.29402292E+00 0.77866576E+02</pdfrwt>
<pdfrwt beam="2">  1       -1 0.12202091E-03 0.77866576E+02</pdfrwt>
<totfact> 0.30989536E+05</totfact>
</mgrwt>
</event>
<event>
 8    1  0.7667702E-014  0.7884654E+02  0.7818608E-02  0.1332357E+00
         -1   -1    0    0    0  501 -0.00000000000E+00  0.00000000000E+00  0.15086829260E+03  0.15086829269E+03  0.50400000000E-02 0.  1.
          2   -1    0    0  501    0  0.00000000000E+00 -0.00000000000E+00 -0.10301661465E+02  0.10301661781E+02  0.25500000000E-02 0. -1.
         24    2    1    2    0    0 -0.35527136788E-14  0.17763568394E-14  0.14056663114E+03  0.16116995447E+03  0.78846537234E+02 0.  0.
         66    2    3    3    0    0 -0.24101389894E+02  0.12862863285E+02  0.12301297575E+02  0.30027523483E+02  0.19999994436E+01 0.  0.
        -13    1    3    3    0    0  0.24101389894E+02 -0.12862863285E+02  0.12826533356E+03  0.13114243098E+03  0.10566000000E+00 0.  1.
         13    1    4    4    0    0 -0.55188613571E+01  0.29402108824E+01  0.32881981472E+01  0.70658390728E+01  0.10566000000E+00 0. -1.
        -13    1    4    4    0    0 -0.13102032134E+01  0.11001067472E+01  0.92456298732E+00  0.19475235733E+01  0.10566000000E+00 0.  1.
        -14    1    4    4    0    0 -0.17272325324E+02  0.88225456554E+01  0.80885364405E+01  0.21014160837E+02  0.00000000000E+00 0.  1.
<mgrwt>
<rscale>  0 0.78846537E+02</rscale>
<asrwt>0</asrwt>
<pdfrwt beam="1">  1        2 0.15848711E-02 0.78846537E+02</pdfrwt>
<pdfrwt beam="2">  1       -1 0.23210505E-01 0.78846537E+02</pdfrwt>
<totfact> 0.11174105E+05</totfact>
</mgrwt>
</event>
<event>
 8    1  0.7667702E-014  0.7947656E+02  0.7818608E-02  0.1330543E+00
          2   -1    0    0  501    0  0.00000000000E+00  0.00000000000E+00  0.36993187173E+03  0.36993187174E+03  0.25500000000E-02 0. -1.
         -1   -1    0    0    0  501 -0.00000000000E+00 -0.00000000000E+00 -0.42687054670E+01  0.42687084423E+01  0.50400000000E-02 0.  1.
         24    2    1    2    0    0  0.00000000000E+00  0.00000000000E+00  0.36566316626E+03  0.37420058018E+03  0.79476556584E+02 0.  0.
         66    2    3    3    0    0 -0.34377536201E+02 -0.76242422330E+01  0.26940349803E+03  0.27170239016E+03  0.20000009547E+01 0.  0.
        -13    1    3    3    0    0  0.34377536201E+02  0.76242422330E+01  0.96259668231E+02  0.10249819002E+03  0.10566000000E+00 0.  1.
         13    1    4    4    0    0 -0.23920259528E+02 -0.56536983757E+01  0.18408945113E+03  0.18572312807E+03  0.10566000000E+00 0. -1.
        -13    1    4    4    0    0 -0.48284565442E+01 -0.70474352353E+00  0.36216698626E+02  0.36544097737E+02  0.10566000000E+00 0.  1.
        -14    1    4    4    0    0 -0.56288201287E+01 -0.12658003337E+01  0.49097348281E+02  0.49435164355E+02  0.00000000000E+00 0.  1.
<mgrwt>
<rscale>  0 0.79476557E+02</rscale>
<asrwt>0</asrwt>
<pdfrwt beam="1">  1        2 0.56912587E-01 0.79476557E+02</pdfrwt>
<pdfrwt beam="2">  1       -1 0.65672425E-03 0.79476557E+02</pdfrwt>
<totfact> 0.27961095E+05</totfact>
</mgrwt>
</event>
<event>
 8    1  0.7667702E-014  0.8083175E+02  0.7818608E-02  0.1326707E+00
         -1   -1    0    0    0  501 -0.00000000000E+00  0.00000000000E+00  0.41731767460E+02  0.41731767765E+02  0.50400000000E-02 0.  1.
          2   -1    0    0  501    0  0.00000000000E+00 -0.00000000000E+00 -0.39141473912E+02  0.39141473995E+02  0.25500000000E-02 0. -1.
         24    2    1    2    0    0  0.00000000000E+00 -0.35527136788E-14  0.25902935484E+01  0.80873241760E+02  0.80831748788E+02 0.  0.
         66    2    3    3    0    0 -0.23256145798E+02  0.21991673902E+02 -0.23353183931E+02  0.39671819137E+02  0.19999988876E+01 0.  0.
        -13    1    3    3    0    0  0.23256145798E+02 -0.21991673902E+02  0.25943477479E+02  0.41201422623E+02  0.10566000000E+00 0.  1.
         13    1    4    4    0    0 -0.56171636465E+01  0.49423201428E+01 -0.52722428823E+01  0.91535110679E+01  0.10566000000E+00 0.  1.
        -13    1    4    4    0    0 -0.15945491848E+02  0.15005206310E+02 -0.15597687965E+02  0.26883339833E+02  0.10566000000E+00 0. -1.
         14    1    4    4    0    0 -0.16934903032E+01  0.20441474490E+01 -0.24832530830E+01  0.36349682357E+01  0.00000000000E+00 0. -1.
<mgrwt>
<rscale>  0 0.80831749E+02</rscale>
<asrwt>0</asrwt>
<pdfrwt beam="1">  1        2 0.60217652E-02 0.80831749E+02</pdfrwt>
<pdfrwt beam="2">  1       -1 0.64202720E-02 0.80831749E+02</pdfrwt>
<totfact> 0.13791167E+05</totfact>
</mgrwt>
</event>
<event>
 8    1  0.7667702E-014  0.7950098E+02  0.7818608E-02  0.1330474E+00
          2   -1    0    0  501    0  0.00000000000E+00  0.00000000000E+00  0.18737499395E+03  0.18737499396E+03  0.25500000000E-02 0. -1.
         -1   -1    0    0    0  501 -0.00000000000E+00 -0.00000000000E+00 -0.84328287404E+01  0.84328302465E+01  0.50400000000E-02 0.  1.
         24    2    1    2    0    0  0.00000000000E+00  0.35527136788E-14  0.17894216521E+03  0.19580782421E+03  0.79500978191E+02 0.  0.
         66    2    3    3    0    0 -0.25989853256E+02 -0.22555396701E+02  0.13840836442E+03  0.14263622876E+03  0.20000051096E+01 0.  0.
        -13    1    3    3    0    0  0.25989853256E+02  0.22555396701E+02  0.40533800783E+02  0.53171595449E+02  0.10566000000E+00 0.  1.
         13    1    4    4    0    0 -0.87519742950E+01 -0.78662583035E+01  0.46944394154E+02  0.48396925318E+02  0.10566000000E+00 0. -1.
        -13    1    4    4    0    0 -0.14929584791E+01 -0.18795752796E+01  0.93014288863E+01  0.96067409466E+01  0.10566000000E+00 0.  1.
        -14    1    4    4    0    0 -0.15744920482E+02 -0.12809563118E+02  0.82162541382E+02  0.84632562496E+02  0.00000000000E+00 0.  1.
<mgrwt>
<rscale>  0 0.79500978E+02</rscale>
<asrwt>0</asrwt>
<pdfrwt beam="1">  1        2 0.28826919E-01 0.79500978E+02</pdfrwt>
<pdfrwt beam="2">  1       -1 0.12973585E-02 0.79500978E+02</pdfrwt>
<totfact> 0.21927211E+05</totfact>
</mgrwt>
</event>
<event>
 8    1  0.7667702E-014  0.7903175E+02  0.7818608E-02  0.1331822E+00
         -1   -1    0    0    0  501 -0.00000000000E+00  0.00000000000E+00  0.68518515455E+01  0.68518533991E+01  0.50400000000E-02 0.  1.
          2   -1    0    0  501    0  0.00000000000E+00 -0.00000000000E+00 -0.22789519186E+03  0.22789519188E+03  0.25500000000E-02 0. -1.
         24    2    1    2    0    0  0.00000000000E+00  0.00000000000E+00 -0.22104334032E+03  0.23474704528E+03  0.79031746579E+02 0.  0.
         66    2    3    3    0    0  0.11049919545E+01  0.24672744159E+02 -0.20212021761E+03  0.20363336583E+03  0.20000006191E+01 0.  0.
        -13    1    3    3    0    0 -0.11049919545E+01 -0.24672744159E+02 -0.18923122713E+02  0.31113679448E+02  0.10566000000E+00 0.  1.
         13    1    4    4    0    0  0.20552213741E+00  0.62600331719E+01 -0.49696770572E+02  0.50090023198E+02  0.10566000000E+00 0. -1.
        -13    1    4    4    0    0 -0.47878128921E+00  0.65057577206E+01 -0.53410205622E+02  0.53807205313E+02  0.10566000000E+00 0.  1.
        -14    1    4    4    0    0  0.13782511063E+01  0.11906953266E+02 -0.99013241413E+02  0.99736137319E+02  0.00000000000E+00 0.  1.
<mgrwt>
<rscale>  0 0.79031747E+02</rscale>
<asrwt>0</asrwt>
<pdfrwt beam="1">  1        2 0.35060793E-01 0.79031747E+02</pdfrwt>
<pdfrwt beam="2">  1       -1 0.10541313E-02 0.79031747E+02</pdfrwt>
<totfact> 0.23845378E+05</totfact>
</mgrwt>
</event>
<event>
 8    1  0.7667702E-014  0.8316143E+02  0.7818608E-02  0.1320312E+00
          2   -1    0    0  501    0  0.00000000000E+00  0.00000000000E+00  0.37134980212E+03  0.37134980213E+03  0.25500000000E-02 0. -1.
         -1   -1    0    0    0  501 -0.00000000000E+00 -0.00000000000E+00 -0.46558671001E+01  0.46558698280E+01  0.50400000000E-02 0.  1.
         24    2    1    2    0    0  0.00000000000E+00 -0.71054273576E-14  0.36669393502E+03  0.37600567196E+03  0.83161429541E+02 0.  0.
         66    2    3    3    0    0 -0.83094853500E+01  0.40674105654E+02  0.19193607402E+03  0.19638453856E+03  0.20000143764E+01 0.  0.
        -13    1    3    3    0    0  0.83094853500E+01 -0.40674105654E+02  0.17475786100E+03  0.17962113340E+03  0.10566000000E+00 0.  1.
         13    1    4    4    0    0 -0.27286829240E+01  0.15360124266E+02  0.72644367811E+02  0.74300703002E+02  0.10566000000E+00 0. -1.
        -13    1    4    4    0    0 -0.80723328350E+00  0.22868571439E+01  0.12488945249E+02  0.12722667119E+02  0.10566000000E+00 0.  1.
        -14    1    4    4    0    0 -0.47735691425E+01  0.23027124245E+02  0.10680276096E+03  0.10936116844E+03  0.00000000000E+00 0.  1.
<mgrwt>
<rscale>  0 0.83161430E+02</rscale>
<asrwt>0</asrwt>
<pdfrwt beam="1">  1        2 0.57130726E-01 0.83161430E+02</pdfrwt>
<pdfrwt beam="2">  1       -1 0.71628762E-03 0.83161430E+02</pdfrwt>
<totfact> 0.24865490E+05</totfact>
</mgrwt>
</event>
<event>
 8    1  0.7667702E-014  0.7928560E+02  0.7818608E-02  0.1331091E+00
         -1   -1    0    0    0  501 -0.00000000000E+00  0.00000000000E+00  0.52324357866E+01  0.52324382139E+01  0.50400000000E-02 0.  1.
          2   -1    0    0  501    0  0.00000000000E+00 -0.00000000000E+00 -0.30034790202E+03  0.30034790203E+03  0.25500000000E-02 0. -1.
         24    2    1    2    0    0  0.00000000000E+00  0.00000000000E+00 -0.29511546623E+03  0.30558034025E+03  0.79285597267E+02 0.  0.
         66    2    3    3    0    0  0.30386995463E+02  0.22640787499E+02 -0.10310744050E+03  0.10986864447E+03  0.19999999889E+01 0.  0.
        -13    1    3    3    0    0 -0.30386995463E+02 -0.22640787499E+02 -0.19200802574E+03  0.19571169578E+03  0.10566000000E+00 0.  1.
         13    1    4    4    0    0  0.20318914931E+02  0.14937673871E+02 -0.68194974585E+02  0.72708721123E+02  0.10566000000E+00 0. -1.
        -13    1    4    4    0    0  0.81152629952E+00  0.37268480972E+00 -0.19780678579E+01  0.21728749132E+01  0.10566000000E+00 0.  1.
         14    1    4    4    0    0  0.92565542326E+01  0.73304288182E+01 -0.32934398055E+02  0.34987048434E+02  0.00000000000E+00 0. -1.
<mgrwt>
<rscale>  0 0.79285597E+02</rscale>
<asrwt>0</asrwt>
<pdfrwt beam="1">  1        2 0.46207356E-01 0.79285597E+02</pdfrwt>
<pdfrwt beam="2">  1       -1 0.80499054E-03 0.79285597E+02</pdfrwt>
<totfact> 0.26111839E+05</totfact>
</mgrwt>
</event>
<event>
 8    1  0.7667702E-014  0.8099375E+02  0.7818608E-02  0.1326255E+00
         -1   -1    0    0    0  501 -0.00000000000E+00  0.00000000000E+00  0.37739779917E+02  0.37739780253E+02  0.50400000000E-02 0.  1.
          2   -1    0    0  501    0  0.00000000000E+00 -0.00000000000E+00 -0.43455391587E+02  0.43455391662E+02  0.25500000000E-02 0. -1.
         24    2    1    2    0    0  0.00000000000E+00 -0.44408920985E-15 -0.57156116707E+01  0.81195171915E+02  0.80993751152E+02 0.  0.
         66    2    3    3    0    0 -0.39774241941E+02 -0.29162687607E+01 -0.97684900083E+01  0.41108616410E+02  0.20000001567E+01 0.  0.
        -13    1    3    3    0    0  0.39774241941E+02  0.29162687607E+01  0.40528783375E+01  0.40086555506E+02  0.10566000000E+00 0.  1.
         13    1    4    4    0    0 -0.15671049984E+02 -0.68226555086E+00 -0.39995539705E+01  0.16188109522E+02  0.10566000000E+00 0. -1.
        -13    1    4    4    0    0 -0.11636887243E+02 -0.72328645744E+00 -0.21985286654E+01  0.11865284671E+02  0.10566000000E+00 0.  1.
        -14    1    4    4    0    0 -0.12466304714E+02 -0.15107167524E+01 -0.35704073723E+01  0.13055222217E+02  0.00000000000E+00 0.  1.
<mgrwt>
<rscale>  0 0.80993751E+02</rscale>
<asrwt>0</asrwt>
<pdfrwt beam="1">  1        2 0.66854449E-02 0.80993751E+02</pdfrwt>
<pdfrwt beam="2">  1       -1 0.58061200E-02 0.80993751E+02</pdfrwt>
<totfact> 0.14016977E+05</totfact>
</mgrwt>
</event>
<event>
 8    1  0.7667702E-014  0.7980055E+02  0.7818608E-02  0.1329618E+00
          2   -1    0    0  501    0  0.00000000000E+00  0.00000000000E+00  0.39649526898E+03  0.39649526899E+03  0.25500000000E-02 0. -1.
         -1   -1    0    0    0  501 -0.00000000000E+00 -0.00000000000E+00 -0.40152593758E+01  0.40152625390E+01  0.50400000000E-02 0.  1.
         24    2    1    2    0    0  0.35527136788E-14  0.00000000000E+00  0.39248000961E+03  0.40051053153E+03  0.79800550909E+02 0.  0.
         66    2    3    3    0    0 -0.12020652872E+02 -0.17576416609E+02  0.36556744980E+03  0.36619255438E+03  0.20000033525E+01 0.  0.
        -13    1    3    3    0    0  0.12020652872E+02  0.17576416609E+02  0.26912559806E+02  0.34317977149E+02  0.10566000000E+00 0.  1.
         13    1    4    4    0    0 -0.16404010978E+01 -0.27273704986E+01  0.53268228157E+02  0.53363327863E+02  0.10566000000E+00 0. -1.
        -13    1    4    4    0    0 -0.86153614760E+01 -0.12366245715E+02  0.24755165543E+03  0.24801004366E+03  0.10566000000E+00 0.  1.
         14    1    4    4    0    0 -0.17648902987E+01 -0.24828003951E+01  0.64747566214E+02  0.64819182857E+02  0.00000000000E+00 0. -1.
<mgrwt>
<rscale>  0 0.79800551E+02</rscale>
<asrwt>0</asrwt>
<pdfrwt beam="1">  1        2 0.60999291E-01 0.79800551E+02</pdfrwt>
<pdfrwt beam="2">  1       -1 0.61773227E-03 0.79800551E+02</pdfrwt>
<totfact> 0.28351000E+05</totfact>
</mgrwt>
</event>
<event>
 8    1  0.7667702E-014  0.7999931E+02  0.7818608E-02  0.1329053E+00
         -1   -1    0    0    0  501 -0.00000000000E+00  0.00000000000E+00  0.77031430495E+02  0.77031430660E+02  0.50400000000E-02 0.  1.
          2   -1    0    0  501    0  0.00000000000E+00 -0.00000000000E+00 -0.20770382428E+02  0.20770382584E+02  0.25500000000E-02 0. -1.
         24    2    1    2    0    0  0.00000000000E+00  0.00000000000E+00  0.56261048067E+02  0.97801813244E+02  0.79999307148E+02 0.  0.
         66    2    3    3    0    0  0.30948040741E+01  0.24707383932E+02 -0.10082938691E+02  0.26938787793E+02  0.20000005297E+01 0.  0.
        -13    1    3    3    0    0 -0.30948040741E+01 -0.24707383932E+02  0.66343986758E+02  0.70863025450E+02  0.10566000000E+00 0.  1.
         13    1    4    4    0    0  0.95351889410E+00  0.99860526825E+01 -0.44766195896E+01  0.10985523813E+02  0.10566000000E+00 0. -1.
        -13    1    4    4    0    0 -0.11081194204E+00  0.28023295834E+00 -0.14309319939E+00  0.34992784506E+00  0.10566000000E+00 0.  1.
         14    1    4    4    0    0  0.22520971220E+01  0.14441098291E+02 -0.54632259018E+01  0.15603336135E+02  0.00000000000E+00 0. -1.
<mgrwt>
<rscale>  0 0.79999307E+02</rscale>
<asrwt>0</asrwt>
<pdfrwt beam="1">  1        2 0.31954435E-02 0.79999307E+02</pdfrwt>
<pdfrwt beam="2">  1       -1 0.11850989E-01 0.79999307E+02</pdfrwt>
<totfact> 0.12511030E+05</totfact>
</mgrwt>
</event>
<event>
 8    1  0.7667702E-014  0.8350484E+02  0.7818608E-02  0.1319389E+00
         -1   -1    0    0    0  501 -0.00000000000E+00  0.00000000000E+00  0.74781680104E+00  0.74783378468E+00  0.50400000000E-02 0.  1.
          2   -1    0    0  501    0  0.00000000000E+00 -0.00000000000E+00 -0.23311119287E+04  0.23311119287E+04  0.25500000000E-02 0. -1.
         24    2    1    2    0    0  0.00000000000E+00  0.00000000000E+00 -0.23303641119E+04  0.23318597625E+04  0.83504837435E+02 0.  0.
         66    2    3    3    0    0 -0.16978820364E+02  0.16059446644E+01 -0.22293417330E+04  0.22294078636E+04  0.20000075123E+01 0.  0.
        -13    1    3    3    0    0  0.16978820364E+02 -0.16059446644E+01 -0.10102237886E+03  0.10245189893E+03  0.10566000000E+00 0.  1.
         13    1    4    4    0    0 -0.31985923839E+01  0.62733979959E+00 -0.38166217737E+03  0.38167611053E+03  0.10566000000E+00 0. -1.
        -13    1    4    4    0    0 -0.74071688332E+01 -0.85696929708E-02 -0.92541660305E+03  0.92544625267E+03  0.10566000000E+00 0.  1.
         14    1    4    4    0    0 -0.63730591467E+01  0.98717455779E+00 -0.92226295263E+03  0.92228550037E+03  0.00000000000E+00 0. -1.
<mgrwt>
<rscale>  0 0.83504837E+02</rscale>
<asrwt>0</asrwt>
<pdfrwt beam="1">  1        2 0.35862679E+00 0.83504837E+02</pdfrwt>
<pdfrwt beam="2">  1       -1 0.11505191E-03 0.83504837E+02</pdfrwt>
<totfact> 0.20833313E+05</totfact>
</mgrwt>
</event>
<event>
 8    1  0.7667702E-014  0.7908982E+02  0.7818608E-02  0.1331654E+00
          2   -1    0    0  501    0  0.00000000000E+00  0.00000000000E+00  0.75957609985E+03  0.75957609986E+03  0.25500000000E-02 0. -1.
         -1   -1    0    0    0  501 -0.00000000000E+00 -0.00000000000E+00 -0.20587765623E+01  0.20587827314E+01  0.50400000000E-02 0.  1.
         24    2    1    2    0    0  0.35527136788E-14 -0.88817841970E-15  0.75751732329E+03  0.76163488259E+03  0.79089817868E+02 0.  0.
         66    2    3    3    0    0 -0.16346275504E+02  0.53306132308E+01  0.72166835190E+03  0.72187590783E+03  0.20000017279E+01 0.  0.
        -13    1    3    3    0    0  0.16346275504E+02 -0.53306132308E+01  0.35848971388E+02  0.39758974759E+02  0.10566000000E+00 0.  1.
         13    1    4    4    0    0 -0.74310143857E+01  0.27502642302E+01  0.32829340425E+03  0.32838902899E+03  0.10566000000E+00 0. -1.
        -13    1    4    4    0    0 -0.53430870822E+01  0.85726309881E+00  0.23410553016E+03  0.23416808897E+03  0.10566000000E+00 0.  1.
        -14    1    4    4    0    0 -0.35721740360E+01  0.17230859018E+01  0.15926941750E+03  0.15931878986E+03  0.00000000000E+00 0.  1.
<mgrwt>
<rscale>  0 0.79089818E+02</rscale>
<asrwt>0</asrwt>
<pdfrwt beam="1">  1        2 0.11685790E+00 0.79089818E+02</pdfrwt>
<pdfrwt beam="2">  1       -1 0.31673523E-03 0.79089818E+02</pdfrwt>
<totfact> 0.35065163E+05</totfact>
</mgrwt>
</event>
<event>
 8    1  0.7667702E-014  0.8215831E+02  0.7818608E-02  0.1323036E+00
          2   -1    0    0  501    0  0.00000000000E+00  0.00000000000E+00  0.13633313185E+04  0.13633313185E+04  0.25500000000E-02 0. -1.
         -1   -1    0    0    0  501 -0.00000000000E+00 -0.00000000000E+00 -0.12377696795E+01  0.12377799405E+01  0.50400000000E-02 0.  1.
         24    2    1    2    0    0  0.44408920985E-15  0.00000000000E+00  0.13620935488E+04  0.13645690984E+04  0.82158314775E+02 0.  0.
         66    2    3    3    0    0  0.33912729870E+01  0.24117389708E+02  0.12303875116E+04  0.12306301548E+04  0.19999984427E+01 0.  0.
        -13    1    3    3    0    0 -0.33912729870E+01 -0.24117389708E+02  0.13170603726E+03  0.13393894368E+03  0.10566000000E+00 0.  1.
         13    1    4    4    0    0  0.21952029890E+01  0.15886210328E+02  0.77839873121E+03  0.77856392577E+03  0.10566000000E+00 0. -1.
        -13    1    4    4    0    0  0.65782311479E+00  0.26567844300E+01  0.13152533722E+03  0.13155385487E+03  0.10566000000E+00 0.  1.
         14    1    4    4    0    0  0.53824688315E+00  0.55743949498E+01  0.32046344313E+03  0.32051237413E+03  0.00000000000E+00 0. -1.
<mgrwt>
<rscale>  0 0.82158315E+02</rscale>
<asrwt>0</asrwt>
<pdfrwt beam="1">  1        2 0.20974495E+00 0.82158315E+02</pdfrwt>
<pdfrwt beam="2">  1       -1 0.19042537E-03 0.82158315E+02</pdfrwt>
<totfact> 0.31962689E+05</totfact>
</mgrwt>
</event>
<event>
 8    1  0.7667702E-014  0.7648344E+02  0.7818608E-02  0.1339338E+00
          2   -1    0    0  501    0  0.00000000000E+00  0.00000000000E+00  0.23112047499E+03  0.23112047500E+03  0.25500000000E-02 0. -1.
         -1   -1    0    0    0  501 -0.00000000000E+00 -0.00000000000E+00 -0.63275604281E+01  0.63275624353E+01  0.50400000000E-02 0.  1.
         24    2    1    2    0    0  0.00000000000E+00  0.00000000000E+00  0.22479291456E+03  0.23744803744E+03  0.76483436420E+02 0.  0.
         66    2    3    3    0    0 -0.58161143904E+01  0.13938053053E+02  0.22145748416E+03  0.22198088613E+03  0.20000023087E+01 0.  0.
        -13    1    3    3    0    0  0.58161143904E+01 -0.13938053053E+02  0.33354304034E+01  0.15467151306E+02  0.10566000000E+00 0.  1.
         13    1    4    4    0    0 -0.13827529954E+01  0.51267956942E+01  0.78084153080E+02  0.78264565201E+02  0.10566000000E+00 0. -1.
        -13    1    4    4    0    0 -0.33130027890E+01  0.63417711024E+01  0.96818295348E+02  0.97082374952E+02  0.10566000000E+00 0.  1.
        -14    1    4    4    0    0 -0.11203586060E+01  0.24694862565E+01  0.46555035731E+02  0.46633945981E+02  0.00000000000E+00 0.  1.
<mgrwt>
<rscale>  0 0.76483436E+02</rscale>
<asrwt>0</asrwt>
<pdfrwt beam="1">  1        2 0.35556994E-01 0.76483436E+02</pdfrwt>
<pdfrwt beam="2">  1       -1 0.97347104E-03 0.76483436E+02</pdfrwt>
<totfact> 0.26117181E+05</totfact>
</mgrwt>
</event>
<event>
 8    1  0.7667702E-014  0.7991751E+02  0.7818608E-02  0.1329286E+00
          2   -1    0    0  501    0  0.00000000000E+00  0.00000000000E+00  0.13540666360E+02  0.13540666601E+02  0.25500000000E-02 0. -1.
         -1   -1    0    0    0  501 -0.00000000000E+00 -0.00000000000E+00 -0.11791901887E+03  0.11791901898E+03  0.50400000000E-02 0.  1.
         24    2    1    2    0    0  0.00000000000E+00 -0.88817841970E-15 -0.10437835251E+03  0.13145968558E+03  0.79917510346E+02 0.  0.
         66    2    3    3    0    0  0.17234493296E+02 -0.66982570701E+01  0.60008825221E+01  0.19542389787E+02  0.20000001529E+01 0.  0.
        -13    1    3    3    0    0 -0.17234493296E+02  0.66982570701E+01 -0.11037923504E+03  0.11191729579E+03  0.10566000000E+00 0.  1.
         13    1    4    4    0    0  0.75686897319E+01 -0.23143905120E+01  0.19905442102E+01  0.81617950224E+01  0.10566000000E+00 0. -1.
        -13    1    4    4    0    0  0.12937672326E+01 -0.82503151750E+00  0.80009484013E+00  0.17337319418E+01  0.10566000000E+00 0.  1.
         14    1    4    4    0    0  0.83720363314E+01 -0.35588350406E+01  0.32102434718E+01  0.96468628232E+01  0.00000000000E+00 0. -1.
<mgrwt>
<rscale>  0 0.79917510E+02</rscale>
<asrwt>0</asrwt>
<pdfrwt beam="1">  1        2 0.20831795E-02 0.79917510E+02</pdfrwt>
<pdfrwt beam="2">  1       -1 0.18141387E-01 0.79917510E+02</pdfrwt>
<totfact> 0.11459613E+05</totfact>
</mgrwt>
</event>
<event>
 8    1  0.7667702E-014  0.8013103E+02  0.7818608E-02  0.1328680E+00
          2   -1    0    0  501    0  0.00000000000E+00  0.00000000000E+00  0.65566975411E+03  0.65566975412E+03  0.25500000000E-02 0. -1.
         -1   -1    0    0    0  501 -0.00000000000E+00 -0.00000000000E+00 -0.24482505039E+01  0.24482556916E+01  0.50400000000E-02 0.  1.
         24    2    1    2    0    0  0.17763568394E-14 -0.35527136788E-14  0.65322150361E+03  0.65811800981E+03  0.80131030558E+02 0.  0.
         66    2    3    3    0    0  0.14157688251E+02 -0.28390588031E+02  0.52744940409E+03  0.52840641509E+03  0.19999997461E+01 0.  0.
        -13    1    3    3    0    0 -0.14157688251E+02  0.28390588031E+02  0.12577209951E+03  0.12971159472E+03  0.10566000000E+00 0.  1.
         13    1    4    4    0    0  0.69029645885E+01 -0.14119035250E+02  0.25358628627E+03  0.25407285141E+03  0.10566000000E+00 0. -1.
        -13    1    4    4    0    0  0.63600108140E-01 -0.30724729282E+00  0.39742564621E+01  0.39880226096E+01  0.10566000000E+00 0. -1.
         14    1    4    4    0    0  0.71911235542E+01 -0.13964305488E+02  0.26988886136E+03  0.27034554107E+03  0.00000000000E+00 0. -1.
<mgrwt>
<rscale>  0 0.80131031E+02</rscale>
<asrwt>0</asrwt>
<pdfrwt beam="1">  1        2 0.10087232E+00 0.80131031E+02</pdfrwt>
<pdfrwt beam="2">  1       -1 0.37665415E-03 0.80131031E+02</pdfrwt>
<totfact> 0.32789751E+05</totfact>
</mgrwt>
</event>
<event>
 8    1  0.7667702E-014  0.7919395E+02  0.7818608E-02  0.1331355E+00
          2   -1    0    0  501    0  0.00000000000E+00  0.00000000000E+00  0.42165582076E+03  0.42165582077E+03  0.25500000000E-02 0. -1.
         -1   -1    0    0    0  501 -0.00000000000E+00 -0.00000000000E+00 -0.37184824426E+01  0.37184858582E+01  0.50400000000E-02 0.  1.
         24    2    1    2    0    0  0.00000000000E+00  0.00000000000E+00  0.41793733832E+03  0.42537430662E+03  0.79193951648E+02 0.  0.
         66    2    3    3    0    0 -0.19133100732E+02  0.30922825237E+02  0.29293837892E+03  0.29519347978E+03  0.19999987563E+01 0.  0.
        -13    1    3    3    0    0  0.19133100732E+02 -0.30922825237E+02  0.12499895939E+03  0.13018082684E+03  0.10566000000E+00 0.  1.
         13    1    4    4    0    0 -0.51098510305E+01  0.84874213775E+01  0.75372790449E+02  0.76021152341E+02  0.10566000000E+00 0. -1.
        -13    1    4    4    0    0 -0.12099642435E+02  0.19629357478E+02  0.19284471286E+03  0.19421845294E+03  0.10566000000E+00 0.  1.
        -14    1    4    4    0    0 -0.19236072660E+01  0.28060463812E+01  0.24720875619E+02  0.24953874501E+02  0.00000000000E+00 0.  1.
<mgrwt>
<rscale>  0 0.79193952E+02</rscale>
<asrwt>0</asrwt>
<pdfrwt beam="1">  1        2 0.64870104E-01 0.79193952E+02</pdfrwt>
<pdfrwt beam="2">  1       -1 0.57207469E-03 0.79193952E+02</pdfrwt>
<totfact> 0.29545534E+05</totfact>
</mgrwt>
</event>
<event>
 8    1  0.7667702E-014  0.7948280E+02  0.7818608E-02  0.1330526E+00
         -1   -1    0    0    0  501 -0.00000000000E+00  0.00000000000E+00  0.10370386954E+01  0.10370509425E+01  0.50400000000E-02 0.  1.
          2   -1    0    0  501    0  0.00000000000E+00 -0.00000000000E+00 -0.15229612339E+04  0.15229612339E+04  0.25500000000E-02 0. -1.
         24    2    1    2    0    0  0.00000000000E+00  0.00000000000E+00 -0.15219241952E+04  0.15239982848E+04  0.79482804807E+02 0.  0.
         66    2    3    3    0    0  0.16652275232E+02  0.41151914996E+01 -0.14482713550E+04  0.14483743130E+04  0.20000002420E+01 0.  0.
        -13    1    3    3    0    0 -0.16652275232E+02 -0.41151914996E+01 -0.73652840221E+02  0.75623971782E+02  0.10566000000E+00 0.  1.
         13    1    4    4    0    0  0.12658437063E+02  0.36953691483E+01 -0.10962040955E+04  0.10962834132E+04  0.10566000000E+00 0. -1.
        -13    1    4    4    0    0  0.21326804583E+01  0.27904339386E+00 -0.21826319160E+03  0.21827381465E+03  0.10566000000E+00 0.  1.
        -14    1    4    4    0    0  0.18611577112E+01  0.14077895743E+00 -0.13380406783E+03  0.13381708522E+03  0.00000000000E+00 0.  1.
<mgrwt>
<rscale>  0 0.79482805E+02</rscale>
<asrwt>0</asrwt>
<pdfrwt beam="1">  1        2 0.23429994E+00 0.79482805E+02</pdfrwt>
<pdfrwt beam="2">  1       -1 0.15954658E-03 0.79482805E+02</pdfrwt>
<totfact> 0.33618471E+05</totfact>
</mgrwt>
</event>
<event>
 8    1  0.7667702E-014  0.8273879E+02  0.7818608E-02  0.1321454E+00
          2   -1    0    0  501    0  0.00000000000E+00  0.00000000000E+00  0.46471822563E+03  0.46471822564E+03  0.25500000000E-02 0. -1.
         -1   -1    0    0    0  501 -0.00000000000E+00 -0.00000000000E+00 -0.36827175925E+01  0.36827210412E+01  0.50400000000E-02 0.  1.
         24    2    1    2    0    0  0.00000000000E+00  0.00000000000E+00  0.46103550804E+03  0.46840094668E+03  0.82738788834E+02 0.  0.
         66    2    3    3    0    0 -0.10890391771E+02  0.33056453978E+02  0.35699862319E+03  0.35869673366E+03  0.19999979459E+01 0.  0.
        -13    1    3    3    0    0  0.10890391771E+02 -0.33056453978E+02  0.10403688485E+03  0.10970421303E+03  0.10566000000E+00 0.  1.
         13    1    4    4    0    0 -0.84187588743E+01  0.25148745688E+02  0.27419449649E+03  0.27547407860E+03  0.10566000000E+00 0. -1.
        -13    1    4    4    0    0 -0.69145018503E+00  0.20835813311E+01  0.26120757503E+02  0.26213060696E+02  0.10566000000E+00 0.  1.
        -14    1    4    4    0    0 -0.17801827115E+01  0.58241269590E+01  0.56683369204E+02  0.57009594365E+02  0.00000000000E+00 0.  1.
<mgrwt>
<rscale>  0 0.82738789E+02</rscale>
<asrwt>0</asrwt>
<pdfrwt beam="1">  1        2 0.71495138E-01 0.82738789E+02</pdfrwt>
<pdfrwt beam="2">  1       -1 0.56657200E-03 0.82738789E+02</pdfrwt>
<totfact> 0.27232573E+05</totfact>
</mgrwt>
</event>
<event>
 8    1  0.7667702E-014  0.7883099E+02  0.7818608E-02  0.1332402E+00
          2   -1    0    0  501    0  0.00000000000E+00  0.00000000000E+00  0.48049422339E+03  0.48049422340E+03  0.25500000000E-02 0. -1.
         -1   -1    0    0    0  501 -0.00000000000E+00 -0.00000000000E+00 -0.32332968471E+01  0.32333007752E+01  0.50400000000E-02 0.  1.
         24    2    1    2    0    0  0.00000000000E+00  0.00000000000E+00  0.47726092654E+03  0.48372752417E+03  0.78830994139E+02 0.  0.
         66    2    3    3    0    0  0.17090733144E+02  0.21725291735E+02  0.41098147517E+03  0.41191486304E+03  0.20000001575E+01 0.  0.
        -13    1    3    3    0    0 -0.17090733144E+02 -0.21725291735E+02  0.66279451371E+02  0.71812661129E+02  0.10566000000E+00 0.  1.
         13    1    4    4    0    0  0.67349598251E+01  0.83475342266E+01  0.16612243999E+03  0.16646836709E+03  0.10566000000E+00 0. -1.
        -13    1    4    4    0    0  0.42058794248E+01  0.43896381418E+01  0.86707477870E+02  0.86920401676E+02  0.10566000000E+00 0.  1.
        -14    1    4    4    0    0  0.61498938941E+01  0.89881193670E+01  0.15815155731E+03  0.15852609427E+03  0.00000000000E+00 0.  1.
<mgrwt>
<rscale>  0 0.78830994E+02</rscale>
<asrwt>0</asrwt>
<pdfrwt beam="1">  1        2 0.73922114E-01 0.78830994E+02</pdfrwt>
<pdfrwt beam="2">  1       -1 0.49743109E-03 0.78830994E+02</pdfrwt>
<totfact> 0.31238803E+05</totfact>
</mgrwt>
</event>
<event>
 8    1  0.7667702E-014  0.7973575E+02  0.7818608E-02  0.1329803E+00
          2   -1    0    0  501    0  0.00000000000E+00  0.00000000000E+00  0.39304601186E+03  0.39304601187E+03  0.25500000000E-02 0. -1.
         -1   -1    0    0    0  501 -0.00000000000E+00 -0.00000000000E+00 -0.40439200868E+01  0.40439232275E+01  0.50400000000E-02 0.  1.
         24    2    1    2    0    0  0.83266726847E-16  0.00000000000E+00  0.38900209177E+03  0.39708993509E+03  0.79735745751E+02 0.  0.
         66    2    3    3    0    0  0.11779821541E+00  0.14013315540E+02  0.38036418548E+03  0.38062750885E+03  0.20000013752E+01 0.  0.
        -13    1    3    3    0    0 -0.11779821541E+00 -0.14013315540E+02  0.86379062906E+01  0.16462426247E+02  0.10566000000E+00 0.  1.
         13    1    4    4    0    0  0.44722358631E+00  0.71842674021E+01  0.18383987372E+03  0.18398077085E+03  0.10566000000E+00 0. -1.
        -13    1    4    4    0    0 -0.74546345369E+00  0.35884122506E+01  0.10729597367E+03  0.10735860258E+03  0.10566000000E+00 0.  1.
        -14    1    4    4    0    0  0.41603808280E+00  0.32406358869E+01  0.89228338090E+02  0.89288135421E+02  0.00000000000E+00 0.  1.
<mgrwt>
<rscale>  0 0.79735746E+02</rscale>
<asrwt>0</asrwt>
<pdfrwt beam="1">  1        2 0.60468631E-01 0.79735746E+02</pdfrwt>
<pdfrwt beam="2">  1       -1 0.62214166E-03 0.79735746E+02</pdfrwt>
<totfact> 0.28324303E+05</totfact>
</mgrwt>
</event>
<event>
 8    1  0.7667702E-014  0.7828035E+02  0.7818608E-02  0.1334004E+00
          2   -1    0    0  501    0  0.00000000000E+00  0.00000000000E+00  0.24461053632E+03  0.24461053634E+03  0.25500000000E-02 0. -1.
         -1   -1    0    0    0  501 -0.00000000000E+00 -0.00000000000E+00 -0.62628248024E+01  0.62628268303E+01  0.50400000000E-02 0.  1.
         24    2    1    2    0    0  0.00000000000E+00  0.35527136788E-14  0.23834771152E+03  0.25087336317E+03  0.78280347211E+02 0.  0.
         66    2    3    3    0    0 -0.61672568169E+01 -0.19150732408E+02  0.22675167769E+03  0.22765128805E+03  0.20000008651E+01 0.  0.
        -13    1    3    3    0    0  0.61672568169E+01  0.19150732408E+02  0.11596033829E+02  0.23222075123E+02  0.10566000000E+00 0.  1.
         13    1    4    4    0    0 -0.16622956666E+01 -0.55225693337E+01  0.64531343642E+02  0.64788636929E+02  0.10566000000E+00 0. -1.
        -13    1    4    4    0    0 -0.37618365147E+01 -0.10535738393E+02  0.11859001950E+03  0.11911656932E+03  0.10566000000E+00 0.  1.
         14    1    4    4    0    0 -0.74312463568E+00 -0.30924246820E+01  0.43630314552E+02  0.43746081796E+02  0.00000000000E+00 0. -1.
<mgrwt>
<rscale>  0 0.78280347E+02</rscale>
<asrwt>0</asrwt>
<pdfrwt beam="1">  1        2 0.37632384E-01 0.78280347E+02</pdfrwt>
<pdfrwt beam="2">  1       -1 0.96351183E-03 0.78280347E+02</pdfrwt>
<totfact> 0.25074212E+05</totfact>
</mgrwt>
</event>
<event>
 8    1  0.7667702E-014  0.7851668E+02  0.7818608E-02  0.1333314E+00
          2   -1    0    0  501    0  0.00000000000E+00  0.00000000000E+00  0.57461240989E+03  0.57461240990E+03  0.25500000000E-02 0. -1.
         -1   -1    0    0    0  501 -0.00000000000E+00 -0.00000000000E+00 -0.26821832321E+01  0.26821879673E+01  0.50400000000E-02 0.  1.
         24    2    1    2    0    0  0.00000000000E+00  0.35527136788E-14  0.57193022666E+03  0.57729459786E+03  0.78516676934E+02 0.  0.
         66    2    3    3    0    0 -0.17158672283E+02  0.25327170649E+02  0.46674767515E+03  0.46775343705E+03  0.20000003963E+01 0.  0.
        -13    1    3    3    0    0  0.17158672283E+02 -0.25327170649E+02  0.10518255150E+03  0.10954116081E+03  0.10566000000E+00 0.  1.
         13    1    4    4    0    0 -0.45340952644E+01  0.63031242362E+01  0.10922164884E+03  0.10949733848E+03  0.10566000000E+00 0. -1.
        -13    1    4    4    0    0 -0.54641279595E+01  0.91354628263E+01  0.17049332235E+03  0.17082534211E+03  0.10566000000E+00 0.  1.
        -14    1    4    4    0    0 -0.71604490595E+01  0.98885835867E+01  0.18703270396E+03  0.18743075646E+03  0.00000000000E+00 0.  1.
<mgrwt>
<rscale>  0 0.78516677E+02</rscale>
<asrwt>0</asrwt>
<pdfrwt beam="1">  1        2 0.88401971E-01 0.78516677E+02</pdfrwt>
<pdfrwt beam="2">  1       -1 0.41264365E-03 0.78516677E+02</pdfrwt>
<totfact> 0.33355481E+05</totfact>
</mgrwt>
</event>
<event>
 8    1  0.7667702E-014  0.7713896E+02  0.7818608E-02  0.1337372E+00
          2   -1    0    0  501    0  0.00000000000E+00  0.00000000000E+00  0.10830191332E+04  0.10830191332E+04  0.25500000000E-02 0. -1.
         -1   -1    0    0    0  501 -0.00000000000E+00 -0.00000000000E+00 -0.13735674636E+01  0.13735767101E+01  0.50400000000E-02 0.  1.
         24    2    1    2    0    0 -0.17763568394E-14 -0.35527136788E-14  0.10816455658E+04  0.10843927100E+04  0.77138961853E+02 0.  0.
         66    2    3    3    0    0 -0.60729579777E+01 -0.25527762156E+02  0.93806262146E+03  0.93843168597E+03  0.19999987751E+01 0.  0.
        -13    1    3    3    0    0  0.60729579777E+01  0.25527762156E+02  0.14358294433E+03  0.14596102399E+03  0.10566000000E+00 0.  1.
         13    1    4    4    0    0 -0.41810169978E+01 -0.19554281180E+02  0.69998103525E+03  0.70026660044E+03  0.10566000000E+00 0. -1.
        -13    1    4    4    0    0 -0.70182396321E+00 -0.23717562699E+01  0.10693218573E+03  0.10696084000E+03  0.10566000000E+00 0.  1.
        -14    1    4    4    0    0 -0.11901170167E+01 -0.36017247063E+01  0.13114940047E+03  0.13120424553E+03  0.00000000000E+00 0.  1.
<mgrwt>
<rscale>  0 0.77138962E+02</rscale>
<asrwt>0</asrwt>
<pdfrwt beam="1">  1        2 0.16661888E+00 0.77138962E+02</pdfrwt>
<pdfrwt beam="2">  1       -1 0.21131809E-03 0.77138962E+02</pdfrwt>
<totfact> 0.38755629E+05</totfact>
</mgrwt>
</event>
<event>
 8    1  0.7667702E-014  0.7721762E+02  0.7818608E-02  0.1337138E+00
          2   -1    0    0  501    0  0.00000000000E+00  0.00000000000E+00  0.19752212934E+03  0.19752212936E+03  0.25500000000E-02 0. -1.
         -1   -1    0    0    0  501 -0.00000000000E+00 -0.00000000000E+00 -0.75466998348E+01  0.75467015178E+01  0.50400000000E-02 0.  1.
         24    2    1    2    0    0  0.00000000000E+00  0.00000000000E+00  0.18997542951E+03  0.20506883088E+03  0.77217624805E+02 0.  0.
         66    2    3    3    0    0  0.26109952105E+02  0.11890562322E+02  0.16356282676E+03  0.16607201281E+03  0.20000176128E+01 0.  0.
        -13    1    3    3    0    0 -0.26109952105E+02 -0.11890562322E+02  0.26412602749E+02  0.38996818066E+02  0.10566000000E+00 0.  1.
         13    1    4    4    0    0  0.12754416384E+02  0.63357058778E+01  0.79870469376E+02  0.81130261608E+02  0.10566000000E+00 0. -1.
        -13    1    4    4    0    0  0.13423305211E+01  0.89469706211E+00  0.82504482612E+01  0.84073417088E+01  0.10566000000E+00 0. -1.
         14    1    4    4    0    0  0.12013205200E+02  0.46601593820E+01  0.75441909122E+02  0.76534409494E+02  0.00000000000E+00 0. -1.
<mgrwt>
<rscale>  0 0.77217625E+02</rscale>
<asrwt>0</asrwt>
<pdfrwt beam="1">  1        2 0.30388019E-01 0.77217625E+02</pdfrwt>
<pdfrwt beam="2">  1       -1 0.11610309E-02 0.77217625E+02</pdfrwt>
<totfact> 0.24110120E+05</totfact>
</mgrwt>
</event>
<event>
 8    1  0.7667702E-014  0.7902448E+02  0.7818608E-02  0.1331843E+00
         -1   -1    0    0    0  501 -0.00000000000E+00  0.00000000000E+00  0.14390192411E+03  0.14390192420E+03  0.50400000000E-02 0.  1.
          2   -1    0    0  501    0  0.00000000000E+00 -0.00000000000E+00 -0.10849174788E+02  0.10849175088E+02  0.25500000000E-02 0. -1.
         24    2    1    2    0    0  0.00000000000E+00  0.00000000000E+00  0.13305274932E+03  0.15475109928E+03  0.79024481194E+02 0.  0.
         66    2    3    3    0    0 -0.22646888592E+02 -0.27041515439E+02  0.31808257936E+02  0.47538304713E+02  0.20000054596E+01 0.  0.
        -13    1    3    3    0    0  0.22646888592E+02  0.27041515439E+02  0.10124449138E+03  0.10721279457E+03  0.10566000000E+00 0.  1.
         13    1    4    4    0    0 -0.92032888069E+01 -0.11258410785E+02  0.13259526985E+02  0.19679394253E+02  0.10566000000E+00 0. -1.
        -13    1    4    4    0    0 -0.76003149059E+01 -0.78815759808E+01  0.10185335698E+02  0.14954472706E+02  0.10566000000E+00 0.  1.
        -14    1    4    4    0    0 -0.58432848795E+01 -0.79015286733E+01  0.83633952537E+01  0.12904437753E+02  0.00000000000E+00 0.  1.
<mgrwt>
<rscale>  0 0.79024481E+02</rscale>
<asrwt>0</asrwt>
<pdfrwt beam="1">  1        2 0.16691038E-02 0.79024481E+02</pdfrwt>
<pdfrwt beam="2">  1       -1 0.22138758E-01 0.79024481E+02</pdfrwt>
<totfact> 0.11243622E+05</totfact>
</mgrwt>
</event>
<event>
 8    1  0.7667702E-014  0.7705992E+02  0.7818608E-02  0.1337608E+00
         -1   -1    0    0    0  501 -0.00000000000E+00  0.00000000000E+00  0.28226536239E+02  0.28226536689E+02  0.50400000000E-02 0.  1.
          2   -1    0    0  501    0  0.00000000000E+00 -0.00000000000E+00 -0.52594408391E+02  0.52594408453E+02  0.25500000000E-02 0. -1.
         24    2    1    2    0    0  0.00000000000E+00  0.00000000000E+00 -0.24367872152E+02  0.80820945142E+02  0.77059924607E+02 0.  0.
         66    2    3    3    0    0 -0.32317015065E+02 -0.20630748596E+02 -0.15905522066E+02  0.41557224186E+02  0.19999998658E+01 0.  0.
        -13    1    3    3    0    0  0.32317015065E+02  0.20630748596E+02 -0.84623500857E+01  0.39263720957E+02  0.10566000000E+00 0.  1.
         13    1    4    4    0    0 -0.15649177333E+02 -0.90131863240E+01 -0.74181495247E+01  0.19523687800E+02  0.10566000000E+00 0. -1.
        -13    1    4    4    0    0 -0.15338355291E+01 -0.12106139558E+01 -0.10190272435E+01  0.22063132458E+01  0.10566000000E+00 0.  1.
         14    1    4    4    0    0 -0.15134002203E+02 -0.10406948317E+02 -0.74683452979E+01  0.19827223140E+02  0.00000000000E+00 0. -1.
<mgrwt>
<rscale>  0 0.77059925E+02</rscale>
<asrwt>0</asrwt>
<pdfrwt beam="1">  1        2 0.80914474E-02 0.77059925E+02</pdfrwt>
<pdfrwt beam="2">  1       -1 0.43425441E-02 0.77059925E+02</pdfrwt>
<totfact> 0.16734007E+05</totfact>
</mgrwt>
</event>
<event>
 8    1  0.7667702E-014  0.8066561E+02  0.7818608E-02  0.1327173E+00
         -1   -1    0    0    0  501 -0.00000000000E+00  0.00000000000E+00  0.11783926173E+01  0.11784033954E+01  0.50400000000E-02 0.  1.
          2   -1    0    0  501    0  0.00000000000E+00 -0.00000000000E+00 -0.13804632771E+04  0.13804632771E+04  0.25500000000E-02 0. -1.
         24    2    1    2    0    0  0.17763568394E-14  0.00000000000E+00 -0.13792848845E+04  0.13816416805E+04  0.80665610554E+02 0.  0.
         66    2    3    3    0    0  0.15139609911E+02  0.18819433634E+02 -0.12427857891E+04  0.12430220820E+04  0.19999985866E+01 0.  0.
        -13    1    3    3    0    0 -0.15139609911E+02 -0.18819433634E+02 -0.13649909538E+03  0.13861959845E+03  0.10566000000E+00 0.  1.
         13    1    4    4    0    0  0.48131166016E+01  0.72710137247E+01 -0.44593509937E+03  0.44602035576E+03  0.10566000000E+00 0. -1.
        -13    1    4    4    0    0  0.46662365552E+01  0.55611122719E+01 -0.35529100039E+03  0.35536517254E+03  0.10566000000E+00 0.  1.
         14    1    4    4    0    0  0.56602567545E+01  0.59873076378E+01 -0.44155968932E+03  0.44163655373E+03  0.00000000000E+00 0. -1.
<mgrwt>
<rscale>  0 0.80665611E+02</rscale>
<asrwt>0</asrwt>
<pdfrwt beam="1">  1        2 0.21237767E+00 0.80665611E+02</pdfrwt>
<pdfrwt beam="2">  1       -1 0.18129311E-03 0.80665611E+02</pdfrwt>
<totfact> 0.33417439E+05</totfact>
</mgrwt>
</event>
<event>
 8    1  0.7667702E-014  0.8184679E+02  0.7818608E-02  0.1323891E+00
         -1   -1    0    0    0  501 -0.00000000000E+00  0.00000000000E+00  0.21120852960E+01  0.21120913094E+01  0.50400000000E-02 0.  1.
          2   -1    0    0  501    0  0.00000000000E+00 -0.00000000000E+00 -0.79292332513E+03  0.79292332513E+03  0.25500000000E-02 0. -1.
         24    2    1    2    0    0  0.00000000000E+00  0.35527136788E-14 -0.79081123983E+03  0.79503541644E+03  0.81846785836E+02 0.  0.
         66    2    3    3    0    0  0.48874302125E+01  0.26865255907E+02 -0.69140541628E+03  0.69194730913E+03  0.20000004893E+01 0.  0.
        -13    1    3    3    0    0 -0.48874302125E+01 -0.26865255907E+02 -0.99405823557E+02  0.10308810732E+03  0.10566000000E+00 0.  1.
         13    1    4    4    0    0  0.21003439597E+00  0.32170375593E+01 -0.74988270055E+02  0.75057612905E+02  0.10566000000E+00 0. -1.
        -13    1    4    4    0    0  0.17497121061E+01  0.86114970233E+01 -0.24071356429E+03  0.24087393086E+03  0.10566000000E+00 0.  1.
         14    1    4    4    0    0  0.29276837104E+01  0.15036721324E+02 -0.37570358194E+03  0.37601576536E+03  0.00000000000E+00 0. -1.
<mgrwt>
<rscale>  0 0.81846786E+02</rscale>
<asrwt>0</asrwt>
<pdfrwt beam="1">  1        2 0.12198797E+00 0.81846786E+02</pdfrwt>
<pdfrwt beam="2">  1       -1 0.32493730E-03 0.81846786E+02</pdfrwt>
<totfact> 0.32334971E+05</totfact>
</mgrwt>
</event>
<event>
 8    1  0.7667702E-014  0.7983726E+02  0.7818608E-02  0.1329514E+00
         -1   -1    0    0    0  501 -0.00000000000E+00  0.00000000000E+00  0.83409693515E+01  0.83409708742E+01  0.50400000000E-02 0.  1.
          2   -1    0    0  501    0  0.00000000000E+00 -0.00000000000E+00 -0.19104458612E+03  0.19104458614E+03  0.25500000000E-02 0. -1.
         24    2    1    2    0    0  0.00000000000E+00  0.35527136788E-14 -0.18270361677E+03  0.19938555702E+03  0.79837264260E+02 0.  0.
         66    2    3    3    0    0 -0.19469283534E+02  0.19532880337E+02 -0.16339761288E+03  0.16572074800E+03  0.20000020335E+01 0.  0.
        -13    1    3    3    0    0  0.19469283534E+02 -0.19532880337E+02 -0.19306003895E+02  0.33664809015E+02  0.10566000000E+00 0.  1.
         13    1    4    4    0    0 -0.14204984604E+02  0.13712194672E+02 -0.11423323649E+03  0.11592691385E+03  0.10566000000E+00 0. -1.
        -13    1    4    4    0    0 -0.41405148914E+01  0.50340859758E+01 -0.40218849302E+02  0.40743746617E+02  0.10566000000E+00 0.  1.
        -14    1    4    4    0    0 -0.11237840386E+01  0.78659968891E+00 -0.89455270801E+01  0.90500875343E+01  0.00000000000E+00 0.  1.
<mgrwt>
<rscale>  0 0.79837264E+02</rscale>
<asrwt>0</asrwt>
<pdfrwt beam="1">  1        2 0.29391472E-01 0.79837264E+02</pdfrwt>
<pdfrwt beam="2">  1       -1 0.12832263E-02 0.79837264E+02</pdfrwt>
<totfact> 0.21829023E+05</totfact>
</mgrwt>
</event>
<event>
 8    1  0.7667702E-014  0.8019876E+02  0.7818608E-02  0.1328488E+00
          2   -1    0    0  501    0  0.00000000000E+00  0.00000000000E+00  0.19691801954E+03  0.19691801956E+03  0.25500000000E-02 0. -1.
         -1   -1    0    0    0  501 -0.00000000000E+00 -0.00000000000E+00 -0.81656319567E+01  0.81656335121E+01  0.50400000000E-02 0.  1.
         24    2    1    2    0    0  0.00000000000E+00  0.00000000000E+00  0.18875238759E+03  0.20508365307E+03  0.80198758953E+02 0.  0.
         66    2    3    3    0    0 -0.37424458105E+02 -0.63728112441E+01  0.61611639160E+02  0.72396110846E+02  0.19999994777E+01 0.  0.
        -13    1    3    3    0    0  0.37424458105E+02  0.63728112441E+01  0.12714074843E+03  0.13268754223E+03  0.10566000000E+00 0.  1.
         13    1    4    4    0    0 -0.25537327041E+02 -0.42518356523E+01  0.43133702082E+02  0.50306665544E+02  0.10566000000E+00 0. -1.
        -13    1    4    4    0    0 -0.31867612247E+01 -0.42937953713E+00  0.55465814465E+01  0.64121403344E+01  0.10566000000E+00 0. -1.
         14    1    4    4    0    0 -0.87003698399E+01 -0.16915960547E+01  0.12931355632E+02  0.15677304968E+02  0.00000000000E+00 0. -1.
<mgrwt>
<rscale>  0 0.80198759E+02</rscale>
<asrwt>0</asrwt>
<pdfrwt beam="1">  1        2 0.30295076E-01 0.80198759E+02</pdfrwt>
<pdfrwt beam="2">  1       -1 0.12562514E-02 0.80198759E+02</pdfrwt>
<totfact> 0.21796849E+05</totfact>
</mgrwt>
</event>
<event>
 8    1  0.7667702E-014  0.8087665E+02  0.7818608E-02  0.1326582E+00
         -1   -1    0    0    0  501 -0.00000000000E+00  0.00000000000E+00  0.24667375646E+01  0.24667427134E+01  0.50400000000E-02 0.  1.
          2   -1    0    0  501    0  0.00000000000E+00 -0.00000000000E+00 -0.66292273041E+03  0.66292273042E+03  0.25500000000E-02 0. -1.
         24    2    1    2    0    0  0.00000000000E+00  0.00000000000E+00 -0.66045599285E+03  0.66538947313E+03  0.80876649687E+02 0.  0.
         66    2    3    3    0    0  0.25751170600E+01  0.35913413471E+02 -0.48142702144E+03  0.48277570514E+03  0.19999996795E+01 0.  0.
        -13    1    3    3    0    0 -0.25751170600E+01 -0.35913413471E+02 -0.17902897140E+03  0.18261376799E+03  0.10566000000E+00 0.  1.
         13    1    4    4    0    0  0.12132791682E+01  0.16545312729E+02 -0.21979420202E+03  0.22041942252E+03  0.10566000000E+00 0. -1.
        -13    1    4    4    0    0  0.57236957929E+00  0.11572194288E+02 -0.16494821409E+03  0.16535467270E+03  0.10566000000E+00 0.  1.
        -14    1    4    4    0    0  0.78946831252E+00  0.77959064537E+01 -0.96684605334E+02  0.97001609916E+02  0.00000000000E+00 0.  1.
<mgrwt>
<rscale>  0 0.80876650E+02</rscale>
<asrwt>0</asrwt>
<pdfrwt beam="1">  1        2 0.10198797E+00 0.80876650E+02</pdfrwt>
<pdfrwt beam="2">  1       -1 0.37949901E-03 0.80876650E+02</pdfrwt>
<totfact> 0.32097049E+05</totfact>
</mgrwt>
</event>
<event>
 8    1  0.7667702E-014  0.8019921E+02  0.7818608E-02  0.1328487E+00
         -1   -1    0    0    0  501 -0.00000000000E+00  0.00000000000E+00  0.18606327255E+01  0.18606395516E+01  0.50400000000E-02 0.  1.
          2   -1    0    0  501    0  0.00000000000E+00 -0.00000000000E+00 -0.86420885087E+03  0.86420885087E+03  0.25500000000E-02 0. -1.
         24    2    1    2    0    0 -0.35527136788E-14  0.44408920985E-15 -0.86234821815E+03  0.86606949043E+03  0.80199207656E+02 0.  0.
         66    2    3    3    0    0  0.23748198393E+02 -0.30178409328E+01 -0.77850543916E+03  0.77887598698E+03  0.20000012954E+01 0.  0.
        -13    1    3    3    0    0 -0.23748198393E+02  0.30178409328E+01 -0.83842778985E+02  0.87193503444E+02  0.10566000000E+00 0.  1.
         13    1    4    4    0    0  0.10116268890E+02 -0.15062836235E+01 -0.31883265831E+03  0.31899668173E+03  0.10566000000E+00 0. -1.
        -13    1    4    4    0    0  0.12568105648E+02 -0.14389728663E+01 -0.43411879789E+03  0.43430308515E+03  0.10566000000E+00 0.  1.
        -14    1    4    4    0    0  0.10638238547E+01 -0.72584442990E-01 -0.25553982956E+02  0.25576220101E+02  0.00000000000E+00 0.  1.
<mgrwt>
<rscale>  0 0.80199208E+02</rscale>
<asrwt>0</asrwt>
<pdfrwt beam="1">  1        2 0.13295489E+00 0.80199208E+02</pdfrwt>
<pdfrwt beam="2">  1       -1 0.28625240E-03 0.80199208E+02</pdfrwt>
<totfact> 0.34550568E+05</totfact>
</mgrwt>
</event>
<event>
 8    1  0.7667702E-014  0.8111201E+02  0.7818608E-02  0.1325925E+00
          2   -1    0    0  501    0  0.00000000000E+00  0.00000000000E+00  0.11482591723E+03  0.11482591726E+03  0.25500000000E-02 0. -1.
         -1   -1    0    0    0  501 -0.00000000000E+00 -0.00000000000E+00 -0.14324199667E+02  0.14324200553E+02  0.50400000000E-02 0.  1.
         24    2    1    2    0    0  0.00000000000E+00 -0.35527136788E-14  0.10050171756E+03  0.12915011781E+03  0.81112007111E+02 0.  0.
         66    2    3    3    0    0  0.16789799198E+02 -0.31666047521E+02  0.80414246619E+02  0.88062971699E+02  0.20000006305E+01 0.  0.
        -13    1    3    3    0    0 -0.16789799198E+02  0.31666047521E+02  0.20087470945E+02  0.41087146113E+02  0.10566000000E+00 0.  1.
         13    1    4    4    0    0  0.73847993782E+01 -0.13973299335E+02  0.35567935726E+02  0.38921428186E+02  0.10566000000E+00 0.  1.
        -13    1    4    4    0    0  0.36638173622E+01 -0.59846439502E+01  0.17085555444E+02  0.18470703553E+02  0.10566000000E+00 0. -1.
        -14    1    4    4    0    0  0.57411824572E+01 -0.11708104236E+02  0.27760755448E+02  0.30670839960E+02  0.00000000000E+00 0.  1.
<mgrwt>
<rscale>  0 0.81112007E+02</rscale>
<asrwt>0</asrwt>
<pdfrwt beam="1">  1        2 0.17665526E-01 0.81112007E+02</pdfrwt>
<pdfrwt beam="2">  1       -1 0.22037231E-02 0.81112007E+02</pdfrwt>
<totfact> 0.17775867E+05</totfact>
</mgrwt>
</event>
<event>
 8    1  0.7667702E-014  0.8013206E+02  0.7818608E-02  0.1328677E+00
         -1   -1    0    0    0  501 -0.00000000000E+00  0.00000000000E+00  0.29800457054E+02  0.29800457480E+02  0.50400000000E-02 0.  1.
          2   -1    0    0  501    0  0.00000000000E+00 -0.00000000000E+00 -0.53867851292E+02  0.53867851352E+02  0.25500000000E-02 0. -1.
         24    2    1    2    0    0 -0.71054273576E-14  0.00000000000E+00 -0.24067394238E+02  0.83668308833E+02  0.80132056242E+02 0.  0.
         66    2    3    3    0    0  0.34616014727E+02  0.38912772565E+01 -0.32657686200E+02  0.47790533061E+02  0.20000170174E+01 0.  0.
        -13    1    3    3    0    0 -0.34616014727E+02 -0.38912772565E+01  0.85902919625E+01  0.35877775771E+02  0.10566000000E+00 0.  1.
         13    1    4    4    0    0  0.18909380034E+02  0.20996106127E+01 -0.16805982591E+02  0.25385531959E+02  0.10566000000E+00 0. -1.
        -13    1    4    4    0    0  0.66567412886E+01  0.37712997972E+00 -0.69764560679E+01  0.96507271699E+01  0.10566000000E+00 0.  1.
         14    1    4    4    0    0  0.90498934047E+01  0.14145366641E+01 -0.88752475417E+01  0.12754273932E+02  0.00000000000E+00 0. -1.
<mgrwt>
<rscale>  0 0.80132056E+02</rscale>
<asrwt>0</asrwt>
<pdfrwt beam="1">  1        2 0.82873617E-02 0.80132056E+02</pdfrwt>
<pdfrwt beam="2">  1       -1 0.45846858E-02 0.80132056E+02</pdfrwt>
<totfact> 0.15121890E+05</totfact>
</mgrwt>
</event>
<event>
 8    1  0.7667702E-014  0.7752901E+02  0.7818608E-02  0.1336214E+00
         -1   -1    0    0    0  501 -0.00000000000E+00  0.00000000000E+00  0.29859394379E+02  0.29859394804E+02  0.50400000000E-02 0.  1.
          2   -1    0    0  501    0  0.00000000000E+00 -0.00000000000E+00 -0.50325422510E+02  0.50325422575E+02  0.25500000000E-02 0. -1.
         24    2    1    2    0    0  0.00000000000E+00  0.00000000000E+00 -0.20466028131E+02  0.80184817379E+02  0.77529005093E+02 0.  0.
         66    2    3    3    0    0 -0.11154435975E+02 -0.34549957862E+02 -0.24214154092E+02  0.43685767495E+02  0.19999982702E+01 0.  0.
        -13    1    3    3    0    0  0.11154435975E+02  0.34549957862E+02  0.37481259604E+01  0.36499049884E+02  0.10566000000E+00 0.  1.
         13    1    4    4    0    0 -0.72345332575E+01 -0.22722071909E+02 -0.15548229592E+02  0.28467343234E+02  0.10566000000E+00 0. -1.
        -13    1    4    4    0    0  0.23213061437E-01 -0.60607827969E+00 -0.43073493323E+00  0.75137630096E+00  0.10566000000E+00 0.  1.
        -14    1    4    4    0    0 -0.39431157789E+01 -0.11221807673E+02 -0.82351895664E+01  0.14467047960E+02  0.00000000000E+00 0.  1.
<mgrwt>
<rscale>  0 0.77529005E+02</rscale>
<asrwt>0</asrwt>
<pdfrwt beam="1">  1        2 0.77423727E-02 0.77529005E+02</pdfrwt>
<pdfrwt beam="2">  1       -1 0.45937531E-02 0.77529005E+02</pdfrwt>
<totfact> 0.16303616E+05</totfact>
</mgrwt>
</event>
<event>
 8    1  0.7667702E-014  0.7983527E+02  0.7818608E-02  0.1329520E+00
          2   -1    0    0  501    0  0.00000000000E+00  0.00000000000E+00  0.69105443143E+03  0.69105443143E+03  0.25500000000E-02 0. -1.
         -1   -1    0    0    0  501 -0.00000000000E+00 -0.00000000000E+00 -0.23057744097E+01  0.23057799180E+01  0.50400000000E-02 0.  1.
         24    2    1    2    0    0 -0.22204460493E-15  0.00000000000E+00  0.68874865702E+03  0.69336021135E+03  0.79835268772E+02 0.  0.
         66    2    3    3    0    0 -0.12048828565E+01  0.28052863612E+02  0.59069531961E+03  0.59136568679E+03  0.20000007754E+01 0.  0.
        -13    1    3    3    0    0  0.12048828565E+01 -0.28052863612E+02  0.98053337403E+02  0.10199452456E+03  0.10566000000E+00 0.  1.
         13    1    4    4    0    0 -0.47956663627E+00  0.11984031252E+02  0.24021384508E+03  0.24051309636E+03  0.10566000000E+00 0. -1.
        -13    1    4    4    0    0  0.25215046473E+00  0.11775336010E+01  0.25314821942E+02  0.25343668622E+02  0.10566000000E+00 0.  1.
        -14    1    4    4    0    0 -0.97746668497E+00  0.14891298759E+02  0.32516665259E+03  0.32550892181E+03  0.00000000000E+00 0.  1.
<mgrwt>
<rscale>  0 0.79835269E+02</rscale>
<asrwt>0</asrwt>
<pdfrwt beam="1">  1        2 0.10631627E+00 0.79835269E+02</pdfrwt>
<pdfrwt beam="2">  1       -1 0.35473427E-03 0.79835269E+02</pdfrwt>
<totfact> 0.33531584E+05</totfact>
</mgrwt>
</event>
<event>
 8    1  0.7667702E-014  0.8016202E+02  0.7818608E-02  0.1328592E+00
          2   -1    0    0  501    0  0.00000000000E+00  0.00000000000E+00  0.80227439677E+03  0.80227439678E+03  0.25500000000E-02 0. -1.
         -1   -1    0    0    0  501 -0.00000000000E+00 -0.00000000000E+00 -0.20024130355E+01  0.20024193782E+01  0.50400000000E-02 0.  1.
         24    2    1    2    0    0 -0.35527136788E-14  0.00000000000E+00  0.80027198374E+03  0.80427681615E+03  0.80162017501E+02 0.  0.
         66    2    3    3    0    0 -0.18995778883E+02  0.22417495457E+02  0.67351782913E+03  0.67416144199E+03  0.20000005858E+01 0.  0.
        -13    1    3    3    0    0  0.18995778883E+02 -0.22417495457E+02  0.12675415461E+03  0.13011537416E+03  0.10566000000E+00 0.  1.
         13    1    4    4    0    0 -0.13931496507E+02  0.16851290810E+02  0.51743359872E+03  0.51789534932E+03  0.10566000000E+00 0. -1.
        -13    1    4    4    0    0 -0.77241146622E+00  0.95900001022E+00  0.27658716526E+02  0.27686315472E+02  0.10566000000E+00 0. -1.
         14    1    4    4    0    0 -0.42918709097E+01  0.46072046366E+01  0.12842551388E+03  0.12857977720E+03  0.00000000000E+00 0. -1.
<mgrwt>
<rscale>  0 0.80162018E+02</rscale>
<asrwt>0</asrwt>
<pdfrwt beam="1">  1        2 0.12342703E+00 0.80162018E+02</pdfrwt>
<pdfrwt beam="2">  1       -1 0.30806353E-03 0.80162018E+02</pdfrwt>
<totfact> 0.34202183E+05</totfact>
</mgrwt>
</event>
<event>
 8    1  0.1083989E-013  0.8271048E+02  0.7818608E-02  0.1321531E+00
         -1   -1    0    0    0  501 -0.00000000000E+00  0.00000000000E+00  0.60313608740E+01  0.60313629798E+01  0.50400000000E-02 0.  1.
          2   -1    0    0  501    0  0.00000000000E+00 -0.00000000000E+00 -0.28356049450E+03  0.28356049451E+03  0.25500000000E-02 0. -1.
         24    2    1    2    0    0  0.17763568394E-14  0.44408920985E-15 -0.27752913363E+03  0.28959185749E+03  0.82710482492E+02 0.  0.
         66    2    3    3    0    0  0.15451681382E+02  0.36130883963E+01 -0.27246576594E+03  0.27293479528E+03  0.19999992576E+01 0.  0.
        -13    1    3    3    0    0 -0.15451681382E+02 -0.36130883963E+01 -0.50633676842E+01  0.16657062215E+02  0.10566000000E+00 0.  1.
         13    1    4    4    0    0  0.65083614508E+01  0.14329125416E+01 -0.11945515805E+03  0.11964095434E+03  0.10566000000E+00 0. -1.
        -13    1    4    4    0    0  0.69236652743E+01  0.22460187331E+01 -0.12309286451E+03  0.12330793242E+03  0.10566000000E+00 0.  1.
        -14    1    4    4    0    0  0.20196546568E+01 -0.65842878504E-01 -0.29917743386E+02  0.29985908516E+02  0.00000000000E+00 0.  1.
<mgrwt>
<rscale>  0 0.82710482E+02</rscale>
<asrwt>0</asrwt>
<pdfrwt beam="1">  1        2 0.43624681E-01 0.82710482E+02</pdfrwt>
<pdfrwt beam="2">  1       -1 0.92790206E-03 0.82710482E+02</pdfrwt>
<totfact> 0.22884844E+05</totfact>
</mgrwt>
</event>
<event>
 8    1  0.7667702E-014  0.7561124E+02  0.7818608E-02  0.1341989E+00
          2   -1    0    0  501    0  0.00000000000E+00  0.00000000000E+00  0.97916315568E+03  0.97916315568E+03  0.25500000000E-02 0. -1.
         -1   -1    0    0    0  501 -0.00000000000E+00 -0.00000000000E+00 -0.14596755161E+01  0.14596842171E+01  0.50400000000E-02 0.  1.
         24    2    1    2    0    0  0.00000000000E+00 -0.17763568394E-14  0.97770348016E+03  0.98062283990E+03  0.75611236002E+02 0.  0.
         66    2    3    3    0    0  0.23922503384E+01 -0.11368678874E+02  0.95541795035E+03  0.95549067477E+03  0.19999999202E+01 0.  0.
        -13    1    3    3    0    0 -0.23922503384E+01  0.11368678874E+02  0.22285529810E+02  0.25132165127E+02  0.10566000000E+00 0.  1.
         13    1    4    4    0    0  0.92896182992E+00 -0.28665400396E+01  0.24721506480E+03  0.24723345131E+03  0.10566000000E+00 0. -1.
        -13    1    4    4    0    0  0.37262107475E+00 -0.51090048552E+01  0.36794934514E+03  0.36798501672E+03  0.10566000000E+00 0.  1.
         14    1    4    4    0    0  0.10906674337E+01 -0.33931339791E+01  0.34025354042E+03  0.34027220674E+03  0.00000000000E+00 0. -1.
<mgrwt>
<rscale>  0 0.75611236E+02</rscale>
<asrwt>0</asrwt>
<pdfrwt beam="1">  1        2 0.15064022E+00 0.75611236E+02</pdfrwt>
<pdfrwt beam="2">  1       -1 0.22456653E-03 0.75611236E+02</pdfrwt>
<totfact> 0.40729491E+05</totfact>
</mgrwt>
</event>
<event>
 8    1  0.7667702E-014  0.8154587E+02  0.7818608E-02  0.1324721E+00
          2   -1    0    0  501    0  0.00000000000E+00  0.00000000000E+00  0.25076290925E+03  0.25076290927E+03  0.25500000000E-02 0. -1.
         -1   -1    0    0    0  501 -0.00000000000E+00 -0.00000000000E+00 -0.66294970038E+01  0.66294989196E+01  0.50400000000E-02 0.  1.
         24    2    1    2    0    0 -0.17763568394E-14  0.17763568394E-14  0.24413341225E+03  0.25739240819E+03  0.81545869394E+02 0.  0.
         66    2    3    3    0    0 -0.13371101610E+02  0.76669754361E+01  0.24120231861E+03  0.24170255973E+03  0.20000014467E+01 0.  0.
        -13    1    3    3    0    0  0.13371101610E+02 -0.76669754361E+01  0.29310936369E+01  0.15689848455E+02  0.10566000000E+00 0.  1.
         13    1    4    4    0    0 -0.54338701903E+01  0.32058197734E+01  0.96211121196E+02  0.96417815945E+02  0.10566000000E+00 0. -1.
        -13    1    4    4    0    0 -0.80537703513E+00  0.23267721228E+00  0.84799006838E+01  0.85218924246E+01  0.10566000000E+00 0.  1.
         14    1    4    4    0    0 -0.71318543843E+01  0.42284784504E+01  0.13651129673E+03  0.13676285136E+03  0.00000000000E+00 0. -1.
<mgrwt>
<rscale>  0 0.81545869E+02</rscale>
<asrwt>0</asrwt>
<pdfrwt beam="1">  1        2 0.38578907E-01 0.81545869E+02</pdfrwt>
<pdfrwt beam="2">  1       -1 0.10199228E-02 0.81545869E+02</pdfrwt>
<totfact> 0.22720850E+05</totfact>
</mgrwt>
</event>
<event>
 8    1  0.7667702E-014  0.7034693E+02  0.7818608E-02  0.1358917E+00
          2   -1    0    0  501    0  0.00000000000E+00  0.00000000000E+00  0.60190458099E+03  0.60190458099E+03  0.25500000000E-02 0. -1.
         -1   -1    0    0    0  501 -0.00000000000E+00 -0.00000000000E+00 -0.20554267417E+01  0.20554329208E+01  0.50400000000E-02 0.  1.
         24    2    1    2    0    0  0.00000000000E+00  0.00000000000E+00  0.59984915425E+03  0.60396001391E+03  0.70346929978E+02 0.  0.
         66    2    3    3    0    0 -0.16510697996E+02 -0.28207238915E+02  0.41108700271E+03  0.41238910669E+03  0.20000123648E+01 0.  0.
        -13    1    3    3    0    0  0.16510697996E+02  0.28207238915E+02  0.18876215154E+03  0.19157090722E+03  0.10566000000E+00 0.  1.
         13    1    4    4    0    0 -0.33262629125E+01 -0.60684669391E+01  0.79100971926E+02  0.79403181546E+02  0.10566000000E+00 0.  1.
        -13    1    4    4    0    0 -0.64565862664E+01 -0.11714476749E+02  0.16993724128E+03  0.17046288045E+03  0.10566000000E+00 0. -1.
         14    1    4    4    0    0 -0.67278488169E+01 -0.10424295227E+02  0.16204878950E+03  0.16252304470E+03  0.00000000000E+00 0. -1.
<mgrwt>
<rscale>  0 0.70346930E+02</rscale>
<asrwt>0</asrwt>
<pdfrwt beam="1">  1        2 0.92600791E-01 0.70346930E+02</pdfrwt>
<pdfrwt beam="2">  1       -1 0.31621968E-03 0.70346930E+02</pdfrwt>
<totfact> 0.44882889E+05</totfact>
</mgrwt>
</event>
<event>
 8    1  0.7667702E-014  0.7858899E+02  0.7818608E-02  0.1333104E+00
          2   -1    0    0  501    0  0.00000000000E+00  0.00000000000E+00  0.10595168067E+03  0.10595168070E+03  0.25500000000E-02 0. -1.
         -1   -1    0    0    0  501 -0.00000000000E+00 -0.00000000000E+00 -0.14573222949E+02  0.14573223820E+02  0.50400000000E-02 0.  1.
         24    2    1    2    0    0  0.17763568394E-14  0.71054273576E-14  0.91378457717E+02  0.12052490452E+03  0.78588994611E+02 0.  0.
         66    2    3    3    0    0 -0.87613063814E+01 -0.37671742491E+02  0.35302381537E+02  0.52403996158E+02  0.19999998221E+01 0.  0.
        -13    1    3    3    0    0  0.87613063814E+01  0.37671742491E+02  0.56076076181E+02  0.68120908359E+02  0.10566000000E+00 0.  1.
         13    1    4    4    0    0 -0.31220740257E+01 -0.14293225465E+02  0.13225760626E+02  0.19722463046E+02  0.10566000000E+00 0. -1.
        -13    1    4    4    0    0 -0.43155284852E+01 -0.14929546014E+02  0.13930971781E+02  0.20870991091E+02  0.10566000000E+00 0.  1.
        -14    1    4    4    0    0 -0.13237038705E+01 -0.84489710118E+01  0.81456491289E+01  0.11810542021E+02  0.00000000000E+00 0.  1.
<mgrwt>
<rscale>  0 0.78588995E+02</rscale>
<asrwt>0</asrwt>
<pdfrwt beam="1">  1        2 0.16300258E-01 0.78588995E+02</pdfrwt>
<pdfrwt beam="2">  1       -1 0.22420344E-02 0.78588995E+02</pdfrwt>
<totfact> 0.18895658E+05</totfact>
</mgrwt>
</event>
<event>
 8    1  0.7667702E-014  0.8047997E+02  0.7818608E-02  0.1327695E+00
          2   -1    0    0  501    0  0.00000000000E+00  0.00000000000E+00  0.19398477772E+03  0.19398477774E+03  0.25500000000E-02 0. -1.
         -1   -1    0    0    0  501 -0.00000000000E+00 -0.00000000000E+00 -0.83473370232E+01  0.83473385447E+01  0.50400000000E-02 0.  1.
         24    2    1    2    0    0  0.00000000000E+00  0.17763568394E-14  0.18563744070E+03  0.20233211628E+03  0.80479971984E+02 0.  0.
         66    2    3    3    0    0 -0.14568867032E+02 -0.15321566814E+02  0.17887939398E+03  0.18013561530E+03  0.20000036303E+01 0.  0.
        -13    1    3    3    0    0  0.14568867032E+02  0.15321566814E+02  0.67580467201E+01  0.22196500980E+02  0.10566000000E+00 0.  1.
         13    1    4    4    0    0 -0.72245656741E+01 -0.76008050472E+01  0.85198956248E+02  0.85841947184E+02  0.10566000000E+00 0. -1.
        -13    1    4    4    0    0 -0.63466340073E-01 -0.93544846920E-01  0.68051079343E+00  0.69788078515E+00  0.10566000000E+00 0. -1.
         14    1    4    4    0    0 -0.72808350174E+01 -0.76272169201E+01  0.92999926938E+02  0.93595787335E+02  0.00000000000E+00 0. -1.
<mgrwt>
<rscale>  0 0.80479972E+02</rscale>
<asrwt>0</asrwt>
<pdfrwt beam="1">  1        2 0.29843812E-01 0.80479972E+02</pdfrwt>
<pdfrwt beam="2">  1       -1 0.12842058E-02 0.80479972E+02</pdfrwt>
<totfact> 0.21484465E+05</totfact>
</mgrwt>
</event>
<event>
 8    1  0.7667702E-014  0.8147925E+02  0.7818608E-02  0.1324905E+00
          2   -1    0    0  501    0  0.00000000000E+00  0.00000000000E+00  0.23055259755E+02  0.23055259896E+02  0.25500000000E-02 0. -1.
         -1   -1    0    0    0  501 -0.00000000000E+00 -0.00000000000E+00 -0.71988652378E+02  0.71988652554E+02  0.50400000000E-02 0.  1.
         24    2    1    2    0    0  0.00000000000E+00 -0.71054273576E-14 -0.48933392623E+02  0.95043912450E+02  0.81479251226E+02 0.  0.
         66    2    3    3    0    0  0.21457787337E+02  0.33628809869E+02 -0.33985067869E+02  0.52443477387E+02  0.19999979432E+01 0.  0.
        -13    1    3    3    0    0 -0.21457787337E+02 -0.33628809869E+02 -0.14948324753E+02  0.42600435063E+02  0.10566000000E+00 0.  1.
         13    1    4    4    0    0  0.75000890353E+01  0.11407339511E+02 -0.11702911075E+02  0.17981880378E+02  0.10566000000E+00 0.  1.
        -13    1    4    4    0    0  0.13236977422E+02  0.21069118386E+02 -0.20630936890E+02  0.32322933682E+02  0.10566000000E+00 0. -1.
         14    1    4    4    0    0  0.72072087943E+00  0.11523519715E+01 -0.16512199047E+01  0.21386633269E+01  0.00000000000E+00 0. -1.
<mgrwt>
<rscale>  0 0.81479251E+02</rscale>
<asrwt>0</asrwt>
<pdfrwt beam="1">  1        2 0.35469631E-02 0.81479251E+02</pdfrwt>
<pdfrwt beam="2">  1       -1 0.11075177E-01 0.81479251E+02</pdfrwt>
<totfact> 0.12124045E+05</totfact>
</mgrwt>
</event>
<event>
 8    1  0.7667702E-014  0.8176173E+02  0.7818608E-02  0.1324125E+00
          2   -1    0    0  501    0  0.00000000000E+00  0.00000000000E+00  0.12020130775E+02  0.12020131046E+02  0.25500000000E-02 0. -1.
         -1   -1    0    0    0  501 -0.00000000000E+00 -0.00000000000E+00 -0.13903718998E+03  0.13903719007E+03  0.50400000000E-02 0.  1.
         24    2    1    2    0    0 -0.71054273576E-14  0.00000000000E+00 -0.12701705921E+03  0.15105732112E+03  0.81761732701E+02 0.  0.
         66    2    3    3    0    0 -0.33345940427E+02 -0.16719822523E+02 -0.32756557438E+02  0.49683963841E+02  0.19999999010E+01 0.  0.
        -13    1    3    3    0    0  0.33345940427E+02  0.16719822523E+02 -0.94260501771E+02  0.10137335728E+03  0.10566000000E+00 0.  1.
         13    1    4    4    0    0 -0.11088701410E+02 -0.59988310026E+01 -0.11936854845E+02  0.17362169795E+02  0.10566000000E+00 0. -1.
        -13    1    4    4    0    0 -0.24625063713E+01 -0.89992076773E+00 -0.20800656822E+01  0.33483775615E+01  0.10566000000E+00 0.  1.
         14    1    4    4    0    0 -0.19794732645E+02 -0.98210707531E+01 -0.18739636911E+02  0.28973416484E+02  0.00000000000E+00 0. -1.
<mgrwt>
<rscale>  0 0.81761733E+02</rscale>
<asrwt>0</asrwt>
<pdfrwt beam="1">  1        2 0.18492510E-02 0.81761733E+02</pdfrwt>
<pdfrwt beam="2">  1       -1 0.21390336E-01 0.81761733E+02</pdfrwt>
<totfact> 0.10406195E+05</totfact>
</mgrwt>
</event>
<event>
 8    1  0.7667702E-014  0.8192379E+02  0.7818608E-02  0.1323679E+00
         -1   -1    0    0    0  501 -0.00000000000E+00  0.00000000000E+00  0.79106814312E+01  0.79106830367E+01  0.50400000000E-02 0.  1.
          2   -1    0    0  501    0  0.00000000000E+00 -0.00000000000E+00 -0.21210264743E+03  0.21210264745E+03  0.25500000000E-02 0. -1.
         24    2    1    2    0    0  0.00000000000E+00  0.35527136788E-14 -0.20419196600E+03  0.22001333049E+03  0.81923785383E+02 0.  0.
         66    2    3    3    0    0 -0.97837783013E+01  0.19346566615E+02 -0.19541493601E+03  0.19662403000E+03  0.20000003062E+01 0.  0.
        -13    1    3    3    0    0  0.97837783013E+01 -0.19346566615E+02 -0.87770299958E+01  0.23389300486E+02  0.10566000000E+00 0.  1.
         13    1    4    4    0    0 -0.30623550247E+01  0.53206328093E+01 -0.48283340894E+02  0.48672161691E+02  0.10566000000E+00 0.  1.
        -13    1    4    4    0    0 -0.55303772846E+01  0.11682039012E+02 -0.12339432159E+03  0.12406943569E+03  0.10566000000E+00 0. -1.
        -14    1    4    4    0    0 -0.11910459921E+01  0.23438947934E+01 -0.23737273526E+02  0.23882432619E+02  0.00000000000E+00 0.  1.
<mgrwt>
<rscale>  0 0.81923785E+02</rscale>
<asrwt>0</asrwt>
<pdfrwt beam="1">  1        2 0.32631172E-01 0.81923785E+02</pdfrwt>
<pdfrwt beam="2">  1       -1 0.12170282E-02 0.81923785E+02</pdfrwt>
<totfact> 0.21146987E+05</totfact>
</mgrwt>
</event>
