<event>
 8    1  0.1241100E-024  0.7993438E+02  0.7818608E-02  0.1329238E+00
          1   -1    0    0  501    0  0.00000000000E+00  0.00000000000E+00  0.11513642328E+03  0.11513642339E+03  0.50400000000E-02 0. -1.
         -2   -1    0    0    0  501 -0.00000000000E+00 -0.00000000000E+00 -0.13873771235E+02  0.13873771469E+02  0.25500000000E-02 0.  1.
        -24    2    1    2    0    0  0.00000000000E+00  0.00000000000E+00  0.10126265204E+03  0.12901019486E+03  0.79934383581E+02 0.  0.
         66    2    3    3    0    0 -0.18706810589E+02 -0.23638293006E+02  0.83707045435E+01  0.31349359653E+02  0.19999993518E+01 0.  0.
         13    1    3    3    0    0  0.18706810589E+02  0.23638293006E+02  0.92891947500E+02  0.97660835206E+02  0.10566000000E+00 0. -1.
         13    1    4    4    0    0 -0.41033864182E+01 -0.53643135089E+01  0.24753260999E+01  0.71938892718E+01  0.10566000000E+00 0. -1.
        -13    1    4    4    0    0 -0.96040415814E+01 -0.12568843949E+02  0.44597492500E+01  0.16435144669E+02  0.10566000000E+00 0.  1.
        -14    1    4    4    0    0 -0.49993825891E+01 -0.57051355491E+01  0.14356291936E+01  0.77203257112E+01  0.00000000000E+00 0.  1.
<mgrwt>
<rscale>  0 0.79934384E+02</rscale>
<asrwt>0</asrwt>
<pdfrwt beam="1">  1        1 0.17713296E-01 0.79934384E+02</pdfrwt>
<pdfrwt beam="2">  1       -2 0.21344264E-02 0.79934384E+02</pdfrwt>
<totfact> 0.15090644E+05</totfact>
</mgrwt>
</event>
<event>
 8    1  0.1241100E-024  0.7831752E+02  0.7818608E-02  0.1333895E+00
          1   -1    0    0  501    0  0.00000000000E+00  0.00000000000E+00  0.17636009614E+02  0.17636010335E+02  0.50400000000E-02 0. -1.
         -2   -1    0    0    0  501 -0.00000000000E+00 -0.00000000000E+00 -0.86947578925E+02  0.86947578962E+02  0.25500000000E-02 0.  1.
        -24    2    1    2    0    0  0.00000000000E+00  0.00000000000E+00 -0.69311569310E+02  0.10458358930E+03  0.78317517261E+02 0.  0.
         66    2    3    3    0    0  0.37499204149E+02  0.52044110655E+01 -0.47906481445E+02  0.61092611417E+02  0.19999997287E+01 0.  0.
         13    1    3    3    0    0 -0.37499204149E+02 -0.52044110655E+01 -0.21405087865E+02  0.43490977880E+02  0.10566000000E+00 0. -1.
         13    1    4    4    0    0  0.17144182203E+02  0.23000120829E+01 -0.21433360913E+02  0.27542933087E+02  0.10566000000E+00 0. -1.
        -13    1    4    4    0    0  0.14325114800E+02  0.14524473900E+01 -0.18059905708E+02  0.23097399760E+02  0.10566000000E+00 0.  1.
         14    1    4    4    0    0  0.60299071469E+01  0.14519515926E+01 -0.84132148243E+01  0.10452278570E+02  0.00000000000E+00 0. -1.
<mgrwt>
<rscale>  0 0.78317517E+02</rscale>
<asrwt>0</asrwt>
<pdfrwt beam="1">  1        1 0.27132324E-02 0.78317517E+02</pdfrwt>
<pdfrwt beam="2">  1       -2 0.13376550E-01 0.78317517E+02</pdfrwt>
<totfact> 0.11583100E+05</totfact>
</mgrwt>
</event>
<event>
 8    1  0.1241100E-024  0.8165857E+02  0.7818608E-02  0.1324409E+00
          1   -1    0    0  501    0  0.00000000000E+00  0.00000000000E+00  0.27923855871E+02  0.27923856326E+02  0.50400000000E-02 0. -1.
         -2   -1    0    0    0  501 -0.00000000000E+00 -0.00000000000E+00 -0.59699151531E+02  0.59699151585E+02  0.25500000000E-02 0.  1.
        -24    2    1    2    0    0  0.00000000000E+00  0.00000000000E+00 -0.31775295659E+02  0.87623007912E+02  0.81658570287E+02 0.  0.
         66    2    3    3    0    0  0.18845689005E+02  0.21828082340E+02 -0.46874427992E+02  0.55071200989E+02  0.20000014962E+01 0.  0.
         13    1    3    3    0    0 -0.18845689005E+02 -0.21828082340E+02  0.15099132333E+02  0.32551806923E+02  0.10566000000E+00 0. -1.
         13    1    4    4    0    0  0.42960595709E+01  0.39025841372E+01 -0.90180501807E+01  0.10724862884E+02  0.10566000000E+00 0. -1.
        -13    1    4    4    0    0  0.87524265672E+01  0.10719538989E+02 -0.22056323521E+02  0.26038549466E+02  0.10566000000E+00 0.  1.
         14    1    4    4    0    0  0.57972028666E+01  0.72059592137E+01 -0.15800054290E+02  0.18307788639E+02  0.00000000000E+00 0. -1.
<mgrwt>
<rscale>  0 0.81658570E+02</rscale>
<asrwt>0</asrwt>
<pdfrwt beam="1">  1        1 0.42959779E-02 0.81658570E+02</pdfrwt>
<pdfrwt beam="2">  1       -2 0.91844848E-02 0.81658570E+02</pdfrwt>
<totfact> 0.11250710E+05</totfact>
</mgrwt>
</event>
<event>
 8    1  0.1241100E-024  0.8021345E+02  0.7818608E-02  0.1328447E+00
         -2   -1    0    0    0  501 -0.00000000000E+00  0.00000000000E+00  0.12609485798E+02  0.12609486055E+02  0.25500000000E-02 0.  1.
          1   -1    0    0  501    0  0.00000000000E+00 -0.00000000000E+00 -0.12756660541E+03  0.12756660551E+03  0.50400000000E-02 0. -1.
        -24    2    1    2    0    0  0.00000000000E+00 -0.35527136788E-14 -0.11495711962E+03  0.14017609157E+03  0.80213448355E+02 0.  0.
         66    2    3    3    0    0 -0.26273862586E+02  0.24821822912E+02 -0.27240610372E+02  0.45304410305E+02  0.19999979420E+01 0.  0.
         13    1    3    3    0    0  0.26273862586E+02 -0.24821822912E+02 -0.87716509244E+02  0.94871681264E+02  0.10566000000E+00 0. -1.
         13    1    4    4    0    0 -0.47074412669E+00  0.31502199295E+00 -0.47242505296E+00  0.74510962624E+00  0.10566000000E+00 0. -1.
        -13    1    4    4    0    0 -0.15242395548E+02  0.13565590252E+02 -0.14780369022E+02  0.25195760226E+02  0.10566000000E+00 0.  1.
        -14    1    4    4    0    0 -0.10560722911E+02  0.10941210667E+02 -0.11987816297E+02  0.19363540452E+02  0.00000000000E+00 0.  1.
<mgrwt>
<rscale>  0 0.80213448E+02</rscale>
<asrwt>0</asrwt>
<pdfrwt beam="1">  1        1 0.19625631E-01 0.80213448E+02</pdfrwt>
<pdfrwt beam="2">  1       -2 0.19399210E-02 0.80213448E+02</pdfrwt>
<totfact> 0.15222035E+05</totfact>
</mgrwt>
</event>
<event>
 8    1  0.1241100E-024  0.7725391E+02  0.7818608E-02  0.1337030E+00
          1   -1    0    0  501    0  0.00000000000E+00  0.00000000000E+00  0.25521680727E+03  0.25521680732E+03  0.50400000000E-02 0. -1.
         -2   -1    0    0    0  501 -0.00000000000E+00 -0.00000000000E+00 -0.58461722223E+01  0.58461727785E+01  0.25500000000E-02 0.  1.
        -24    2    1    2    0    0  0.88817841970E-15  0.00000000000E+00  0.24937063505E+03  0.26106298010E+03  0.77253905751E+02 0.  0.
         66    2    3    3    0    0 -0.32370161799E+01 -0.32788256335E+02  0.56804802756E+02  0.65698810001E+02  0.19999980570E+01 0.  0.
         13    1    3    3    0    0  0.32370161799E+01  0.32788256335E+02  0.19256583229E+03  0.19536417010E+03  0.10566000000E+00 0. -1.
         13    1    4    4    0    0 -0.72823283210E+00 -0.67371541999E+01  0.12760172631E+02  0.14448278077E+02  0.10566000000E+00 0. -1.
        -13    1    4    4    0    0 -0.21729135299E+01 -0.24391518484E+02  0.41693498608E+02  0.48353145889E+02  0.10566000000E+00 0.  1.
         14    1    4    4    0    0 -0.33586981794E+00 -0.16595836515E+01  0.23511315162E+01  0.28973860352E+01  0.00000000000E+00 0. -1.
<mgrwt>
<rscale>  0 0.77253906E+02</rscale>
<asrwt>0</asrwt>
<pdfrwt beam="1">  1        1 0.39264136E-01 0.77253906E+02</pdfrwt>
<pdfrwt beam="2">  1       -2 0.89941088E-03 0.77253906E+02</pdfrwt>
<totfact> 0.19173196E+05</totfact>
</mgrwt>
</event>
<event>
 8    1  0.1241100E-024  0.8096674E+02  0.7818608E-02  0.1326330E+00
         -2   -1    0    0    0  501 -0.00000000000E+00  0.00000000000E+00  0.33083685685E+02  0.33083685784E+02  0.25500000000E-02 0.  1.
          1   -1    0    0  501    0  0.00000000000E+00 -0.00000000000E+00 -0.49538112931E+02  0.49538113187E+02  0.50400000000E-02 0. -1.
        -24    2    1    2    0    0  0.00000000000E+00  0.00000000000E+00 -0.16454427245E+02  0.82621798971E+02  0.80966743106E+02 0.  0.
         66    2    3    3    0    0 -0.12248998795E+02 -0.36191791215E+02  0.53444300025E+01  0.38632197197E+02  0.20000013473E+01 0.  0.
         13    1    3    3    0    0  0.12248998795E+02  0.36191791215E+02 -0.21798857248E+02  0.43989601773E+02  0.10566000000E+00 0. -1.
         13    1    4    4    0    0 -0.11996089656E+01 -0.35047287014E+01  0.94004886860E+00  0.38232238819E+01  0.10566000000E+00 0. -1.
        -13    1    4    4    0    0 -0.93891546002E+01 -0.26305681921E+02  0.37740676725E+01  0.28185100253E+02  0.10566000000E+00 0.  1.
         14    1    4    4    0    0 -0.16602352294E+01 -0.63813805924E+01  0.63031346144E+00  0.66238730620E+01  0.00000000000E+00 0. -1.
<mgrwt>
<rscale>  0 0.80966743E+02</rscale>
<asrwt>0</asrwt>
<pdfrwt beam="1">  1        1 0.76212482E-02 0.80966743E+02</pdfrwt>
<pdfrwt beam="2">  1       -2 0.50897978E-02 0.80966743E+02</pdfrwt>
<totfact> 0.12705553E+05</totfact>
</mgrwt>
</event>
<event>
 8    1  0.1241100E-024  0.7939911E+02  0.7818608E-02  0.1330765E+00
         -2   -1    0    0    0  501 -0.00000000000E+00  0.00000000000E+00  0.23173165761E+02  0.23173165902E+02  0.25500000000E-02 0.  1.
          1   -1    0    0  501    0  0.00000000000E+00 -0.00000000000E+00 -0.68012064557E+02  0.68012064744E+02  0.50400000000E-02 0. -1.
        -24    2    1    2    0    0  0.00000000000E+00  0.00000000000E+00 -0.44838898796E+02  0.91185230646E+02  0.79399114874E+02 0.  0.
         66    2    3    3    0    0  0.61462477554E+01 -0.39171970971E+02 -0.20879949531E+02  0.44857462675E+02  0.19999984939E+01 0.  0.
         13    1    3    3    0    0 -0.61462477554E+01  0.39171970971E+02 -0.23958949265E+02  0.46327767971E+02  0.10566000000E+00 0. -1.
         13    1    4    4    0    0  0.49917151931E+00 -0.59664304351E+01 -0.32354323875E+01  0.68063684232E+01  0.10566000000E+00 0. -1.
        -13    1    4    4    0    0  0.17492713301E+01 -0.83029430767E+01 -0.38639277492E+01  0.93241576353E+01  0.10566000000E+00 0.  1.
         14    1    4    4    0    0  0.38978049059E+01 -0.24902597460E+02 -0.13780589394E+02  0.28726936617E+02  0.00000000000E+00 0. -1.
<mgrwt>
<rscale>  0 0.79399115E+02</rscale>
<asrwt>0</asrwt>
<pdfrwt beam="1">  1        1 0.10463394E-01 0.79399115E+02</pdfrwt>
<pdfrwt beam="2">  1       -2 0.35651025E-02 0.79399115E+02</pdfrwt>
<totfact> 0.14095808E+05</totfact>
</mgrwt>
</event>
<event>
 8    1  0.1241100E-024  0.8826668E+02  0.7818608E-02  0.1307104E+00
         -2   -1    0    0    0  501 -0.00000000000E+00  0.00000000000E+00  0.13204561825E+02  0.13204562071E+02  0.25500000000E-02 0.  1.
          1   -1    0    0  501    0  0.00000000000E+00 -0.00000000000E+00 -0.14750595802E+03  0.14750595811E+03  0.50400000000E-02 0. -1.
        -24    2    1    2    0    0  0.00000000000E+00  0.00000000000E+00 -0.13430139620E+03  0.16071052018E+03  0.88266677040E+02 0.  0.
         66    2    3    3    0    0  0.23979323972E+02  0.36191802176E+02 -0.52977254428E+02  0.68523309995E+02  0.20000007548E+01 0.  0.
         13    1    3    3    0    0 -0.23979323972E+02 -0.36191802176E+02 -0.81324141768E+02  0.92187210183E+02  0.10566000000E+00 0. -1.
         13    1    4    4    0    0  0.19287258944E+02  0.27823811146E+02 -0.41565337162E+02  0.53608313178E+02  0.10566000000E+00 0.  1.
        -13    1    4    4    0    0  0.40406592280E+01  0.74772385588E+01 -0.10114023441E+02  0.13211383639E+02  0.10566000000E+00 0. -1.
         14    1    4    4    0    0  0.65140580009E+00  0.89075247119E+00 -0.12978938245E+01  0.17036131782E+01  0.00000000000E+00 0. -1.
<mgrwt>
<rscale>  0 0.88266677E+02</rscale>
<asrwt>0</asrwt>
<pdfrwt beam="1">  1        1 0.22693223E-01 0.88266677E+02</pdfrwt>
<pdfrwt beam="2">  1       -2 0.20314712E-02 0.88266677E+02</pdfrwt>
<totfact> 0.12082627E+05</totfact>
</mgrwt>
</event>
<event>
 8    1  0.1241100E-024  0.7960905E+02  0.7818608E-02  0.1330165E+00
         -2   -1    0    0    0  501 -0.00000000000E+00  0.00000000000E+00  0.25249375855E+02  0.25249375983E+02  0.25500000000E-02 0.  1.
          1   -1    0    0  501    0  0.00000000000E+00 -0.00000000000E+00 -0.62750067113E+02  0.62750067315E+02  0.50400000000E-02 0. -1.
        -24    2    1    2    0    0  0.88817841970E-15  0.00000000000E+00 -0.37500691258E+02  0.87999443298E+02  0.79609045818E+02 0.  0.
         66    2    3    3    0    0  0.66990622255E+01  0.39211061397E+02 -0.18649865733E+02  0.43979566452E+02  0.20000006986E+01 0.  0.
         13    1    3    3    0    0 -0.66990622255E+01 -0.39211061397E+02 -0.18850825525E+02  0.44019876847E+02  0.10566000000E+00 0. -1.
         13    1    4    4    0    0  0.69323193848E+00  0.22982181090E+01 -0.11410999811E+01  0.26600094360E+01  0.10566000000E+00 0.  1.
        -13    1    4    4    0    0  0.54407701722E+01  0.30871698996E+02 -0.14289484359E+02  0.34450897031E+02  0.10566000000E+00 0.  1.
         14    1    4    4    0    0  0.56506011487E+00  0.60411442923E+01 -0.32192813933E+01  0.68686599845E+01  0.00000000000E+00 0. -1.
<mgrwt>
<rscale>  0 0.79609046E+02</rscale>
<asrwt>0</asrwt>
<pdfrwt beam="1">  1        1 0.96538565E-02 0.79609046E+02</pdfrwt>
<pdfrwt beam="2">  1       -2 0.38845194E-02 0.79609046E+02</pdfrwt>
<totfact> 0.13818760E+05</totfact>
</mgrwt>
</event>
<event>
 8    1  0.1241100E-024  0.8006153E+02  0.7818608E-02  0.1328877E+00
          1   -1    0    0  501    0  0.00000000000E+00  0.00000000000E+00  0.40706558741E+03  0.40706558744E+03  0.50400000000E-02 0. -1.
         -2   -1    0    0    0  501 -0.00000000000E+00 -0.00000000000E+00 -0.39366188916E+01  0.39366197175E+01  0.25500000000E-02 0.  1.
        -24    2    1    2    0    0  0.35527136788E-14  0.35527136788E-14  0.40312896852E+03  0.41100220716E+03  0.80061532778E+02 0.  0.
         66    2    3    3    0    0  0.18735084275E+02  0.25507118420E+02  0.32731488129E+03  0.32884745405E+03  0.20000112575E+01 0.  0.
         13    1    3    3    0    0 -0.18735084275E+02 -0.25507118420E+02  0.75814087229E+02  0.82154753115E+02  0.10566000000E+00 0. -1.
         13    1    4    4    0    0  0.87565358786E+01  0.11824645667E+02  0.14686909584E+03  0.14760434155E+03  0.10566000000E+00 0. -1.
        -13    1    4    4    0    0  0.85074401434E+01  0.11724915720E+02  0.14927243901E+03  0.14997373903E+03  0.10566000000E+00 0.  1.
         14    1    4    4    0    0  0.14711082528E+01  0.19575570331E+01  0.31173346440E+02  0.31269373471E+02  0.00000000000E+00 0. -1.
<mgrwt>
<rscale>  0 0.80061533E+02</rscale>
<asrwt>0</asrwt>
<pdfrwt beam="1">  1        1 0.62625425E-01 0.80061533E+02</pdfrwt>
<pdfrwt beam="2">  1       -2 0.60563423E-03 0.80061533E+02</pdfrwt>
<totfact> 0.19009083E+05</totfact>
</mgrwt>
</event>
<event>
 8    1  0.1241100E-024  0.8165218E+02  0.7818608E-02  0.1324427E+00
          1   -1    0    0  501    0  0.00000000000E+00  0.00000000000E+00  0.13592192839E+02  0.13592193773E+02  0.50400000000E-02 0. -1.
         -2   -1    0    0    0  501 -0.00000000000E+00 -0.00000000000E+00 -0.12262697284E+03  0.12262697287E+03  0.25500000000E-02 0.  1.
        -24    2    1    2    0    0  0.00000000000E+00  0.35527136788E-14 -0.10903478000E+03  0.13621916664E+03  0.81652177621E+02 0.  0.
         66    2    3    3    0    0 -0.20247229903E+02  0.27363712819E+02 -0.92078704859E+02  0.98189668272E+02  0.19999922153E+01 0.  0.
         13    1    3    3    0    0  0.20247229903E+02 -0.27363712819E+02 -0.16956075145E+02  0.38029498371E+02  0.10566000000E+00 0. -1.
         13    1    4    4    0    0 -0.50766472783E+01  0.56921444710E+01 -0.19949963689E+02  0.21358489448E+02  0.10566000000E+00 0. -1.
        -13    1    4    4    0    0 -0.77793212374E+01  0.10431400366E+02 -0.35185236065E+02  0.37514583211E+02  0.10566000000E+00 0.  1.
         14    1    4    4    0    0 -0.73912613871E+01  0.11240167981E+02 -0.36943505105E+02  0.39316595613E+02  0.00000000000E+00 0. -1.
<mgrwt>
<rscale>  0 0.81652178E+02</rscale>
<asrwt>0</asrwt>
<pdfrwt beam="1">  1        1 0.20911068E-02 0.81652178E+02</pdfrwt>
<pdfrwt beam="2">  1       -2 0.18865687E-01 0.81652178E+02</pdfrwt>
<totfact> 0.95385625E+04</totfact>
</mgrwt>
</event>
<event>
 8    1  0.1241100E-024  0.8020991E+02  0.7818608E-02  0.1328457E+00
         -2   -1    0    0    0  501 -0.00000000000E+00  0.00000000000E+00  0.38146472867E+02  0.38146472952E+02  0.25500000000E-02 0.  1.
          1   -1    0    0  501    0  0.00000000000E+00 -0.00000000000E+00 -0.42163987345E+02  0.42163987646E+02  0.50400000000E-02 0. -1.
        -24    2    1    2    0    0  0.00000000000E+00  0.00000000000E+00 -0.40175144782E+01  0.80310460599E+02  0.80209909980E+02 0.  0.
         66    2    3    3    0    0 -0.85284012269E+01  0.22237587797E+02  0.30266389747E+02  0.38565506515E+02  0.20000014786E+01 0.  0.
         13    1    3    3    0    0  0.85284012269E+01 -0.22237587797E+02 -0.34283904225E+02  0.41744954084E+02  0.10566000000E+00 0. -1.
         13    1    4    4    0    0 -0.90489454533E+00  0.12221809628E+01  0.21214352983E+01  0.26123193152E+01  0.10566000000E+00 0. -1.
        -13    1    4    4    0    0 -0.48586187854E+01  0.12744793340E+02  0.17721843044E+02  0.22363157619E+02  0.10566000000E+00 0.  1.
         14    1    4    4    0    0 -0.27648878962E+01  0.82706134941E+01  0.10423111405E+02  0.13590029581E+02  0.00000000000E+00 0. -1.
<mgrwt>
<rscale>  0 0.80209910E+02</rscale>
<asrwt>0</asrwt>
<pdfrwt beam="1">  1        1 0.64867674E-02 0.80209910E+02</pdfrwt>
<pdfrwt beam="2">  1       -2 0.58686881E-02 0.80209910E+02</pdfrwt>
<totfact> 0.12712104E+05</totfact>
</mgrwt>
</event>
<event>
 8    1  0.1241100E-024  0.8222945E+02  0.7818608E-02  0.1322841E+00
          1   -1    0    0  501    0  0.00000000000E+00  0.00000000000E+00  0.99392205043E+02  0.99392205170E+02  0.50400000000E-02 0. -1.
         -2   -1    0    0    0  501 -0.00000000000E+00 -0.00000000000E+00 -0.17007576272E+02  0.17007576463E+02  0.25500000000E-02 0.  1.
        -24    2    1    2    0    0  0.00000000000E+00  0.35527136788E-14  0.82384628770E+02  0.11639978163E+03  0.82229447929E+02 0.  0.
         66    2    3    3    0    0  0.65069046065E+01  0.20427847289E+02 -0.84039434471E+01  0.23114130209E+02  0.19999993600E+01 0.  0.
         13    1    3    3    0    0 -0.65069046065E+01 -0.20427847289E+02  0.90788572217E+02  0.93285651425E+02  0.10566000000E+00 0. -1.
         13    1    4    4    0    0  0.30739530219E+01  0.90244754936E+01 -0.44639368045E+01  0.10527499273E+02  0.10566000000E+00 0.  1.
        -13    1    4    4    0    0 -0.62499515693E-02  0.32813782067E+00 -0.21411215597E+00  0.40585901762E+00  0.10566000000E+00 0. -1.
        -14    1    4    4    0    0  0.34392015362E+01  0.11075233975E+02 -0.37258944867E+01  0.12180771918E+02  0.00000000000E+00 0.  1.
<mgrwt>
<rscale>  0 0.82229448E+02</rscale>
<asrwt>0</asrwt>
<pdfrwt beam="1">  1        1 0.15291109E-01 0.82229448E+02</pdfrwt>
<pdfrwt beam="2">  1       -2 0.26165502E-02 0.82229448E+02</pdfrwt>
<totfact> 0.13630722E+05</totfact>
</mgrwt>
</event>
<event>
 8    1  0.1241100E-024  0.7882052E+02  0.7818608E-02  0.1332432E+00
          1   -1    0    0  501    0  0.00000000000E+00  0.00000000000E+00  0.17292804598E+03  0.17292804606E+03  0.50400000000E-02 0. -1.
         -2   -1    0    0    0  501 -0.00000000000E+00 -0.00000000000E+00 -0.89815881314E+01  0.89815884933E+01  0.25500000000E-02 0.  1.
        -24    2    1    2    0    0  0.00000000000E+00  0.00000000000E+00  0.16394645785E+03  0.18190963455E+03  0.78820518268E+02 0.  0.
         66    2    3    3    0    0 -0.34083289538E+02 -0.10131920958E+02  0.42938700729E+02  0.55785826742E+02  0.19999992369E+01 0.  0.
         13    1    3    3    0    0  0.34083289538E+02  0.10131920958E+02  0.12100775712E+03  0.12612380781E+03  0.10566000000E+00 0. -1.
         13    1    4    4    0    0 -0.40309506114E+01 -0.10394483332E+01  0.41267623898E+01  0.58626229221E+01  0.10566000000E+00 0. -1.
        -13    1    4    4    0    0 -0.21862545769E+02 -0.67760100283E+01  0.28230541821E+02  0.36343635962E+02  0.10566000000E+00 0.  1.
         14    1    4    4    0    0 -0.81897931581E+01 -0.23164625968E+01  0.10581396519E+02  0.13579567859E+02  0.00000000000E+00 0. -1.
<mgrwt>
<rscale>  0 0.78820518E+02</rscale>
<asrwt>0</asrwt>
<pdfrwt beam="1">  1        1 0.26604314E-01 0.78820518E+02</pdfrwt>
<pdfrwt beam="2">  1       -2 0.13817829E-02 0.78820518E+02</pdfrwt>
<totfact> 0.16867830E+05</totfact>
</mgrwt>
</event>
<event>
 8    1  0.1241100E-024  0.8042630E+02  0.7818608E-02  0.1327846E+00
         -2   -1    0    0    0  501 -0.00000000000E+00  0.00000000000E+00  0.83415695819E+02  0.83415695858E+02  0.25500000000E-02 0.  1.
          1   -1    0    0  501    0  0.00000000000E+00 -0.00000000000E+00 -0.19386007960E+02  0.19386008615E+02  0.50400000000E-02 0. -1.
        -24    2    1    2    0    0  0.00000000000E+00  0.00000000000E+00  0.64029687859E+02  0.10280170447E+03  0.80426298655E+02 0.  0.
         66    2    3    3    0    0 -0.40180841531E+02 -0.70619658309E+00  0.32425803559E+02  0.51676217614E+02  0.19999976764E+01 0.  0.
         13    1    3    3    0    0  0.40180841531E+02  0.70619658309E+00  0.31603884300E+02  0.51125486859E+02  0.10566000000E+00 0. -1.
         13    1    4    4    0    0 -0.51986370429E+01 -0.29480046187E+00  0.44497379874E+01  0.68501143500E+01  0.10566000000E+00 0.  1.
        -13    1    4    4    0    0 -0.24409318381E+02  0.32603702215E+00  0.20090050384E+02  0.31615540680E+02  0.10566000000E+00 0. -1.
        -14    1    4    4    0    0 -0.10572886106E+02 -0.73743314336E+00  0.78860151875E+01  0.13210562584E+02  0.00000000000E+00 0.  1.
<mgrwt>
<rscale>  0 0.80426299E+02</rscale>
<asrwt>0</asrwt>
<pdfrwt beam="1">  1        1 0.29824628E-02 0.80426299E+02</pdfrwt>
<pdfrwt beam="2">  1       -2 0.12833184E-01 0.80426299E+02</pdfrwt>
<totfact> 0.10925187E+05</totfact>
</mgrwt>
</event>
<event>
 8    1  0.1241100E-024  0.8019888E+02  0.7818608E-02  0.1328488E+00
         -2   -1    0    0    0  501 -0.00000000000E+00  0.00000000000E+00  0.12219260413E+03  0.12219260415E+03  0.25500000000E-02 0.  1.
          1   -1    0    0  501    0  0.00000000000E+00 -0.00000000000E+00 -0.13159267523E+02  0.13159268488E+02  0.50400000000E-02 0. -1.
        -24    2    1    2    0    0  0.00000000000E+00  0.00000000000E+00  0.10903333660E+03  0.13535187264E+03  0.80198883637E+02 0.  0.
         66    2    3    3    0    0 -0.33237777037E+01  0.26170992658E+02  0.10546183949E+03  0.10872979326E+03  0.19999998888E+01 0.  0.
         13    1    3    3    0    0  0.33237777037E+01 -0.26170992658E+02  0.35714971176E+01  0.26622079382E+02  0.10566000000E+00 0. -1.
         13    1    4    4    0    0 -0.13787949771E+01  0.11517117507E+02  0.49122174128E+02  0.50473203052E+02  0.10566000000E+00 0. -1.
        -13    1    4    4    0    0 -0.79916362356E+00  0.81311554618E+01  0.32878756152E+02  0.33878874270E+02  0.10566000000E+00 0.  1.
         14    1    4    4    0    0 -0.11458191030E+01  0.65227196891E+01  0.23460909206E+02  0.24377715937E+02  0.00000000000E+00 0. -1.
<mgrwt>
<rscale>  0 0.80198884E+02</rscale>
<asrwt>0</asrwt>
<pdfrwt beam="1">  1        1 0.20245028E-02 0.80198884E+02</pdfrwt>
<pdfrwt beam="2">  1       -2 0.18798862E-01 0.80198884E+02</pdfrwt>
<totfact> 0.99990567E+04</totfact>
</mgrwt>
</event>
<event>
 8    1  0.1241100E-024  0.7529073E+02  0.7818608E-02  0.1342973E+00
          1   -1    0    0  501    0  0.00000000000E+00  0.00000000000E+00  0.17381059011E+03  0.17381059019E+03  0.50400000000E-02 0. -1.
         -2   -1    0    0    0  501 -0.00000000000E+00 -0.00000000000E+00 -0.81535512852E+01  0.81535516840E+01  0.25500000000E-02 0.  1.
        -24    2    1    2    0    0  0.00000000000E+00  0.00000000000E+00  0.16565703883E+03  0.18196414187E+03  0.75290732586E+02 0.  0.
         66    2    3    3    0    0 -0.23890599835E+02 -0.16134058299E+02  0.24476704100E+02  0.37870538002E+02  0.20000018302E+01 0.  0.
         13    1    3    3    0    0  0.23890599835E+02  0.16134058299E+02  0.14118033473E+03  0.14409360387E+03  0.10566000000E+00 0. -1.
         13    1    4    4    0    0 -0.57106935294E+01 -0.41096817480E+01  0.52450924791E+01  0.87763126543E+01  0.10566000000E+00 0. -1.
        -13    1    4    4    0    0 -0.12805840687E+02 -0.80463207167E+01  0.13918572838E+02  0.20554091239E+02  0.10566000000E+00 0.  1.
        -14    1    4    4    0    0 -0.53740656190E+01 -0.39780558338E+01  0.53130387831E+01  0.85401341093E+01  0.00000000000E+00 0.  1.
<mgrwt>
<rscale>  0 0.75290733E+02</rscale>
<asrwt>0</asrwt>
<pdfrwt beam="1">  1        1 0.26740089E-01 0.75290733E+02</pdfrwt>
<pdfrwt beam="2">  1       -2 0.12543926E-02 0.75290733E+02</pdfrwt>
<totfact> 0.19064598E+05</totfact>
</mgrwt>
</event>
<event>
 8    1  0.1241100E-024  0.8011979E+02  0.7818608E-02  0.1328712E+00
          1   -1    0    0  501    0  0.00000000000E+00  0.00000000000E+00  0.28694554185E+03  0.28694554189E+03  0.50400000000E-02 0. -1.
         -2   -1    0    0    0  501 -0.00000000000E+00 -0.00000000000E+00 -0.55926811248E+01  0.55926817061E+01  0.25500000000E-02 0.  1.
        -24    2    1    2    0    0 -0.71054273576E-14  0.17763568394E-14  0.28135286072E+03  0.29253822360E+03  0.80119785502E+02 0.  0.
         66    2    3    3    0    0 -0.33927613587E+02  0.12409445402E+02  0.77763698852E+02  0.85768701439E+02  0.19999971024E+01 0.  0.
         13    1    3    3    0    0  0.33927613587E+02 -0.12409445402E+02  0.20358916187E+03  0.20676952216E+03  0.10566000000E+00 0. -1.
         13    1    4    4    0    0 -0.14349679101E+02  0.45036320923E+01  0.33319302728E+02  0.36556573836E+02  0.10566000000E+00 0.  1.
        -13    1    4    4    0    0 -0.12166423528E+02  0.48269351044E+01  0.26606494288E+02  0.29651945405E+02  0.10566000000E+00 0. -1.
         14    1    4    4    0    0 -0.74115109574E+01  0.30788782049E+01  0.17837901836E+02  0.19560182197E+02  0.00000000000E+00 0. -1.
<mgrwt>
<rscale>  0 0.80119786E+02</rscale>
<asrwt>0</asrwt>
<pdfrwt beam="1">  1        1 0.44145466E-01 0.80119786E+02</pdfrwt>
<pdfrwt beam="2">  1       -2 0.86041258E-03 0.80119786E+02</pdfrwt>
<totfact> 0.17818065E+05</totfact>
</mgrwt>
</event>
<event>
 8    1  0.1241100E-024  0.7882644E+02  0.7818608E-02  0.1332415E+00
          1   -1    0    0  501    0  0.00000000000E+00  0.00000000000E+00  0.38429365723E+02  0.38429366053E+02  0.50400000000E-02 0. -1.
         -2   -1    0    0    0  501 -0.00000000000E+00 -0.00000000000E+00 -0.40422267155E+02  0.40422267236E+02  0.25500000000E-02 0.  1.
        -24    2    1    2    0    0  0.35527136788E-14 -0.35527136788E-14 -0.19929014323E+01  0.78851633289E+02  0.78826444904E+02 0.  0.
         66    2    3    3    0    0 -0.26833808587E+02  0.25366673966E+02 -0.14708247115E+02  0.39797662796E+02  0.19999998494E+01 0.  0.
         13    1    3    3    0    0  0.26833808587E+02 -0.25366673966E+02  0.12715345683E+02  0.39053970493E+02  0.10566000000E+00 0. -1.
         13    1    4    4    0    0 -0.23377454466E+01  0.17045888811E+01 -0.12151886959E+01  0.31398287578E+01  0.10566000000E+00 0.  1.
        -13    1    4    4    0    0 -0.19038229463E+02  0.18067790199E+02 -0.98451101163E+01  0.28032776905E+02  0.10566000000E+00 0.  1.
        -14    1    4    4    0    0 -0.54578336774E+01  0.55942948867E+01 -0.36479483029E+01  0.86250571332E+01  0.00000000000E+00 0.  1.
<mgrwt>
<rscale>  0 0.78826445E+02</rscale>
<asrwt>0</asrwt>
<pdfrwt beam="1">  1        1 0.59122101E-02 0.78826445E+02</pdfrwt>
<pdfrwt beam="2">  1       -2 0.62188104E-02 0.78826445E+02</pdfrwt>
<totfact> 0.13151762E+05</totfact>
</mgrwt>
</event>
<event>
 8    1  0.1241100E-024  0.7734480E+02  0.7818608E-02  0.1336760E+00
         -2   -1    0    0    0  501 -0.00000000000E+00  0.00000000000E+00  0.12746292696E+02  0.12746292951E+02  0.25500000000E-02 0.  1.
          1   -1    0    0  501    0  0.00000000000E+00 -0.00000000000E+00 -0.11733250329E+03  0.11733250340E+03  0.50400000000E-02 0. -1.
        -24    2    1    2    0    0 -0.17763568394E-14  0.35527136788E-14 -0.10458621059E+03  0.13007879635E+03  0.77344798231E+02 0.  0.
         66    2    3    3    0    0  0.15393722705E+02 -0.22158910014E+02 -0.57943803401E+01  0.27668733951E+02  0.20000007963E+01 0.  0.
         13    1    3    3    0    0 -0.15393722705E+02  0.22158910014E+02 -0.98791830254E+02  0.10241006240E+03  0.10566000000E+00 0. -1.
         13    1    4    4    0    0  0.32338551096E+01 -0.39321606974E+01 -0.11422703992E+01  0.52187788150E+01  0.10566000000E+00 0. -1.
        -13    1    4    4    0    0  0.12183536534E+02 -0.18134160653E+02 -0.45614984088E+01  0.22318261062E+02  0.10566000000E+00 0.  1.
        -14    1    4    4    0    0 -0.23668938572E-01 -0.92588663373E-01 -0.90611532119E-01  0.13169407349E+00  0.00000000000E+00 0.  1.
<mgrwt>
<rscale>  0 0.77344798E+02</rscale>
<asrwt>0</asrwt>
<pdfrwt beam="1">  1        1 0.18051154E-01 0.77344798E+02</pdfrwt>
<pdfrwt beam="2">  1       -2 0.19609682E-02 0.77344798E+02</pdfrwt>
<totfact> 0.16539339E+05</totfact>
</mgrwt>
</event>
<event>
 8    1  0.1241100E-024  0.8243898E+02  0.7818608E-02  0.1322269E+00
         -2   -1    0    0    0  501 -0.00000000000E+00  0.00000000000E+00  0.31230071962E+03  0.31230071963E+03  0.25500000000E-02 0.  1.
          1   -1    0    0  501    0  0.00000000000E+00 -0.00000000000E+00 -0.54404158385E+01  0.54404181731E+01  0.50400000000E-02 0. -1.
        -24    2    1    2    0    0  0.00000000000E+00  0.71054273576E-14  0.30686030378E+03  0.31774113781E+03  0.82438975102E+02 0.  0.
         66    2    3    3    0    0  0.75213133422E+01  0.34762769355E+02  0.23363140142E+03  0.23633165682E+03  0.20000005501E+01 0.  0.
         13    1    3    3    0    0 -0.75213133422E+01 -0.34762769355E+02  0.73228902368E+02  0.81409480982E+02  0.10566000000E+00 0. -1.
         13    1    4    4    0    0  0.49974443834E+01  0.25175348947E+02  0.16505005045E+03  0.16703383778E+03  0.10566000000E+00 0. -1.
        -13    1    4    4    0    0  0.11277836810E+01  0.53406242341E+01  0.39191374714E+02  0.39569801354E+02  0.10566000000E+00 0.  1.
        -14    1    4    4    0    0  0.13960852778E+01  0.42467961741E+01  0.29389976253E+02  0.29728017694E+02  0.00000000000E+00 0.  1.
<mgrwt>
<rscale>  0 0.82438975E+02</rscale>
<asrwt>0</asrwt>
<pdfrwt beam="1">  1        1 0.83698727E-03 0.82438975E+02</pdfrwt>
<pdfrwt beam="2">  1       -2 0.48046263E-01 0.82438975E+02</pdfrwt>
<totfact> 0.63592278E+04</totfact>
</mgrwt>
</event>
<event>
 8    1  0.1241100E-024  0.7545024E+02  0.7818608E-02  0.1342482E+00
          1   -1    0    0  501    0  0.00000000000E+00  0.00000000000E+00  0.10168855788E+03  0.10168855801E+03  0.50400000000E-02 0. -1.
         -2   -1    0    0    0  501 -0.00000000000E+00 -0.00000000000E+00 -0.13995525276E+02  0.13995525508E+02  0.25500000000E-02 0.  1.
        -24    2    1    2    0    0  0.00000000000E+00  0.35527136788E-14  0.87693032607E+02  0.11568408352E+03  0.75450243280E+02 0.  0.
         66    2    3    3    0    0 -0.12424472991E+02  0.29374788771E+02  0.13061805048E+02  0.34523273789E+02  0.19999843965E+01 0.  0.
         13    1    3    3    0    0  0.12424472991E+02 -0.29374788771E+02  0.74631227559E+02  0.81160809727E+02  0.10566000000E+00 0. -1.
         13    1    4    4    0    0 -0.62226657973E+01  0.16478671737E+02  0.73387746370E+01  0.19082373256E+02  0.10566000000E+00 0. -1.
        -13    1    4    4    0    0 -0.48340113872E+01  0.10191807107E+02  0.40958856995E+01  0.12001168356E+02  0.10566000000E+00 0.  1.
         14    1    4    4    0    0 -0.13677958064E+01  0.27043099261E+01  0.16271447115E+01  0.34397321780E+01  0.00000000000E+00 0. -1.
<mgrwt>
<rscale>  0 0.75450243E+02</rscale>
<asrwt>0</asrwt>
<pdfrwt beam="1">  1        1 0.15644394E-01 0.75450243E+02</pdfrwt>
<pdfrwt beam="2">  1       -2 0.21531577E-02 0.75450243E+02</pdfrwt>
<totfact> 0.17256177E+05</totfact>
</mgrwt>
</event>
<event>
 8    1  0.1241100E-024  0.8061301E+02  0.7818608E-02  0.1327321E+00
         -2   -1    0    0    0  501 -0.00000000000E+00  0.00000000000E+00  0.10891918407E+02  0.10891918705E+02  0.25500000000E-02 0.  1.
          1   -1    0    0  501    0  0.00000000000E+00 -0.00000000000E+00 -0.14915776417E+03  0.14915776425E+03  0.50400000000E-02 0. -1.
        -24    2    1    2    0    0  0.00000000000E+00  0.00000000000E+00 -0.13826584576E+03  0.16004968296E+03  0.80613007083E+02 0.  0.
         66    2    3    3    0    0 -0.10374559701E+02 -0.34173393355E+02 -0.32182946914E+02  0.48116466735E+02  0.19999991419E+01 0.  0.
         13    1    3    3    0    0  0.10374559701E+02  0.34173393355E+02 -0.10608289884E+03  0.11193321622E+03  0.10566000000E+00 0. -1.
         13    1    4    4    0    0 -0.78086412395E+00 -0.35559198415E+01 -0.34274820359E+01  0.50013110122E+01  0.10566000000E+00 0. -1.
        -13    1    4    4    0    0 -0.38867360208E+01 -0.11256471677E+02 -0.11602972806E+02  0.16626936383E+02  0.10566000000E+00 0.  1.
        -14    1    4    4    0    0 -0.57069595559E+01 -0.19361001837E+02 -0.17152492073E+02  0.26488219340E+02  0.00000000000E+00 0.  1.
<mgrwt>
<rscale>  0 0.80613007E+02</rscale>
<asrwt>0</asrwt>
<pdfrwt beam="1">  1        1 0.22947347E-01 0.80613007E+02</pdfrwt>
<pdfrwt beam="2">  1       -2 0.16756799E-02 0.80613007E+02</pdfrwt>
<totfact> 0.15453431E+05</totfact>
</mgrwt>
</event>
<event>
 8    1  0.1241100E-024  0.7948258E+02  0.7818608E-02  0.1330526E+00
         -2   -1    0    0    0  501 -0.00000000000E+00  0.00000000000E+00  0.11135545942E+02  0.11135546234E+02  0.25500000000E-02 0.  1.
          1   -1    0    0  501    0  0.00000000000E+00 -0.00000000000E+00 -0.14183140865E+03  0.14183140874E+03  0.50400000000E-02 0. -1.
        -24    2    1    2    0    0  0.17763568394E-14 -0.35527136788E-14 -0.13069586271E+03  0.15296695497E+03  0.79482581646E+02 0.  0.
         66    2    3    3    0    0  0.14460934600E+02 -0.21470838356E+02 -0.74210902508E+01  0.27003483215E+02  0.19999990044E+01 0.  0.
         13    1    3    3    0    0 -0.14460934600E+02  0.21470838356E+02 -0.12327477246E+03  0.12596347176E+03  0.10566000000E+00 0. -1.
         13    1    4    4    0    0  0.45614139619E+00 -0.11525648431E+01 -0.20272659647E+00  0.12604494434E+01  0.10566000000E+00 0. -1.
        -13    1    4    4    0    0  0.85965191093E+01 -0.11909473871E+02 -0.37354703644E+01  0.15155877129E+02  0.10566000000E+00 0.  1.
        -14    1    4    4    0    0  0.54082740948E+01 -0.84087996421E+01 -0.34828932900E+01  0.10587156643E+02  0.00000000000E+00 0.  1.
<mgrwt>
<rscale>  0 0.79482582E+02</rscale>
<asrwt>0</asrwt>
<pdfrwt beam="1">  1        1 0.21820216E-01 0.79482582E+02</pdfrwt>
<pdfrwt beam="2">  1       -2 0.17131610E-02 0.79482582E+02</pdfrwt>
<totfact> 0.15900660E+05</totfact>
</mgrwt>
</event>
<event>
 8    1  0.1241100E-024  0.8796788E+02  0.7818608E-02  0.1307849E+00
         -2   -1    0    0    0  501 -0.00000000000E+00  0.00000000000E+00  0.98412395115E+02  0.98412395148E+02  0.25500000000E-02 0.  1.
          1   -1    0    0  501    0  0.00000000000E+00 -0.00000000000E+00 -0.19657959324E+02  0.19657959970E+02  0.50400000000E-02 0. -1.
        -24    2    1    2    0    0  0.00000000000E+00 -0.35527136788E-14  0.78754435791E+02  0.11807035512E+03  0.87967878234E+02 0.  0.
         66    2    3    3    0    0  0.18138078202E+02  0.31407332038E+02  0.72741666479E+02  0.81306582931E+02  0.19999997623E+01 0.  0.
         13    1    3    3    0    0 -0.18138078202E+02 -0.31407332038E+02  0.60127693116E+01  0.36763772187E+02  0.10566000000E+00 0. -1.
         13    1    4    4    0    0  0.21573558253E+01  0.37224646645E+01  0.92617747360E+01  0.10212862607E+02  0.10566000000E+00 0. -1.
        -13    1    4    4    0    0  0.58344719116E+01  0.87046071715E+01  0.21542489646E+02  0.23956236614E+02  0.10566000000E+00 0.  1.
        -14    1    4    4    0    0  0.10146250465E+02  0.18980260202E+02  0.41937402097E+02  0.47137483710E+02  0.00000000000E+00 0.  1.
<mgrwt>
<rscale>  0 0.87967878E+02</rscale>
<asrwt>0</asrwt>
<pdfrwt beam="1">  1        1 0.30243014E-02 0.87967878E+02</pdfrwt>
<pdfrwt beam="2">  1       -2 0.15140369E-01 0.87967878E+02</pdfrwt>
<totfact> 0.83533607E+04</totfact>
</mgrwt>
</event>
<event>
 8    1  0.1241100E-024  0.7951000E+02  0.7818608E-02  0.1330448E+00
         -2   -1    0    0    0  501 -0.00000000000E+00  0.00000000000E+00  0.13967060329E+02  0.13967060562E+02  0.25500000000E-02 0.  1.
          1   -1    0    0  501    0  0.00000000000E+00 -0.00000000000E+00 -0.11315624592E+03  0.11315624603E+03  0.50400000000E-02 0. -1.
        -24    2    1    2    0    0 -0.71054273576E-14  0.17763568394E-14 -0.99189185590E+02  0.12712330659E+03  0.79510002774E+02 0.  0.
         66    2    3    3    0    0  0.36646405838E+02 -0.13539168458E+02 -0.61175958366E+02  0.72613814287E+02  0.19999999875E+01 0.  0.
         13    1    3    3    0    0 -0.36646405838E+02  0.13539168458E+02 -0.38013227224E+02  0.54509492306E+02  0.10566000000E+00 0. -1.
         13    1    4    4    0    0  0.42059786447E+01 -0.21774013183E+01 -0.77942586405E+01  0.91210177421E+01  0.10566000000E+00 0. -1.
        -13    1    4    4    0    0  0.49244633395E+01 -0.15788612935E+01 -0.81577396604E+01  0.96593489723E+01  0.10566000000E+00 0.  1.
         14    1    4    4    0    0  0.27515963854E+02 -0.97829058465E+01 -0.45223960065E+02  0.53833447573E+02  0.00000000000E+00 0. -1.
<mgrwt>
<rscale>  0 0.79510003E+02</rscale>
<asrwt>0</asrwt>
<pdfrwt beam="1">  1        1 0.17408653E-01 0.79510003E+02</pdfrwt>
<pdfrwt beam="2">  1       -2 0.21487786E-02 0.79510003E+02</pdfrwt>
<totfact> 0.15262476E+05</totfact>
</mgrwt>
</event>
<event>
 8    1  0.1241100E-024  0.7831790E+02  0.7818608E-02  0.1333894E+00
         -2   -1    0    0    0  501 -0.00000000000E+00  0.00000000000E+00  0.11030994453E+03  0.11030994456E+03  0.25500000000E-02 0.  1.
          1   -1    0    0  501    0  0.00000000000E+00 -0.00000000000E+00 -0.13901042051E+02  0.13901042965E+02  0.50400000000E-02 0. -1.
        -24    2    1    2    0    0  0.00000000000E+00  0.00000000000E+00  0.96408902476E+02  0.12421098752E+03  0.78317896706E+02 0.  0.
         66    2    3    3    0    0 -0.13810697569E+02  0.15413743423E+02  0.10091101628E+03  0.10303083062E+03  0.19999995707E+01 0.  0.
         13    1    3    3    0    0  0.13810697569E+02 -0.15413743423E+02 -0.45021138019E+01  0.21180156902E+02  0.10566000000E+00 0. -1.
         13    1    4    4    0    0 -0.36857198382E+01  0.48165443337E+01  0.27725019007E+02  0.28380829322E+02  0.10566000000E+00 0.  1.
        -13    1    4    4    0    0 -0.10205792471E+01  0.66048116398E+00  0.52215399325E+01  0.53622253468E+01  0.10566000000E+00 0. -1.
        -14    1    4    4    0    0 -0.91043984839E+01  0.99367179257E+01  0.67964457339E+02  0.69287775951E+02  0.00000000000E+00 0.  1.
<mgrwt>
<rscale>  0 0.78317897E+02</rscale>
<asrwt>0</asrwt>
<pdfrwt beam="1">  1        1 0.21386219E-02 0.78317897E+02</pdfrwt>
<pdfrwt beam="2">  1       -2 0.16970761E-01 0.78317897E+02</pdfrwt>
<totfact> 0.10928314E+05</totfact>
</mgrwt>
</event>
<event>
 8    1  0.1241100E-024  0.7992536E+02  0.7818608E-02  0.1329263E+00
          1   -1    0    0  501    0  0.00000000000E+00  0.00000000000E+00  0.35987684022E+02  0.35987684375E+02  0.50400000000E-02 0. -1.
         -2   -1    0    0    0  501 -0.00000000000E+00 -0.00000000000E+00 -0.44376730250E+02  0.44376730323E+02  0.25500000000E-02 0.  1.
        -24    2    1    2    0    0 -0.35527136788E-14  0.00000000000E+00 -0.83890462282E+01  0.80364414698E+02  0.79925359262E+02 0.  0.
         66    2    3    3    0    0 -0.17404955469E+02 -0.17328485313E+02 -0.35863029628E+02  0.43512823063E+02  0.19999996626E+01 0.  0.
         13    1    3    3    0    0  0.17404955469E+02  0.17328485313E+02  0.27473983400E+02  0.36851591635E+02  0.10566000000E+00 0. -1.
         13    1    4    4    0    0 -0.94381977020E+01 -0.84681770201E+01 -0.18532936690E+02  0.22455968122E+02  0.10566000000E+00 0. -1.
        -13    1    4    4    0    0 -0.41260286952E+01 -0.53414049346E+01 -0.99445058312E+01  0.12019113101E+02  0.10566000000E+00 0.  1.
        -14    1    4    4    0    0 -0.38407290718E+01 -0.35189033588E+01 -0.73855871077E+01  0.90377418406E+01  0.00000000000E+00 0.  1.
<mgrwt>
<rscale>  0 0.79925359E+02</rscale>
<asrwt>0</asrwt>
<pdfrwt beam="1">  1        1 0.55365669E-02 0.79925359E+02</pdfrwt>
<pdfrwt beam="2">  1       -2 0.68271892E-02 0.79925359E+02</pdfrwt>
<totfact> 0.12511623E+05</totfact>
</mgrwt>
</event>
<event>
 8    1  0.1241100E-024  0.7995240E+02  0.7818608E-02  0.1329187E+00
         -2   -1    0    0    0  501 -0.00000000000E+00  0.00000000000E+00  0.11022483595E+02  0.11022483890E+02  0.25500000000E-02 0.  1.
          1   -1    0    0  501    0  0.00000000000E+00 -0.00000000000E+00 -0.14498515035E+03  0.14498515044E+03  0.50400000000E-02 0. -1.
        -24    2    1    2    0    0  0.00000000000E+00  0.00000000000E+00 -0.13396266676E+03  0.15600763433E+03  0.79952397614E+02 0.  0.
         66    2    3    3    0    0 -0.90127203265E+01 -0.33854449389E+02 -0.29553993182E+02  0.45878005469E+02  0.20000004280E+01 0.  0.
         13    1    3    3    0    0  0.90127203265E+01  0.33854449389E+02 -0.10440867357E+03  0.11012962886E+03  0.10566000000E+00 0. -1.
         13    1    4    4    0    0 -0.40506537136E+01 -0.12776133887E+02 -0.11922628747E+02  0.17938718819E+02  0.10566000000E+00 0. -1.
        -13    1    4    4    0    0 -0.18993207192E+01 -0.92537834651E+01 -0.72406300610E+01  0.11902849043E+02  0.10566000000E+00 0.  1.
        -14    1    4    4    0    0 -0.30627458937E+01 -0.11824532037E+02 -0.10390734374E+02  0.16036437607E+02  0.00000000000E+00 0.  1.
<mgrwt>
<rscale>  0 0.79952398E+02</rscale>
<asrwt>0</asrwt>
<pdfrwt beam="1">  1        1 0.22305406E-01 0.79952398E+02</pdfrwt>
<pdfrwt beam="2">  1       -2 0.16957668E-02 0.79952398E+02</pdfrwt>
<totfact> 0.15715027E+05</totfact>
</mgrwt>
</event>
<event>
 8    1  0.1241100E-024  0.7948563E+02  0.7818608E-02  0.1330518E+00
          1   -1    0    0  501    0  0.00000000000E+00  0.00000000000E+00  0.70864237071E+02  0.70864237250E+02  0.50400000000E-02 0. -1.
         -2   -1    0    0    0  501 -0.00000000000E+00 -0.00000000000E+00 -0.22288976126E+02  0.22288976272E+02  0.25500000000E-02 0.  1.
        -24    2    1    2    0    0  0.35527136788E-14  0.71054273576E-14  0.48575260945E+02  0.93153213521E+02  0.79485628975E+02 0.  0.
         66    2    3    3    0    0  0.22836935446E+02 -0.32494938526E+02  0.24069617318E+02  0.46484333269E+02  0.20000278328E+01 0.  0.
         13    1    3    3    0    0 -0.22836935446E+02  0.32494938526E+02  0.24505643627E+02  0.46668880252E+02  0.10566000000E+00 0. -1.
         13    1    4    4    0    0  0.66072655481E+01 -0.79401361996E+01  0.60961682510E+01  0.11994838568E+02  0.10566000000E+00 0. -1.
        -13    1    4    4    0    0  0.15251341739E+02 -0.23099933505E+02  0.16999614057E+02  0.32483971353E+02  0.10566000000E+00 0.  1.
         14    1    4    4    0    0  0.97832815928E+00 -0.14548688213E+01  0.97383501029E+00  0.20055233486E+01  0.00000000000E+00 0. -1.
<mgrwt>
<rscale>  0 0.79485629E+02</rscale>
<asrwt>0</asrwt>
<pdfrwt beam="1">  1        1 0.10902190E-01 0.79485629E+02</pdfrwt>
<pdfrwt beam="2">  1       -2 0.34290732E-02 0.79485629E+02</pdfrwt>
<totfact> 0.14145003E+05</totfact>
</mgrwt>
</event>
<event>
 8    1  0.1241100E-024  0.7904121E+02  0.7818608E-02  0.1331795E+00
         -2   -1    0    0    0  501 -0.00000000000E+00  0.00000000000E+00  0.22583293277E+02  0.22583293421E+02  0.25500000000E-02 0.  1.
          1   -1    0    0  501    0  0.00000000000E+00 -0.00000000000E+00 -0.69160781942E+02  0.69160782125E+02  0.50400000000E-02 0. -1.
        -24    2    1    2    0    0  0.00000000000E+00  0.00000000000E+00 -0.46577488665E+02  0.91744075546E+02  0.79041210438E+02 0.  0.
         66    2    3    3    0    0  0.16226786284E+02  0.35948575674E+02 -0.25700589726E+02  0.47118244916E+02  0.20000013992E+01 0.  0.
         13    1    3    3    0    0 -0.16226786284E+02 -0.35948575674E+02 -0.20876898939E+02  0.44625830630E+02  0.10566000000E+00 0. -1.
         13    1    4    4    0    0  0.97725376248E+01  0.22640250551E+02 -0.15405181472E+02  0.29076007581E+02  0.10566000000E+00 0.  1.
        -13    1    4    4    0    0  0.28053569599E+01  0.66265165013E+01 -0.47345404458E+01  0.86143941100E+01  0.10566000000E+00 0.  1.
        -14    1    4    4    0    0  0.36488916992E+01  0.66818086221E+01 -0.55608678079E+01  0.94278432248E+01  0.00000000000E+00 0.  1.
<mgrwt>
<rscale>  0 0.79041210E+02</rscale>
<asrwt>0</asrwt>
<pdfrwt beam="1">  1        1 0.10640120E-01 0.79041210E+02</pdfrwt>
<pdfrwt beam="2">  1       -2 0.34743529E-02 0.79041210E+02</pdfrwt>
<totfact> 0.14308682E+05</totfact>
</mgrwt>
</event>
<event>
 8    1  0.1241100E-024  0.8398267E+02  0.7818608E-02  0.1318115E+00
          1   -1    0    0  501    0  0.00000000000E+00  0.00000000000E+00  0.61504919726E+02  0.61504919933E+02  0.50400000000E-02 0. -1.
         -2   -1    0    0    0  501 -0.00000000000E+00 -0.00000000000E+00 -0.28668798632E+02  0.28668798745E+02  0.25500000000E-02 0.  1.
        -24    2    1    2    0    0  0.00000000000E+00  0.88817841970E-15  0.32836121095E+02  0.90173718678E+02  0.83982668995E+02 0.  0.
         66    2    3    3    0    0  0.21051391327E+02 -0.65156997974E+01 -0.21921859671E+02  0.31147766400E+02  0.19999998996E+01 0.  0.
         13    1    3    3    0    0 -0.21051391327E+02  0.65156997974E+01  0.54757980766E+02  0.59025952277E+02  0.10566000000E+00 0. -1.
         13    1    4    4    0    0  0.63566979347E+01 -0.26897876073E+01 -0.66344807197E+01  0.95744485199E+01  0.10566000000E+00 0. -1.
        -13    1    4    4    0    0  0.62023593885E+01 -0.20908034103E+01 -0.62343712313E+01  0.90398711036E+01  0.10566000000E+00 0.  1.
         14    1    4    4    0    0  0.84923340042E+01 -0.17351087797E+01 -0.90530077203E+01  0.12533446777E+02  0.00000000000E+00 0. -1.
<mgrwt>
<rscale>  0 0.83982669E+02</rscale>
<asrwt>0</asrwt>
<pdfrwt beam="1">  1        1 0.94622953E-02 0.83982669E+02</pdfrwt>
<pdfrwt beam="2">  1       -2 0.44105844E-02 0.83982669E+02</pdfrwt>
<totfact> 0.11883142E+05</totfact>
</mgrwt>
</event>
<event>
 8    1  0.1241100E-024  0.7886190E+02  0.7818608E-02  0.1332313E+00
          1   -1    0    0  501    0  0.00000000000E+00  0.00000000000E+00  0.10836050186E+02  0.10836051358E+02  0.50400000000E-02 0. -1.
         -2   -1    0    0    0  501 -0.00000000000E+00 -0.00000000000E+00 -0.14348397825E+03  0.14348397827E+03  0.25500000000E-02 0.  1.
        -24    2    1    2    0    0  0.00000000000E+00  0.17763568394E-14 -0.13264792806E+03  0.15432002963E+03  0.78861896536E+02 0.  0.
         66    2    3    3    0    0  0.30713251285E+01 -0.11519119228E+02 -0.13986323666E+03  0.14038464345E+03  0.20000004322E+01 0.  0.
         13    1    3    3    0    0 -0.30713251285E+01  0.11519119228E+02  0.72153085956E+01  0.13935386181E+02  0.10566000000E+00 0. -1.
         13    1    4    4    0    0  0.44790685384E+00 -0.84968003993E+00 -0.16539641231E+02  0.16567844543E+02  0.10566000000E+00 0. -1.
        -13    1    4    4    0    0  0.51318918760E+00 -0.14206164866E+01 -0.13665280022E+02  0.13748911101E+02  0.10566000000E+00 0.  1.
         14    1    4    4    0    0  0.21102290870E+01 -0.92488227018E+01 -0.10965831540E+03  0.11006788780E+03  0.00000000000E+00 0. -1.
<mgrwt>
<rscale>  0 0.78861897E+02</rscale>
<asrwt>0</asrwt>
<pdfrwt beam="1">  1        1 0.16670848E-02 0.78861897E+02</pdfrwt>
<pdfrwt beam="2">  1       -2 0.22074457E-01 0.78861897E+02</pdfrwt>
<totfact> 0.99476277E+04</totfact>
</mgrwt>
</event>
<event>
 8    1  0.1241100E-024  0.8029529E+02  0.7818608E-02  0.1328216E+00
          1   -1    0    0  501    0  0.00000000000E+00  0.00000000000E+00  0.57500831467E+01  0.57500853555E+01  0.50400000000E-02 0. -1.
         -2   -1    0    0    0  501 -0.00000000000E+00 -0.00000000000E+00 -0.28031474262E+03  0.28031474263E+03  0.25500000000E-02 0.  1.
        -24    2    1    2    0    0  0.00000000000E+00  0.00000000000E+00 -0.27456465947E+03  0.28606482799E+03  0.80295289897E+02 0.  0.
         66    2    3    3    0    0  0.28178496613E+02  0.28459506242E+02 -0.14598953680E+03  0.15139655220E+03  0.19999996040E+01 0.  0.
         13    1    3    3    0    0 -0.28178496613E+02 -0.28459506242E+02 -0.12857512268E+03  0.13466827578E+03  0.10566000000E+00 0. -1.
         13    1    4    4    0    0  0.89583195224E+01  0.90970711326E+01 -0.48678347492E+02  0.50324952761E+02  0.10566000000E+00 0. -1.
        -13    1    4    4    0    0  0.17062888284E+02  0.17579009282E+02 -0.88323880002E+02  0.91658511152E+02  0.10566000000E+00 0.  1.
         14    1    4    4    0    0  0.21572888069E+01  0.17834258275E+01 -0.89873093033E+01  0.94130882919E+01  0.00000000000E+00 0. -1.
<mgrwt>
<rscale>  0 0.80295290E+02</rscale>
<asrwt>0</asrwt>
<pdfrwt beam="1">  1        1 0.88462857E-03 0.80295290E+02</pdfrwt>
<pdfrwt beam="2">  1       -2 0.43125334E-01 0.80295290E+02</pdfrwt>
<totfact> 0.72157923E+04</totfact>
</mgrwt>
</event>
<event>
 8    1  0.1241100E-024  0.7590489E+02  0.7818608E-02  0.1341092E+00
         -2   -1    0    0    0  501 -0.00000000000E+00  0.00000000000E+00  0.23968462992E+03  0.23968462994E+03  0.25500000000E-02 0.  1.
          1   -1    0    0  501    0  0.00000000000E+00 -0.00000000000E+00 -0.60095123130E+01  0.60095144265E+01  0.50400000000E-02 0. -1.
        -24    2    1    2    0    0  0.00000000000E+00  0.35527136788E-14  0.23367511761E+03  0.24569414436E+03  0.75904887749E+02 0.  0.
         66    2    3    3    0    0 -0.19473532924E+02 -0.13190503255E+02  0.21322142047E+03  0.21452408258E+03  0.20000000028E+01 0.  0.
         13    1    3    3    0    0  0.19473532924E+02  0.13190503255E+02  0.20453697139E+02  0.31170061779E+02  0.10566000000E+00 0. -1.
         13    1    4    4    0    0 -0.90610814035E+01 -0.60562152392E+01  0.10470069456E+03  0.10526645973E+03  0.10566000000E+00 0. -1.
        -13    1    4    4    0    0 -0.47815717707E+01 -0.32596587783E+01  0.54374941662E+02  0.54682120010E+02  0.10566000000E+00 0.  1.
        -14    1    4    4    0    0 -0.56308797496E+01 -0.38746292371E+01  0.54145784253E+02  0.54575502845E+02  0.00000000000E+00 0.  1.
<mgrwt>
<rscale>  0 0.75904888E+02</rscale>
<asrwt>0</asrwt>
<pdfrwt beam="1">  1        1 0.92454031E-03 0.75904888E+02</pdfrwt>
<pdfrwt beam="2">  1       -2 0.36874567E-01 0.75904888E+02</pdfrwt>
<totfact> 0.90063653E+04</totfact>
</mgrwt>
</event>
<event>
 8    1  0.1241100E-024  0.9003298E+02  0.7818608E-02  0.1302772E+00
         -2   -1    0    0    0  501 -0.00000000000E+00  0.00000000000E+00  0.93180786301E+01  0.93180789790E+01  0.25500000000E-02 0.  1.
          1   -1    0    0  501    0  0.00000000000E+00 -0.00000000000E+00 -0.21747876239E+03  0.21747876245E+03  0.50400000000E-02 0. -1.
        -24    2    1    2    0    0  0.88817841970E-15  0.00000000000E+00 -0.20816068376E+03  0.22679684143E+03  0.90032977392E+02 0.  0.
         66    2    3    3    0    0 -0.57005289981E+01  0.40972542274E+02 -0.59548508719E+02  0.72534613433E+02  0.20000009908E+01 0.  0.
         13    1    3    3    0    0  0.57005289981E+01 -0.40972542274E+02 -0.14861217504E+03  0.15426222799E+03  0.10566000000E+00 0. -1.
         13    1    4    4    0    0 -0.25640354624E+01  0.25172955186E+02 -0.36277341551E+02  0.44230177760E+02  0.10566000000E+00 0. -1.
        -13    1    4    4    0    0 -0.27888194261E+01  0.14036488753E+02 -0.20859953392E+02  0.25297220200E+02  0.10566000000E+00 0.  1.
         14    1    4    4    0    0 -0.34767410964E+00  0.17630983359E+01 -0.24112137753E+01  0.30072154726E+01  0.00000000000E+00 0. -1.
<mgrwt>
<rscale>  0 0.90032977E+02</rscale>
<asrwt>0</asrwt>
<pdfrwt beam="1">  1        1 0.33458267E-01 0.90032977E+02</pdfrwt>
<pdfrwt beam="2">  1       -2 0.14335507E-02 0.90032977E+02</pdfrwt>
<totfact> 0.12365642E+05</totfact>
</mgrwt>
</event>
<event>
 8    1  0.1241100E-024  0.7998138E+02  0.7818608E-02  0.1329104E+00
         -2   -1    0    0    0  501 -0.00000000000E+00  0.00000000000E+00  0.40759507183E+02  0.40759507263E+02  0.25500000000E-02 0.  1.
          1   -1    0    0  501    0  0.00000000000E+00 -0.00000000000E+00 -0.39236376680E+02  0.39236377003E+02  0.50400000000E-02 0. -1.
        -24    2    1    2    0    0  0.00000000000E+00  0.00000000000E+00  0.15231305035E+01  0.79995884266E+02  0.79981382665E+02 0.  0.
         66    2    3    3    0    0  0.70572389245E+01 -0.37717230917E+02  0.11937979293E+02  0.40235673394E+02  0.19999836354E+01 0.  0.
         13    1    3    3    0    0 -0.70572389245E+01  0.37717230917E+02 -0.10414848790E+02  0.39760210873E+02  0.10566000000E+00 0. -1.
         13    1    4    4    0    0  0.26128804123E+01 -0.11411482353E+02  0.43065350289E+01  0.12474232703E+02  0.10566000000E+00 0. -1.
        -13    1    4    4    0    0  0.77936917073E+00 -0.37867446653E+01  0.85318117189E+00  0.39605471355E+01  0.10566000000E+00 0.  1.
         14    1    4    4    0    0  0.36649893414E+01 -0.22519003899E+02  0.67782630923E+01  0.23800893555E+02  0.00000000000E+00 0. -1.
<mgrwt>
<rscale>  0 0.79981383E+02</rscale>
<asrwt>0</asrwt>
<pdfrwt beam="1">  1        1 0.60363657E-02 0.79981383E+02</pdfrwt>
<pdfrwt beam="2">  1       -2 0.62706934E-02 0.79981383E+02</pdfrwt>
<totfact> 0.12666074E+05</totfact>
</mgrwt>
</event>
<event>
 8    1  0.1241100E-024  0.8263431E+02  0.7818608E-02  0.1321738E+00
          1   -1    0    0  501    0  0.00000000000E+00  0.00000000000E+00  0.79526113365E+02  0.79526113525E+02  0.50400000000E-02 0. -1.
         -2   -1    0    0    0  501 -0.00000000000E+00 -0.00000000000E+00 -0.21465996518E+02  0.21465996669E+02  0.25500000000E-02 0.  1.
        -24    2    1    2    0    0  0.00000000000E+00  0.00000000000E+00  0.58060116847E+02  0.10099211019E+03  0.82634309782E+02 0.  0.
         66    2    3    3    0    0  0.13613282835E+02 -0.38984358226E+02  0.29077708318E+02  0.50543197183E+02  0.20000011491E+01 0.  0.
         13    1    3    3    0    0 -0.13613282835E+02  0.38984358226E+02  0.28982408529E+02  0.50448913011E+02  0.10566000000E+00 0. -1.
         13    1    4    4    0    0  0.20207025448E+01 -0.67219040325E+01  0.51189082879E+01  0.86880158087E+01  0.10566000000E+00 0. -1.
        -13    1    4    4    0    0  0.43526742085E+01 -0.11594251670E+02  0.95718642200E+01  0.15652609790E+02  0.10566000000E+00 0.  1.
         14    1    4    4    0    0  0.72399060812E+01 -0.20668202523E+02  0.14386935810E+02  0.26202571584E+02  0.00000000000E+00 0. -1.
<mgrwt>
<rscale>  0 0.82634310E+02</rscale>
<asrwt>0</asrwt>
<pdfrwt beam="1">  1        1 0.12234787E-01 0.82634310E+02</pdfrwt>
<pdfrwt beam="2">  1       -2 0.33024610E-02 0.82634310E+02</pdfrwt>
<totfact> 0.12957236E+05</totfact>
</mgrwt>
</event>
<event>
 8    1  0.1241100E-024  0.7963860E+02  0.7818608E-02  0.1330080E+00
         -2   -1    0    0    0  501 -0.00000000000E+00  0.00000000000E+00  0.32859551068E+02  0.32859551167E+02  0.25500000000E-02 0.  1.
          1   -1    0    0  501    0  0.00000000000E+00 -0.00000000000E+00 -0.48253149052E+02  0.48253149315E+02  0.50400000000E-02 0. -1.
        -24    2    1    2    0    0  0.00000000000E+00  0.00000000000E+00 -0.15393597984E+02  0.81112700482E+02  0.79638604462E+02 0.  0.
         66    2    3    3    0    0 -0.12824525763E+01  0.19352758388E+02  0.27689165406E+02  0.33865376673E+02  0.19999786154E+01 0.  0.
         13    1    3    3    0    0  0.12824525763E+01 -0.19352758388E+02 -0.43082763390E+02  0.47247323810E+02  0.10566000000E+00 0. -1.
         13    1    4    4    0    0 -0.55765226994E-01  0.34622637651E+01  0.53535618791E+01  0.63766894992E+01  0.10566000000E+00 0.  1.
        -13    1    4    4    0    0 -0.85990504636E+00  0.56745306961E+01  0.92016666734E+01  0.10845347801E+02  0.10566000000E+00 0.  1.
        -14    1    4    4    0    0 -0.36678230296E+00  0.10215963927E+02  0.13133936853E+02  0.16643339373E+02  0.00000000000E+00 0.  1.
<mgrwt>
<rscale>  0 0.79638604E+02</rscale>
<asrwt>0</asrwt>
<pdfrwt beam="1">  1        1 0.74235614E-02 0.79638604E+02</pdfrwt>
<pdfrwt beam="2">  1       -2 0.50553156E-02 0.79638604E+02</pdfrwt>
<totfact> 0.13249707E+05</totfact>
</mgrwt>
</event>
<event>
 8    1  0.1241100E-024  0.8162857E+02  0.7818608E-02  0.1324492E+00
         -2   -1    0    0    0  501 -0.00000000000E+00  0.00000000000E+00  0.11368469391E+02  0.11368469677E+02  0.25500000000E-02 0.  1.
          1   -1    0    0  501    0  0.00000000000E+00 -0.00000000000E+00 -0.14652860467E+03  0.14652860476E+03  0.50400000000E-02 0. -1.
        -24    2    1    2    0    0  0.00000000000E+00  0.00000000000E+00 -0.13516013528E+03  0.15789707444E+03  0.81628573098E+02 0.  0.
         66    2    3    3    0    0  0.34959281337E+02 -0.17651699196E+02 -0.45560004699E+02  0.60111961047E+02  0.19999991566E+01 0.  0.
         13    1    3    3    0    0 -0.34959281337E+02  0.17651699196E+02 -0.89600130583E+02  0.97785113390E+02  0.10566000000E+00 0. -1.
         13    1    4    4    0    0  0.43806739824E+01 -0.17659402537E+01 -0.54759600886E+01  0.72322992503E+01  0.10566000000E+00 0. -1.
        -13    1    4    4    0    0  0.95315397831E+01 -0.45799606102E+01 -0.13195549637E+02  0.16910351389E+02  0.10566000000E+00 0.  1.
        -14    1    4    4    0    0  0.21047067571E+02 -0.11305798332E+02 -0.26888494973E+02  0.35969310408E+02  0.00000000000E+00 0.  1.
<mgrwt>
<rscale>  0 0.81628573E+02</rscale>
<asrwt>0</asrwt>
<pdfrwt beam="1">  1        1 0.22542861E-01 0.81628573E+02</pdfrwt>
<pdfrwt beam="2">  1       -2 0.17489954E-02 0.81628573E+02</pdfrwt>
<totfact> 0.14894969E+05</totfact>
</mgrwt>
</event>
<event>
 8    1  0.1241100E-024  0.7168358E+02  0.7818608E-02  0.1354460E+00
         -2   -1    0    0    0  501 -0.00000000000E+00  0.00000000000E+00  0.20555460642E+02  0.20555460801E+02  0.25500000000E-02 0.  1.
          1   -1    0    0  501    0  0.00000000000E+00 -0.00000000000E+00 -0.62495999331E+02  0.62495999535E+02  0.50400000000E-02 0. -1.
        -24    2    1    2    0    0  0.00000000000E+00 -0.88817841970E-15 -0.41940538689E+02  0.83051460335E+02  0.71683584441E+02 0.  0.
         66    2    3    3    0    0 -0.23936899386E+02  0.55125840591E+01  0.92093084947E+01  0.26309220635E+02  0.19999980703E+01 0.  0.
         13    1    3    3    0    0  0.23936899386E+02 -0.55125840591E+01 -0.51149847184E+02  0.56742239700E+02  0.10566000000E+00 0. -1.
         13    1    4    4    0    0 -0.12736910195E+02  0.20918886112E+01  0.50329703208E+01  0.13854487849E+02  0.10566000000E+00 0. -1.
        -13    1    4    4    0    0 -0.45959021230E+01  0.11444273794E+01  0.14256001150E+01  0.49472750151E+01  0.10566000000E+00 0.  1.
         14    1    4    4    0    0 -0.66040870677E+01  0.22762680685E+01  0.27507380589E+01  0.75074577712E+01  0.00000000000E+00 0. -1.
<mgrwt>
<rscale>  0 0.71683584E+02</rscale>
<asrwt>0</asrwt>
<pdfrwt beam="1">  1        1 0.96147691E-02 0.71683584E+02</pdfrwt>
<pdfrwt beam="2">  1       -2 0.31623786E-02 0.71683584E+02</pdfrwt>
<totfact> 0.18376805E+05</totfact>
</mgrwt>
</event>
<event>
 8    1  0.1241100E-024  0.7986846E+02  0.7818608E-02  0.1329425E+00
          1   -1    0    0  501    0  0.00000000000E+00  0.00000000000E+00  0.76932643725E+01  0.76932660234E+01  0.50400000000E-02 0. -1.
         -2   -1    0    0    0  501 -0.00000000000E+00 -0.00000000000E+00 -0.20729074675E+03  0.20729074676E+03  0.25500000000E-02 0.  1.
        -24    2    1    2    0    0  0.35527136788E-14  0.00000000000E+00 -0.19959748237E+03  0.21498401279E+03  0.79868459252E+02 0.  0.
         66    2    3    3    0    0  0.31200845804E+02  0.23444258854E+02 -0.12231919029E+03  0.12840993097E+03  0.20000010953E+01 0.  0.
         13    1    3    3    0    0 -0.31200845804E+02 -0.23444258854E+02 -0.77278292080E+02  0.86574081819E+02  0.10566000000E+00 0. -1.
         13    1    4    4    0    0  0.54635838345E+01  0.35504612577E+01 -0.18784886029E+02  0.19883149414E+02  0.10566000000E+00 0. -1.
        -13    1    4    4    0    0  0.18260329219E+02  0.14412802366E+02 -0.74781097327E+02  0.78315976510E+02  0.10566000000E+00 0.  1.
        -14    1    4    4    0    0  0.74769327504E+01  0.54809952299E+01 -0.28753206938E+02  0.30210805042E+02  0.00000000000E+00 0.  1.
<mgrwt>
<rscale>  0 0.79868459E+02</rscale>
<asrwt>0</asrwt>
<pdfrwt beam="1">  1        1 0.11835794E-02 0.79868459E+02</pdfrwt>
<pdfrwt beam="2">  1       -2 0.31890880E-01 0.79868459E+02</pdfrwt>
<totfact> 0.84190099E+04</totfact>
</mgrwt>
</event>
<event>
 8    1  0.1241100E-024  0.7999582E+02  0.7818608E-02  0.1329063E+00
         -2   -1    0    0    0  501 -0.00000000000E+00  0.00000000000E+00  0.55736598159E+02  0.55736598217E+02  0.25500000000E-02 0.  1.
          1   -1    0    0  501    0  0.00000000000E+00 -0.00000000000E+00 -0.28703451916E+02  0.28703452359E+02  0.50400000000E-02 0. -1.
        -24    2    1    2    0    0  0.00000000000E+00  0.17763568394E-14  0.27033146242E+02  0.84440050576E+02  0.79995819550E+02 0.  0.
         66    2    3    3    0    0  0.66566479638E+01 -0.11802413429E+02  0.53220350969E+02  0.54954651133E+02  0.19999997687E+01 0.  0.
         13    1    3    3    0    0 -0.66566479638E+01  0.11802413429E+02 -0.26187204727E+02  0.29485399443E+02  0.10566000000E+00 0. -1.
         13    1    4    4    0    0  0.28835152660E+01 -0.49754145136E+01  0.25896478336E+02  0.26527498264E+02  0.10566000000E+00 0.  1.
        -13    1    4    4    0    0  0.11046732928E+01 -0.14011535917E+01  0.68184390378E+01  0.70488161715E+01  0.10566000000E+00 0. -1.
         14    1    4    4    0    0  0.26684594051E+01 -0.54258453232E+01  0.20505433595E+02  0.21378336698E+02  0.00000000000E+00 0. -1.
<mgrwt>
<rscale>  0 0.79995820E+02</rscale>
<asrwt>0</asrwt>
<pdfrwt beam="1">  1        1 0.44159158E-02 0.79995820E+02</pdfrwt>
<pdfrwt beam="2">  1       -2 0.85748611E-02 0.79995820E+02</pdfrwt>
<totfact> 0.12001546E+05</totfact>
</mgrwt>
</event>
<event>
 8    1  0.1241100E-024  0.7399329E+02  0.7818608E-02  0.1347017E+00
         -2   -1    0    0    0  501 -0.00000000000E+00  0.00000000000E+00  0.12171385674E+03  0.12171385676E+03  0.25500000000E-02 0.  1.
          1   -1    0    0  501    0  0.00000000000E+00 -0.00000000000E+00 -0.11245651204E+02  0.11245652334E+02  0.50400000000E-02 0. -1.
        -24    2    1    2    0    0  0.00000000000E+00  0.00000000000E+00  0.11046820553E+03  0.13295950910E+03  0.73993287707E+02 0.  0.
         66    2    3    3    0    0 -0.37920880844E+01  0.97831205127E+01  0.11897377115E+03  0.11945228179E+03  0.20000063207E+01 0.  0.
         13    1    3    3    0    0  0.37920880844E+01 -0.97831205127E+01 -0.85055656148E+01  0.13507227305E+02  0.10566000000E+00 0. -1.
         13    1    4    4    0    0 -0.26296365456E+01  0.57837185335E+01  0.78605788566E+02  0.78862206085E+02  0.10566000000E+00 0. -1.
        -13    1    4    4    0    0 -0.79674970810E+00  0.26459079212E+01  0.30111903427E+02  0.30238609936E+02  0.10566000000E+00 0.  1.
         14    1    4    4    0    0 -0.36570183066E+00  0.13534940580E+01  0.10256079155E+02  0.10351465772E+02  0.00000000000E+00 0. -1.
<mgrwt>
<rscale>  0 0.73993288E+02</rscale>
<asrwt>0</asrwt>
<pdfrwt beam="1">  1        1 0.17301002E-02 0.73993288E+02</pdfrwt>
<pdfrwt beam="2">  1       -2 0.18725209E-01 0.73993288E+02</pdfrwt>
<totfact> 0.12303176E+05</totfact>
</mgrwt>
</event>
<event>
 8    1  0.1241100E-024  0.8017494E+02  0.7818608E-02  0.1328556E+00
          1   -1    0    0  501    0  0.00000000000E+00  0.00000000000E+00  0.26912027461E+03  0.26912027466E+03  0.50400000000E-02 0. -1.
         -2   -1    0    0    0  501 -0.00000000000E+00 -0.00000000000E+00 -0.59713271661E+01  0.59713277106E+01  0.25500000000E-02 0.  1.
        -24    2    1    2    0    0 -0.71054273576E-14 -0.22204460493E-15  0.26314894744E+03  0.27509160237E+03  0.80174940926E+02 0.  0.
         66    2    3    3    0    0  0.35598202612E+02  0.16198323618E+01  0.19446986695E+03  0.19771794311E+03  0.19999970727E+01 0.  0.
         13    1    3    3    0    0 -0.35598202612E+02 -0.16198323618E+01  0.68679080492E+02  0.77373659260E+02  0.10566000000E+00 0. -1.
         13    1    4    4    0    0  0.16161488099E+02  0.23228496963E+00  0.91264663320E+02  0.92684937228E+02  0.10566000000E+00 0. -1.
        -13    1    4    4    0    0  0.17391422523E+02  0.11724595276E+01  0.93746173546E+02  0.95352988717E+02  0.10566000000E+00 0.  1.
         14    1    4    4    0    0  0.20452919892E+01  0.21508786454E+00  0.94590300853E+01  0.96800171625E+01  0.00000000000E+00 0. -1.
<mgrwt>
<rscale>  0 0.80174941E+02</rscale>
<asrwt>0</asrwt>
<pdfrwt beam="1">  1        1 0.41403109E-01 0.80174941E+02</pdfrwt>
<pdfrwt beam="2">  1       -2 0.91866598E-03 0.80174941E+02</pdfrwt>
<totfact> 0.17565922E+05</totfact>
</mgrwt>
</event>
<event>
 8    1  0.1241100E-024  0.8033225E+02  0.7818608E-02  0.1328111E+00
         -2   -1    0    0    0  501 -0.00000000000E+00  0.00000000000E+00  0.48739051975E+02  0.48739052042E+02  0.25500000000E-02 0.  1.
          1   -1    0    0  501    0  0.00000000000E+00 -0.00000000000E+00 -0.33101129775E+02  0.33101130159E+02  0.50400000000E-02 0. -1.
        -24    2    1    2    0    0 -0.35527136788E-14  0.00000000000E+00  0.15637922200E+02  0.81840182201E+02  0.80332252626E+02 0.  0.
         66    2    3    3    0    0 -0.16883192025E+02 -0.36035061665E+02  0.13190010437E+02  0.41970754337E+02  0.20000005181E+01 0.  0.
         13    1    3    3    0    0  0.16883192025E+02  0.36035061665E+02  0.24479117627E+01  0.39869427864E+02  0.10566000000E+00 0. -1.
         13    1    4    4    0    0 -0.81123456526E+01 -0.16299173653E+02  0.62012316149E+01  0.19233815309E+02  0.10566000000E+00 0.  1.
        -13    1    4    4    0    0 -0.83996381816E+01 -0.18076739477E+02  0.65373886578E+01  0.20977870392E+02  0.10566000000E+00 0.  1.
        -14    1    4    4    0    0 -0.37120819067E+00 -0.16591485353E+01  0.45139016451E+00  0.17590686353E+01  0.00000000000E+00 0.  1.
<mgrwt>
<rscale>  0 0.80332253E+02</rscale>
<asrwt>0</asrwt>
<pdfrwt beam="1">  1        1 0.50924815E-02 0.80332253E+02</pdfrwt>
<pdfrwt beam="2">  1       -2 0.74983157E-02 0.80332253E+02</pdfrwt>
<totfact> 0.12158868E+05</totfact>
</mgrwt>
</event>
<event>
 8    1  0.1241100E-024  0.7817470E+02  0.7818608E-02  0.1334313E+00
          1   -1    0    0  501    0  0.00000000000E+00  0.00000000000E+00  0.44746682353E+02  0.44746682637E+02  0.50400000000E-02 0. -1.
         -2   -1    0    0    0  501 -0.00000000000E+00 -0.00000000000E+00 -0.34143776765E+02  0.34143776860E+02  0.25500000000E-02 0.  1.
        -24    2    1    2    0    0  0.00000000000E+00  0.00000000000E+00  0.10602905589E+02  0.78890459497E+02  0.78174695348E+02 0.  0.
         66    2    3    3    0    0 -0.35276746843E+02 -0.50667078130E+01 -0.10831974147E+02  0.37302172333E+02  0.20000002374E+01 0.  0.
         13    1    3    3    0    0  0.35276746843E+02  0.50667078130E+01  0.21434879736E+02  0.41588287164E+02  0.10566000000E+00 0. -1.
         13    1    4    4    0    0 -0.47290182291E+01 -0.10766894592E+01 -0.10499236112E+01  0.49635045309E+01  0.10566000000E+00 0. -1.
        -13    1    4    4    0    0 -0.27466031917E+02 -0.37526213955E+01 -0.85326335441E+01  0.29004862969E+02  0.10566000000E+00 0.  1.
        -14    1    4    4    0    0 -0.30816966965E+01 -0.23739695831E+00 -0.12494169921E+01  0.33338048331E+01  0.00000000000E+00 0.  1.
<mgrwt>
<rscale>  0 0.78174695E+02</rscale>
<asrwt>0</asrwt>
<pdfrwt beam="1">  1        1 0.68841050E-02 0.78174695E+02</pdfrwt>
<pdfrwt beam="2">  1       -2 0.52528888E-02 0.78174695E+02</pdfrwt>
<totfact> 0.13789029E+05</totfact>
</mgrwt>
</event>
<event>
 8    1  0.1241100E-024  0.8618527E+02  0.7818608E-02  0.1312362E+00
         -2   -1    0    0    0  501 -0.00000000000E+00  0.00000000000E+00  0.75847184262E+01  0.75847188548E+01  0.25500000000E-02 0.  1.
          1   -1    0    0  501    0  0.00000000000E+00 -0.00000000000E+00 -0.24483114791E+03  0.24483114796E+03  0.50400000000E-02 0. -1.
        -24    2    1    2    0    0  0.88817841970E-15 -0.71054273576E-14 -0.23724642948E+03  0.25241586681E+03  0.86185274368E+02 0.  0.
         66    2    3    3    0    0  0.63109491210E+01 -0.37418748220E+02 -0.59025038388E+02  0.70199330231E+02  0.20000027519E+01 0.  0.
         13    1    3    3    0    0 -0.63109491210E+01  0.37418748220E+02 -0.17822139109E+03  0.18221653658E+03  0.10566000000E+00 0. -1.
         13    1    4    4    0    0  0.95938110351E+00 -0.60550301729E+01 -0.84741732207E+01  0.10459759955E+02  0.10566000000E+00 0. -1.
        -13    1    4    4    0    0  0.89570661889E-01 -0.16107510360E+01 -0.27508675474E+01  0.31907645012E+01  0.10566000000E+00 0.  1.
        -14    1    4    4    0    0  0.52619973556E+01 -0.29752967011E+02 -0.47799997620E+02  0.56548805775E+02  0.00000000000E+00 0.  1.
<mgrwt>
<rscale>  0 0.86185274E+02</rscale>
<asrwt>0</asrwt>
<pdfrwt beam="1">  1        1 0.37666325E-01 0.86185274E+02</pdfrwt>
<pdfrwt beam="2">  1       -2 0.11668800E-02 0.86185274E+02</pdfrwt>
<totfact> 0.14232041E+05</totfact>
</mgrwt>
</event>
<event>
 8    1  0.1241100E-024  0.7972342E+02  0.7818608E-02  0.1329838E+00
         -2   -1    0    0    0  501 -0.00000000000E+00  0.00000000000E+00  0.45184318366E+02  0.45184318438E+02  0.25500000000E-02 0.  1.
          1   -1    0    0  501    0  0.00000000000E+00 -0.00000000000E+00 -0.35166092867E+02  0.35166093228E+02  0.50400000000E-02 0. -1.
        -24    2    1    2    0    0  0.35527136788E-14  0.00000000000E+00  0.10018225499E+02  0.80350411666E+02  0.79723420729E+02 0.  0.
         66    2    3    3    0    0 -0.26154677968E+02  0.15069623038E+02  0.31212670230E+02  0.43467131313E+02  0.20000008830E+01 0.  0.
         13    1    3    3    0    0  0.26154677968E+02 -0.15069623038E+02 -0.21194444730E+02  0.36883280353E+02  0.10566000000E+00 0. -1.
         13    1    4    4    0    0 -0.69699839268E+01  0.43399507778E+01  0.77907825851E+01  0.11319156595E+02  0.10566000000E+00 0. -1.
        -13    1    4    4    0    0 -0.10331347350E+02  0.59451972830E+01  0.11770200795E+02  0.16752041654E+02  0.10566000000E+00 0.  1.
        -14    1    4    4    0    0 -0.88533466919E+01  0.47844749775E+01  0.11651686850E+02  0.15395933064E+02  0.00000000000E+00 0.  1.
<mgrwt>
<rscale>  0 0.79723421E+02</rscale>
<asrwt>0</asrwt>
<pdfrwt beam="1">  1        1 0.54101682E-02 0.79723421E+02</pdfrwt>
<pdfrwt beam="2">  1       -2 0.69514336E-02 0.79723421E+02</pdfrwt>
<totfact> 0.12553277E+05</totfact>
</mgrwt>
</event>
<event>
 8    1  0.1241100E-024  0.7900580E+02  0.7818608E-02  0.1331897E+00
          1   -1    0    0  501    0  0.00000000000E+00  0.00000000000E+00  0.28763059512E+02  0.28763059954E+02  0.50400000000E-02 0. -1.
         -2   -1    0    0    0  501 -0.00000000000E+00 -0.00000000000E+00 -0.54252885606E+02  0.54252885666E+02  0.25500000000E-02 0.  1.
        -24    2    1    2    0    0  0.00000000000E+00  0.00000000000E+00 -0.25489826094E+02  0.83015945620E+02  0.79005797210E+02 0.  0.
         66    2    3    3    0    0 -0.50928714786E+01  0.31594808281E+02 -0.37041356409E+02  0.48992155900E+02  0.20000012232E+01 0.  0.
         13    1    3    3    0    0  0.50928714786E+01 -0.31594808281E+02  0.11551530315E+02  0.34023789720E+02  0.10566000000E+00 0. -1.
         13    1    4    4    0    0 -0.16748217776E+01  0.11172517169E+02 -0.13779520325E+02  0.17818993022E+02  0.10566000000E+00 0. -1.
        -13    1    4    4    0    0 -0.22286228310E+01  0.16194161621E+02 -0.17879644839E+02  0.24226235653E+02  0.10566000000E+00 0.  1.
         14    1    4    4    0    0 -0.11894268700E+01  0.42281294914E+01 -0.53821912451E+01  0.69469272253E+01  0.00000000000E+00 0. -1.
<mgrwt>
<rscale>  0 0.79005797E+02</rscale>
<asrwt>0</asrwt>
<pdfrwt beam="1">  1        1 0.44250861E-02 0.79005797E+02</pdfrwt>
<pdfrwt beam="2">  1       -2 0.83465978E-02 0.79005797E+02</pdfrwt>
<totfact> 0.12444369E+05</totfact>
</mgrwt>
</event>
<event>
 8    1  0.1241100E-024  0.7841309E+02  0.7818608E-02  0.1333616E+00
         -2   -1    0    0    0  501 -0.00000000000E+00  0.00000000000E+00  0.53834216405E+03  0.53834216405E+03  0.25500000000E-02 0.  1.
          1   -1    0    0  501    0  0.00000000000E+00 -0.00000000000E+00 -0.28553436787E+01  0.28553481268E+01  0.50400000000E-02 0. -1.
        -24    2    1    2    0    0  0.00000000000E+00  0.00000000000E+00  0.53548682037E+03  0.54119751218E+03  0.78413088202E+02 0.  0.
         66    2    3    3    0    0 -0.23180313923E+02  0.25564614187E+02  0.39597840457E+03  0.39748430578E+03  0.20000002038E+01 0.  0.
         13    1    3    3    0    0  0.23180313923E+02 -0.25564614187E+02  0.13950841580E+03  0.14371320640E+03  0.10566000000E+00 0. -1.
         13    1    4    4    0    0 -0.88695320792E+01  0.98442113609E+01  0.16153337382E+03  0.16207596712E+03  0.10566000000E+00 0. -1.
        -13    1    4    4    0    0 -0.73902958864E+01  0.87041768148E+01  0.12690646833E+03  0.12741915882E+03  0.10566000000E+00 0.  1.
         14    1    4    4    0    0 -0.69204859572E+01  0.70162260112E+01  0.10753856243E+03  0.10798917984E+03  0.00000000000E+00 0. -1.
<mgrwt>
<rscale>  0 0.78413088E+02</rscale>
<asrwt>0</asrwt>
<pdfrwt beam="1">  1        1 0.43928430E-03 0.78413088E+02</pdfrwt>
<pdfrwt beam="2">  1       -2 0.82821812E-01 0.78413088E+02</pdfrwt>
<totfact> 0.50071923E+04</totfact>
</mgrwt>
</event>
<event>
 8    1  0.1241100E-024  0.8119097E+02  0.7818608E-02  0.1325705E+00
         -2   -1    0    0    0  501 -0.00000000000E+00  0.00000000000E+00  0.88840433625E+01  0.88840437284E+01  0.25500000000E-02 0.  1.
          1   -1    0    0  501    0  0.00000000000E+00 -0.00000000000E+00 -0.18550036186E+03  0.18550036193E+03  0.50400000000E-02 0. -1.
        -24    2    1    2    0    0  0.35527136788E-14  0.00000000000E+00 -0.17661631850E+03  0.19438440566E+03  0.81190967497E+02 0.  0.
         66    2    3    3    0    0 -0.17441725857E+02 -0.22721173932E+02 -0.19572715673E+02  0.34749917222E+02  0.20000006001E+01 0.  0.
         13    1    3    3    0    0  0.17441725857E+02  0.22721173932E+02 -0.15704360283E+03  0.15963448844E+03  0.10566000000E+00 0. -1.
         13    1    4    4    0    0 -0.70049448237E+00 -0.91589149588E+00 -0.46786539354E+00  0.12488441913E+01  0.10566000000E+00 0. -1.
        -13    1    4    4    0    0 -0.90202308538E+01 -0.12472350447E+02 -0.10156786277E+02  0.18441680016E+02  0.10566000000E+00 0.  1.
        -14    1    4    4    0    0 -0.77210005208E+01 -0.93329319894E+01 -0.89480640026E+01  0.15059393014E+02  0.00000000000E+00 0.  1.
<mgrwt>
<rscale>  0 0.81190967E+02</rscale>
<asrwt>0</asrwt>
<pdfrwt beam="1">  1        1 0.28538514E-01 0.81190967E+02</pdfrwt>
<pdfrwt beam="2">  1       -2 0.13667761E-02 0.81190967E+02</pdfrwt>
<totfact> 0.15799390E+05</totfact>
</mgrwt>
</event>
<event>
 8    1  0.1349611E-024  0.7928889E+02  0.7818608E-02  0.1331082E+00
         -2   -1    0    0    0  501 -0.00000000000E+00  0.00000000000E+00  0.82398323209E+01  0.82398327155E+01  0.25500000000E-02 0.  1.
          1   -1    0    0  501    0  0.00000000000E+00 -0.00000000000E+00 -0.19074199878E+03  0.19074199885E+03  0.50400000000E-02 0. -1.
        -24    2    1    2    0    0  0.00000000000E+00  0.35527136788E-14 -0.18250216646E+03  0.19898183157E+03  0.79288892852E+02 0.  0.
         66    2    3    3    0    0 -0.19581053817E+02  0.26922863956E+02 -0.37401533884E+02  0.50111206488E+02  0.20000016677E+01 0.  0.
         13    1    3    3    0    0  0.19581053817E+02 -0.26922863956E+02 -0.14510063258E+03  0.14887062508E+03  0.10566000000E+00 0. -1.
         13    1    4    4    0    0 -0.26931890380E+01  0.33890243617E+01 -0.54546978715E+01  0.69644559172E+01  0.10566000000E+00 0. -1.
        -13    1    4    4    0    0 -0.16127725345E+02  0.22102311010E+02 -0.30499975357E+02  0.40974081291E+02  0.10566000000E+00 0.  1.
         14    1    4    4    0    0 -0.76013943435E+00  0.14315285840E+01 -0.14468606553E+01  0.21726692805E+01  0.00000000000E+00 0. -1.
<mgrwt>
<rscale>  0 0.79288893E+02</rscale>
<asrwt>0</asrwt>
<pdfrwt beam="1">  1        1 0.29344920E-01 0.79288893E+02</pdfrwt>
<pdfrwt beam="2">  1       -2 0.12676667E-02 0.79288893E+02</pdfrwt>
<totfact> 0.16918134E+05</totfact>
</mgrwt>
</event>
<event>
 8    1  0.1241100E-024  0.8681802E+02  0.7818608E-02  0.1310746E+00
          1   -1    0    0  501    0  0.00000000000E+00  0.00000000000E+00  0.92078421199E+02  0.92078421337E+02  0.50400000000E-02 0. -1.
         -2   -1    0    0    0  501 -0.00000000000E+00 -0.00000000000E+00 -0.20464535232E+02  0.20464535390E+02  0.25500000000E-02 0.  1.
        -24    2    1    2    0    0  0.00000000000E+00  0.00000000000E+00  0.71613885968E+02  0.11254295673E+03  0.86818019130E+02 0.  0.
         66    2    3    3    0    0 -0.17134753358E+02  0.14800445911E+02 -0.12149512957E+02  0.25773312639E+02  0.20000018793E+01 0.  0.
         13    1    3    3    0    0  0.17134753358E+02 -0.14800445911E+02  0.83763398925E+02  0.86769644089E+02  0.10566000000E+00 0. -1.
         13    1    4    4    0    0 -0.58795371681E+01  0.47388749045E+01 -0.36731817077E+01  0.83981736446E+01  0.10566000000E+00 0. -1.
        -13    1    4    4    0    0 -0.75207605291E+01  0.59570992260E+01 -0.49021107207E+01  0.10774540532E+02  0.10566000000E+00 0.  1.
        -14    1    4    4    0    0 -0.37344556604E+01  0.41044717800E+01 -0.35742205288E+01  0.66005984623E+01  0.00000000000E+00 0.  1.
<mgrwt>
<rscale>  0 0.86818019E+02</rscale>
<asrwt>0</asrwt>
<pdfrwt beam="1">  1        1 0.14165911E-01 0.86818019E+02</pdfrwt>
<pdfrwt beam="2">  1       -2 0.31483901E-02 0.86818019E+02</pdfrwt>
<totfact> 0.11601365E+05</totfact>
</mgrwt>
</event>
<event>
 8    1  0.1241100E-024  0.8162056E+02  0.7818608E-02  0.1324514E+00
          1   -1    0    0  501    0  0.00000000000E+00  0.00000000000E+00  0.32994587042E+02  0.32994587427E+02  0.50400000000E-02 0. -1.
         -2   -1    0    0    0  501 -0.00000000000E+00 -0.00000000000E+00 -0.50477339215E+02  0.50477339279E+02  0.25500000000E-02 0.  1.
        -24    2    1    2    0    0  0.35527136788E-14  0.00000000000E+00 -0.17482752173E+02  0.83471926706E+02  0.81620560673E+02 0.  0.
         66    2    3    3    0    0 -0.30847570759E+02  0.24994393295E+02 -0.18295512882E+02  0.43760919896E+02  0.20000001544E+01 0.  0.
         13    1    3    3    0    0  0.30847570759E+02 -0.24994393295E+02  0.81276070874E+00  0.39711006811E+02  0.10566000000E+00 0. -1.
         13    1    4    4    0    0 -0.76618772087E+01  0.62939477096E+01 -0.42612096229E+01  0.10792924146E+02  0.10566000000E+00 0. -1.
        -13    1    4    4    0    0 -0.21092581757E+02  0.16897979110E+02 -0.13228710104E+02  0.30090673609E+02  0.10566000000E+00 0.  1.
         14    1    4    4    0    0 -0.20931117931E+01  0.18024664754E+01 -0.80559315514E+00  0.28773221413E+01  0.00000000000E+00 0. -1.
<mgrwt>
<rscale>  0 0.81620561E+02</rscale>
<asrwt>0</asrwt>
<pdfrwt beam="1">  1        1 0.50760904E-02 0.81620561E+02</pdfrwt>
<pdfrwt beam="2">  1       -2 0.77657445E-02 0.81620561E+02</pdfrwt>
<totfact> 0.11611329E+05</totfact>
</mgrwt>
</event>
<event>
 8    1  0.1241100E-024  0.7390673E+02  0.7818608E-02  0.1347290E+00
         -2   -1    0    0    0  501 -0.00000000000E+00  0.00000000000E+00  0.55400193960E+02  0.55400194019E+02  0.25500000000E-02 0.  1.
          1   -1    0    0  501    0  0.00000000000E+00 -0.00000000000E+00 -0.24648851845E+02  0.24648852360E+02  0.50400000000E-02 0. -1.
        -24    2    1    2    0    0 -0.17763568394E-14 -0.35527136788E-14  0.30751342115E+02  0.80049046379E+02  0.73906730305E+02 0.  0.
         66    2    3    3    0    0  0.10230424106E+02  0.20162476402E+02  0.47008476823E+02  0.52201378164E+02  0.19999892356E+01 0.  0.
         13    1    3    3    0    0 -0.10230424106E+02 -0.20162476402E+02 -0.16257134708E+02  0.27847668215E+02  0.10566000000E+00 0. -1.
         13    1    4    4    0    0  0.21474418197E+01  0.28160583531E+01  0.78312627383E+01  0.85954366456E+01  0.10566000000E+00 0. -1.
        -13    1    4    4    0    0  0.34871906991E+01  0.71601905583E+01  0.15703886147E+02  0.17608294408E+02  0.10566000000E+00 0.  1.
         14    1    4    4    0    0  0.45957915876E+01  0.10186227491E+02  0.23473327938E+02  0.25997647111E+02  0.00000000000E+00 0. -1.
<mgrwt>
<rscale>  0 0.73906730E+02</rscale>
<asrwt>0</asrwt>
<pdfrwt beam="1">  1        1 0.37921312E-02 0.73906730E+02</pdfrwt>
<pdfrwt beam="2">  1       -2 0.85231067E-02 0.73906730E+02</pdfrwt>
<totfact> 0.14667518E+05</totfact>
</mgrwt>
</event>
<event>
 8    1  0.1241100E-024  0.8354457E+02  0.7818608E-02  0.1319283E+00
         -2   -1    0    0    0  501 -0.00000000000E+00  0.00000000000E+00  0.22092818275E+03  0.22092818276E+03  0.25500000000E-02 0.  1.
          1   -1    0    0  501    0  0.00000000000E+00 -0.00000000000E+00 -0.78981486253E+01  0.78981502334E+01  0.50400000000E-02 0. -1.
        -24    2    1    2    0    0  0.00000000000E+00  0.00000000000E+00  0.21303003412E+03  0.22882633299E+03  0.83544570345E+02 0.  0.
         66    2    3    3    0    0  0.34419577232E+02 -0.21022320654E+02  0.13611029295E+03  0.14197414241E+03  0.20000013221E+01 0.  0.
         13    1    3    3    0    0 -0.34419577232E+02  0.21022320654E+02  0.76919741172E+02  0.86852190580E+02  0.10566000000E+00 0. -1.
         13    1    4    4    0    0  0.11136862171E+01 -0.45756805293E+00  0.40900712037E+01  0.42649164118E+01  0.10566000000E+00 0. -1.
        -13    1    4    4    0    0  0.17485425522E+02 -0.10609108613E+02  0.71565210326E+02  0.74430395567E+02  0.10566000000E+00 0.  1.
         14    1    4    4    0    0  0.15820465492E+02 -0.99556439877E+01  0.60455011419E+02  0.63278830435E+02  0.00000000000E+00 0. -1.
<mgrwt>
<rscale>  0 0.83544570E+02</rscale>
<asrwt>0</asrwt>
<pdfrwt beam="1">  1        1 0.12151001E-02 0.83544570E+02</pdfrwt>
<pdfrwt beam="2">  1       -2 0.33988947E-01 0.83544570E+02</pdfrwt>
<totfact> 0.72939641E+04</totfact>
</mgrwt>
</event>
<event>
 8    1  0.1241100E-024  0.8212813E+02  0.7818608E-02  0.1323118E+00
          1   -1    0    0  501    0  0.00000000000E+00  0.00000000000E+00  0.24482814457E+03  0.24482814462E+03  0.50400000000E-02 0. -1.
         -2   -1    0    0    0  501 -0.00000000000E+00 -0.00000000000E+00 -0.68875150001E+01  0.68875154722E+01  0.25500000000E-02 0.  1.
        -24    2    1    2    0    0  0.00000000000E+00 -0.35527136788E-14  0.23794062957E+03  0.25171566009E+03  0.82128133647E+02 0.  0.
         66    2    3    3    0    0 -0.31216251145E+02 -0.25824879973E+02  0.98972190276E+02  0.10696201750E+03  0.19999944617E+01 0.  0.
         13    1    3    3    0    0  0.31216251145E+02  0.25824879973E+02  0.13896843929E+03  0.14475364259E+03  0.10566000000E+00 0. -1.
         13    1    4    4    0    0 -0.74189382818E+01 -0.63523403300E+01  0.24436540243E+02  0.26316316915E+02  0.10566000000E+00 0. -1.
        -13    1    4    4    0    0 -0.37095935149E+01 -0.24836112905E+01  0.98682963475E+01  0.10831613265E+02  0.10566000000E+00 0.  1.
        -14    1    4    4    0    0 -0.20087719349E+02 -0.16988928353E+02  0.64667353686E+02  0.69814087317E+02  0.00000000000E+00 0.  1.
<mgrwt>
<rscale>  0 0.82128134E+02</rscale>
<asrwt>0</asrwt>
<pdfrwt beam="1">  1        1 0.37665859E-01 0.82128134E+02</pdfrwt>
<pdfrwt beam="2">  1       -2 0.10596180E-02 0.82128134E+02</pdfrwt>
<totfact> 0.16179285E+05</totfact>
</mgrwt>
</event>
<event>
 8    1  0.1241100E-024  0.8425281E+02  0.7818608E-02  0.1317398E+00
         -2   -1    0    0    0  501 -0.00000000000E+00  0.00000000000E+00  0.27650108023E+02  0.27650108140E+02  0.25500000000E-02 0.  1.
          1   -1    0    0  501    0  0.00000000000E+00 -0.00000000000E+00 -0.64181813674E+02  0.64181813872E+02  0.50400000000E-02 0. -1.
        -24    2    1    2    0    0 -0.71054273576E-14  0.00000000000E+00 -0.36531705651E+02  0.91831922013E+02  0.84252812313E+02 0.  0.
         66    2    3    3    0    0  0.34524225478E+02 -0.14375507766E+02  0.28041007863E+01  0.37555829665E+02  0.19999980471E+01 0.  0.
         13    1    3    3    0    0 -0.34524225478E+02  0.14375507766E+02 -0.39335806438E+02  0.54276092348E+02  0.10566000000E+00 0. -1.
         13    1    4    4    0    0  0.10123925312E+02 -0.39489492089E+01  0.76662690888E+00  0.10894353787E+02  0.10566000000E+00 0. -1.
        -13    1    4    4    0    0  0.16195951179E+02 -0.70858960264E+01  0.61196411685E+00  0.17689104590E+02  0.10566000000E+00 0.  1.
         14    1    4    4    0    0  0.82043489875E+01 -0.33406625303E+01  0.14255097606E+01  0.89723712879E+01  0.00000000000E+00 0. -1.
<mgrwt>
<rscale>  0 0.84252812E+02</rscale>
<asrwt>0</asrwt>
<pdfrwt beam="1">  1        1 0.98741252E-02 0.84252812E+02</pdfrwt>
<pdfrwt beam="2">  1       -2 0.42538628E-02 0.84252812E+02</pdfrwt>
<totfact> 0.11860085E+05</totfact>
</mgrwt>
</event>
<event>
 8    1  0.1241100E-024  0.7687590E+02  0.7818608E-02  0.1338158E+00
         -2   -1    0    0    0  501 -0.00000000000E+00  0.00000000000E+00  0.21704020569E+03  0.21704020571E+03  0.25500000000E-02 0.  1.
          1   -1    0    0  501    0  0.00000000000E+00 -0.00000000000E+00 -0.68073832456E+01  0.68073851113E+01  0.50400000000E-02 0. -1.
        -24    2    1    2    0    0 -0.17763568394E-14  0.00000000000E+00  0.21023282245E+03  0.22384759082E+03  0.76875901825E+02 0.  0.
         66    2    3    3    0    0  0.13297002722E+02  0.48374426180E+01  0.20917017468E+03  0.20965775231E+03  0.19999995680E+01 0.  0.
         13    1    3    3    0    0 -0.13297002722E+02 -0.48374426180E+01  0.10626477697E+01  0.14189838505E+02  0.10566000000E+00 0. -1.
         13    1    4    4    0    0  0.14332857943E+01 -0.90303817649E-01  0.21061903669E+02  0.21111073235E+02  0.10566000000E+00 0. -1.
        -13    1    4    4    0    0  0.67597986203E+01  0.26907050622E+01  0.10524692994E+03  0.10549816206E+03  0.10566000000E+00 0.  1.
         14    1    4    4    0    0  0.51039183079E+01  0.22370413734E+01  0.82861341066E+02  0.83048517022E+02  0.00000000000E+00 0. -1.
<mgrwt>
<rscale>  0 0.76875902E+02</rscale>
<asrwt>0</asrwt>
<pdfrwt beam="1">  1        1 0.10472901E-02 0.76875902E+02</pdfrwt>
<pdfrwt beam="2">  1       -2 0.33390795E-01 0.76875902E+02</pdfrwt>
<totfact> 0.91107999E+04</totfact>
</mgrwt>
</event>
<event>
 8    1  0.1241100E-024  0.7732483E+02  0.7818608E-02  0.1336819E+00
         -2   -1    0    0    0  501 -0.00000000000E+00  0.00000000000E+00  0.65179446985E+03  0.65179446985E+03  0.25500000000E-02 0.  1.
          1   -1    0    0  501    0  0.00000000000E+00 -0.00000000000E+00 -0.22933308990E+01  0.22933364372E+01  0.50400000000E-02 0. -1.
        -24    2    1    2    0    0  0.00000000000E+00 -0.88817841970E-15  0.64950113895E+03  0.65408780629E+03  0.77324826811E+02 0.  0.
         66    2    3    3    0    0  0.11686984918E+02  0.78869753622E+01  0.62925331183E+03  0.62941442663E+03  0.20000004107E+01 0.  0.
         13    1    3    3    0    0 -0.11686984918E+02 -0.78869753622E+01  0.20247827116E+02  0.24673379659E+02  0.10566000000E+00 0. -1.
         13    1    4    4    0    0  0.45778858912E+01  0.30613261300E+01  0.25623049705E+03  0.25628969457E+03  0.10566000000E+00 0. -1.
        -13    1    4    4    0    0  0.41213322469E+01  0.20743378933E+01  0.21690404104E+03  0.21695313420E+03  0.10566000000E+00 0.  1.
         14    1    4    4    0    0  0.29877667803E+01  0.27513113388E+01  0.15611877374E+03  0.15617159786E+03  0.00000000000E+00 0. -1.
<mgrwt>
<rscale>  0 0.77324827E+02</rscale>
<asrwt>0</asrwt>
<pdfrwt beam="1">  1        1 0.35282065E-03 0.77324827E+02</pdfrwt>
<pdfrwt beam="2">  1       -2 0.10027605E+00 0.77324827E+02</pdfrwt>
<totfact> 0.44125037E+04</totfact>
</mgrwt>
</event>
<event>
 8    1  0.1241100E-024  0.7896867E+02  0.7818608E-02  0.1332004E+00
          1   -1    0    0  501    0  0.00000000000E+00  0.00000000000E+00  0.18491850855E+02  0.18491851542E+02  0.50400000000E-02 0. -1.
         -2   -1    0    0    0  501 -0.00000000000E+00 -0.00000000000E+00 -0.84308097154E+02  0.84308097193E+02  0.25500000000E-02 0.  1.
        -24    2    1    2    0    0  0.00000000000E+00 -0.71054273576E-14 -0.65816246299E+02  0.10279994873E+03  0.78968672161E+02 0.  0.
         66    2    3    3    0    0 -0.10749614576E+02  0.37566725771E+02 -0.40082428653E+02  0.56012625309E+02  0.20000021525E+01 0.  0.
         13    1    3    3    0    0  0.10749614576E+02 -0.37566725771E+02 -0.25733817646E+02  0.46787323425E+02  0.10566000000E+00 0. -1.
         13    1    4    4    0    0 -0.32427454347E+01  0.10448387231E+02 -0.11007260584E+02  0.15519508474E+02  0.10566000000E+00 0. -1.
        -13    1    4    4    0    0 -0.13740385407E+01  0.32120485604E+01 -0.32908897603E+01  0.48006621747E+01  0.10566000000E+00 0.  1.
        -14    1    4    4    0    0 -0.61328306002E+01  0.23906289979E+02 -0.25784278309E+02  0.35692454660E+02  0.00000000000E+00 0.  1.
<mgrwt>
<rscale>  0 0.78968672E+02</rscale>
<asrwt>0</asrwt>
<pdfrwt beam="1">  1        1 0.28449002E-02 0.78968672E+02</pdfrwt>
<pdfrwt beam="2">  1       -2 0.12970476E-01 0.78968672E+02</pdfrwt>
<totfact> 0.11419884E+05</totfact>
</mgrwt>
</event>
<event>
 8    1  0.1241100E-024  0.7966865E+02  0.7818608E-02  0.1329994E+00
          1   -1    0    0  501    0  0.00000000000E+00  0.00000000000E+00  0.39726800565E+01  0.39726832536E+01  0.50400000000E-02 0. -1.
         -2   -1    0    0    0  501 -0.00000000000E+00 -0.00000000000E+00 -0.39942127682E+03  0.39942127683E+03  0.25500000000E-02 0.  1.
        -24    2    1    2    0    0  0.00000000000E+00  0.00000000000E+00 -0.39544859676E+03  0.40339396008E+03  0.79668653486E+02 0.  0.
         66    2    3    3    0    0  0.38532786637E+01 -0.39552341164E+02 -0.20975904182E+03  0.21349962782E+03  0.20000009386E+01 0.  0.
         13    1    3    3    0    0 -0.38532786637E+01  0.39552341164E+02 -0.18568955494E+03  0.18989433226E+03  0.10566000000E+00 0. -1.
         13    1    4    4    0    0  0.13414406479E+01 -0.95681443314E+01 -0.49466196852E+02  0.50401038124E+02  0.10566000000E+00 0. -1.
        -13    1    4    4    0    0  0.87772623096E+00 -0.57812885974E+01 -0.29098879682E+02  0.29680796216E+02  0.10566000000E+00 0. -1.
        -14    1    4    4    0    0  0.16341117848E+01 -0.24202908235E+02 -0.13119396529E+03  0.13341779348E+03  0.00000000000E+00 0.  1.
<mgrwt>
<rscale>  0 0.79668653E+02</rscale>
<asrwt>0</asrwt>
<pdfrwt beam="1">  1        1 0.61118211E-03 0.79668653E+02</pdfrwt>
<pdfrwt beam="2">  1       -2 0.61449395E-01 0.79668653E+02</pdfrwt>
<totfact> 0.59787908E+04</totfact>
</mgrwt>
</event>
<event>
 8    1  0.1241100E-024  0.7779376E+02  0.7818608E-02  0.1335432E+00
          1   -1    0    0  501    0  0.00000000000E+00  0.00000000000E+00  0.80336419008E+01  0.80336434818E+01  0.50400000000E-02 0. -1.
         -2   -1    0    0    0  501 -0.00000000000E+00 -0.00000000000E+00 -0.18832894398E+03  0.18832894399E+03  0.25500000000E-02 0.  1.
        -24    2    1    2    0    0  0.00000000000E+00  0.00000000000E+00 -0.18029530208E+03  0.19636258748E+03  0.77793764593E+02 0.  0.
         66    2    3    3    0    0 -0.13316697524E+02 -0.30268179188E+02 -0.14178028402E+03  0.14559926525E+03  0.19999994279E+01 0.  0.
         13    1    3    3    0    0  0.13316697524E+02  0.30268179188E+02 -0.38515018052E+02  0.50763322231E+02  0.10566000000E+00 0. -1.
         13    1    4    4    0    0 -0.18789004478E+01 -0.38677612480E+01 -0.21091945484E+02  0.21526057983E+02  0.10566000000E+00 0. -1.
        -13    1    4    4    0    0 -0.43713237422E+01 -0.10488354938E+02 -0.49228915673E+02  0.50523374422E+02  0.10566000000E+00 0.  1.
         14    1    4    4    0    0 -0.70664733337E+01 -0.15912063002E+02 -0.71459422866E+02  0.73549832840E+02  0.00000000000E+00 0. -1.
<mgrwt>
<rscale>  0 0.77793765E+02</rscale>
<asrwt>0</asrwt>
<pdfrwt beam="1">  1        1 0.12359452E-02 0.77793765E+02</pdfrwt>
<pdfrwt beam="2">  1       -2 0.28973680E-01 0.77793765E+02</pdfrwt>
<totfact> 0.93640031E+04</totfact>
</mgrwt>
</event>
<event>
 8    1  0.1241100E-024  0.8327228E+02  0.7818608E-02  0.1320014E+00
          1   -1    0    0  501    0  0.00000000000E+00  0.00000000000E+00  0.24125232930E+03  0.24125232935E+03  0.50400000000E-02 0. -1.
         -2   -1    0    0    0  501 -0.00000000000E+00 -0.00000000000E+00 -0.71857048973E+01  0.71857053498E+01  0.25500000000E-02 0.  1.
        -24    2    1    2    0    0  0.71054273576E-14  0.00000000000E+00  0.23406662440E+03  0.24843803470E+03  0.83272278866E+02 0.  0.
         66    2    3    3    0    0 -0.22466969808E+02  0.29646973554E+02  0.61456810867E+02  0.71865481155E+02  0.20000016320E+01 0.  0.
         13    1    3    3    0    0  0.22466969808E+02 -0.29646973554E+02  0.17260981354E+03  0.17657255355E+03  0.10566000000E+00 0. -1.
         13    1    4    4    0    0 -0.19828017808E+01  0.23118264360E+01  0.42925118679E+01  0.52643011449E+01  0.10566000000E+00 0. -1.
        -13    1    4    4    0    0 -0.17755662277E+02  0.23728207423E+02  0.48872075096E+02  0.57155771875E+02  0.10566000000E+00 0.  1.
         14    1    4    4    0    0 -0.27285057497E+01  0.36069396946E+01  0.82922239028E+01  0.94454081352E+01  0.00000000000E+00 0. -1.
<mgrwt>
<rscale>  0 0.83272279E+02</rscale>
<asrwt>0</asrwt>
<pdfrwt beam="1">  1        1 0.37115742E-01 0.83272279E+02</pdfrwt>
<pdfrwt beam="2">  1       -2 0.11054931E-02 0.83272279E+02</pdfrwt>
<totfact> 0.15550745E+05</totfact>
</mgrwt>
</event>
<event>
 8    1  0.1241100E-024  0.7461038E+02  0.7818608E-02  0.1345082E+00
          1   -1    0    0  501    0  0.00000000000E+00  0.00000000000E+00  0.31905228193E+02  0.31905228591E+02  0.50400000000E-02 0. -1.
         -2   -1    0    0    0  501 -0.00000000000E+00 -0.00000000000E+00 -0.43619097284E+02  0.43619097358E+02  0.25500000000E-02 0.  1.
        -24    2    1    2    0    0  0.00000000000E+00  0.00000000000E+00 -0.11713869091E+02  0.75524325949E+02  0.74610381858E+02 0.  0.
         66    2    3    3    0    0  0.36360993105E+02 -0.80669899160E+01 -0.42688870809E+01  0.37542263511E+02  0.20000016877E+01 0.  0.
         13    1    3    3    0    0 -0.36360993105E+02  0.80669899160E+01 -0.74449820102E+01  0.37982062438E+02  0.10566000000E+00 0. -1.
         13    1    4    4    0    0  0.53211741604E+01 -0.13860136498E+01 -0.38638067105E+00  0.55132914254E+01  0.10566000000E+00 0. -1.
        -13    1    4    4    0    0  0.55519956687E+00 -0.32207127160E+00 -0.12399209100E+00  0.66220430176E+00  0.10566000000E+00 0.  1.
        -14    1    4    4    0    0  0.30484619378E+02 -0.63589049946E+01 -0.37585143188E+01  0.31366767784E+02  0.00000000000E+00 0.  1.
<mgrwt>
<rscale>  0 0.74610382E+02</rscale>
<asrwt>0</asrwt>
<pdfrwt beam="1">  1        1 0.49084967E-02 0.74610382E+02</pdfrwt>
<pdfrwt beam="2">  1       -2 0.67106304E-02 0.74610382E+02</pdfrwt>
<totfact> 0.14903493E+05</totfact>
</mgrwt>
</event>
<event>
 8    1  0.1241100E-024  0.8008903E+02  0.7818608E-02  0.1328799E+00
         -2   -1    0    0    0  501 -0.00000000000E+00  0.00000000000E+00  0.51459889452E+02  0.51459889516E+02  0.25500000000E-02 0.  1.
          1   -1    0    0  501    0  0.00000000000E+00 -0.00000000000E+00 -0.31161417590E+02  0.31161417998E+02  0.50400000000E-02 0. -1.
        -24    2    1    2    0    0  0.53290705182E-14  0.00000000000E+00  0.20298471863E+02  0.82621307513E+02  0.80089028557E+02 0.  0.
         66    2    3    3    0    0 -0.14308141436E+02  0.33689738458E+02  0.26848546064E+02  0.45437493497E+02  0.20000002070E+01 0.  0.
         13    1    3    3    0    0  0.14308141436E+02 -0.33689738458E+02 -0.65500742013E+01  0.37183814016E+02  0.10566000000E+00 0. -1.
         13    1    4    4    0    0 -0.16754973679E+01  0.44018809441E+01  0.32981904350E+01  0.57509191837E+01  0.10566000000E+00 0. -1.
        -13    1    4    4    0    0 -0.11862001010E+02  0.27681003366E+02  0.21713116286E+02  0.37127019786E+02  0.10566000000E+00 0.  1.
         14    1    4    4    0    0 -0.77064305825E+00  0.16068541479E+01  0.18372393424E+01  0.25595545271E+01  0.00000000000E+00 0. -1.
<mgrwt>
<rscale>  0 0.80089029E+02</rscale>
<asrwt>0</asrwt>
<pdfrwt beam="1">  1        1 0.47940643E-02 0.80089029E+02</pdfrwt>
<pdfrwt beam="2">  1       -2 0.79169060E-02 0.80089029E+02</pdfrwt>
<totfact> 0.12137104E+05</totfact>
</mgrwt>
</event>
<event>
 8    1  0.1241100E-024  0.8005148E+02  0.7818608E-02  0.1328905E+00
         -2   -1    0    0    0  501 -0.00000000000E+00  0.00000000000E+00  0.47547283645E+02  0.47547283713E+02  0.25500000000E-02 0.  1.
          1   -1    0    0  501    0  0.00000000000E+00 -0.00000000000E+00 -0.33694038323E+02  0.33694038700E+02  0.50400000000E-02 0. -1.
        -24    2    1    2    0    0  0.00000000000E+00  0.00000000000E+00  0.13853245321E+02  0.81241322413E+02  0.80051483818E+02 0.  0.
         66    2    3    3    0    0  0.35656162445E+02 -0.16458301443E+02  0.14647730667E+02  0.41961811499E+02  0.20000009627E+01 0.  0.
         13    1    3    3    0    0 -0.35656162445E+02  0.16458301443E+02 -0.79448534524E+00  0.39279510915E+02  0.10566000000E+00 0. -1.
         13    1    4    4    0    0  0.47138183447E+01 -0.24975812908E+01  0.21935234641E+01  0.57689431366E+01  0.10566000000E+00 0.  1.
        -13    1    4    4    0    0  0.10323047446E+01 -0.53281332385E+00  0.71734478724E+00  0.13694125394E+01  0.10566000000E+00 0.  1.
        -14    1    4    4    0    0  0.29910039356E+02 -0.13427906829E+02  0.11736862415E+02  0.34823455823E+02  0.00000000000E+00 0.  1.
<mgrwt>
<rscale>  0 0.80051484E+02</rscale>
<asrwt>0</asrwt>
<pdfrwt beam="1">  1        1 0.51836982E-02 0.80051484E+02</pdfrwt>
<pdfrwt beam="2">  1       -2 0.73149667E-02 0.80051484E+02</pdfrwt>
<totfact> 0.12318284E+05</totfact>
</mgrwt>
</event>
<event>
 8    1  0.1241100E-024  0.8042006E+02  0.7818608E-02  0.1327864E+00
         -2   -1    0    0    0  501 -0.00000000000E+00  0.00000000000E+00  0.37655423898E+02  0.37655423985E+02  0.25500000000E-02 0.  1.
          1   -1    0    0  501    0  0.00000000000E+00 -0.00000000000E+00 -0.42937945572E+02  0.42937945868E+02  0.50400000000E-02 0. -1.
        -24    2    1    2    0    0  0.00000000000E+00 -0.17763568394E-14 -0.52825216738E+01  0.80593369853E+02  0.80420061110E+02 0.  0.
         66    2    3    3    0    0  0.38847050158E+02  0.80122275309E+01 -0.91029040297E+01  0.40744962339E+02  0.19999995699E+01 0.  0.
         13    1    3    3    0    0 -0.38847050158E+02 -0.80122275309E+01  0.38203823559E+01  0.39848407513E+02  0.10566000000E+00 0. -1.
         13    1    4    4    0    0  0.20579175541E+02  0.44600498760E+01 -0.42111273269E+01  0.21474153493E+02  0.10566000000E+00 0. -1.
        -13    1    4    4    0    0  0.16049689897E+02  0.33575517713E+01 -0.45584403059E+01  0.17019290283E+02  0.10566000000E+00 0.  1.
         14    1    4    4    0    0  0.22181847198E+01  0.19462588360E+00 -0.33333639692E+00  0.22515185630E+01  0.00000000000E+00 0. -1.
<mgrwt>
<rscale>  0 0.80420061E+02</rscale>
<asrwt>0</asrwt>
<pdfrwt beam="1">  1        1 0.66058378E-02 0.80420061E+02</pdfrwt>
<pdfrwt beam="2">  1       -2 0.57931422E-02 0.80420061E+02</pdfrwt>
<totfact> 0.12656029E+05</totfact>
</mgrwt>
</event>
<event>
 8    1  0.1241100E-024  0.7916447E+02  0.7818608E-02  0.1331439E+00
          1   -1    0    0  501    0  0.00000000000E+00  0.00000000000E+00  0.36687740372E+01  0.36687774990E+01  0.50400000000E-02 0. -1.
         -2   -1    0    0    0  501 -0.00000000000E+00 -0.00000000000E+00 -0.42705073162E+03  0.42705073163E+03  0.25500000000E-02 0.  1.
        -24    2    1    2    0    0  0.71054273576E-14 -0.35527136788E-14 -0.42338195758E+03  0.43071950913E+03  0.79164471422E+02 0.  0.
         66    2    3    3    0    0  0.31667201487E+02 -0.21251393151E+02 -0.26897116654E+03  0.27166877220E+03  0.20000001276E+01 0.  0.
         13    1    3    3    0    0 -0.31667201487E+02  0.21251393151E+02 -0.15441079105E+03  0.15905073693E+03  0.10566000000E+00 0. -1.
         13    1    4    4    0    0  0.51496552975E+01 -0.28165935761E+01 -0.41265623732E+02  0.41681111011E+02  0.10566000000E+00 0. -1.
        -13    1    4    4    0    0  0.17708899378E+02 -0.12969829400E+02 -0.15346895047E+03  0.15503080828E+03  0.10566000000E+00 0.  1.
        -14    1    4    4    0    0  0.88086468112E+01 -0.54649701748E+01 -0.74236592331E+02  0.74956852912E+02  0.00000000000E+00 0.  1.
<mgrwt>
<rscale>  0 0.79164471E+02</rscale>
<asrwt>0</asrwt>
<pdfrwt beam="1">  1        1 0.56442738E-03 0.79164471E+02</pdfrwt>
<pdfrwt beam="2">  1       -2 0.65700073E-01 0.79164471E+02</pdfrwt>
<totfact> 0.58084725E+04</totfact>
</mgrwt>
</event>
<event>
 8    1  0.1241100E-024  0.7948734E+02  0.7818608E-02  0.1330513E+00
         -2   -1    0    0    0  501 -0.00000000000E+00  0.00000000000E+00  0.88583743030E+03  0.88583743030E+03  0.25500000000E-02 0.  1.
          1   -1    0    0  501    0  0.00000000000E+00 -0.00000000000E+00 -0.17831218020E+01  0.17831289248E+01  0.50400000000E-02 0. -1.
        -24    2    1    2    0    0  0.17763568394E-14  0.00000000000E+00  0.88405430850E+03  0.88762055923E+03  0.79487337300E+02 0.  0.
         66    2    3    3    0    0 -0.12865989723E+02 -0.19492030659E+02  0.80105162855E+03  0.80139452492E+03  0.20000026612E+01 0.  0.
         13    1    3    3    0    0  0.12865989723E+02  0.19492030659E+02  0.83002679943E+02  0.86226034309E+02  0.10566000000E+00 0. -1.
         13    1    4    4    0    0 -0.52074022404E+00 -0.10063688454E+01  0.32422026651E+02  0.32441993232E+02  0.10566000000E+00 0. -1.
        -13    1    4    4    0    0 -0.28165852998E+01 -0.33323268602E+01  0.16340983336E+03  0.16346810808E+03  0.10566000000E+00 0.  1.
        -14    1    4    4    0    0 -0.95286641989E+01 -0.15153334954E+02  0.60521976854E+03  0.60548442360E+03  0.00000000000E+00 0.  1.
<mgrwt>
<rscale>  0 0.79487337E+02</rscale>
<asrwt>0</asrwt>
<pdfrwt beam="1">  1        1 0.27432728E-03 0.79487337E+02</pdfrwt>
<pdfrwt beam="2">  1       -2 0.13628253E+00 0.79487337E+02</pdfrwt>
<totfact> 0.30374179E+04</totfact>
</mgrwt>
</event>
<event>
 8    1  0.1241100E-024  0.7958962E+02  0.7818608E-02  0.1330220E+00
          1   -1    0    0  501    0  0.00000000000E+00  0.00000000000E+00  0.30259820298E+02  0.30259820717E+02  0.50400000000E-02 0. -1.
         -2   -1    0    0    0  501 -0.00000000000E+00 -0.00000000000E+00 -0.52334316117E+02  0.52334316179E+02  0.25500000000E-02 0.  1.
        -24    2    1    2    0    0  0.35527136788E-14  0.35527136788E-14 -0.22074495819E+02  0.82594136897E+02  0.79589622967E+02 0.  0.
         66    2    3    3    0    0 -0.25177199091E+02 -0.30716591654E+02 -0.13176442208E+02  0.41892946755E+02  0.20000004134E+01 0.  0.
         13    1    3    3    0    0  0.25177199091E+02  0.30716591654E+02 -0.88980536117E+01  0.40701190142E+02  0.10566000000E+00 0. -1.
         13    1    4    4    0    0 -0.34659795240E+01 -0.37548459377E+01 -0.14723971240E+01  0.53189284074E+01  0.10566000000E+00 0. -1.
        -13    1    4    4    0    0 -0.70517139003E+01 -0.77158770559E+01 -0.32666740711E+01  0.10951883454E+02  0.10566000000E+00 0.  1.
        -14    1    4    4    0    0 -0.14659505666E+02 -0.19245868660E+02 -0.84373710127E+01  0.25622134893E+02  0.00000000000E+00 0.  1.
<mgrwt>
<rscale>  0 0.79589623E+02</rscale>
<asrwt>0</asrwt>
<pdfrwt beam="1">  1        1 0.46553570E-02 0.79589623E+02</pdfrwt>
<pdfrwt beam="2">  1       -2 0.80514333E-02 0.79589623E+02</pdfrwt>
<totfact> 0.12293423E+05</totfact>
</mgrwt>
</event>
<event>
 8    1  0.1241100E-024  0.7968551E+02  0.7818608E-02  0.1329946E+00
         -2   -1    0    0    0  501 -0.00000000000E+00  0.00000000000E+00  0.42782481065E+03  0.42782481066E+03  0.25500000000E-02 0.  1.
          1   -1    0    0  501    0  0.00000000000E+00 -0.00000000000E+00 -0.37105007899E+01  0.37105042128E+01  0.50400000000E-02 0. -1.
        -24    2    1    2    0    0  0.00000000000E+00  0.00000000000E+00  0.42411430986E+03  0.43153531487E+03  0.79685507793E+02 0.  0.
         66    2    3    3    0    0  0.33348902059E+02 -0.13959166399E+02  0.30255468140E+03  0.30471354218E+03  0.19999876130E+01 0.  0.
         13    1    3    3    0    0 -0.33348902059E+02  0.13959166399E+02  0.12155962846E+03  0.12682177269E+03  0.10566000000E+00 0. -1.
         13    1    4    4    0    0  0.25140399716E+01 -0.95797306513E+00  0.19392275863E+02  0.19578295037E+02  0.10566000000E+00 0. -1.
        -13    1    4    4    0    0  0.60615350372E+01 -0.24407032060E+01  0.51671792642E+02  0.52083438424E+02  0.10566000000E+00 0.  1.
        -14    1    4    4    0    0  0.24773327050E+02 -0.10560490128E+02  0.23149061290E+03  0.23305180871E+03  0.00000000000E+00 0.  1.
<mgrwt>
<rscale>  0 0.79685508E+02</rscale>
<asrwt>0</asrwt>
<pdfrwt beam="1">  1        1 0.57084664E-03 0.79685508E+02</pdfrwt>
<pdfrwt beam="2">  1       -2 0.65819190E-01 0.79685508E+02</pdfrwt>
<totfact> 0.57037349E+04</totfact>
</mgrwt>
</event>
<event>
 8    1  0.1241100E-024  0.8075079E+02  0.7818608E-02  0.1326934E+00
          1   -1    0    0  501    0  0.00000000000E+00  0.00000000000E+00  0.60191323586E+02  0.60191323797E+02  0.50400000000E-02 0. -1.
         -2   -1    0    0    0  501 -0.00000000000E+00 -0.00000000000E+00 -0.27083179170E+02  0.27083179290E+02  0.25500000000E-02 0.  1.
        -24    2    1    2    0    0 -0.17763568394E-14 -0.35527136788E-14  0.33108144416E+02  0.87274503087E+02  0.80750787379E+02 0.  0.
         66    2    3    3    0    0  0.13723757234E+02  0.21751877697E+02 -0.17039136188E+02  0.30916303933E+02  0.19999977198E+01 0.  0.
         13    1    3    3    0    0 -0.13723757234E+02 -0.21751877697E+02  0.50147280604E+02  0.56358199154E+02  0.10566000000E+00 0. -1.
         13    1    4    4    0    0  0.44424258751E+01  0.60335649588E+01 -0.46509879260E+01  0.88194051098E+01  0.10566000000E+00 0. -1.
        -13    1    4    4    0    0  0.87210476031E+01  0.14407073058E+02 -0.11060626326E+02  0.20148673508E+02  0.10566000000E+00 0.  1.
         14    1    4    4    0    0  0.56028375552E+00  0.13112396805E+01 -0.13275219358E+01  0.19482253146E+01  0.00000000000E+00 0. -1.
<mgrwt>
<rscale>  0 0.80750787E+02</rscale>
<asrwt>0</asrwt>
<pdfrwt beam="1">  1        1 0.92602036E-02 0.80750787E+02</pdfrwt>
<pdfrwt beam="2">  1       -2 0.41666430E-02 0.80750787E+02</pdfrwt>
<totfact> 0.13200703E+05</totfact>
</mgrwt>
</event>
<event>
 8    1  0.1241100E-024  0.8071101E+02  0.7818608E-02  0.1327046E+00
         -2   -1    0    0    0  501 -0.00000000000E+00  0.00000000000E+00  0.30321311263E+02  0.30321311370E+02  0.25500000000E-02 0.  1.
          1   -1    0    0  501    0  0.00000000000E+00 -0.00000000000E+00 -0.53710304508E+02  0.53710304744E+02  0.50400000000E-02 0. -1.
        -24    2    1    2    0    0  0.00000000000E+00  0.00000000000E+00 -0.23388993245E+02  0.84031616114E+02  0.80711012271E+02 0.  0.
         66    2    3    3    0    0 -0.95989233282E+01  0.55384256824E+01  0.28671946048E+02  0.30804122729E+02  0.19999997066E+01 0.  0.
         13    1    3    3    0    0  0.95989233282E+01 -0.55384256824E+01 -0.52060939292E+02  0.53227493386E+02  0.10566000000E+00 0. -1.
         13    1    4    4    0    0 -0.40949620105E+01  0.20643058335E+01  0.10598147196E+02  0.11548244909E+02  0.10566000000E+00 0. -1.
        -13    1    4    4    0    0 -0.41107802031E+01  0.18697000789E+01  0.12163851939E+02  0.12975544316E+02  0.10566000000E+00 0.  1.
         14    1    4    4    0    0 -0.13931811145E+01  0.16044197700E+01  0.59099469123E+01  0.62803335041E+01  0.00000000000E+00 0. -1.
<mgrwt>
<rscale>  0 0.80711012E+02</rscale>
<asrwt>0</asrwt>
<pdfrwt beam="1">  1        1 0.82631238E-02 0.80711012E+02</pdfrwt>
<pdfrwt beam="2">  1       -2 0.46648171E-02 0.80711012E+02</pdfrwt>
<totfact> 0.12983185E+05</totfact>
</mgrwt>
</event>
<event>
 8    1  0.1241100E-024  0.7898414E+02  0.7818608E-02  0.1331959E+00
         -2   -1    0    0    0  501 -0.00000000000E+00  0.00000000000E+00  0.33679996766E+02  0.33679996862E+02  0.25500000000E-02 0.  1.
          1   -1    0    0  501    0  0.00000000000E+00 -0.00000000000E+00 -0.46307116545E+02  0.46307116819E+02  0.50400000000E-02 0. -1.
        -24    2    1    2    0    0  0.00000000000E+00 -0.35527136788E-14 -0.12627119779E+02  0.79987113682E+02  0.78984138922E+02 0.  0.
         66    2    3    3    0    0  0.20688507321E+02 -0.17714745098E+02  0.22607170917E+02  0.35452936537E+02  0.20000007951E+01 0.  0.
         13    1    3    3    0    0 -0.20688507321E+02  0.17714745098E+02 -0.35234290696E+02  0.44534177145E+02  0.10566000000E+00 0. -1.
         13    1    4    4    0    0  0.63371289188E+01 -0.62235800410E+01  0.81323411519E+01  0.12043184301E+02  0.10566000000E+00 0. -1.
        -13    1    4    4    0    0  0.50126372094E+01 -0.38998300933E+01  0.46112399639E+01  0.78491977035E+01  0.10566000000E+00 0.  1.
         14    1    4    4    0    0  0.93387411926E+01 -0.75913349641E+01  0.98635898010E+01  0.15560554533E+02  0.00000000000E+00 0. -1.
<mgrwt>
<rscale>  0 0.78984139E+02</rscale>
<asrwt>0</asrwt>
<pdfrwt beam="1">  1        1 0.71241718E-02 0.78984139E+02</pdfrwt>
<pdfrwt beam="2">  1       -2 0.51815380E-02 0.78984139E+02</pdfrwt>
<totfact> 0.13470624E+05</totfact>
</mgrwt>
</event>
<event>
 8    1  0.1241100E-024  0.7795351E+02  0.7818608E-02  0.1334961E+00
         -2   -1    0    0    0  501 -0.00000000000E+00  0.00000000000E+00  0.20260387852E+02  0.20260388013E+02  0.25500000000E-02 0.  1.
          1   -1    0    0  501    0  0.00000000000E+00 -0.00000000000E+00 -0.74983136028E+02  0.74983136197E+02  0.50400000000E-02 0. -1.
        -24    2    1    2    0    0  0.00000000000E+00  0.17763568394E-14 -0.54722748175E+02  0.95243524210E+02  0.77953510095E+02 0.  0.
         66    2    3    3    0    0 -0.33273332779E+02  0.13899348304E+02 -0.93862569081E+01  0.37314989256E+02  0.20000117212E+01 0.  0.
         13    1    3    3    0    0  0.33273332779E+02 -0.13899348304E+02 -0.45336491267E+02  0.57928534955E+02  0.10566000000E+00 0. -1.
         13    1    4    4    0    0 -0.77037942593E+01  0.34527900320E+01 -0.16229379753E+01  0.85974005782E+01  0.10566000000E+00 0. -1.
        -13    1    4    4    0    0 -0.12563117103E+02  0.47487066636E+01 -0.32625090239E+01  0.13821622751E+02  0.10566000000E+00 0.  1.
         14    1    4    4    0    0 -0.13006421417E+02  0.56978516085E+01 -0.45008099089E+01  0.14895965926E+02  0.00000000000E+00 0. -1.
<mgrwt>
<rscale>  0 0.77953510E+02</rscale>
<asrwt>0</asrwt>
<pdfrwt beam="1">  1        1 0.11535867E-01 0.77953510E+02</pdfrwt>
<pdfrwt beam="2">  1       -2 0.31169828E-02 0.77953510E+02</pdfrwt>
<totfact> 0.15049249E+05</totfact>
</mgrwt>
</event>
<event>
 8    1  0.1241100E-024  0.7872858E+02  0.7818608E-02  0.1332699E+00
          1   -1    0    0  501    0  0.00000000000E+00  0.00000000000E+00  0.84479581279E+02  0.84479581429E+02  0.50400000000E-02 0. -1.
         -2   -1    0    0    0  501 -0.00000000000E+00 -0.00000000000E+00 -0.18342271200E+02  0.18342271378E+02  0.25500000000E-02 0.  1.
        -24    2    1    2    0    0  0.71054273576E-14 -0.17763568394E-14  0.66137310079E+02  0.10282185281E+03  0.78728582041E+02 0.  0.
         66    2    3    3    0    0  0.35733526646E+02 -0.15242101900E+02  0.41176344519E+02  0.56645370020E+02  0.19999999782E+01 0.  0.
         13    1    3    3    0    0 -0.35733526646E+02  0.15242101900E+02  0.24960965560E+02  0.46176482787E+02  0.10566000000E+00 0. -1.
         13    1    4    4    0    0  0.52823971005E+01 -0.25592866898E+01  0.66456267245E+01  0.88673099689E+01  0.10566000000E+00 0. -1.
        -13    1    4    4    0    0  0.24318555758E+02 -0.10550464221E+02  0.28374227725E+02  0.38830560291E+02  0.10566000000E+00 0.  1.
        -14    1    4    4    0    0  0.61325737870E+01 -0.21323509885E+01  0.61564900688E+01  0.89474997602E+01  0.00000000000E+00 0.  1.
<mgrwt>
<rscale>  0 0.78728582E+02</rscale>
<asrwt>0</asrwt>
<pdfrwt beam="1">  1        1 0.12996859E-01 0.78728582E+02</pdfrwt>
<pdfrwt beam="2">  1       -2 0.28218879E-02 0.78728582E+02</pdfrwt>
<totfact> 0.14930398E+05</totfact>
</mgrwt>
</event>
<event>
 8    1  0.1241100E-024  0.7746046E+02  0.7818608E-02  0.1336417E+00
         -2   -1    0    0    0  501 -0.00000000000E+00  0.00000000000E+00  0.93862721845E+02  0.93862721880E+02  0.25500000000E-02 0.  1.
          1   -1    0    0  501    0  0.00000000000E+00 -0.00000000000E+00 -0.15981112175E+02  0.15981112970E+02  0.50400000000E-02 0. -1.
        -24    2    1    2    0    0  0.00000000000E+00 -0.17763568394E-14  0.77881609670E+02  0.10984383485E+03  0.77460460428E+02 0.  0.
         66    2    3    3    0    0  0.34646897220E+02 -0.13826356778E+02  0.53597517609E+02  0.65331994627E+02  0.19999998410E+01 0.  0.
         13    1    3    3    0    0 -0.34646897220E+02  0.13826356778E+02  0.24284092061E+02  0.44511840222E+02  0.10566000000E+00 0. -1.
         13    1    4    4    0    0  0.15088243837E+02 -0.61193970793E+01  0.24939889544E+02  0.29784415005E+02  0.10566000000E+00 0. -1.
        -13    1    4    4    0    0  0.18852568243E+02 -0.72967087259E+01  0.27505048089E+02  0.34135027787E+02  0.10566000000E+00 0.  1.
         14    1    4    4    0    0  0.70608514071E+00 -0.41025097284E+00  0.11525799762E+01  0.14125518356E+01  0.00000000000E+00 0. -1.
<mgrwt>
<rscale>  0 0.77460460E+02</rscale>
<asrwt>0</asrwt>
<pdfrwt beam="1">  1        1 0.24586327E-02 0.77460460E+02</pdfrwt>
<pdfrwt beam="2">  1       -2 0.14440419E-01 0.77460460E+02</pdfrwt>
<totfact> 0.11703594E+05</totfact>
</mgrwt>
</event>
<event>
 8    1  0.1241100E-024  0.7718247E+02  0.7818608E-02  0.1337243E+00
         -2   -1    0    0    0  501 -0.00000000000E+00  0.00000000000E+00  0.63455118724E+01  0.63455123847E+01  0.25500000000E-02 0.  1.
          1   -1    0    0  501    0  0.00000000000E+00 -0.00000000000E+00 -0.23469871133E+03  0.23469871138E+03  0.50400000000E-02 0. -1.
        -24    2    1    2    0    0  0.00000000000E+00  0.00000000000E+00 -0.22835319945E+03  0.24104422376E+03  0.77182472814E+02 0.  0.
         66    2    3    3    0    0 -0.10794553312E+02 -0.36558487419E+02 -0.13252571979E+03  0.13791342136E+03  0.19999998916E+01 0.  0.
         13    1    3    3    0    0  0.10794553312E+02  0.36558487419E+02 -0.95827479660E+02  0.10313080241E+03  0.10566000000E+00 0. -1.
         13    1    4    4    0    0 -0.51036354092E+01 -0.17476490242E+02 -0.61219823748E+02  0.63869811252E+02  0.10566000000E+00 0.  1.
        -13    1    4    4    0    0 -0.45907339972E+01 -0.13631862674E+02 -0.50799728158E+02  0.52797027034E+02  0.10566000000E+00 0. -1.
        -14    1    4    4    0    0 -0.11001839051E+01 -0.54501345039E+01 -0.20506167887E+02  0.21246583070E+02  0.00000000000E+00 0.  1.
<mgrwt>
<rscale>  0 0.77182473E+02</rscale>
<asrwt>0</asrwt>
<pdfrwt beam="1">  1        1 0.36107488E-01 0.77182473E+02</pdfrwt>
<pdfrwt beam="2">  1       -2 0.97623282E-03 0.77182473E+02</pdfrwt>
<totfact> 0.18911232E+05</totfact>
</mgrwt>
</event>
<event>
 8    1  0.1241100E-024  0.7945270E+02  0.7818608E-02  0.1330612E+00
          1   -1    0    0  501    0  0.00000000000E+00  0.00000000000E+00  0.58021719783E+02  0.58021720002E+02  0.50400000000E-02 0. -1.
         -2   -1    0    0    0  501 -0.00000000000E+00 -0.00000000000E+00 -0.27199862301E+02  0.27199862421E+02  0.25500000000E-02 0.  1.
        -24    2    1    2    0    0  0.00000000000E+00  0.00000000000E+00  0.30821857482E+02  0.85221582423E+02  0.79452697953E+02 0.  0.
         66    2    3    3    0    0  0.15181858664E+02  0.29260601832E+02 -0.83105523545E+01  0.34054910500E+02  0.19999991625E+01 0.  0.
         13    1    3    3    0    0 -0.15181858664E+02 -0.29260601832E+02  0.39132409836E+02  0.51166671923E+02  0.10566000000E+00 0. -1.
         13    1    4    4    0    0  0.11237489051E+02  0.22028678532E+02 -0.57714853190E+01  0.25394193133E+02  0.10566000000E+00 0. -1.
        -13    1    4    4    0    0  0.14247852011E+01  0.31714593605E+01 -0.75157886263E+00  0.35586798348E+01  0.10566000000E+00 0.  1.
        -14    1    4    4    0    0  0.25195844115E+01  0.40604639391E+01 -0.17874881729E+01  0.51020375318E+01  0.00000000000E+00 0.  1.
<mgrwt>
<rscale>  0 0.79452698E+02</rscale>
<asrwt>0</asrwt>
<pdfrwt beam="1">  1        1 0.89264183E-02 0.79452698E+02</pdfrwt>
<pdfrwt beam="2">  1       -2 0.41845943E-02 0.79452698E+02</pdfrwt>
<totfact> 0.13725150E+05</totfact>
</mgrwt>
</event>
<event>
 8    1  0.1241100E-024  0.8574685E+02  0.7818608E-02  0.1313491E+00
          1   -1    0    0  501    0  0.00000000000E+00  0.00000000000E+00  0.17506229279E+02  0.17506230005E+02  0.50400000000E-02 0. -1.
         -2   -1    0    0    0  501 -0.00000000000E+00 -0.00000000000E+00 -0.10499864521E+03  0.10499864524E+03  0.25500000000E-02 0.  1.
        -24    2    1    2    0    0  0.00000000000E+00  0.00000000000E+00 -0.87492415931E+02  0.12250487525E+03  0.85746846086E+02 0.  0.
         66    2    3    3    0    0  0.17175039534E+02 -0.27894111530E+02 -0.83235214269E+02  0.89471583386E+02  0.19999745480E+01 0.  0.
         13    1    3    3    0    0 -0.17175039534E+02  0.27894111530E+02 -0.42572016620E+01  0.33033291860E+02  0.10566000000E+00 0. -1.
         13    1    4    4    0    0  0.38961331929E+00 -0.37820547857E+00 -0.99550346376E+00  0.11388718561E+01  0.10566000000E+00 0. -1.
        -13    1    4    4    0    0  0.64356258520E+01 -0.10111537275E+02 -0.31126188198E+02  0.33354328384E+02  0.10566000000E+00 0.  1.
         14    1    4    4    0    0  0.10349800363E+02 -0.17404368777E+02 -0.51113522608E+02  0.54978383147E+02  0.00000000000E+00 0. -1.
<mgrwt>
<rscale>  0 0.85746846E+02</rscale>
<asrwt>0</asrwt>
<pdfrwt beam="1">  1        1 0.26932662E-02 0.85746846E+02</pdfrwt>
<pdfrwt beam="2">  1       -2 0.16153637E-01 0.85746846E+02</pdfrwt>
<totfact> 0.87741517E+04</totfact>
</mgrwt>
</event>
<event>
 8    1  0.1241100E-024  0.8009912E+02  0.7818608E-02  0.1328770E+00
          1   -1    0    0  501    0  0.00000000000E+00  0.00000000000E+00  0.39298050622E+01  0.39298082941E+01  0.50400000000E-02 0. -1.
         -2   -1    0    0    0  501 -0.00000000000E+00 -0.00000000000E+00 -0.40815420373E+03  0.40815420374E+03  0.25500000000E-02 0.  1.
        -24    2    1    2    0    0  0.00000000000E+00  0.00000000000E+00 -0.40422439867E+03  0.41208401204E+03  0.80099116688E+02 0.  0.
         66    2    3    3    0    0  0.48716668004E+01 -0.16715874303E+02 -0.38764676979E+03  0.38804274471E+03  0.20000011975E+01 0.  0.
         13    1    3    3    0    0 -0.48716668004E+01  0.16715874303E+02 -0.16577628883E+02  0.24041267324E+02  0.10566000000E+00 0. -1.
         13    1    4    4    0    0  0.26642262545E+01 -0.98754968633E+01 -0.24653142631E+03  0.24674354878E+03  0.10566000000E+00 0.  1.
        -13    1    4    4    0    0  0.10789490647E+01 -0.34134639471E+01 -0.65548431419E+02  0.65646202424E+02  0.10566000000E+00 0. -1.
        -14    1    4    4    0    0  0.11284914812E+01 -0.34269134928E+01 -0.75566912054E+02  0.75652993507E+02  0.00000000000E+00 0.  1.
<mgrwt>
<rscale>  0 0.80099117E+02</rscale>
<asrwt>0</asrwt>
<pdfrwt beam="1">  1        1 0.60458597E-03 0.80099117E+02</pdfrwt>
<pdfrwt beam="2">  1       -2 0.62792921E-01 0.80099117E+02</pdfrwt>
<totfact> 0.58116821E+04</totfact>
</mgrwt>
</event>
<event>
 8    1  0.1241100E-024  0.8289557E+02  0.7818608E-02  0.1321029E+00
          1   -1    0    0  501    0  0.00000000000E+00  0.00000000000E+00  0.57658953870E+02  0.57658954090E+02  0.50400000000E-02 0. -1.
         -2   -1    0    0    0  501 -0.00000000000E+00 -0.00000000000E+00 -0.29794484958E+02  0.29794485067E+02  0.25500000000E-02 0.  1.
        -24    2    1    2    0    0  0.35527136788E-14 -0.35527136788E-14  0.27864468912E+02  0.87453439157E+02  0.82895569198E+02 0.  0.
         66    2    3    3    0    0  0.16364402604E+02 -0.15769735720E+02 -0.22596775621E+02  0.32110629316E+02  0.20000023346E+01 0.  0.
         13    1    3    3    0    0 -0.16364402604E+02  0.15769735720E+02  0.50461244533E+02  0.55342809841E+02  0.10566000000E+00 0. -1.
         13    1    4    4    0    0  0.87566594689E+00 -0.71569468815E+00 -0.14282655671E+01  0.18248606256E+01  0.10566000000E+00 0. -1.
        -13    1    4    4    0    0  0.57149575257E+01 -0.46230459460E+01 -0.66920042735E+01  0.99411960332E+01  0.10566000000E+00 0.  1.
         14    1    4    4    0    0  0.97737791315E+01 -0.10430995086E+02 -0.14476505781E+02  0.20344572657E+02  0.00000000000E+00 0. -1.
<mgrwt>
<rscale>  0 0.82895569E+02</rscale>
<asrwt>0</asrwt>
<pdfrwt beam="1">  1        1 0.88706083E-02 0.82895569E+02</pdfrwt>
<pdfrwt beam="2">  1       -2 0.45837670E-02 0.82895569E+02</pdfrwt>
<totfact> 0.12192478E+05</totfact>
</mgrwt>
</event>
<event>
 8    1  0.1241100E-024  0.7850126E+02  0.7818608E-02  0.1333359E+00
         -2   -1    0    0    0  501 -0.00000000000E+00  0.00000000000E+00  0.15790540505E+03  0.15790540507E+03  0.25500000000E-02 0.  1.
          1   -1    0    0  501    0  0.00000000000E+00 -0.00000000000E+00 -0.97565495518E+01  0.97565508536E+01  0.50400000000E-02 0. -1.
        -24    2    1    2    0    0  0.00000000000E+00  0.00000000000E+00  0.14814885549E+03  0.16766195592E+03  0.78501261638E+02 0.  0.
         66    2    3    3    0    0 -0.43053090820E+01 -0.28204665936E+02  0.13161306611E+03  0.13468495846E+03  0.19999992856E+01 0.  0.
         13    1    3    3    0    0  0.43053090820E+01  0.28204665936E+02  0.16535789380E+02  0.32976997457E+02  0.10566000000E+00 0. -1.
         13    1    4    4    0    0 -0.44794010014E+00 -0.15539374462E+01  0.79067286670E+01  0.80711148033E+01  0.10566000000E+00 0.  1.
        -13    1    4    4    0    0 -0.24853264891E+01 -0.14203890630E+02  0.69441937631E+02  0.70923347515E+02  0.10566000000E+00 0.  1.
         14    1    4    4    0    0 -0.13720424928E+01 -0.12446837860E+02  0.54264399816E+02  0.55690496144E+02  0.00000000000E+00 0. -1.
<mgrwt>
<rscale>  0 0.78501262E+02</rscale>
<asrwt>0</asrwt>
<pdfrwt beam="1">  1        1 0.15010077E-02 0.78501262E+02</pdfrwt>
<pdfrwt beam="2">  1       -2 0.24293140E-01 0.78501262E+02</pdfrwt>
<totfact> 0.97532948E+04</totfact>
</mgrwt>
</event>
<event>
 8    1  0.1241100E-024  0.7974359E+02  0.7818608E-02  0.1329781E+00
          1   -1    0    0  501    0  0.00000000000E+00  0.00000000000E+00  0.47927697997E+01  0.47927724497E+01  0.50400000000E-02 0. -1.
         -2   -1    0    0    0  501 -0.00000000000E+00 -0.00000000000E+00 -0.33169952560E+03  0.33169952561E+03  0.25500000000E-02 0.  1.
        -24    2    1    2    0    0  0.00000000000E+00  0.35527136788E-14 -0.32690675580E+03  0.33649229806E+03  0.79743586987E+02 0.  0.
         66    2    3    3    0    0  0.11709576244E+02 -0.18360708814E+02 -0.30436457113E+03  0.30514917987E+03  0.20000035579E+01 0.  0.
         13    1    3    3    0    0 -0.11709576244E+02  0.18360708814E+02 -0.22542184674E+02  0.31343118190E+02  0.10566000000E+00 0. -1.
         13    1    4    4    0    0  0.19367453232E+01 -0.23425962260E+01 -0.44317893290E+02  0.44422129274E+02  0.10566000000E+00 0. -1.
        -13    1    4    4    0    0  0.69518063916E+01 -0.12605461762E+02 -0.19879155964E+03  0.19931211862E+03  0.10566000000E+00 0.  1.
        -14    1    4    4    0    0  0.28210245291E+01 -0.34126508254E+01 -0.61255118196E+02  0.61414931981E+02  0.00000000000E+00 0.  1.
<mgrwt>
<rscale>  0 0.79743587E+02</rscale>
<asrwt>0</asrwt>
<pdfrwt beam="1">  1        1 0.73734967E-03 0.79743587E+02</pdfrwt>
<pdfrwt beam="2">  1       -2 0.51030678E-01 0.79743587E+02</pdfrwt>
<totfact> 0.66955140E+04</totfact>
</mgrwt>
</event>
<event>
 8    1  0.1241100E-024  0.7995023E+02  0.7818608E-02  0.1329193E+00
          1   -1    0    0  501    0  0.00000000000E+00  0.00000000000E+00  0.59576688777E+01  0.59576710096E+01  0.50400000000E-02 0. -1.
         -2   -1    0    0    0  501 -0.00000000000E+00 -0.00000000000E+00 -0.26822730541E+03  0.26822730543E+03  0.25500000000E-02 0.  1.
        -24    2    1    2    0    0  0.88817841970E-15  0.00000000000E+00 -0.26226963654E+03  0.27418497644E+03  0.79950228606E+02 0.  0.
         66    2    3    3    0    0  0.50426117341E+01 -0.13859544482E+02 -0.25854518447E+03  0.25897321738E+03  0.20000001251E+01 0.  0.
         13    1    3    3    0    0 -0.50426117341E+01  0.13859544482E+02 -0.37244520646E+01  0.15211759055E+02  0.10566000000E+00 0. -1.
         13    1    4    4    0    0  0.66281843788E+00 -0.71895416755E+00 -0.20082726714E+02  0.20106797350E+02  0.10566000000E+00 0. -1.
        -13    1    4    4    0    0  0.64921589560E+00 -0.11636087283E+01 -0.21159569835E+02  0.21201745829E+02  0.10566000000E+00 0.  1.
        -14    1    4    4    0    0  0.37305774006E+01 -0.11976981586E+02 -0.21730288792E+03  0.21766467420E+03  0.00000000000E+00 0.  1.
<mgrwt>
<rscale>  0 0.79950229E+02</rscale>
<asrwt>0</asrwt>
<pdfrwt beam="1">  1        1 0.91656482E-03 0.79950229E+02</pdfrwt>
<pdfrwt beam="2">  1       -2 0.41265730E-01 0.79950229E+02</pdfrwt>
<totfact> 0.74624398E+04</totfact>
</mgrwt>
</event>
<event>
 8    1  0.1241100E-024  0.7908424E+02  0.7818608E-02  0.1331670E+00
          1   -1    0    0  501    0  0.00000000000E+00  0.00000000000E+00  0.10350735135E+03  0.10350735147E+03  0.50400000000E-02 0. -1.
         -2   -1    0    0    0  501 -0.00000000000E+00 -0.00000000000E+00 -0.15105972504E+02  0.15105972719E+02  0.25500000000E-02 0.  1.
        -24    2    1    2    0    0  0.17763568394E-14  0.00000000000E+00  0.88401378842E+02  0.11861332419E+03  0.79084239224E+02 0.  0.
         66    2    3    3    0    0  0.15600550302E+02 -0.11472069680E+02 -0.74357887709E+01  0.20839302011E+02  0.20000002983E+01 0.  0.
         13    1    3    3    0    0 -0.15600550302E+02  0.11472069680E+02  0.95837167613E+02  0.97774022177E+02  0.10566000000E+00 0. -1.
         13    1    4    4    0    0  0.37541750863E+01 -0.30225098501E+01 -0.12775307622E+01  0.49872482649E+01  0.10566000000E+00 0. -1.
        -13    1    4    4    0    0  0.97873692237E+01 -0.74787743293E+01 -0.54319102044E+01  0.13462595377E+02  0.10566000000E+00 0.  1.
        -14    1    4    4    0    0  0.20590059919E+01 -0.97078550095E+00 -0.72634780435E+00  0.23894583689E+01  0.00000000000E+00 0.  1.
<mgrwt>
<rscale>  0 0.79084239E+02</rscale>
<asrwt>0</asrwt>
<pdfrwt beam="1">  1        1 0.15924207E-01 0.79084239E+02</pdfrwt>
<pdfrwt beam="2">  1       -2 0.23239959E-02 0.79084239E+02</pdfrwt>
<totfact> 0.15251315E+05</totfact>
</mgrwt>
</event>
<event>
 8    1  0.1241100E-024  0.7960318E+02  0.7818608E-02  0.1330181E+00
         -2   -1    0    0    0  501 -0.00000000000E+00  0.00000000000E+00  0.45807816681E+02  0.45807816752E+02  0.25500000000E-02 0.  1.
          1   -1    0    0  501    0  0.00000000000E+00 -0.00000000000E+00 -0.34582887561E+02  0.34582887928E+02  0.50400000000E-02 0. -1.
        -24    2    1    2    0    0  0.35527136788E-14 -0.44408920985E-15  0.11224929120E+02  0.80390704680E+02  0.79603180622E+02 0.  0.
         66    2    3    3    0    0  0.13903934515E+02 -0.21766756111E+01  0.43187609395E+02  0.45466767243E+02  0.20000016395E+01 0.  0.
         13    1    3    3    0    0 -0.13903934515E+02  0.21766756111E+01 -0.31962680275E+02  0.34923937437E+02  0.10566000000E+00 0. -1.
         13    1    4    4    0    0  0.23796398269E+01  0.28207051549E+00  0.64852643848E+01  0.69146270802E+01  0.10566000000E+00 0. -1.
        -13    1    4    4    0    0  0.10291649949E+02 -0.20204921833E+01  0.32425324236E+02  0.34079513834E+02  0.10566000000E+00 0.  1.
         14    1    4    4    0    0  0.12326447391E+01 -0.43825394322E+00  0.42770207747E+01  0.44726263290E+01  0.00000000000E+00 0. -1.
<mgrwt>
<rscale>  0 0.79603181E+02</rscale>
<asrwt>0</asrwt>
<pdfrwt beam="1">  1        1 0.53204443E-02 0.79603181E+02</pdfrwt>
<pdfrwt beam="2">  1       -2 0.70473564E-02 0.79603181E+02</pdfrwt>
<totfact> 0.12571946E+05</totfact>
</mgrwt>
</event>
<event>
 8    1  0.1241100E-024  0.7893195E+02  0.7818608E-02  0.1332110E+00
          1   -1    0    0  501    0  0.00000000000E+00  0.00000000000E+00  0.81868883506E+02  0.81868883662E+02  0.50400000000E-02 0. -1.
         -2   -1    0    0    0  501 -0.00000000000E+00 -0.00000000000E+00 -0.19025093391E+02  0.19025093561E+02  0.25500000000E-02 0.  1.
        -24    2    1    2    0    0  0.17763568394E-14  0.35527136788E-14  0.62843790116E+02  0.10089397722E+03  0.78931949702E+02 0.  0.
         66    2    3    3    0    0 -0.82312881191E+01 -0.30058803252E+02  0.54474136436E+00  0.31234316038E+02  0.19999995349E+01 0.  0.
         13    1    3    3    0    0  0.82312881191E+01  0.30058803252E+02  0.62299048751E+02  0.69659661185E+02  0.10566000000E+00 0. -1.
         13    1    4    4    0    0 -0.60635896142E-01 -0.11900423859E+01 -0.10679795895E+00  0.12010193303E+01  0.10566000000E+00 0. -1.
        -13    1    4    4    0    0 -0.53362692122E+01 -0.20161200167E+02  0.86354049900E+00  0.20873586838E+02  0.10566000000E+00 0.  1.
         14    1    4    4    0    0 -0.28343830108E+01 -0.87075606998E+01 -0.21200117569E+00  0.91597098693E+01  0.00000000000E+00 0. -1.
<mgrwt>
<rscale>  0 0.78931950E+02</rscale>
<asrwt>0</asrwt>
<pdfrwt beam="1">  1        1 0.12595213E-01 0.78931950E+02</pdfrwt>
<pdfrwt beam="2">  1       -2 0.29269374E-02 0.78931950E+02</pdfrwt>
<totfact> 0.14751668E+05</totfact>
</mgrwt>
</event>
<event>
 8    1  0.1241100E-024  0.7861350E+02  0.7818608E-02  0.1333033E+00
          1   -1    0    0  501    0  0.00000000000E+00  0.00000000000E+00  0.16364842158E+02  0.16364842935E+02  0.50400000000E-02 0. -1.
         -2   -1    0    0    0  501 -0.00000000000E+00 -0.00000000000E+00 -0.94410964117E+02  0.94410964152E+02  0.25500000000E-02 0.  1.
        -24    2    1    2    0    0  0.00000000000E+00  0.00000000000E+00 -0.78046121959E+02  0.11077580709E+03  0.78613499368E+02 0.  0.
         66    2    3    3    0    0 -0.34176225263E+02  0.18087859066E+02 -0.48793672511E+02  0.62289706175E+02  0.19999998709E+01 0.  0.
         13    1    3    3    0    0  0.34176225263E+02 -0.18087859066E+02 -0.29252449448E+02  0.48486100911E+02  0.10566000000E+00 0. -1.
         13    1    4    4    0    0 -0.10641250841E+02  0.52576978770E+01 -0.14702729638E+02  0.18896058564E+02  0.10566000000E+00 0. -1.
        -13    1    4    4    0    0 -0.13356079815E+02  0.66070042251E+01 -0.19679350920E+02  0.24684517202E+02  0.10566000000E+00 0.  1.
         14    1    4    4    0    0 -0.10178894607E+02  0.62231569640E+01 -0.14411591954E+02  0.18709130409E+02  0.00000000000E+00 0. -1.
<mgrwt>
<rscale>  0 0.78613499E+02</rscale>
<asrwt>0</asrwt>
<pdfrwt beam="1">  1        1 0.25176681E-02 0.78613499E+02</pdfrwt>
<pdfrwt beam="2">  1       -2 0.14524763E-01 0.78613499E+02</pdfrwt>
<totfact> 0.11254515E+05</totfact>
</mgrwt>
</event>
<event>
 8    1  0.1241100E-024  0.7937598E+02  0.7818608E-02  0.1330832E+00
         -2   -1    0    0    0  501 -0.00000000000E+00  0.00000000000E+00  0.94347752388E+01  0.94347755834E+01  0.25500000000E-02 0.  1.
          1   -1    0    0  501    0  0.00000000000E+00 -0.00000000000E+00 -0.16695009041E+03  0.16695009048E+03  0.50400000000E-02 0. -1.
        -24    2    1    2    0    0  0.00000000000E+00  0.00000000000E+00 -0.15751531517E+03  0.17638486607E+03  0.79375981662E+02 0.  0.
         66    2    3    3    0    0 -0.23090922183E+02  0.96763230198E+01 -0.10449593998E+02  0.27203233746E+02  0.19999992673E+01 0.  0.
         13    1    3    3    0    0  0.23090922183E+02 -0.96763230198E+01 -0.14706572117E+03  0.14918163232E+03  0.10566000000E+00 0. -1.
         13    1    4    4    0    0 -0.63029044294E+00 -0.32401237560E-01 -0.25575756680E+00  0.68912397378E+00  0.10566000000E+00 0. -1.
        -13    1    4    4    0    0 -0.17536346409E+02  0.77067620392E+01 -0.77545959352E+01  0.20665491735E+02  0.10566000000E+00 0.  1.
        -14    1    4    4    0    0 -0.49242853313E+01  0.20019622181E+01 -0.24392404962E+01  0.58486180372E+01  0.00000000000E+00 0.  1.
<mgrwt>
<rscale>  0 0.79375982E+02</rscale>
<asrwt>0</asrwt>
<pdfrwt beam="1">  1        1 0.25684627E-01 0.79375982E+02</pdfrwt>
<pdfrwt beam="2">  1       -2 0.14515040E-02 0.79375982E+02</pdfrwt>
<totfact> 0.16446319E+05</totfact>
</mgrwt>
</event>
<event>
 8    1  0.1241100E-024  0.7904423E+02  0.7818608E-02  0.1331786E+00
         -2   -1    0    0    0  501 -0.00000000000E+00  0.00000000000E+00  0.34486475786E+01  0.34486485213E+01  0.25500000000E-02 0.  1.
          1   -1    0    0  501    0  0.00000000000E+00 -0.00000000000E+00 -0.45293039106E+03  0.45293039108E+03  0.50400000000E-02 0. -1.
        -24    2    1    2    0    0 -0.71054273576E-14  0.44408920985E-15 -0.44948174348E+03  0.45637903961E+03  0.79044228579E+02 0.  0.
         66    2    3    3    0    0  0.35165682177E+02 -0.37170805057E+01 -0.32646743863E+03  0.32838305431E+03  0.19999955265E+01 0.  0.
         13    1    3    3    0    0 -0.35165682177E+02  0.37170805057E+01 -0.12301430484E+03  0.12799598529E+03  0.10566000000E+00 0. -1.
         13    1    4    4    0    0  0.78016851347E+01 -0.36159220095E+00 -0.73019961725E+02  0.73436523708E+02  0.10566000000E+00 0. -1.
        -13    1    4    4    0    0  0.10055956680E+02 -0.99113392786E+00 -0.98904748261E+02  0.99419640936E+02  0.10566000000E+00 0.  1.
        -14    1    4    4    0    0  0.17308040363E+02 -0.23643543769E+01 -0.15454272865E+03  0.15552688967E+03  0.00000000000E+00 0.  1.
<mgrwt>
<rscale>  0 0.79044229E+02</rscale>
<asrwt>0</asrwt>
<pdfrwt beam="1">  1        1 0.69681552E-01 0.79044229E+02</pdfrwt>
<pdfrwt beam="2">  1       -2 0.53056160E-03 0.79044229E+02</pdfrwt>
<totfact> 0.19977573E+05</totfact>
</mgrwt>
</event>
<event>
 8    1  0.1241100E-024  0.7941122E+02  0.7818608E-02  0.1330731E+00
         -2   -1    0    0    0  501 -0.00000000000E+00  0.00000000000E+00  0.16490374106E+03  0.16490374108E+03  0.25500000000E-02 0.  1.
          1   -1    0    0  501    0  0.00000000000E+00 -0.00000000000E+00 -0.95603379717E+01  0.95603393001E+01  0.50400000000E-02 0. -1.
        -24    2    1    2    0    0  0.00000000000E+00  0.00000000000E+00  0.15534340309E+03  0.17446408038E+03  0.79411223764E+02 0.  0.
         66    2    3    3    0    0  0.38520097132E+02  0.86686222594E+01  0.86394761340E+02  0.95010513701E+02  0.20000079855E+01 0.  0.
         13    1    3    3    0    0 -0.38520097132E+02 -0.86686222594E+01  0.68948641748E+02  0.79453566678E+02  0.10566000000E+00 0. -1.
         13    1    4    4    0    0  0.97198567077E+01  0.19746208358E+01  0.22376740044E+02  0.24476609261E+02  0.10566000000E+00 0. -1.
        -13    1    4    4    0    0  0.67797071716E+01  0.22493921700E+01  0.15698861376E+02  0.17247887030E+02  0.10566000000E+00 0.  1.
        -14    1    4    4    0    0  0.22020533252E+02  0.44446092536E+01  0.48319159920E+02  0.53286017411E+02  0.00000000000E+00 0.  1.
<mgrwt>
<rscale>  0 0.79411224E+02</rscale>
<asrwt>0</asrwt>
<pdfrwt beam="1">  1        1 0.14708214E-02 0.79411224E+02</pdfrwt>
<pdfrwt beam="2">  1       -2 0.25369805E-01 0.79411224E+02</pdfrwt>
<totfact> 0.93272968E+04</totfact>
</mgrwt>
</event>
<event>
 8    1  0.1241100E-024  0.8417650E+02  0.7818608E-02  0.1317600E+00
          1   -1    0    0  501    0  0.00000000000E+00  0.00000000000E+00  0.76924515009E+02  0.76924515174E+02  0.50400000000E-02 0. -1.
         -2   -1    0    0    0  501 -0.00000000000E+00 -0.00000000000E+00 -0.23028039175E+02  0.23028039317E+02  0.25500000000E-02 0.  1.
        -24    2    1    2    0    0  0.00000000000E+00  0.00000000000E+00  0.53896475833E+02  0.99952554490E+02  0.84176499345E+02 0.  0.
         66    2    3    3    0    0  0.42039123048E+02 -0.76950829559E+00  0.25491900456E+02  0.49210943597E+02  0.19999928162E+01 0.  0.
         13    1    3    3    0    0 -0.42039123048E+02  0.76950829559E+00  0.28404575377E+02  0.50741610893E+02  0.10566000000E+00 0. -1.
         13    1    4    4    0    0  0.14389062339E+02 -0.26191991787E+00  0.79956093298E+01  0.16463737414E+02  0.10566000000E+00 0. -1.
        -13    1    4    4    0    0  0.19857279419E+02 -0.80252932316E+00  0.12182041929E+02  0.23310274748E+02  0.10566000000E+00 0.  1.
        -14    1    4    4    0    0  0.77927812892E+01  0.29494094543E+00  0.53142491970E+01  0.94369314351E+01  0.00000000000E+00 0.  1.
<mgrwt>
<rscale>  0 0.84176499E+02</rscale>
<asrwt>0</asrwt>
<pdfrwt beam="1">  1        1 0.11834541E-01 0.84176499E+02</pdfrwt>
<pdfrwt beam="2">  1       -2 0.35427753E-02 0.84176499E+02</pdfrwt>
<totfact> 0.12249089E+05</totfact>
</mgrwt>
</event>
<event>
 8    1  0.1241100E-024  0.8009158E+02  0.7818608E-02  0.1328792E+00
          1   -1    0    0  501    0  0.00000000000E+00  0.00000000000E+00  0.20341869118E+03  0.20341869124E+03  0.50400000000E-02 0. -1.
         -2   -1    0    0    0  501 -0.00000000000E+00 -0.00000000000E+00 -0.78835684631E+01  0.78835688755E+01  0.25500000000E-02 0.  1.
        -24    2    1    2    0    0  0.71054273576E-14  0.00000000000E+00  0.19553512272E+03  0.21130226012E+03  0.80091578303E+02 0.  0.
         66    2    3    3    0    0 -0.32167500434E+02  0.89949343594E+01  0.39666679328E+02  0.51895109285E+02  0.19999976186E+01 0.  0.
         13    1    3    3    0    0  0.32167500434E+02 -0.89949343594E+01  0.15586844339E+03  0.15940715084E+03  0.10566000000E+00 0. -1.
         13    1    4    4    0    0 -0.18115742726E+02  0.59441161774E+01  0.22055003553E+02  0.29153850473E+02  0.10566000000E+00 0. -1.
        -13    1    4    4    0    0 -0.65819832861E+01  0.12452763839E+01  0.79787995357E+01  0.10418523087E+02  0.10566000000E+00 0.  1.
         14    1    4    4    0    0 -0.74697744217E+01  0.18055417982E+01  0.96328762390E+01  0.12322735724E+02  0.00000000000E+00 0. -1.
<mgrwt>
<rscale>  0 0.80091578E+02</rscale>
<asrwt>0</asrwt>
<pdfrwt beam="1">  1        1 0.31295183E-01 0.80091578E+02</pdfrwt>
<pdfrwt beam="2">  1       -2 0.12128567E-02 0.80091578E+02</pdfrwt>
<totfact> 0.16678173E+05</totfact>
</mgrwt>
</event>
<event>
 8    1  0.1241100E-024  0.7879612E+02  0.7818608E-02  0.1332503E+00
         -2   -1    0    0    0  501 -0.00000000000E+00  0.00000000000E+00  0.37361057666E+02  0.37361057753E+02  0.25500000000E-02 0.  1.
          1   -1    0    0  501    0  0.00000000000E+00 -0.00000000000E+00 -0.41546119503E+02  0.41546119809E+02  0.50400000000E-02 0. -1.
        -24    2    1    2    0    0 -0.17763568394E-14  0.00000000000E+00 -0.41850618372E+01  0.78907177562E+02  0.78796116200E+02 0.  0.
         66    2    3    3    0    0  0.10128769268E+02 -0.39801230653E+01  0.35798177152E+02  0.37469225024E+02  0.19999974931E+01 0.  0.
         13    1    3    3    0    0 -0.10128769268E+02  0.39801230653E+01 -0.39983238989E+02  0.41437952539E+02  0.10566000000E+00 0. -1.
         13    1    4    4    0    0  0.14184463173E+01 -0.70640614571E+00  0.33293661294E+01  0.36887453771E+01  0.10566000000E+00 0. -1.
        -13    1    4    4    0    0  0.68443141520E+01 -0.23312334491E+01  0.25112296191E+02  0.26132697328E+02  0.10566000000E+00 0.  1.
         14    1    4    4    0    0  0.18660087989E+01 -0.94248347045E+00  0.73565148312E+01  0.76477823185E+01  0.00000000000E+00 0. -1.
<mgrwt>
<rscale>  0 0.78796116E+02</rscale>
<asrwt>0</asrwt>
<pdfrwt beam="1">  1        1 0.63917107E-02 0.78796116E+02</pdfrwt>
<pdfrwt beam="2">  1       -2 0.57478551E-02 0.78796116E+02</pdfrwt>
<totfact> 0.13331089E+05</totfact>
</mgrwt>
</event>
<event>
 8    1  0.1241100E-024  0.7640963E+02  0.7818608E-02  0.1339561E+00
         -2   -1    0    0    0  501 -0.00000000000E+00  0.00000000000E+00  0.14925706982E+02  0.14925707200E+02  0.25500000000E-02 0.  1.
          1   -1    0    0  501    0  0.00000000000E+00 -0.00000000000E+00 -0.97791545619E+02  0.97791545749E+02  0.50400000000E-02 0. -1.
        -24    2    1    2    0    0  0.00000000000E+00  0.17763568394E-14 -0.82865838636E+02  0.11271725295E+03  0.76409632242E+02 0.  0.
         66    2    3    3    0    0 -0.29807400532E+02 -0.99082797610E+01 -0.94480520747E+01  0.32862148654E+02  0.19999979712E+01 0.  0.
         13    1    3    3    0    0  0.29807400532E+02  0.99082797610E+01 -0.73417786562E+02  0.79855104295E+02  0.10566000000E+00 0. -1.
         13    1    4    4    0    0 -0.15206486921E+02 -0.42175756225E+01 -0.49830372656E+01  0.16548927851E+02  0.10566000000E+00 0. -1.
        -13    1    4    4    0    0 -0.79467552237E+01 -0.26982639922E+01 -0.24892086105E+01  0.87543629522E+01  0.10566000000E+00 0.  1.
        -14    1    4    4    0    0 -0.66541583872E+01 -0.29924401464E+01 -0.19758061986E+01  0.75588578506E+01  0.00000000000E+00 0.  1.
<mgrwt>
<rscale>  0 0.76409632E+02</rscale>
<asrwt>0</asrwt>
<pdfrwt beam="1">  1        1 0.15044853E-01 0.76409632E+02</pdfrwt>
<pdfrwt beam="2">  1       -2 0.22962627E-02 0.76409632E+02</pdfrwt>
<totfact> 0.16574272E+05</totfact>
</mgrwt>
</event>
<event>
 8    1  0.1241100E-024  0.7920052E+02  0.7818608E-02  0.1331336E+00
         -2   -1    0    0    0  501 -0.00000000000E+00  0.00000000000E+00  0.34728703540E+03  0.34728703540E+03  0.25500000000E-02 0.  1.
          1   -1    0    0  501    0  0.00000000000E+00 -0.00000000000E+00 -0.45155159862E+01  0.45155187990E+01  0.50400000000E-02 0. -1.
        -24    2    1    2    0    0  0.00000000000E+00  0.00000000000E+00  0.34277151941E+03  0.35180255420E+03  0.79200521628E+02 0.  0.
         66    2    3    3    0    0 -0.29451931362E+01  0.18938172412E+02  0.32529351266E+03  0.32586377202E+03  0.20000009703E+01 0.  0.
         13    1    3    3    0    0  0.29451931362E+01 -0.18938172412E+02  0.17478006752E+02  0.25938782179E+02  0.10566000000E+00 0. -1.
         13    1    4    4    0    0 -0.71935916408E+00  0.27625599845E+01  0.42143444366E+02  0.42240150122E+02  0.10566000000E+00 0. -1.
        -13    1    4    4    0    0 -0.17839523469E+01  0.14635937799E+02  0.24925927086E+03  0.24969499081E+03  0.10566000000E+00 0.  1.
         14    1    4    4    0    0 -0.44188162515E+00  0.15396746288E+01  0.33890797429E+02  0.33928631091E+02  0.00000000000E+00 0. -1.
<mgrwt>
<rscale>  0 0.79200522E+02</rscale>
<asrwt>0</asrwt>
<pdfrwt beam="1">  1        1 0.69469474E-03 0.79200522E+02</pdfrwt>
<pdfrwt beam="2">  1       -2 0.53428794E-01 0.79200522E+02</pdfrwt>
<totfact> 0.66316089E+04</totfact>
</mgrwt>
</event>
<event>
 8    1  0.1241100E-024  0.7887467E+02  0.7818608E-02  0.1332276E+00
         -2   -1    0    0    0  501 -0.00000000000E+00  0.00000000000E+00  0.58205295329E+01  0.58205300915E+01  0.25500000000E-02 0.  1.
          1   -1    0    0  501    0  0.00000000000E+00 -0.00000000000E+00 -0.26720990741E+03  0.26720990746E+03  0.50400000000E-02 0. -1.
        -24    2    1    2    0    0  0.00000000000E+00  0.00000000000E+00 -0.26138937787E+03  0.27303043755E+03  0.78874666156E+02 0.  0.
         66    2    3    3    0    0 -0.33075187446E+02  0.21304998774E+02 -0.13884276422E+03  0.14432319346E+03  0.19999994572E+01 0.  0.
         13    1    3    3    0    0  0.33075187446E+02 -0.21304998774E+02 -0.12254661366E+03  0.12870724409E+03  0.10566000000E+00 0. -1.
         13    1    4    4    0    0 -0.65233962246E+01  0.35900193045E+01 -0.27322297495E+02  0.28318934326E+02  0.10566000000E+00 0. -1.
        -13    1    4    4    0    0 -0.20537107247E+02  0.14204372634E+02 -0.88035238268E+02  0.91508203550E+02  0.10566000000E+00 0.  1.
         14    1    4    4    0    0 -0.60146839743E+01  0.35106068349E+01 -0.23485228452E+02  0.24496055583E+02  0.00000000000E+00 0. -1.
<mgrwt>
<rscale>  0 0.78874666E+02</rscale>
<asrwt>0</asrwt>
<pdfrwt beam="1">  1        1 0.41109207E-01 0.78874666E+02</pdfrwt>
<pdfrwt beam="2">  1       -2 0.89546633E-03 0.78874666E+02</pdfrwt>
<totfact> 0.18315122E+05</totfact>
</mgrwt>
</event>
<event>
 8    1  0.1241100E-024  0.7767511E+02  0.7818608E-02  0.1335782E+00
         -2   -1    0    0    0  501 -0.00000000000E+00  0.00000000000E+00  0.25833604241E+02  0.25833604367E+02  0.25500000000E-02 0.  1.
          1   -1    0    0  501    0  0.00000000000E+00 -0.00000000000E+00 -0.58387343681E+02  0.58387343898E+02  0.50400000000E-02 0. -1.
        -24    2    1    2    0    0 -0.44408920985E-15  0.00000000000E+00 -0.32553739440E+02  0.84220948265E+02  0.77675106534E+02 0.  0.
         66    2    3    3    0    0  0.34094800514E+01  0.38335869668E+02 -0.10856828039E+02  0.40039158059E+02  0.20000014076E+01 0.  0.
         13    1    3    3    0    0 -0.34094800514E+01 -0.38335869668E+02 -0.21696911401E+02  0.44181790205E+02  0.10566000000E+00 0. -1.
         13    1    4    4    0    0  0.63945469552E+00  0.31960172753E+01 -0.86516764469E+00  0.33738861600E+01  0.10566000000E+00 0. -1.
        -13    1    4    4    0    0  0.14018410813E+01  0.25536175033E+02 -0.70647221640E+01  0.26532675271E+02  0.10566000000E+00 0.  1.
        -14    1    4    4    0    0  0.13681842746E+01  0.96036773588E+01 -0.29269382304E+01  0.10132596628E+02  0.00000000000E+00 0.  1.
<mgrwt>
<rscale>  0 0.77675107E+02</rscale>
<asrwt>0</asrwt>
<pdfrwt beam="1">  1        1 0.89826683E-02 0.77675107E+02</pdfrwt>
<pdfrwt beam="2">  1       -2 0.39744007E-02 0.77675107E+02</pdfrwt>
<totfact> 0.14621215E+05</totfact>
</mgrwt>
</event>
<event>
 8    1  0.1241100E-024  0.7960082E+02  0.7818608E-02  0.1330188E+00
          1   -1    0    0  501    0  0.00000000000E+00  0.00000000000E+00  0.14269100511E+02  0.14269101401E+02  0.50400000000E-02 0. -1.
         -2   -1    0    0    0  501 -0.00000000000E+00 -0.00000000000E+00 -0.11101417774E+03  0.11101417777E+03  0.25500000000E-02 0.  1.
        -24    2    1    2    0    0  0.17763568394E-14  0.17763568394E-14 -0.96745077233E+02  0.12528327918E+03  0.79600817031E+02 0.  0.
         66    2    3    3    0    0  0.80081422647E+01  0.91052119076E+01 -0.10802497511E+03  0.10872180320E+03  0.20000044723E+01 0.  0.
         13    1    3    3    0    0 -0.80081422647E+01 -0.91052119076E+01  0.11279897873E+02  0.16561475975E+02  0.10566000000E+00 0. -1.
         13    1    4    4    0    0  0.32044946156E+00  0.45785121077E+00 -0.68826249479E+01  0.69060846938E+01  0.10566000000E+00 0.  1.
        -13    1    4    4    0    0  0.39201783585E+01  0.31717140529E+01 -0.43895312950E+02  0.44184128728E+02  0.10566000000E+00 0.  1.
        -14    1    4    4    0    0  0.37675144447E+01  0.54756466439E+01 -0.57247037208E+02  0.57631589778E+02  0.00000000000E+00 0.  1.
<mgrwt>
<rscale>  0 0.79600817E+02</rscale>
<asrwt>0</asrwt>
<pdfrwt beam="1">  1        1 0.21952464E-02 0.79600817E+02</pdfrwt>
<pdfrwt beam="2">  1       -2 0.17079104E-01 0.79600817E+02</pdfrwt>
<totfact> 0.10465025E+05</totfact>
</mgrwt>
</event>
<event>
 8    1  0.1458409E-024  0.8693452E+02  0.7818608E-02  0.1310450E+00
         -2   -1    0    0    0  501 -0.00000000000E+00  0.00000000000E+00  0.23992833744E+02  0.23992833880E+02  0.25500000000E-02 0.  1.
          1   -1    0    0  501    0  0.00000000000E+00 -0.00000000000E+00 -0.78748631825E+02  0.78748631987E+02  0.50400000000E-02 0. -1.
        -24    2    1    2    0    0  0.00000000000E+00  0.00000000000E+00 -0.54755798081E+02  0.10274146587E+03  0.86934523550E+02 0.  0.
         66    2    3    3    0    0 -0.19901279113E+02 -0.68046497693E+01  0.17533103110E+02  0.27454942715E+02  0.20000015012E+01 0.  0.
         13    1    3    3    0    0  0.19901279113E+02  0.68046497693E+01 -0.72288901191E+02  0.75286523151E+02  0.10566000000E+00 0. -1.
         13    1    4    4    0    0 -0.30408645525E+01 -0.14723900027E+01  0.29462925526E+01  0.44840376211E+01  0.10566000000E+00 0. -1.
        -13    1    4    4    0    0 -0.10557324711E+02 -0.37981533854E+01  0.85133731687E+01  0.14084451034E+02  0.10566000000E+00 0.  1.
         14    1    4    4    0    0 -0.63030898503E+01 -0.15341063812E+01  0.60734373885E+01  0.88864540600E+01  0.00000000000E+00 0. -1.
<mgrwt>
<rscale>  0 0.86934524E+02</rscale>
<asrwt>0</asrwt>
<pdfrwt beam="1">  1        1 0.12115174E-01 0.86934524E+02</pdfrwt>
<pdfrwt beam="2">  1       -2 0.36912052E-02 0.86934524E+02</pdfrwt>
<totfact> 0.11252714E+05</totfact>
</mgrwt>
</event>
<event>
 8    1  0.1241100E-024  0.7722407E+02  0.7818608E-02  0.1337119E+00
          1   -1    0    0  501    0  0.00000000000E+00  0.00000000000E+00  0.25847434610E+03  0.25847434615E+03  0.50400000000E-02 0. -1.
         -2   -1    0    0    0  501 -0.00000000000E+00 -0.00000000000E+00 -0.57680352648E+01  0.57680358285E+01  0.25500000000E-02 0.  1.
        -24    2    1    2    0    0 -0.71054273576E-14  0.35527136788E-14  0.25270631083E+03  0.26424238197E+03  0.77224069416E+02 0.  0.
         66    2    3    3    0    0 -0.33185766534E+02  0.16946249613E+02  0.16072601733E+03  0.16500097916E+03  0.19999999260E+01 0.  0.
         13    1    3    3    0    0  0.33185766534E+02 -0.16946249613E+02  0.91980293499E+02  0.99241402814E+02  0.10566000000E+00 0. -1.
         13    1    4    4    0    0 -0.10760350919E+02  0.62152395333E+01  0.51174448181E+02  0.52661652699E+02  0.10566000000E+00 0. -1.
        -13    1    4    4    0    0 -0.80295651847E+01  0.40816998319E+01  0.38522668253E+02  0.39561867043E+02  0.10566000000E+00 0.  1.
         14    1    4    4    0    0 -0.14395850430E+02  0.66493102475E+01  0.71028900899E+02  0.72777459418E+02  0.00000000000E+00 0. -1.
<mgrwt>
<rscale>  0 0.77224069E+02</rscale>
<asrwt>0</asrwt>
<pdfrwt beam="1">  1        1 0.39765287E-01 0.77224069E+02</pdfrwt>
<pdfrwt beam="2">  1       -2 0.88739002E-03 0.77224069E+02</pdfrwt>
<totfact> 0.19239935E+05</totfact>
</mgrwt>
</event>
<event>
 8    1  0.1241100E-024  0.7918264E+02  0.7818608E-02  0.1331387E+00
          1   -1    0    0  501    0  0.00000000000E+00  0.00000000000E+00  0.85185103505E+01  0.85185118415E+01  0.50400000000E-02 0. -1.
         -2   -1    0    0    0  501 -0.00000000000E+00 -0.00000000000E+00 -0.18400780472E+03  0.18400780474E+03  0.25500000000E-02 0.  1.
        -24    2    1    2    0    0  0.00000000000E+00  0.17763568394E-14 -0.17548929437E+03  0.19252631658E+03  0.79182637852E+02 0.  0.
         66    2    3    3    0    0  0.34006219267E+02  0.13066312826E+02 -0.12533550514E+03  0.13053788848E+03  0.20000003715E+01 0.  0.
         13    1    3    3    0    0 -0.34006219267E+02 -0.13066312826E+02 -0.50153789234E+02  0.61988428099E+02  0.10566000000E+00 0. -1.
         13    1    4    4    0    0  0.11986958041E+02  0.49575179096E+01 -0.41531174028E+02  0.43509926765E+02  0.10566000000E+00 0. -1.
        -13    1    4    4    0    0  0.89408966990E+01  0.33782779578E+01 -0.33747668870E+02  0.35075186584E+02  0.10566000000E+00 0.  1.
         14    1    4    4    0    0  0.13078364526E+02  0.47305169589E+01 -0.50056662237E+02  0.51952775130E+02  0.00000000000E+00 0. -1.
<mgrwt>
<rscale>  0 0.79182638E+02</rscale>
<asrwt>0</asrwt>
<pdfrwt beam="1">  1        1 0.13105403E-02 0.79182638E+02</pdfrwt>
<pdfrwt beam="2">  1       -2 0.28308890E-01 0.79182638E+02</pdfrwt>
<totfact> 0.90271065E+04</totfact>
</mgrwt>
</event>
<event>
 8    1  0.1241100E-024  0.7707510E+02  0.7818608E-02  0.1337563E+00
         -2   -1    0    0    0  501 -0.00000000000E+00  0.00000000000E+00  0.63648478771E+01  0.63648483879E+01  0.25500000000E-02 0.  1.
          1   -1    0    0  501    0  0.00000000000E+00 -0.00000000000E+00 -0.23333516132E+03  0.23333516138E+03  0.50400000000E-02 0. -1.
        -24    2    1    2    0    0  0.00000000000E+00  0.22204460493E-15 -0.22697031345E+03  0.23970000977E+03  0.77075102956E+02 0.  0.
         66    2    3    3    0    0 -0.37856831835E+02 -0.16069136046E+01 -0.13497629059E+03  0.14020813426E+03  0.20000002594E+01 0.  0.
         13    1    3    3    0    0  0.37856831835E+02  0.16069136046E+01 -0.91994022852E+02  0.99491875509E+02  0.10566000000E+00 0. -1.
         13    1    4    4    0    0 -0.14306084207E+02 -0.13761581523E+01 -0.49630940919E+02  0.51670100804E+02  0.10566000000E+00 0. -1.
        -13    1    4    4    0    0 -0.15997677087E+02 -0.38156631944E+00 -0.57156139974E+02  0.59354079605E+02  0.10566000000E+00 0.  1.
        -14    1    4    4    0    0 -0.75530705411E+01  0.15081086715E+00 -0.28189209702E+02  0.29183953847E+02  0.00000000000E+00 0.  1.
<mgrwt>
<rscale>  0 0.77075103E+02</rscale>
<asrwt>0</asrwt>
<pdfrwt beam="1">  1        1 0.35897711E-01 0.77075103E+02</pdfrwt>
<pdfrwt beam="2">  1       -2 0.97920758E-03 0.77075103E+02</pdfrwt>
<totfact> 0.18959382E+05</totfact>
</mgrwt>
</event>
<event>
 8    1  0.1241100E-024  0.8024456E+02  0.7818608E-02  0.1328359E+00
         -2   -1    0    0    0  501 -0.00000000000E+00  0.00000000000E+00  0.40883416560E+03  0.40883416561E+03  0.25500000000E-02 0.  1.
          1   -1    0    0  501    0  0.00000000000E+00 -0.00000000000E+00 -0.39375297020E+01  0.39375329275E+01  0.50400000000E-02 0. -1.
        -24    2    1    2    0    0 -0.17763568394E-14 -0.71054273576E-14  0.40489663590E+03  0.41277169854E+03  0.80244559631E+02 0.  0.
         66    2    3    3    0    0  0.14818406282E+02 -0.34705108285E+02  0.27230425457E+03  0.27491387156E+03  0.20000045288E+01 0.  0.
         13    1    3    3    0    0 -0.14818406282E+02  0.34705108285E+02  0.13259238134E+03  0.13785782698E+03  0.10566000000E+00 0. -1.
         13    1    4    4    0    0  0.12928306955E+01 -0.19505478655E+01  0.17017174170E+02  0.17177643289E+02  0.10566000000E+00 0. -1.
        -13    1    4    4    0    0  0.38119450182E+01 -0.93606554567E+01  0.70262034867E+02  0.70985333014E+02  0.10566000000E+00 0.  1.
         14    1    4    4    0    0  0.97136305687E+01 -0.23393904963E+02  0.18502504553E+03  0.18675089526E+03  0.00000000000E+00 0. -1.
<mgrwt>
<rscale>  0 0.80244560E+02</rscale>
<asrwt>0</asrwt>
<pdfrwt beam="1">  1        1 0.60577395E-03 0.80244560E+02</pdfrwt>
<pdfrwt beam="2">  1       -2 0.62897575E-01 0.80244560E+02</pdfrwt>
<totfact> 0.57780260E+04</totfact>
</mgrwt>
</event>
<event>
 8    1  0.1241100E-024  0.8018292E+02  0.7818608E-02  0.1328533E+00
         -2   -1    0    0    0  501 -0.00000000000E+00  0.00000000000E+00  0.26668387396E+02  0.26668387518E+02  0.25500000000E-02 0.  1.
          1   -1    0    0  501    0  0.00000000000E+00 -0.00000000000E+00 -0.60270808052E+02  0.60270808262E+02  0.50400000000E-02 0. -1.
        -24    2    1    2    0    0  0.88817841970E-15  0.00000000000E+00 -0.33602420656E+02  0.86939195780E+02  0.80182922676E+02 0.  0.
         66    2    3    3    0    0 -0.51657770224E+01 -0.32245619026E+02  0.83575850300E+01  0.33768541845E+02  0.19999980541E+01 0.  0.
         13    1    3    3    0    0  0.51657770224E+01  0.32245619026E+02 -0.41960005686E+02  0.53170653934E+02  0.10566000000E+00 0. -1.
         13    1    4    4    0    0 -0.15436634852E+01 -0.94873048897E+01  0.21129291880E+01  0.98421280633E+01  0.10566000000E+00 0. -1.
        -13    1    4    4    0    0 -0.15439414980E+01 -0.11446983695E+02  0.23797359552E+01  0.11793705877E+02  0.10566000000E+00 0.  1.
        -14    1    4    4    0    0 -0.20781720391E+01 -0.11311330441E+02  0.38649198868E+01  0.12132707905E+02  0.00000000000E+00 0.  1.
<mgrwt>
<rscale>  0 0.80182923E+02</rscale>
<asrwt>0</asrwt>
<pdfrwt beam="1">  1        1 0.92724320E-02 0.80182923E+02</pdfrwt>
<pdfrwt beam="2">  1       -2 0.41028289E-02 0.80182923E+02</pdfrwt>
<totfact> 0.13462991E+05</totfact>
</mgrwt>
</event>
<event>
 8    1  0.1241100E-024  0.8035055E+02  0.7818608E-02  0.1328060E+00
         -2   -1    0    0    0  501 -0.00000000000E+00  0.00000000000E+00  0.98453240995E+01  0.98453244298E+01  0.25500000000E-02 0.  1.
          1   -1    0    0  501    0  0.00000000000E+00 -0.00000000000E+00 -0.16394104849E+03  0.16394104857E+03  0.50400000000E-02 0. -1.
        -24    2    1    2    0    0  0.35527136788E-14  0.71054273576E-14 -0.15409572439E+03  0.17378637300E+03  0.80350551736E+02 0.  0.
         66    2    3    3    0    0  0.21673532824E+02  0.33711311079E+02 -0.82328182675E+02  0.91586703122E+02  0.20000016184E+01 0.  0.
         13    1    3    3    0    0 -0.21673532824E+02 -0.33711311079E+02 -0.71767541720E+02  0.82199669880E+02  0.10566000000E+00 0. -1.
         13    1    4    4    0    0  0.57356575309E+01  0.94929334459E+01 -0.21109406369E+02  0.23846000797E+02  0.10566000000E+00 0. -1.
        -13    1    4    4    0    0  0.80837808037E+01  0.11727152934E+02 -0.29662999611E+02  0.32905597366E+02  0.10566000000E+00 0.  1.
        -14    1    4    4    0    0  0.78540944892E+01  0.12491224699E+02 -0.31555776694E+02  0.34835104959E+02  0.00000000000E+00 0.  1.
<mgrwt>
<rscale>  0 0.80350552E+02</rscale>
<asrwt>0</asrwt>
<pdfrwt beam="1">  1        1 0.25221698E-01 0.80350552E+02</pdfrwt>
<pdfrwt beam="2">  1       -2 0.15146654E-02 0.80350552E+02</pdfrwt>
<totfact> 0.15865671E+05</totfact>
</mgrwt>
</event>
<event>
 8    1  0.1241100E-024  0.7896742E+02  0.7818608E-02  0.1332008E+00
          1   -1    0    0  501    0  0.00000000000E+00  0.00000000000E+00  0.59939396381E+02  0.59939396593E+02  0.50400000000E-02 0. -1.
         -2   -1    0    0    0  501 -0.00000000000E+00 -0.00000000000E+00 -0.26008992710E+02  0.26008992835E+02  0.25500000000E-02 0.  1.
        -24    2    1    2    0    0  0.71054273576E-14  0.00000000000E+00  0.33930403671E+02  0.85948389428E+02  0.78967419560E+02 0.  0.
         66    2    3    3    0    0 -0.37371641802E+02  0.82321452843E+01  0.65052659974E+01  0.38868062673E+02  0.19999958205E+01 0.  0.
         13    1    3    3    0    0  0.37371641802E+02 -0.82321452843E+01  0.27425137674E+02  0.47080326755E+02  0.10566000000E+00 0. -1.
         13    1    4    4    0    0 -0.79055498826E+01  0.13501520197E+01  0.16791910502E+01  0.81946004199E+01  0.10566000000E+00 0. -1.
        -13    1    4    4    0    0 -0.35706421377E+01  0.10714479102E+01  0.98751463483E+00  0.38579573727E+01  0.10566000000E+00 0.  1.
        -14    1    4    4    0    0 -0.25895449781E+02  0.58105453544E+01  0.38385603124E+01  0.26815504880E+02  0.00000000000E+00 0.  1.
<mgrwt>
<rscale>  0 0.78967420E+02</rscale>
<asrwt>0</asrwt>
<pdfrwt beam="1">  1        1 0.92214456E-02 0.78967420E+02</pdfrwt>
<pdfrwt beam="2">  1       -2 0.40013835E-02 0.78967420E+02</pdfrwt>
<totfact> 0.14029334E+05</totfact>
</mgrwt>
</event>
<event>
 8    1  0.1241100E-024  0.7743650E+02  0.7818608E-02  0.1336488E+00
          1   -1    0    0  501    0  0.00000000000E+00  0.00000000000E+00  0.20901231169E+02  0.20901231777E+02  0.50400000000E-02 0. -1.
         -2   -1    0    0    0  501 -0.00000000000E+00 -0.00000000000E+00 -0.71723177679E+02  0.71723177725E+02  0.25500000000E-02 0.  1.
        -24    2    1    2    0    0  0.00000000000E+00  0.00000000000E+00 -0.50821946510E+02  0.92624409502E+02  0.77436496489E+02 0.  0.
         66    2    3    3    0    0 -0.31194247977E+02  0.37122053433E+01 -0.52446636716E+02  0.61167894157E+02  0.19999993359E+01 0.  0.
         13    1    3    3    0    0  0.31194247977E+02 -0.37122053433E+01  0.16246902061E+01  0.31456515345E+02  0.10566000000E+00 0. -1.
         13    1    4    4    0    0 -0.47772138088E+01  0.75034216759E-01 -0.83401455463E+01  0.96123146889E+01  0.10566000000E+00 0. -1.
        -13    1    4    4    0    0 -0.22602645516E+02  0.26772423797E+01 -0.37526398460E+02  0.43889508501E+02  0.10566000000E+00 0.  1.
        -14    1    4    4    0    0 -0.38143886524E+01  0.95992874676E+00 -0.65800927102E+01  0.76660709666E+01  0.00000000000E+00 0.  1.
<mgrwt>
<rscale>  0 0.77436496E+02</rscale>
<asrwt>0</asrwt>
<pdfrwt beam="1">  1        1 0.32155741E-02 0.77436496E+02</pdfrwt>
<pdfrwt beam="2">  1       -2 0.11034335E-01 0.77436496E+02</pdfrwt>
<totfact> 0.12421204E+05</totfact>
</mgrwt>
</event>
<event>
 8    1  0.1241100E-024  0.8096717E+02  0.7818608E-02  0.1326329E+00
         -2   -1    0    0    0  501 -0.00000000000E+00  0.00000000000E+00  0.11499348231E+02  0.11499348514E+02  0.25500000000E-02 0.  1.
          1   -1    0    0  501    0  0.00000000000E+00 -0.00000000000E+00 -0.14252290145E+03  0.14252290153E+03  0.50400000000E-02 0. -1.
        -24    2    1    2    0    0  0.17763568394E-14  0.00000000000E+00 -0.13102355321E+03  0.15402225005E+03  0.80967166266E+02 0.  0.
         66    2    3    3    0    0 -0.95695279331E+01  0.25600418986E+02 -0.88024914569E+01  0.28782654000E+02  0.19999995823E+01 0.  0.
         13    1    3    3    0    0  0.95695279331E+01 -0.25600418986E+02 -0.12222106176E+03  0.12523959605E+03  0.10566000000E+00 0. -1.
         13    1    4    4    0    0 -0.22153732095E+01  0.59799936483E+01 -0.29338818703E+01  0.70204721605E+01  0.10566000000E+00 0. -1.
        -13    1    4    4    0    0 -0.69602008350E+01  0.18480419911E+02 -0.54629968752E+01  0.20489651404E+02  0.10566000000E+00 0.  1.
         14    1    4    4    0    0 -0.39395388860E+00  0.11400054267E+01 -0.40561271129E+00  0.12725304361E+01  0.00000000000E+00 0. -1.
<mgrwt>
<rscale>  0 0.80967166E+02</rscale>
<asrwt>0</asrwt>
<pdfrwt beam="1">  1        1 0.21926599E-01 0.80967166E+02</pdfrwt>
<pdfrwt beam="2">  1       -2 0.17691306E-02 0.80967166E+02</pdfrwt>
<totfact> 0.15145735E+05</totfact>
</mgrwt>
</event>
<event>
 8    1  0.1241100E-024  0.7701173E+02  0.7818608E-02  0.1337752E+00
         -2   -1    0    0    0  501 -0.00000000000E+00  0.00000000000E+00  0.14186564230E+03  0.14186564232E+03  0.25500000000E-02 0.  1.
          1   -1    0    0  501    0  0.00000000000E+00 -0.00000000000E+00 -0.10451449876E+02  0.10451451091E+02  0.50400000000E-02 0. -1.
        -24    2    1    2    0    0  0.00000000000E+00  0.00000000000E+00  0.13141419242E+03  0.15231709341E+03  0.77011732713E+02 0.  0.
         66    2    3    3    0    0 -0.19906961426E+02  0.31140495257E+02  0.86931691458E+02  0.94483525183E+02  0.19999982777E+01 0.  0.
         13    1    3    3    0    0  0.19906961426E+02 -0.31140495257E+02  0.44482500967E+02  0.57833568231E+02  0.10566000000E+00 0. -1.
         13    1    4    4    0    0 -0.11813981756E+01  0.26755220645E+01  0.64172947048E+01  0.70531521556E+01  0.10566000000E+00 0. -1.
        -13    1    4    4    0    0 -0.15377927228E+02  0.23651659120E+02  0.66018879713E+02  0.71794047577E+02  0.10566000000E+00 0.  1.
         14    1    4    4    0    0 -0.33476360231E+01  0.48133140724E+01  0.14495517040E+02  0.15636325450E+02  0.00000000000E+00 0. -1.
<mgrwt>
<rscale>  0 0.77011733E+02</rscale>
<asrwt>0</asrwt>
<pdfrwt beam="1">  1        1 0.16079155E-02 0.77011733E+02</pdfrwt>
<pdfrwt beam="2">  1       -2 0.21825482E-01 0.77011733E+02</pdfrwt>
<totfact> 0.10611131E+05</totfact>
</mgrwt>
</event>
<event>
 8    1  0.1241100E-024  0.8306699E+02  0.7818608E-02  0.1320566E+00
         -2   -1    0    0    0  501 -0.00000000000E+00  0.00000000000E+00  0.38521363278E+02  0.38521363362E+02  0.25500000000E-02 0.  1.
          1   -1    0    0  501    0  0.00000000000E+00 -0.00000000000E+00 -0.44781155564E+02  0.44781155848E+02  0.50400000000E-02 0. -1.
        -24    2    1    2    0    0  0.00000000000E+00  0.00000000000E+00 -0.62597922867E+01  0.83302519210E+02  0.83066989275E+02 0.  0.
         66    2    3    3    0    0 -0.21608907621E+02  0.11427675386E+02  0.30511734358E+02  0.39147191229E+02  0.19999985864E+01 0.  0.
         13    1    3    3    0    0  0.21608907621E+02 -0.11427675386E+02 -0.36771526644E+02  0.44155327981E+02  0.10566000000E+00 0. -1.
         13    1    4    4    0    0 -0.49218121300E+01  0.31156709125E+01  0.77115395812E+01  0.96649183456E+01  0.10566000000E+00 0. -1.
        -13    1    4    4    0    0 -0.77480005931E+01  0.43649885434E+01  0.10092420455E+02  0.13451868006E+02  0.10566000000E+00 0.  1.
         14    1    4    4    0    0 -0.89390948977E+01  0.39470159297E+01  0.12707774321E+02  0.16030404877E+02  0.00000000000E+00 0. -1.
<mgrwt>
<rscale>  0 0.83066989E+02</rscale>
<asrwt>0</asrwt>
<pdfrwt beam="1">  1        1 0.68894087E-02 0.83066989E+02</pdfrwt>
<pdfrwt beam="2">  1       -2 0.59263635E-02 0.83066989E+02</pdfrwt>
<totfact> 0.11633638E+05</totfact>
</mgrwt>
</event>
<event>
 8    1  0.1911490E-024  0.8498005E+02  0.7818608E-02  0.1315485E+00
          1   -1    0    0  501    0  0.00000000000E+00  0.00000000000E+00  0.57076128592E+02  0.57076128815E+02  0.50400000000E-02 0. -1.
         -2   -1    0    0    0  501 -0.00000000000E+00 -0.00000000000E+00 -0.31631475575E+02  0.31631475677E+02  0.25500000000E-02 0.  1.
        -24    2    1    2    0    0 -0.17763568394E-14  0.17763568394E-14  0.25444653017E+02  0.88707604492E+02  0.84980048997E+02 0.  0.
         66    2    3    3    0    0  0.15541048281E+02 -0.12397906900E+02 -0.26442184710E+02  0.33142441210E+02  0.19999999783E+01 0.  0.
         13    1    3    3    0    0 -0.15541048281E+02  0.12397906900E+02  0.51886837728E+02  0.55565163282E+02  0.10566000000E+00 0. -1.
         13    1    4    4    0    0  0.22330410767E+01 -0.23305324316E+01 -0.42627664879E+01  0.53479151107E+01  0.10566000000E+00 0. -1.
        -13    1    4    4    0    0  0.68297476650E+01 -0.60715397628E+01 -0.12250322475E+02  0.15283671451E+02  0.10566000000E+00 0.  1.
         14    1    4    4    0    0  0.64782595392E+01 -0.39958347060E+01 -0.99290957476E+01  0.12510854648E+02  0.00000000000E+00 0. -1.
<mgrwt>
<rscale>  0 0.84980049E+02</rscale>
<asrwt>0</asrwt>
<pdfrwt beam="1">  1        1 0.87809428E-02 0.84980049E+02</pdfrwt>
<pdfrwt beam="2">  1       -2 0.48663809E-02 0.84980049E+02</pdfrwt>
<totfact> 0.11358971E+05</totfact>
</mgrwt>
</event>
<event>
 8    1  0.1241100E-024  0.8036297E+02  0.7818608E-02  0.1328025E+00
         -2   -1    0    0    0  501 -0.00000000000E+00  0.00000000000E+00  0.23722414419E+01  0.23722428124E+01  0.25500000000E-02 0.  1.
          1   -1    0    0  501    0  0.00000000000E+00 -0.00000000000E+00 -0.68060165303E+03  0.68060165305E+03  0.50400000000E-02 0. -1.
        -24    2    1    2    0    0  0.00000000000E+00  0.00000000000E+00 -0.67822941159E+03  0.68297389586E+03  0.80362974587E+02 0.  0.
         66    2    3    3    0    0  0.40818020431E+01 -0.34137050373E+02 -0.51566735201E+03  0.51681603810E+03  0.19999991300E+01 0.  0.
         13    1    3    3    0    0 -0.40818020431E+01  0.34137050373E+02 -0.16256205958E+03  0.16615785775E+03  0.10566000000E+00 0. -1.
         13    1    4    4    0    0  0.23514872484E+00 -0.18822745520E+01 -0.27971458992E+02  0.28035904383E+02  0.10566000000E+00 0. -1.
        -13    1    4    4    0    0  0.35722847265E+01 -0.29831461162E+02 -0.44289174861E+03  0.44390966361E+03  0.10566000000E+00 0.  1.
        -14    1    4    4    0    0  0.27436859183E+00 -0.24233146590E+01 -0.44804144405E+02  0.44870470110E+02  0.00000000000E+00 0.  1.
<mgrwt>
<rscale>  0 0.80362975E+02</rscale>
<asrwt>0</asrwt>
<pdfrwt beam="1">  1        1 0.10470779E+00 0.80362975E+02</pdfrwt>
<pdfrwt beam="2">  1       -2 0.36496087E-03 0.80362975E+02</pdfrwt>
<totfact> 0.19784919E+05</totfact>
</mgrwt>
</event>
<event>
 8    1  0.1241100E-024  0.8007065E+02  0.7818608E-02  0.1328851E+00
         -2   -1    0    0    0  501 -0.00000000000E+00  0.00000000000E+00  0.62477339437E+01  0.62477344641E+01  0.25500000000E-02 0.  1.
          1   -1    0    0  501    0  0.00000000000E+00 -0.00000000000E+00 -0.25654536313E+03  0.25654536318E+03  0.50400000000E-02 0. -1.
        -24    2    1    2    0    0  0.00000000000E+00 -0.71054273576E-14 -0.25029762919E+03  0.26279309764E+03  0.80070650009E+02 0.  0.
         66    2    3    3    0    0 -0.24271331669E+02  0.28388196644E+02 -0.78139761025E+02  0.86630303662E+02  0.20000024400E+01 0.  0.
         13    1    3    3    0    0  0.24271331669E+02 -0.28388196644E+02 -0.17215786816E+03  0.17616279398E+03  0.10566000000E+00 0. -1.
         13    1    4    4    0    0 -0.92316642695E+01  0.94884341614E+01 -0.27357459590E+02  0.30392363634E+02  0.10566000000E+00 0.  1.
        -13    1    4    4    0    0 -0.20877746591E+01  0.27204992640E+01 -0.67345926470E+01  0.75581625696E+01  0.10566000000E+00 0. -1.
         14    1    4    4    0    0 -0.12951892740E+02  0.16179263219E+02 -0.44047708789E+02  0.48679777458E+02  0.00000000000E+00 0. -1.
<mgrwt>
<rscale>  0 0.80070650E+02</rscale>
<asrwt>0</asrwt>
<pdfrwt beam="1">  1        1 0.39468510E-01 0.80070650E+02</pdfrwt>
<pdfrwt beam="2">  1       -2 0.96119007E-03 0.80070650E+02</pdfrwt>
<totfact> 0.17462273E+05</totfact>
</mgrwt>
</event>
<event>
 8    1  0.1241100E-024  0.7850039E+02  0.7818608E-02  0.1333362E+00
          1   -1    0    0  501    0  0.00000000000E+00  0.00000000000E+00  0.11927835295E+03  0.11927835306E+03  0.50400000000E-02 0. -1.
         -2   -1    0    0    0  501 -0.00000000000E+00 -0.00000000000E+00 -0.12915819528E+02  0.12915819779E+02  0.25500000000E-02 0.  1.
        -24    2    1    2    0    0  0.00000000000E+00  0.00000000000E+00  0.10636253342E+03  0.13219417284E+03  0.78500387361E+02 0.  0.
         66    2    3    3    0    0  0.26111320471E+02  0.12914196368E+02  0.89809423484E+01  0.30548892726E+02  0.19999991879E+01 0.  0.
         13    1    3    3    0    0 -0.26111320471E+02 -0.12914196368E+02  0.97381591076E+02  0.10164528011E+03  0.10566000000E+00 0. -1.
         13    1    4    4    0    0  0.15343084577E+01  0.11111141455E+01  0.38767560371E+00  0.19365261416E+01  0.10566000000E+00 0. -1.
        -13    1    4    4    0    0  0.21591600142E+02  0.10218431274E+02  0.71284556978E+01  0.24928689879E+02  0.10566000000E+00 0.  1.
        -14    1    4    4    0    0  0.29854118705E+01  0.15846509486E+01  0.14648110468E+01  0.36836767052E+01  0.00000000000E+00 0.  1.
<mgrwt>
<rscale>  0 0.78500387E+02</rscale>
<asrwt>0</asrwt>
<pdfrwt beam="1">  1        1 0.18350515E-01 0.78500387E+02</pdfrwt>
<pdfrwt beam="2">  1       -2 0.19870493E-02 0.78500387E+02</pdfrwt>
<totfact> 0.15940083E+05</totfact>
</mgrwt>
</event>
<event>
 8    1  0.1241100E-024  0.7874885E+02  0.7818608E-02  0.1332640E+00
         -2   -1    0    0    0  501 -0.00000000000E+00  0.00000000000E+00  0.59788510620E+01  0.59788516058E+01  0.25500000000E-02 0.  1.
          1   -1    0    0  501    0  0.00000000000E+00 -0.00000000000E+00 -0.25930487717E+03  0.25930487722E+03  0.50400000000E-02 0. -1.
        -24    2    1    2    0    0  0.35527136788E-14 -0.35527136788E-14 -0.25332602611E+03  0.26528372882E+03  0.78748849360E+02 0.  0.
         66    2    3    3    0    0 -0.20976140892E+02  0.27906987547E+02 -0.65590925590E+02  0.74330128253E+02  0.20000014223E+01 0.  0.
         13    1    3    3    0    0  0.20976140892E+02 -0.27906987547E+02 -0.18773510052E+03  0.19095360057E+03  0.10566000000E+00 0. -1.
         13    1    4    4    0    0 -0.66612019192E+00  0.11175424299E+01 -0.24830286659E+01  0.28052116826E+01  0.10566000000E+00 0. -1.
        -13    1    4    4    0    0 -0.88032057901E+01  0.12877396950E+02 -0.28392644803E+02  0.32395635931E+02  0.10566000000E+00 0.  1.
        -14    1    4    4    0    0 -0.11506814910E+02  0.13912048167E+02 -0.34715252121E+02  0.39129280640E+02  0.00000000000E+00 0.  1.
<mgrwt>
<rscale>  0 0.78748849E+02</rscale>
<asrwt>0</asrwt>
<pdfrwt beam="1">  1        1 0.39893050E-01 0.78748849E+02</pdfrwt>
<pdfrwt beam="2">  1       -2 0.91982348E-03 0.78748849E+02</pdfrwt>
<totfact> 0.18285124E+05</totfact>
</mgrwt>
</event>
<event>
 8    1  0.1241100E-024  0.7931626E+02  0.7818608E-02  0.1331003E+00
         -2   -1    0    0    0  501 -0.00000000000E+00  0.00000000000E+00  0.12306768930E+03  0.12306768932E+03  0.25500000000E-02 0.  1.
          1   -1    0    0  501    0  0.00000000000E+00 -0.00000000000E+00 -0.12779692087E+02  0.12779693081E+02  0.50400000000E-02 0. -1.
        -24    2    1    2    0    0  0.00000000000E+00  0.35527136788E-14  0.11028799721E+03  0.13584738240E+03  0.79316259224E+02 0.  0.
         66    2    3    3    0    0 -0.19752892952E+02  0.28498353841E+02  0.88053992395E+02  0.94656423616E+02  0.20000008658E+01 0.  0.
         13    1    3    3    0    0  0.19752892952E+02 -0.28498353841E+02  0.22234004813E+02  0.41190958786E+02  0.10566000000E+00 0. -1.
         13    1    4    4    0    0 -0.57391853669E+00  0.10327179256E+01  0.33834800929E+01  0.35853856662E+01  0.10566000000E+00 0. -1.
        -13    1    4    4    0    0 -0.18188603879E+01  0.29193512862E+01  0.99812868179E+01  0.10557846164E+02  0.10566000000E+00 0.  1.
        -14    1    4    4    0    0 -0.17360114028E+02  0.24546284629E+02  0.74689225484E+02  0.80513191786E+02  0.00000000000E+00 0.  1.
<mgrwt>
<rscale>  0 0.79316259E+02</rscale>
<asrwt>0</asrwt>
<pdfrwt beam="1">  1        1 0.19661066E-02 0.79316259E+02</pdfrwt>
<pdfrwt beam="2">  1       -2 0.18933490E-01 0.79316259E+02</pdfrwt>
<totfact> 0.10266268E+05</totfact>
</mgrwt>
</event>
<event>
 8    1  0.1241100E-024  0.8045386E+02  0.7818608E-02  0.1327768E+00
         -2   -1    0    0    0  501 -0.00000000000E+00  0.00000000000E+00  0.13231656276E+02  0.13231656521E+02  0.25500000000E-02 0.  1.
          1   -1    0    0  501    0  0.00000000000E+00 -0.00000000000E+00 -0.12229806060E+03  0.12229806070E+03  0.50400000000E-02 0. -1.
        -24    2    1    2    0    0  0.00000000000E+00  0.35527136788E-14 -0.10906640432E+03  0.13552971722E+03  0.80453860683E+02 0.  0.
         66    2    3    3    0    0  0.33319944647E+02 -0.18378587193E+02 -0.32718728404E+02  0.50224559345E+02  0.19999986349E+01 0.  0.
         13    1    3    3    0    0 -0.33319944647E+02  0.18378587193E+02 -0.76347675920E+02  0.85305157880E+02  0.10566000000E+00 0. -1.
         13    1    4    4    0    0  0.27345137580E+01 -0.18853062778E+01 -0.26249828441E+01  0.42348133632E+01  0.10566000000E+00 0. -1.
        -13    1    4    4    0    0  0.14567424118E+02 -0.84005040227E+01 -0.13903320972E+02  0.21819528211E+02  0.10566000000E+00 0.  1.
        -14    1    4    4    0    0  0.16018006771E+02 -0.80927768925E+01 -0.16190424588E+02  0.24170217771E+02  0.00000000000E+00 0.  1.
<mgrwt>
<rscale>  0 0.80453861E+02</rscale>
<asrwt>0</asrwt>
<pdfrwt beam="1">  1        1 0.18815086E-01 0.80453861E+02</pdfrwt>
<pdfrwt beam="2">  1       -2 0.20356395E-02 0.80453861E+02</pdfrwt>
<totfact> 0.14987445E+05</totfact>
</mgrwt>
</event>
<event>
 8    1  0.1241100E-024  0.8052036E+02  0.7818608E-02  0.1327581E+00
          1   -1    0    0  501    0  0.00000000000E+00  0.00000000000E+00  0.16662970905E+03  0.16662970913E+03  0.50400000000E-02 0. -1.
         -2   -1    0    0    0  501 -0.00000000000E+00 -0.00000000000E+00 -0.97274499098E+01  0.97274502441E+01  0.25500000000E-02 0.  1.
        -24    2    1    2    0    0  0.35527136788E-14  0.00000000000E+00  0.15690225914E+03  0.17635715937E+03  0.80520362256E+02 0.  0.
         66    2    3    3    0    0  0.30747303544E+02 -0.28714180262E+01  0.22008938426E+02  0.37974137095E+02  0.20000001885E+01 0.  0.
         13    1    3    3    0    0 -0.30747303544E+02  0.28714180262E+01  0.13489332071E+03  0.13838302227E+03  0.10566000000E+00 0. -1.
         13    1    4    4    0    0  0.67841037482E+01 -0.13462767849E+00  0.47224099691E+01  0.82676785273E+01  0.10566000000E+00 0. -1.
        -13    1    4    4    0    0  0.23466393121E+02 -0.25769868947E+01  0.16677242059E+02  0.28904221739E+02  0.10566000000E+00 0.  1.
        -14    1    4    4    0    0  0.49680667473E+00 -0.15980345295E+00  0.60928639790E+00  0.80223682931E+00  0.00000000000E+00 0.  1.
<mgrwt>
<rscale>  0 0.80520362E+02</rscale>
<asrwt>0</asrwt>
<pdfrwt beam="1">  1        1 0.25635340E-01 0.80520362E+02</pdfrwt>
<pdfrwt beam="2">  1       -2 0.14965308E-02 0.80520362E+02</pdfrwt>
<totfact> 0.15824962E+05</totfact>
</mgrwt>
</event>
<event>
 8    1  0.1241100E-024  0.7819041E+02  0.7818608E-02  0.1334267E+00
          1   -1    0    0  501    0  0.00000000000E+00  0.00000000000E+00  0.14966919496E+02  0.14966920345E+02  0.50400000000E-02 0. -1.
         -2   -1    0    0    0  501 -0.00000000000E+00 -0.00000000000E+00 -0.10212088927E+03  0.10212088930E+03  0.25500000000E-02 0.  1.
        -24    2    1    2    0    0  0.35527136788E-14  0.00000000000E+00 -0.87153969776E+02  0.11708780965E+03  0.78190413228E+02 0.  0.
         66    2    3    3    0    0 -0.31768879340E+02 -0.60631872687E+01 -0.76427226764E+02  0.83012919861E+02  0.19999846869E+01 0.  0.
         13    1    3    3    0    0  0.31768879340E+02  0.60631872687E+01 -0.10726743013E+02  0.34074889788E+02  0.10566000000E+00 0. -1.
         13    1    4    4    0    0 -0.12909858412E+01  0.70514808684E-01 -0.33285075515E+01  0.35723582318E+01  0.10566000000E+00 0. -1.
        -13    1    4    4    0    0 -0.18998696182E+02 -0.36374203646E+01 -0.46506358831E+02  0.50368977151E+02  0.10566000000E+00 0.  1.
         14    1    4    4    0    0 -0.11479197317E+02 -0.24962817128E+01 -0.26592360381E+02  0.29071584478E+02  0.00000000000E+00 0. -1.
<mgrwt>
<rscale>  0 0.78190413E+02</rscale>
<asrwt>0</asrwt>
<pdfrwt beam="1">  1        1 0.23026031E-02 0.78190413E+02</pdfrwt>
<pdfrwt beam="2">  1       -2 0.15710906E-01 0.78190413E+02</pdfrwt>
<totfact> 0.11193875E+05</totfact>
</mgrwt>
</event>
<event>
 8    1  0.1241100E-024  0.7893680E+02  0.7818608E-02  0.1332096E+00
          1   -1    0    0  501    0  0.00000000000E+00  0.00000000000E+00  0.27939931321E+03  0.27939931326E+03  0.50400000000E-02 0. -1.
         -2   -1    0    0    0  501 -0.00000000000E+00 -0.00000000000E+00 -0.55753696639E+01  0.55753702471E+01  0.25500000000E-02 0.  1.
        -24    2    1    2    0    0  0.00000000000E+00  0.71054273576E-14  0.27382394355E+03  0.28497468350E+03  0.78936798632E+02 0.  0.
         66    2    3    3    0    0  0.13844961943E+02 -0.31768759894E+02  0.68996903600E+02  0.77236712651E+02  0.19999995848E+01 0.  0.
         13    1    3    3    0    0 -0.13844961943E+02  0.31768759894E+02  0.20482703995E+03  0.20773797085E+03  0.10566000000E+00 0. -1.
         13    1    4    4    0    0  0.10299058033E+01 -0.18664124488E+01  0.47223525493E+01  0.51822754681E+01  0.10566000000E+00 0. -1.
        -13    1    4    4    0    0  0.50242227435E+01 -0.10468091143E+02  0.24076671794E+02  0.26730526278E+02  0.10566000000E+00 0.  1.
        -14    1    4    4    0    0  0.77908333958E+01 -0.19434256302E+02  0.40197879257E+02  0.45323910906E+02  0.00000000000E+00 0.  1.
<mgrwt>
<rscale>  0 0.78936799E+02</rscale>
<asrwt>0</asrwt>
<pdfrwt beam="1">  1        1 0.42984494E-01 0.78936799E+02</pdfrwt>
<pdfrwt beam="2">  1       -2 0.85774954E-03 0.78936799E+02</pdfrwt>
<totfact> 0.18435866E+05</totfact>
</mgrwt>
</event>
<event>
 8    1  0.1241100E-024  0.8070975E+02  0.7818608E-02  0.1327049E+00
          1   -1    0    0  501    0  0.00000000000E+00  0.00000000000E+00  0.68562967854E+02  0.68562968039E+02  0.50400000000E-02 0. -1.
         -2   -1    0    0    0  501 -0.00000000000E+00 -0.00000000000E+00 -0.23752123780E+02  0.23752123916E+02  0.25500000000E-02 0.  1.
        -24    2    1    2    0    0  0.00000000000E+00 -0.17763568394E-14  0.44810844075E+02  0.92315091956E+02  0.80709754405E+02 0.  0.
         66    2    3    3    0    0  0.20804702047E+02  0.71297821110E+01  0.61086074644E+02  0.64955199516E+02  0.20000021315E+01 0.  0.
         13    1    3    3    0    0 -0.20804702047E+02 -0.71297821110E+01 -0.16275230569E+02  0.27359892440E+02  0.10566000000E+00 0. -1.
         13    1    4    4    0    0  0.12003635236E+01  0.64805291607E+00  0.34773528990E+01  0.37368425697E+01  0.10566000000E+00 0. -1.
        -13    1    4    4    0    0  0.50728899216E+01  0.15176517765E+01  0.16860301056E+02  0.17672532213E+02  0.10566000000E+00 0.  1.
        -14    1    4    4    0    0  0.14531448602E+02  0.49640774184E+01  0.40748420688E+02  0.43545824733E+02  0.00000000000E+00 0.  1.
<mgrwt>
<rscale>  0 0.80709754E+02</rscale>
<asrwt>0</asrwt>
<pdfrwt beam="1">  1        1 0.10548149E-01 0.80709754E+02</pdfrwt>
<pdfrwt beam="2">  1       -2 0.36541729E-02 0.80709754E+02</pdfrwt>
<totfact> 0.13494375E+05</totfact>
</mgrwt>
</event>
<event>
 8    1  0.1241100E-024  0.7959379E+02  0.7818608E-02  0.1330208E+00
          1   -1    0    0  501    0  0.00000000000E+00  0.00000000000E+00  0.17570051933E+03  0.17570051940E+03  0.50400000000E-02 0. -1.
         -2   -1    0    0    0  501 -0.00000000000E+00 -0.00000000000E+00 -0.90141611701E+01  0.90141615308E+01  0.25500000000E-02 0.  1.
        -24    2    1    2    0    0 -0.44408920985E-15  0.35527136788E-14  0.16668635816E+03  0.18471468093E+03  0.79593789680E+02 0.  0.
         66    2    3    3    0    0 -0.37469959204E+01 -0.26333257994E+02  0.14775087668E+02  0.30492355307E+02  0.20000153945E+01 0.  0.
         13    1    3    3    0    0  0.37469959204E+01  0.26333257994E+02  0.15191127049E+03  0.15422232563E+03  0.10566000000E+00 0. -1.
         13    1    4    4    0    0 -0.32157809046E+00 -0.18645906403E+01  0.59797088176E+00  0.19871698305E+01  0.10566000000E+00 0. -1.
        -13    1    4    4    0    0 -0.19205620656E+01 -0.16933758379E+02  0.95561721334E+01  0.19538994891E+02  0.10566000000E+00 0.  1.
        -14    1    4    4    0    0 -0.15048557643E+01 -0.75349089746E+01  0.46209446527E+01  0.89661905853E+01  0.00000000000E+00 0.  1.
<mgrwt>
<rscale>  0 0.79593790E+02</rscale>
<asrwt>0</asrwt>
<pdfrwt beam="1">  1        1 0.27030849E-01 0.79593790E+02</pdfrwt>
<pdfrwt beam="2">  1       -2 0.13867941E-02 0.79593790E+02</pdfrwt>
<totfact> 0.16484964E+05</totfact>
</mgrwt>
</event>
<event>
 8    1  0.1241100E-024  0.8082690E+02  0.7818608E-02  0.1326721E+00
         -2   -1    0    0    0  501 -0.00000000000E+00  0.00000000000E+00  0.74753950460E+02  0.74753950504E+02  0.25500000000E-02 0.  1.
          1   -1    0    0  501    0  0.00000000000E+00 -0.00000000000E+00 -0.21848300487E+02  0.21848301068E+02  0.50400000000E-02 0. -1.
        -24    2    1    2    0    0  0.71054273576E-14 -0.88817841970E-15  0.52905649974E+02  0.96602251572E+02  0.80826896573E+02 0.  0.
         66    2    3    3    0    0  0.38418206750E+02 -0.48635151011E+01  0.12756752664E+02  0.40820915014E+02  0.19999937476E+01 0.  0.
         13    1    3    3    0    0 -0.38418206750E+02  0.48635151011E+01  0.40148897309E+02  0.55781336558E+02  0.10566000000E+00 0. -1.
         13    1    4    4    0    0  0.14112329112E+01 -0.35352118099E-01  0.18069415937E+00  0.14271098475E+01  0.10566000000E+00 0. -1.
        -13    1    4    4    0    0  0.26838365574E+02 -0.35771580343E+01  0.95545944051E+01  0.28712285951E+02  0.10566000000E+00 0.  1.
        -14    1    4    4    0    0  0.10168608265E+02 -0.12510049487E+01  0.30214640996E+01  0.10681519215E+02  0.00000000000E+00 0.  1.
<mgrwt>
<rscale>  0 0.80826897E+02</rscale>
<asrwt>0</asrwt>
<pdfrwt beam="1">  1        1 0.33612771E-02 0.80826897E+02</pdfrwt>
<pdfrwt beam="2">  1       -2 0.11500607E-01 0.80826897E+02</pdfrwt>
<totfact> 0.11045005E+05</totfact>
</mgrwt>
</event>
<event>
 8    1  0.1241100E-024  0.7971163E+02  0.7818608E-02  0.1329872E+00
          1   -1    0    0  501    0  0.00000000000E+00  0.00000000000E+00  0.16964123672E+03  0.16964123680E+03  0.50400000000E-02 0. -1.
         -2   -1    0    0    0  501 -0.00000000000E+00 -0.00000000000E+00 -0.93637953952E+01  0.93637957424E+01  0.25500000000E-02 0.  1.
        -24    2    1    2    0    0 -0.35527136788E-14 -0.35527136788E-14  0.16027744133E+03  0.17900503254E+03  0.79711626982E+02 0.  0.
         66    2    3    3    0    0  0.31350256993E+02  0.22126054632E+02  0.10417450546E+03  0.11103480756E+03  0.19999986056E+01 0.  0.
         13    1    3    3    0    0 -0.31350256993E+02 -0.22126054632E+02  0.56102935862E+02  0.67970224977E+02  0.10566000000E+00 0. -1.
         13    1    4    4    0    0  0.54381879639E+01  0.45536865366E+01  0.20339129354E+02  0.21540689318E+02  0.10566000000E+00 0. -1.
        -13    1    4    4    0    0  0.12772229393E+02  0.85058783004E+01  0.42114489290E+02  0.44823221454E+02  0.10566000000E+00 0.  1.
         14    1    4    4    0    0  0.13139839636E+02  0.90664897946E+01  0.41720886821E+02  0.44670896790E+02  0.00000000000E+00 0. -1.
<mgrwt>
<rscale>  0 0.79711627E+02</rscale>
<asrwt>0</asrwt>
<pdfrwt beam="1">  1        1 0.26098650E-01 0.79711627E+02</pdfrwt>
<pdfrwt beam="2">  1       -2 0.14405841E-02 0.79711627E+02</pdfrwt>
<totfact> 0.16311553E+05</totfact>
</mgrwt>
</event>
<event>
 8    1  0.1241100E-024  0.8035122E+02  0.7818608E-02  0.1328058E+00
          1   -1    0    0  501    0  0.00000000000E+00  0.00000000000E+00  0.57491692359E+01  0.57491714451E+01  0.50400000000E-02 0. -1.
         -2   -1    0    0    0  501 -0.00000000000E+00 -0.00000000000E+00 -0.28075001693E+03  0.28075001694E+03  0.25500000000E-02 0.  1.
        -24    2    1    2    0    0  0.00000000000E+00  0.00000000000E+00 -0.27500084769E+03  0.28649918839E+03  0.80351220985E+02 0.  0.
         66    2    3    3    0    0 -0.33468504501E+02  0.69940809858E+01 -0.21263369667E+03  0.21537443424E+03  0.19999999134E+01 0.  0.
         13    1    3    3    0    0  0.33468504501E+02 -0.69940809858E+01 -0.62367151022E+02  0.71124754151E+02  0.10566000000E+00 0. -1.
         13    1    4    4    0    0 -0.47398448794E+01  0.88036269352E+00 -0.33179290961E+02  0.33527864242E+02  0.10566000000E+00 0. -1.
        -13    1    4    4    0    0 -0.14835028487E+02  0.36435240146E+01 -0.95770857216E+02  0.96981552851E+02  0.10566000000E+00 0.  1.
        -14    1    4    4    0    0 -0.13893631134E+02  0.24701942776E+01 -0.83683548496E+02  0.84865017144E+02  0.00000000000E+00 0.  1.
<mgrwt>
<rscale>  0 0.80351221E+02</rscale>
<asrwt>0</asrwt>
<pdfrwt beam="1">  1        1 0.88448797E-03 0.80351221E+02</pdfrwt>
<pdfrwt beam="2">  1       -2 0.43192300E-01 0.80351221E+02</pdfrwt>
<totfact> 0.71970283E+04</totfact>
</mgrwt>
</event>
<event>
 8    1  0.1241100E-024  0.7983973E+02  0.7818608E-02  0.1329507E+00
         -2   -1    0    0    0  501 -0.00000000000E+00  0.00000000000E+00  0.94161505628E+02  0.94161505663E+02  0.25500000000E-02 0.  1.
          1   -1    0    0  501    0  0.00000000000E+00 -0.00000000000E+00 -0.16924064346E+02  0.16924065096E+02  0.50400000000E-02 0. -1.
        -24    2    1    2    0    0  0.00000000000E+00  0.17763568394E-14  0.77237441283E+02  0.11108557076E+03  0.79839725043E+02 0.  0.
         66    2    3    3    0    0  0.48546575998E+01 -0.13311877540E+02  0.90531679135E+02  0.91655652895E+02  0.19999991302E+01 0.  0.
         13    1    3    3    0    0 -0.48546575998E+01  0.13311877540E+02 -0.13294237853E+02  0.19429917863E+02  0.10566000000E+00 0. -1.
         13    1    4    4    0    0  0.37923152831E+00 -0.32314901411E+01  0.19324206954E+02  0.19596491612E+02  0.10566000000E+00 0. -1.
        -13    1    4    4    0    0  0.17074245932E+01 -0.32431018176E+01  0.22828272238E+02  0.23120860398E+02  0.10566000000E+00 0.  1.
         14    1    4    4    0    0  0.27680014783E+01 -0.68372855814E+01  0.48379199943E+02  0.48938300885E+02  0.00000000000E+00 0. -1.
<mgrwt>
<rscale>  0 0.79839725E+02</rscale>
<asrwt>0</asrwt>
<pdfrwt beam="1">  1        1 0.26037023E-02 0.79839725E+02</pdfrwt>
<pdfrwt beam="2">  1       -2 0.14486385E-01 0.79839725E+02</pdfrwt>
<totfact> 0.10824833E+05</totfact>
</mgrwt>
</event>
<event>
 8    1  0.1241100E-024  0.8028599E+02  0.7818608E-02  0.1328242E+00
         -2   -1    0    0    0  501 -0.00000000000E+00  0.00000000000E+00  0.13069718921E+03  0.13069718923E+03  0.25500000000E-02 0.  1.
          1   -1    0    0  501    0  0.00000000000E+00 -0.00000000000E+00 -0.12329723074E+02  0.12329724104E+02  0.50400000000E-02 0. -1.
        -24    2    1    2    0    0  0.88817841970E-15  0.00000000000E+00  0.11836746613E+03  0.14302691334E+03  0.80285994419E+02 0.  0.
         66    2    3    3    0    0 -0.79926742483E+01  0.33250011245E+02  0.96589130337E+02  0.10248368747E+03  0.20000023062E+01 0.  0.
         13    1    3    3    0    0  0.79926742483E+01 -0.33250011245E+02  0.21778335796E+02  0.40543225864E+02  0.10566000000E+00 0. -1.
         13    1    4    4    0    0 -0.19998282556E+01  0.61817755913E+01  0.17656272875E+02  0.18814058530E+02  0.10566000000E+00 0. -1.
        -13    1    4    4    0    0 -0.45997108266E+01  0.18553414026E+02  0.55375629436E+02  0.58582062196E+02  0.10566000000E+00 0.  1.
        -14    1    4    4    0    0 -0.13931351661E+01  0.85148216274E+01  0.23557228026E+02  0.25087566746E+02  0.00000000000E+00 0.  1.
<mgrwt>
<rscale>  0 0.80285994E+02</rscale>
<asrwt>0</asrwt>
<pdfrwt beam="1">  1        1 0.18968804E-02 0.80285994E+02</pdfrwt>
<pdfrwt beam="2">  1       -2 0.20107261E-01 0.80285994E+02</pdfrwt>
<totfact> 0.97775503E+04</totfact>
</mgrwt>
</event>
<event>
 8    1  0.1241100E-024  0.8017648E+02  0.7818608E-02  0.1328551E+00
         -2   -1    0    0    0  501 -0.00000000000E+00  0.00000000000E+00  0.67653409036E+01  0.67653413842E+01  0.25500000000E-02 0.  1.
          1   -1    0    0  501    0  0.00000000000E+00 -0.00000000000E+00 -0.23754412360E+03  0.23754412365E+03  0.50400000000E-02 0. -1.
        -24    2    1    2    0    0  0.00000000000E+00  0.00000000000E+00 -0.23077878269E+03  0.24430946503E+03  0.80176481365E+02 0.  0.
         66    2    3    3    0    0  0.40009294427E+02  0.12144678681E+01 -0.12059930089E+03  0.12708426319E+03  0.20000007175E+01 0.  0.
         13    1    3    3    0    0 -0.40009294427E+02 -0.12144678681E+01 -0.11017948180E+03  0.11722520184E+03  0.10566000000E+00 0. -1.
         13    1    4    4    0    0  0.17709277064E+02 -0.13528185745E+00 -0.55124165086E+02  0.57899236055E+02  0.10566000000E+00 0. -1.
        -13    1    4    4    0    0  0.19314461486E+02  0.94482511463E+00 -0.56501784615E+02  0.59719376636E+02  0.10566000000E+00 0.  1.
        -14    1    4    4    0    0  0.29855558766E+01  0.40492461095E+00 -0.89733511889E+01  0.94656505003E+01  0.00000000000E+00 0.  1.
<mgrwt>
<rscale>  0 0.80176481E+02</rscale>
<asrwt>0</asrwt>
<pdfrwt beam="1">  1        1 0.36545244E-01 0.80176481E+02</pdfrwt>
<pdfrwt beam="2">  1       -2 0.10408219E-02 0.80176481E+02</pdfrwt>
<totfact> 0.17142331E+05</totfact>
</mgrwt>
</event>
<event>
 8    1  0.1241100E-024  0.8024125E+02  0.7818608E-02  0.1328368E+00
         -2   -1    0    0    0  501 -0.00000000000E+00  0.00000000000E+00  0.21381941946E+02  0.21381942098E+02  0.25500000000E-02 0.  1.
          1   -1    0    0  501    0  0.00000000000E+00 -0.00000000000E+00 -0.75281489564E+02  0.75281489732E+02  0.50400000000E-02 0. -1.
        -24    2    1    2    0    0  0.00000000000E+00  0.00000000000E+00 -0.53899547618E+02  0.96663431830E+02  0.80241247621E+02 0.  0.
         66    2    3    3    0    0  0.83708828960E+01  0.31441479501E+02  0.12601640056E+01  0.32622481930E+02  0.20000000681E+01 0.  0.
         13    1    3    3    0    0 -0.83708828960E+01 -0.31441479501E+02 -0.55159711624E+02  0.64040949900E+02  0.10566000000E+00 0. -1.
         13    1    4    4    0    0  0.22185409375E+01  0.95479719745E+01 -0.13096396394E+00  0.98037752072E+01  0.10566000000E+00 0. -1.
        -13    1    4    4    0    0  0.20368136005E+01  0.95198871815E+01  0.54131277739E+00  0.97509509870E+01  0.10566000000E+00 0.  1.
         14    1    4    4    0    0  0.41155283581E+01  0.12373620345E+02  0.84981519215E+00  0.13067755736E+02  0.00000000000E+00 0. -1.
<mgrwt>
<rscale>  0 0.80241248E+02</rscale>
<asrwt>0</asrwt>
<pdfrwt beam="1">  1        1 0.11581768E-01 0.80241248E+02</pdfrwt>
<pdfrwt beam="2">  1       -2 0.32895296E-02 0.80241248E+02</pdfrwt>
<totfact> 0.13917016E+05</totfact>
</mgrwt>
</event>
<event>
 8    1  0.1241100E-024  0.8161016E+02  0.7818608E-02  0.1324543E+00
         -2   -1    0    0    0  501 -0.00000000000E+00  0.00000000000E+00  0.56493191092E+02  0.56493191150E+02  0.25500000000E-02 0.  1.
          1   -1    0    0  501    0  0.00000000000E+00 -0.00000000000E+00 -0.29473541886E+02  0.29473542316E+02  0.50400000000E-02 0. -1.
        -24    2    1    2    0    0  0.22204460493E-15  0.17763568394E-14  0.27019649207E+02  0.85966733466E+02  0.81610157576E+02 0.  0.
         66    2    3    3    0    0 -0.18228798897E+01 -0.11492416021E+02  0.54689566088E+02  0.55949505391E+02  0.19999993994E+01 0.  0.
         13    1    3    3    0    0  0.18228798897E+01  0.11492416021E+02 -0.27669916881E+02  0.30017228075E+02  0.10566000000E+00 0. -1.
         13    1    4    4    0    0 -0.46787726938E+00 -0.48528964881E+01  0.20892997577E+02  0.21454557214E+02  0.10566000000E+00 0. -1.
        -13    1    4    4    0    0 -0.22728518570E+00 -0.37953790227E+00  0.40787222664E+01  0.41040037691E+01  0.10566000000E+00 0.  1.
        -14    1    4    4    0    0 -0.11277174346E+01 -0.62599816304E+01  0.29717846244E+02  0.30390944408E+02  0.00000000000E+00 0.  1.
<mgrwt>
<rscale>  0 0.81610158E+02</rscale>
<asrwt>0</asrwt>
<pdfrwt beam="1">  1        1 0.45343912E-02 0.81610158E+02</pdfrwt>
<pdfrwt beam="2">  1       -2 0.86912600E-02 0.81610158E+02</pdfrwt>
<totfact> 0.11383359E+05</totfact>
</mgrwt>
</event>
<event>
 8    1  0.1241100E-024  0.7886243E+02  0.7818608E-02  0.1332311E+00
          1   -1    0    0  501    0  0.00000000000E+00  0.00000000000E+00  0.35283277804E+02  0.35283278164E+02  0.50400000000E-02 0. -1.
         -2   -1    0    0    0  501 -0.00000000000E+00 -0.00000000000E+00 -0.44066784702E+02  0.44066784775E+02  0.25500000000E-02 0.  1.
        -24    2    1    2    0    0  0.00000000000E+00  0.71054273576E-14 -0.87835068975E+01  0.79350062940E+02  0.78862427652E+02 0.  0.
         66    2    3    3    0    0  0.15282217415E+02 -0.23446273101E+02  0.23517576448E+02  0.36610794804E+02  0.20000006836E+01 0.  0.
         13    1    3    3    0    0 -0.15282217415E+02  0.23446273101E+02 -0.32301083346E+02  0.42739268136E+02  0.10566000000E+00 0. -1.
         13    1    4    4    0    0  0.31854147208E+00 -0.75344278868E+00  0.51444354155E+00  0.97209099280E+00  0.10566000000E+00 0.  1.
        -13    1    4    4    0    0  0.13336542840E+02 -0.20948996289E+02  0.21095974298E+02  0.32584890917E+02  0.10566000000E+00 0.  1.
        -14    1    4    4    0    0  0.16271331029E+01 -0.17438340237E+01  0.19071586086E+01  0.30538128946E+01  0.00000000000E+00 0.  1.
<mgrwt>
<rscale>  0 0.78862428E+02</rscale>
<asrwt>0</asrwt>
<pdfrwt beam="1">  1        1 0.54281966E-02 0.78862428E+02</pdfrwt>
<pdfrwt beam="2">  1       -2 0.67795054E-02 0.78862428E+02</pdfrwt>
<totfact> 0.12953030E+05</totfact>
</mgrwt>
</event>
<event>
 8    1  0.1241100E-024  0.8103411E+02  0.7818608E-02  0.1326142E+00
         -2   -1    0    0    0  501 -0.00000000000E+00  0.00000000000E+00  0.12203727870E+03  0.12203727873E+03  0.25500000000E-02 0.  1.
          1   -1    0    0  501    0  0.00000000000E+00 -0.00000000000E+00 -0.13451885950E+02  0.13451886894E+02  0.50400000000E-02 0. -1.
        -24    2    1    2    0    0  0.88817841970E-15  0.00000000000E+00  0.10858539275E+03  0.13548916562E+03  0.81034106905E+02 0.  0.
         66    2    3    3    0    0  0.57946927880E+01  0.21949485581E+02  0.11038807749E+03  0.11271595289E+03  0.20000004727E+01 0.  0.
         13    1    3    3    0    0 -0.57946927880E+01 -0.21949485581E+02 -0.18026847401E+01  0.22773212731E+02  0.10566000000E+00 0. -1.
         13    1    4    4    0    0  0.63526978674E-02  0.15661991784E+01  0.87378418884E+01  0.88777286017E+01  0.10566000000E+00 0. -1.
        -13    1    4    4    0    0  0.45541789922E+01  0.17082768484E+02  0.85016930537E+02  0.86835771242E+02  0.10566000000E+00 0.  1.
        -14    1    4    4    0    0  0.12341610979E+01  0.33005179188E+01  0.16633305068E+02  0.17002453048E+02  0.00000000000E+00 0.  1.
<mgrwt>
<rscale>  0 0.81034107E+02</rscale>
<asrwt>0</asrwt>
<pdfrwt beam="1">  1        1 0.20695210E-02 0.81034107E+02</pdfrwt>
<pdfrwt beam="2">  1       -2 0.18774966E-01 0.81034107E+02</pdfrwt>
<totfact> 0.97400144E+04</totfact>
</mgrwt>
</event>
<event>
 8    1  0.1241100E-024  0.8288586E+02  0.7818608E-02  0.1321056E+00
          1   -1    0    0  501    0  0.00000000000E+00  0.00000000000E+00  0.18792419785E+01  0.18792487370E+01  0.50400000000E-02 0. -1.
         -2   -1    0    0    0  501 -0.00000000000E+00 -0.00000000000E+00 -0.91393943904E+03  0.91393943905E+03  0.25500000000E-02 0.  1.
        -24    2    1    2    0    0  0.17763568394E-14  0.00000000000E+00 -0.91206019706E+03  0.91581868778E+03  0.82885860219E+02 0.  0.
         66    2    3    3    0    0  0.15845152180E+02 -0.31229300510E+02 -0.70067195876E+03  0.70154937940E+03  0.19999712332E+01 0.  0.
         13    1    3    3    0    0 -0.15845152180E+02  0.31229300510E+02 -0.21138823830E+03  0.21426930838E+03  0.10566000000E+00 0. -1.
         13    1    4    4    0    0  0.42117112461E+01 -0.86215202960E+01 -0.18110880955E+03  0.18136284401E+03  0.10566000000E+00 0.  1.
        -13    1    4    4    0    0  0.26879438205E+01 -0.56714551186E+01 -0.13913433858E+03  0.13927586217E+03  0.10566000000E+00 0. -1.
        -14    1    4    4    0    0  0.89454971131E+01 -0.16936325095E+02 -0.38042881063E+03  0.38091067323E+03  0.00000000000E+00 0.  1.
<mgrwt>
<rscale>  0 0.82885860E+02</rscale>
<asrwt>0</asrwt>
<pdfrwt beam="1">  1        1 0.28911540E-03 0.82885860E+02</pdfrwt>
<pdfrwt beam="2">  1       -2 0.14060571E+00 0.82885860E+02</pdfrwt>
<totfact> 0.26346249E+04</totfact>
</mgrwt>
</event>
<event>
 8    1  0.1241100E-024  0.8069677E+02  0.7818608E-02  0.1327086E+00
         -2   -1    0    0    0  501 -0.00000000000E+00  0.00000000000E+00  0.65897855874E+01  0.65897860808E+01  0.25500000000E-02 0.  1.
          1   -1    0    0  501    0  0.00000000000E+00 -0.00000000000E+00 -0.24704783432E+03  0.24704783437E+03  0.50400000000E-02 0. -1.
        -24    2    1    2    0    0 -0.35527136788E-14  0.00000000000E+00 -0.24045804873E+03  0.25363762045E+03  0.80696773841E+02 0.  0.
         66    2    3    3    0    0  0.24276807797E+02  0.21938450455E+02 -0.46234361677E+02  0.56676937110E+02  0.19999988205E+01 0.  0.
         13    1    3    3    0    0 -0.24276807797E+02 -0.21938450455E+02 -0.19422368705E+03  0.19696068334E+03  0.10566000000E+00 0. -1.
         13    1    4    4    0    0  0.43461900834E+01  0.40522673695E+01 -0.95044585404E+01  0.11209644743E+02  0.10566000000E+00 0. -1.
        -13    1    4    4    0    0  0.11098442664E+02  0.10590680836E+02 -0.21323004455E+02  0.26268224781E+02  0.10566000000E+00 0.  1.
        -14    1    4    4    0    0  0.88321750495E+01  0.72955022496E+01 -0.15406898682E+02  0.19199067586E+02  0.00000000000E+00 0.  1.
<mgrwt>
<rscale>  0 0.80696774E+02</rscale>
<asrwt>0</asrwt>
<pdfrwt beam="1">  1        1 0.38007352E-01 0.80696774E+02</pdfrwt>
<pdfrwt beam="2">  1       -2 0.10138134E-02 0.80696774E+02</pdfrwt>
<totfact> 0.16980888E+05</totfact>
</mgrwt>
</event>
<event>
 8    1  0.1241100E-024  0.8081734E+02  0.7818608E-02  0.1326748E+00
          1   -1    0    0  501    0  0.00000000000E+00  0.00000000000E+00  0.16796982995E+02  0.16796983751E+02  0.50400000000E-02 0. -1.
         -2   -1    0    0    0  501 -0.00000000000E+00 -0.00000000000E+00 -0.97211542923E+02  0.97211542957E+02  0.25500000000E-02 0.  1.
        -24    2    1    2    0    0  0.00000000000E+00  0.13877787808E-16 -0.80414559929E+02  0.11400852671E+03  0.80817341663E+02 0.  0.
         66    2    3    3    0    0 -0.33908415951E+02 -0.68935319351E-01 -0.92906433258E+01  0.35215074560E+02  0.19999996135E+01 0.  0.
         13    1    3    3    0    0  0.33908415951E+02  0.68935319351E-01 -0.71123916603E+02  0.78793452148E+02  0.10566000000E+00 0. -1.
         13    1    4    4    0    0 -0.12314471649E+01 -0.18338142151E+00 -0.13851030716E+00  0.12571555220E+01  0.10566000000E+00 0. -1.
        -13    1    4    4    0    0 -0.13796592125E+02 -0.15684576415E+00 -0.44680672459E+01  0.14503287345E+02  0.10566000000E+00 0.  1.
         14    1    4    4    0    0 -0.18880376662E+02  0.27129186631E+00 -0.46840657727E+01  0.19454631693E+02  0.00000000000E+00 0. -1.
<mgrwt>
<rscale>  0 0.80817342E+02</rscale>
<asrwt>0</asrwt>
<pdfrwt beam="1">  1        1 0.25841514E-02 0.80817342E+02</pdfrwt>
<pdfrwt beam="2">  1       -2 0.14955622E-01 0.80817342E+02</pdfrwt>
<totfact> 0.10412529E+05</totfact>
</mgrwt>
</event>
<event>
 8    1  0.1241100E-024  0.7895735E+02  0.7818608E-02  0.1332037E+00
         -2   -1    0    0    0  501 -0.00000000000E+00  0.00000000000E+00  0.29090260250E+02  0.29090260361E+02  0.25500000000E-02 0.  1.
          1   -1    0    0  501    0  0.00000000000E+00 -0.00000000000E+00 -0.53576888887E+02  0.53576889124E+02  0.50400000000E-02 0. -1.
        -24    2    1    2    0    0  0.00000000000E+00  0.00000000000E+00 -0.24486628637E+02  0.82667149485E+02  0.78957346853E+02 0.  0.
         66    2    3    3    0    0  0.35224590666E+02  0.32647337095E+01  0.60375666499E+01  0.35942766817E+02  0.20000004201E+01 0.  0.
         13    1    3    3    0    0 -0.35224590666E+02 -0.32647337095E+01 -0.30524195287E+02  0.46724382668E+02  0.10566000000E+00 0. -1.
         13    1    4    4    0    0  0.24293781116E+02  0.15104443568E+01  0.42745094892E+01  0.24713393908E+02  0.10566000000E+00 0. -1.
        -13    1    4    4    0    0  0.53363028668E+01  0.73888991725E+00  0.55701503226E+00  0.54169656061E+01  0.10566000000E+00 0.  1.
         14    1    4    4    0    0  0.55945066830E+01  0.10153994355E+01  0.12060421284E+01  0.58124073029E+01  0.00000000000E+00 0. -1.
<mgrwt>
<rscale>  0 0.78957347E+02</rscale>
<asrwt>0</asrwt>
<pdfrwt beam="1">  1        1 0.82425984E-02 0.78957347E+02</pdfrwt>
<pdfrwt beam="2">  1       -2 0.44754247E-02 0.78957347E+02</pdfrwt>
<totfact> 0.13792573E+05</totfact>
</mgrwt>
</event>
<event>
 8    1  0.1241100E-024  0.7909966E+02  0.7818608E-02  0.1331626E+00
         -2   -1    0    0    0  501 -0.00000000000E+00  0.00000000000E+00  0.13729813589E+02  0.13729813825E+02  0.25500000000E-02 0.  1.
          1   -1    0    0  501    0  0.00000000000E+00 -0.00000000000E+00 -0.11392645844E+03  0.11392645855E+03  0.50400000000E-02 0. -1.
        -24    2    1    2    0    0  0.00000000000E+00  0.00000000000E+00 -0.10019664485E+03  0.12765627237E+03  0.79099660161E+02 0.  0.
         66    2    3    3    0    0 -0.85401314737E+01 -0.35408765786E+02 -0.74895067363E+02  0.83306576463E+02  0.20000066542E+01 0.  0.
         13    1    3    3    0    0  0.85401314737E+01  0.35408765786E+02 -0.25301577486E+02  0.44349695911E+02  0.10566000000E+00 0. -1.
         13    1    4    4    0    0 -0.10450573999E+01 -0.35214518507E+01 -0.88800736899E+01  0.96103923375E+01  0.10566000000E+00 0. -1.
        -13    1    4    4    0    0 -0.72192863111E+01 -0.30969615503E+02 -0.64157824516E+02  0.71606373947E+02  0.10566000000E+00 0.  1.
        -14    1    4    4    0    0 -0.27578776274E+00 -0.91769843256E+00 -0.18571691575E+01  0.20898101787E+01  0.00000000000E+00 0.  1.
<mgrwt>
<rscale>  0 0.79099660E+02</rscale>
<asrwt>0</asrwt>
<pdfrwt beam="1">  1        1 0.17527147E-01 0.79099660E+02</pdfrwt>
<pdfrwt beam="2">  1       -2 0.21122791E-02 0.79099660E+02</pdfrwt>
<totfact> 0.15494437E+05</totfact>
</mgrwt>
</event>
<event>
 8    1  0.1241100E-024  0.7909574E+02  0.7818608E-02  0.1331637E+00
          1   -1    0    0  501    0  0.00000000000E+00  0.00000000000E+00  0.42418800659E+02  0.42418800958E+02  0.50400000000E-02 0. -1.
         -2   -1    0    0    0  501 -0.00000000000E+00 -0.00000000000E+00 -0.36871247091E+02  0.36871247180E+02  0.25500000000E-02 0.  1.
        -24    2    1    2    0    0 -0.88817841970E-15 -0.35527136788E-14  0.55475535672E+01  0.79290048138E+02  0.79095741877E+02 0.  0.
         66    2    3    3    0    0  0.50927642342E+01 -0.21663211741E+02 -0.29966567906E+02  0.37379488865E+02  0.20000013243E+01 0.  0.
         13    1    3    3    0    0 -0.50927642342E+01  0.21663211741E+02  0.35514121473E+02  0.41910559272E+02  0.10566000000E+00 0. -1.
         13    1    4    4    0    0  0.17987141174E+01 -0.46768200784E+01 -0.62553576446E+01  0.80155275447E+01  0.10566000000E+00 0. -1.
        -13    1    4    4    0    0  0.16294333649E+01 -0.74804228331E+01 -0.99070936827E+01  0.12520920418E+02  0.10566000000E+00 0.  1.
         14    1    4    4    0    0  0.16646167520E+01 -0.95059688290E+01 -0.13804116579E+02  0.16843040902E+02  0.00000000000E+00 0. -1.
<mgrwt>
<rscale>  0 0.79095742E+02</rscale>
<asrwt>0</asrwt>
<pdfrwt beam="1">  1        1 0.65259694E-02 0.79095742E+02</pdfrwt>
<pdfrwt beam="2">  1       -2 0.56724996E-02 0.79095742E+02</pdfrwt>
<totfact> 0.13233605E+05</totfact>
</mgrwt>
</event>
<event>
 8    1  0.1241100E-024  0.8149064E+02  0.7818608E-02  0.1324874E+00
         -2   -1    0    0    0  501 -0.00000000000E+00  0.00000000000E+00  0.88491723991E+02  0.88491724028E+02  0.25500000000E-02 0.  1.
          1   -1    0    0  501    0  0.00000000000E+00 -0.00000000000E+00 -0.18760862474E+02  0.18760863151E+02  0.50400000000E-02 0. -1.
        -24    2    1    2    0    0  0.00000000000E+00  0.00000000000E+00  0.69730861518E+02  0.10725258718E+03  0.81490640006E+02 0.  0.
         66    2    3    3    0    0  0.20398556168E+02  0.31443070468E+02  0.55837650443E+02  0.67280093484E+02  0.19999995117E+01 0.  0.
         13    1    3    3    0    0 -0.20398556168E+02 -0.31443070468E+02  0.13893211075E+02  0.39972493695E+02  0.10566000000E+00 0. -1.
         13    1    4    4    0    0  0.68980892496E+01  0.11810257036E+02  0.20065201299E+02  0.24283518562E+02  0.10566000000E+00 0. -1.
        -13    1    4    4    0    0  0.37530485006E+01  0.49282454670E+01  0.85954658351E+01  0.10595573292E+02  0.10566000000E+00 0.  1.
        -14    1    4    4    0    0  0.97474184179E+01  0.14704567965E+02  0.27176983309E+02  0.32401001630E+02  0.00000000000E+00 0.  1.
<mgrwt>
<rscale>  0 0.81490640E+02</rscale>
<asrwt>0</asrwt>
<pdfrwt beam="1">  1        1 0.28862866E-02 0.81490640E+02</pdfrwt>
<pdfrwt beam="2">  1       -2 0.13614112E-01 0.81490640E+02</pdfrwt>
<totfact> 0.10424131E+05</totfact>
</mgrwt>
</event>
<event>
 8    1  0.1241100E-024  0.8047469E+02  0.7818608E-02  0.1327710E+00
         -2   -1    0    0    0  501 -0.00000000000E+00  0.00000000000E+00  0.85845782919E+01  0.85845786706E+01  0.25500000000E-02 0.  1.
          1   -1    0    0  501    0  0.00000000000E+00 -0.00000000000E+00 -0.18859910789E+03  0.18859910796E+03  0.50400000000E-02 0. -1.
        -24    2    1    2    0    0 -0.71054273576E-14  0.00000000000E+00 -0.18001452960E+03  0.19718368663E+03  0.80474687983E+02 0.  0.
         66    2    3    3    0    0 -0.35514468024E+02 -0.18335223737E+02 -0.79220208724E+02  0.88754151201E+02  0.20000041374E+01 0.  0.
         13    1    3    3    0    0  0.35514468024E+02  0.18335223737E+02 -0.10079432088E+03  0.10842953543E+03  0.10566000000E+00 0. -1.
         13    1    4    4    0    0 -0.56854694312E+01 -0.36160410868E+01 -0.13089133993E+02  0.14721987247E+02  0.10566000000E+00 0. -1.
        -13    1    4    4    0    0 -0.14821216158E+02 -0.72608782493E+01 -0.31707726438E+02  0.35746047072E+02  0.10566000000E+00 0.  1.
        -14    1    4    4    0    0 -0.15007782435E+02 -0.74583044009E+01 -0.34423348293E+02  0.38286116882E+02  0.00000000000E+00 0.  1.
<mgrwt>
<rscale>  0 0.80474688E+02</rscale>
<asrwt>0</asrwt>
<pdfrwt beam="1">  1        1 0.29015244E-01 0.80474688E+02</pdfrwt>
<pdfrwt beam="2">  1       -2 0.13207045E-02 0.80474688E+02</pdfrwt>
<totfact> 0.16228331E+05</totfact>
</mgrwt>
</event>
<event>
 8    1  0.1241100E-024  0.8089101E+02  0.7818608E-02  0.1326542E+00
         -2   -1    0    0    0  501 -0.00000000000E+00  0.00000000000E+00  0.10505403485E+03  0.10505403488E+03  0.25500000000E-02 0.  1.
          1   -1    0    0  501    0  0.00000000000E+00 -0.00000000000E+00 -0.15571405633E+02  0.15571406449E+02  0.50400000000E-02 0. -1.
        -24    2    1    2    0    0  0.00000000000E+00  0.00000000000E+00  0.89482629217E+02  0.12062544133E+03  0.80891014115E+02 0.  0.
         66    2    3    3    0    0  0.43716320750E+01 -0.15050180694E+02  0.10032919773E+03  0.10156557988E+03  0.19999982538E+01 0.  0.
         13    1    3    3    0    0 -0.43716320750E+01  0.15050180694E+02 -0.10846568515E+02  0.19059861450E+02  0.10566000000E+00 0. -1.
         13    1    4    4    0    0  0.18024217365E+01 -0.60336527892E+01  0.36239244498E+02  0.36782437329E+02  0.10566000000E+00 0. -1.
        -13    1    4    4    0    0  0.16797825725E+01 -0.74779476919E+01  0.53120311988E+02  0.53670476809E+02  0.10566000000E+00 0.  1.
         14    1    4    4    0    0  0.88942776597E+00 -0.15385802126E+01  0.10969641247E+02  0.11112665742E+02  0.00000000000E+00 0. -1.
<mgrwt>
<rscale>  0 0.80891014E+02</rscale>
<asrwt>0</asrwt>
<pdfrwt beam="1">  1        1 0.23956009E-02 0.80891014E+02</pdfrwt>
<pdfrwt beam="2">  1       -2 0.16162159E-01 0.80891014E+02</pdfrwt>
<totfact> 0.10188300E+05</totfact>
</mgrwt>
</event>
<event>
 8    1  0.1241100E-024  0.7998154E+02  0.7818608E-02  0.1329104E+00
         -2   -1    0    0    0  501 -0.00000000000E+00  0.00000000000E+00  0.17236641887E+02  0.17236642075E+02  0.25500000000E-02 0.  1.
          1   -1    0    0  501    0  0.00000000000E+00 -0.00000000000E+00 -0.92782666520E+02  0.92782666657E+02  0.50400000000E-02 0. -1.
        -24    2    1    2    0    0  0.00000000000E+00  0.00000000000E+00 -0.75546024633E+02  0.11001930873E+03  0.79981538220E+02 0.  0.
         66    2    3    3    0    0  0.39160449834E+02 -0.45545300730E+01 -0.28779352406E+02  0.48852182181E+02  0.20000008890E+01 0.  0.
         13    1    3    3    0    0 -0.39160449834E+02  0.45545300730E+01 -0.46766672227E+02  0.61167126552E+02  0.10566000000E+00 0. -1.
         13    1    4    4    0    0  0.92894127152E+01 -0.61255059711E+00 -0.60464504102E+01  0.11101312239E+02  0.10566000000E+00 0. -1.
        -13    1    4    4    0    0  0.12423132643E+02 -0.14078310995E+01 -0.91055719713E+01  0.15467346832E+02  0.10566000000E+00 0.  1.
         14    1    4    4    0    0  0.17447904475E+02 -0.25341483764E+01 -0.13627330025E+02  0.22283523110E+02  0.00000000000E+00 0. -1.
<mgrwt>
<rscale>  0 0.79981538E+02</rscale>
<asrwt>0</asrwt>
<pdfrwt beam="1">  1        1 0.14274256E-01 0.79981538E+02</pdfrwt>
<pdfrwt beam="2">  1       -2 0.26517911E-02 0.79981538E+02</pdfrwt>
<totfact> 0.14525599E+05</totfact>
</mgrwt>
</event>
<event>
 8    1  0.1241100E-024  0.8142341E+02  0.7818608E-02  0.1325060E+00
          1   -1    0    0  501    0  0.00000000000E+00  0.00000000000E+00  0.24772342790E+02  0.24772343302E+02  0.50400000000E-02 0. -1.
         -2   -1    0    0    0  501 -0.00000000000E+00 -0.00000000000E+00 -0.66906987727E+02  0.66906987776E+02  0.25500000000E-02 0.  1.
        -24    2    1    2    0    0 -0.35527136788E-14  0.00000000000E+00 -0.42134644937E+02  0.91679331078E+02  0.81423408446E+02 0.  0.
         66    2    3    3    0    0  0.21339354461E+02  0.28909170956E+02 -0.42571631219E+02  0.55744524341E+02  0.19999988056E+01 0.  0.
         13    1    3    3    0    0 -0.21339354461E+02 -0.28909170956E+02  0.43698628164E+00  0.35934806737E+02  0.10566000000E+00 0. -1.
         13    1    4    4    0    0  0.75353519470E+01  0.99094621739E+01 -0.15585575061E+02  0.19947438020E+02  0.10566000000E+00 0. -1.
        -13    1    4    4    0    0  0.43135046786E+01  0.62710628576E+01 -0.96108151103E+01  0.12260158363E+02  0.10566000000E+00 0.  1.
         14    1    4    4    0    0  0.94904978354E+01  0.12728645924E+02 -0.17375241048E+02  0.23536927958E+02  0.00000000000E+00 0. -1.
<mgrwt>
<rscale>  0 0.81423408E+02</rscale>
<asrwt>0</asrwt>
<pdfrwt beam="1">  1        1 0.38111297E-02 0.81423408E+02</pdfrwt>
<pdfrwt beam="2">  1       -2 0.10293383E-01 0.81423408E+02</pdfrwt>
<totfact> 0.11087274E+05</totfact>
</mgrwt>
</event>
<event>
 8    1  0.1241100E-024  0.8064526E+02  0.7818608E-02  0.1327230E+00
         -2   -1    0    0    0  501 -0.00000000000E+00  0.00000000000E+00  0.55699198801E+01  0.55699204638E+01  0.25500000000E-02 0.  1.
          1   -1    0    0  501    0  0.00000000000E+00 -0.00000000000E+00 -0.29190982063E+03  0.29190982067E+03  0.50400000000E-02 0. -1.
        -24    2    1    2    0    0 -0.17763568394E-14  0.00000000000E+00 -0.28633990075E+03  0.29747974114E+03  0.80645257924E+02 0.  0.
         66    2    3    3    0    0  0.12697643880E+02 -0.31197124962E+02 -0.22486314519E+03  0.22738057278E+03  0.20000119127E+01 0.  0.
         13    1    3    3    0    0 -0.12697643880E+02  0.31197124962E+02 -0.61476755560E+02  0.70099168356E+02  0.10566000000E+00 0. -1.
         13    1    4    4    0    0  0.21838999014E+01 -0.48190411790E+01 -0.35604077090E+02  0.35995194764E+02  0.10566000000E+00 0. -1.
        -13    1    4    4    0    0  0.15568371494E+01 -0.36909292402E+01 -0.22956716039E+02  0.23303833932E+02  0.10566000000E+00 0.  1.
        -14    1    4    4    0    0  0.89569068287E+01 -0.22687154543E+02 -0.16630235206E+03  0.16808154408E+03  0.00000000000E+00 0.  1.
<mgrwt>
<rscale>  0 0.80645258E+02</rscale>
<asrwt>0</asrwt>
<pdfrwt beam="1">  1        1 0.44909191E-01 0.80645258E+02</pdfrwt>
<pdfrwt beam="2">  1       -2 0.85691103E-03 0.80645258E+02</pdfrwt>
<totfact> 0.17571186E+05</totfact>
</mgrwt>
</event>
<event>
 8    1  0.1241100E-024  0.7899965E+02  0.7818608E-02  0.1331914E+00
          1   -1    0    0  501    0  0.00000000000E+00  0.00000000000E+00  0.51246143741E+02  0.51246143989E+02  0.50400000000E-02 0. -1.
         -2   -1    0    0    0  501 -0.00000000000E+00 -0.00000000000E+00 -0.30445923122E+02  0.30445923229E+02  0.25500000000E-02 0.  1.
        -24    2    1    2    0    0  0.17763568394E-14  0.00000000000E+00  0.20800220619E+02  0.81692067217E+02  0.78999649800E+02 0.  0.
         66    2    3    3    0    0 -0.66667209611E+01  0.18783685494E+02 -0.24827344092E+02  0.31900925088E+02  0.19999994291E+01 0.  0.
         13    1    3    3    0    0  0.66667209611E+01 -0.18783685494E+02  0.45627564710E+02  0.49791142129E+02  0.10566000000E+00 0. -1.
         13    1    4    4    0    0 -0.30053092604E-01  0.51151234059E+00 -0.69215919895E+00  0.86763843578E+00  0.10566000000E+00 0.  1.
        -13    1    4    4    0    0 -0.15483942116E+01  0.32534967041E+01 -0.36776453835E+01  0.51496606724E+01  0.10566000000E+00 0.  1.
         14    1    4    4    0    0 -0.50882736569E+01  0.15018676450E+02 -0.20457539509E+02  0.25883625980E+02  0.00000000000E+00 0. -1.
<mgrwt>
<rscale>  0 0.78999650E+02</rscale>
<asrwt>0</asrwt>
<pdfrwt beam="1">  1        1 0.78840221E-02 0.78999650E+02</pdfrwt>
<pdfrwt beam="2">  1       -2 0.46839882E-02 0.78999650E+02</pdfrwt>
<totfact> 0.13677478E+05</totfact>
</mgrwt>
</event>
<event>
 8    1  0.1241100E-024  0.7925255E+02  0.7818608E-02  0.1331186E+00
          1   -1    0    0  501    0  0.00000000000E+00  0.00000000000E+00  0.24755426163E+01  0.24755477468E+01  0.50400000000E-02 0. -1.
         -2   -1    0    0    0  501 -0.00000000000E+00 -0.00000000000E+00 -0.63430139469E+03  0.63430139470E+03  0.25500000000E-02 0.  1.
        -24    2    1    2    0    0 -0.44408920985E-15  0.00000000000E+00 -0.63182585208E+03  0.63677694244E+03  0.79252552495E+02 0.  0.
         66    2    3    3    0    0  0.30503988369E+01 -0.27715395167E+02 -0.54205937351E+03  0.54277970897E+03  0.19999997585E+01 0.  0.
         13    1    3    3    0    0 -0.30503988369E+01  0.27715395167E+02 -0.89766478571E+02  0.93997233477E+02  0.10566000000E+00 0. -1.
         13    1    4    4    0    0  0.47018493265E-01 -0.27068788302E+00 -0.85520203085E+01  0.85570846707E+01  0.10566000000E+00 0.  1.
        -13    1    4    4    0    0  0.29213089249E+01 -0.24047676302E+02 -0.47301510751E+03  0.47363501547E+03  0.10566000000E+00 0.  1.
        -14    1    4    4    0    0  0.82071418783E-01 -0.33970309821E+01 -0.60492245689E+02  0.60587608830E+02  0.00000000000E+00 0.  1.
<mgrwt>
<rscale>  0 0.79252552E+02</rscale>
<asrwt>0</asrwt>
<pdfrwt beam="1">  1        1 0.38085361E-03 0.79252552E+02</pdfrwt>
<pdfrwt beam="2">  1       -2 0.97584700E-01 0.79252552E+02</pdfrwt>
<totfact> 0.42430405E+04</totfact>
</mgrwt>
</event>
<event>
 8    1  0.1241100E-024  0.8106852E+02  0.7818608E-02  0.1326046E+00
          1   -1    0    0  501    0  0.00000000000E+00  0.00000000000E+00  0.10915574670E+03  0.10915574682E+03  0.50400000000E-02 0. -1.
         -2   -1    0    0    0  501 -0.00000000000E+00 -0.00000000000E+00 -0.15052126850E+02  0.15052127066E+02  0.25500000000E-02 0.  1.
        -24    2    1    2    0    0  0.00000000000E+00  0.88817841970E-15  0.94103619850E+02  0.12420787388E+03  0.81068518337E+02 0.  0.
         66    2    3    3    0    0 -0.37480443920E+02  0.62718227049E+01  0.25581200104E+02  0.45853214745E+02  0.20000167974E+01 0.  0.
         13    1    3    3    0    0  0.37480443920E+02 -0.62718227049E+01  0.68522419745E+02  0.78354659136E+02  0.10566000000E+00 0. -1.
         13    1    4    4    0    0 -0.22274002453E+02  0.31907273425E+01  0.15852095747E+02  0.27524753039E+02  0.10566000000E+00 0. -1.
        -13    1    4    4    0    0 -0.69851183922E+01  0.11495570303E+01  0.41433069539E+01  0.82031406710E+01  0.10566000000E+00 0.  1.
         14    1    4    4    0    0 -0.82213230757E+01  0.19315383322E+01  0.55857974034E+01  0.10125321036E+02  0.00000000000E+00 0. -1.
<mgrwt>
<rscale>  0 0.81068518E+02</rscale>
<asrwt>0</asrwt>
<pdfrwt beam="1">  1        1 0.16793191E-01 0.81068518E+02</pdfrwt>
<pdfrwt beam="2">  1       -2 0.23157119E-02 0.81068518E+02</pdfrwt>
<totfact> 0.14394869E+05</totfact>
</mgrwt>
</event>
<event>
 8    1  0.1241100E-024  0.7952972E+02  0.7818608E-02  0.1330391E+00
         -2   -1    0    0    0  501 -0.00000000000E+00  0.00000000000E+00  0.98823073233E+02  0.98823073266E+02  0.25500000000E-02 0.  1.
          1   -1    0    0  501    0  0.00000000000E+00 -0.00000000000E+00 -0.16000756119E+02  0.16000756912E+02  0.50400000000E-02 0. -1.
        -24    2    1    2    0    0  0.00000000000E+00  0.00000000000E+00  0.82822317115E+02  0.11482383018E+03  0.79529716236E+02 0.  0.
         66    2    3    3    0    0 -0.19064252900E+02 -0.55029316961E+01  0.91148605174E+02  0.93304856393E+02  0.20000013692E+01 0.  0.
         13    1    3    3    0    0  0.19064252900E+02  0.55029316961E+01 -0.83262880592E+01  0.21518973785E+02  0.10566000000E+00 0. -1.
         13    1    4    4    0    0 -0.67524616209E+01 -0.20408877201E+01  0.30192695870E+02  0.31005983432E+02  0.10566000000E+00 0. -1.
        -13    1    4    4    0    0 -0.10525884415E+02 -0.26398728509E+01  0.53380621144E+02  0.54472608246E+02  0.10566000000E+00 0.  1.
        -14    1    4    4    0    0 -0.17859068644E+01 -0.82217112509E+00  0.75752881596E+01  0.78262647150E+01  0.00000000000E+00 0.  1.
<mgrwt>
<rscale>  0 0.79529716E+02</rscale>
<asrwt>0</asrwt>
<pdfrwt beam="1">  1        1 0.24616549E-02 0.79529716E+02</pdfrwt>
<pdfrwt beam="2">  1       -2 0.15203549E-01 0.79529716E+02</pdfrwt>
<totfact> 0.10805694E+05</totfact>
</mgrwt>
</event>
<event>
 8    1  0.1241100E-024  0.8084790E+02  0.7818608E-02  0.1326662E+00
          1   -1    0    0  501    0  0.00000000000E+00  0.00000000000E+00  0.15247783230E+03  0.15247783238E+03  0.50400000000E-02 0. -1.
         -2   -1    0    0    0  501 -0.00000000000E+00 -0.00000000000E+00 -0.10716940367E+02  0.10716940671E+02  0.25500000000E-02 0.  1.
        -24    2    1    2    0    0  0.35527136788E-14 -0.35527136788E-14  0.14176089193E+03  0.16319477305E+03  0.80847903315E+02 0.  0.
         66    2    3    3    0    0  0.27787806930E+02 -0.29235847019E+02  0.75523998862E+02  0.85643279628E+02  0.19999940824E+01 0.  0.
         13    1    3    3    0    0 -0.27787806930E+02  0.29235847019E+02  0.66236893069E+02  0.77551493425E+02  0.10566000000E+00 0. -1.
         13    1    4    4    0    0  0.13313179712E+02 -0.14405026964E+02  0.38643109515E+02  0.43336435397E+02  0.10566000000E+00 0. -1.
        -13    1    4    4    0    0  0.67773463870E+01 -0.70776974791E+01  0.17824171085E+02  0.20340562051E+02  0.10566000000E+00 0.  1.
         14    1    4    4    0    0  0.76972808307E+01 -0.77531225759E+01  0.19056718262E+02  0.21966282179E+02  0.00000000000E+00 0. -1.
<mgrwt>
<rscale>  0 0.80847903E+02</rscale>
<asrwt>0</asrwt>
<pdfrwt beam="1">  1        1 0.23458128E-01 0.80847903E+02</pdfrwt>
<pdfrwt beam="2">  1       -2 0.16487601E-02 0.80847903E+02</pdfrwt>
<totfact> 0.15396317E+05</totfact>
</mgrwt>
</event>
<event>
 8    1  0.1241100E-024  0.7597427E+02  0.7818608E-02  0.1340880E+00
         -2   -1    0    0    0  501 -0.00000000000E+00  0.00000000000E+00  0.90275952345E+01  0.90275955946E+01  0.25500000000E-02 0.  1.
          1   -1    0    0  501    0  0.00000000000E+00 -0.00000000000E+00 -0.15984571308E+03  0.15984571316E+03  0.50400000000E-02 0. -1.
        -24    2    1    2    0    0  0.00000000000E+00 -0.27755575616E-16 -0.15081811785E+03  0.16887330876E+03  0.75974270244E+02 0.  0.
         66    2    3    3    0    0  0.37655545758E+02  0.13639498329E+00 -0.64787521295E+02  0.74962534948E+02  0.20000000926E+01 0.  0.
         13    1    3    3    0    0 -0.37655545758E+02 -0.13639498329E+00 -0.86030596552E+02  0.93910773808E+02  0.10566000000E+00 0. -1.
         13    1    4    4    0    0  0.18420551662E+02 -0.13627820947E+00 -0.33015047717E+02  0.37806610997E+02  0.10566000000E+00 0. -1.
        -13    1    4    4    0    0  0.84174414719E+01 -0.66177217695E-01 -0.14786670356E+02  0.17015125172E+02  0.10566000000E+00 0.  1.
        -14    1    4    4    0    0  0.10817552624E+02  0.33885041045E+00 -0.16985803221E+02  0.20140798779E+02  0.00000000000E+00 0.  1.
<mgrwt>
<rscale>  0 0.75974270E+02</rscale>
<asrwt>0</asrwt>
<pdfrwt beam="1">  1        1 0.24591646E-01 0.75974270E+02</pdfrwt>
<pdfrwt beam="2">  1       -2 0.13888610E-02 0.75974270E+02</pdfrwt>
<totfact> 0.18327962E+05</totfact>
</mgrwt>
</event>
<event>
 8    1  0.1241100E-024  0.7985384E+02  0.7818608E-02  0.1329467E+00
          1   -1    0    0  501    0  0.00000000000E+00  0.00000000000E+00  0.15749634067E+02  0.15749634873E+02  0.50400000000E-02 0. -1.
         -2   -1    0    0    0  501 -0.00000000000E+00 -0.00000000000E+00 -0.10121879024E+03  0.10121879027E+03  0.25500000000E-02 0.  1.
        -24    2    1    2    0    0 -0.17763568394E-14 -0.71054273576E-14 -0.85469156171E+02  0.11696842514E+03  0.79853840384E+02 0.  0.
         66    2    3    3    0    0 -0.11764888133E+02 -0.33714774089E+02 -0.68843282114E+02  0.77578966695E+02  0.19999991635E+01 0.  0.
         13    1    3    3    0    0  0.11764888133E+02  0.33714774089E+02 -0.16625874057E+02  0.39389458448E+02  0.10566000000E+00 0. -1.
         13    1    4    4    0    0 -0.88665769479E-01 -0.64218532113E+00 -0.14869489332E+01  0.16255598331E+01  0.10566000000E+00 0.  1.
        -13    1    4    4    0    0 -0.71709410721E+01 -0.20713715329E+02 -0.40669161589E+02  0.46200349209E+02  0.10566000000E+00 0.  1.
        -14    1    4    4    0    0 -0.45052812913E+01 -0.12358873439E+02 -0.26687171591E+02  0.29753057654E+02  0.00000000000E+00 0.  1.
<mgrwt>
<rscale>  0 0.79853840E+02</rscale>
<asrwt>0</asrwt>
<pdfrwt beam="1">  1        1 0.24230208E-02 0.79853840E+02</pdfrwt>
<pdfrwt beam="2">  1       -2 0.15572121E-01 0.79853840E+02</pdfrwt>
<totfact> 0.10630427E+05</totfact>
</mgrwt>
</event>
<event>
 8    1  0.1241100E-024  0.7519636E+02  0.7818608E-02  0.1343264E+00
         -2   -1    0    0    0  501 -0.00000000000E+00  0.00000000000E+00  0.18980325634E+03  0.18980325636E+03  0.25500000000E-02 0.  1.
          1   -1    0    0  501    0  0.00000000000E+00 -0.00000000000E+00 -0.74478333243E+01  0.74478350296E+01  0.50400000000E-02 0. -1.
        -24    2    1    2    0    0  0.00000000000E+00  0.00000000000E+00  0.18235542302E+03  0.19725109139E+03  0.75196361282E+02 0.  0.
         66    2    3    3    0    0  0.35686463829E+02 -0.87254978371E+01  0.11189009407E+03  0.11778391728E+03  0.20000014149E+01 0.  0.
         13    1    3    3    0    0 -0.35686463829E+02  0.87254978371E+01  0.70465328948E+02  0.79467174109E+02  0.10566000000E+00 0. -1.
         13    1    4    4    0    0  0.11286784967E+02 -0.30930633143E+01  0.38016487616E+02  0.39777167448E+02  0.10566000000E+00 0. -1.
        -13    1    4    4    0    0  0.17756263643E+02 -0.42194251426E+01  0.54885088126E+02  0.57840059731E+02  0.10566000000E+00 0.  1.
         14    1    4    4    0    0  0.66434152196E+01 -0.14130093802E+01  0.18988518327E+02  0.20166690099E+02  0.00000000000E+00 0. -1.
<mgrwt>
<rscale>  0 0.75196361E+02</rscale>
<asrwt>0</asrwt>
<pdfrwt beam="1">  1        1 0.11458205E-02 0.75196361E+02</pdfrwt>
<pdfrwt beam="2">  1       -2 0.29200505E-01 0.75196361E+02</pdfrwt>
<totfact> 0.10187330E+05</totfact>
</mgrwt>
</event>
<event>
 8    1  0.1241100E-024  0.7884566E+02  0.7818608E-02  0.1332360E+00
          1   -1    0    0  501    0  0.00000000000E+00  0.00000000000E+00  0.10819634857E+02  0.10819636030E+02  0.50400000000E-02 0. -1.
         -2   -1    0    0    0  501 -0.00000000000E+00 -0.00000000000E+00 -0.14364248722E+03  0.14364248724E+03  0.25500000000E-02 0.  1.
        -24    2    1    2    0    0  0.00000000000E+00  0.00000000000E+00 -0.13282285236E+03  0.15446212327E+03  0.78845655657E+02 0.  0.
         66    2    3    3    0    0 -0.28263133152E+02 -0.17928758801E+02 -0.10716773329E+03  0.11229055244E+03  0.20000052464E+01 0.  0.
         13    1    3    3    0    0  0.28263133152E+02  0.17928758801E+02 -0.25655119071E+02  0.42171570830E+02  0.10566000000E+00 0. -1.
         13    1    4    4    0    0 -0.12229847126E+02 -0.88428456761E+01 -0.47879161542E+02  0.50201497531E+02  0.10566000000E+00 0. -1.
        -13    1    4    4    0    0 -0.12839209255E+02 -0.75121399531E+01 -0.47975351144E+02  0.50228707154E+02  0.10566000000E+00 0.  1.
         14    1    4    4    0    0 -0.31940767708E+01 -0.15737731722E+01 -0.11313220603E+02  0.11860347753E+02  0.00000000000E+00 0. -1.
<mgrwt>
<rscale>  0 0.78845656E+02</rscale>
<asrwt>0</asrwt>
<pdfrwt beam="1">  1        1 0.16645594E-02 0.78845656E+02</pdfrwt>
<pdfrwt beam="2">  1       -2 0.22098843E-01 0.78845656E+02</pdfrwt>
<totfact> 0.99493999E+04</totfact>
</mgrwt>
</event>
<event>
 8    1  0.1241100E-024  0.7772252E+02  0.7818608E-02  0.1335642E+00
          1   -1    0    0  501    0  0.00000000000E+00  0.00000000000E+00  0.48510980675E+02  0.48510980937E+02  0.50400000000E-02 0. -1.
         -2   -1    0    0    0  501 -0.00000000000E+00 -0.00000000000E+00 -0.31131041639E+02  0.31131041744E+02  0.25500000000E-02 0.  1.
        -24    2    1    2    0    0  0.00000000000E+00  0.00000000000E+00  0.17379939036E+02  0.79642022680E+02  0.77722516015E+02 0.  0.
         66    2    3    3    0    0 -0.12732440377E+02 -0.34102586939E+02 -0.51695805833E+01  0.36821543082E+02  0.19999994147E+01 0.  0.
         13    1    3    3    0    0  0.12732440377E+02  0.34102586939E+02  0.22549519619E+02  0.42820479598E+02  0.10566000000E+00 0. -1.
         13    1    4    4    0    0 -0.44231234051E+01 -0.97437471031E+01 -0.18443217239E+01  0.10858973935E+02  0.10566000000E+00 0. -1.
        -13    1    4    4    0    0 -0.40686806517E+01 -0.12283150872E+02 -0.20369794233E+01  0.13099252147E+02  0.10566000000E+00 0.  1.
         14    1    4    4    0    0 -0.42406363198E+01 -0.12075688964E+02 -0.12882794361E+01  0.12863317001E+02  0.00000000000E+00 0. -1.
<mgrwt>
<rscale>  0 0.77722516E+02</rscale>
<asrwt>0</asrwt>
<pdfrwt beam="1">  1        1 0.74632278E-02 0.77722516E+02</pdfrwt>
<pdfrwt beam="2">  1       -2 0.47893911E-02 0.77722516E+02</pdfrwt>
<totfact> 0.14189025E+05</totfact>
</mgrwt>
</event>
<event>
 8    1  0.1241100E-024  0.7988863E+02  0.7818608E-02  0.1329368E+00
         -2   -1    0    0    0  501 -0.00000000000E+00  0.00000000000E+00  0.22419182784E+03  0.22419182786E+03  0.25500000000E-02 0.  1.
          1   -1    0    0  501    0  0.00000000000E+00 -0.00000000000E+00 -0.71168871681E+01  0.71168889527E+01  0.50400000000E-02 0. -1.
        -24    2    1    2    0    0  0.00000000000E+00 -0.35527136788E-14  0.21707494067E+03  0.23130871681E+03  0.79888626245E+02 0.  0.
         66    2    3    3    0    0 -0.30788277384E+02  0.25386962132E+02  0.10553111543E+03  0.11284162440E+03  0.20000005111E+01 0.  0.
         13    1    3    3    0    0  0.30788277384E+02 -0.25386962132E+02  0.11154382524E+03  0.11846709241E+03  0.10566000000E+00 0. -1.
         13    1    4    4    0    0 -0.87826455405E+01  0.77890296255E+01  0.31529404631E+02  0.33643994495E+02  0.10566000000E+00 0. -1.
        -13    1    4    4    0    0 -0.16099774200E+02  0.13425574661E+02  0.56278588633E+02  0.60056136130E+02  0.10566000000E+00 0.  1.
        -14    1    4    4    0    0 -0.59058576433E+01  0.41723578455E+01  0.17723122167E+02  0.19141493773E+02  0.00000000000E+00 0.  1.
<mgrwt>
<rscale>  0 0.79888626E+02</rscale>
<asrwt>0</asrwt>
<pdfrwt beam="1">  1        1 0.10949058E-02 0.79888626E+02</pdfrwt>
<pdfrwt beam="2">  1       -2 0.34491053E-01 0.79888626E+02</pdfrwt>
<totfact> 0.81357353E+04</totfact>
</mgrwt>
</event>
<event>
 8    1  0.1241100E-024  0.7684767E+02  0.7818608E-02  0.1338243E+00
          1   -1    0    0  501    0  0.00000000000E+00  0.00000000000E+00  0.96150504555E+02  0.96150504687E+02  0.50400000000E-02 0. -1.
         -2   -1    0    0    0  501 -0.00000000000E+00 -0.00000000000E+00 -0.15355000298E+02  0.15355000510E+02  0.25500000000E-02 0.  1.
        -24    2    1    2    0    0  0.00000000000E+00  0.00000000000E+00  0.80795504257E+02  0.11150550520E+03  0.76847668677E+02 0.  0.
         66    2    3    3    0    0  0.41009825200E+01  0.34871385051E+02  0.17873651313E+02  0.39449955134E+02  0.19999989386E+01 0.  0.
         13    1    3    3    0    0 -0.41009825200E+01 -0.34871385051E+02  0.62921852943E+02  0.72055550063E+02  0.10566000000E+00 0. -1.
         13    1    4    4    0    0  0.16847671015E+00  0.38544825877E+01  0.14459888377E+01  0.41215856385E+01  0.10566000000E+00 0. -1.
        -13    1    4    4    0    0  0.36175933453E+01  0.29825488270E+02  0.15777674364E+02  0.33935127884E+02  0.10566000000E+00 0.  1.
        -14    1    4    4    0    0  0.31491246454E+00  0.11914141938E+01  0.64998811172E+00  0.13932416111E+01  0.00000000000E+00 0.  1.
<mgrwt>
<rscale>  0 0.76847669E+02</rscale>
<asrwt>0</asrwt>
<pdfrwt beam="1">  1        1 0.14792385E-01 0.76847669E+02</pdfrwt>
<pdfrwt beam="2">  1       -2 0.23623078E-02 0.76847669E+02</pdfrwt>
<totfact> 0.16276283E+05</totfact>
</mgrwt>
</event>
<event>
 8    1  0.1241100E-024  0.8249340E+02  0.7818608E-02  0.1322121E+00
         -2   -1    0    0    0  501 -0.00000000000E+00  0.00000000000E+00  0.50440804415E+02  0.50440804480E+02  0.25500000000E-02 0.  1.
          1   -1    0    0  501    0  0.00000000000E+00 -0.00000000000E+00 -0.33728448176E+02  0.33728448552E+02  0.50400000000E-02 0. -1.
        -24    2    1    2    0    0  0.35527136788E-14  0.00000000000E+00  0.16712356240E+02  0.84169253032E+02  0.82493395523E+02 0.  0.
         66    2    3    3    0    0 -0.28104819887E+02  0.23625935379E+02 -0.10760493382E+02  0.38312581175E+02  0.19999837679E+01 0.  0.
         13    1    3    3    0    0  0.28104819887E+02 -0.23625935379E+02  0.27472849621E+02  0.45856671857E+02  0.10566000000E+00 0. -1.
         13    1    4    4    0    0 -0.67500841201E+01  0.63671518115E+01 -0.20487955716E+01  0.95033144297E+01  0.10566000000E+00 0. -1.
        -13    1    4    4    0    0 -0.61944532300E+01  0.49712007315E+01 -0.23377958000E+01  0.82801292725E+01  0.10566000000E+00 0.  1.
         14    1    4    4    0    0 -0.15160282537E+02  0.12287582836E+02 -0.63739020102E+01  0.20529137473E+02  0.00000000000E+00 0. -1.
<mgrwt>
<rscale>  0 0.82493396E+02</rscale>
<asrwt>0</asrwt>
<pdfrwt beam="1">  1        1 0.51889921E-02 0.82493396E+02</pdfrwt>
<pdfrwt beam="2">  1       -2 0.77601238E-02 0.82493396E+02</pdfrwt>
<totfact> 0.11306222E+05</totfact>
</mgrwt>
</event>
<event>
 8    1  0.1241100E-024  0.8106926E+02  0.7818608E-02  0.1326044E+00
          1   -1    0    0  501    0  0.00000000000E+00  0.00000000000E+00  0.35850053816E+01  0.35850089244E+01  0.50400000000E-02 0. -1.
         -2   -1    0    0    0  501 -0.00000000000E+00 -0.00000000000E+00 -0.45831318042E+03  0.45831318042E+03  0.25500000000E-02 0.  1.
        -24    2    1    2    0    0  0.00000000000E+00  0.00000000000E+00 -0.45472817503E+03  0.46189818935E+03  0.81069255284E+02 0.  0.
         66    2    3    3    0    0 -0.63198776342E+01 -0.14034177170E+02 -0.44100172154E+03  0.44127476403E+03  0.19999971422E+01 0.  0.
         13    1    3    3    0    0  0.63198776342E+01  0.14034177170E+02 -0.13726453494E+02  0.20623425314E+02  0.10566000000E+00 0. -1.
         13    1    4    4    0    0 -0.25105569194E+00 -0.96830372685E+00 -0.42680517680E+02  0.42692369277E+02  0.10566000000E+00 0. -1.
        -13    1    4    4    0    0 -0.11623584975E+01 -0.21251509301E+01 -0.73327097120E+02  0.73367170314E+02  0.10566000000E+00 0.  1.
         14    1    4    4    0    0 -0.49064634447E+01 -0.10940722513E+02 -0.32499410674E+03  0.32521522444E+03  0.00000000000E+00 0. -1.
<mgrwt>
<rscale>  0 0.81069255E+02</rscale>
<asrwt>0</asrwt>
<pdfrwt beam="1">  1        1 0.55153993E-03 0.81069255E+02</pdfrwt>
<pdfrwt beam="2">  1       -2 0.70509674E-01 0.81069255E+02</pdfrwt>
<totfact> 0.51955292E+04</totfact>
</mgrwt>
</event>
<event>
 8    1  0.1241100E-024  0.8021616E+02  0.7818608E-02  0.1328439E+00
          1   -1    0    0  501    0  0.00000000000E+00  0.00000000000E+00  0.20114413281E+02  0.20114413912E+02  0.50400000000E-02 0. -1.
         -2   -1    0    0    0  501 -0.00000000000E+00 -0.00000000000E+00 -0.79975397992E+02  0.79975398033E+02  0.25500000000E-02 0.  1.
        -24    2    1    2    0    0  0.00000000000E+00  0.00000000000E+00 -0.59860984711E+02  0.10008981194E+03  0.80216163985E+02 0.  0.
         66    2    3    3    0    0  0.19551432071E+02 -0.25300604598E+02 -0.60109393275E+02  0.68114009220E+02  0.20000007843E+01 0.  0.
         13    1    3    3    0    0 -0.19551432071E+02  0.25300604598E+02  0.24840856349E+00  0.31975802725E+02  0.10566000000E+00 0. -1.
         13    1    4    4    0    0  0.18555599108E+01 -0.27336110424E+01 -0.64835118071E+01  0.72775559978E+01  0.10566000000E+00 0. -1.
        -13    1    4    4    0    0  0.29368848407E+01 -0.33660857086E+01 -0.96082929664E+01  0.10596522228E+02  0.10566000000E+00 0.  1.
        -14    1    4    4    0    0  0.14758987319E+02 -0.19200907847E+02 -0.44017588501E+02  0.50239930994E+02  0.00000000000E+00 0.  1.
<mgrwt>
<rscale>  0 0.80216164E+02</rscale>
<asrwt>0</asrwt>
<pdfrwt beam="1">  1        1 0.30945252E-02 0.80216164E+02</pdfrwt>
<pdfrwt beam="2">  1       -2 0.12303907E-01 0.80216164E+02</pdfrwt>
<totfact> 0.11100161E+05</totfact>
</mgrwt>
</event>
<event>
 8    1  0.1241100E-024  0.8141398E+02  0.7818608E-02  0.1325086E+00
         -2   -1    0    0    0  501 -0.00000000000E+00  0.00000000000E+00  0.22167341204E+02  0.22167341350E+02  0.25500000000E-02 0.  1.
          1   -1    0    0  501    0  0.00000000000E+00 -0.00000000000E+00 -0.74752267551E+02  0.74752267721E+02  0.50400000000E-02 0. -1.
        -24    2    1    2    0    0  0.00000000000E+00  0.00000000000E+00 -0.52584926348E+02  0.96919609072E+02  0.81413980026E+02 0.  0.
         66    2    3    3    0    0  0.31765886873E+02 -0.18696507739E+02 -0.58123062812E+01  0.37368621487E+02  0.19999992595E+01 0.  0.
         13    1    3    3    0    0 -0.31765886873E+02  0.18696507739E+02 -0.46772620066E+02  0.59550987585E+02  0.10566000000E+00 0. -1.
         13    1    4    4    0    0  0.77783457699E+01 -0.49085993586E+01 -0.13421642604E+01  0.92956753126E+01  0.10566000000E+00 0. -1.
        -13    1    4    4    0    0  0.13487734417E+02 -0.85805592044E+01 -0.29218328404E+01  0.16250946039E+02  0.10566000000E+00 0.  1.
         14    1    4    4    0    0  0.10499806686E+02 -0.52073491763E+01 -0.15483091803E+01  0.11822000135E+02  0.00000000000E+00 0. -1.
<mgrwt>
<rscale>  0 0.81413980E+02</rscale>
<asrwt>0</asrwt>
<pdfrwt beam="1">  1        1 0.11500349E-01 0.81413980E+02</pdfrwt>
<pdfrwt beam="2">  1       -2 0.34103602E-02 0.81413980E+02</pdfrwt>
<totfact> 0.13360477E+05</totfact>
</mgrwt>
</event>
<event>
 8    1  0.1241100E-024  0.8204195E+02  0.7818608E-02  0.1323355E+00
         -2   -1    0    0    0  501 -0.00000000000E+00  0.00000000000E+00  0.23531642783E+02  0.23531642921E+02  0.25500000000E-02 0.  1.
          1   -1    0    0  501    0  0.00000000000E+00 -0.00000000000E+00 -0.71508830110E+02  0.71508830287E+02  0.50400000000E-02 0. -1.
        -24    2    1    2    0    0  0.00000000000E+00  0.00000000000E+00 -0.47977187327E+02  0.95040473208E+02  0.82041946855E+02 0.  0.
         66    2    3    3    0    0 -0.17248995789E+02 -0.36856169341E+02 -0.18232651421E+02  0.44635576080E+02  0.19999999807E+01 0.  0.
         13    1    3    3    0    0  0.17248995789E+02  0.36856169341E+02 -0.29744535906E+02  0.50404897128E+02  0.10566000000E+00 0. -1.
         13    1    4    4    0    0 -0.64549849233E+01 -0.11636626020E+02 -0.58929660277E+01  0.14553903535E+02  0.10566000000E+00 0. -1.
        -13    1    4    4    0    0 -0.90282134853E+01 -0.21187137552E+02 -0.10472853697E+02  0.25300104051E+02  0.10566000000E+00 0.  1.
        -14    1    4    4    0    0 -0.17657973807E+01 -0.40324057696E+01 -0.18668316960E+01  0.47815684939E+01  0.00000000000E+00 0.  1.
<mgrwt>
<rscale>  0 0.82041947E+02</rscale>
<asrwt>0</asrwt>
<pdfrwt beam="1">  1        1 0.11001358E-01 0.82041947E+02</pdfrwt>
<pdfrwt beam="2">  1       -2 0.36202528E-02 0.82041947E+02</pdfrwt>
<totfact> 0.12988602E+05</totfact>
</mgrwt>
</event>
<event>
 8    1  0.1241100E-024  0.7249821E+02  0.7818608E-02  0.1351798E+00
         -2   -1    0    0    0  501 -0.00000000000E+00  0.00000000000E+00  0.96050659933E+01  0.96050663318E+01  0.25500000000E-02 0.  1.
          1   -1    0    0  501    0  0.00000000000E+00 -0.00000000000E+00 -0.13680256887E+03  0.13680256896E+03  0.50400000000E-02 0. -1.
        -24    2    1    2    0    0  0.71054273576E-14  0.88817841970E-15 -0.12719750288E+03  0.14640763530E+03  0.72498213320E+02 0.  0.
         66    2    3    3    0    0  0.32313613118E+02  0.65510632232E+01 -0.33361304180E+02  0.46947445410E+02  0.19999979449E+01 0.  0.
         13    1    3    3    0    0 -0.32313613118E+02 -0.65510632232E+01 -0.93836198697E+02  0.99460189885E+02  0.10566000000E+00 0. -1.
         13    1    4    4    0    0  0.55615603408E+00  0.20756190035E+00 -0.81811786970E+00  0.10163032820E+01  0.10566000000E+00 0. -1.
        -13    1    4    4    0    0  0.11552659549E+02  0.25973667970E+01 -0.11079786281E+02  0.16216753220E+02  0.10566000000E+00 0.  1.
        -14    1    4    4    0    0  0.20204797535E+02  0.37461345259E+01 -0.21463400030E+02  0.29714388908E+02  0.00000000000E+00 0.  1.
<mgrwt>
<rscale>  0 0.72498213E+02</rscale>
<asrwt>0</asrwt>
<pdfrwt beam="1">  1        1 0.21046548E-01 0.72498213E+02</pdfrwt>
<pdfrwt beam="2">  1       -2 0.14777026E-02 0.72498213E+02</pdfrwt>
<totfact> 0.20174173E+05</totfact>
</mgrwt>
</event>
<event>
 8    1  0.1241100E-024  0.7360350E+02  0.7818608E-02  0.1348251E+00
         -2   -1    0    0    0  501 -0.00000000000E+00  0.00000000000E+00  0.13818004910E+02  0.13818005146E+02  0.25500000000E-02 0.  1.
          1   -1    0    0  501    0  0.00000000000E+00 -0.00000000000E+00 -0.98014786791E+02  0.98014786920E+02  0.50400000000E-02 0. -1.
        -24    2    1    2    0    0  0.35527136788E-14  0.00000000000E+00 -0.84196781880E+02  0.11183279207E+03  0.73603500611E+02 0.  0.
         66    2    3    3    0    0 -0.16516818576E+02 -0.16268862050E+02  0.12434938062E+01  0.23302949404E+02  0.20000014542E+01 0.  0.
         13    1    3    3    0    0  0.16516818576E+02  0.16268862050E+02 -0.85440275687E+02  0.88529842662E+02  0.10566000000E+00 0. -1.
         13    1    4    4    0    0 -0.71290352943E+01 -0.58810224217E+01  0.10069708564E+01  0.92970276591E+01  0.10566000000E+00 0. -1.
        -13    1    4    4    0    0 -0.80526549276E+01 -0.87937245188E+01  0.16474487853E+00  0.11925315392E+02  0.10566000000E+00 0.  1.
         14    1    4    4    0    0 -0.13351283541E+01 -0.15941151092E+01  0.71778071262E-01  0.20806063527E+01  0.00000000000E+00 0. -1.
<mgrwt>
<rscale>  0 0.73603501E+02</rscale>
<asrwt>0</asrwt>
<pdfrwt beam="1">  1        1 0.15079198E-01 0.73603501E+02</pdfrwt>
<pdfrwt beam="2">  1       -2 0.21258470E-02 0.73603501E+02</pdfrwt>
<totfact> 0.18327818E+05</totfact>
</mgrwt>
</event>
<event>
 8    1  0.1241100E-024  0.8070853E+02  0.7818608E-02  0.1327053E+00
         -2   -1    0    0    0  501 -0.00000000000E+00  0.00000000000E+00  0.39346293376E+02  0.39346293458E+02  0.25500000000E-02 0.  1.
          1   -1    0    0  501    0  0.00000000000E+00 -0.00000000000E+00 -0.41388062250E+02  0.41388062557E+02  0.50400000000E-02 0. -1.
        -24    2    1    2    0    0  0.35527136788E-14  0.35527136788E-14 -0.20417688742E+01  0.80734356015E+02  0.80708533756E+02 0.  0.
         66    2    3    3    0    0 -0.18810944823E+02  0.25005427183E+02  0.24429485222E+02  0.39748242620E+02  0.20000023741E+01 0.  0.
         13    1    3    3    0    0  0.18810944823E+02 -0.25005427183E+02 -0.26471254096E+02  0.40986113394E+02  0.10566000000E+00 0. -1.
         13    1    4    4    0    0 -0.50677597908E+01  0.74265840736E+01  0.68503357593E+01  0.11303742935E+02  0.10566000000E+00 0.  1.
        -13    1    4    4    0    0 -0.32474499952E+01  0.36135463434E+01  0.44771855064E+01  0.66075716221E+01  0.10566000000E+00 0. -1.
         14    1    4    4    0    0 -0.10495735037E+02  0.13965296766E+02  0.13101963956E+02  0.21836928063E+02  0.00000000000E+00 0. -1.
<mgrwt>
<rscale>  0 0.80708534E+02</rscale>
<asrwt>0</asrwt>
<pdfrwt beam="1">  1        1 0.63673943E-02 0.80708534E+02</pdfrwt>
<pdfrwt beam="2">  1       -2 0.60532759E-02 0.80708534E+02</pdfrwt>
<totfact> 0.12454944E+05</totfact>
</mgrwt>
</event>
<event>
 8    1  0.1241100E-024  0.7950776E+02  0.7818608E-02  0.1330454E+00
         -2   -1    0    0    0  501 -0.00000000000E+00  0.00000000000E+00  0.18146211798E+02  0.18146211977E+02  0.25500000000E-02 0.  1.
          1   -1    0    0  501    0  0.00000000000E+00 -0.00000000000E+00 -0.87090955769E+02  0.87090955914E+02  0.50400000000E-02 0. -1.
        -24    2    1    2    0    0  0.00000000000E+00 -0.17763568394E-14 -0.68944743971E+02  0.10523716789E+03  0.79507759272E+02 0.  0.
         66    2    3    3    0    0 -0.13050742643E+02 -0.14538558987E+02  0.11293451077E+02  0.22654659516E+02  0.19999948979E+01 0.  0.
         13    1    3    3    0    0  0.13050742643E+02  0.14538558987E+02 -0.80238195048E+02  0.82582508375E+02  0.10566000000E+00 0. -1.
         13    1    4    4    0    0 -0.54899075903E+01 -0.48387039550E+01  0.42928804126E+01  0.84848174751E+01  0.10566000000E+00 0. -1.
        -13    1    4    4    0    0 -0.66347793759E+01 -0.88313587280E+01  0.63829210288E+01  0.12757979434E+02  0.10566000000E+00 0.  1.
        -14    1    4    4    0    0 -0.92605567715E+00 -0.86849630384E+00  0.61764963561E+00  0.14118626064E+01  0.00000000000E+00 0.  1.
<mgrwt>
<rscale>  0 0.79507759E+02</rscale>
<asrwt>0</asrwt>
<pdfrwt beam="1">  1        1 0.13398608E-01 0.79507759E+02</pdfrwt>
<pdfrwt beam="2">  1       -2 0.27917250E-02 0.79507759E+02</pdfrwt>
<totfact> 0.14608740E+05</totfact>
</mgrwt>
</event>
<event>
 8    1  0.1241100E-024  0.8021478E+02  0.7818608E-02  0.1328443E+00
         -2   -1    0    0    0  501 -0.00000000000E+00  0.00000000000E+00  0.99282641991E+02  0.99282642024E+02  0.25500000000E-02 0.  1.
          1   -1    0    0  501    0  0.00000000000E+00 -0.00000000000E+00 -0.16202253104E+02  0.16202253888E+02  0.50400000000E-02 0. -1.
        -24    2    1    2    0    0  0.00000000000E+00  0.00000000000E+00  0.83080388887E+02  0.11548489591E+03  0.80214775236E+02 0.  0.
         66    2    3    3    0    0 -0.13722528130E+02  0.32981544935E+02  0.67739426246E+02  0.76607571115E+02  0.19999998634E+01 0.  0.
         13    1    3    3    0    0  0.13722528130E+02 -0.32981544935E+02  0.15340962641E+02  0.38877324797E+02  0.10566000000E+00 0. -1.
         13    1    4    4    0    0 -0.18647813805E+01  0.46956987458E+01  0.97801557675E+01  0.11008615135E+02  0.10566000000E+00 0. -1.
        -13    1    4    4    0    0 -0.84941339186E+01  0.22204096888E+02  0.44943475807E+02  0.50843872898E+02  0.10566000000E+00 0.  1.
         14    1    4    4    0    0 -0.33636128309E+01  0.60817493009E+01  0.13015794672E+02  0.14755083083E+02  0.00000000000E+00 0. -1.
<mgrwt>
<rscale>  0 0.80214775E+02</rscale>
<asrwt>0</asrwt>
<pdfrwt beam="1">  1        1 0.24926544E-02 0.80214775E+02</pdfrwt>
<pdfrwt beam="2">  1       -2 0.15274253E-01 0.80214775E+02</pdfrwt>
<totfact> 0.10559023E+05</totfact>
</mgrwt>
</event>
<event>
 8    1  0.1241100E-024  0.7954941E+02  0.7818608E-02  0.1330335E+00
         -2   -1    0    0    0  501 -0.00000000000E+00  0.00000000000E+00  0.21755884151E+03  0.21755884152E+03  0.25500000000E-02 0.  1.
          1   -1    0    0  501    0  0.00000000000E+00 -0.00000000000E+00 -0.72717200713E+01  0.72717218179E+01  0.50400000000E-02 0. -1.
        -24    2    1    2    0    0  0.00000000000E+00  0.35527136788E-14  0.21028712143E+03  0.22483056334E+03  0.79549410871E+02 0.  0.
         66    2    3    3    0    0 -0.31947753450E+02  0.23650829572E+02  0.10532070587E+03  0.11258983877E+03  0.20000051537E+01 0.  0.
         13    1    3    3    0    0  0.31947753450E+02 -0.23650829572E+02  0.10496641557E+03  0.11224072457E+03  0.10566000000E+00 0. -1.
         13    1    4    4    0    0 -0.13759557991E+02  0.10509183338E+02  0.46896115335E+02  0.49990250731E+02  0.10566000000E+00 0. -1.
        -13    1    4    4    0    0 -0.13421342555E+02  0.10398075983E+02  0.44146223293E+02  0.47298547707E+02  0.10566000000E+00 0.  1.
         14    1    4    4    0    0 -0.47668529044E+01  0.27435702506E+01  0.14278367237E+02  0.15301040334E+02  0.00000000000E+00 0. -1.
<mgrwt>
<rscale>  0 0.79549411E+02</rscale>
<asrwt>0</asrwt>
<pdfrwt beam="1">  1        1 0.11187261E-02 0.79549411E+02</pdfrwt>
<pdfrwt beam="2">  1       -2 0.33470598E-01 0.79549411E+02</pdfrwt>
<totfact> 0.83339372E+04</totfact>
</mgrwt>
</event>
<event>
 8    1  0.1241100E-024  0.7932588E+02  0.7818608E-02  0.1330975E+00
          1   -1    0    0  501    0  0.00000000000E+00  0.00000000000E+00  0.64714450649E+02  0.64714450846E+02  0.50400000000E-02 0. -1.
         -2   -1    0    0    0  501 -0.00000000000E+00 -0.00000000000E+00 -0.24309080841E+02  0.24309080975E+02  0.25500000000E-02 0.  1.
        -24    2    1    2    0    0  0.00000000000E+00  0.22204460493E-15  0.40405369808E+02  0.89023531820E+02  0.79325880445E+02 0.  0.
         66    2    3    3    0    0  0.16347766277E+02 -0.17555418056E+01 -0.20260478834E+02  0.26169035205E+02  0.20000029168E+01 0.  0.
         13    1    3    3    0    0 -0.16347766277E+02  0.17555418056E+01  0.60665848643E+02  0.62854496616E+02  0.10566000000E+00 0. -1.
         13    1    4    4    0    0  0.13709273958E+01 -0.54955139667E+00 -0.17025950908E+01  0.22564225538E+01  0.10566000000E+00 0. -1.
        -13    1    4    4    0    0  0.78306113220E+01 -0.97487048133E+00 -0.88797525972E+01  0.11879815502E+02  0.10566000000E+00 0.  1.
         14    1    4    4    0    0  0.71462275593E+01 -0.23111992757E+00 -0.96781311462E+01  0.12032797149E+02  0.00000000000E+00 0. -1.
<mgrwt>
<rscale>  0 0.79325880E+02</rscale>
<asrwt>0</asrwt>
<pdfrwt beam="1">  1        1 0.99560693E-02 0.79325880E+02</pdfrwt>
<pdfrwt beam="2">  1       -2 0.37398586E-02 0.79325880E+02</pdfrwt>
<totfact> 0.14021992E+05</totfact>
</mgrwt>
</event>
<event>
 8    1  0.1241100E-024  0.8024230E+02  0.7818608E-02  0.1328365E+00
          1   -1    0    0  501    0  0.00000000000E+00  0.00000000000E+00  0.25469568697E+03  0.25469568702E+03  0.50400000000E-02 0. -1.
         -2   -1    0    0    0  501 -0.00000000000E+00 -0.00000000000E+00 -0.63201164790E+01  0.63201169935E+01  0.25500000000E-02 0.  1.
        -24    2    1    2    0    0  0.71054273576E-14  0.35527136788E-14  0.24837557049E+03  0.26101580401E+03  0.80242295132E+02 0.  0.
         66    2    3    3    0    0  0.36144341393E+02  0.17285243272E+02  0.11911280640E+03  0.12568633053E+03  0.19999957425E+01 0.  0.
         13    1    3    3    0    0 -0.36144341393E+02 -0.17285243272E+02  0.12926276409E+03  0.13532947348E+03  0.10566000000E+00 0. -1.
         13    1    4    4    0    0  0.53775959549E+00  0.16455586509E+00  0.17694667090E+01  0.18596882763E+01  0.10566000000E+00 0.  1.
        -13    1    4    4    0    0  0.65212141904E+01  0.37746213908E+01  0.21577101765E+02  0.22855119466E+02  0.10566000000E+00 0.  1.
        -14    1    4    4    0    0  0.29085367608E+02  0.13346066017E+02  0.95766237930E+02  0.10097152279E+03  0.00000000000E+00 0.  1.
<mgrwt>
<rscale>  0 0.80242295E+02</rscale>
<asrwt>0</asrwt>
<pdfrwt beam="1">  1        1 0.39183950E-01 0.80242295E+02</pdfrwt>
<pdfrwt beam="2">  1       -2 0.97232570E-03 0.80242295E+02</pdfrwt>
<totfact> 0.17339260E+05</totfact>
</mgrwt>
</event>
<event>
 8    1  0.1241100E-024  0.8111252E+02  0.7818608E-02  0.1325924E+00
          1   -1    0    0  501    0  0.00000000000E+00  0.00000000000E+00  0.14931888293E+02  0.14931889143E+02  0.50400000000E-02 0. -1.
         -2   -1    0    0    0  501 -0.00000000000E+00 -0.00000000000E+00 -0.11015419087E+03  0.11015419090E+03  0.25500000000E-02 0.  1.
        -24    2    1    2    0    0  0.00000000000E+00 -0.71054273576E-14 -0.95222302582E+02  0.12508608005E+03  0.81112517607E+02 0.  0.
         66    2    3    3    0    0 -0.11050092767E+02  0.36218149287E+02 -0.69931471172E+02  0.79550421434E+02  0.20000005059E+01 0.  0.
         13    1    3    3    0    0  0.11050092767E+02 -0.36218149287E+02 -0.25290831409E+02  0.45535658614E+02  0.10566000000E+00 0. -1.
         13    1    4    4    0    0 -0.37949189381E+01  0.13121381813E+02 -0.24099935486E+02  0.27701807250E+02  0.10566000000E+00 0. -1.
        -13    1    4    4    0    0 -0.67884290108E+00  0.28701644118E+01 -0.63649565521E+01  0.70158753823E+01  0.10566000000E+00 0.  1.
         14    1    4    4    0    0 -0.65763309282E+01  0.20226603062E+02 -0.39466579134E+02  0.44832738802E+02  0.00000000000E+00 0. -1.
<mgrwt>
<rscale>  0 0.81112518E+02</rscale>
<asrwt>0</asrwt>
<pdfrwt beam="1">  1        1 0.22972137E-02 0.81112518E+02</pdfrwt>
<pdfrwt beam="2">  1       -2 0.16946798E-01 0.81112518E+02</pdfrwt>
<totfact> 0.99927594E+04</totfact>
</mgrwt>
</event>
<event>
 8    1  0.1241100E-024  0.8094680E+02  0.7818608E-02  0.1326386E+00
         -2   -1    0    0    0  501 -0.00000000000E+00  0.00000000000E+00  0.27574403209E+02  0.27574403327E+02  0.25500000000E-02 0.  1.
          1   -1    0    0  501    0  0.00000000000E+00 -0.00000000000E+00 -0.59406407366E+02  0.59406407580E+02  0.50400000000E-02 0. -1.
        -24    2    1    2    0    0  0.00000000000E+00  0.35527136788E-14 -0.31832004157E+02  0.86980810907E+02  0.80946803380E+02 0.  0.
         66    2    3    3    0    0 -0.21946425703E+01  0.24325392479E+02  0.18719779055E+02  0.30837822696E+02  0.20000013857E+01 0.  0.
         13    1    3    3    0    0  0.21946425703E+01 -0.24325392479E+02 -0.50551783212E+02  0.56142988211E+02  0.10566000000E+00 0. -1.
         13    1    4    4    0    0 -0.36676478493E+00  0.13421196242E+01  0.13002086302E+01  0.19072252124E+01  0.10566000000E+00 0. -1.
        -13    1    4    4    0    0  0.10727674062E+00  0.18611355537E+01  0.17564781441E+01  0.25635353235E+01  0.10566000000E+00 0.  1.
        -14    1    4    4    0    0 -0.19351545260E+01  0.21122137301E+02  0.15663092281E+02  0.26367062161E+02  0.00000000000E+00 0.  1.
<mgrwt>
<rscale>  0 0.80946803E+02</rscale>
<asrwt>0</asrwt>
<pdfrwt beam="1">  1        1 0.91394473E-02 0.80946803E+02</pdfrwt>
<pdfrwt beam="2">  1       -2 0.42422159E-02 0.80946803E+02</pdfrwt>
<totfact> 0.13085465E+05</totfact>
</mgrwt>
</event>
<event>
 8    1  0.1241100E-024  0.8233236E+02  0.7818608E-02  0.1322560E+00
         -2   -1    0    0    0  501 -0.00000000000E+00  0.00000000000E+00  0.24260822944E+03  0.24260822945E+03  0.25500000000E-02 0.  1.
          1   -1    0    0  501    0  0.00000000000E+00 -0.00000000000E+00 -0.69851469239E+01  0.69851487421E+01  0.50400000000E-02 0. -1.
        -24    2    1    2    0    0  0.00000000000E+00  0.00000000000E+00  0.23562308252E+03  0.24959337819E+03  0.82332359523E+02 0.  0.
         66    2    3    3    0    0 -0.13597252677E+02  0.68240647460E+01  0.23376307632E+03  0.23426614990E+03  0.19999997392E+01 0.  0.
         13    1    3    3    0    0  0.13597252677E+02 -0.68240647460E+01  0.18600061929E+01  0.15327228291E+02  0.10566000000E+00 0. -1.
         13    1    4    4    0    0 -0.24226832905E+01  0.19618432953E+01  0.47908230411E+02  0.48009664950E+02  0.10566000000E+00 0. -1.
        -13    1    4    4    0    0 -0.45342012373E+01  0.24879489735E+01  0.78315413901E+02  0.78486075768E+02  0.10566000000E+00 0.  1.
        -14    1    4    4    0    0 -0.66403681489E+01  0.23742724771E+01  0.10753943201E+03  0.10777040919E+03  0.00000000000E+00 0.  1.
<mgrwt>
<rscale>  0 0.82332360E+02</rscale>
<asrwt>0</asrwt>
<pdfrwt beam="1">  1        1 0.10746382E-02 0.82332360E+02</pdfrwt>
<pdfrwt beam="2">  1       -2 0.37324340E-01 0.82332360E+02</pdfrwt>
<totfact> 0.72615523E+04</totfact>
</mgrwt>
</event>
<event>
 8    1  0.1241100E-024  0.7867215E+02  0.7818608E-02  0.1332862E+00
          1   -1    0    0  501    0  0.00000000000E+00  0.00000000000E+00  0.40578923888E+01  0.40578955187E+01  0.50400000000E-02 0. -1.
         -2   -1    0    0    0  501 -0.00000000000E+00 -0.00000000000E+00 -0.38131281000E+03  0.38131281001E+03  0.25500000000E-02 0.  1.
        -24    2    1    2    0    0  0.00000000000E+00  0.35527136788E-14 -0.37725491761E+03  0.38537070553E+03  0.78672154011E+02 0.  0.
         66    2    3    3    0    0  0.43595262843E+01  0.23262167945E+02 -0.34249977043E+03  0.34332233640E+03  0.19999993463E+01 0.  0.
         13    1    3    3    0    0 -0.43595262843E+01 -0.23262167945E+02 -0.34755147181E+02  0.42048369130E+02  0.10566000000E+00 0. -1.
         13    1    4    4    0    0 -0.90794406924E-01  0.30271243948E+01 -0.42685434899E+02  0.42792864385E+02  0.10566000000E+00 0. -1.
        -13    1    4    4    0    0  0.29568308366E+01  0.13870066918E+02 -0.20589843517E+03  0.20638628437E+03  0.10566000000E+00 0.  1.
         14    1    4    4    0    0  0.14934898545E+01  0.63649766320E+01 -0.93915900357E+02  0.94143187641E+02  0.00000000000E+00 0. -1.
<mgrwt>
<rscale>  0 0.78672154E+02</rscale>
<asrwt>0</asrwt>
<pdfrwt beam="1">  1        1 0.62429168E-03 0.78672154E+02</pdfrwt>
<pdfrwt beam="2">  1       -2 0.58663481E-01 0.78672154E+02</pdfrwt>
<totfact> 0.63659428E+04</totfact>
</mgrwt>
</event>
<event>
 8    1  0.1241100E-024  0.9014806E+02  0.7818608E-02  0.1302494E+00
          1   -1    0    0  501    0  0.00000000000E+00  0.00000000000E+00  0.11880894737E+03  0.11880894748E+03  0.50400000000E-02 0. -1.
         -2   -1    0    0    0  501 -0.00000000000E+00 -0.00000000000E+00 -0.17100297330E+02  0.17100297520E+02  0.25500000000E-02 0.  1.
        -24    2    1    2    0    0  0.00000000000E+00 -0.35527136788E-14  0.10170865004E+03  0.13590924500E+03  0.90148063667E+02 0.  0.
         66    2    3    3    0    0  0.26529089737E+02  0.16117539307E+02  0.16537256367E+01  0.31149678671E+02  0.19999993027E+01 0.  0.
         13    1    3    3    0    0 -0.26529089737E+02 -0.16117539307E+02  0.10005492441E+03  0.10475956633E+03  0.10566000000E+00 0. -1.
         13    1    4    4    0    0  0.16499454057E+02  0.10412224498E+02  0.12488114756E+01  0.19550373329E+02  0.10566000000E+00 0.  1.
        -13    1    4    4    0    0  0.51260673322E+01  0.33144657909E+01  0.64146366192E+00  0.61388019547E+01  0.10566000000E+00 0. -1.
         14    1    4    4    0    0  0.49035683485E+01  0.23908490180E+01 -0.23654950080E+00  0.54605033872E+01  0.00000000000E+00 0. -1.
<mgrwt>
<rscale>  0 0.90148064E+02</rscale>
<asrwt>0</asrwt>
<pdfrwt beam="1">  1        1 0.18278301E-01 0.90148064E+02</pdfrwt>
<pdfrwt beam="2">  1       -2 0.26308148E-02 0.90148064E+02</pdfrwt>
<totfact> 0.10954794E+05</totfact>
</mgrwt>
</event>
<event>
 8    1  0.1241100E-024  0.7938278E+02  0.7818608E-02  0.1330812E+00
          1   -1    0    0  501    0  0.00000000000E+00  0.00000000000E+00  0.17813543142E+01  0.17813614441E+01  0.50400000000E-02 0. -1.
         -2   -1    0    0    0  501 -0.00000000000E+00 -0.00000000000E+00 -0.88438519940E+03  0.88438519940E+03  0.25500000000E-02 0.  1.
        -24    2    1    2    0    0  0.00000000000E+00  0.00000000000E+00 -0.88260384509E+03  0.88616656085E+03  0.79382782797E+02 0.  0.
         66    2    3    3    0    0 -0.21825994012E+02 -0.11189276061E+02 -0.78958480897E+03  0.78996819206E+03  0.19999994739E+01 0.  0.
         13    1    3    3    0    0  0.21825994012E+02  0.11189276061E+02 -0.93019036119E+02  0.96198368790E+02  0.10566000000E+00 0. -1.
         13    1    4    4    0    0 -0.53624255458E+01 -0.32555433900E+01 -0.21368621750E+03  0.21377830779E+03  0.10566000000E+00 0. -1.
        -13    1    4    4    0    0 -0.15235871095E+02 -0.73755410240E+01 -0.52186000878E+03  0.52213447530E+03  0.10566000000E+00 0.  1.
        -14    1    4    4    0    0 -0.12276973712E+01 -0.55819164659E+00 -0.54038582691E+02  0.54055408962E+02  0.00000000000E+00 0.  1.
<mgrwt>
<rscale>  0 0.79382783E+02</rscale>
<asrwt>0</asrwt>
<pdfrwt beam="1">  1        1 0.27405576E-03 0.79382783E+02</pdfrwt>
<pdfrwt beam="2">  1       -2 0.13605891E+00 0.79382783E+02</pdfrwt>
<totfact> 0.30531044E+04</totfact>
</mgrwt>
</event>
<event>
 8    1  0.1241100E-024  0.7047572E+02  0.7818608E-02  0.1358483E+00
         -2   -1    0    0    0  501 -0.00000000000E+00  0.00000000000E+00  0.97130588202E+00  0.97130922931E+00  0.25500000000E-02 0.  1.
          1   -1    0    0  501    0  0.00000000000E+00 -0.00000000000E+00 -0.12783866391E+04  0.12783866391E+04  0.50400000000E-02 0. -1.
        -24    2    1    2    0    0  0.17763568394E-14  0.00000000000E+00 -0.12774153332E+04  0.12793579484E+04  0.70475715239E+02 0.  0.
         66    2    3    3    0    0 -0.80519973386E+01 -0.19150298087E+02 -0.11552733254E+04  0.11554618232E+04  0.19999989887E+01 0.  0.
         13    1    3    3    0    0  0.80519973386E+01  0.19150298087E+02 -0.12214200784E+03  0.12389612513E+03  0.10566000000E+00 0. -1.
         13    1    4    4    0    0 -0.42288260748E+00 -0.43201688290E+00 -0.32178258504E+02  0.32184110252E+02  0.10566000000E+00 0. -1.
        -13    1    4    4    0    0 -0.36620804487E+01 -0.10584939213E+02 -0.60830381760E+03  0.60840693409E+03  0.10566000000E+00 0.  1.
        -14    1    4    4    0    0 -0.39670342824E+01 -0.81333419908E+01 -0.51479124929E+03  0.51487077889E+03  0.00000000000E+00 0.  1.
<mgrwt>
<rscale>  0 0.70475715E+02</rscale>
<asrwt>0</asrwt>
<pdfrwt beam="1">  1        1 0.19667352E+00 0.70475715E+02</pdfrwt>
<pdfrwt beam="2">  1       -2 0.14943295E-03 0.70475715E+02</pdfrwt>
<totfact> 0.24138855E+05</totfact>
</mgrwt>
</event>
<event>
 8    1  0.1241100E-024  0.7970382E+02  0.7818608E-02  0.1329894E+00
         -2   -1    0    0    0  501 -0.00000000000E+00  0.00000000000E+00  0.67890250017E+01  0.67890254805E+01  0.25500000000E-02 0.  1.
          1   -1    0    0  501    0  0.00000000000E+00 -0.00000000000E+00 -0.23393266419E+03  0.23393266425E+03  0.50400000000E-02 0. -1.
        -24    2    1    2    0    0  0.00000000000E+00  0.00000000000E+00 -0.22714363919E+03  0.24072168973E+03  0.79703820990E+02 0.  0.
         66    2    3    3    0    0 -0.34807134069E+02 -0.18044286995E+02 -0.92493744607E+02  0.10047997642E+03  0.19999987993E+01 0.  0.
         13    1    3    3    0    0  0.34807134069E+02  0.18044286995E+02 -0.13464989459E+03  0.14024171331E+03  0.10566000000E+00 0. -1.
         13    1    4    4    0    0 -0.42612581620E+01 -0.17613216900E+01 -0.10352394828E+02  0.11333305693E+02  0.10566000000E+00 0. -1.
        -13    1    4    4    0    0 -0.48048908808E+01 -0.20506939459E+01 -0.12131310440E+02  0.13208791734E+02  0.10566000000E+00 0.  1.
        -14    1    4    4    0    0 -0.25740985026E+02 -0.14232271359E+02 -0.70010039338E+02  0.75937878995E+02  0.00000000000E+00 0.  1.
<mgrwt>
<rscale>  0 0.79703821E+02</rscale>
<asrwt>0</asrwt>
<pdfrwt beam="1">  1        1 0.35989635E-01 0.79703821E+02</pdfrwt>
<pdfrwt beam="2">  1       -2 0.10444656E-02 0.79703821E+02</pdfrwt>
<totfact> 0.17360713E+05</totfact>
</mgrwt>
</event>
<event>
 8    1  0.1241100E-024  0.7937254E+02  0.7818608E-02  0.1330842E+00
         -2   -1    0    0    0  501 -0.00000000000E+00  0.00000000000E+00  0.56735213521E+01  0.56735219252E+01  0.25500000000E-02 0.  1.
          1   -1    0    0  501    0  0.00000000000E+00 -0.00000000000E+00 -0.27760535995E+03  0.27760535999E+03  0.50400000000E-02 0. -1.
        -24    2    1    2    0    0 -0.71054273576E-14 -0.88817841970E-15 -0.27193183860E+03  0.28327888192E+03  0.79372539956E+02 0.  0.
         66    2    3    3    0    0 -0.38600083110E+02 -0.66944649499E+01 -0.15811418095E+03  0.16290757041E+03  0.20000010161E+01 0.  0.
         13    1    3    3    0    0  0.38600083110E+02  0.66944649499E+01 -0.11381765765E+03  0.12037131151E+03  0.10566000000E+00 0. -1.
         13    1    4    4    0    0 -0.78733539628E+01 -0.16089312439E+01 -0.32771069604E+02  0.33742147670E+02  0.10566000000E+00 0. -1.
        -13    1    4    4    0    0 -0.20141579611E+02 -0.38101630512E+01 -0.85068594246E+02  0.87503585428E+02  0.10566000000E+00 0.  1.
         14    1    4    4    0    0 -0.10585149537E+02 -0.12753706548E+01 -0.40274517099E+02  0.41661837316E+02  0.00000000000E+00 0. -1.
<mgrwt>
<rscale>  0 0.79372540E+02</rscale>
<asrwt>0</asrwt>
<pdfrwt beam="1">  1        1 0.42708507E-01 0.79372540E+02</pdfrwt>
<pdfrwt beam="2">  1       -2 0.87284970E-03 0.79372540E+02</pdfrwt>
<totfact> 0.18147623E+05</totfact>
</mgrwt>
</event>
<event>
 8    1  0.1241100E-024  0.8188199E+02  0.7818608E-02  0.1323794E+00
         -2   -1    0    0    0  501 -0.00000000000E+00  0.00000000000E+00  0.69558757579E+01  0.69558762253E+01  0.25500000000E-02 0.  1.
          1   -1    0    0  501    0  0.00000000000E+00 -0.00000000000E+00 -0.24097110944E+03  0.24097110949E+03  0.50400000000E-02 0. -1.
        -24    2    1    2    0    0  0.00000000000E+00  0.00000000000E+00 -0.23401523368E+03  0.24792698571E+03  0.81881992232E+02 0.  0.
         66    2    3    3    0    0  0.27340963660E+02 -0.30384173876E+02 -0.11146639586E+03  0.11874124683E+03  0.19999942655E+01 0.  0.
         13    1    3    3    0    0 -0.27340963660E+02  0.30384173876E+02 -0.12254883782E+03  0.12918573889E+03  0.10566000000E+00 0. -1.
         13    1    4    4    0    0  0.66180364191E+01 -0.81175860268E+01 -0.27319089465E+02  0.29258117201E+02  0.10566000000E+00 0. -1.
        -13    1    4    4    0    0  0.86626770673E+01 -0.91378983611E+01 -0.33296276842E+02  0.35597701836E+02  0.10566000000E+00 0.  1.
         14    1    4    4    0    0  0.12060250174E+02 -0.13128689488E+02 -0.50851029548E+02  0.53885427790E+02  0.00000000000E+00 0. -1.
<mgrwt>
<rscale>  0 0.81881992E+02</rscale>
<asrwt>0</asrwt>
<pdfrwt beam="1">  1        1 0.37072472E-01 0.81881992E+02</pdfrwt>
<pdfrwt beam="2">  1       -2 0.10701350E-02 0.81881992E+02</pdfrwt>
<totfact> 0.16257893E+05</totfact>
</mgrwt>
</event>
<event>
 8    1  0.1241100E-024  0.8064652E+02  0.7818608E-02  0.1327227E+00
          1   -1    0    0  501    0  0.00000000000E+00  0.00000000000E+00  0.74394858395E+02  0.74394858566E+02  0.50400000000E-02 0. -1.
         -2   -1    0    0    0  501 -0.00000000000E+00 -0.00000000000E+00 -0.21855884351E+02  0.21855884499E+02  0.25500000000E-02 0.  1.
        -24    2    1    2    0    0  0.00000000000E+00  0.17763568394E-14  0.52538974045E+02  0.96250743065E+02  0.80646523465E+02 0.  0.
         66    2    3    3    0    0  0.27339986991E+02 -0.78049342418E+01 -0.77982548284E+01  0.29550036628E+02  0.19999997861E+01 0.  0.
         13    1    3    3    0    0 -0.27339986991E+02  0.78049342418E+01  0.60337228873E+02  0.66700706438E+02  0.10566000000E+00 0. -1.
         13    1    4    4    0    0  0.92664261770E+01 -0.19213439302E+01 -0.30908155603E+01  0.99560294020E+01  0.10566000000E+00 0. -1.
        -13    1    4    4    0    0  0.13694245724E+02 -0.43173704774E+01 -0.32801898485E+01  0.14728980387E+02  0.10566000000E+00 0.  1.
         14    1    4    4    0    0  0.43793150903E+01 -0.15662198342E+01 -0.14272494196E+01  0.48650268381E+01  0.00000000000E+00 0. -1.
<mgrwt>
<rscale>  0 0.80646523E+02</rscale>
<asrwt>0</asrwt>
<pdfrwt beam="1">  1        1 0.11445363E-01 0.80646523E+02</pdfrwt>
<pdfrwt beam="2">  1       -2 0.33624437E-02 0.80646523E+02</pdfrwt>
<totfact> 0.13700690E+05</totfact>
</mgrwt>
</event>
<event>
 8    1  0.1241100E-024  0.8092172E+02  0.7818608E-02  0.1326456E+00
         -2   -1    0    0    0  501 -0.00000000000E+00  0.00000000000E+00  0.20691347406E+02  0.20691347563E+02  0.25500000000E-02 0.  1.
          1   -1    0    0  501    0  0.00000000000E+00 -0.00000000000E+00 -0.79119128285E+02  0.79119128445E+02  0.50400000000E-02 0. -1.
        -24    2    1    2    0    0  0.00000000000E+00  0.00000000000E+00 -0.58427780879E+02  0.99810476008E+02  0.80921724787E+02 0.  0.
         66    2    3    3    0    0  0.40066172156E+02 -0.21308443106E+01 -0.23035327790E+02  0.46308368121E+02  0.19999957154E+01 0.  0.
         13    1    3    3    0    0 -0.40066172156E+02  0.21308443106E+01 -0.35392453089E+02  0.53502107887E+02  0.10566000000E+00 0. -1.
         13    1    4    4    0    0  0.72828819382E+01 -0.39184592680E+00 -0.44800481669E+01  0.85601348219E+01  0.10566000000E+00 0. -1.
        -13    1    4    4    0    0  0.16422922376E+01  0.20778217546E+00 -0.71556156642E+00  0.18065131101E+01  0.10566000000E+00 0.  1.
        -14    1    4    4    0    0  0.31140997980E+02 -0.19467805592E+01 -0.17839718057E+02  0.35941720189E+02  0.00000000000E+00 0.  1.
<mgrwt>
<rscale>  0 0.80921725E+02</rscale>
<asrwt>0</asrwt>
<pdfrwt beam="1">  1        1 0.12172173E-01 0.80921725E+02</pdfrwt>
<pdfrwt beam="2">  1       -2 0.31832843E-02 0.80921725E+02</pdfrwt>
<totfact> 0.13709103E+05</totfact>
</mgrwt>
</event>
<event>
 8    1  0.1241100E-024  0.8460112E+02  0.7818608E-02  0.1316479E+00
          1   -1    0    0  501    0  0.00000000000E+00  0.00000000000E+00  0.59952221991E+01  0.59952243176E+01  0.50400000000E-02 0. -1.
         -2   -1    0    0    0  501 -0.00000000000E+00 -0.00000000000E+00 -0.29846050901E+03  0.29846050902E+03  0.25500000000E-02 0.  1.
        -24    2    1    2    0    0 -0.88817841970E-15  0.35527136788E-14 -0.29246528681E+03  0.30445573334E+03  0.84601120402E+02 0.  0.
         66    2    3    3    0    0 -0.68069479896E+01  0.19464269387E+02 -0.27913274719E+03  0.27990048745E+03  0.19999994627E+01 0.  0.
         13    1    3    3    0    0  0.68069479896E+01 -0.19464269387E+02 -0.13332539617E+02  0.24555245883E+02  0.10566000000E+00 0. -1.
         13    1    4    4    0    0 -0.43515878208E+01  0.11716342591E+02 -0.16886036544E+03  0.16932230562E+03  0.10566000000E+00 0. -1.
        -13    1    4    4    0    0 -0.25246634787E+01  0.66659888277E+01 -0.94355715225E+02  0.94624634701E+02  0.10566000000E+00 0.  1.
         14    1    4    4    0    0  0.69303309877E-01  0.10819379687E+01 -0.15916666533E+02  0.15953547136E+02  0.00000000000E+00 0. -1.
<mgrwt>
<rscale>  0 0.84601120E+02</rscale>
<asrwt>0</asrwt>
<pdfrwt beam="1">  1        1 0.92234227E-03 0.84601120E+02</pdfrwt>
<pdfrwt beam="2">  1       -2 0.45916990E-01 0.84601120E+02</pdfrwt>
<totfact> 0.60969462E+04</totfact>
</mgrwt>
</event>
<event>
 8    1  0.1241100E-024  0.7945591E+02  0.7818608E-02  0.1330603E+00
          1   -1    0    0  501    0  0.00000000000E+00  0.00000000000E+00  0.37865339799E+02  0.37865340134E+02  0.50400000000E-02 0. -1.
         -2   -1    0    0    0  501 -0.00000000000E+00 -0.00000000000E+00 -0.41682190711E+02  0.41682190789E+02  0.25500000000E-02 0.  1.
        -24    2    1    2    0    0 -0.17763568394E-14  0.35527136788E-14 -0.38168509119E+01  0.79547530923E+02  0.79455908056E+02 0.  0.
         66    2    3    3    0    0 -0.11611347222E+02  0.21177900136E+02 -0.33457529996E+02  0.41312627247E+02  0.20000045270E+01 0.  0.
         13    1    3    3    0    0  0.11611347222E+02 -0.21177900136E+02  0.29640679085E+02  0.38234903676E+02  0.10566000000E+00 0. -1.
         13    1    4    4    0    0 -0.40095700133E+00  0.11850108620E+01 -0.21410259025E+01  0.24819696233E+01  0.10566000000E+00 0. -1.
        -13    1    4    4    0    0 -0.57231185485E+01  0.88908364819E+01 -0.14315205668E+02  0.17797115964E+02  0.10566000000E+00 0.  1.
        -14    1    4    4    0    0 -0.54872716718E+01  0.11102052792E+02 -0.17001298426E+02  0.21033541660E+02  0.00000000000E+00 0.  1.
<mgrwt>
<rscale>  0 0.79455908E+02</rscale>
<asrwt>0</asrwt>
<pdfrwt beam="1">  1        1 0.58254370E-02 0.79455908E+02</pdfrwt>
<pdfrwt beam="2">  1       -2 0.64126447E-02 0.79455908E+02</pdfrwt>
<totfact> 0.12829180E+05</totfact>
</mgrwt>
</event>
<event>
 8    1  0.1241100E-024  0.8007028E+02  0.7818608E-02  0.1328852E+00
          1   -1    0    0  501    0  0.00000000000E+00  0.00000000000E+00  0.72623218042E+02  0.72623218217E+02  0.50400000000E-02 0. -1.
         -2   -1    0    0    0  501 -0.00000000000E+00 -0.00000000000E+00 -0.22070246168E+02  0.22070246315E+02  0.25500000000E-02 0.  1.
        -24    2    1    2    0    0  0.00000000000E+00  0.00000000000E+00  0.50552971874E+02  0.94693464532E+02  0.80070277006E+02 0.  0.
         66    2    3    3    0    0  0.33624293453E+02  0.14490435351E+02  0.62140304169E+01  0.37191127880E+02  0.19999980262E+01 0.  0.
         13    1    3    3    0    0 -0.33624293453E+02 -0.14490435351E+02  0.44338941457E+02  0.57502336652E+02  0.10566000000E+00 0. -1.
         13    1    4    4    0    0  0.45978085196E+01  0.24881212445E+01  0.78095198875E+00  0.52869311093E+01  0.10566000000E+00 0. -1.
        -13    1    4    4    0    0  0.14821575982E+02  0.66622676227E+01  0.23639177252E+01  0.16421455341E+02  0.10566000000E+00 0.  1.
         14    1    4    4    0    0  0.14204908952E+02  0.53400464834E+01  0.30691607029E+01  0.15482741430E+02  0.00000000000E+00 0. -1.
<mgrwt>
<rscale>  0 0.80070277E+02</rscale>
<asrwt>0</asrwt>
<pdfrwt beam="1">  1        1 0.11172803E-01 0.80070277E+02</pdfrwt>
<pdfrwt beam="2">  1       -2 0.33954226E-02 0.80070277E+02</pdfrwt>
<totfact> 0.13918338E+05</totfact>
</mgrwt>
</event>
<event>
 8    1  0.1241100E-024  0.7599477E+02  0.7818608E-02  0.1340818E+00
          1   -1    0    0  501    0  0.00000000000E+00  0.00000000000E+00  0.77115010657E+01  0.77115027127E+01  0.50400000000E-02 0. -1.
         -2   -1    0    0    0  501 -0.00000000000E+00 -0.00000000000E+00 -0.18722697109E+03  0.18722697110E+03  0.25500000000E-02 0.  1.
        -24    2    1    2    0    0  0.35527136788E-14 -0.35527136788E-14 -0.17951547002E+03  0.19493847382E+03  0.75994766907E+02 0.  0.
         66    2    3    3    0    0 -0.17500084592E+02  0.20527970167E+02 -0.15836970367E+03  0.16066304357E+03  0.20000023080E+01 0.  0.
         13    1    3    3    0    0  0.17500084592E+02 -0.20527970167E+02 -0.21145766350E+02  0.34275430245E+02  0.10566000000E+00 0. -1.
         13    1    4    4    0    0 -0.81011180872E+01  0.10113378359E+02 -0.76508104264E+02  0.77597742997E+02  0.10566000000E+00 0. -1.
        -13    1    4    4    0    0 -0.46022912487E+01  0.60682405948E+01 -0.44379979139E+02  0.45028861202E+02  0.10566000000E+00 0.  1.
         14    1    4    4    0    0 -0.47966752558E+01  0.43463512133E+01 -0.37481620267E+02  0.38036439374E+02  0.00000000000E+00 0. -1.
<mgrwt>
<rscale>  0 0.75994767E+02</rscale>
<asrwt>0</asrwt>
<pdfrwt beam="1">  1        1 0.11863851E-02 0.75994767E+02</pdfrwt>
<pdfrwt beam="2">  1       -2 0.28804146E-01 0.75994767E+02</pdfrwt>
<totfact> 0.99674159E+04</totfact>
</mgrwt>
</event>
<event>
 8    1  0.1241100E-024  0.7947004E+02  0.7818608E-02  0.1330562E+00
         -2   -1    0    0    0  501 -0.00000000000E+00  0.00000000000E+00  0.91737999158E+01  0.91738002702E+01  0.25500000000E-02 0.  1.
          1   -1    0    0  501    0  0.00000000000E+00 -0.00000000000E+00 -0.17210662761E+03  0.17210662769E+03  0.50400000000E-02 0. -1.
        -24    2    1    2    0    0  0.00000000000E+00  0.00000000000E+00 -0.16293282770E+03  0.18128042796E+03  0.79470039756E+02 0.  0.
         66    2    3    3    0    0 -0.12636575605E+02 -0.27888062312E+02 -0.13920079825E+03  0.14254223688E+03  0.19999992317E+01 0.  0.
         13    1    3    3    0    0  0.12636575605E+02  0.27888062312E+02 -0.23732029443E+02  0.38738191079E+02  0.10566000000E+00 0. -1.
         13    1    4    4    0    0 -0.69128424802E+01 -0.16354964815E+02 -0.81805202934E+02  0.83710063053E+02  0.10566000000E+00 0. -1.
        -13    1    4    4    0    0 -0.57024642226E+01 -0.11318900553E+02 -0.55754053063E+02  0.57176579165E+02  0.10566000000E+00 0.  1.
         14    1    4    4    0    0 -0.21268902657E-01 -0.21419694471E+00 -0.16415422559E+01  0.16555946591E+01  0.00000000000E+00 0. -1.
<mgrwt>
<rscale>  0 0.79470040E+02</rscale>
<asrwt>0</asrwt>
<pdfrwt beam="1">  1        1 0.26477941E-01 0.79470040E+02</pdfrwt>
<pdfrwt beam="2">  1       -2 0.14113540E-02 0.79470040E+02</pdfrwt>
<totfact> 0.16488751E+05</totfact>
</mgrwt>
</event>
<event>
 8    1  0.1241100E-024  0.7720524E+02  0.7818608E-02  0.1337175E+00
         -2   -1    0    0    0  501 -0.00000000000E+00  0.00000000000E+00  0.70042939065E+01  0.70042943707E+01  0.25500000000E-02 0.  1.
          1   -1    0    0  501    0  0.00000000000E+00 -0.00000000000E+00 -0.21274979281E+03  0.21274979287E+03  0.50400000000E-02 0. -1.
        -24    2    1    2    0    0  0.00000000000E+00  0.35527136788E-14 -0.20574549890E+03  0.21975408724E+03  0.77205236479E+02 0.  0.
         66    2    3    3    0    0 -0.22745299896E+02  0.31108963061E+02 -0.97977993811E+02  0.10530338795E+03  0.19999981240E+01 0.  0.
         13    1    3    3    0    0  0.22745299896E+02 -0.31108963061E+02 -0.10776750509E+03  0.11445069929E+03  0.10566000000E+00 0. -1.
         13    1    4    4    0    0 -0.12984711411E+02  0.17457086386E+02 -0.55965550410E+02  0.60045870734E+02  0.10566000000E+00 0. -1.
        -13    1    4    4    0    0 -0.24931568831E+01  0.39781995898E+01 -0.13055060137E+02  0.13873992303E+02  0.10566000000E+00 0.  1.
         14    1    4    4    0    0 -0.72674316021E+01  0.96736770850E+01 -0.28957383265E+02  0.31383524914E+02  0.00000000000E+00 0. -1.
<mgrwt>
<rscale>  0 0.77205236E+02</rscale>
<asrwt>0</asrwt>
<pdfrwt beam="1">  1        1 0.32730733E-01 0.77205236E+02</pdfrwt>
<pdfrwt beam="2">  1       -2 0.10775839E-02 0.77205236E+02</pdfrwt>
<totfact> 0.18540945E+05</totfact>
</mgrwt>
</event>
<event>
 8    1  0.1241100E-024  0.7924280E+02  0.7818608E-02  0.1331214E+00
          1   -1    0    0  501    0  0.00000000000E+00  0.00000000000E+00  0.55304324393E+02  0.55304324622E+02  0.50400000000E-02 0. -1.
         -2   -1    0    0    0  501 -0.00000000000E+00 -0.00000000000E+00 -0.28385761188E+02  0.28385761302E+02  0.25500000000E-02 0.  1.
        -24    2    1    2    0    0  0.35527136788E-14  0.00000000000E+00  0.26918563205E+02  0.83690085924E+02  0.79242800537E+02 0.  0.
         66    2    3    3    0    0  0.31614490372E+02  0.15395341858E+02 -0.57570132093E+01  0.35688033776E+02  0.20000003170E+01 0.  0.
         13    1    3    3    0    0 -0.31614490372E+02 -0.15395341858E+02  0.32675576414E+02  0.48002052149E+02  0.10566000000E+00 0. -1.
         13    1    4    4    0    0  0.54698345329E+01  0.27060911707E+01 -0.13945380126E+01  0.62608241906E+01  0.10566000000E+00 0. -1.
        -13    1    4    4    0    0  0.87760742749E+01  0.36246897158E+01 -0.98729660828E+00  0.95469248370E+01  0.10566000000E+00 0.  1.
         14    1    4    4    0    0  0.17368581565E+02  0.90645609712E+01 -0.33751785884E+01  0.19880284748E+02  0.00000000000E+00 0. -1.
<mgrwt>
<rscale>  0 0.79242801E+02</rscale>
<asrwt>0</asrwt>
<pdfrwt beam="1">  1        1 0.85083576E-02 0.79242801E+02</pdfrwt>
<pdfrwt beam="2">  1       -2 0.43670402E-02 0.79242801E+02</pdfrwt>
<totfact> 0.13723039E+05</totfact>
</mgrwt>
</event>
<event>
 8    1  0.1241100E-024  0.7955836E+02  0.7818608E-02  0.1330309E+00
         -2   -1    0    0    0  501 -0.00000000000E+00  0.00000000000E+00  0.75195167994E+01  0.75195172318E+01  0.25500000000E-02 0.  1.
          1   -1    0    0  501    0  0.00000000000E+00 -0.00000000000E+00 -0.21043683158E+03  0.21043683164E+03  0.50400000000E-02 0. -1.
        -24    2    1    2    0    0  0.00000000000E+00 -0.17763568394E-14 -0.20291731479E+03  0.21795634888E+03  0.79558364589E+02 0.  0.
         66    2    3    3    0    0 -0.35500110876E+02  0.15933526521E+02 -0.12382000910E+03  0.12980573872E+03  0.20000031357E+01 0.  0.
         13    1    3    3    0    0  0.35500110876E+02 -0.15933526521E+02 -0.79097305684E+02  0.88150610152E+02  0.10566000000E+00 0. -1.
         13    1    4    4    0    0 -0.36902996577E+01  0.21055689314E+01 -0.13974719071E+02  0.14606699464E+02  0.10566000000E+00 0. -1.
        -13    1    4    4    0    0 -0.81857881252E+01  0.41283138938E+01 -0.29834843016E+02  0.31211842699E+02  0.10566000000E+00 0.  1.
         14    1    4    4    0    0 -0.23624023093E+02  0.96996436953E+01 -0.80010447014E+02  0.83987196561E+02  0.00000000000E+00 0. -1.
<mgrwt>
<rscale>  0 0.79558365E+02</rscale>
<asrwt>0</asrwt>
<pdfrwt beam="1">  1        1 0.32374893E-01 0.79558365E+02</pdfrwt>
<pdfrwt beam="2">  1       -2 0.11568489E-02 0.79558365E+02</pdfrwt>
<totfact> 0.17088676E+05</totfact>
</mgrwt>
</event>
<event>
 8    1  0.1241100E-024  0.8014761E+02  0.7818608E-02  0.1328633E+00
          1   -1    0    0  501    0  0.00000000000E+00  0.00000000000E+00  0.70825305530E+02  0.70825305709E+02  0.50400000000E-02 0. -1.
         -2   -1    0    0    0  501 -0.00000000000E+00 -0.00000000000E+00 -0.22674235579E+02  0.22674235722E+02  0.25500000000E-02 0.  1.
        -24    2    1    2    0    0 -0.35527136788E-14 -0.17763568394E-14  0.48151069951E+02  0.93499541432E+02  0.80147605769E+02 0.  0.
         66    2    3    3    0    0  0.27965997774E+02  0.11543278254E+02 -0.65213915688E+01  0.31014074986E+02  0.19999987154E+01 0.  0.
         13    1    3    3    0    0 -0.27965997774E+02 -0.11543278254E+02  0.54672461520E+02  0.62485466446E+02  0.10566000000E+00 0. -1.
         13    1    4    4    0    0  0.10257134801E+02  0.49350638650E+01 -0.22187026750E+01  0.11597304655E+02  0.10566000000E+00 0. -1.
        -13    1    4    4    0    0  0.15979411155E+02  0.60718218881E+01 -0.42016608132E+01  0.17603230372E+02  0.10566000000E+00 0.  1.
         14    1    4    4    0    0  0.17294518188E+01  0.53639250059E+00 -0.10102808052E+00  0.18135399585E+01  0.00000000000E+00 0. -1.
<mgrwt>
<rscale>  0 0.80147606E+02</rscale>
<asrwt>0</asrwt>
<pdfrwt beam="1">  1        1 0.10896201E-01 0.80147606E+02</pdfrwt>
<pdfrwt beam="2">  1       -2 0.34883439E-02 0.80147606E+02</pdfrwt>
<totfact> 0.13826463E+05</totfact>
</mgrwt>
</event>
<event>
 8    1  0.1241100E-024  0.8205002E+02  0.7818608E-02  0.1323332E+00
         -2   -1    0    0    0  501 -0.00000000000E+00  0.00000000000E+00  0.53696437433E+03  0.53696437433E+03  0.25500000000E-02 0.  1.
          1   -1    0    0  501    0  0.00000000000E+00 -0.00000000000E+00 -0.31343802882E+01  0.31343843403E+01  0.50400000000E-02 0. -1.
        -24    2    1    2    0    0  0.00000000000E+00  0.00000000000E+00  0.53382999404E+03  0.54009875867E+03  0.82050024893E+02 0.  0.
         66    2    3    3    0    0  0.27618514984E+02 -0.30131134709E+02  0.28827980383E+03  0.29116990393E+03  0.20000022358E+01 0.  0.
         13    1    3    3    0    0 -0.27618514984E+02  0.30131134709E+02  0.24555019021E+03  0.24892885475E+03  0.10566000000E+00 0. -1.
         13    1    4    4    0    0  0.16843338890E+01 -0.17173826011E+01  0.15068070379E+02  0.15259236305E+02  0.10566000000E+00 0. -1.
        -13    1    4    4    0    0  0.22654635239E+02 -0.25336213303E+02  0.23898721312E+03  0.24139191246E+03  0.10566000000E+00 0.  1.
         14    1    4    4    0    0  0.32795458562E+01 -0.30775388054E+01  0.34224520330E+02  0.34518755163E+02  0.00000000000E+00 0. -1.
<mgrwt>
<rscale>  0 0.82050025E+02</rscale>
<asrwt>0</asrwt>
<pdfrwt beam="1">  1        1 0.48221246E-03 0.82050025E+02</pdfrwt>
<pdfrwt beam="2">  1       -2 0.82609939E-01 0.82050025E+02</pdfrwt>
<totfact> 0.44629005E+04</totfact>
</mgrwt>
</event>
<event>
 8    1  0.1241100E-024  0.8114670E+02  0.7818608E-02  0.1325828E+00
         -2   -1    0    0    0  501 -0.00000000000E+00  0.00000000000E+00  0.15236814647E+02  0.15236814860E+02  0.25500000000E-02 0.  1.
          1   -1    0    0  501    0  0.00000000000E+00 -0.00000000000E+00 -0.10804072968E+03  0.10804072979E+03  0.50400000000E-02 0. -1.
        -24    2    1    2    0    0  0.17763568394E-14  0.00000000000E+00 -0.92803915029E+02  0.12327754465E+03  0.81146696612E+02 0.  0.
         66    2    3    3    0    0  0.15537952073E+02 -0.35575215029E+02 -0.64222653912E+02  0.75070454614E+02  0.20000003801E+01 0.  0.
         13    1    3    3    0    0 -0.15537952073E+02  0.35575215029E+02 -0.28581261117E+02  0.48207090039E+02  0.10566000000E+00 0. -1.
         13    1    4    4    0    0  0.34241188359E+01 -0.69932724188E+01 -0.12342745907E+02  0.14594005258E+02  0.10566000000E+00 0.  1.
        -13    1    4    4    0    0  0.81306918181E+01 -0.20173400905E+02 -0.37403950505E+02  0.43268243909E+02  0.10566000000E+00 0.  1.
        -14    1    4    4    0    0  0.39831414191E+01 -0.84085417053E+01 -0.14475957500E+02  0.17208205447E+02  0.00000000000E+00 0.  1.
<mgrwt>
<rscale>  0 0.81146697E+02</rscale>
<asrwt>0</asrwt>
<pdfrwt beam="1">  1        1 0.16621650E-01 0.81146697E+02</pdfrwt>
<pdfrwt beam="2">  1       -2 0.23441254E-02 0.81146697E+02</pdfrwt>
<totfact> 0.14332056E+05</totfact>
</mgrwt>
</event>
<event>
 8    1  0.1241100E-024  0.8193929E+02  0.7818608E-02  0.1323636E+00
         -2   -1    0    0    0  501 -0.00000000000E+00  0.00000000000E+00  0.10590551597E+03  0.10590551600E+03  0.25500000000E-02 0.  1.
          1   -1    0    0  501    0  0.00000000000E+00 -0.00000000000E+00 -0.15849142402E+02  0.15849143203E+02  0.50400000000E-02 0. -1.
        -24    2    1    2    0    0  0.00000000000E+00  0.17763568394E-14  0.90056373569E+02  0.12175465921E+03  0.81939286168E+02 0.  0.
         66    2    3    3    0    0 -0.30054493294E+02  0.10233254626E+02  0.83474186262E+02  0.89330464209E+02  0.19999990791E+01 0.  0.
         13    1    3    3    0    0  0.30054493294E+02 -0.10233254626E+02  0.65821873074E+01  0.32424194996E+02  0.10566000000E+00 0. -1.
         13    1    4    4    0    0 -0.21444518444E+01  0.37952552009E+00  0.65954161433E+01  0.69464661140E+01  0.10566000000E+00 0. -1.
        -13    1    4    4    0    0 -0.10251284293E+02  0.34054704797E+01  0.27109089143E+02  0.29182185269E+02  0.10566000000E+00 0.  1.
        -14    1    4    4    0    0 -0.17658757156E+02  0.64482586259E+01  0.49769680975E+02  0.53201812826E+02  0.00000000000E+00 0.  1.
<mgrwt>
<rscale>  0 0.81939286E+02</rscale>
<asrwt>0</asrwt>
<pdfrwt beam="1">  1        1 0.24383296E-02 0.81939286E+02</pdfrwt>
<pdfrwt beam="2">  1       -2 0.16293157E-01 0.81939286E+02</pdfrwt>
<totfact> 0.98369937E+04</totfact>
</mgrwt>
</event>
<event>
 8    1  0.1241100E-024  0.8133830E+02  0.7818608E-02  0.1325296E+00
          1   -1    0    0  501    0  0.00000000000E+00  0.00000000000E+00  0.37709657956E+02  0.37709658292E+02  0.50400000000E-02 0. -1.
         -2   -1    0    0    0  501 -0.00000000000E+00 -0.00000000000E+00 -0.43860910347E+02  0.43860910421E+02  0.25500000000E-02 0.  1.
        -24    2    1    2    0    0  0.17763568394E-14  0.35527136788E-14 -0.61512523916E+01  0.81570568714E+02  0.81338304471E+02 0.  0.
         66    2    3    3    0    0 -0.14844077617E+02 -0.31244159393E+02  0.18324284059E+02  0.39195963287E+02  0.20000038078E+01 0.  0.
         13    1    3    3    0    0  0.14844077617E+02  0.31244159393E+02 -0.24475536451E+02  0.42374605427E+02  0.10566000000E+00 0. -1.
         13    1    4    4    0    0 -0.11146045262E+01 -0.29647913835E+01  0.21194464787E+01  0.38125514566E+01  0.10566000000E+00 0. -1.
        -13    1    4    4    0    0 -0.34502581234E+01 -0.60996847930E+01  0.36185108577E+01  0.78876625533E+01  0.10566000000E+00 0.  1.
        -14    1    4    4    0    0 -0.10279214967E+02 -0.22179683217E+02  0.12586326723E+02  0.27495749277E+02  0.00000000000E+00 0.  1.
<mgrwt>
<rscale>  0 0.81338304E+02</rscale>
<asrwt>0</asrwt>
<pdfrwt beam="1">  1        1 0.58014859E-02 0.81338304E+02</pdfrwt>
<pdfrwt beam="2">  1       -2 0.67478324E-02 0.81338304E+02</pdfrwt>
<totfact> 0.11998246E+05</totfact>
</mgrwt>
</event>
<event>
 8    1  0.1241100E-024  0.7972412E+02  0.7818608E-02  0.1329836E+00
         -2   -1    0    0    0  501 -0.00000000000E+00  0.00000000000E+00  0.95651160163E+01  0.95651163562E+01  0.25500000000E-02 0.  1.
          1   -1    0    0  501    0  0.00000000000E+00 -0.00000000000E+00 -0.16612281169E+03  0.16612281177E+03  0.50400000000E-02 0. -1.
        -24    2    1    2    0    0  0.00000000000E+00  0.00000000000E+00 -0.15655769568E+03  0.17568792813E+03  0.79724124414E+02 0.  0.
         66    2    3    3    0    0  0.87643615474E+01 -0.25448299225E+02 -0.13607144974E+02  0.30225558156E+02  0.20000011884E+01 0.  0.
         13    1    3    3    0    0 -0.87643615474E+01  0.25448299225E+02 -0.14295055070E+03  0.14546236997E+03  0.10566000000E+00 0. -1.
         13    1    4    4    0    0  0.31885660142E+01 -0.11004311331E+02 -0.61650064338E+01  0.13010775898E+02  0.10566000000E+00 0. -1.
        -13    1    4    4    0    0  0.34927476269E+01 -0.10075161869E+02 -0.55106086416E+01  0.12003588810E+02  0.10566000000E+00 0.  1.
        -14    1    4    4    0    0  0.20830479063E+01 -0.43688260246E+01 -0.19315298984E+01  0.52111934488E+01  0.00000000000E+00 0.  1.
<mgrwt>
<rscale>  0 0.79724124E+02</rscale>
<asrwt>0</asrwt>
<pdfrwt beam="1">  1        1 0.25557354E-01 0.79724124E+02</pdfrwt>
<pdfrwt beam="2">  1       -2 0.14715565E-02 0.79724124E+02</pdfrwt>
<totfact> 0.16240537E+05</totfact>
</mgrwt>
</event>
<event>
 8    1  0.1241100E-024  0.8469112E+02  0.7818608E-02  0.1316242E+00
         -2   -1    0    0    0  501 -0.00000000000E+00  0.00000000000E+00  0.17689568924E+02  0.17689569108E+02  0.25500000000E-02 0.  1.
          1   -1    0    0  501    0  0.00000000000E+00 -0.00000000000E+00 -0.10136743950E+03  0.10136743962E+03  0.50400000000E-02 0. -1.
        -24    2    1    2    0    0  0.00000000000E+00 -0.71054273576E-14 -0.83677870573E+02  0.11905700873E+03  0.84691117032E+02 0.  0.
         66    2    3    3    0    0 -0.11024212074E+02  0.35342322766E+02 -0.13034190439E+02  0.39300167411E+02  0.20000019370E+01 0.  0.
         13    1    3    3    0    0  0.11024212074E+02 -0.35342322766E+02 -0.70643680134E+02  0.79756841319E+02  0.10566000000E+00 0. -1.
         13    1    4    4    0    0 -0.15002274634E+01  0.41909122209E+01 -0.21197641574E+01  0.49314289820E+01  0.10566000000E+00 0. -1.
        -13    1    4    4    0    0 -0.34713081132E+01  0.10130000346E+02 -0.38824974434E+01  0.11390866405E+02  0.10566000000E+00 0.  1.
         14    1    4    4    0    0 -0.60526764972E+01  0.21021410199E+02 -0.70319288384E+01  0.22977872023E+02  0.00000000000E+00 0. -1.
<mgrwt>
<rscale>  0 0.84691117E+02</rscale>
<asrwt>0</asrwt>
<pdfrwt beam="1">  1        1 0.15594990E-01 0.84691117E+02</pdfrwt>
<pdfrwt beam="2">  1       -2 0.27214722E-02 0.84691117E+02</pdfrwt>
<totfact> 0.12623399E+05</totfact>
</mgrwt>
</event>
<event>
 8    1  0.1241100E-024  0.7922048E+02  0.7818608E-02  0.1331278E+00
         -2   -1    0    0    0  501 -0.00000000000E+00  0.00000000000E+00  0.75355865200E+02  0.75355865243E+02  0.25500000000E-02 0.  1.
          1   -1    0    0  501    0  0.00000000000E+00 -0.00000000000E+00 -0.20820820992E+02  0.20820821602E+02  0.50400000000E-02 0. -1.
        -24    2    1    2    0    0  0.00000000000E+00  0.00000000000E+00  0.54535044209E+02  0.96176686845E+02  0.79220477439E+02 0.  0.
         66    2    3    3    0    0 -0.31074986218E+02  0.44172016669E+01  0.56568089188E+02  0.64723374222E+02  0.20000043260E+01 0.  0.
         13    1    3    3    0    0  0.31074986218E+02 -0.44172016669E+01 -0.20330449794E+01  0.31453312623E+02  0.10566000000E+00 0. -1.
         13    1    4    4    0    0 -0.42742862191E+01  0.27543365389E+00  0.83592324071E+01  0.93932591177E+01  0.10566000000E+00 0. -1.
        -13    1    4    4    0    0 -0.17553296444E+02  0.32643158213E+01  0.30982743704E+02  0.35759132334E+02  0.10566000000E+00 0.  1.
        -14    1    4    4    0    0 -0.92474035552E+01  0.87745219172E+00  0.17226113077E+02  0.19570982770E+02  0.00000000000E+00 0.  1.
<mgrwt>
<rscale>  0 0.79220477E+02</rscale>
<asrwt>0</asrwt>
<pdfrwt beam="1">  1        1 0.32032033E-02 0.79220477E+02</pdfrwt>
<pdfrwt beam="2">  1       -2 0.11593210E-01 0.79220477E+02</pdfrwt>
<totfact> 0.11604452E+05</totfact>
</mgrwt>
</event>
<event>
 8    1  0.1241100E-024  0.7945290E+02  0.7818608E-02  0.1330611E+00
          1   -1    0    0  501    0  0.00000000000E+00  0.00000000000E+00  0.36520105923E+03  0.36520105927E+03  0.50400000000E-02 0. -1.
         -2   -1    0    0    0  501 -0.00000000000E+00 -0.00000000000E+00 -0.43214293655E+01  0.43214301178E+01  0.25500000000E-02 0.  1.
        -24    2    1    2    0    0  0.00000000000E+00  0.00000000000E+00  0.36087962987E+03  0.36952248938E+03  0.79452897420E+02 0.  0.
         66    2    3    3    0    0 -0.33618665182E+02  0.20213443095E+02  0.15211600617E+03  0.15710530629E+03  0.20000003416E+01 0.  0.
         13    1    3    3    0    0  0.33618665182E+02 -0.20213443095E+02  0.20876362369E+03  0.21241718309E+03  0.10566000000E+00 0. -1.
         13    1    4    4    0    0 -0.63604749090E+01  0.37619542354E+01  0.31470537746E+02  0.32326673983E+02  0.10566000000E+00 0. -1.
        -13    1    4    4    0    0 -0.14438446810E+02  0.82997133399E+01  0.62235863518E+02  0.64425677021E+02  0.10566000000E+00 0.  1.
         14    1    4    4    0    0 -0.12819743464E+02  0.81517755199E+01  0.58409604907E+02  0.60352955288E+02  0.00000000000E+00 0. -1.
<mgrwt>
<rscale>  0 0.79452897E+02</rscale>
<asrwt>0</asrwt>
<pdfrwt beam="1">  1        1 0.56184749E-01 0.79452897E+02</pdfrwt>
<pdfrwt beam="2">  1       -2 0.66483570E-03 0.79452897E+02</pdfrwt>
<totfact> 0.19043242E+05</totfact>
</mgrwt>
</event>
<event>
 8    1  0.1241100E-024  0.7904565E+02  0.7818608E-02  0.1331782E+00
          1   -1    0    0  501    0  0.00000000000E+00  0.00000000000E+00  0.89064820895E+03  0.89064820896E+03  0.50400000000E-02 0. -1.
         -2   -1    0    0    0  501 -0.00000000000E+00 -0.00000000000E+00 -0.17538383689E+01  0.17538402227E+01  0.25500000000E-02 0.  1.
        -24    2    1    2    0    0 -0.35527136788E-14  0.00000000000E+00  0.88889437058E+03  0.89240204918E+03  0.79045653532E+02 0.  0.
         66    2    3    3    0    0  0.24621133976E+02 -0.61905246177E+01  0.78633096413E+03  0.78674322873E+03  0.19999926507E+01 0.  0.
         13    1    3    3    0    0 -0.24621133976E+02  0.61905246177E+01  0.10256340645E+03  0.10565882045E+03  0.10566000000E+00 0. -1.
         13    1    4    4    0    0  0.11802312250E+02 -0.30869013243E+01  0.40024023684E+03  0.40042612538E+03  0.10566000000E+00 0. -1.
        -13    1    4    4    0    0  0.12763551391E+02 -0.31545616519E+01  0.38398805101E+03  0.38421308409E+03  0.10566000000E+00 0.  1.
         14    1    4    4    0    0  0.55270335548E-01  0.50938358520E-01  0.21026762724E+01  0.21040192568E+01  0.00000000000E+00 0. -1.
<mgrwt>
<rscale>  0 0.79045654E+02</rscale>
<asrwt>0</asrwt>
<pdfrwt beam="1">  1        1 0.13702294E+00 0.79045654E+02</pdfrwt>
<pdfrwt beam="2">  1       -2 0.26982115E-03 0.79045654E+02</pdfrwt>
<totfact> 0.20260692E+05</totfact>
</mgrwt>
</event>
<event>
 8    1  0.1241100E-024  0.8350066E+02  0.7818608E-02  0.1319401E+00
         -2   -1    0    0    0  501 -0.00000000000E+00  0.00000000000E+00  0.73707024931E+01  0.73707029342E+01  0.25500000000E-02 0.  1.
          1   -1    0    0  501    0  0.00000000000E+00 -0.00000000000E+00 -0.23648898817E+03  0.23648898823E+03  0.50400000000E-02 0. -1.
        -24    2    1    2    0    0  0.00000000000E+00  0.00000000000E+00 -0.22911828568E+03  0.24385969116E+03  0.83500659519E+02 0.  0.
         66    2    3    3    0    0 -0.25045759719E+00  0.37116250891E+02 -0.58951467235E+02  0.69691852359E+02  0.19999967185E+01 0.  0.
         13    1    3    3    0    0  0.25045759719E+00 -0.37116250891E+02 -0.17016681844E+03  0.17416783880E+03  0.10566000000E+00 0. -1.
         13    1    4    4    0    0 -0.19140335429E+00  0.14430633689E+02 -0.21797421254E+02  0.26142275365E+02  0.10566000000E+00 0. -1.
        -13    1    4    4    0    0 -0.15837780611E+00  0.50093031334E+01 -0.73181535763E+01  0.88704417711E+01  0.10566000000E+00 0.  1.
        -14    1    4    4    0    0  0.99323563202E-01  0.17676314069E+02 -0.29835892405E+02  0.34679135223E+02  0.00000000000E+00 0.  1.
<mgrwt>
<rscale>  0 0.83500660E+02</rscale>
<asrwt>0</asrwt>
<pdfrwt beam="1">  1        1 0.36382916E-01 0.83500660E+02</pdfrwt>
<pdfrwt beam="2">  1       -2 0.11339544E-02 0.83500660E+02</pdfrwt>
<totfact> 0.15377384E+05</totfact>
</mgrwt>
</event>
<event>
 8    1  0.1241100E-024  0.7880408E+02  0.7818608E-02  0.1332480E+00
         -2   -1    0    0    0  501 -0.00000000000E+00  0.00000000000E+00  0.25575954363E+02  0.25575954490E+02  0.25500000000E-02 0.  1.
          1   -1    0    0  501    0  0.00000000000E+00 -0.00000000000E+00 -0.60702360608E+02  0.60702360818E+02  0.50400000000E-02 0. -1.
        -24    2    1    2    0    0  0.35527136788E-14  0.00000000000E+00 -0.35126406245E+02  0.86278315308E+02  0.78804081599E+02 0.  0.
         66    2    3    3    0    0 -0.24611790891E+02  0.19283648026E+02  0.86313883467E+01  0.32497695344E+02  0.20000014583E+01 0.  0.
         13    1    3    3    0    0  0.24611790891E+02 -0.19283648026E+02 -0.43757794592E+02  0.53780619964E+02  0.10566000000E+00 0. -1.
         13    1    4    4    0    0 -0.26758184708E+01  0.22298093836E+01  0.10294587936E+01  0.36335937884E+01  0.10566000000E+00 0.  1.
        -13    1    4    4    0    0 -0.54310893624E+01  0.50454418665E+01  0.25136990392E+01  0.78283499018E+01  0.10566000000E+00 0. -1.
        -14    1    4    4    0    0 -0.16504883058E+02  0.12008396776E+02  0.50882305139E+01  0.21035751654E+02  0.00000000000E+00 0.  1.
<mgrwt>
<rscale>  0 0.78804082E+02</rscale>
<asrwt>0</asrwt>
<pdfrwt beam="1">  1        1 0.93388248E-02 0.78804082E+02</pdfrwt>
<pdfrwt beam="2">  1       -2 0.39347622E-02 0.78804082E+02</pdfrwt>
<totfact> 0.14137092E+05</totfact>
</mgrwt>
</event>
<event>
 8    1  0.1241100E-024  0.8245668E+02  0.7818608E-02  0.1322221E+00
          1   -1    0    0  501    0  0.00000000000E+00  0.00000000000E+00  0.22523495438E+03  0.22523495443E+03  0.50400000000E-02 0. -1.
         -2   -1    0    0    0  501 -0.00000000000E+00 -0.00000000000E+00 -0.75466798202E+01  0.75466802510E+01  0.25500000000E-02 0.  1.
        -24    2    1    2    0    0  0.00000000000E+00  0.00000000000E+00  0.21768827456E+03  0.23278163468E+03  0.82456682972E+02 0.  0.
         66    2    3    3    0    0  0.19897657165E+02 -0.35387723782E+02  0.12878281965E+03  0.13504526053E+03  0.20000003942E+01 0.  0.
         13    1    3    3    0    0 -0.19897657165E+02  0.35387723782E+02  0.88905454910E+02  0.97736374149E+02  0.10566000000E+00 0. -1.
         13    1    4    4    0    0  0.68276955679E+01 -0.11766612702E+02  0.45124132603E+02  0.47130341697E+02  0.10566000000E+00 0. -1.
        -13    1    4    4    0    0  0.16510229476E+01 -0.32872822381E+01  0.12682272842E+02  0.13205427284E+02  0.10566000000E+00 0.  1.
        -14    1    4    4    0    0  0.11418938650E+02 -0.20333828842E+02  0.70976414200E+02  0.74709491552E+02  0.00000000000E+00 0.  1.
<mgrwt>
<rscale>  0 0.82456683E+02</rscale>
<asrwt>0</asrwt>
<pdfrwt beam="1">  1        1 0.34651533E-01 0.82456683E+02</pdfrwt>
<pdfrwt beam="2">  1       -2 0.11610277E-02 0.82456683E+02</pdfrwt>
<totfact> 0.15748393E+05</totfact>
</mgrwt>
</event>
<event>
 8    1  0.1241100E-024  0.7798788E+02  0.7818608E-02  0.1334860E+00
         -2   -1    0    0    0  501 -0.00000000000E+00  0.00000000000E+00  0.50160371542E+02  0.50160371607E+02  0.25500000000E-02 0.  1.
          1   -1    0    0  501    0  0.00000000000E+00 -0.00000000000E+00 -0.30313320615E+02  0.30313321034E+02  0.50400000000E-02 0. -1.
        -24    2    1    2    0    0  0.00000000000E+00  0.71054273576E-14  0.19847050927E+02  0.80473692640E+02  0.77987882243E+02 0.  0.
         66    2    3    3    0    0 -0.14543292672E+02  0.32473279686E+02  0.26326813984E+02  0.44307136976E+02  0.19999992864E+01 0.  0.
         13    1    3    3    0    0  0.14543292672E+02 -0.32473279686E+02 -0.64797630566E+01  0.36166555664E+02  0.10566000000E+00 0. -1.
         13    1    4    4    0    0 -0.42152966972E+01  0.10383688273E+02  0.89644214869E+01  0.14351366661E+02  0.10566000000E+00 0. -1.
        -13    1    4    4    0    0 -0.26988260257E+01  0.56509514595E+01  0.38754490468E+01  0.73652687436E+01  0.10566000000E+00 0.  1.
        -14    1    4    4    0    0 -0.76291699491E+01  0.16438639953E+02  0.13486943450E+02  0.22590501572E+02  0.00000000000E+00 0.  1.
<mgrwt>
<rscale>  0 0.77987882E+02</rscale>
<asrwt>0</asrwt>
<pdfrwt beam="1">  1        1 0.46635878E-02 0.77987882E+02</pdfrwt>
<pdfrwt beam="2">  1       -2 0.77169803E-02 0.77987882E+02</pdfrwt>
<totfact> 0.13034086E+05</totfact>
</mgrwt>
</event>
<event>
 8    1  0.1241100E-024  0.8430580E+02  0.7818608E-02  0.1317258E+00
          1   -1    0    0  501    0  0.00000000000E+00  0.00000000000E+00  0.99728956648E+02  0.99728956775E+02  0.50400000000E-02 0. -1.
         -2   -1    0    0    0  501 -0.00000000000E+00 -0.00000000000E+00 -0.17816959690E+02  0.17816959872E+02  0.25500000000E-02 0.  1.
        -24    2    1    2    0    0  0.00000000000E+00  0.00000000000E+00  0.81911996959E+02  0.11754591665E+03  0.84305796211E+02 0.  0.
         66    2    3    3    0    0 -0.18037662559E+02 -0.16568025929E+01 -0.12054271891E+02  0.21849662223E+02  0.20000007460E+01 0.  0.
         13    1    3    3    0    0  0.18037662559E+02  0.16568025929E+01  0.93966268850E+02  0.95696254425E+02  0.10566000000E+00 0. -1.
         13    1    4    4    0    0 -0.44756015280E+01 -0.12619048007E+00 -0.27005382944E+01  0.52298187531E+01  0.10566000000E+00 0. -1.
        -13    1    4    4    0    0 -0.10068796366E+02 -0.91231038888E+00 -0.76831183159E+01  0.12698599986E+02  0.10566000000E+00 0.  1.
        -14    1    4    4    0    0 -0.34932646647E+01 -0.61830172393E+00 -0.16706152808E+01  0.39212434834E+01  0.00000000000E+00 0.  1.
<mgrwt>
<rscale>  0 0.84305796E+02</rscale>
<asrwt>0</asrwt>
<pdfrwt beam="1">  1        1 0.15342917E-01 0.84305796E+02</pdfrwt>
<pdfrwt beam="2">  1       -2 0.27410707E-02 0.84305796E+02</pdfrwt>
<totfact> 0.12745029E+05</totfact>
</mgrwt>
</event>
<event>
 8    1  0.1241100E-024  0.7810167E+02  0.7818608E-02  0.1334527E+00
         -2   -1    0    0    0  501 -0.00000000000E+00  0.00000000000E+00  0.20911563140E+02  0.20911563295E+02  0.25500000000E-02 0.  1.
          1   -1    0    0  501    0  0.00000000000E+00 -0.00000000000E+00 -0.72924609024E+02  0.72924609199E+02  0.50400000000E-02 0. -1.
        -24    2    1    2    0    0  0.00000000000E+00  0.71054273576E-14 -0.52013045885E+02  0.93836172494E+02  0.78101666603E+02 0.  0.
         66    2    3    3    0    0  0.21917613454E+02 -0.32197328076E+02 -0.28945067745E+02  0.48568165091E+02  0.19999996832E+01 0.  0.
         13    1    3    3    0    0 -0.21917613454E+02  0.32197328076E+02 -0.23067978139E+02  0.45268007403E+02  0.10566000000E+00 0. -1.
         13    1    4    4    0    0  0.83393979270E+01 -0.12729041729E+02 -0.11711961280E+02  0.19203001385E+02  0.10566000000E+00 0. -1.
        -13    1    4    4    0    0  0.33766248283E+01 -0.45934397001E+01 -0.34463972953E+01  0.66625897264E+01  0.10566000000E+00 0.  1.
        -14    1    4    4    0    0  0.10201590699E+02 -0.14874846647E+02 -0.13786709170E+02  0.22702573980E+02  0.00000000000E+00 0.  1.
<mgrwt>
<rscale>  0 0.78101667E+02</rscale>
<asrwt>0</asrwt>
<pdfrwt beam="1">  1        1 0.11219171E-01 0.78101667E+02</pdfrwt>
<pdfrwt beam="2">  1       -2 0.32171636E-02 0.78101667E+02</pdfrwt>
<totfact> 0.14906515E+05</totfact>
</mgrwt>
</event>
<event>
 8    1  0.1241100E-024  0.7972381E+02  0.7818608E-02  0.1329837E+00
          1   -1    0    0  501    0  0.00000000000E+00  0.00000000000E+00  0.30753953117E+03  0.30753953121E+03  0.50400000000E-02 0. -1.
         -2   -1    0    0    0  501 -0.00000000000E+00 -0.00000000000E+00 -0.51667217602E+01  0.51667223895E+01  0.25500000000E-02 0.  1.
        -24    2    1    2    0    0  0.35527136788E-14  0.35527136788E-14  0.30237280941E+03  0.31270625360E+03  0.79723805545E+02 0.  0.
         66    2    3    3    0    0 -0.31661085279E+02 -0.23463107510E+02  0.12840186367E+03  0.13432788367E+03  0.20000002701E+01 0.  0.
         13    1    3    3    0    0  0.31661085279E+02  0.23463107510E+02  0.17397094573E+03  0.17837836993E+03  0.10566000000E+00 0. -1.
         13    1    4    4    0    0 -0.77260034770E+01 -0.62925689099E+01  0.33986651842E+02  0.35417385853E+02  0.10566000000E+00 0. -1.
        -13    1    4    4    0    0 -0.93440619279E+01 -0.69742426716E+01  0.39108036709E+02  0.40809328020E+02  0.10566000000E+00 0.  1.
        -14    1    4    4    0    0 -0.14591019874E+02 -0.10196295929E+02  0.55307175121E+02  0.58101169795E+02  0.00000000000E+00 0.  1.
<mgrwt>
<rscale>  0 0.79723806E+02</rscale>
<asrwt>0</asrwt>
<pdfrwt beam="1">  1        1 0.47313770E-01 0.79723806E+02</pdfrwt>
<pdfrwt beam="2">  1       -2 0.79488039E-03 0.79723806E+02</pdfrwt>
<totfact> 0.18292670E+05</totfact>
</mgrwt>
</event>
<event>
 8    1  0.1241100E-024  0.8297522E+02  0.7818608E-02  0.1320814E+00
         -2   -1    0    0    0  501 -0.00000000000E+00  0.00000000000E+00  0.35847593676E+02  0.35847593767E+02  0.25500000000E-02 0.  1.
          1   -1    0    0  501    0  0.00000000000E+00 -0.00000000000E+00 -0.48014984871E+02  0.48014985135E+02  0.50400000000E-02 0. -1.
        -24    2    1    2    0    0  0.00000000000E+00  0.00000000000E+00 -0.12167391195E+02  0.83862578902E+02  0.82975217575E+02 0.  0.
         66    2    3    3    0    0  0.77075497473E+01 -0.22110125834E+02  0.28497915753E+02  0.36937720451E+02  0.20000005897E+01 0.  0.
         13    1    3    3    0    0 -0.77075497473E+01  0.22110125834E+02 -0.40665306947E+02  0.46924858451E+02  0.10566000000E+00 0. -1.
         13    1    4    4    0    0  0.21394982512E+00 -0.30056886006E+00  0.31507594099E+00  0.49654108742E+00  0.10566000000E+00 0. -1.
        -13    1    4    4    0    0  0.46861670438E+01 -0.11837137543E+02  0.16075399613E+02  0.20506282538E+02  0.10566000000E+00 0.  1.
        -14    1    4    4    0    0  0.28074328783E+01 -0.99724194314E+01  0.12107440198E+02  0.15934896826E+02  0.00000000000E+00 0.  1.
<mgrwt>
<rscale>  0 0.82975218E+02</rscale>
<asrwt>0</asrwt>
<pdfrwt beam="1">  1        1 0.73869208E-02 0.82975218E+02</pdfrwt>
<pdfrwt beam="2">  1       -2 0.55150144E-02 0.82975218E+02</pdfrwt>
<totfact> 0.11804298E+05</totfact>
</mgrwt>
</event>
<event>
 8    1  0.1241100E-024  0.7874606E+02  0.7818608E-02  0.1332648E+00
         -2   -1    0    0    0  501 -0.00000000000E+00  0.00000000000E+00  0.93114663461E+02  0.93114663496E+02  0.25500000000E-02 0.  1.
          1   -1    0    0  501    0  0.00000000000E+00 -0.00000000000E+00 -0.16648669903E+02  0.16648670666E+02  0.50400000000E-02 0. -1.
        -24    2    1    2    0    0  0.00000000000E+00  0.00000000000E+00  0.76465993558E+02  0.10976333416E+03  0.78746056127E+02 0.  0.
         66    2    3    3    0    0  0.35648553973E+02 -0.73138587044E+01  0.59115627798E+02  0.69447601680E+02  0.19999999194E+01 0.  0.
         13    1    3    3    0    0 -0.35648553973E+02  0.73138587044E+01  0.17350365760E+02  0.40315732481E+02  0.10566000000E+00 0. -1.
         13    1    4    4    0    0  0.23015630964E+02 -0.56075508249E+01  0.38596492431E+02  0.45286469138E+02  0.10566000000E+00 0. -1.
        -13    1    4    4    0    0  0.54529847779E+01 -0.52553357657E+00  0.89426983313E+01  0.10487814167E+02  0.10566000000E+00 0.  1.
         14    1    4    4    0    0  0.71799382303E+01 -0.11807743029E+01  0.11576437036E+02  0.13673318375E+02  0.00000000000E+00 0. -1.
<mgrwt>
<rscale>  0 0.78746056E+02</rscale>
<asrwt>0</asrwt>
<pdfrwt beam="1">  1        1 0.25613339E-02 0.78746056E+02</pdfrwt>
<pdfrwt beam="2">  1       -2 0.14325333E-01 0.78746056E+02</pdfrwt>
<totfact> 0.11243052E+05</totfact>
</mgrwt>
</event>
<event>
 8    1  0.1241100E-024  0.7983334E+02  0.7818608E-02  0.1329525E+00
          1   -1    0    0  501    0  0.00000000000E+00  0.00000000000E+00  0.27016059531E+02  0.27016060001E+02  0.50400000000E-02 0. -1.
         -2   -1    0    0    0  501 -0.00000000000E+00 -0.00000000000E+00 -0.58977533820E+02  0.58977533875E+02  0.25500000000E-02 0.  1.
        -24    2    1    2    0    0  0.00000000000E+00 -0.35527136788E-14 -0.31961474289E+02  0.85993593876E+02  0.79833341086E+02 0.  0.
         66    2    3    3    0    0  0.13424127158E+02 -0.24789050170E+02 -0.46393323977E+02  0.54323518920E+02  0.19999999723E+01 0.  0.
         13    1    3    3    0    0 -0.13424127158E+02  0.24789050170E+02  0.14431849688E+02  0.31670074956E+02  0.10566000000E+00 0. -1.
         13    1    4    4    0    0  0.34663082583E+01 -0.60126523244E+01 -0.11123716453E+02  0.13111655604E+02  0.10566000000E+00 0.  1.
        -13    1    4    4    0    0  0.19830455272E+01 -0.24953432927E+01 -0.52876802016E+01  0.61749440209E+01  0.10566000000E+00 0. -1.
         14    1    4    4    0    0  0.79747733725E+01 -0.16281054553E+02 -0.29981927322E+02  0.35036919295E+02  0.00000000000E+00 0. -1.
<mgrwt>
<rscale>  0 0.79833341E+02</rscale>
<asrwt>0</asrwt>
<pdfrwt beam="1">  1        1 0.41563169E-02 0.79833341E+02</pdfrwt>
<pdfrwt beam="2">  1       -2 0.90734667E-02 0.79833341E+02</pdfrwt>
<totfact> 0.11939589E+05</totfact>
</mgrwt>
</event>
<event>
 8    1  0.1241100E-024  0.7906368E+02  0.7818608E-02  0.1331730E+00
          1   -1    0    0  501    0  0.00000000000E+00  0.00000000000E+00  0.51092818737E+02  0.51092818986E+02  0.50400000000E-02 0. -1.
         -2   -1    0    0    0  501 -0.00000000000E+00 -0.00000000000E+00 -0.30586812888E+02  0.30586812995E+02  0.25500000000E-02 0.  1.
        -24    2    1    2    0    0  0.00000000000E+00  0.00000000000E+00  0.20506005849E+02  0.81679631981E+02  0.79063683222E+02 0.  0.
         66    2    3    3    0    0  0.22435155107E+02  0.24127666448E+01 -0.23241844836E+02  0.32455214959E+02  0.19999997779E+01 0.  0.
         13    1    3    3    0    0 -0.22435155107E+02 -0.24127666448E+01  0.43747850685E+02  0.49224417022E+02  0.10566000000E+00 0. -1.
         13    1    4    4    0    0  0.43360444058E+01  0.60913319542E+00 -0.48723577533E+01  0.65515920546E+01  0.10566000000E+00 0. -1.
        -13    1    4    4    0    0  0.12146663011E+02  0.53195929128E+00 -0.12778675311E+02  0.17638880625E+02  0.10566000000E+00 0.  1.
        -14    1    4    4    0    0  0.59524476901E+01  0.12716741581E+01 -0.55908117719E+01  0.82647422789E+01  0.00000000000E+00 0.  1.
<mgrwt>
<rscale>  0 0.79063683E+02</rscale>
<asrwt>0</asrwt>
<pdfrwt beam="1">  1        1 0.78604336E-02 0.79063683E+02</pdfrwt>
<pdfrwt beam="2">  1       -2 0.47056636E-02 0.79063683E+02</pdfrwt>
<totfact> 0.13640438E+05</totfact>
</mgrwt>
</event>
<event>
 8    1  0.1241100E-024  0.8129238E+02  0.7818608E-02  0.1325423E+00
          1   -1    0    0  501    0  0.00000000000E+00  0.00000000000E+00  0.11596149711E+02  0.11596150806E+02  0.50400000000E-02 0. -1.
         -2   -1    0    0    0  501 -0.00000000000E+00 -0.00000000000E+00 -0.14247078809E+03  0.14247078811E+03  0.25500000000E-02 0.  1.
        -24    2    1    2    0    0 -0.35527136788E-14  0.35527136788E-14 -0.13087463838E+03  0.15406693891E+03  0.81292377852E+02 0.  0.
         66    2    3    3    0    0 -0.21039572396E+02  0.14061182681E+02 -0.12569971635E+03  0.12823727676E+03  0.19999991195E+01 0.  0.
         13    1    3    3    0    0  0.21039572396E+02 -0.14061182681E+02 -0.51749220300E+01  0.25829662155E+02  0.10566000000E+00 0. -1.
         13    1    4    4    0    0 -0.11595965704E+02  0.70694858418E+01 -0.64139383849E+02  0.65561541892E+02  0.10566000000E+00 0. -1.
        -13    1    4    4    0    0 -0.63163467124E+01  0.42737335102E+01 -0.39439279742E+02  0.40170001052E+02  0.10566000000E+00 0.  1.
         14    1    4    4    0    0 -0.31272599801E+01  0.27179633288E+01 -0.22121052754E+02  0.22505733816E+02  0.00000000000E+00 0. -1.
<mgrwt>
<rscale>  0 0.81292378E+02</rscale>
<asrwt>0</asrwt>
<pdfrwt beam="1">  1        1 0.17840232E-02 0.81292378E+02</pdfrwt>
<pdfrwt beam="2">  1       -2 0.21918582E-01 0.81292378E+02</pdfrwt>
<totfact> 0.92211833E+04</totfact>
</mgrwt>
</event>
<event>
 8    1  0.1241100E-024  0.7900093E+02  0.7818608E-02  0.1331911E+00
         -2   -1    0    0    0  501 -0.00000000000E+00  0.00000000000E+00  0.86470022382E+02  0.86470022419E+02  0.25500000000E-02 0.  1.
          1   -1    0    0  501    0  0.00000000000E+00 -0.00000000000E+00 -0.18044250461E+02  0.18044251165E+02  0.50400000000E-02 0. -1.
        -24    2    1    2    0    0 -0.17763568394E-14  0.00000000000E+00  0.68425771921E+02  0.10451427358E+03  0.79000931132E+02 0.  0.
         66    2    3    3    0    0  0.14961535308E+02 -0.21095580547E+02  0.73689074588E+02  0.78121384837E+02  0.19999994570E+01 0.  0.
         13    1    3    3    0    0 -0.14961535308E+02  0.21095580547E+02 -0.52633026673E+01  0.26392888746E+02  0.10566000000E+00 0. -1.
         13    1    4    4    0    0  0.48907973406E+01 -0.78774024114E+01  0.27156504501E+02  0.28695997424E+02  0.10566000000E+00 0. -1.
        -13    1    4    4    0    0  0.41338122022E+01 -0.53798563975E+01  0.20758185464E+02  0.21839063303E+02  0.10566000000E+00 0.  1.
         14    1    4    4    0    0  0.59369257651E+01 -0.78383217380E+01  0.25774384623E+02  0.27586324110E+02  0.00000000000E+00 0. -1.
<mgrwt>
<rscale>  0 0.79000931E+02</rscale>
<asrwt>0</asrwt>
<pdfrwt beam="1">  1        1 0.27760387E-02 0.79000931E+02</pdfrwt>
<pdfrwt beam="2">  1       -2 0.13303080E-01 0.79000931E+02</pdfrwt>
<totfact> 0.11343328E+05</totfact>
</mgrwt>
</event>
<event>
 8    1  0.1241100E-024  0.7487388E+02  0.7818608E-02  0.1344262E+00
         -2   -1    0    0    0  501 -0.00000000000E+00  0.00000000000E+00  0.11554894813E+03  0.11554894816E+03  0.25500000000E-02 0.  1.
          1   -1    0    0  501    0  0.00000000000E+00 -0.00000000000E+00 -0.12129268959E+02  0.12129270006E+02  0.50400000000E-02 0. -1.
        -24    2    1    2    0    0  0.00000000000E+00  0.00000000000E+00  0.10341967917E+03  0.12767821817E+03  0.74873876311E+02 0.  0.
         66    2    3    3    0    0  0.27624921806E+02 -0.89772462429E+01  0.91948175214E+02  0.96447883202E+02  0.19999985036E+01 0.  0.
         13    1    3    3    0    0 -0.27624921806E+02  0.89772462429E+01  0.11471503960E+02  0.31230334965E+02  0.10566000000E+00 0. -1.
         13    1    4    4    0    0  0.78628138352E-01  0.10794886353E-01  0.32953188895E+00  0.35504114571E+00  0.10566000000E+00 0.  1.
        -13    1    4    4    0    0  0.97256322776E+01 -0.33432439864E+01  0.33090818836E+02  0.34652253301E+02  0.10566000000E+00 0. -1.
        -14    1    4    4    0    0  0.17820661390E+02 -0.56447971428E+01  0.58527824489E+02  0.61440588755E+02  0.00000000000E+00 0.  1.
<mgrwt>
<rscale>  0 0.74873876E+02</rscale>
<asrwt>0</asrwt>
<pdfrwt beam="1">  1        1 0.18660414E-02 0.74873876E+02</pdfrwt>
<pdfrwt beam="2">  1       -2 0.17776761E-01 0.74873876E+02</pdfrwt>
<totfact> 0.12109637E+05</totfact>
</mgrwt>
</event>
<event>
 8    1  0.1241100E-024  0.8018239E+02  0.7818608E-02  0.1328535E+00
         -2   -1    0    0    0  501 -0.00000000000E+00  0.00000000000E+00  0.10550330486E+04  0.10550330486E+04  0.25500000000E-02 0.  1.
          1   -1    0    0  501    0  0.00000000000E+00 -0.00000000000E+00 -0.15234588114E+01  0.15234671482E+01  0.50400000000E-02 0. -1.
        -24    2    1    2    0    0  0.00000000000E+00  0.17763568394E-14  0.10535095898E+04  0.10565565158E+04  0.80182387093E+02 0.  0.
         66    2    3    3    0    0  0.18820329770E+02  0.12545924285E+02  0.96285591902E+03  0.96312362959E+03  0.20000130986E+01 0.  0.
         13    1    3    3    0    0 -0.18820329770E+02 -0.12545924285E+02  0.90653670785E+02  0.93432886179E+02  0.10566000000E+00 0. -1.
         13    1    4    4    0    0  0.38596513652E+00  0.43715381856E+00  0.24059832185E+02  0.24067130310E+02  0.10566000000E+00 0. -1.
        -13    1    4    4    0    0  0.12435418891E+02  0.90474657612E+01  0.65323202477E+03  0.65341302836E+03  0.10566000000E+00 0.  1.
         14    1    4    4    0    0  0.59989457422E+01  0.30613047049E+01  0.28556406207E+03  0.28564347092E+03  0.00000000000E+00 0. -1.
<mgrwt>
<rscale>  0 0.80182387E+02</rscale>
<asrwt>0</asrwt>
<pdfrwt beam="1">  1        1 0.23437966E-03 0.80182387E+02</pdfrwt>
<pdfrwt beam="2">  1       -2 0.16231226E+00 0.80182387E+02</pdfrwt>
<totfact> 0.24323411E+04</totfact>
</mgrwt>
</event>
<event>
 8    1  0.1241100E-024  0.8215078E+02  0.7818608E-02  0.1323056E+00
          1   -1    0    0  501    0  0.00000000000E+00  0.00000000000E+00  0.80537431638E+01  0.80537447408E+01  0.50400000000E-02 0. -1.
         -2   -1    0    0    0  501 -0.00000000000E+00 -0.00000000000E+00 -0.20949110394E+03  0.20949110396E+03  0.25500000000E-02 0.  1.
        -24    2    1    2    0    0 -0.17763568394E-14  0.88817841970E-15 -0.20143736078E+03  0.21754484870E+03  0.82150781359E+02 0.  0.
         66    2    3    3    0    0 -0.83133208586E+01  0.79494276884E+01 -0.20513141140E+03  0.20546338031E+03  0.19999999736E+01 0.  0.
         13    1    3    3    0    0  0.83133208586E+01 -0.79494276884E+01  0.36940506279E+01  0.12081468385E+02  0.10566000000E+00 0. -1.
         13    1    4    4    0    0 -0.11061223955E+01  0.16346646766E+01 -0.34813468016E+02  0.34869533331E+02  0.10566000000E+00 0. -1.
        -13    1    4    4    0    0 -0.37046628501E+01  0.35045144791E+01 -0.77841054267E+02  0.78007993450E+02  0.10566000000E+00 0.  1.
         14    1    4    4    0    0 -0.35025356130E+01  0.28102485327E+01 -0.92476889121E+02  0.92585853530E+02  0.00000000000E+00 0. -1.
<mgrwt>
<rscale>  0 0.82150781E+02</rscale>
<asrwt>0</asrwt>
<pdfrwt beam="1">  1        1 0.12390377E-02 0.82150781E+02</pdfrwt>
<pdfrwt beam="2">  1       -2 0.32229397E-01 0.82150781E+02</pdfrwt>
<totfact> 0.77937605E+04</totfact>
</mgrwt>
</event>
<event>
 8    1  0.1241100E-024  0.8042684E+02  0.7818608E-02  0.1327844E+00
          1   -1    0    0  501    0  0.00000000000E+00  0.00000000000E+00  0.60063201216E+02  0.60063201428E+02  0.50400000000E-02 0. -1.
         -2   -1    0    0    0  501 -0.00000000000E+00 -0.00000000000E+00 -0.26923622500E+02  0.26923622620E+02  0.25500000000E-02 0.  1.
        -24    2    1    2    0    0  0.00000000000E+00  0.00000000000E+00  0.33139578717E+02  0.86986824048E+02  0.80426835574E+02 0.  0.
         66    2    3    3    0    0  0.20559620129E+01 -0.17769704807E+02 -0.22343168857E+02  0.28691576977E+02  0.20000015316E+01 0.  0.
         13    1    3    3    0    0 -0.20559620129E+01  0.17769704807E+02  0.55482747574E+02  0.58295247071E+02  0.10566000000E+00 0. -1.
         13    1    4    4    0    0  0.66734429834E+00 -0.55032772846E+01 -0.59245184895E+01  0.81143387070E+01  0.10566000000E+00 0.  1.
        -13    1    4    4    0    0  0.11465971958E+01 -0.53371989998E+01 -0.68205823097E+01  0.87368120829E+01  0.10566000000E+00 0. -1.
         14    1    4    4    0    0  0.24202051884E+00 -0.69292285227E+01 -0.95980680577E+01  0.11840426187E+02  0.00000000000E+00 0. -1.
<mgrwt>
<rscale>  0 0.80426836E+02</rscale>
<asrwt>0</asrwt>
<pdfrwt beam="1">  1        1 0.92404924E-02 0.80426836E+02</pdfrwt>
<pdfrwt beam="2">  1       -2 0.41420959E-02 0.80426836E+02</pdfrwt>
<totfact> 0.13343463E+05</totfact>
</mgrwt>
</event>
<event>
 8    1  0.1241100E-024  0.8079432E+02  0.7818608E-02  0.1326812E+00
         -2   -1    0    0    0  501 -0.00000000000E+00  0.00000000000E+00  0.40152303889E+01  0.40152311987E+01  0.25500000000E-02 0.  1.
          1   -1    0    0  501    0  0.00000000000E+00 -0.00000000000E+00 -0.40643505355E+03  0.40643505358E+03  0.50400000000E-02 0. -1.
        -24    2    1    2    0    0  0.00000000000E+00  0.00000000000E+00 -0.40241982316E+03  0.41045028478E+03  0.80794320363E+02 0.  0.
         66    2    3    3    0    0  0.36285442253E+02  0.17049776390E+02 -0.22548240051E+03  0.22902759906E+03  0.19999995441E+01 0.  0.
         13    1    3    3    0    0 -0.36285442253E+02 -0.17049776390E+02 -0.17693742265E+03  0.18142268572E+03  0.10566000000E+00 0. -1.
         13    1    4    4    0    0  0.38846130091E+01  0.23279822090E+01 -0.25847718357E+02  0.26241673493E+02  0.10566000000E+00 0. -1.
        -13    1    4    4    0    0  0.11781200531E+02  0.47877618976E+01 -0.69597170056E+02  0.70749534230E+02  0.10566000000E+00 0.  1.
        -14    1    4    4    0    0  0.20619628713E+02  0.99340322834E+01 -0.13003751209E+03  0.13203639134E+03  0.00000000000E+00 0.  1.
<mgrwt>
<rscale>  0 0.80794320E+02</rscale>
<asrwt>0</asrwt>
<pdfrwt beam="1">  1        1 0.62528438E-01 0.80794320E+02</pdfrwt>
<pdfrwt beam="2">  1       -2 0.61772814E-03 0.80794320E+02</pdfrwt>
<totfact> 0.18554832E+05</totfact>
</mgrwt>
</event>
<event>
 8    1  0.1241100E-024  0.8060185E+02  0.7818608E-02  0.1327352E+00
         -2   -1    0    0    0  501 -0.00000000000E+00  0.00000000000E+00  0.35355548604E+03  0.35355548605E+03  0.25500000000E-02 0.  1.
          1   -1    0    0  501    0  0.00000000000E+00 -0.00000000000E+00 -0.45938026676E+01  0.45938054324E+01  0.50400000000E-02 0. -1.
        -24    2    1    2    0    0 -0.35527136788E-14  0.00000000000E+00  0.34896168337E+03  0.35814929148E+03  0.80601851881E+02 0.  0.
         66    2    3    3    0    0 -0.25878463564E+02  0.16827544714E+02  0.28954327274E+03  0.29119094754E+03  0.20000003365E+01 0.  0.
         13    1    3    3    0    0  0.25878463564E+02 -0.16827544714E+02  0.59418410629E+02  0.66958343941E+02  0.10566000000E+00 0. -1.
         13    1    4    4    0    0 -0.14802754786E+01  0.13161554627E+01  0.17451423424E+02  0.17563792992E+02  0.10566000000E+00 0. -1.
        -13    1    4    4    0    0 -0.18318776248E+01  0.15268917656E+01  0.24535911355E+02  0.24651760264E+02  0.10566000000E+00 0.  1.
        -14    1    4    4    0    0 -0.22566310461E+02  0.13984497486E+02  0.24755593796E+03  0.24897539428E+03  0.00000000000E+00 0.  1.
<mgrwt>
<rscale>  0 0.80601852E+02</rscale>
<asrwt>0</asrwt>
<pdfrwt beam="1">  1        1 0.70673878E-03 0.80601852E+02</pdfrwt>
<pdfrwt beam="2">  1       -2 0.54393175E-01 0.80601852E+02</pdfrwt>
<totfact> 0.62693915E+04</totfact>
</mgrwt>
</event>
<event>
 8    1  0.1241100E-024  0.7752074E+02  0.7818608E-02  0.1336238E+00
          1   -1    0    0  501    0  0.00000000000E+00  0.00000000000E+00  0.38958295740E+02  0.38958296066E+02  0.50400000000E-02 0. -1.
         -2   -1    0    0    0  501 -0.00000000000E+00 -0.00000000000E+00 -0.38563450928E+02  0.38563451013E+02  0.25500000000E-02 0.  1.
        -24    2    1    2    0    0  0.00000000000E+00 -0.17763568394E-14  0.39484481189E+00  0.77521747079E+02  0.77520741533E+02 0.  0.
         66    2    3    3    0    0  0.35147624339E+02 -0.10501517429E+02 -0.12241420446E+02  0.38723245450E+02  0.19999996636E+01 0.  0.
         13    1    3    3    0    0 -0.35147624339E+02  0.10501517429E+02  0.12636265257E+02  0.38798501629E+02  0.10566000000E+00 0. -1.
         13    1    4    4    0    0  0.54980507327E+01 -0.21848449187E+01 -0.16868717562E+01  0.61529512866E+01  0.10566000000E+00 0. -1.
        -13    1    4    4    0    0  0.16925504076E+02 -0.42810278283E+01 -0.56848918833E+01  0.18361074240E+02  0.10566000000E+00 0.  1.
        -14    1    4    4    0    0  0.12724069530E+02 -0.40356446818E+01 -0.48696568060E+01  0.14209219923E+02  0.00000000000E+00 0.  1.
<mgrwt>
<rscale>  0 0.77520742E+02</rscale>
<asrwt>0</asrwt>
<pdfrwt beam="1">  1        1 0.59935840E-02 0.77520742E+02</pdfrwt>
<pdfrwt beam="2">  1       -2 0.59328386E-02 0.77520742E+02</pdfrwt>
<totfact> 0.13814026E+05</totfact>
</mgrwt>
</event>
<event>
 8    1  0.1241100E-024  0.8368033E+02  0.7818608E-02  0.1318920E+00
          1   -1    0    0  501    0  0.00000000000E+00  0.00000000000E+00  0.17720329510E+03  0.17720329517E+03  0.50400000000E-02 0. -1.
         -2   -1    0    0    0  501 -0.00000000000E+00 -0.00000000000E+00 -0.98790448628E+01  0.98790451919E+01  0.25500000000E-02 0.  1.
        -24    2    1    2    0    0  0.00000000000E+00  0.00000000000E+00  0.16732425024E+03  0.18708234036E+03  0.83680328384E+02 0.  0.
         66    2    3    3    0    0 -0.10399427176E+02 -0.26815234671E+02  0.15847098236E+02  0.32898866416E+02  0.19999982305E+01 0.  0.
         13    1    3    3    0    0  0.10399427176E+02  0.26815234671E+02  0.15147715200E+03  0.15418347395E+03  0.10566000000E+00 0. -1.
         13    1    4    4    0    0 -0.87802926732E+00 -0.15054510769E+01  0.12495926516E+01  0.21470827114E+01  0.10566000000E+00 0. -1.
        -13    1    4    4    0    0 -0.48086875295E+01 -0.11659569891E+02  0.63349333587E+01  0.14114233613E+02  0.10566000000E+00 0.  1.
        -14    1    4    4    0    0 -0.47127103796E+01 -0.13650213703E+02  0.82625722261E+01  0.16637550092E+02  0.00000000000E+00 0.  1.
<mgrwt>
<rscale>  0 0.83680328E+02</rscale>
<asrwt>0</asrwt>
<pdfrwt beam="1">  1        1 0.27262044E-01 0.83680328E+02</pdfrwt>
<pdfrwt beam="2">  1       -2 0.15198532E-02 0.83680328E+02</pdfrwt>
<totfact> 0.14446991E+05</totfact>
</mgrwt>
</event>
<event>
 8    1  0.1241100E-024  0.7919674E+02  0.7818608E-02  0.1331347E+00
          1   -1    0    0  501    0  0.00000000000E+00  0.00000000000E+00  0.44788810779E+02  0.44788811062E+02  0.50400000000E-02 0. -1.
         -2   -1    0    0    0  501 -0.00000000000E+00 -0.00000000000E+00 -0.35009437840E+02  0.35009437933E+02  0.25500000000E-02 0.  1.
        -24    2    1    2    0    0 -0.17763568394E-14 -0.71054273576E-14  0.97793729387E+01  0.79798248995E+02  0.79196744931E+02 0.  0.
         66    2    3    3    0    0 -0.11957050558E+02 -0.36654237857E+02  0.13878032881E+02  0.41025650575E+02  0.19999993809E+01 0.  0.
         13    1    3    3    0    0  0.11957050558E+02  0.36654237857E+02 -0.40986599420E+01  0.38772598421E+02  0.10566000000E+00 0. -1.
         13    1    4    4    0    0 -0.22075430836E+01 -0.73352298752E+01  0.34269350734E+01  0.83924902038E+01  0.10566000000E+00 0. -1.
        -13    1    4    4    0    0 -0.19573719308E+01 -0.49958827719E+01  0.20772000985E+01  0.57546567083E+01  0.10566000000E+00 0.  1.
        -14    1    4    4    0    0 -0.77921355439E+01 -0.24323125210E+02  0.83738977089E+01  0.26878503663E+02  0.00000000000E+00 0.  1.
<mgrwt>
<rscale>  0 0.79196745E+02</rscale>
<asrwt>0</asrwt>
<pdfrwt beam="1">  1        1 0.68905863E-02 0.79196745E+02</pdfrwt>
<pdfrwt beam="2">  1       -2 0.53860674E-02 0.79196745E+02</pdfrwt>
<totfact> 0.13300200E+05</totfact>
</mgrwt>
</event>
<event>
 8    1  0.1241100E-024  0.7905730E+02  0.7818608E-02  0.1331748E+00
          1   -1    0    0  501    0  0.00000000000E+00  0.00000000000E+00  0.13031272129E+02  0.13031273104E+02  0.50400000000E-02 0. -1.
         -2   -1    0    0    0  501 -0.00000000000E+00 -0.00000000000E+00 -0.11990495856E+03  0.11990495859E+03  0.25500000000E-02 0.  1.
        -24    2    1    2    0    0  0.00000000000E+00  0.35527136788E-14 -0.10687368643E+03  0.13293623169E+03  0.79057301022E+02 0.  0.
         66    2    3    3    0    0  0.10973370528E+02 -0.30392907119E+02 -0.91681210429E+02  0.97229563477E+02  0.20000011034E+01 0.  0.
         13    1    3    3    0    0 -0.10973370528E+02  0.30392907119E+02 -0.15192476004E+02  0.35706668215E+02  0.10566000000E+00 0. -1.
         13    1    4    4    0    0  0.12253316086E+01 -0.46981980180E+01 -0.13384181517E+02  0.14238046955E+02  0.10566000000E+00 0. -1.
        -13    1    4    4    0    0  0.26346963610E+01 -0.66212098012E+01 -0.22129195220E+02  0.23248537357E+02  0.10566000000E+00 0.  1.
        -14    1    4    4    0    0  0.71133425586E+01 -0.19073499299E+02 -0.56167833692E+02  0.59742979165E+02  0.00000000000E+00 0.  1.
<mgrwt>
<rscale>  0 0.79057301E+02</rscale>
<asrwt>0</asrwt>
<pdfrwt beam="1">  1        1 0.20048113E-02 0.79057301E+02</pdfrwt>
<pdfrwt beam="2">  1       -2 0.18446916E-01 0.79057301E+02</pdfrwt>
<totfact> 0.10429241E+05</totfact>
</mgrwt>
</event>
<event>
 8    1  0.1241100E-024  0.8074496E+02  0.7818608E-02  0.1326951E+00
          1   -1    0    0  501    0  0.00000000000E+00  0.00000000000E+00  0.12407806453E+03  0.12407806463E+03  0.50400000000E-02 0. -1.
         -2   -1    0    0    0  501 -0.00000000000E+00 -0.00000000000E+00 -0.13136383183E+02  0.13136383431E+02  0.25500000000E-02 0.  1.
        -24    2    1    2    0    0  0.00000000000E+00  0.00000000000E+00  0.11094168134E+03  0.13721444806E+03  0.80744957100E+02 0.  0.
         66    2    3    3    0    0 -0.19986905149E+01  0.39988415201E+02  0.47031150964E+02  0.61798036243E+02  0.20000020867E+01 0.  0.
         13    1    3    3    0    0  0.19986905149E+01 -0.39988415201E+02  0.63910530380E+02  0.75416411818E+02  0.10566000000E+00 0. -1.
         13    1    4    4    0    0 -0.16101981455E+01  0.23635458292E+02  0.27860395037E+02  0.36571032285E+02  0.10566000000E+00 0. -1.
        -13    1    4    4    0    0 -0.68838696524E+00  0.14771781957E+02  0.17259922621E+02  0.22728737574E+02  0.10566000000E+00 0.  1.
         14    1    4    4    0    0  0.29989459581E+00  0.15811749525E+01  0.19108333067E+01  0.24982663839E+01  0.00000000000E+00 0. -1.
<mgrwt>
<rscale>  0 0.80744957E+02</rscale>
<asrwt>0</asrwt>
<pdfrwt beam="1">  1        1 0.19088933E-01 0.80744957E+02</pdfrwt>
<pdfrwt beam="2">  1       -2 0.20209821E-02 0.80744957E+02</pdfrwt>
<totfact> 0.14880730E+05</totfact>
</mgrwt>
</event>
<event>
 8    1  0.1241100E-024  0.8712361E+02  0.7818608E-02  0.1309971E+00
         -2   -1    0    0    0  501 -0.00000000000E+00  0.00000000000E+00  0.20872577822E+03  0.20872577823E+03  0.25500000000E-02 0.  1.
          1   -1    0    0  501    0  0.00000000000E+00 -0.00000000000E+00 -0.90915013157E+01  0.90915027127E+01  0.50400000000E-02 0. -1.
        -24    2    1    2    0    0 -0.71054273576E-14  0.35527136788E-14  0.19963427690E+03  0.21781728095E+03  0.87123609685E+02 0.  0.
         66    2    3    3    0    0 -0.37712844040E+02  0.18653825875E+02  0.12786640739E+03  0.13462556210E+03  0.20000019847E+01 0.  0.
         13    1    3    3    0    0  0.37712844040E+02 -0.18653825875E+02  0.71767869515E+02  0.83191718844E+02  0.10566000000E+00 0. -1.
         13    1    4    4    0    0 -0.15156580388E+02  0.69362114016E+01  0.49193060803E+02  0.51940363427E+02  0.10566000000E+00 0.  1.
        -13    1    4    4    0    0 -0.18463785695E+02  0.10051115537E+02  0.65365875228E+02  0.68663273400E+02  0.10566000000E+00 0. -1.
         14    1    4    4    0    0 -0.40924779579E+01  0.16664989361E+01  0.13307471357E+02  0.14021925277E+02  0.00000000000E+00 0. -1.
<mgrwt>
<rscale>  0 0.87123610E+02</rscale>
<asrwt>0</asrwt>
<pdfrwt beam="1">  1        1 0.13986927E-02 0.87123610E+02</pdfrwt>
<pdfrwt beam="2">  1       -2 0.32111656E-01 0.87123610E+02</pdfrwt>
<totfact> 0.67039690E+04</totfact>
</mgrwt>
</event>
<event>
 8    1  0.1241100E-024  0.8075390E+02  0.7818608E-02  0.1326926E+00
          1   -1    0    0  501    0  0.00000000000E+00  0.00000000000E+00  0.24096683948E+03  0.24096683954E+03  0.50400000000E-02 0. -1.
         -2   -1    0    0    0  501 -0.00000000000E+00 -0.00000000000E+00 -0.67656524319E+01  0.67656529125E+01  0.25500000000E-02 0.  1.
        -24    2    1    2    0    0  0.00000000000E+00 -0.17763568394E-14  0.23420118705E+03  0.24773249245E+03  0.80753896491E+02 0.  0.
         66    2    3    3    0    0  0.38458419120E+02  0.12215961961E+02  0.11752518980E+03  0.12427570152E+03  0.20000057180E+01 0.  0.
         13    1    3    3    0    0 -0.38458419120E+02 -0.12215961961E+02  0.11667599725E+03  0.12345679093E+03  0.10566000000E+00 0. -1.
         13    1    4    4    0    0  0.20188492250E+02  0.60179161256E+01  0.63263382877E+02  0.66678762068E+02  0.10566000000E+00 0. -1.
        -13    1    4    4    0    0  0.16540014120E+02  0.53304325172E+01  0.48604559652E+02  0.51617826000E+02  0.10566000000E+00 0.  1.
         14    1    4    4    0    0  0.17299127488E+01  0.86761331777E+00  0.56572472741E+01  0.59791134550E+01  0.00000000000E+00 0. -1.
<mgrwt>
<rscale>  0 0.80753896E+02</rscale>
<asrwt>0</asrwt>
<pdfrwt beam="1">  1        1 0.37071817E-01 0.80753896E+02</pdfrwt>
<pdfrwt beam="2">  1       -2 0.10408698E-02 0.80753896E+02</pdfrwt>
<totfact> 0.16866769E+05</totfact>
</mgrwt>
</event>
<event>
 8    1  0.1241100E-024  0.8032108E+02  0.7818608E-02  0.1328143E+00
          1   -1    0    0  501    0  0.00000000000E+00  0.00000000000E+00  0.45195062703E+02  0.45195062984E+02  0.50400000000E-02 0. -1.
         -2   -1    0    0    0  501 -0.00000000000E+00 -0.00000000000E+00 -0.35686842416E+02  0.35686842507E+02  0.25500000000E-02 0.  1.
        -24    2    1    2    0    0  0.00000000000E+00  0.00000000000E+00  0.95082202874E+01  0.80881905491E+02  0.80321083053E+02 0.  0.
         66    2    3    3    0    0  0.79592240410E+01 -0.11574362500E+02 -0.33102657924E+02  0.36015289610E+02  0.20000023570E+01 0.  0.
         13    1    3    3    0    0 -0.79592240410E+01  0.11574362500E+02  0.42610878212E+02  0.44866615881E+02  0.10566000000E+00 0. -1.
         13    1    4    4    0    0  0.72689999363E+00 -0.57379918082E+00 -0.17168596531E+01  0.19535609038E+01  0.10566000000E+00 0. -1.
        -13    1    4    4    0    0  0.48062241649E+00 -0.56963796974E+00 -0.26447110641E+01  0.27497538021E+01  0.10566000000E+00 0.  1.
        -14    1    4    4    0    0  0.67517016309E+01 -0.10430925349E+02 -0.28741087207E+02  0.31311974904E+02  0.00000000000E+00 0.  1.
<mgrwt>
<rscale>  0 0.80321083E+02</rscale>
<asrwt>0</asrwt>
<pdfrwt beam="1">  1        1 0.69530866E-02 0.80321083E+02</pdfrwt>
<pdfrwt beam="2">  1       -2 0.54902834E-02 0.80321083E+02</pdfrwt>
<totfact> 0.12804462E+05</totfact>
</mgrwt>
</event>
<event>
 8    1  0.1241100E-024  0.7853481E+02  0.7818608E-02  0.1333262E+00
          1   -1    0    0  501    0  0.00000000000E+00  0.00000000000E+00  0.42398555490E+02  0.42398555790E+02  0.50400000000E-02 0. -1.
         -2   -1    0    0    0  501 -0.00000000000E+00 -0.00000000000E+00 -0.36367487954E+02  0.36367488043E+02  0.25500000000E-02 0.  1.
        -24    2    1    2    0    0  0.18041124150E-15  0.35527136788E-14  0.60310675364E+01  0.78766043833E+02  0.78534806840E+02 0.  0.
         66    2    3    3    0    0 -0.29273100693E-01  0.19441321768E+02 -0.31170390749E+02  0.36790747388E+02  0.19999962310E+01 0.  0.
         13    1    3    3    0    0  0.29273100693E-01 -0.19441321768E+02  0.37201458285E+02  0.41975296444E+02  0.10566000000E+00 0. -1.
         13    1    4    4    0    0  0.70320547595E+00  0.53662482274E+01 -0.81089859842E+01  0.97497659309E+01  0.10566000000E+00 0. -1.
        -13    1    4    4    0    0 -0.64310918163E+00  0.95195972094E+01 -0.16304328155E+02  0.18891230798E+02  0.10566000000E+00 0.  1.
        -14    1    4    4    0    0 -0.89369395014E-01  0.45554763313E+01 -0.67570766101E+01  0.81497506593E+01  0.00000000000E+00 0.  1.
<mgrwt>
<rscale>  0 0.78534807E+02</rscale>
<asrwt>0</asrwt>
<pdfrwt beam="1">  1        1 0.65228548E-02 0.78534807E+02</pdfrwt>
<pdfrwt beam="2">  1       -2 0.55949981E-02 0.78534807E+02</pdfrwt>
<totfact> 0.13498904E+05</totfact>
</mgrwt>
</event>
<event>
 8    1  0.1241100E-024  0.8148919E+02  0.7818608E-02  0.1324878E+00
          1   -1    0    0  501    0  0.00000000000E+00  0.00000000000E+00  0.25156965203E+02  0.25156965708E+02  0.50400000000E-02 0. -1.
         -2   -1    0    0    0  501 -0.00000000000E+00 -0.00000000000E+00 -0.65990545780E+02  0.65990545829E+02  0.25500000000E-02 0.  1.
        -24    2    1    2    0    0  0.00000000000E+00  0.00000000000E+00 -0.40833580577E+02  0.91147511537E+02  0.81489186746E+02 0.  0.
         66    2    3    3    0    0 -0.17465031167E+02  0.32325645076E+02 -0.40063582512E+02  0.54397291071E+02  0.19999972223E+01 0.  0.
         13    1    3    3    0    0  0.17465031167E+02 -0.32325645076E+02 -0.76999806580E+00  0.36750220466E+02  0.10566000000E+00 0. -1.
         13    1    4    4    0    0 -0.63664870291E+01  0.11874434648E+02 -0.13384250523E+02  0.18991674003E+02  0.10566000000E+00 0. -1.
        -13    1    4    4    0    0 -0.43691895684E+01  0.81439172984E+01 -0.11009527536E+02  0.14374771895E+02  0.10566000000E+00 0.  1.
         14    1    4    4    0    0 -0.67293545697E+01  0.12307293129E+02 -0.15669804452E+02  0.21030845173E+02  0.00000000000E+00 0. -1.
<mgrwt>
<rscale>  0 0.81489187E+02</rscale>
<asrwt>0</asrwt>
<pdfrwt beam="1">  1        1 0.38703024E-02 0.81489187E+02</pdfrwt>
<pdfrwt beam="2">  1       -2 0.10152392E-01 0.81489187E+02</pdfrwt>
<totfact> 0.11094676E+05</totfact>
</mgrwt>
</event>
<event>
 8    1  0.1241100E-024  0.8013764E+02  0.7818608E-02  0.1328661E+00
          1   -1    0    0  501    0  0.00000000000E+00  0.00000000000E+00  0.25834144641E+02  0.25834145133E+02  0.50400000000E-02 0. -1.
         -2   -1    0    0    0  501 -0.00000000000E+00 -0.00000000000E+00 -0.62146832864E+02  0.62146832916E+02  0.25500000000E-02 0.  1.
        -24    2    1    2    0    0  0.88817841970E-15 -0.71054273576E-14 -0.36312688223E+02  0.87980978049E+02  0.80137638926E+02 0.  0.
         66    2    3    3    0    0 -0.54209019976E+01 -0.39481301470E+02 -0.13866817627E+02  0.42242726934E+02  0.20000008651E+01 0.  0.
         13    1    3    3    0    0  0.54209019976E+01  0.39481301470E+02 -0.22445870595E+02  0.45738251115E+02  0.10566000000E+00 0. -1.
         13    1    4    4    0    0 -0.67255066788E+00 -0.75195081177E+01 -0.19456200382E+01  0.77969178591E+01  0.10566000000E+00 0. -1.
        -13    1    4    4    0    0 -0.53058796266E+00 -0.29426657420E+01 -0.11877856976E+01  0.32191309626E+01  0.10566000000E+00 0.  1.
         14    1    4    4    0    0 -0.42177633670E+01 -0.29019127611E+02 -0.10733411891E+02  0.31226678112E+02  0.00000000000E+00 0. -1.
<mgrwt>
<rscale>  0 0.80137639E+02</rscale>
<asrwt>0</asrwt>
<pdfrwt beam="1">  1        1 0.39744839E-02 0.80137639E+02</pdfrwt>
<pdfrwt beam="2">  1       -2 0.95610512E-02 0.80137639E+02</pdfrwt>
<totfact> 0.11709876E+05</totfact>
</mgrwt>
</event>
<event>
 8    1  0.1241100E-024  0.8108785E+02  0.7818608E-02  0.1325992E+00
         -2   -1    0    0    0  501 -0.00000000000E+00  0.00000000000E+00  0.90845720748E+01  0.90845724327E+01  0.25500000000E-02 0.  1.
          1   -1    0    0  501    0  0.00000000000E+00 -0.00000000000E+00 -0.18094522375E+03  0.18094522382E+03  0.50400000000E-02 0. -1.
        -24    2    1    2    0    0  0.88817841970E-15  0.00000000000E+00 -0.17186065168E+03  0.19002979625E+03  0.81087852788E+02 0.  0.
         66    2    3    3    0    0 -0.61630252084E+01 -0.37517046198E+02 -0.53148839852E+02  0.65378213569E+02  0.19999991872E+01 0.  0.
         13    1    3    3    0    0  0.61630252084E+01  0.37517046198E+02 -0.11871181182E+03  0.12465158268E+03  0.10566000000E+00 0. -1.
         13    1    4    4    0    0 -0.97081825928E-01 -0.39007849202E+01 -0.57933486935E+01  0.69856711198E+01  0.10566000000E+00 0. -1.
        -13    1    4    4    0    0 -0.15668465381E+01 -0.99498643705E+01 -0.14063108594E+02  0.17298468037E+02  0.10566000000E+00 0.  1.
         14    1    4    4    0    0 -0.44990968443E+01 -0.23666396907E+02 -0.33292382564E+02  0.41094074412E+02  0.00000000000E+00 0. -1.
<mgrwt>
<rscale>  0 0.81087853E+02</rscale>
<asrwt>0</asrwt>
<pdfrwt beam="1">  1        1 0.27837724E-01 0.81087853E+02</pdfrwt>
<pdfrwt beam="2">  1       -2 0.13976266E-02 0.81087853E+02</pdfrwt>
<totfact> 0.15777103E+05</totfact>
</mgrwt>
</event>
<event>
 8    1  0.1241100E-024  0.8862519E+02  0.7818608E-02  0.1306216E+00
          1   -1    0    0  501    0  0.00000000000E+00  0.00000000000E+00  0.79767639105E+02  0.79767639264E+02  0.50400000000E-02 0. -1.
         -2   -1    0    0    0  501 -0.00000000000E+00 -0.00000000000E+00 -0.24616574934E+02  0.24616575066E+02  0.25500000000E-02 0.  1.
        -24    2    1    2    0    0  0.17763568394E-14  0.00000000000E+00  0.55151064171E+02  0.10438421433E+03  0.88625190111E+02 0.  0.
         66    2    3    3    0    0  0.13931737384E+02 -0.42003757480E+02  0.25485210722E+02  0.51106799098E+02  0.19999998895E+01 0.  0.
         13    1    3    3    0    0 -0.13931737384E+02  0.42003757480E+02  0.29665853448E+02  0.53277415232E+02  0.10566000000E+00 0. -1.
         13    1    4    4    0    0  0.19652569368E+01 -0.61790249658E+01  0.44042179783E+01  0.78390614484E+01  0.10566000000E+00 0.  1.
        -13    1    4    4    0    0  0.10234687411E+02 -0.31659592820E+02  0.18462188262E+02  0.38051835742E+02  0.10566000000E+00 0. -1.
         14    1    4    4    0    0  0.17317930370E+01 -0.41651396936E+01  0.26188044822E+01  0.52159019073E+01  0.00000000000E+00 0. -1.
<mgrwt>
<rscale>  0 0.88625190E+02</rscale>
<asrwt>0</asrwt>
<pdfrwt beam="1">  1        1 0.12271945E-01 0.88625190E+02</pdfrwt>
<pdfrwt beam="2">  1       -2 0.37871654E-02 0.88625190E+02</pdfrwt>
<totfact> 0.10693201E+05</totfact>
</mgrwt>
</event>
<event>
 8    1  0.1241100E-024  0.8176730E+02  0.7818608E-02  0.1324110E+00
          1   -1    0    0  501    0  0.00000000000E+00  0.00000000000E+00  0.90733872013E+02  0.90733872153E+02  0.50400000000E-02 0. -1.
         -2   -1    0    0    0  501 -0.00000000000E+00 -0.00000000000E+00 -0.18421706109E+02  0.18421706285E+02  0.25500000000E-02 0.  1.
        -24    2    1    2    0    0  0.71054273576E-14  0.00000000000E+00  0.72312165905E+02  0.10915557844E+03  0.81767297659E+02 0.  0.
         66    2    3    3    0    0  0.35662558049E+02  0.18843391058E+02  0.27467007846E+02  0.48839819316E+02  0.19999993977E+01 0.  0.
         13    1    3    3    0    0 -0.35662558049E+02 -0.18843391058E+02  0.44845158058E+02  0.60315759122E+02  0.10566000000E+00 0. -1.
         13    1    4    4    0    0  0.70518178504E+01  0.35121761341E+01  0.59882586708E+01  0.98961569378E+01  0.10566000000E+00 0. -1.
        -13    1    4    4    0    0  0.16336190178E+01  0.99103013961E+00  0.15968910115E+01  0.24924038138E+01  0.10566000000E+00 0.  1.
        -14    1    4    4    0    0  0.26977121181E+02  0.14340184784E+02  0.19881858164E+02  0.36451258564E+02  0.00000000000E+00 0.  1.
<mgrwt>
<rscale>  0 0.81767298E+02</rscale>
<asrwt>0</asrwt>
<pdfrwt beam="1">  1        1 0.13959057E-01 0.81767298E+02</pdfrwt>
<pdfrwt beam="2">  1       -2 0.28341086E-02 0.81767298E+02</pdfrwt>
<totfact> 0.13629907E+05</totfact>
</mgrwt>
</event>
<event>
 8    1  0.1241100E-024  0.8110933E+02  0.7818608E-02  0.1325932E+00
          1   -1    0    0  501    0  0.00000000000E+00  0.00000000000E+00  0.23176787795E+03  0.23176787801E+03  0.50400000000E-02 0. -1.
         -2   -1    0    0    0  501 -0.00000000000E+00 -0.00000000000E+00 -0.70962406971E+01  0.70962411552E+01  0.25500000000E-02 0.  1.
        -24    2    1    2    0    0 -0.35527136788E-14 -0.35527136788E-14  0.22467163726E+03  0.23886411916E+03  0.81109326445E+02 0.  0.
         66    2    3    3    0    0  0.23338914649E+02  0.26779652694E+02  0.16987384690E+03  0.17355972630E+03  0.19999993016E+01 0.  0.
         13    1    3    3    0    0 -0.23338914649E+02 -0.26779652694E+02  0.54797790358E+02  0.65304392866E+02  0.10566000000E+00 0. -1.
         13    1    4    4    0    0  0.45520975232E+01  0.48574240560E+01  0.28959431278E+02  0.29714911817E+02  0.10566000000E+00 0. -1.
        -13    1    4    4    0    0  0.24672036705E+01  0.30081139990E+01  0.20551233718E+02  0.20916505807E+02  0.10566000000E+00 0.  1.
        -14    1    4    4    0    0  0.16319613455E+02  0.18914114639E+02  0.12036318190E+03  0.12292830868E+03  0.00000000000E+00 0.  1.
<mgrwt>
<rscale>  0 0.81109326E+02</rscale>
<asrwt>0</asrwt>
<pdfrwt beam="1">  1        1 0.35656591E-01 0.81109326E+02</pdfrwt>
<pdfrwt beam="2">  1       -2 0.10917296E-02 0.81109326E+02</pdfrwt>
<totfact> 0.16545075E+05</totfact>
</mgrwt>
</event>
<event>
 8    1  0.1241100E-024  0.7947662E+02  0.7818608E-02  0.1330543E+00
          1   -1    0    0  501    0  0.00000000000E+00  0.00000000000E+00  0.18666018706E+03  0.18666018713E+03  0.50400000000E-02 0. -1.
         -2   -1    0    0    0  501 -0.00000000000E+00 -0.00000000000E+00 -0.84599366179E+01  0.84599370022E+01  0.25500000000E-02 0.  1.
        -24    2    1    2    0    0 -0.71054273576E-14  0.88817841970E-15  0.17820025045E+03  0.19512012413E+03  0.79476622872E+02 0.  0.
         66    2    3    3    0    0  0.33392681817E+02 -0.67207872659E+01  0.39029300208E+02  0.51841358315E+02  0.19999942040E+01 0.  0.
         13    1    3    3    0    0 -0.33392681817E+02  0.67207872659E+01  0.13917095024E+03  0.14327876582E+03  0.10566000000E+00 0. -1.
         13    1    4    4    0    0  0.12778531389E+02 -0.33761340524E+01  0.14327821775E+02  0.19493249766E+02  0.10566000000E+00 0. -1.
        -13    1    4    4    0    0  0.12757123428E+02 -0.19274680280E+01  0.15203557846E+02  0.19940377789E+02  0.10566000000E+00 0.  1.
         14    1    4    4    0    0  0.78570270000E+01 -0.14171851855E+01  0.94979205874E+01  0.12407730760E+02  0.00000000000E+00 0. -1.
<mgrwt>
<rscale>  0 0.79476623E+02</rscale>
<asrwt>0</asrwt>
<pdfrwt beam="1">  1        1 0.28716953E-01 0.79476623E+02</pdfrwt>
<pdfrwt beam="2">  1       -2 0.13015287E-02 0.79476623E+02</pdfrwt>
<totfact> 0.16742372E+05</totfact>
</mgrwt>
</event>
<event>
 8    1  0.1241100E-024  0.7878895E+02  0.7818608E-02  0.1332524E+00
         -2   -1    0    0    0  501 -0.00000000000E+00  0.00000000000E+00  0.21340859506E+02  0.21340859659E+02  0.25500000000E-02 0.  1.
          1   -1    0    0  501    0  0.00000000000E+00 -0.00000000000E+00 -0.72720815586E+02  0.72720815761E+02  0.50400000000E-02 0. -1.
        -24    2    1    2    0    0 -0.35527136788E-14 -0.35527136788E-14 -0.51379956080E+02  0.94061675420E+02  0.78788951611E+02 0.  0.
         66    2    3    3    0    0 -0.30046915744E+02 -0.20160867545E+02 -0.44226152025E+02  0.57177182711E+02  0.19999934684E+01 0.  0.
         13    1    3    3    0    0  0.30046915744E+02  0.20160867545E+02 -0.71538040552E+01  0.36884492709E+02  0.10566000000E+00 0. -1.
         13    1    4    4    0    0 -0.18189514135E+02 -0.11968830290E+02 -0.26768068417E+02  0.34505825216E+02  0.10566000000E+00 0. -1.
        -13    1    4    4    0    0 -0.61218116346E+01 -0.35929136803E+01 -0.80947339610E+01  0.10766684185E+02  0.10566000000E+00 0.  1.
         14    1    4    4    0    0 -0.57355899741E+01 -0.45991235747E+01 -0.93633496467E+01  0.11904673310E+02  0.00000000000E+00 0. -1.
<mgrwt>
<rscale>  0 0.78788952E+02</rscale>
<asrwt>0</asrwt>
<pdfrwt beam="1">  1        1 0.11187818E-01 0.78788952E+02</pdfrwt>
<pdfrwt beam="2">  1       -2 0.32832092E-02 0.78788952E+02</pdfrwt>
<totfact> 0.14548341E+05</totfact>
</mgrwt>
</event>
<event>
 8    1  0.1241100E-024  0.8092188E+02  0.7818608E-02  0.1326455E+00
          1   -1    0    0  501    0  0.00000000000E+00  0.00000000000E+00  0.72477954699E+01  0.72477972223E+01  0.50400000000E-02 0. -1.
         -2   -1    0    0    0  501 -0.00000000000E+00 -0.00000000000E+00 -0.22587386947E+03  0.22587386949E+03  0.25500000000E-02 0.  1.
        -24    2    1    2    0    0  0.00000000000E+00 -0.35527136788E-14 -0.21862607400E+03  0.23312166671E+03  0.80921883662E+02 0.  0.
         66    2    3    3    0    0  0.12895264322E+02  0.29781040715E+02 -0.39887578435E+02  0.51460831113E+02  0.19999993484E+01 0.  0.
         13    1    3    3    0    0 -0.12895264322E+02 -0.29781040715E+02 -0.17873849557E+03  0.18166083560E+03  0.10566000000E+00 0. -1.
         13    1    4    4    0    0  0.11288116176E+02  0.25009397433E+02 -0.34166363333E+02  0.43820578205E+02  0.10566000000E+00 0. -1.
        -13    1    4    4    0    0  0.82072313645E+00  0.31993399544E+01 -0.38091754171E+01  0.50428507815E+01  0.10566000000E+00 0.  1.
         14    1    4    4    0    0  0.78642500945E+00  0.15723033271E+01 -0.19120396855E+01  0.25974021266E+01  0.00000000000E+00 0. -1.
<mgrwt>
<rscale>  0 0.80921884E+02</rscale>
<asrwt>0</asrwt>
<pdfrwt beam="1">  1        1 0.11150458E-02 0.80921884E+02</pdfrwt>
<pdfrwt beam="2">  1       -2 0.34749821E-01 0.80921884E+02</pdfrwt>
<totfact> 0.78442491E+04</totfact>
</mgrwt>
</event>
<event>
 8    1  0.1241100E-024  0.7945846E+02  0.7818608E-02  0.1330595E+00
         -2   -1    0    0    0  501 -0.00000000000E+00  0.00000000000E+00  0.18560842651E+02  0.18560842826E+02  0.25500000000E-02 0.  1.
          1   -1    0    0  501    0  0.00000000000E+00 -0.00000000000E+00 -0.85039881713E+02  0.85039881862E+02  0.50400000000E-02 0. -1.
        -24    2    1    2    0    0 -0.71054273576E-14  0.88817841970E-15 -0.66479039062E+02  0.10360072469E+03  0.79458464127E+02 0.  0.
         66    2    3    3    0    0  0.38918688577E+02  0.77434421451E+01 -0.31520149325E+02  0.50716319119E+02  0.19999986701E+01 0.  0.
         13    1    3    3    0    0 -0.38918688577E+02 -0.77434421451E+01 -0.34958889737E+02  0.52884405570E+02  0.10566000000E+00 0. -1.
         13    1    4    4    0    0  0.59019689183E+01  0.12993072806E+01 -0.50937444995E+01  0.79043553554E+01  0.10566000000E+00 0. -1.
        -13    1    4    4    0    0  0.83179811570E+01  0.18559453023E+01 -0.75940278485E+01  0.11415505529E+02  0.10566000000E+00 0.  1.
         14    1    4    4    0    0  0.24698738502E+02  0.45881895622E+01 -0.18832376977E+02  0.31396458234E+02  0.00000000000E+00 0. -1.
<mgrwt>
<rscale>  0 0.79458464E+02</rscale>
<asrwt>0</asrwt>
<pdfrwt beam="1">  1        1 0.13083059E-01 0.79458464E+02</pdfrwt>
<pdfrwt beam="2">  1       -2 0.28555143E-02 0.79458464E+02</pdfrwt>
<totfact> 0.14576757E+05</totfact>
</mgrwt>
</event>
<event>
 8    1  0.1241100E-024  0.7560090E+02  0.7818608E-02  0.1342020E+00
         -2   -1    0    0    0  501 -0.00000000000E+00  0.00000000000E+00  0.35038214323E+01  0.35038223603E+01  0.25500000000E-02 0.  1.
          1   -1    0    0  501    0  0.00000000000E+00 -0.00000000000E+00 -0.40780444691E+03  0.40780444694E+03  0.50400000000E-02 0. -1.
        -24    2    1    2    0    0  0.00000000000E+00  0.00000000000E+00 -0.40430062548E+03  0.41130826930E+03  0.75600903659E+02 0.  0.
         66    2    3    3    0    0  0.12468059437E+02 -0.35608384669E+02 -0.21241091656E+03  0.21574477292E+03  0.20000007550E+01 0.  0.
         13    1    3    3    0    0 -0.12468059437E+02  0.35608384669E+02 -0.19188970892E+03  0.19556349638E+03  0.10566000000E+00 0. -1.
         13    1    4    4    0    0  0.45742152586E+01 -0.14607975782E+02 -0.83208048902E+02  0.84604414588E+02  0.10566000000E+00 0. -1.
        -13    1    4    4    0    0  0.31230810565E+01 -0.72984932683E+01 -0.43743398888E+02  0.44458044824E+02  0.10566000000E+00 0.  1.
        -14    1    4    4    0    0  0.47707631220E+01 -0.13701915619E+02 -0.85459468774E+02  0.86682313511E+02  0.00000000000E+00 0.  1.
<mgrwt>
<rscale>  0 0.75600904E+02</rscale>
<asrwt>0</asrwt>
<pdfrwt beam="1">  1        1 0.62739108E-01 0.75600904E+02</pdfrwt>
<pdfrwt beam="2">  1       -2 0.53904985E-03 0.75600904E+02</pdfrwt>
<totfact> 0.22093918E+05</totfact>
</mgrwt>
</event>
<event>
 8    1  0.1241100E-024  0.8065308E+02  0.7818608E-02  0.1327208E+00
          1   -1    0    0  501    0  0.00000000000E+00  0.00000000000E+00  0.49045498491E+01  0.49045524386E+01  0.50400000000E-02 0. -1.
         -2   -1    0    0    0  501 -0.00000000000E+00 -0.00000000000E+00 -0.33157564187E+03  0.33157564188E+03  0.25500000000E-02 0.  1.
        -24    2    1    2    0    0  0.00000000000E+00 -0.17763568394E-14 -0.32667109202E+03  0.33648019431E+03  0.80653076856E+02 0.  0.
         66    2    3    3    0    0 -0.14421113343E+02 -0.83302955882E+01 -0.31654451350E+03  0.31698862970E+03  0.19999988976E+01 0.  0.
         13    1    3    3    0    0  0.14421113343E+02  0.83302955882E+01 -0.10126578512E+02  0.19491564612E+02  0.10566000000E+00 0. -1.
         13    1    4    4    0    0 -0.43083352609E+01 -0.20426947779E+01 -0.80869927624E+02  0.81010435826E+02  0.10566000000E+00 0. -1.
        -13    1    4    4    0    0 -0.39749262489E+01 -0.29333130738E+01 -0.10599091041E+03  0.10610602536E+03  0.10566000000E+00 0.  1.
        -14    1    4    4    0    0 -0.61378518334E+01 -0.33542877366E+01 -0.12968367547E+03  0.12987216852E+03  0.00000000000E+00 0.  1.
<mgrwt>
<rscale>  0 0.80653077E+02</rscale>
<asrwt>0</asrwt>
<pdfrwt beam="1">  1        1 0.75454659E-03 0.80653077E+02</pdfrwt>
<pdfrwt beam="2">  1       -2 0.51011620E-01 0.80653077E+02</pdfrwt>
<totfact> 0.65035324E+04</totfact>
</mgrwt>
</event>
<event>
 8    1  0.1241100E-024  0.7919377E+02  0.7818608E-02  0.1331355E+00
          1   -1    0    0  501    0  0.00000000000E+00  0.00000000000E+00  0.46205650448E+01  0.46205677935E+01  0.50400000000E-02 0. -1.
         -2   -1    0    0    0  501 -0.00000000000E+00 -0.00000000000E+00 -0.33933354798E+03  0.33933354799E+03  0.25500000000E-02 0.  1.
        -24    2    1    2    0    0  0.00000000000E+00  0.71054273576E-14 -0.33471298293E+03  0.34395411578E+03  0.79193767550E+02 0.  0.
         66    2    3    3    0    0  0.16993509596E+02 -0.30706259156E+02 -0.24686798905E+03  0.24935809137E+03  0.19999987731E+01 0.  0.
         13    1    3    3    0    0 -0.16993509596E+02  0.30706259156E+02 -0.87844993883E+02  0.94596024409E+02  0.10566000000E+00 0. -1.
         13    1    4    4    0    0  0.29327388042E+01 -0.45798218147E+01 -0.36879606635E+02  0.37278576613E+02  0.10566000000E+00 0. -1.
        -13    1    4    4    0    0  0.13647410520E+02 -0.25028195787E+02 -0.20329944355E+03  0.20528842469E+03  0.10566000000E+00 0.  1.
         14    1    4    4    0    0  0.41336027199E+00 -0.10982415539E+01 -0.66889388643E+01  0.67910900712E+01  0.00000000000E+00 0. -1.
<mgrwt>
<rscale>  0 0.79193768E+02</rscale>
<asrwt>0</asrwt>
<pdfrwt beam="1">  1        1 0.71085664E-03 0.79193768E+02</pdfrwt>
<pdfrwt beam="2">  1       -2 0.52205142E-01 0.79193768E+02</pdfrwt>
<totfact> 0.67255892E+04</totfact>
</mgrwt>
</event>
<event>
 8    1  0.1241100E-024  0.7884375E+02  0.7818608E-02  0.1332365E+00
         -2   -1    0    0    0  501 -0.00000000000E+00  0.00000000000E+00  0.10633737671E+02  0.10633737977E+02  0.25500000000E-02 0.  1.
          1   -1    0    0  501    0  0.00000000000E+00 -0.00000000000E+00 -0.14614657691E+03  0.14614657700E+03  0.50400000000E-02 0. -1.
        -24    2    1    2    0    0  0.00000000000E+00  0.00000000000E+00 -0.13551283924E+03  0.15678031497E+03  0.78843754127E+02 0.  0.
         66    2    3    3    0    0 -0.21232481464E+01  0.38878006356E+02 -0.79742766073E+02  0.88763259864E+02  0.19999999376E+01 0.  0.
         13    1    3    3    0    0  0.21232481464E+01 -0.38878006356E+02 -0.55770073166E+02  0.68017055110E+02  0.10566000000E+00 0. -1.
         13    1    4    4    0    0 -0.11168297568E+00  0.57945231039E+01 -0.11081941075E+02  0.12506380496E+02  0.10566000000E+00 0. -1.
        -13    1    4    4    0    0 -0.13919577479E+01  0.17529119053E+02 -0.34880746532E+02  0.39062580609E+02  0.10566000000E+00 0.  1.
        -14    1    4    4    0    0 -0.61960742284E+00  0.15554364200E+02 -0.33780078466E+02  0.37194298759E+02  0.00000000000E+00 0.  1.
<mgrwt>
<rscale>  0 0.78843754E+02</rscale>
<asrwt>0</asrwt>
<pdfrwt beam="1">  1        1 0.22484087E-01 0.78843754E+02</pdfrwt>
<pdfrwt beam="2">  1       -2 0.16359598E-02 0.78843754E+02</pdfrwt>
<totfact> 0.16336164E+05</totfact>
</mgrwt>
</event>
<event>
 8    1  0.1241100E-024  0.8019901E+02  0.7818608E-02  0.1328488E+00
         -2   -1    0    0    0  501 -0.00000000000E+00  0.00000000000E+00  0.12423390741E+03  0.12423390743E+03  0.25500000000E-02 0.  1.
          1   -1    0    0  501    0  0.00000000000E+00 -0.00000000000E+00 -0.12943085276E+02  0.12943086257E+02  0.50400000000E-02 0. -1.
        -24    2    1    2    0    0  0.17763568394E-14  0.35527136788E-14  0.11129082213E+03  0.13717699369E+03  0.80199005651E+02 0.  0.
         66    2    3    3    0    0  0.98970491483E+01  0.17597489368E+02  0.11489095883E+03  0.11666857195E+03  0.20000118496E+01 0.  0.
         13    1    3    3    0    0 -0.98970491483E+01 -0.17597489368E+02 -0.36001366959E+01  0.20508421738E+02  0.10566000000E+00 0. -1.
         13    1    4    4    0    0  0.42308254532E+01  0.68279343798E+01  0.44012267672E+02  0.44739372387E+02  0.10566000000E+00 0. -1.
        -13    1    4    4    0    0  0.11342172291E+01  0.32336222157E+01  0.17835375735E+02  0.18161898387E+02  0.10566000000E+00 0.  1.
        -14    1    4    4    0    0  0.45320064660E+01  0.75359327730E+01  0.53043315421E+02  0.53767301180E+02  0.00000000000E+00 0.  1.
<mgrwt>
<rscale>  0 0.80199006E+02</rscale>
<asrwt>0</asrwt>
<pdfrwt beam="1">  1        1 0.19912440E-02 0.80199006E+02</pdfrwt>
<pdfrwt beam="2">  1       -2 0.19112909E-01 0.80199006E+02</pdfrwt>
<totfact> 0.99516964E+04</totfact>
</mgrwt>
</event>
<event>
 8    1  0.1241100E-024  0.8062077E+02  0.7818608E-02  0.1327299E+00
         -2   -1    0    0    0  501 -0.00000000000E+00  0.00000000000E+00  0.25669308809E+02  0.25669308936E+02  0.25500000000E-02 0.  1.
          1   -1    0    0  501    0  0.00000000000E+00 -0.00000000000E+00 -0.63302334398E+02  0.63302334598E+02  0.50400000000E-02 0. -1.
        -24    2    1    2    0    0  0.44408920985E-15 -0.35527136788E-14 -0.37633025588E+02  0.88971643534E+02  0.80620771134E+02 0.  0.
         66    2    3    3    0    0 -0.33254702732E+01  0.28503810656E+02  0.12374175494E+02  0.31315270959E+02  0.20000004019E+01 0.  0.
         13    1    3    3    0    0  0.33254702732E+01 -0.28503810656E+02 -0.50007201082E+02  0.57656372575E+02  0.10566000000E+00 0. -1.
         13    1    4    4    0    0 -0.24019100404E+01  0.16683623776E+02  0.72369636130E+01  0.18343862203E+02  0.10566000000E+00 0.  1.
        -13    1    4    4    0    0 -0.80156710342E+00  0.39546104359E+01  0.19659348755E+01  0.44897124063E+01  0.10566000000E+00 0. -1.
         14    1    4    4    0    0 -0.12199312938E+00  0.78655764447E+01  0.31712770053E+01  0.84816963501E+01  0.00000000000E+00 0. -1.
<mgrwt>
<rscale>  0 0.80620771E+02</rscale>
<asrwt>0</asrwt>
<pdfrwt beam="1">  1        1 0.97388207E-02 0.80620771E+02</pdfrwt>
<pdfrwt beam="2">  1       -2 0.39491245E-02 0.80620771E+02</pdfrwt>
<totfact> 0.13365319E+05</totfact>
</mgrwt>
</event>
<event>
 8    1  0.1241100E-024  0.8562851E+02  0.7818608E-02  0.1313797E+00
          1   -1    0    0  501    0  0.00000000000E+00  0.00000000000E+00  0.26256191215E+02  0.26256191699E+02  0.50400000000E-02 0. -1.
         -2   -1    0    0    0  501 -0.00000000000E+00 -0.00000000000E+00 -0.69814398892E+02  0.69814398939E+02  0.25500000000E-02 0.  1.
        -24    2    1    2    0    0  0.00000000000E+00 -0.35527136788E-14 -0.43558207677E+02  0.96070590638E+02  0.85628505356E+02 0.  0.
         66    2    3    3    0    0  0.28105481012E+02 -0.16212716577E+02 -0.53090741265E+02  0.62252687060E+02  0.19999991197E+01 0.  0.
         13    1    3    3    0    0 -0.28105481012E+02  0.16212716577E+02  0.95325335881E+01  0.33817903577E+02  0.10566000000E+00 0. -1.
         13    1    4    4    0    0  0.26684166159E+01 -0.18324563999E+01 -0.62791014207E+01  0.70651696640E+01  0.10566000000E+00 0. -1.
        -13    1    4    4    0    0  0.23959838909E+02 -0.13603064087E+02 -0.44417064941E+02  0.52268576173E+02  0.10566000000E+00 0.  1.
         14    1    4    4    0    0  0.14772254866E+01 -0.77719609037E+00 -0.23945749030E+01  0.29189412237E+01  0.00000000000E+00 0. -1.
<mgrwt>
<rscale>  0 0.85628505E+02</rscale>
<asrwt>0</asrwt>
<pdfrwt beam="1">  1        1 0.40394141E-02 0.85628505E+02</pdfrwt>
<pdfrwt beam="2">  1       -2 0.10740677E-01 0.85628505E+02</pdfrwt>
<totfact> 0.96726261E+04</totfact>
</mgrwt>
</event>
<event>
 8    1  0.1241100E-024  0.8800660E+02  0.7818608E-02  0.1307752E+00
          1   -1    0    0  501    0  0.00000000000E+00  0.00000000000E+00  0.47763244123E+02  0.47763244389E+02  0.50400000000E-02 0. -1.
         -2   -1    0    0    0  501 -0.00000000000E+00 -0.00000000000E+00 -0.40539344262E+02  0.40539344343E+02  0.25500000000E-02 0.  1.
        -24    2    1    2    0    0  0.00000000000E+00  0.00000000000E+00  0.72238998610E+01  0.88302588732E+02  0.88006604568E+02 0.  0.
         66    2    3    3    0    0  0.12026139860E+02  0.40626764782E+02 -0.82209210972E+01  0.43205851433E+02  0.19999994444E+01 0.  0.
         13    1    3    3    0    0 -0.12026139860E+02 -0.40626764782E+02  0.15444820958E+02  0.45096737299E+02  0.10566000000E+00 0. -1.
         13    1    4    4    0    0  0.79153943173E+01  0.25068765943E+02 -0.45512446030E+01  0.26679982845E+02  0.10566000000E+00 0.  1.
        -13    1    4    4    0    0  0.30653389056E+01  0.10175218269E+02 -0.25579245428E+01  0.10930942843E+02  0.10566000000E+00 0. -1.
         14    1    4    4    0    0  0.10454066375E+01  0.53827805690E+01 -0.11117519515E+01  0.55949257451E+01  0.00000000000E+00 0. -1.
<mgrwt>
<rscale>  0 0.88006605E+02</rscale>
<asrwt>0</asrwt>
<pdfrwt beam="1">  1        1 0.73481915E-02 0.88006605E+02</pdfrwt>
<pdfrwt beam="2">  1       -2 0.62368222E-02 0.88006605E+02</pdfrwt>
<totfact> 0.99890544E+04</totfact>
</mgrwt>
</event>
<event>
 8    1  0.1241100E-024  0.8103704E+02  0.7818608E-02  0.1326134E+00
          1   -1    0    0  501    0  0.00000000000E+00  0.00000000000E+00  0.76062477553E+02  0.76062477720E+02  0.50400000000E-02 0. -1.
         -2   -1    0    0    0  501 -0.00000000000E+00 -0.00000000000E+00 -0.21584236496E+02  0.21584236647E+02  0.25500000000E-02 0.  1.
        -24    2    1    2    0    0  0.00000000000E+00  0.00000000000E+00  0.54478241057E+02  0.97646714367E+02  0.81037041394E+02 0.  0.
         66    2    3    3    0    0 -0.20494672637E+01 -0.37463894530E+02  0.45609202535E+02  0.59092665062E+02  0.19999997032E+01 0.  0.
         13    1    3    3    0    0  0.20494672637E+01  0.37463894530E+02  0.88690385226E+01  0.38554049305E+02  0.10566000000E+00 0. -1.
         13    1    4    4    0    0  0.19004840586E-01 -0.10714108344E+01  0.11707251707E+01  0.15906111469E+01  0.10566000000E+00 0.  1.
        -13    1    4    4    0    0  0.22583689065E-01 -0.50122060369E+01  0.69302781605E+01  0.85535161656E+01  0.10566000000E+00 0.  1.
        -14    1    4    4    0    0 -0.20910557934E+01 -0.31380277659E+02  0.37508199204E+02  0.48948537749E+02  0.00000000000E+00 0.  1.
<mgrwt>
<rscale>  0 0.81037041E+02</rscale>
<asrwt>0</asrwt>
<pdfrwt beam="1">  1        1 0.11701920E-01 0.81037041E+02</pdfrwt>
<pdfrwt beam="2">  1       -2 0.33206518E-02 0.81037041E+02</pdfrwt>
<totfact> 0.13569184E+05</totfact>
</mgrwt>
</event>
<event>
 8    1  0.1241100E-024  0.8077351E+02  0.7818608E-02  0.1326871E+00
          1   -1    0    0  501    0  0.00000000000E+00  0.00000000000E+00  0.61436235856E+02  0.61436236063E+02  0.50400000000E-02 0. -1.
         -2   -1    0    0    0  501 -0.00000000000E+00 -0.00000000000E+00 -0.26549317823E+02  0.26549317946E+02  0.25500000000E-02 0.  1.
        -24    2    1    2    0    0 -0.35527136788E-14 -0.35527136788E-14  0.34886918033E+02  0.87985554008E+02  0.80773514622E+02 0.  0.
         66    2    3    3    0    0  0.24637706069E+02 -0.25326668350E+02  0.38705792928E+02  0.52446115922E+02  0.19999947672E+01 0.  0.
         13    1    3    3    0    0 -0.24637706069E+02  0.25326668350E+02 -0.38188748951E+01  0.35539438087E+02  0.10566000000E+00 0. -1.
         13    1    4    4    0    0  0.88093992674E+00 -0.88503277750E+00  0.12020952422E+01  0.17365296366E+01  0.10566000000E+00 0. -1.
        -13    1    4    4    0    0  0.13014013134E+02 -0.14623910440E+02  0.21754794369E+02  0.29266115842E+02  0.10566000000E+00 0.  1.
        -14    1    4    4    0    0  0.10742753008E+02 -0.98177251322E+01  0.15748903316E+02  0.21443470443E+02  0.00000000000E+00 0.  1.
<mgrwt>
<rscale>  0 0.80773515E+02</rscale>
<asrwt>0</asrwt>
<pdfrwt beam="1">  1        1 0.94517286E-02 0.80773515E+02</pdfrwt>
<pdfrwt beam="2">  1       -2 0.40845105E-02 0.80773515E+02</pdfrwt>
<totfact> 0.13233140E+05</totfact>
</mgrwt>
</event>
<event>
 8    1  0.1241100E-024  0.8022120E+02  0.7818608E-02  0.1328425E+00
          1   -1    0    0  501    0  0.00000000000E+00  0.00000000000E+00  0.11601870365E+02  0.11601871459E+02  0.50400000000E-02 0. -1.
         -2   -1    0    0    0  501 -0.00000000000E+00 -0.00000000000E+00 -0.13867247570E+03  0.13867247572E+03  0.25500000000E-02 0.  1.
        -24    2    1    2    0    0 -0.17763568394E-14  0.00000000000E+00 -0.12707060533E+03  0.15027434718E+03  0.80221198450E+02 0.  0.
         66    2    3    3    0    0  0.10350352013E+02  0.34246218001E+02 -0.97444883072E+02  0.10382407465E+03  0.20000017342E+01 0.  0.
         13    1    3    3    0    0 -0.10350352013E+02 -0.34246218001E+02 -0.29625722263E+02  0.46450272527E+02  0.10566000000E+00 0. -1.
         13    1    4    4    0    0  0.13590735862E+01  0.62058024746E+01 -0.18588810153E+02  0.19644696290E+02  0.10566000000E+00 0. -1.
        -13    1    4    4    0    0  0.37096725019E+01  0.10214774655E+02 -0.28923964187E+02  0.30898384418E+02  0.10566000000E+00 0.  1.
        -14    1    4    4    0    0  0.52816059247E+01  0.17825640872E+02 -0.49932108731E+02  0.53280993947E+02  0.00000000000E+00 0.  1.
<mgrwt>
<rscale>  0 0.80221198E+02</rscale>
<asrwt>0</asrwt>
<pdfrwt beam="1">  1        1 0.17849033E-02 0.80221198E+02</pdfrwt>
<pdfrwt beam="2">  1       -2 0.21334226E-01 0.80221198E+02</pdfrwt>
<totfact> 0.96226662E+04</totfact>
</mgrwt>
</event>
<event>
 8    1  0.1241100E-024  0.8018209E+02  0.7818608E-02  0.1328535E+00
         -2   -1    0    0    0  501 -0.00000000000E+00  0.00000000000E+00  0.11192726648E+03  0.11192726651E+03  0.25500000000E-02 0.  1.
          1   -1    0    0  501    0  0.00000000000E+00 -0.00000000000E+00 -0.14360144382E+02  0.14360145267E+02  0.50400000000E-02 0. -1.
        -24    2    1    2    0    0  0.00000000000E+00  0.00000000000E+00  0.97567122094E+02  0.12628741177E+03  0.80182086892E+02 0.  0.
         66    2    3    3    0    0 -0.29441777060E+02  0.26907177381E+02  0.54805561509E+02  0.67811975401E+02  0.20000010943E+01 0.  0.
         13    1    3    3    0    0  0.29441777060E+02 -0.26907177381E+02  0.42761560585E+02  0.58475436371E+02  0.10566000000E+00 0. -1.
         13    1    4    4    0    0 -0.77808639893E+01  0.61897470663E+01  0.14375265333E+02  0.17478965376E+02  0.10566000000E+00 0. -1.
        -13    1    4    4    0    0 -0.18777124930E+02  0.17853787926E+02  0.34611123589E+02  0.43235161663E+02  0.10566000000E+00 0.  1.
        -14    1    4    4    0    0 -0.28837881416E+01  0.28636423883E+01  0.58191725872E+01  0.70978483622E+01  0.00000000000E+00 0.  1.
<mgrwt>
<rscale>  0 0.80182087E+02</rscale>
<asrwt>0</asrwt>
<pdfrwt beam="1">  1        1 0.22092531E-02 0.80182087E+02</pdfrwt>
<pdfrwt beam="2">  1       -2 0.17219579E-01 0.80182087E+02</pdfrwt>
<totfact> 0.10249214E+05</totfact>
</mgrwt>
</event>
<event>
 8    1  0.1241100E-024  0.8750609E+02  0.7818608E-02  0.1309006E+00
          1   -1    0    0  501    0  0.00000000000E+00  0.00000000000E+00  0.10418560812E+02  0.10418562031E+02  0.50400000000E-02 0. -1.
         -2   -1    0    0    0  501 -0.00000000000E+00 -0.00000000000E+00 -0.18374214581E+03  0.18374214583E+03  0.25500000000E-02 0.  1.
        -24    2    1    2    0    0  0.00000000000E+00  0.00000000000E+00 -0.17332358500E+03  0.19416070786E+03  0.87506087558E+02 0.  0.
         66    2    3    3    0    0 -0.23309607936E+02 -0.59693503516E+00 -0.16879236060E+03  0.17040702789E+03  0.20000007558E+01 0.  0.
         13    1    3    3    0    0  0.23309607936E+02  0.59693503516E+00 -0.45312243975E+01  0.23753679971E+02  0.10566000000E+00 0. -1.
         13    1    4    4    0    0 -0.21385999683E+01  0.28966090973E+00 -0.16643147884E+02  0.16782820049E+02  0.10566000000E+00 0.  1.
        -13    1    4    4    0    0 -0.33733471341E+01 -0.63249543283E+00 -0.25703103743E+02  0.25931452474E+02  0.10566000000E+00 0. -1.
         14    1    4    4    0    0 -0.17797660834E+02 -0.25410051207E+00 -0.12644610897E+03  0.12769275537E+03  0.00000000000E+00 0. -1.
<mgrwt>
<rscale>  0 0.87506088E+02</rscale>
<asrwt>0</asrwt>
<pdfrwt beam="1">  1        1 0.16028557E-02 0.87506088E+02</pdfrwt>
<pdfrwt beam="2">  1       -2 0.28268020E-01 0.87506088E+02</pdfrwt>
<totfact> 0.69761834E+04</totfact>
</mgrwt>
</event>
<event>
 8    1  0.1412165E-024  0.7562800E+02  0.7818608E-02  0.1341937E+00
         -2   -1    0    0    0  501 -0.00000000000E+00  0.00000000000E+00  0.13782790479E+02  0.13782790715E+02  0.25500000000E-02 0.  1.
          1   -1    0    0  501    0  0.00000000000E+00 -0.00000000000E+00 -0.10374521962E+03  0.10374521974E+03  0.50400000000E-02 0. -1.
        -24    2    1    2    0    0  0.35527136788E-14  0.17763568394E-14 -0.89962429140E+02  0.11752801046E+03  0.75628001330E+02 0.  0.
         66    2    3    3    0    0  0.24210623242E+02  0.10946320555E+02 -0.32581542834E+01  0.26843840648E+02  0.19999999831E+01 0.  0.
         13    1    3    3    0    0 -0.24210623242E+02 -0.10946320555E+02 -0.86704274857E+02  0.90684169809E+02  0.10566000000E+00 0. -1.
         13    1    4    4    0    0  0.46321966933E+01  0.18122460003E+01 -0.74953684974E+00  0.50313468670E+01  0.10566000000E+00 0. -1.
        -13    1    4    4    0    0  0.19141498387E+02  0.87411843267E+01 -0.22264485746E+01  0.21160659282E+02  0.10566000000E+00 0.  1.
         14    1    4    4    0    0  0.43692816165E+00  0.39289022761E+00 -0.28216885904E+00  0.65183449925E+00  0.00000000000E+00 0. -1.
<mgrwt>
<rscale>  0 0.75628001E+02</rscale>
<asrwt>0</asrwt>
<pdfrwt beam="1">  1        1 0.15960803E-01 0.75628001E+02</pdfrwt>
<pdfrwt beam="2">  1       -2 0.21204294E-02 0.75628001E+02</pdfrwt>
<totfact> 0.17204264E+05</totfact>
</mgrwt>
</event>
<event>
 8    1  0.1241100E-024  0.7948116E+02  0.7818608E-02  0.1330530E+00
          1   -1    0    0  501    0  0.00000000000E+00  0.00000000000E+00  0.14265483518E+02  0.14265484408E+02  0.50400000000E-02 0. -1.
         -2   -1    0    0    0  501 -0.00000000000E+00 -0.00000000000E+00 -0.11070874208E+03  0.11070874211E+03  0.25500000000E-02 0.  1.
        -24    2    1    2    0    0  0.00000000000E+00  0.35527136788E-14 -0.96443258565E+02  0.12497422652E+03  0.79481162371E+02 0.  0.
         66    2    3    3    0    0  0.12614813892E+02 -0.26254144082E+02 -0.90703163000E+02  0.95286291731E+02  0.20000006456E+01 0.  0.
         13    1    3    3    0    0 -0.12614813892E+02  0.26254144082E+02 -0.57400955656E+01  0.29687934791E+02  0.10566000000E+00 0. -1.
         13    1    4    4    0    0  0.62866361404E+00 -0.11060234558E+01 -0.33658442712E+01  0.35998024276E+01  0.10566000000E+00 0. -1.
        -13    1    4    4    0    0  0.88184264322E+01 -0.19742258912E+02 -0.66417787792E+02  0.69848801929E+02  0.10566000000E+00 0.  1.
         14    1    4    4    0    0  0.31677238460E+01 -0.54058617140E+01 -0.20919530937E+02  0.21837687374E+02  0.00000000000E+00 0. -1.
<mgrwt>
<rscale>  0 0.79481162E+02</rscale>
<asrwt>0</asrwt>
<pdfrwt beam="1">  1        1 0.21946899E-02 0.79481162E+02</pdfrwt>
<pdfrwt beam="2">  1       -2 0.17032114E-01 0.79481162E+02</pdfrwt>
<totfact> 0.10513139E+05</totfact>
</mgrwt>
</event>
<event>
 8    1  0.1241100E-024  0.7983788E+02  0.7818608E-02  0.1329512E+00
         -2   -1    0    0    0  501 -0.00000000000E+00  0.00000000000E+00  0.40067047333E+03  0.40067047333E+03  0.25500000000E-02 0.  1.
          1   -1    0    0  501    0  0.00000000000E+00 -0.00000000000E+00 -0.39771368454E+01  0.39771400388E+01  0.50400000000E-02 0. -1.
        -24    2    1    2    0    0  0.00000000000E+00  0.00000000000E+00  0.39669333648E+03  0.40464761337E+03  0.79837884493E+02 0.  0.
         66    2    3    3    0    0 -0.39117883072E+02  0.21871798458E+01  0.16036542412E+03  0.16509409981E+03  0.20000024451E+01 0.  0.
         13    1    3    3    0    0  0.39117883072E+02 -0.21871798458E+01  0.23632791236E+03  0.23955351356E+03  0.10566000000E+00 0. -1.
         13    1    4    4    0    0 -0.10585450475E+02 -0.22672658478E+00  0.42820796042E+02  0.44110485198E+02  0.10566000000E+00 0. -1.
        -13    1    4    4    0    0 -0.23105303756E+02  0.21248566058E+01  0.95909058649E+02  0.98675877358E+02  0.10566000000E+00 0.  1.
        -14    1    4    4    0    0 -0.54271288412E+01  0.28904982473E+00  0.21635569425E+02  0.22307737259E+02  0.00000000000E+00 0.  1.
<mgrwt>
<rscale>  0 0.79837884E+02</rscale>
<asrwt>0</asrwt>
<pdfrwt beam="1">  1        1 0.61186781E-03 0.79837884E+02</pdfrwt>
<pdfrwt beam="2">  1       -2 0.61641575E-01 0.79837884E+02</pdfrwt>
<totfact> 0.59338114E+04</totfact>
</mgrwt>
</event>
<event>
 8    1  0.1241100E-024  0.8039356E+02  0.7818608E-02  0.1327938E+00
          1   -1    0    0  501    0  0.00000000000E+00  0.00000000000E+00  0.35658761487E+03  0.35658761491E+03  0.50400000000E-02 0. -1.
         -2   -1    0    0    0  501 -0.00000000000E+00 -0.00000000000E+00 -0.45312317082E+01  0.45312324257E+01  0.25500000000E-02 0.  1.
        -24    2    1    2    0    0  0.00000000000E+00  0.00000000000E+00  0.35205638317E+03  0.36111884733E+03  0.80393563007E+02 0.  0.
         66    2    3    3    0    0  0.20092547597E+02 -0.33209429778E+02  0.12962907144E+03  0.13533023633E+03  0.20000017605E+01 0.  0.
         13    1    3    3    0    0 -0.20092547597E+02  0.33209429778E+02  0.22242731172E+03  0.22578861100E+03  0.10566000000E+00 0. -1.
         13    1    4    4    0    0  0.26492735798E+01 -0.43039425973E+01  0.18028852759E+02  0.18724135981E+02  0.10566000000E+00 0. -1.
        -13    1    4    4    0    0  0.93491675365E+01 -0.15903238873E+02  0.58317984092E+02  0.61166317307E+02  0.10566000000E+00 0.  1.
        -14    1    4    4    0    0  0.80941064806E+01 -0.13002248308E+02  0.53282234592E+02  0.55439783043E+02  0.00000000000E+00 0.  1.
<mgrwt>
<rscale>  0 0.80393563E+02</rscale>
<asrwt>0</asrwt>
<pdfrwt beam="1">  1        1 0.54859647E-01 0.80393563E+02</pdfrwt>
<pdfrwt beam="2">  1       -2 0.69711245E-03 0.80393563E+02</pdfrwt>
<totfact> 0.18385937E+05</totfact>
</mgrwt>
</event>
<event>
 8    1  0.1241100E-024  0.8134691E+02  0.7818608E-02  0.1325272E+00
          1   -1    0    0  501    0  0.00000000000E+00  0.00000000000E+00  0.34615734235E+01  0.34615770926E+01  0.50400000000E-02 0. -1.
         -2   -1    0    0    0  501 -0.00000000000E+00 -0.00000000000E+00 -0.47791247357E+03  0.47791247358E+03  0.25500000000E-02 0.  1.
        -24    2    1    2    0    0  0.00000000000E+00  0.00000000000E+00 -0.47445090015E+03  0.48137405067E+03  0.81346911485E+02 0.  0.
         66    2    3    3    0    0 -0.16499662998E+02 -0.25447299034E+02 -0.39752756887E+03  0.39868781260E+03  0.19999995101E+01 0.  0.
         13    1    3    3    0    0  0.16499662998E+02  0.25447299034E+02 -0.76923331278E+02  0.82686238069E+02  0.10566000000E+00 0. -1.
         13    1    4    4    0    0 -0.13021798606E+01 -0.20900689445E+01 -0.27436033430E+02  0.27546527095E+02  0.10566000000E+00 0.  1.
        -13    1    4    4    0    0 -0.75219746964E+01 -0.12700292680E+02 -0.19506158034E+03  0.19561929564E+03  0.10566000000E+00 0.  1.
         14    1    4    4    0    0 -0.76755084407E+01 -0.10656937409E+02 -0.17502995510E+03  0.17552198987E+03  0.00000000000E+00 0. -1.
<mgrwt>
<rscale>  0 0.81346911E+02</rscale>
<asrwt>0</asrwt>
<pdfrwt beam="1">  1        1 0.53255042E-03 0.81346911E+02</pdfrwt>
<pdfrwt beam="2">  1       -2 0.73524944E-01 0.81346911E+02</pdfrwt>
<totfact> 0.49936402E+04</totfact>
</mgrwt>
</event>
<event>
 8    1  0.1241100E-024  0.7928703E+02  0.7818608E-02  0.1331087E+00
         -2   -1    0    0    0  501 -0.00000000000E+00  0.00000000000E+00  0.60151260647E+02  0.60151260701E+02  0.25500000000E-02 0.  1.
          1   -1    0    0  501    0  0.00000000000E+00 -0.00000000000E+00 -0.26127599777E+02  0.26127600263E+02  0.50400000000E-02 0. -1.
        -24    2    1    2    0    0  0.00000000000E+00  0.88817841970E-15  0.34023660870E+02  0.86278860965E+02  0.79287025107E+02 0.  0.
         66    2    3    3    0    0 -0.25436883444E+02 -0.61719150678E+01  0.49385358453E+02  0.55928894052E+02  0.19999963500E+01 0.  0.
         13    1    3    3    0    0  0.25436883444E+02  0.61719150678E+01 -0.15361697582E+02  0.30349966913E+02  0.10566000000E+00 0. -1.
         13    1    4    4    0    0 -0.43091110390E+01 -0.13796303656E+01  0.80089792612E+01  0.91992788159E+01  0.10566000000E+00 0. -1.
        -13    1    4    4    0    0 -0.19139852618E+02 -0.40404362860E+01  0.36540325481E+02  0.41447142650E+02  0.10566000000E+00 0.  1.
         14    1    4    4    0    0 -0.19879197874E+01 -0.75184841622E+00  0.48360537109E+01  0.52824725855E+01  0.00000000000E+00 0. -1.
<mgrwt>
<rscale>  0 0.79287025E+02</rscale>
<asrwt>0</asrwt>
<pdfrwt beam="1">  1        1 0.40196308E-02 0.79287025E+02</pdfrwt>
<pdfrwt beam="2">  1       -2 0.92540401E-02 0.79287025E+02</pdfrwt>
<totfact> 0.12104366E+05</totfact>
</mgrwt>
</event>
<event>
 8    1  0.1241100E-024  0.8027245E+02  0.7818608E-02  0.1328280E+00
          1   -1    0    0  501    0  0.00000000000E+00  0.00000000000E+00  0.35107096827E+03  0.35107096831E+03  0.50400000000E-02 0. -1.
         -2   -1    0    0    0  501 -0.00000000000E+00 -0.00000000000E+00 -0.45885771762E+01  0.45885778847E+01  0.25500000000E-02 0.  1.
        -24    2    1    2    0    0  0.00000000000E+00  0.00000000000E+00  0.34648239109E+03  0.35565954619E+03  0.80272445201E+02 0.  0.
         66    2    3    3    0    0  0.29120086752E+02 -0.27570027049E+02  0.16932273420E+03  0.17401802825E+03  0.19999990633E+01 0.  0.
         13    1    3    3    0    0 -0.29120086752E+02  0.27570027049E+02  0.17715965690E+03  0.18164151794E+03  0.10566000000E+00 0. -1.
         13    1    4    4    0    0  0.17457593025E+01 -0.19718426045E+01  0.98264021424E+01  0.10173749648E+02  0.10566000000E+00 0. -1.
        -13    1    4    4    0    0  0.18164223754E+02 -0.17310766644E+02  0.10472515995E+03  0.10768923789E+03  0.10566000000E+00 0.  1.
        -14    1    4    4    0    0  0.92101036956E+01 -0.82874178001E+01  0.54771172098E+02  0.56155040707E+02  0.00000000000E+00 0.  1.
<mgrwt>
<rscale>  0 0.80272445E+02</rscale>
<asrwt>0</asrwt>
<pdfrwt beam="1">  1        1 0.54010924E-01 0.80272445E+02</pdfrwt>
<pdfrwt beam="2">  1       -2 0.70593493E-03 0.80272445E+02</pdfrwt>
<totfact> 0.18408049E+05</totfact>
</mgrwt>
</event>
<event>
 8    1  0.1241100E-024  0.7818171E+02  0.7818608E-02  0.1334292E+00
         -2   -1    0    0    0  501 -0.00000000000E+00  0.00000000000E+00  0.26903890547E+03  0.26903890548E+03  0.25500000000E-02 0.  1.
          1   -1    0    0  501    0  0.00000000000E+00 -0.00000000000E+00 -0.56798276064E+01  0.56798298425E+01  0.50400000000E-02 0. -1.
        -24    2    1    2    0    0 -0.17763568394E-14 -0.35527136788E-14  0.26335907786E+03  0.27471873533E+03  0.78181709147E+02 0.  0.
         66    2    3    3    0    0  0.10676927531E+02 -0.30945989647E+02  0.20667220701E+03  0.20925833853E+03  0.20000097636E+01 0.  0.
         13    1    3    3    0    0 -0.10676927531E+02  0.30945989647E+02  0.56686870854E+02  0.65460396791E+02  0.10566000000E+00 0. -1.
         13    1    4    4    0    0  0.38607399440E+01 -0.11602299267E+02  0.83280658500E+02  0.84173617633E+02  0.10566000000E+00 0. -1.
        -13    1    4    4    0    0  0.45719369099E+01 -0.12855473004E+02  0.82732933529E+02  0.83850553055E+02  0.10566000000E+00 0.  1.
         14    1    4    4    0    0  0.22442506772E+01 -0.64882173749E+01  0.40658614980E+02  0.41234167846E+02  0.00000000000E+00 0. -1.
<mgrwt>
<rscale>  0 0.78181709E+02</rscale>
<asrwt>0</asrwt>
<pdfrwt beam="1">  1        1 0.87381995E-03 0.78181709E+02</pdfrwt>
<pdfrwt beam="2">  1       -2 0.41390594E-01 0.78181709E+02</pdfrwt>
<totfact> 0.78939181E+04</totfact>
</mgrwt>
</event>
<event>
 8    1  0.1241100E-024  0.8153490E+02  0.7818608E-02  0.1324751E+00
         -2   -1    0    0    0  501 -0.00000000000E+00  0.00000000000E+00  0.13527200430E+02  0.13527200671E+02  0.25500000000E-02 0.  1.
          1   -1    0    0  501    0  0.00000000000E+00 -0.00000000000E+00 -0.12286245718E+03  0.12286245728E+03  0.50400000000E-02 0. -1.
        -24    2    1    2    0    0  0.00000000000E+00  0.00000000000E+00 -0.10933525675E+03  0.13638965795E+03  0.81534903129E+02 0.  0.
         66    2    3    3    0    0  0.57463983046E+01 -0.28584041711E+02 -0.70949785591E+01  0.30073364835E+02  0.20000044322E+01 0.  0.
         13    1    3    3    0    0 -0.57463983046E+01  0.28584041711E+02 -0.10224027819E+03  0.10631629312E+03  0.10566000000E+00 0. -1.
         13    1    4    4    0    0  0.39400868196E+00 -0.29885339009E+01 -0.11417341775E+01  0.32251044457E+01  0.10566000000E+00 0. -1.
        -13    1    4    4    0    0  0.23675390850E+01 -0.97847229702E+01 -0.17543650356E+01  0.10219344677E+02  0.10566000000E+00 0.  1.
        -14    1    4    4    0    0  0.29848505377E+01 -0.15810784840E+02 -0.41988793460E+01  0.16628915712E+02  0.00000000000E+00 0.  1.
<mgrwt>
<rscale>  0 0.81534903E+02</rscale>
<asrwt>0</asrwt>
<pdfrwt beam="1">  1        1 0.18901916E-01 0.81534903E+02</pdfrwt>
<pdfrwt beam="2">  1       -2 0.20811079E-02 0.81534903E+02</pdfrwt>
<totfact> 0.14470613E+05</totfact>
</mgrwt>
</event>
<event>
 8    1  0.1241100E-024  0.8264760E+02  0.7818608E-02  0.1321702E+00
         -2   -1    0    0    0  501 -0.00000000000E+00  0.00000000000E+00  0.61167529661E+01  0.61167534976E+01  0.25500000000E-02 0.  1.
          1   -1    0    0  501    0  0.00000000000E+00 -0.00000000000E+00 -0.27917690938E+03  0.27917690943E+03  0.50400000000E-02 0. -1.
        -24    2    1    2    0    0  0.00000000000E+00  0.00000000000E+00 -0.27306015642E+03  0.28529366293E+03  0.82647595751E+02 0.  0.
         66    2    3    3    0    0  0.31464039147E+02 -0.20387811375E+02 -0.76820371425E+02  0.85504491574E+02  0.20000002986E+01 0.  0.
         13    1    3    3    0    0 -0.31464039147E+02  0.20387811375E+02 -0.19623978499E+03  0.19978917135E+03  0.10566000000E+00 0. -1.
         13    1    4    4    0    0  0.13525310693E+02 -0.88271062256E+01 -0.33751440302E+02  0.37416877478E+02  0.10566000000E+00 0. -1.
        -13    1    4    4    0    0  0.14086389293E+02 -0.83994037950E+01 -0.32602137519E+02  0.36495025446E+02  0.10566000000E+00 0.  1.
        -14    1    4    4    0    0  0.38523391611E+01 -0.31613013549E+01 -0.10466793604E+02  0.11592588651E+02  0.00000000000E+00 0.  1.
<mgrwt>
<rscale>  0 0.82647596E+02</rscale>
<asrwt>0</asrwt>
<pdfrwt beam="1">  1        1 0.42950284E-01 0.82647596E+02</pdfrwt>
<pdfrwt beam="2">  1       -2 0.94103917E-03 0.82647596E+02</pdfrwt>
<totfact> 0.16326347E+05</totfact>
</mgrwt>
</event>
<event>
 8    1  0.1241100E-024  0.8049380E+02  0.7818608E-02  0.1327656E+00
         -2   -1    0    0    0  501 -0.00000000000E+00  0.00000000000E+00  0.27985957836E+02  0.27985957952E+02  0.25500000000E-02 0.  1.
          1   -1    0    0  501    0  0.00000000000E+00 -0.00000000000E+00 -0.57879491668E+02  0.57879491888E+02  0.50400000000E-02 0. -1.
        -24    2    1    2    0    0  0.00000000000E+00  0.00000000000E+00 -0.29893533832E+02  0.85865449840E+02  0.80493801695E+02 0.  0.
         66    2    3    3    0    0 -0.82571049025E+01 -0.16737832309E+02  0.23051398521E+02  0.29727122133E+02  0.20000011852E+01 0.  0.
         13    1    3    3    0    0  0.82571049025E+01  0.16737832309E+02 -0.52944932354E+02  0.56138327707E+02  0.10566000000E+00 0. -1.
         13    1    4    4    0    0 -0.75955212644E+00 -0.27354149363E+01  0.33954879567E+01  0.44271793284E+01  0.10566000000E+00 0. -1.
        -13    1    4    4    0    0 -0.37698927772E+01 -0.77158408812E+01  0.98157264230E+01  0.13042466841E+02  0.10566000000E+00 0. -1.
        -14    1    4    4    0    0 -0.37276599989E+01 -0.62865764916E+01  0.98401841416E+01  0.12257475963E+02  0.00000000000E+00 0.  1.
<mgrwt>
<rscale>  0 0.80493802E+02</rscale>
<asrwt>0</asrwt>
<pdfrwt beam="1">  1        1 0.89045372E-02 0.80493802E+02</pdfrwt>
<pdfrwt beam="2">  1       -2 0.43055320E-02 0.80493802E+02</pdfrwt>
<totfact> 0.13235499E+05</totfact>
</mgrwt>
</event>
<event>
 8    1  0.1241100E-024  0.8120881E+02  0.7818608E-02  0.1325656E+00
          1   -1    0    0  501    0  0.00000000000E+00  0.00000000000E+00  0.15932889386E+01  0.15932969100E+01  0.50400000000E-02 0. -1.
         -2   -1    0    0    0  501 -0.00000000000E+00 -0.00000000000E+00 -0.10347862022E+04  0.10347862022E+04  0.25500000000E-02 0.  1.
        -24    2    1    2    0    0  0.00000000000E+00  0.00000000000E+00 -0.10331929133E+04  0.10363794991E+04  0.81208805979E+02 0.  0.
         66    2    3    3    0    0  0.26083523095E+02 -0.78145234311E+01 -0.90089094034E+03  0.90130455638E+03  0.19999994160E+01 0.  0.
         13    1    3    3    0    0 -0.26083523095E+02  0.78145234311E+01 -0.13230197293E+03  0.13507494275E+03  0.10566000000E+00 0. -1.
         13    1    4    4    0    0  0.89247355984E+01 -0.34039469686E+01 -0.30319204445E+03  0.30334248753E+03  0.10566000000E+00 0. -1.
        -13    1    4    4    0    0  0.16798126280E+02 -0.44439130200E+01 -0.58597372414E+03  0.58623130414E+03  0.10566000000E+00 0.  1.
         14    1    4    4    0    0  0.36066121603E+00  0.33336557584E-01 -0.11725171760E+02  0.11730764708E+02  0.00000000000E+00 0. -1.
<mgrwt>
<rscale>  0 0.81208806E+02</rscale>
<asrwt>0</asrwt>
<pdfrwt beam="1">  1        1 0.24512282E-03 0.81208806E+02</pdfrwt>
<pdfrwt beam="2">  1       -2 0.15919734E+00 0.81208806E+02</pdfrwt>
<totfact> 0.24093706E+04</totfact>
</mgrwt>
</event>
<event>
 8    1  0.1241100E-024  0.8039034E+02  0.7818608E-02  0.1327947E+00
         -2   -1    0    0    0  501 -0.00000000000E+00  0.00000000000E+00  0.10556255319E+03  0.10556255322E+03  0.25500000000E-02 0.  1.
          1   -1    0    0  501    0  0.00000000000E+00 -0.00000000000E+00 -0.15305160227E+02  0.15305161057E+02  0.50400000000E-02 0. -1.
        -24    2    1    2    0    0  0.00000000000E+00  0.00000000000E+00  0.90257392961E+02  0.12086771428E+03  0.80390343761E+02 0.  0.
         66    2    3    3    0    0  0.23703778625E+02  0.25689678456E+02  0.74917633144E+02  0.82695105044E+02  0.19999855145E+01 0.  0.
         13    1    3    3    0    0 -0.23703778625E+02 -0.25689678456E+02  0.15339759817E+02  0.38172609232E+02  0.10566000000E+00 0. -1.
         13    1    4    4    0    0  0.97038961568E+01  0.11001536619E+02  0.31103000999E+02  0.34389057035E+02  0.10566000000E+00 0.  1.
        -13    1    4    4    0    0  0.13805083493E+02  0.14238166846E+02  0.42402372057E+02  0.46811088915E+02  0.10566000000E+00 0. -1.
         14    1    4    4    0    0  0.19479897548E+00  0.44997499076E+00  0.14122600882E+01  0.14949590930E+01  0.00000000000E+00 0. -1.
<mgrwt>
<rscale>  0 0.80390344E+02</rscale>
<asrwt>0</asrwt>
<pdfrwt beam="1">  1        1 0.23546400E-02 0.80390344E+02</pdfrwt>
<pdfrwt beam="2">  1       -2 0.16240393E-01 0.80390344E+02</pdfrwt>
<totfact> 0.10338852E+05</totfact>
</mgrwt>
</event>
<event>
 8    1  0.1241100E-024  0.8093077E+02  0.7818608E-02  0.1326431E+00
          1   -1    0    0  501    0  0.00000000000E+00  0.00000000000E+00  0.15747299500E+03  0.15747299508E+03  0.50400000000E-02 0. -1.
         -2   -1    0    0    0  501 -0.00000000000E+00 -0.00000000000E+00 -0.10398273075E+02  0.10398273388E+02  0.25500000000E-02 0.  1.
        -24    2    1    2    0    0  0.35527136788E-14  0.00000000000E+00  0.14707472192E+03  0.16787126846E+03  0.80930766386E+02 0.  0.
         66    2    3    3    0    0 -0.18237169695E+02 -0.33409357153E+02  0.45242686057E+02  0.59158094488E+02  0.19999994814E+01 0.  0.
         13    1    3    3    0    0  0.18237169695E+02  0.33409357153E+02  0.10183203586E+03  0.10871317398E+03  0.10566000000E+00 0. -1.
         13    1    4    4    0    0 -0.49352607114E+01 -0.98182959596E+01  0.12450335244E+02  0.16606557306E+02  0.10566000000E+00 0.  1.
        -13    1    4    4    0    0 -0.49169663103E+01 -0.91297769587E+01  0.11593486593E+02  0.15554725341E+02  0.10566000000E+00 0.  1.
        -14    1    4    4    0    0 -0.83849426736E+01 -0.14461284235E+02  0.21198864221E+02  0.26996811842E+02  0.00000000000E+00 0.  1.
<mgrwt>
<rscale>  0 0.80930766E+02</rscale>
<asrwt>0</asrwt>
<pdfrwt beam="1">  1        1 0.24226613E-01 0.80930766E+02</pdfrwt>
<pdfrwt beam="2">  1       -2 0.15997345E-02 0.80930766E+02</pdfrwt>
<totfact> 0.15446746E+05</totfact>
</mgrwt>
</event>
<event>
 8    1  0.1241100E-024  0.8032676E+02  0.7818608E-02  0.1328127E+00
          1   -1    0    0  501    0  0.00000000000E+00  0.00000000000E+00  0.93157253749E+02  0.93157253885E+02  0.50400000000E-02 0. -1.
         -2   -1    0    0    0  501 -0.00000000000E+00 -0.00000000000E+00 -0.17315852407E+02  0.17315852595E+02  0.25500000000E-02 0.  1.
        -24    2    1    2    0    0 -0.71054273576E-14 -0.35527136788E-14  0.75841401342E+02  0.11047310648E+03  0.80326764518E+02 0.  0.
         66    2    3    3    0    0  0.37976146122E+02  0.12919269772E+02  0.39887702672E+02  0.56604982160E+02  0.19999937842E+01 0.  0.
         13    1    3    3    0    0 -0.37976146122E+02 -0.12919269772E+02  0.35953698670E+02  0.53868124320E+02  0.10566000000E+00 0. -1.
         13    1    4    4    0    0  0.17843922246E+02  0.65380459066E+01  0.18589656871E+02  0.26584546489E+02  0.10566000000E+00 0. -1.
        -13    1    4    4    0    0  0.61059652077E+01  0.23587726190E+01  0.60181844216E+01  0.88924871186E+01  0.10566000000E+00 0. -1.
        -14    1    4    4    0    0  0.14026258669E+02  0.40224512466E+01  0.15279861380E+02  0.21127948553E+02  0.00000000000E+00 0.  1.
<mgrwt>
<rscale>  0 0.80326765E+02</rscale>
<asrwt>0</asrwt>
<pdfrwt beam="1">  1        1 0.14331885E-01 0.80326765E+02</pdfrwt>
<pdfrwt beam="2">  1       -2 0.26639773E-02 0.80326765E+02</pdfrwt>
<totfact> 0.14366652E+05</totfact>
</mgrwt>
</event>
<event>
 8    1  0.1364836E-024  0.7860637E+02  0.7818608E-02  0.1333054E+00
         -2   -1    0    0    0  501 -0.00000000000E+00  0.00000000000E+00  0.27380441780E+02  0.27380441899E+02  0.25500000000E-02 0.  1.
          1   -1    0    0  501    0  0.00000000000E+00 -0.00000000000E+00 -0.56417648859E+02  0.56417649084E+02  0.50400000000E-02 0. -1.
        -24    2    1    2    0    0  0.00000000000E+00 -0.17763568394E-14 -0.29037207079E+02  0.83798090982E+02  0.78606365247E+02 0.  0.
         66    2    3    3    0    0 -0.14777251362E+02  0.15492810386E+02  0.20576243970E+02  0.29761991748E+02  0.20000013614E+01 0.  0.
         13    1    3    3    0    0  0.14777251362E+02 -0.15492810386E+02 -0.49613451048E+02  0.54036099234E+02  0.10566000000E+00 0. -1.
         13    1    4    4    0    0 -0.66320493419E+01  0.73721224592E+01  0.94561500196E+01  0.13702634975E+02  0.10566000000E+00 0. -1.
        -13    1    4    4    0    0 -0.54740160493E+01  0.63349720486E+01  0.79817405405E+01  0.11567889551E+02  0.10566000000E+00 0.  1.
         14    1    4    4    0    0 -0.26711859709E+01  0.17857158782E+01  0.31383534097E+01  0.44914672227E+01  0.00000000000E+00 0. -1.
<mgrwt>
<rscale>  0 0.78606365E+02</rscale>
<asrwt>0</asrwt>
<pdfrwt beam="1">  1        1 0.86796383E-02 0.78606365E+02</pdfrwt>
<pdfrwt beam="2">  1       -2 0.42123757E-02 0.78606365E+02</pdfrwt>
<totfact> 0.14075236E+05</totfact>
</mgrwt>
</event>
<event>
 8    1  0.1241100E-024  0.8072852E+02  0.7818608E-02  0.1326997E+00
          1   -1    0    0  501    0  0.00000000000E+00  0.00000000000E+00  0.17489124908E+03  0.17489124915E+03  0.50400000000E-02 0. -1.
         -2   -1    0    0    0  501 -0.00000000000E+00 -0.00000000000E+00 -0.93159240469E+01  0.93159243959E+01  0.25500000000E-02 0.  1.
        -24    2    1    2    0    0  0.35527136788E-14  0.00000000000E+00  0.16557532503E+03  0.18420717355E+03  0.80728523627E+02 0.  0.
         66    2    3    3    0    0  0.20000129359E+02  0.18650516619E+02  0.15171146615E+02  0.31337048952E+02  0.20000007111E+01 0.  0.
         13    1    3    3    0    0 -0.20000129359E+02 -0.18650516619E+02  0.15040417842E+03  0.15287012460E+03  0.10566000000E+00 0. -1.
         13    1    4    4    0    0  0.10004825560E+02  0.94818761640E+01  0.71113412884E+01  0.15510797821E+02  0.10566000000E+00 0. -1.
        -13    1    4    4    0    0  0.59912386053E+01  0.62982793811E+01  0.51884756911E+01  0.10123966971E+02  0.10566000000E+00 0.  1.
         14    1    4    4    0    0  0.40040651939E+01  0.28703610738E+01  0.28713296353E+01  0.57022841604E+01  0.00000000000E+00 0. -1.
<mgrwt>
<rscale>  0 0.80728524E+02</rscale>
<asrwt>0</asrwt>
<pdfrwt beam="1">  1        1 0.26906344E-01 0.80728524E+02</pdfrwt>
<pdfrwt beam="2">  1       -2 0.14332192E-02 0.80728524E+02</pdfrwt>
<totfact> 0.15861144E+05</totfact>
</mgrwt>
</event>
<event>
 8    1  0.1241100E-024  0.8142707E+02  0.7818608E-02  0.1325050E+00
         -2   -1    0    0    0  501 -0.00000000000E+00  0.00000000000E+00  0.15257577520E+02  0.15257577733E+02  0.25500000000E-02 0.  1.
          1   -1    0    0  501    0  0.00000000000E+00 -0.00000000000E+00 -0.10864057753E+03  0.10864057765E+03  0.50400000000E-02 0. -1.
        -24    2    1    2    0    0  0.00000000000E+00  0.00000000000E+00 -0.93383000012E+02  0.12389815538E+03  0.81427072990E+02 0.  0.
         66    2    3    3    0    0 -0.27189148789E+02  0.19075707748E+02 -0.10955734520E+02  0.35030851504E+02  0.20000000681E+01 0.  0.
         13    1    3    3    0    0  0.27189148789E+02 -0.19075707748E+02 -0.82427265491E+02  0.88867303877E+02  0.10566000000E+00 0. -1.
         13    1    4    4    0    0 -0.33077122652E+00  0.40074594798E+00 -0.17954763022E+00  0.55982881869E+00  0.10566000000E+00 0. -1.
        -13    1    4    4    0    0 -0.25251269281E+02  0.17707214662E+02 -0.98299907538E+01  0.32369923287E+02  0.10566000000E+00 0.  1.
        -14    1    4    4    0    0 -0.16071082817E+01  0.96774713757E+00 -0.94619613632E+00  0.21010993979E+01  0.00000000000E+00 0.  1.
<mgrwt>
<rscale>  0 0.81427073E+02</rscale>
<asrwt>0</asrwt>
<pdfrwt beam="1">  1        1 0.16713935E-01 0.81427073E+02</pdfrwt>
<pdfrwt beam="2">  1       -2 0.23473197E-02 0.81427073E+02</pdfrwt>
<totfact> 0.14212696E+05</totfact>
</mgrwt>
</event>
<event>
 8    1  0.1241100E-024  0.7996724E+02  0.7818608E-02  0.1329144E+00
         -2   -1    0    0    0  501 -0.00000000000E+00  0.00000000000E+00  0.39154880756E+01  0.39154889060E+01  0.25500000000E-02 0.  1.
          1   -1    0    0  501    0  0.00000000000E+00 -0.00000000000E+00 -0.40829893988E+03  0.40829893992E+03  0.50400000000E-02 0. -1.
        -24    2    1    2    0    0  0.00000000000E+00 -0.17763568394E-14 -0.40438345181E+03  0.41221442882E+03  0.79967238491E+02 0.  0.
         66    2    3    3    0    0 -0.37593096485E+02  0.13530032844E+02 -0.19913121847E+03  0.20310968677E+03  0.20000000016E+01 0.  0.
         13    1    3    3    0    0  0.37593096485E+02 -0.13530032844E+02 -0.20525223334E+03  0.20910474205E+03  0.10566000000E+00 0. -1.
         13    1    4    4    0    0 -0.10997125047E+02  0.45076305634E+01 -0.56724444005E+02  0.57956269758E+02  0.10566000000E+00 0. -1.
        -13    1    4    4    0    0 -0.65741002740E+01  0.21517724508E+01 -0.37349664602E+02  0.37984964513E+02  0.10566000000E+00 0.  1.
         14    1    4    4    0    0 -0.20021871164E+02  0.68706298295E+01 -0.10505710986E+03  0.10716845250E+03  0.00000000000E+00 0. -1.
<mgrwt>
<rscale>  0 0.79967238E+02</rscale>
<asrwt>0</asrwt>
<pdfrwt beam="1">  1        1 0.62815188E-01 0.79967238E+02</pdfrwt>
<pdfrwt beam="2">  1       -2 0.60238317E-03 0.79967238E+02</pdfrwt>
<totfact> 0.19077261E+05</totfact>
</mgrwt>
</event>
<event>
 8    1  0.1241100E-024  0.7830792E+02  0.7818608E-02  0.1333923E+00
         -2   -1    0    0    0  501 -0.00000000000E+00  0.00000000000E+00  0.20881060384E+02  0.20881060540E+02  0.25500000000E-02 0.  1.
          1   -1    0    0  501    0  0.00000000000E+00 -0.00000000000E+00 -0.73417371730E+02  0.73417371903E+02  0.50400000000E-02 0. -1.
        -24    2    1    2    0    0  0.00000000000E+00  0.00000000000E+00 -0.52536311346E+02  0.94298432443E+02  0.78307920106E+02 0.  0.
         66    2    3    3    0    0  0.13754897046E+02 -0.27338944467E+02 -0.55644345415E+02  0.63536668561E+02  0.19999994753E+01 0.  0.
         13    1    3    3    0    0 -0.13754897046E+02  0.27338944467E+02  0.31080340682E+01  0.30761763882E+02  0.10566000000E+00 0. -1.
         13    1    4    4    0    0  0.11604580728E+01 -0.31609086430E+01 -0.62353659590E+01  0.70872391709E+01  0.10566000000E+00 0. -1.
        -13    1    4    4    0    0  0.95175850908E+01 -0.18087315991E+02 -0.38288209066E+02  0.43401999300E+02  0.10566000000E+00 0.  1.
        -14    1    4    4    0    0  0.30768538828E+01 -0.60907198328E+01 -0.11120770389E+02  0.13047430090E+02  0.00000000000E+00 0.  1.
<mgrwt>
<rscale>  0 0.78307920E+02</rscale>
<asrwt>0</asrwt>
<pdfrwt beam="1">  1        1 0.11294980E-01 0.78307920E+02</pdfrwt>
<pdfrwt beam="2">  1       -2 0.32124709E-02 0.78307920E+02</pdfrwt>
<totfact> 0.14815424E+05</totfact>
</mgrwt>
</event>
<event>
 8    1  0.1241100E-024  0.8064190E+02  0.7818608E-02  0.1327240E+00
         -2   -1    0    0    0  501 -0.00000000000E+00  0.00000000000E+00  0.14534073377E+03  0.14534073379E+03  0.25500000000E-02 0.  1.
          1   -1    0    0  501    0  0.00000000000E+00 -0.00000000000E+00 -0.11185982689E+02  0.11185983824E+02  0.50400000000E-02 0. -1.
        -24    2    1    2    0    0  0.00000000000E+00  0.00000000000E+00  0.13415475108E+03  0.15652671762E+03  0.80641900337E+02 0.  0.
         66    2    3    3    0    0 -0.11594167620E+02  0.36941231252E+02  0.88793156839E+02  0.96888100216E+02  0.19999931607E+01 0.  0.
         13    1    3    3    0    0  0.11594167620E+02 -0.36941231252E+02  0.45361594241E+02  0.59638617399E+02  0.10566000000E+00 0. -1.
         13    1    4    4    0    0 -0.27635827586E+01  0.78202026205E+01  0.17824862499E+02  0.19660362301E+02  0.10566000000E+00 0. -1.
        -13    1    4    4    0    0 -0.43112722196E+01  0.12475450109E+02  0.29841475288E+02  0.32630487814E+02  0.10566000000E+00 0.  1.
         14    1    4    4    0    0 -0.45193126420E+01  0.16645578523E+02  0.41126819053E+02  0.44597250100E+02  0.00000000000E+00 0. -1.
<mgrwt>
<rscale>  0 0.80641900E+02</rscale>
<asrwt>0</asrwt>
<pdfrwt beam="1">  1        1 0.17209206E-02 0.80641900E+02</pdfrwt>
<pdfrwt beam="2">  1       -2 0.22360112E-01 0.80641900E+02</pdfrwt>
<totfact> 0.93540754E+04</totfact>
</mgrwt>
</event>
<event>
 8    1  0.1241100E-024  0.8087396E+02  0.7818608E-02  0.1326589E+00
         -2   -1    0    0    0  501 -0.00000000000E+00  0.00000000000E+00  0.55196894618E+02  0.55196894677E+02  0.25500000000E-02 0.  1.
          1   -1    0    0  501    0  0.00000000000E+00 -0.00000000000E+00 -0.29623936611E+02  0.29623937040E+02  0.50400000000E-02 0. -1.
        -24    2    1    2    0    0  0.00000000000E+00  0.71054273576E-14  0.25572958007E+02  0.84820831717E+02  0.80873959418E+02 0.  0.
         66    2    3    3    0    0  0.87349003657E+01 -0.17763669320E+02  0.49745756726E+02  0.53576923607E+02  0.19999997167E+01 0.  0.
         13    1    3    3    0    0 -0.87349003657E+01  0.17763669320E+02 -0.24172798718E+02  0.31243908110E+02  0.10566000000E+00 0. -1.
         13    1    4    4    0    0  0.56175604480E+00 -0.72581316723E+00  0.33927702784E+01  0.35163089747E+01  0.10566000000E+00 0. -1.
        -13    1    4    4    0    0  0.27247969184E+01 -0.62873997265E+01  0.16526050788E+02  0.17890707986E+02  0.10566000000E+00 0.  1.
         14    1    4    4    0    0  0.54483474025E+01 -0.10750456426E+02  0.29826935660E+02  0.32169906646E+02  0.00000000000E+00 0. -1.
<mgrwt>
<rscale>  0 0.80873959E+02</rscale>
<asrwt>0</asrwt>
<pdfrwt beam="1">  1        1 0.45575288E-02 0.80873959E+02</pdfrwt>
<pdfrwt beam="2">  1       -2 0.84918299E-02 0.80873959E+02</pdfrwt>
<totfact> 0.11695933E+05</totfact>
</mgrwt>
</event>
<event>
 8    1  0.1241100E-024  0.7823740E+02  0.7818608E-02  0.1334129E+00
         -2   -1    0    0    0  501 -0.00000000000E+00  0.00000000000E+00  0.11672510175E+04  0.11672510175E+04  0.25500000000E-02 0.  1.
          1   -1    0    0  501    0  0.00000000000E+00 -0.00000000000E+00 -0.13110006972E+01  0.13110103850E+01  0.50400000000E-02 0. -1.
        -24    2    1    2    0    0 -0.11102230246E-15  0.35527136788E-14  0.11659400168E+04  0.11685620279E+04  0.78237396679E+02 0.  0.
         66    2    3    3    0    0 -0.70475813718E+00 -0.12956380903E+02  0.11341466506E+04  0.11342226366E+04  0.19999999196E+01 0.  0.
         13    1    3    3    0    0  0.70475813718E+00  0.12956380903E+02  0.31793366232E+02  0.34339391237E+02  0.10566000000E+00 0. -1.
         13    1    4    4    0    0 -0.66884836933E+00 -0.85530712941E+01  0.67495791871E+03  0.67501244847E+03  0.10566000000E+00 0. -1.
        -13    1    4    4    0    0 -0.18744007221E-01 -0.43325708034E+01  0.44061411970E+03  0.44063543340E+03  0.10566000000E+00 0.  1.
        -14    1    4    4    0    0 -0.17165760623E-01 -0.70738805762E-01  0.18574612146E+02  0.18574754777E+02  0.00000000000E+00 0.  1.
<mgrwt>
<rscale>  0 0.78237397E+02</rscale>
<asrwt>0</asrwt>
<pdfrwt beam="1">  1        1 0.20169329E-03 0.78237397E+02</pdfrwt>
<pdfrwt beam="2">  1       -2 0.17957696E+00 0.78237397E+02</pdfrwt>
<totfact> 0.22814509E+04</totfact>
</mgrwt>
</event>
<event>
 8    1  0.1241100E-024  0.7947011E+02  0.7818608E-02  0.1330562E+00
         -2   -1    0    0    0  501 -0.00000000000E+00  0.00000000000E+00  0.64308200002E+01  0.64308205058E+01  0.25500000000E-02 0.  1.
          1   -1    0    0  501    0  0.00000000000E+00 -0.00000000000E+00 -0.24551682311E+03  0.24551682316E+03  0.50400000000E-02 0. -1.
        -24    2    1    2    0    0  0.00000000000E+00  0.00000000000E+00 -0.23908600311E+03  0.25194764366E+03  0.79470109265E+02 0.  0.
         66    2    3    3    0    0 -0.25937223641E+02 -0.28608341578E+02 -0.90270490040E+02  0.98203554765E+02  0.20000045953E+01 0.  0.
         13    1    3    3    0    0  0.25937223641E+02  0.28608341578E+02 -0.14881551307E+03  0.15374408890E+03  0.10566000000E+00 0. -1.
         13    1    4    4    0    0 -0.51046071608E+01 -0.54871340474E+01 -0.18255019694E+02  0.19733792397E+02  0.10566000000E+00 0. -1.
        -13    1    4    4    0    0 -0.69631793504E+01 -0.88665317466E+01 -0.26510341293E+02  0.28808169178E+02  0.10566000000E+00 0.  1.
         14    1    4    4    0    0 -0.13869437130E+02 -0.14254675784E+02 -0.45505129052E+02  0.49661593189E+02  0.00000000000E+00 0. -1.
<mgrwt>
<rscale>  0 0.79470109E+02</rscale>
<asrwt>0</asrwt>
<pdfrwt beam="1">  1        1 0.37771812E-01 0.79470109E+02</pdfrwt>
<pdfrwt beam="2">  1       -2 0.98935715E-03 0.79470109E+02</pdfrwt>
<totfact> 0.17661622E+05</totfact>
</mgrwt>
</event>
<event>
 8    1  0.1241100E-024  0.7792440E+02  0.7818608E-02  0.1335047E+00
          1   -1    0    0  501    0  0.00000000000E+00  0.00000000000E+00  0.19520097936E+03  0.19520097942E+03  0.50400000000E-02 0. -1.
         -2   -1    0    0    0  501 -0.00000000000E+00 -0.00000000000E+00 -0.77768714707E+01  0.77768718888E+01  0.25500000000E-02 0.  1.
        -24    2    1    2    0    0 -0.35527136788E-14  0.00000000000E+00  0.18742410789E+03  0.20297785131E+03  0.77924398655E+02 0.  0.
         66    2    3    3    0    0  0.24165405370E+02 -0.17987528134E+02  0.29517239753E+02  0.42223043753E+02  0.19999990219E+01 0.  0.
         13    1    3    3    0    0 -0.24165405370E+02  0.17987528134E+02  0.15790686813E+03  0.16075480756E+03  0.10566000000E+00 0. -1.
         13    1    4    4    0    0  0.20224016695E+01 -0.19657760321E+01  0.29390214471E+01  0.40747263740E+01  0.10566000000E+00 0. -1.
        -13    1    4    4    0    0  0.40201340048E+01 -0.23249391264E+01  0.47643092168E+01  0.66540683575E+01  0.10566000000E+00 0.  1.
         14    1    4    4    0    0  0.18122869696E+02 -0.13696812975E+02  0.21813909089E+02  0.31494249022E+02  0.00000000000E+00 0. -1.
<mgrwt>
<rscale>  0 0.77924399E+02</rscale>
<asrwt>0</asrwt>
<pdfrwt beam="1">  1        1 0.30030921E-01 0.77924399E+02</pdfrwt>
<pdfrwt beam="2">  1       -2 0.11964418E-02 0.77924399E+02</pdfrwt>
<totfact> 0.17794036E+05</totfact>
</mgrwt>
</event>
<event>
 8    1  0.1241100E-024  0.7796476E+02  0.7818608E-02  0.1334928E+00
         -2   -1    0    0    0  501 -0.00000000000E+00  0.00000000000E+00  0.62574568288E+02  0.62574568340E+02  0.25500000000E-02 0.  1.
          1   -1    0    0  501    0  0.00000000000E+00 -0.00000000000E+00 -0.24285040164E+02  0.24285040687E+02  0.50400000000E-02 0. -1.
        -24    2    1    2    0    0 -0.88817841970E-15  0.00000000000E+00  0.38289528123E+02  0.86859609027E+02  0.77964759452E+02 0.  0.
         66    2    3    3    0    0  0.72236815708E+01  0.22589742838E+02  0.53588650416E+02  0.58636349756E+02  0.20000006151E+01 0.  0.
         13    1    3    3    0    0 -0.72236815708E+01 -0.22589742838E+02 -0.15299122292E+02  0.28223259271E+02  0.10566000000E+00 0. -1.
         13    1    4    4    0    0  0.49028938254E+00  0.29259914818E+01  0.65899427202E+01  0.72277464622E+01  0.10566000000E+00 0. -1.
        -13    1    4    4    0    0  0.66340976485E+01  0.18350485421E+02  0.44183359981E+02  0.48300435092E+02  0.10566000000E+00 0.  1.
        -14    1    4    4    0    0  0.99294539782E-01  0.13132659356E+01  0.28153477139E+01  0.31081682023E+01  0.00000000000E+00 0.  1.
<mgrwt>
<rscale>  0 0.77964759E+02</rscale>
<asrwt>0</asrwt>
<pdfrwt beam="1">  1        1 0.37361601E-02 0.77964759E+02</pdfrwt>
<pdfrwt beam="2">  1       -2 0.96268567E-02 0.77964759E+02</pdfrwt>
<totfact> 0.12537513E+05</totfact>
</mgrwt>
</event>
<event>
 8    1  0.1241100E-024  0.8936292E+02  0.7818608E-02  0.1304402E+00
          1   -1    0    0  501    0  0.00000000000E+00  0.00000000000E+00  0.10387197665E+02  0.10387198888E+02  0.50400000000E-02 0. -1.
         -2   -1    0    0    0  501 -0.00000000000E+00 -0.00000000000E+00 -0.19220127878E+03  0.19220127880E+03  0.25500000000E-02 0.  1.
        -24    2    1    2    0    0  0.00000000000E+00  0.00000000000E+00 -0.18181408111E+03  0.20258847769E+03  0.89362918479E+02 0.  0.
         66    2    3    3    0    0  0.21151615907E+02  0.37094172781E+02 -0.61302044830E+02  0.74734926450E+02  0.20000053515E+01 0.  0.
         13    1    3    3    0    0 -0.21151615907E+02 -0.37094172781E+02 -0.12051203628E+03  0.12785355123E+03  0.10566000000E+00 0. -1.
         13    1    4    4    0    0  0.31869105928E+01  0.46337586611E+01 -0.83527496516E+01  0.10070139484E+02  0.10566000000E+00 0. -1.
        -13    1    4    4    0    0  0.15618407133E+02  0.28929808236E+02 -0.47209979347E+02  0.57529659827E+02  0.10566000000E+00 0.  1.
        -14    1    4    4    0    0  0.23462981812E+01  0.35306058845E+01 -0.57393158318E+01  0.71351271386E+01  0.00000000000E+00 0.  1.
<mgrwt>
<rscale>  0 0.89362918E+02</rscale>
<asrwt>0</asrwt>
<pdfrwt beam="1">  1        1 0.15980307E-02 0.89362918E+02</pdfrwt>
<pdfrwt beam="2">  1       -2 0.29569425E-01 0.89362918E+02</pdfrwt>
<totfact> 0.64915703E+04</totfact>
</mgrwt>
</event>
<event>
 8    1  0.1241100E-024  0.7899007E+02  0.7818608E-02  0.1331942E+00
         -2   -1    0    0    0  501 -0.00000000000E+00  0.00000000000E+00  0.36986493549E+01  0.36986502339E+01  0.25500000000E-02 0.  1.
          1   -1    0    0  501    0  0.00000000000E+00 -0.00000000000E+00 -0.42173708029E+03  0.42173708032E+03  0.50400000000E-02 0. -1.
        -24    2    1    2    0    0  0.00000000000E+00  0.00000000000E+00 -0.41803843094E+03  0.42543573056E+03  0.78990069587E+02 0.  0.
         66    2    3    3    0    0  0.19077397650E+02 -0.34277053896E+02 -0.23262299656E+03  0.23591592158E+03  0.20000004216E+01 0.  0.
         13    1    3    3    0    0 -0.19077397650E+02  0.34277053896E+02 -0.18541543438E+03  0.18951980897E+03  0.10566000000E+00 0. -1.
         13    1    4    4    0    0  0.11657053779E+00 -0.30815007804E+00 -0.27200802433E+01  0.27419966678E+01  0.10566000000E+00 0. -1.
        -13    1    4    4    0    0  0.11510664767E+02 -0.20833089791E+02 -0.13735239719E+03  0.13939944480E+03  0.10566000000E+00 0.  1.
        -14    1    4    4    0    0  0.74501623445E+01 -0.13135814027E+02 -0.92550519129E+02  0.93774480111E+02  0.00000000000E+00 0.  1.
<mgrwt>
<rscale>  0 0.78990070E+02</rscale>
<asrwt>0</asrwt>
<pdfrwt beam="1">  1        1 0.64882590E-01 0.78990070E+02</pdfrwt>
<pdfrwt beam="2">  1       -2 0.56902338E-03 0.78990070E+02</pdfrwt>
<totfact> 0.19803346E+05</totfact>
</mgrwt>
</event>
<event>
 8    1  0.1241100E-024  0.8030016E+02  0.7818608E-02  0.1328202E+00
         -2   -1    0    0    0  501 -0.00000000000E+00  0.00000000000E+00  0.58379217028E+01  0.58379222597E+01  0.25500000000E-02 0.  1.
          1   -1    0    0  501    0  0.00000000000E+00 -0.00000000000E+00 -0.27613063040E+03  0.27613063045E+03  0.50400000000E-02 0. -1.
        -24    2    1    2    0    0  0.35527136788E-14  0.71054273576E-14 -0.27029270870E+03  0.28196855271E+03  0.80300164011E+02 0.  0.
         66    2    3    3    0    0 -0.24607534426E+02 -0.24996420341E+02 -0.20365084746E+03  0.20665918667E+03  0.19999953181E+01 0.  0.
         13    1    3    3    0    0  0.24607534426E+02  0.24996420341E+02 -0.66641861238E+02  0.75309366042E+02  0.10566000000E+00 0. -1.
         13    1    4    4    0    0 -0.48473039833E+01 -0.39916476916E+01 -0.38359845074E+02  0.38870534924E+02  0.10566000000E+00 0. -1.
        -13    1    4    4    0    0 -0.73429869308E+01 -0.79300233464E+01 -0.63171520627E+02  0.64089444604E+02  0.10566000000E+00 0.  1.
         14    1    4    4    0    0 -0.12417243512E+02 -0.13074749303E+02 -0.10211948176E+03  0.10369920714E+03  0.00000000000E+00 0. -1.
<mgrwt>
<rscale>  0 0.80300164E+02</rscale>
<asrwt>0</asrwt>
<pdfrwt beam="1">  1        1 0.42481625E-01 0.80300164E+02</pdfrwt>
<pdfrwt beam="2">  1       -2 0.89814206E-03 0.80300164E+02</pdfrwt>
<totfact> 0.17581441E+05</totfact>
</mgrwt>
</event>
<event>
 8    1  0.1241100E-024  0.7974662E+02  0.7818608E-02  0.1329772E+00
         -2   -1    0    0    0  501 -0.00000000000E+00  0.00000000000E+00  0.18559614882E+03  0.18559614884E+03  0.25500000000E-02 0.  1.
          1   -1    0    0  501    0  0.00000000000E+00 -0.00000000000E+00 -0.85663449911E+01  0.85663464737E+01  0.50400000000E-02 0. -1.
        -24    2    1    2    0    0  0.00000000000E+00  0.17763568394E-14  0.17702980383E+03  0.19416249531E+03  0.79746618372E+02 0.  0.
         66    2    3    3    0    0 -0.54920491871E+00 -0.15136315060E+02  0.17830864699E+03  0.17896196034E+03  0.19999991164E+01 0.  0.
         13    1    3    3    0    0  0.54920491871E+00  0.15136315060E+02 -0.12788431619E+01  0.15200534974E+02  0.10566000000E+00 0. -1.
         13    1    4    4    0    0 -0.87472914858E-01 -0.47265919018E+01  0.56824009130E+02  0.57020413013E+02  0.10566000000E+00 0. -1.
        -13    1    4    4    0    0  0.46721808010E+00 -0.62907342297E+01  0.69569282796E+02  0.69854762920E+02  0.10566000000E+00 0.  1.
         14    1    4    4    0    0 -0.92895008395E+00 -0.41189889281E+01  0.51915355064E+02  0.52086784403E+02  0.00000000000E+00 0. -1.
<mgrwt>
<rscale>  0 0.79746618E+02</rscale>
<asrwt>0</asrwt>
<pdfrwt beam="1">  1        1 0.13178993E-02 0.79746618E+02</pdfrwt>
<pdfrwt beam="2">  1       -2 0.28553254E-01 0.79746618E+02</pdfrwt>
<totfact> 0.88343799E+04</totfact>
</mgrwt>
</event>
<event>
 8    1  0.1241100E-024  0.7932600E+02  0.7818608E-02  0.1330975E+00
          1   -1    0    0  501    0  0.00000000000E+00  0.00000000000E+00  0.11040115139E+01  0.11040230181E+01  0.50400000000E-02 0. -1.
         -2   -1    0    0    0  501 -0.00000000000E+00 -0.00000000000E+00 -0.14249357463E+04  0.14249357463E+04  0.25500000000E-02 0.  1.
        -24    2    1    2    0    0 -0.35527136788E-14  0.88817841970E-15 -0.14238317348E+04  0.14260397693E+04  0.79326002669E+02 0.  0.
         66    2    3    3    0    0 -0.16910689481E+02  0.58746819603E+01 -0.13481175383E+04  0.13482378798E+04  0.20000040320E+01 0.  0.
         13    1    3    3    0    0  0.16910689481E+02 -0.58746819603E+01 -0.75714196448E+02  0.77801889532E+02  0.10566000000E+00 0. -1.
         13    1    4    4    0    0 -0.34247515511E+01  0.87087652615E+00 -0.30170158378E+03  0.30172229644E+03  0.10566000000E+00 0. -1.
        -13    1    4    4    0    0 -0.10464419504E+02  0.43779254727E+01 -0.83868345342E+03  0.83876016627E+03  0.10566000000E+00 0.  1.
         14    1    4    4    0    0 -0.30215184259E+01  0.62587996148E+00 -0.20773250114E+03  0.20775541708E+03  0.00000000000E+00 0. -1.
<mgrwt>
<rscale>  0 0.79326003E+02</rscale>
<asrwt>0</asrwt>
<pdfrwt beam="1">  1        1 0.16984995E-03 0.79326003E+02</pdfrwt>
<pdfrwt beam="2">  1       -2 0.21921941E+00 0.79326003E+02</pdfrwt>
<totfact> 0.16516434E+04</totfact>
</mgrwt>
</event>
<event>
 8    1  0.1241100E-024  0.7967069E+02  0.7818608E-02  0.1329989E+00
         -2   -1    0    0    0  501 -0.00000000000E+00  0.00000000000E+00  0.28823923514E+03  0.28823923515E+03  0.25500000000E-02 0.  1.
          1   -1    0    0  501    0  0.00000000000E+00 -0.00000000000E+00 -0.55053378039E+01  0.55053401109E+01  0.50400000000E-02 0. -1.
        -24    2    1    2    0    0  0.00000000000E+00  0.71054273576E-14  0.28273389733E+03  0.29374457526E+03  0.79670689673E+02 0.  0.
         66    2    3    3    0    0  0.20425553106E+01 -0.39032129494E+02  0.16933352658E+03  0.17379736013E+03  0.20000002531E+01 0.  0.
         13    1    3    3    0    0 -0.20425553106E+01  0.39032129494E+02  0.11340037076E+03  0.11994721513E+03  0.10566000000E+00 0. -1.
         13    1    4    4    0    0  0.15610734331E+01 -0.27166134614E+02  0.11971913519E+03  0.12277262852E+03  0.10566000000E+00 0. -1.
        -13    1    4    4    0    0  0.48104947378E+00 -0.11462027335E+02  0.48527183990E+02  0.49864899772E+02  0.10566000000E+00 0.  1.
         14    1    4    4    0    0  0.43240372893E-03 -0.40396754420E+00  0.10872073962E+01  0.11598318353E+01  0.00000000000E+00 0. -1.
<mgrwt>
<rscale>  0 0.79670690E+02</rscale>
<asrwt>0</asrwt>
<pdfrwt beam="1">  1        1 0.84697488E-03 0.79670690E+02</pdfrwt>
<pdfrwt beam="2">  1       -2 0.44344516E-01 0.79670690E+02</pdfrwt>
<totfact> 0.72561846E+04</totfact>
</mgrwt>
</event>
<event>
 8    1  0.1241100E-024  0.7964536E+02  0.7818608E-02  0.1330061E+00
         -2   -1    0    0    0  501 -0.00000000000E+00  0.00000000000E+00  0.96104098527E+02  0.96104098561E+02  0.25500000000E-02 0.  1.
          1   -1    0    0  501    0  0.00000000000E+00 -0.00000000000E+00 -0.16501332480E+02  0.16501333249E+02  0.50400000000E-02 0. -1.
        -24    2    1    2    0    0  0.88817841970E-15  0.00000000000E+00  0.79602766048E+02  0.11260543181E+03  0.79645357120E+02 0.  0.
         66    2    3    3    0    0  0.60643300001E+01  0.38881907023E+02  0.48222019888E+02  0.62273124237E+02  0.20000020135E+01 0.  0.
         13    1    3    3    0    0 -0.60643300001E+01 -0.38881907023E+02  0.31380746160E+02  0.50332307574E+02  0.10566000000E+00 0. -1.
         13    1    4    4    0    0  0.17267382074E+01  0.81055937525E+01  0.95926908279E+01  0.12677269275E+02  0.10566000000E+00 0. -1.
        -13    1    4    4    0    0  0.34794384555E+01  0.22359551330E+02  0.27405798688E+02  0.35540751165E+02  0.10566000000E+00 0.  1.
         14    1    4    4    0    0  0.85815333717E+00  0.84167619408E+01  0.11223530372E+02  0.14055103797E+02  0.00000000000E+00 0. -1.
<mgrwt>
<rscale>  0 0.79645357E+02</rscale>
<asrwt>0</asrwt>
<pdfrwt beam="1">  1        1 0.25386666E-02 0.79645357E+02</pdfrwt>
<pdfrwt beam="2">  1       -2 0.14785246E-01 0.79645357E+02</pdfrwt>
<totfact> 0.10839157E+05</totfact>
</mgrwt>
</event>
<event>
 8    1  0.1241100E-024  0.8021885E+02  0.7818608E-02  0.1328432E+00
         -2   -1    0    0    0  501 -0.00000000000E+00  0.00000000000E+00  0.13249557178E+03  0.13249557181E+03  0.25500000000E-02 0.  1.
          1   -1    0    0  501    0  0.00000000000E+00 -0.00000000000E+00 -0.12142033875E+02  0.12142034921E+02  0.50400000000E-02 0. -1.
        -24    2    1    2    0    0  0.35527136788E-14 -0.35527136788E-14  0.12035353791E+03  0.14463760673E+03  0.80218845623E+02 0.  0.
         66    2    3    3    0    0 -0.17786788217E+02 -0.22228165804E+02  0.11109359885E+03  0.11470069263E+03  0.19999988322E+01 0.  0.
         13    1    3    3    0    0  0.17786788217E+02  0.22228165804E+02  0.92599390590E+01  0.29936914094E+02  0.10566000000E+00 0. -1.
         13    1    4    4    0    0 -0.54444581201E+01 -0.59700715025E+01  0.30730366350E+02  0.31774997372E+02  0.10566000000E+00 0. -1.
        -13    1    4    4    0    0 -0.66567781949E+01 -0.87925767114E+01  0.46072073268E+02  0.47373718456E+02  0.10566000000E+00 0.  1.
        -14    1    4    4    0    0 -0.56855519018E+01 -0.74655175903E+01  0.34291159230E+02  0.35551976804E+02  0.00000000000E+00 0.  1.
<mgrwt>
<rscale>  0 0.80218846E+02</rscale>
<asrwt>0</asrwt>
<pdfrwt beam="1">  1        1 0.18680054E-02 0.80218846E+02</pdfrwt>
<pdfrwt beam="2">  1       -2 0.20383933E-01 0.80218846E+02</pdfrwt>
<totfact> 0.97585367E+04</totfact>
</mgrwt>
</event>
<event>
 8    1  0.1241100E-024  0.7922233E+02  0.7818608E-02  0.1331273E+00
          1   -1    0    0  501    0  0.00000000000E+00  0.00000000000E+00  0.54312080470E+02  0.54312080703E+02  0.50400000000E-02 0. -1.
         -2   -1    0    0    0  501 -0.00000000000E+00 -0.00000000000E+00 -0.28889415829E+02  0.28889415941E+02  0.25500000000E-02 0.  1.
        -24    2    1    2    0    0  0.88817841970E-15  0.71054273576E-14  0.25422664641E+02  0.83201496645E+02  0.79222327449E+02 0.  0.
         66    2    3    3    0    0  0.61413578202E+01  0.32220193665E+02 -0.10556401266E+02  0.34515138152E+02  0.19999995630E+01 0.  0.
         13    1    3    3    0    0 -0.61413578202E+01 -0.32220193665E+02  0.35979065907E+02  0.48686358493E+02  0.10566000000E+00 0. -1.
         13    1    4    4    0    0  0.54833214070E-01  0.27546906091E+01 -0.73676754423E+00  0.28540002598E+01  0.10566000000E+00 0. -1.
        -13    1    4    4    0    0  0.49377960985E+01  0.22341526410E+02 -0.76540578992E+01  0.24127192108E+02  0.10566000000E+00 0.  1.
         14    1    4    4    0    0  0.11487285076E+01  0.71239766459E+01 -0.21655758224E+01  0.75339457841E+01  0.00000000000E+00 0. -1.
<mgrwt>
<rscale>  0 0.79222327E+02</rscale>
<asrwt>0</asrwt>
<pdfrwt beam="1">  1        1 0.83557046E-02 0.79222327E+02</pdfrwt>
<pdfrwt beam="2">  1       -2 0.44445256E-02 0.79222327E+02</pdfrwt>
<totfact> 0.13694282E+05</totfact>
</mgrwt>
</event>
<event>
 8    1  0.1241100E-024  0.7881754E+02  0.7818608E-02  0.1332441E+00
         -2   -1    0    0    0  501 -0.00000000000E+00  0.00000000000E+00  0.16298055702E+02  0.16298055901E+02  0.25500000000E-02 0.  1.
          1   -1    0    0  501    0  0.00000000000E+00 -0.00000000000E+00 -0.95290588913E+02  0.95290589047E+02  0.50400000000E-02 0. -1.
        -24    2    1    2    0    0  0.00000000000E+00  0.00000000000E+00 -0.78992533212E+02  0.11158864495E+03  0.78817544862E+02 0.  0.
         66    2    3    3    0    0 -0.29141576346E+02 -0.24575810311E+02 -0.25517202684E+02  0.45916549935E+02  0.20000001889E+01 0.  0.
         13    1    3    3    0    0  0.29141576346E+02  0.24575810311E+02 -0.53475330528E+02  0.65672095013E+02  0.10566000000E+00 0. -1.
         13    1    4    4    0    0 -0.88497456890E+01 -0.81827765943E+01 -0.82852969963E+01  0.14626453497E+02  0.10566000000E+00 0.  1.
        -13    1    4    4    0    0 -0.57175076584E+01 -0.51471497069E+01 -0.55692502358E+01  0.94979343099E+01  0.10566000000E+00 0. -1.
        -14    1    4    4    0    0 -0.14574322998E+02 -0.11245884009E+02 -0.11662655452E+02  0.21792162128E+02  0.00000000000E+00 0.  1.
<mgrwt>
<rscale>  0 0.78817545E+02</rscale>
<asrwt>0</asrwt>
<pdfrwt beam="1">  1        1 0.14660090E-01 0.78817545E+02</pdfrwt>
<pdfrwt beam="2">  1       -2 0.25073933E-02 0.78817545E+02</pdfrwt>
<totfact> 0.15180062E+05</totfact>
</mgrwt>
</event>
<event>
 8    1  0.1241100E-024  0.7996857E+02  0.7818608E-02  0.1329141E+00
         -2   -1    0    0    0  501 -0.00000000000E+00  0.00000000000E+00  0.18437684190E+02  0.18437684366E+02  0.25500000000E-02 0.  1.
          1   -1    0    0  501    0  0.00000000000E+00 -0.00000000000E+00 -0.86710628755E+02  0.86710628902E+02  0.50400000000E-02 0. -1.
        -24    2    1    2    0    0  0.00000000000E+00  0.35527136788E-14 -0.68272944565E+02  0.10514831327E+03  0.79968573974E+02 0.  0.
         66    2    3    3    0    0  0.21895203346E+02  0.28007633180E+02 -0.10166842220E+02  0.37029609965E+02  0.19999718735E+01 0.  0.
         13    1    3    3    0    0 -0.21895203346E+02 -0.28007633180E+02 -0.58106102345E+02  0.68118703303E+02  0.10566000000E+00 0. -1.
         13    1    4    4    0    0  0.16912746034E+02  0.22436098049E+02 -0.83333172221E+01  0.29306566056E+02  0.10566000000E+00 0. -1.
        -13    1    4    4    0    0  0.48432469309E+01  0.55230344293E+01 -0.18464618162E+01  0.75750600932E+01  0.10566000000E+00 0.  1.
         14    1    4    4    0    0  0.13921038075E+00  0.48500702155E-01  0.12936818090E-01  0.14798381493E+00  0.00000000000E+00 0. -1.
<mgrwt>
<rscale>  0 0.79968574E+02</rscale>
<asrwt>0</asrwt>
<pdfrwt beam="1">  1        1 0.13340097E-01 0.79968574E+02</pdfrwt>
<pdfrwt beam="2">  1       -2 0.28365669E-02 0.79968574E+02</pdfrwt>
<totfact> 0.14371124E+05</totfact>
</mgrwt>
</event>
<event>
 8    1  0.1241100E-024  0.7158746E+02  0.7818608E-02  0.1354777E+00
          1   -1    0    0  501    0  0.00000000000E+00  0.00000000000E+00  0.92671962412E+01  0.92671976117E+01  0.50400000000E-02 0. -1.
         -2   -1    0    0    0  501 -0.00000000000E+00 -0.00000000000E+00 -0.13825011310E+03  0.13825011312E+03  0.25500000000E-02 0.  1.
        -24    2    1    2    0    0  0.35527136788E-14 -0.35527136788E-14 -0.12898291685E+03  0.14751731073E+03  0.71587457875E+02 0.  0.
         66    2    3    3    0    0 -0.27717853716E+02  0.21688836474E+02 -0.77655797140E+02  0.85282518015E+02  0.20000017964E+01 0.  0.
         13    1    3    3    0    0  0.27717853716E+02 -0.21688836474E+02 -0.51327119714E+02  0.62234792716E+02  0.10566000000E+00 0. -1.
         13    1    4    4    0    0 -0.13300097847E+02  0.11255919651E+02 -0.39012528673E+02  0.42726770150E+02  0.10566000000E+00 0. -1.
        -13    1    4    4    0    0 -0.12783811247E+02  0.96154632251E+01 -0.34631903355E+02  0.38147907637E+02  0.10566000000E+00 0.  1.
         14    1    4    4    0    0 -0.16339446215E+01  0.81745359763E+00 -0.40113651123E+01  0.44078402279E+01  0.00000000000E+00 0. -1.
<mgrwt>
<rscale>  0 0.71587458E+02</rscale>
<asrwt>0</asrwt>
<pdfrwt beam="1">  1        1 0.14257227E-02 0.71587458E+02</pdfrwt>
<pdfrwt beam="2">  1       -2 0.21269247E-01 0.71587458E+02</pdfrwt>
<totfact> 0.12893347E+05</totfact>
</mgrwt>
</event>
<event>
 8    1  0.1241100E-024  0.7731278E+02  0.7818608E-02  0.1336855E+00
          1   -1    0    0  501    0  0.00000000000E+00  0.00000000000E+00  0.51024818589E+02  0.51024818838E+02  0.50400000000E-02 0. -1.
         -2   -1    0    0    0  501 -0.00000000000E+00 -0.00000000000E+00 -0.29286071180E+02  0.29286071291E+02  0.25500000000E-02 0.  1.
        -24    2    1    2    0    0  0.00000000000E+00  0.00000000000E+00  0.21738747409E+02  0.80310890129E+02  0.77312779890E+02 0.  0.
         66    2    3    3    0    0  0.23418708851E+02 -0.30009619064E+02  0.17711951167E+02  0.42032444332E+02  0.20000004363E+01 0.  0.
         13    1    3    3    0    0 -0.23418708851E+02  0.30009619064E+02  0.40267962424E+01  0.38278445797E+02  0.10566000000E+00 0. -1.
         13    1    4    4    0    0  0.89696692676E+01 -0.12533488608E+02  0.67016977019E+01  0.16806761127E+02  0.10566000000E+00 0. -1.
        -13    1    4    4    0    0  0.19419538083E+01 -0.26813628300E+01  0.18840780950E+01  0.38107486827E+01  0.10566000000E+00 0. -1.
        -14    1    4    4    0    0  0.12507085775E+02 -0.14794767626E+02  0.91261753702E+01  0.21414934522E+02  0.00000000000E+00 0.  1.
<mgrwt>
<rscale>  0 0.77312780E+02</rscale>
<asrwt>0</asrwt>
<pdfrwt beam="1">  1        1 0.78499721E-02 0.77312780E+02</pdfrwt>
<pdfrwt beam="2">  1       -2 0.45055495E-02 0.77312780E+02</pdfrwt>
<totfact> 0.14509714E+05</totfact>
</mgrwt>
</event>
<event>
 8    1  0.1241100E-024  0.7102699E+02  0.7818608E-02  0.1356635E+00
          1   -1    0    0  501    0  0.00000000000E+00  0.00000000000E+00  0.82654530598E+01  0.82654545964E+01  0.50400000000E-02 0. -1.
         -2   -1    0    0    0  501 -0.00000000000E+00 -0.00000000000E+00 -0.15258791911E+03  0.15258791913E+03  0.25500000000E-02 0.  1.
        -24    2    1    2    0    0  0.00000000000E+00 -0.35527136788E-14 -0.14432246605E+03  0.16085337373E+03  0.71026992283E+02 0.  0.
         66    2    3    3    0    0 -0.16358469396E+02  0.30789633225E+02 -0.87172477486E+02  0.93907624109E+02  0.19999998945E+01 0.  0.
         13    1    3    3    0    0  0.16358469396E+02 -0.30789633225E+02 -0.57149988565E+02  0.66945749619E+02  0.10566000000E+00 0. -1.
         13    1    4    4    0    0 -0.94897040917E+00  0.25405875594E+01 -0.69008683175E+01  0.74154081179E+01  0.10566000000E+00 0. -1.
        -13    1    4    4    0    0 -0.35637876210E+01  0.72309195646E+01 -0.21442201146E+02  0.22907770166E+02  0.10566000000E+00 0.  1.
        -14    1    4    4    0    0 -0.11845711366E+02  0.21018126101E+02 -0.58829408022E+02  0.63584445825E+02  0.00000000000E+00 0.  1.
<mgrwt>
<rscale>  0 0.71026992E+02</rscale>
<asrwt>0</asrwt>
<pdfrwt beam="1">  1        1 0.12716084E-02 0.71026992E+02</pdfrwt>
<pdfrwt beam="2">  1       -2 0.23475062E-01 0.71026992E+02</pdfrwt>
<totfact> 0.12747297E+05</totfact>
</mgrwt>
</event>
<event>
 8    1  0.1241100E-024  0.7650565E+02  0.7818608E-02  0.1339271E+00
          1   -1    0    0  501    0  0.00000000000E+00  0.00000000000E+00  0.14104662425E+03  0.14104662434E+03  0.50400000000E-02 0. -1.
         -2   -1    0    0    0  501 -0.00000000000E+00 -0.00000000000E+00 -0.10374430749E+02  0.10374431062E+02  0.25500000000E-02 0.  1.
        -24    2    1    2    0    0  0.35527136788E-14  0.17763568394E-14  0.13067219350E+03  0.15142105540E+03  0.76505645965E+02 0.  0.
         66    2    3    3    0    0 -0.23071514048E+02 -0.13888600569E+02  0.11682767838E+02  0.29422356352E+02  0.20000006728E+01 0.  0.
         13    1    3    3    0    0  0.23071514048E+02  0.13888600569E+02  0.11898942566E+03  0.12199869905E+03  0.10566000000E+00 0. -1.
         13    1    4    4    0    0 -0.39457977720E+01 -0.28277098792E+01  0.17825601566E+01  0.51724218666E+01  0.10566000000E+00 0. -1.
        -13    1    4    4    0    0 -0.18229308286E+02 -0.10839206711E+02  0.93830820490E+01  0.23191581996E+02  0.10566000000E+00 0.  1.
         14    1    4    4    0    0 -0.89640798988E+00 -0.22168397882E+00  0.51712563263E+00  0.10583524889E+01  0.00000000000E+00 0. -1.
<mgrwt>
<rscale>  0 0.76505646E+02</rscale>
<asrwt>0</asrwt>
<pdfrwt beam="1">  1        1 0.21699481E-01 0.76505646E+02</pdfrwt>
<pdfrwt beam="2">  1       -2 0.15960662E-02 0.76505646E+02</pdfrwt>
<totfact> 0.17587638E+05</totfact>
</mgrwt>
</event>
<event>
 8    1  0.1241100E-024  0.7858787E+02  0.7818608E-02  0.1333107E+00
          1   -1    0    0  501    0  0.00000000000E+00  0.00000000000E+00  0.63503062582E+02  0.63503062782E+02  0.50400000000E-02 0. -1.
         -2   -1    0    0    0  501 -0.00000000000E+00 -0.00000000000E+00 -0.24313999718E+02  0.24313999852E+02  0.25500000000E-02 0.  1.
        -24    2    1    2    0    0  0.00000000000E+00 -0.17763568394E-14  0.39189062864E+02  0.87817062634E+02  0.78587873374E+02 0.  0.
         66    2    3    3    0    0  0.17759130643E+02  0.11075269256E+02 -0.17520687421E+02  0.27368280581E+02  0.19999959905E+01 0.  0.
         13    1    3    3    0    0 -0.17759130643E+02 -0.11075269256E+02  0.56709750285E+02  0.60448782053E+02  0.10566000000E+00 0. -1.
         13    1    4    4    0    0  0.55727945213E+00  0.33247182958E+00 -0.39173602495E+00  0.76532284304E+00  0.10566000000E+00 0.  1.
        -13    1    4    4    0    0  0.10879127127E+02  0.71605172076E+01 -0.11983856988E+02  0.17698937993E+02  0.10566000000E+00 0.  1.
        -14    1    4    4    0    0  0.63227240638E+01  0.35822802188E+01 -0.51450944079E+01  0.89040197450E+01  0.00000000000E+00 0.  1.
<mgrwt>
<rscale>  0 0.78587873E+02</rscale>
<asrwt>0</asrwt>
<pdfrwt beam="1">  1        1 0.97697019E-02 0.78587873E+02</pdfrwt>
<pdfrwt beam="2">  1       -2 0.37406154E-02 0.78587873E+02</pdfrwt>
<totfact> 0.14343901E+05</totfact>
</mgrwt>
</event>
<event>
 8    1  0.1241100E-024  0.8588686E+02  0.7818608E-02  0.1313129E+00
          1   -1    0    0  501    0  0.00000000000E+00  0.00000000000E+00  0.39271115268E+02  0.39271115592E+02  0.50400000000E-02 0. -1.
         -2   -1    0    0    0  501 -0.00000000000E+00 -0.00000000000E+00 -0.46959153776E+02  0.46959153845E+02  0.25500000000E-02 0.  1.
        -24    2    1    2    0    0  0.00000000000E+00  0.00000000000E+00 -0.76880385075E+01  0.86230269437E+02  0.85886864136E+02 0.  0.
         66    2    3    3    0    0 -0.55334645350E+01 -0.42406172587E+02 -0.74980322408E+01  0.43464044801E+02  0.19999999344E+01 0.  0.
         13    1    3    3    0    0  0.55334645350E+01  0.42406172587E+02 -0.19000626665E+00  0.42766224636E+02  0.10566000000E+00 0. -1.
         13    1    4    4    0    0 -0.18694693869E+01 -0.90425845493E+01 -0.17079174218E+01  0.93910274771E+01  0.10566000000E+00 0. -1.
        -13    1    4    4    0    0 -0.21496964593E+01 -0.17774182668E+02 -0.26601467207E+01  0.18100561013E+02  0.10566000000E+00 0.  1.
         14    1    4    4    0    0 -0.15142986888E+01 -0.15589405369E+02 -0.31299680982E+01  0.15972456310E+02  0.00000000000E+00 0. -1.
<mgrwt>
<rscale>  0 0.85886864E+02</rscale>
<asrwt>0</asrwt>
<pdfrwt beam="1">  1        1 0.60417101E-02 0.85886864E+02</pdfrwt>
<pdfrwt beam="2">  1       -2 0.72244852E-02 0.85886864E+02</pdfrwt>
<totfact> 0.10347195E+05</totfact>
</mgrwt>
</event>
<event>
 8    1  0.1241100E-024  0.7966245E+02  0.7818608E-02  0.1330012E+00
         -2   -1    0    0    0  501 -0.00000000000E+00  0.00000000000E+00  0.41603850679E+01  0.41603858494E+01  0.25500000000E-02 0.  1.
          1   -1    0    0  501    0  0.00000000000E+00 -0.00000000000E+00 -0.38134121117E+03  0.38134121120E+03  0.50400000000E-02 0. -1.
        -24    2    1    2    0    0  0.00000000000E+00  0.00000000000E+00 -0.37718082610E+03  0.38550159705E+03  0.79662448815E+02 0.  0.
         66    2    3    3    0    0  0.18950420626E+02  0.32416019218E+02 -0.25265306050E+03  0.25543587400E+03  0.20000002859E+01 0.  0.
         13    1    3    3    0    0 -0.18950420626E+02 -0.32416019218E+02 -0.12452776560E+03  0.13006572305E+03  0.10566000000E+00 0. -1.
         13    1    4    4    0    0  0.93315369135E+00  0.14920424342E+01 -0.12242180198E+02  0.12368472277E+02  0.10566000000E+00 0.  1.
        -13    1    4    4    0    0  0.11815736478E+02  0.19180917635E+02 -0.14642262707E+03  0.14814559093E+03  0.10566000000E+00 0.  1.
         14    1    4    4    0    0  0.62015304572E+01  0.11743059149E+02 -0.93988253241E+02  0.94921810800E+02  0.00000000000E+00 0. -1.
<mgrwt>
<rscale>  0 0.79662449E+02</rscale>
<asrwt>0</asrwt>
<pdfrwt beam="1">  1        1 0.58667851E-01 0.79662449E+02</pdfrwt>
<pdfrwt beam="2">  1       -2 0.64005960E-03 0.79662449E+02</pdfrwt>
<totfact> 0.19053115E+05</totfact>
</mgrwt>
</event>
<event>
 8    1  0.1241100E-024  0.7439890E+02  0.7818608E-02  0.1345743E+00
         -2   -1    0    0    0  501 -0.00000000000E+00  0.00000000000E+00  0.21985043754E+03  0.21985043756E+03  0.25500000000E-02 0.  1.
          1   -1    0    0  501    0  0.00000000000E+00 -0.00000000000E+00 -0.62942740347E+01  0.62942760526E+01  0.50400000000E-02 0. -1.
        -24    2    1    2    0    0  0.17763568394E-14  0.00000000000E+00  0.21355616351E+03  0.22614471361E+03  0.74398901347E+02 0.  0.
         66    2    3    3    0    0 -0.95029170121E+01 -0.33205967895E+02  0.14862664997E+03  0.15260020581E+03  0.19999989512E+01 0.  0.
         13    1    3    3    0    0  0.95029170121E+01  0.33205967895E+02  0.64929513541E+02  0.73544507805E+02  0.10566000000E+00 0. -1.
         13    1    4    4    0    0 -0.37816412761E+01 -0.15121639721E+02  0.67342901480E+02  0.69123384916E+02  0.10566000000E+00 0. -1.
        -13    1    4    4    0    0 -0.42636803821E+01 -0.13814983437E+02  0.59586211230E+02  0.61315254795E+02  0.10566000000E+00 0.  1.
        -14    1    4    4    0    0 -0.14575953539E+01 -0.42693447369E+01  0.21697537259E+02  0.22161566096E+02  0.00000000000E+00 0.  1.
<mgrwt>
<rscale>  0 0.74398901E+02</rscale>
<asrwt>0</asrwt>
<pdfrwt beam="1">  1        1 0.96835015E-03 0.74398901E+02</pdfrwt>
<pdfrwt beam="2">  1       -2 0.33823140E-01 0.74398901E+02</pdfrwt>
<totfact> 0.98557432E+04</totfact>
</mgrwt>
</event>
<event>
 8    1  0.1241100E-024  0.7941712E+02  0.7818608E-02  0.1330714E+00
          1   -1    0    0  501    0  0.00000000000E+00  0.00000000000E+00  0.91889503612E+01  0.91889517434E+01  0.50400000000E-02 0. -1.
         -2   -1    0    0    0  501 -0.00000000000E+00 -0.00000000000E+00 -0.17159410077E+03  0.17159410078E+03  0.25500000000E-02 0.  1.
        -24    2    1    2    0    0 -0.88817841970E-15  0.00000000000E+00 -0.16240515040E+03  0.18078305253E+03  0.79417121601E+02 0.  0.
         66    2    3    3    0    0 -0.74404766983E+01 -0.88687618038E+01 -0.16765871091E+03  0.16806980387E+03  0.19999995754E+01 0.  0.
         13    1    3    3    0    0  0.74404766983E+01  0.88687618038E+01  0.52535605077E+01  0.12713248659E+02  0.10566000000E+00 0. -1.
         13    1    4    4    0    0 -0.16986136555E+01 -0.29334919454E+01 -0.40616766344E+02  0.40758110059E+02  0.10566000000E+00 0. -1.
        -13    1    4    4    0    0 -0.33249068958E+01 -0.30045146466E+01 -0.70103597845E+02  0.70246762978E+02  0.10566000000E+00 0.  1.
        -14    1    4    4    0    0 -0.24169561469E+01 -0.29307552118E+01 -0.56938346723E+02  0.57064930831E+02  0.00000000000E+00 0.  1.
<mgrwt>
<rscale>  0 0.79417122E+02</rscale>
<asrwt>0</asrwt>
<pdfrwt beam="1">  1        1 0.14136849E-02 0.79417122E+02</pdfrwt>
<pdfrwt beam="2">  1       -2 0.26399090E-01 0.79417122E+02</pdfrwt>
<totfact> 0.91942142E+04</totfact>
</mgrwt>
</event>
<event>
 8    1  0.1241100E-024  0.7964459E+02  0.7818608E-02  0.1330063E+00
          1   -1    0    0  501    0  0.00000000000E+00  0.00000000000E+00  0.15929978985E+03  0.15929978993E+03  0.50400000000E-02 0. -1.
         -2   -1    0    0    0  501 -0.00000000000E+00 -0.00000000000E+00 -0.99549093853E+01  0.99549097119E+01  0.25500000000E-02 0.  1.
        -24    2    1    2    0    0  0.00000000000E+00  0.00000000000E+00  0.14934488047E+03  0.16925469964E+03  0.79644585691E+02 0.  0.
         66    2    3    3    0    0  0.12265618229E+02 -0.21242462058E+02  0.81204592067E+01  0.25915814797E+02  0.20000035078E+01 0.  0.
         13    1    3    3    0    0 -0.12265618229E+02  0.21242462058E+02  0.14122442126E+03  0.14333888485E+03  0.10566000000E+00 0. -1.
         13    1    4    4    0    0  0.18760747191E+01 -0.37027231081E+01  0.16602662877E+01  0.44718522951E+01  0.10566000000E+00 0. -1.
        -13    1    4    4    0    0  0.37848553463E+01 -0.77913554317E+01  0.30696802642E+01  0.91904543095E+01  0.10566000000E+00 0.  1.
        -14    1    4    4    0    0  0.66046881635E+01 -0.97483835184E+01  0.33905126549E+01  0.12253508192E+02  0.00000000000E+00 0.  1.
<mgrwt>
<rscale>  0 0.79644586E+02</rscale>
<asrwt>0</asrwt>
<pdfrwt beam="1">  1        1 0.24507658E-01 0.79644586E+02</pdfrwt>
<pdfrwt beam="2">  1       -2 0.15315247E-02 0.79644586E+02</pdfrwt>
<totfact> 0.16156482E+05</totfact>
</mgrwt>
</event>
<event>
 8    1  0.1241100E-024  0.7721860E+02  0.7818608E-02  0.1337135E+00
         -2   -1    0    0    0  501 -0.00000000000E+00  0.00000000000E+00  0.51090623330E+02  0.51090623394E+02  0.25500000000E-02 0.  1.
          1   -1    0    0  501    0  0.00000000000E+00 -0.00000000000E+00 -0.29177138820E+02  0.29177139256E+02  0.50400000000E-02 0. -1.
        -24    2    1    2    0    0  0.00000000000E+00  0.00000000000E+00  0.21913484509E+02  0.80267762649E+02  0.77218604736E+02 0.  0.
         66    2    3    3    0    0 -0.25362364273E+02 -0.29416235324E+01  0.41033310161E+02  0.48369775761E+02  0.19999984578E+01 0.  0.
         13    1    3    3    0    0  0.25362364273E+02  0.29416235324E+01 -0.19119825652E+02  0.31897986888E+02  0.10566000000E+00 0. -1.
         13    1    4    4    0    0 -0.12206038851E+02 -0.10385654058E+01  0.18142703138E+02  0.21891433113E+02  0.10566000000E+00 0. -1.
        -13    1    4    4    0    0 -0.85498739479E+01 -0.10312552465E+01  0.14378602959E+02  0.16760644945E+02  0.10566000000E+00 0.  1.
        -14    1    4    4    0    0 -0.46064514739E+01 -0.87180288011E+00  0.85120040646E+01  0.97176977025E+01  0.00000000000E+00 0.  1.
<mgrwt>
<rscale>  0 0.77218605E+02</rscale>
<asrwt>0</asrwt>
<pdfrwt beam="1">  1        1 0.44887907E-02 0.77218605E+02</pdfrwt>
<pdfrwt beam="2">  1       -2 0.78600958E-02 0.77218605E+02</pdfrwt>
<totfact> 0.13321166E+05</totfact>
</mgrwt>
</event>
<event>
 8    1  0.1241100E-024  0.8000844E+02  0.7818608E-02  0.1329027E+00
          1   -1    0    0  501    0  0.00000000000E+00  0.00000000000E+00  0.23779955469E+02  0.23779956003E+02  0.50400000000E-02 0. -1.
         -2   -1    0    0    0  501 -0.00000000000E+00 -0.00000000000E+00 -0.67297748141E+02  0.67297748189E+02  0.25500000000E-02 0.  1.
        -24    2    1    2    0    0  0.00000000000E+00 -0.35527136788E-14 -0.43517792672E+02  0.91077704192E+02  0.80008436567E+02 0.  0.
         66    2    3    3    0    0 -0.15113511112E+02  0.29472120993E+02 -0.47260045035E+02  0.57745441281E+02  0.19999995199E+01 0.  0.
         13    1    3    3    0    0  0.15113511112E+02 -0.29472120993E+02  0.37422523640E+01  0.33332262911E+02  0.10566000000E+00 0. -1.
         13    1    4    4    0    0 -0.11798925703E+01  0.15310063338E+01 -0.30285482951E+01  0.35943560874E+01  0.10566000000E+00 0. -1.
        -13    1    4    4    0    0 -0.57429596964E+01  0.12619495286E+02 -0.19836269812E+02  0.24201694392E+02  0.10566000000E+00 0.  1.
         14    1    4    4    0    0 -0.81906588450E+01  0.15321619373E+02 -0.24395226929E+02  0.29949390802E+02  0.00000000000E+00 0. -1.
<mgrwt>
<rscale>  0 0.80008437E+02</rscale>
<asrwt>0</asrwt>
<pdfrwt beam="1">  1        1 0.36584548E-02 0.80008437E+02</pdfrwt>
<pdfrwt beam="2">  1       -2 0.10353500E-01 0.80008437E+02</pdfrwt>
<totfact> 0.11578353E+05</totfact>
</mgrwt>
</event>
<event>
 8    1  0.1241100E-024  0.7880837E+02  0.7818608E-02  0.1332468E+00
          1   -1    0    0  501    0  0.00000000000E+00  0.00000000000E+00  0.56872846358E+02  0.56872846581E+02  0.50400000000E-02 0. -1.
         -2   -1    0    0    0  501 -0.00000000000E+00 -0.00000000000E+00 -0.27301073255E+02  0.27301073375E+02  0.25500000000E-02 0.  1.
        -24    2    1    2    0    0 -0.11102230246E-15  0.00000000000E+00  0.29571773103E+02  0.84173919956E+02  0.78808369075E+02 0.  0.
         66    2    3    3    0    0  0.58107968196E+00  0.29106402726E+02 -0.13527253635E+02  0.32163751691E+02  0.19999996656E+01 0.  0.
         13    1    3    3    0    0 -0.58107968196E+00 -0.29106402726E+02  0.43099026737E+02  0.52010168265E+02  0.10566000000E+00 0. -1.
         13    1    4    4    0    0  0.24471418701E+00  0.64428041235E+00 -0.25996513427E+00  0.74412914853E+00  0.10566000000E+00 0. -1.
        -13    1    4    4    0    0  0.21975119915E+00  0.57945151447E+01 -0.23165791516E+01  0.62451900974E+01  0.10566000000E+00 0.  1.
        -14    1    4    4    0    0  0.11661429580E+00  0.22667607169E+02 -0.10950709349E+02  0.25174432445E+02  0.00000000000E+00 0.  1.
<mgrwt>
<rscale>  0 0.78808369E+02</rscale>
<asrwt>0</asrwt>
<pdfrwt beam="1">  1        1 0.87496687E-02 0.78808369E+02</pdfrwt>
<pdfrwt beam="2">  1       -2 0.42001651E-02 0.78808369E+02</pdfrwt>
<totfact> 0.13993340E+05</totfact>
</mgrwt>
</event>
<event>
 8    1  0.1241100E-024  0.7127497E+02  0.7818608E-02  0.1355810E+00
         -2   -1    0    0    0  501 -0.00000000000E+00  0.00000000000E+00  0.16675396727E+02  0.16675396922E+02  0.25500000000E-02 0.  1.
          1   -1    0    0  501    0  0.00000000000E+00 -0.00000000000E+00 -0.76161928991E+02  0.76161929158E+02  0.50400000000E-02 0. -1.
        -24    2    1    2    0    0  0.00000000000E+00 -0.35527136788E-14 -0.59486532264E+02  0.92837326080E+02  0.71274971715E+02 0.  0.
         66    2    3    3    0    0 -0.21862688720E+02 -0.28101563637E+02 -0.30537821769E+02  0.46949266192E+02  0.20000001738E+01 0.  0.
         13    1    3    3    0    0  0.21862688720E+02  0.28101563637E+02 -0.28948710495E+02  0.45888059888E+02  0.10566000000E+00 0. -1.
         13    1    4    4    0    0 -0.57650749519E+01 -0.80546201979E+01 -0.94264621238E+01  0.13674148893E+02  0.10566000000E+00 0. -1.
        -13    1    4    4    0    0 -0.15847622482E+02 -0.19644957100E+02 -0.20819292543E+02  0.32718887264E+02  0.10566000000E+00 0.  1.
         14    1    4    4    0    0 -0.24999128673E+00 -0.40198633898E+00 -0.29206710197E+00  0.55623003534E+00  0.00000000000E+00 0. -1.
<mgrwt>
<rscale>  0 0.71274972E+02</rscale>
<asrwt>0</asrwt>
<pdfrwt beam="1">  1        1 0.11717220E-01 0.71274972E+02</pdfrwt>
<pdfrwt beam="2">  1       -2 0.25654457E-02 0.71274972E+02</pdfrwt>
<totfact> 0.19209390E+05</totfact>
</mgrwt>
</event>
<event>
 8    1  0.1241100E-024  0.7208614E+02  0.7818608E-02  0.1353139E+00
          1   -1    0    0  501    0  0.00000000000E+00  0.00000000000E+00  0.23287403090E+03  0.23287403095E+03  0.50400000000E-02 0. -1.
         -2   -1    0    0    0  501 -0.00000000000E+00 -0.00000000000E+00 -0.55785642267E+01  0.55785648095E+01  0.25500000000E-02 0.  1.
        -24    2    1    2    0    0  0.00000000000E+00 -0.44408920985E-15  0.22729546667E+03  0.23845259576E+03  0.72086137754E+02 0.  0.
         66    2    3    3    0    0 -0.35725442207E+02  0.39069372984E+01  0.12151138570E+03  0.12673037626E+03  0.20000079206E+01 0.  0.
         13    1    3    3    0    0  0.35725442207E+02 -0.39069372984E+01  0.10578408097E+03  0.11172221950E+03  0.10566000000E+00 0. -1.
         13    1    4    4    0    0 -0.15253210485E+02  0.21344182727E+01  0.49737032376E+02  0.52067261548E+02  0.10566000000E+00 0. -1.
        -13    1    4    4    0    0 -0.16623279042E+02  0.12263717318E+01  0.57210288218E+02  0.59589140250E+02  0.10566000000E+00 0.  1.
         14    1    4    4    0    0 -0.38489526809E+01  0.54614729389E+00  0.14564065104E+02  0.15073974458E+02  0.00000000000E+00 0. -1.
<mgrwt>
<rscale>  0 0.72086138E+02</rscale>
<asrwt>0</asrwt>
<pdfrwt beam="1">  1        1 0.35826779E-01 0.72086138E+02</pdfrwt>
<pdfrwt beam="2">  1       -2 0.85824059E-03 0.72086138E+02</pdfrwt>
<totfact> 0.22590685E+05</totfact>
</mgrwt>
</event>
<event>
 8    1  0.1241100E-024  0.7656081E+02  0.7818608E-02  0.1339105E+00
         -2   -1    0    0    0  501 -0.00000000000E+00  0.00000000000E+00  0.11556906677E+03  0.11556906679E+03  0.25500000000E-02 0.  1.
          1   -1    0    0  501    0  0.00000000000E+00 -0.00000000000E+00 -0.12679770499E+02  0.12679771501E+02  0.50400000000E-02 0. -1.
        -24    2    1    2    0    0  0.88817841970E-15  0.00000000000E+00  0.10288929627E+03  0.12824883829E+03  0.76560807452E+02 0.  0.
         66    2    3    3    0    0 -0.65878761051E+01  0.28680010186E+02  0.92424061141E+02  0.97016236639E+02  0.19999994881E+01 0.  0.
         13    1    3    3    0    0  0.65878761051E+01 -0.28680010186E+02  0.10465235125E+02  0.31232601655E+02  0.10566000000E+00 0. -1.
         13    1    4    4    0    0 -0.28474416708E+01  0.16127165627E+02  0.52703567515E+02  0.55189406484E+02  0.10566000000E+00 0. -1.
        -13    1    4    4    0    0 -0.23826969884E+01  0.85894308099E+01  0.26676324775E+02  0.28126376128E+02  0.10566000000E+00 0.  1.
         14    1    4    4    0    0 -0.13577374459E+01  0.39634137492E+01  0.13044168851E+02  0.13700454027E+02  0.00000000000E+00 0. -1.
<mgrwt>
<rscale>  0 0.76560807E+02</rscale>
<asrwt>0</asrwt>
<pdfrwt beam="1">  1        1 0.19507341E-02 0.76560807E+02</pdfrwt>
<pdfrwt beam="2">  1       -2 0.17779855E-01 0.76560807E+02</pdfrwt>
<totfact> 0.11438592E+05</totfact>
</mgrwt>
</event>
<event>
 8    1  0.1241100E-024  0.7895136E+02  0.7818608E-02  0.1332054E+00
          1   -1    0    0  501    0  0.00000000000E+00  0.00000000000E+00  0.38700342741E+02  0.38700343069E+02  0.50400000000E-02 0. -1.
         -2   -1    0    0    0  501 -0.00000000000E+00 -0.00000000000E+00 -0.40266550015E+02  0.40266550096E+02  0.25500000000E-02 0.  1.
        -24    2    1    2    0    0 -0.71054273576E-14  0.00000000000E+00 -0.15662072742E+01  0.78966893164E+02  0.78951359778E+02 0.  0.
         66    2    3    3    0    0  0.37041725901E+02 -0.12938040871E+02  0.33211030693E+01  0.39427301288E+02  0.20000004885E+01 0.  0.
         13    1    3    3    0    0 -0.37041725901E+02  0.12938040871E+02 -0.48873103435E+01  0.39539591876E+02  0.10566000000E+00 0. -1.
         13    1    4    4    0    0  0.11952843024E+01 -0.19740392354E+00  0.25590043607E+00  0.12427075043E+01  0.10566000000E+00 0.  1.
        -13    1    4    4    0    0  0.12785202996E+02 -0.49998731862E+01  0.14619581990E+01  0.13806108551E+02  0.10566000000E+00 0.  1.
        -14    1    4    4    0    0  0.23061238603E+02 -0.77407637609E+01  0.16032444343E+01  0.24378485233E+02  0.00000000000E+00 0.  1.
<mgrwt>
<rscale>  0 0.78951360E+02</rscale>
<asrwt>0</asrwt>
<pdfrwt beam="1">  1        1 0.59538989E-02 0.78951360E+02</pdfrwt>
<pdfrwt beam="2">  1       -2 0.61948539E-02 0.78951360E+02</pdfrwt>
<totfact> 0.13108098E+05</totfact>
</mgrwt>
</event>
<event>
 8    1  0.1241100E-024  0.7765848E+02  0.7818608E-02  0.1335831E+00
          1   -1    0    0  501    0  0.00000000000E+00  0.00000000000E+00  0.37691915879E+03  0.37691915883E+03  0.50400000000E-02 0. -1.
         -2   -1    0    0    0  501 -0.00000000000E+00 -0.00000000000E+00 -0.40000877509E+01  0.40000885636E+01  0.25500000000E-02 0.  1.
        -24    2    1    2    0    0  0.00000000000E+00  0.00000000000E+00  0.37291907104E+03  0.38091924739E+03  0.77658479804E+02 0.  0.
         66    2    3    3    0    0 -0.20672906225E+01  0.37358162654E+02  0.23703559370E+03  0.23997870466E+03  0.20000001711E+01 0.  0.
         13    1    3    3    0    0  0.20672906225E+01 -0.37358162654E+02  0.13588347734E+03  0.14094054273E+03  0.10566000000E+00 0. -1.
         13    1    4    4    0    0 -0.60309451272E+00  0.67432922404E+01  0.46216767468E+02  0.46710132439E+02  0.10566000000E+00 0. -1.
        -13    1    4    4    0    0 -0.16582811296E+01  0.24653049015E+02  0.15410038571E+03  0.15606877575E+03  0.10566000000E+00 0.  1.
         14    1    4    4    0    0  0.19408501982E+00  0.59618213986E+01  0.36718440520E+02  0.37199796473E+02  0.00000000000E+00 0. -1.
<mgrwt>
<rscale>  0 0.77658480E+02</rscale>
<asrwt>0</asrwt>
<pdfrwt beam="1">  1        1 0.57987583E-01 0.77658480E+02</pdfrwt>
<pdfrwt beam="2">  1       -2 0.61539796E-03 0.77658480E+02</pdfrwt>
<totfact> 0.20329628E+05</totfact>
</mgrwt>
</event>
<event>
 8    1  0.1241100E-024  0.7947637E+02  0.7818608E-02  0.1330544E+00
         -2   -1    0    0    0  501 -0.00000000000E+00  0.00000000000E+00  0.79690229935E+02  0.79690229976E+02  0.25500000000E-02 0.  1.
          1   -1    0    0  501    0  0.00000000000E+00 -0.00000000000E+00 -0.19815769156E+02  0.19815769797E+02  0.50400000000E-02 0. -1.
        -24    2    1    2    0    0  0.00000000000E+00 -0.11102230246E-15  0.59874460780E+02  0.99505999773E+02  0.79476367161E+02 0.  0.
         66    2    3    3    0    0 -0.33372187034E+02  0.85605719769E+00  0.56887157874E+02  0.65989274932E+02  0.19999934552E+01 0.  0.
         13    1    3    3    0    0  0.33372187034E+02 -0.85605719769E+00  0.29873029058E+01  0.33516724840E+02  0.10566000000E+00 0. -1.
         13    1    4    4    0    0 -0.49156570086E+00  0.93559353617E-02  0.56484572579E+00  0.75626655442E+00  0.10566000000E+00 0. -1.
        -13    1    4    4    0    0 -0.28685018293E+02  0.10752956345E+01  0.49462774936E+02  0.57188843349E+02  0.10566000000E+00 0.  1.
         14    1    4    4    0    0 -0.41956030400E+01 -0.22859437215E+00  0.68595372116E+01  0.80441650290E+01  0.00000000000E+00 0. -1.
<mgrwt>
<rscale>  0 0.79476367E+02</rscale>
<asrwt>0</asrwt>
<pdfrwt beam="1">  1        1 0.30485800E-02 0.79476367E+02</pdfrwt>
<pdfrwt beam="2">  1       -2 0.12260035E-01 0.79476367E+02</pdfrwt>
<totfact> 0.11374100E+05</totfact>
</mgrwt>
</event>
<event>
 8    1  0.1241100E-024  0.8049207E+02  0.7818608E-02  0.1327661E+00
         -2   -1    0    0    0  501 -0.00000000000E+00  0.00000000000E+00  0.13488428502E+02  0.13488428743E+02  0.25500000000E-02 0.  1.
          1   -1    0    0  501    0  0.00000000000E+00 -0.00000000000E+00 -0.12008392609E+03  0.12008392619E+03  0.50400000000E-02 0. -1.
        -24    2    1    2    0    0  0.71054273576E-14 -0.17763568394E-14 -0.10659549759E+03  0.13357235494E+03  0.80492073508E+02 0.  0.
         66    2    3    3    0    0 -0.30726711026E+02  0.95334946398E+01 -0.13272170082E+02  0.34859271148E+02  0.19999989385E+01 0.  0.
         13    1    3    3    0    0  0.30726711026E+02 -0.95334946398E+01 -0.93323327505E+02  0.98713083789E+02  0.10566000000E+00 0. -1.
         13    1    4    4    0    0 -0.16847666480E+02  0.43432179858E+01 -0.69449787202E+01  0.18733694290E+02  0.10566000000E+00 0. -1.
        -13    1    4    4    0    0 -0.49600050894E+01  0.18837395620E+01 -0.25969752461E+01  0.59080935748E+01  0.10566000000E+00 0.  1.
         14    1    4    4    0    0 -0.89190394566E+01  0.33065370920E+01 -0.37302161161E+01  0.10217483283E+02  0.00000000000E+00 0. -1.
<mgrwt>
<rscale>  0 0.80492074E+02</rscale>
<asrwt>0</asrwt>
<pdfrwt beam="1">  1        1 0.18474450E-01 0.80492074E+02</pdfrwt>
<pdfrwt beam="2">  1       -2 0.20751429E-02 0.80492074E+02</pdfrwt>
<totfact> 0.14920207E+05</totfact>
</mgrwt>
</event>
<event>
 8    1  0.1241100E-024  0.8079923E+02  0.7818608E-02  0.1326799E+00
          1   -1    0    0  501    0  0.00000000000E+00  0.00000000000E+00  0.74560551000E+02  0.74560551171E+02  0.50400000000E-02 0. -1.
         -2   -1    0    0    0  501 -0.00000000000E+00 -0.00000000000E+00 -0.21889980044E+02  0.21889980193E+02  0.25500000000E-02 0.  1.
        -24    2    1    2    0    0  0.00000000000E+00  0.00000000000E+00  0.52670570956E+02  0.96450531364E+02  0.80799232394E+02 0.  0.
         66    2    3    3    0    0  0.27111004874E+02  0.17298086833E+02 -0.27881013883E+01  0.32341983606E+02  0.20000002063E+01 0.  0.
         13    1    3    3    0    0 -0.27111004874E+02 -0.17298086833E+02  0.55458672344E+02  0.64108547758E+02  0.10566000000E+00 0. -1.
         13    1    4    4    0    0  0.27944997905E+01  0.14774073656E+01 -0.18673917637E+00  0.31682798422E+01  0.10566000000E+00 0. -1.
        -13    1    4    4    0    0  0.16727457078E+02  0.11737793675E+02 -0.20698485291E+01  0.20539694682E+02  0.10566000000E+00 0.  1.
        -14    1    4    4    0    0  0.75890480057E+01  0.40828857926E+01 -0.53151368277E+00  0.86340090817E+01  0.00000000000E+00 0.  1.
<mgrwt>
<rscale>  0 0.80799232E+02</rscale>
<asrwt>0</asrwt>
<pdfrwt beam="1">  1        1 0.11470854E-01 0.80799232E+02</pdfrwt>
<pdfrwt beam="2">  1       -2 0.33676892E-02 0.80799232E+02</pdfrwt>
<totfact> 0.13634853E+05</totfact>
</mgrwt>
</event>
<event>
 8    1  0.1241100E-024  0.7794730E+02  0.7818608E-02  0.1334980E+00
         -2   -1    0    0    0  501 -0.00000000000E+00  0.00000000000E+00  0.17271154686E+02  0.17271154875E+02  0.25500000000E-02 0.  1.
          1   -1    0    0  501    0  0.00000000000E+00 -0.00000000000E+00 -0.87946942164E+02  0.87946942309E+02  0.50400000000E-02 0. -1.
        -24    2    1    2    0    0  0.00000000000E+00  0.00000000000E+00 -0.70675787478E+02  0.10521809718E+03  0.77947296549E+02 0.  0.
         66    2    3    3    0    0 -0.67783302671E+01 -0.19306605279E+02  0.93731301714E+01  0.22595272556E+02  0.20000010124E+01 0.  0.
         13    1    3    3    0    0  0.67783302671E+01  0.19306605279E+02 -0.80048917649E+02  0.82622824628E+02  0.10566000000E+00 0. -1.
         13    1    4    4    0    0 -0.19268227416E+00 -0.17417855187E+01  0.61611236698E+00  0.18605648971E+01  0.10566000000E+00 0. -1.
        -13    1    4    4    0    0 -0.48675421165E+01 -0.11887314144E+02  0.64008348168E+01  0.14352109748E+02  0.10566000000E+00 0.  1.
        -14    1    4    4    0    0 -0.17181058765E+01 -0.56775056159E+01  0.23561829876E+01  0.63825979109E+01  0.00000000000E+00 0.  1.
<mgrwt>
<rscale>  0 0.77947297E+02</rscale>
<asrwt>0</asrwt>
<pdfrwt beam="1">  1        1 0.13530299E-01 0.77947297E+02</pdfrwt>
<pdfrwt beam="2">  1       -2 0.26571008E-02 0.77947297E+02</pdfrwt>
<totfact> 0.15438994E+05</totfact>
</mgrwt>
</event>
<event>
 8    1  0.1241100E-024  0.7986773E+02  0.7818608E-02  0.1329427E+00
         -2   -1    0    0    0  501 -0.00000000000E+00  0.00000000000E+00  0.53270230338E+01  0.53270236441E+01  0.25500000000E-02 0.  1.
          1   -1    0    0  501    0  0.00000000000E+00 -0.00000000000E+00 -0.29936300807E+03  0.29936300811E+03  0.50400000000E-02 0. -1.
        -24    2    1    2    0    0  0.00000000000E+00 -0.22204460493E-15 -0.29403598503E+03  0.30469003175E+03  0.79867734133E+02 0.  0.
         66    2    3    3    0    0 -0.38523842641E+02  0.70507109263E+00 -0.10744100852E+03  0.11415845956E+03  0.20000002885E+01 0.  0.
         13    1    3    3    0    0  0.38523842641E+02 -0.70507109263E+00 -0.18659497652E+03  0.19053157219E+03  0.10566000000E+00 0. -1.
         13    1    4    4    0    0 -0.76407544186E+01 -0.27428631735E+00 -0.22750275686E+02  0.24000886835E+02  0.10566000000E+00 0. -1.
        -13    1    4    4    0    0 -0.89684854925E+01  0.66269138548E+00 -0.23798676300E+02  0.25441325625E+02  0.10566000000E+00 0.  1.
         14    1    4    4    0    0 -0.21914602730E+02  0.31666602451E+00 -0.60892056532E+02  0.64716247101E+02  0.00000000000E+00 0. -1.
<mgrwt>
<rscale>  0 0.79867734E+02</rscale>
<asrwt>0</asrwt>
<pdfrwt beam="1">  1        1 0.46055834E-01 0.79867734E+02</pdfrwt>
<pdfrwt beam="2">  1       -2 0.81954229E-03 0.79867734E+02</pdfrwt>
<totfact> 0.18113148E+05</totfact>
</mgrwt>
</event>
<event>
 8    1  0.1241100E-024  0.7970360E+02  0.7818608E-02  0.1329895E+00
          1   -1    0    0  501    0  0.00000000000E+00  0.00000000000E+00  0.31476004159E+01  0.31476044510E+01  0.50400000000E-02 0. -1.
         -2   -1    0    0    0  501 -0.00000000000E+00 -0.00000000000E+00 -0.50456365979E+03  0.50456365980E+03  0.25500000000E-02 0.  1.
        -24    2    1    2    0    0 -0.17763568394E-14  0.00000000000E+00 -0.50141605938E+03  0.50771126425E+03  0.79703596189E+02 0.  0.
         66    2    3    3    0    0 -0.10822174332E+02 -0.16729540916E+02 -0.47052987664E+03  0.47095579602E+03  0.19999999228E+01 0.  0.
         13    1    3    3    0    0  0.10822174332E+02  0.16729540916E+02 -0.30886182736E+02  0.36755468227E+02  0.10566000000E+00 0. -1.
         13    1    4    4    0    0 -0.10073362436E+01 -0.10697180518E+01 -0.42210533052E+02  0.42236231930E+02  0.10566000000E+00 0. -1.
        -13    1    4    4    0    0 -0.11391307481E+01 -0.12120422010E+01 -0.37165604941E+02  0.37202957138E+02  0.10566000000E+00 0.  1.
         14    1    4    4    0    0 -0.86757073408E+01 -0.14447780663E+02 -0.39115373865E+03  0.39151660696E+03  0.00000000000E+00 0. -1.
<mgrwt>
<rscale>  0 0.79703596E+02</rscale>
<asrwt>0</asrwt>
<pdfrwt beam="1">  1        1 0.48424693E-03 0.79703596E+02</pdfrwt>
<pdfrwt beam="2">  1       -2 0.77625114E-01 0.79703596E+02</pdfrwt>
<totfact> 0.50519051E+04</totfact>
</mgrwt>
</event>
<event>
 8    1  0.1241100E-024  0.8052503E+02  0.7818608E-02  0.1327568E+00
          1   -1    0    0  501    0  0.00000000000E+00  0.00000000000E+00  0.18607895874E+02  0.18607896556E+02  0.50400000000E-02 0. -1.
         -2   -1    0    0    0  501 -0.00000000000E+00 -0.00000000000E+00 -0.87117318292E+02  0.87117318329E+02  0.25500000000E-02 0.  1.
        -24    2    1    2    0    0  0.88817841970E-15 -0.35527136788E-14 -0.68509422418E+02  0.10572521489E+03  0.80525027801E+02 0.  0.
         66    2    3    3    0    0  0.60311741146E+01 -0.31901800718E+02 -0.30683171207E+01  0.32672840681E+02  0.19999994942E+01 0.  0.
         13    1    3    3    0    0 -0.60311741146E+01  0.31901800718E+02 -0.65441105297E+02  0.73052374204E+02  0.10566000000E+00 0. -1.
         13    1    4    4    0    0  0.30384468149E+01 -0.13828217653E+02 -0.87833302508E+00  0.14185710960E+02  0.10566000000E+00 0. -1.
        -13    1    4    4    0    0  0.27180368301E+01 -0.13306062047E+02 -0.15748690466E+01  0.13672248826E+02  0.10566000000E+00 0.  1.
         14    1    4    4    0    0  0.27469046948E+00 -0.47675210181E+01 -0.61511504905E+00  0.48148808953E+01  0.00000000000E+00 0. -1.
<mgrwt>
<rscale>  0 0.80525028E+02</rscale>
<asrwt>0</asrwt>
<pdfrwt beam="1">  1        1 0.28627533E-02 0.80525028E+02</pdfrwt>
<pdfrwt beam="2">  1       -2 0.13402664E-01 0.80525028E+02</pdfrwt>
<totfact> 0.10785091E+05</totfact>
</mgrwt>
</event>
<event>
 8    1  0.1241100E-024  0.8095192E+02  0.7818608E-02  0.1326372E+00
          1   -1    0    0  501    0  0.00000000000E+00  0.00000000000E+00  0.70801747540E+01  0.70801765478E+01  0.50400000000E-02 0. -1.
         -2   -1    0    0    0  501 -0.00000000000E+00 -0.00000000000E+00 -0.23139301214E+03  0.23139301215E+03  0.25500000000E-02 0.  1.
        -24    2    1    2    0    0  0.00000000000E+00  0.00000000000E+00 -0.22431283738E+03  0.23847318870E+03  0.80951916058E+02 0.  0.
         66    2    3    3    0    0 -0.16249224054E+02  0.12608983795E+02 -0.21483522157E+03  0.21582677353E+03  0.19999969213E+01 0.  0.
         13    1    3    3    0    0  0.16249224054E+02 -0.12608983795E+02 -0.94776158099E+01  0.22646415173E+02  0.10566000000E+00 0. -1.
         13    1    4    4    0    0 -0.10465073636E+02  0.77909122498E+01 -0.13867422815E+03  0.13928664257E+03  0.10566000000E+00 0.  1.
        -13    1    4    4    0    0 -0.20396075627E+01  0.15274667881E+01 -0.31043201263E+02  0.31147787441E+02  0.10566000000E+00 0. -1.
        -14    1    4    4    0    0 -0.37445428552E+01  0.32906047575E+01 -0.45117792157E+02  0.45392343517E+02  0.00000000000E+00 0.  1.
<mgrwt>
<rscale>  0 0.80951916E+02</rscale>
<asrwt>0</asrwt>
<pdfrwt beam="1">  1        1 0.10892580E-02 0.80951916E+02</pdfrwt>
<pdfrwt beam="2">  1       -2 0.35598919E-01 0.80951916E+02</pdfrwt>
<totfact> 0.77526050E+04</totfact>
</mgrwt>
</event>
<event>
 8    1  0.1241100E-024  0.8048004E+02  0.7818608E-02  0.1327695E+00
          1   -1    0    0  501    0  0.00000000000E+00  0.00000000000E+00  0.84913430534E+01  0.84913445491E+01  0.50400000000E-02 0. -1.
         -2   -1    0    0    0  501 -0.00000000000E+00 -0.00000000000E+00 -0.19069529716E+03  0.19069529718E+03  0.25500000000E-02 0.  1.
        -24    2    1    2    0    0 -0.71054273576E-14  0.17763568394E-14 -0.18220395411E+03  0.19918664173E+03  0.80480043180E+02 0.  0.
         66    2    3    3    0    0  0.39011187269E+02 -0.87169501709E+01 -0.80257923525E+02  0.89683846019E+02  0.19999989356E+01 0.  0.
         13    1    3    3    0    0 -0.39011187269E+02  0.87169501709E+01 -0.10194603059E+03  0.10950279571E+03  0.10566000000E+00 0. -1.
         13    1    4    4    0    0  0.45208270572E+01 -0.45738007847E+00 -0.92699425552E+01  0.10324246841E+02  0.10566000000E+00 0. -1.
        -13    1    4    4    0    0  0.29934726797E+02 -0.73330575831E+01 -0.61081340202E+02  0.68416393407E+02  0.10566000000E+00 0.  1.
         14    1    4    4    0    0  0.45556334149E+01 -0.92651250936E+00 -0.99066407675E+01  0.10943205771E+02  0.00000000000E+00 0. -1.
<mgrwt>
<rscale>  0 0.80480043E+02</rscale>
<asrwt>0</asrwt>
<pdfrwt beam="1">  1        1 0.13063607E-02 0.80480043E+02</pdfrwt>
<pdfrwt beam="2">  1       -2 0.29337735E-01 0.80480043E+02</pdfrwt>
<totfact> 0.85379946E+04</totfact>
</mgrwt>
</event>
<event>
 8    1  0.1241100E-024  0.7971253E+02  0.7818608E-02  0.1329869E+00
         -2   -1    0    0    0  501 -0.00000000000E+00  0.00000000000E+00  0.84753804746E+03  0.84753804746E+03  0.25500000000E-02 0.  1.
          1   -1    0    0  501    0  0.00000000000E+00 -0.00000000000E+00 -0.18742745198E+01  0.18742812962E+01  0.50400000000E-02 0. -1.
        -24    2    1    2    0    0  0.00000000000E+00  0.00000000000E+00  0.84566377294E+03  0.84941232876E+03  0.79712529667E+02 0.  0.
         66    2    3    3    0    0  0.19157858281E+01  0.31160463167E+02  0.68668331480E+03  0.68739553353E+03  0.20000001195E+01 0.  0.
         13    1    3    3    0    0 -0.19157858281E+01 -0.31160463167E+02  0.15898045814E+03  0.16201679522E+03  0.10566000000E+00 0. -1.
         13    1    4    4    0    0  0.32833479394E+00  0.43627583665E+01  0.86373460086E+02  0.86484260045E+02  0.10566000000E+00 0. -1.
        -13    1    4    4    0    0  0.60513970828E+00  0.18365717650E+02  0.41926126169E+03  0.41966377315E+03  0.10566000000E+00 0.  1.
        -14    1    4    4    0    0  0.98231132588E+00  0.84319871508E+01  0.18104859302E+03  0.18124750034E+03  0.00000000000E+00 0.  1.
<mgrwt>
<rscale>  0 0.79712530E+02</rscale>
<asrwt>0</asrwt>
<pdfrwt beam="1">  1        1 0.28835020E-03 0.79712530E+02</pdfrwt>
<pdfrwt beam="2">  1       -2 0.13039058E+00 0.79712530E+02</pdfrwt>
<totfact> 0.31597159E+04</totfact>
</mgrwt>
</event>
<event>
 8    1  0.1241100E-024  0.7782712E+02  0.7818608E-02  0.1335333E+00
         -2   -1    0    0    0  501 -0.00000000000E+00  0.00000000000E+00  0.47137172884E+02  0.47137172953E+02  0.25500000000E-02 0.  1.
          1   -1    0    0  501    0  0.00000000000E+00 -0.00000000000E+00 -0.32124652170E+02  0.32124652566E+02  0.50400000000E-02 0. -1.
        -24    2    1    2    0    0 -0.22204460493E-15  0.00000000000E+00  0.15012520713E+02  0.79261825518E+02  0.77827123847E+02 0.  0.
         66    2    3    3    0    0 -0.14835441410E+01  0.24070869327E+02  0.38580177683E+02  0.45541604990E+02  0.20000053902E+01 0.  0.
         13    1    3    3    0    0  0.14835441410E+01 -0.24070869327E+02 -0.23567656970E+02  0.33720220528E+02  0.10566000000E+00 0. -1.
         13    1    4    4    0    0 -0.94258832794E-01  0.10319222903E+01  0.22228652769E+01  0.24547998728E+01  0.10566000000E+00 0. -1.
        -13    1    4    4    0    0 -0.10180420875E+01  0.21873879048E+02  0.34333524431E+02  0.40722291908E+02  0.10566000000E+00 0.  1.
        -14    1    4    4    0    0 -0.37124322072E+00  0.11650679888E+01  0.20237879756E+01  0.23645132094E+01  0.00000000000E+00 0.  1.
<mgrwt>
<rscale>  0 0.77827124E+02</rscale>
<asrwt>0</asrwt>
<pdfrwt beam="1">  1        1 0.49422542E-02 0.77827124E+02</pdfrwt>
<pdfrwt beam="2">  1       -2 0.72518728E-02 0.77827124E+02</pdfrwt>
<totfact> 0.13240211E+05</totfact>
</mgrwt>
</event>
<event>
 8    1  0.1241100E-024  0.7990467E+02  0.7818608E-02  0.1329322E+00
          1   -1    0    0  501    0  0.00000000000E+00  0.00000000000E+00  0.30149217276E+02  0.30149217697E+02  0.50400000000E-02 0. -1.
         -2   -1    0    0    0  501 -0.00000000000E+00 -0.00000000000E+00 -0.52942968551E+02  0.52942968613E+02  0.25500000000E-02 0.  1.
        -24    2    1    2    0    0  0.00000000000E+00  0.35527136788E-14 -0.22793751276E+02  0.83092186310E+02  0.79904670255E+02 0.  0.
         66    2    3    3    0    0  0.28092231685E+02  0.25220427736E+02 -0.24920211672E+02  0.45279801380E+02  0.20000017552E+01 0.  0.
         13    1    3    3    0    0 -0.28092231685E+02 -0.25220427736E+02  0.21264603965E+01  0.37812384930E+02  0.10566000000E+00 0. -1.
         13    1    4    4    0    0  0.27033342996E+01  0.23426239507E+01 -0.23629580380E+01  0.42884307193E+01  0.10566000000E+00 0. -1.
        -13    1    4    4    0    0  0.12630590991E+02  0.10162249111E+02 -0.10446566908E+02  0.19285877215E+02  0.10566000000E+00 0.  1.
         14    1    4    4    0    0  0.12758306395E+02  0.12715554673E+02 -0.12110686726E+02  0.21705493445E+02  0.00000000000E+00 0. -1.
<mgrwt>
<rscale>  0 0.79904670E+02</rscale>
<asrwt>0</asrwt>
<pdfrwt beam="1">  1        1 0.46383412E-02 0.79904670E+02</pdfrwt>
<pdfrwt beam="2">  1       -2 0.81450721E-02 0.79904670E+02</pdfrwt>
<totfact> 0.12146964E+05</totfact>
</mgrwt>
</event>
<event>
 8    1  0.1425094E-024  0.7881832E+02  0.7818608E-02  0.1332439E+00
          1   -1    0    0  501    0  0.00000000000E+00  0.00000000000E+00  0.13885326336E+02  0.13885327251E+02  0.50400000000E-02 0. -1.
         -2   -1    0    0    0  501 -0.00000000000E+00 -0.00000000000E+00 -0.11185057769E+03  0.11185057772E+03  0.25500000000E-02 0.  1.
        -24    2    1    2    0    0  0.17763568394E-14  0.88817841970E-15 -0.97965251357E+02  0.12573590497E+03  0.78818318468E+02 0.  0.
         66    2    3    3    0    0 -0.10058310949E+02 -0.44141098916E+01 -0.10934838998E+03  0.10991689760E+03  0.20000002393E+01 0.  0.
         13    1    3    3    0    0  0.10058310949E+02  0.44141098916E+01  0.11383138626E+02  0.15819007373E+02  0.10566000000E+00 0. -1.
         13    1    4    4    0    0 -0.42658273091E+01 -0.12229152778E+01 -0.46171412605E+02  0.46384300258E+02  0.10566000000E+00 0. -1.
        -13    1    4    4    0    0 -0.52734632694E+01 -0.25137461013E+01 -0.56494696855E+02  0.56796040981E+02  0.10566000000E+00 0.  1.
         14    1    4    4    0    0 -0.51902037022E+00 -0.67744851247E+00 -0.66822805224E+01  0.67365563615E+01  0.00000000000E+00 0. -1.
<mgrwt>
<rscale>  0 0.78818318E+02</rscale>
<asrwt>0</asrwt>
<pdfrwt beam="1">  1        1 0.21362042E-02 0.78818318E+02</pdfrwt>
<pdfrwt beam="2">  1       -2 0.17207781E-01 0.78818318E+02</pdfrwt>
<totfact> 0.10711959E+05</totfact>
</mgrwt>
</event>
<event>
 8    1  0.1241100E-024  0.7899219E+02  0.7818608E-02  0.1331936E+00
          1   -1    0    0  501    0  0.00000000000E+00  0.00000000000E+00  0.26322980044E+02  0.26322980527E+02  0.50400000000E-02 0. -1.
         -2   -1    0    0    0  501 -0.00000000000E+00 -0.00000000000E+00 -0.59261580258E+02  0.59261580313E+02  0.25500000000E-02 0.  1.
        -24    2    1    2    0    0 -0.44408920985E-15 -0.17763568394E-14 -0.32938600214E+02  0.85584560840E+02  0.78992187399E+02 0.  0.
         66    2    3    3    0    0  0.28700621877E+01  0.14682340822E+02 -0.56053837440E+02  0.58050332232E+02  0.19999978734E+01 0.  0.
         13    1    3    3    0    0 -0.28700621877E+01 -0.14682340822E+02  0.23115237226E+02  0.27534228608E+02  0.10566000000E+00 0. -1.
         13    1    4    4    0    0  0.18606153622E+01  0.66511098266E+01 -0.23386048305E+02  0.24384781541E+02  0.10566000000E+00 0. -1.
        -13    1    4    4    0    0  0.56279512742E+00  0.23659180876E+01 -0.10860169793E+02  0.11129634258E+02  0.10566000000E+00 0.  1.
        -14    1    4    4    0    0  0.44665169807E+00  0.56653129081E+01 -0.21807619342E+02  0.22535916433E+02  0.00000000000E+00 0.  1.
<mgrwt>
<rscale>  0 0.78992187E+02</rscale>
<asrwt>0</asrwt>
<pdfrwt beam="1">  1        1 0.40496893E-02 0.78992187E+02</pdfrwt>
<pdfrwt beam="2">  1       -2 0.91171662E-02 0.78992187E+02</pdfrwt>
<totfact> 0.12252708E+05</totfact>
</mgrwt>
</event>
<event>
 8    1  0.1241100E-024  0.8339657E+02  0.7818608E-02  0.1319680E+00
          1   -1    0    0  501    0  0.00000000000E+00  0.00000000000E+00  0.90052743573E+02  0.90052743714E+02  0.50400000000E-02 0. -1.
         -2   -1    0    0    0  501 -0.00000000000E+00 -0.00000000000E+00 -0.19308094744E+02  0.19308094912E+02  0.25500000000E-02 0.  1.
        -24    2    1    2    0    0  0.35527136788E-14  0.00000000000E+00  0.70744648829E+02  0.10936083863E+03  0.83396568797E+02 0.  0.
         66    2    3    3    0    0  0.27691285871E+02 -0.45617142488E+01 -0.50068376836E+01  0.28577700392E+02  0.19999965115E+01 0.  0.
         13    1    3    3    0    0 -0.27691285871E+02  0.45617142488E+01  0.75751486513E+02  0.80783138234E+02  0.10566000000E+00 0. -1.
         13    1    4    4    0    0  0.86726972267E+01 -0.14963559023E+01 -0.24683199574E+01  0.91410352598E+01  0.10566000000E+00 0. -1.
        -13    1    4    4    0    0  0.11954625673E+02 -0.21091786572E+01 -0.17369943706E+01  0.12263361002E+02  0.10566000000E+00 0.  1.
         14    1    4    4    0    0  0.70639629709E+01 -0.95617968927E+00 -0.80152335563E+00  0.71733041301E+01  0.00000000000E+00 0. -1.
<mgrwt>
<rscale>  0 0.83396569E+02</rscale>
<asrwt>0</asrwt>
<pdfrwt beam="1">  1        1 0.13854268E-01 0.83396569E+02</pdfrwt>
<pdfrwt beam="2">  1       -2 0.29704761E-02 0.83396569E+02</pdfrwt>
<totfact> 0.12900489E+05</totfact>
</mgrwt>
</event>
<event>
 8    1  0.1241100E-024  0.7791274E+02  0.7818608E-02  0.1335081E+00
          1   -1    0    0  501    0  0.00000000000E+00  0.00000000000E+00  0.72416774213E+02  0.72416774388E+02  0.50400000000E-02 0. -1.
         -2   -1    0    0    0  501 -0.00000000000E+00 -0.00000000000E+00 -0.20956454469E+02  0.20956454625E+02  0.25500000000E-02 0.  1.
        -24    2    1    2    0    0  0.00000000000E+00  0.00000000000E+00  0.51460319744E+02  0.93373229013E+02  0.77912742143E+02 0.  0.
         66    2    3    3    0    0  0.36554670169E+02 -0.12476328243E+02  0.31580279529E+02  0.49932121286E+02  0.20000008306E+01 0.  0.
         13    1    3    3    0    0 -0.36554670169E+02  0.12476328243E+02  0.19880040214E+02  0.43441107727E+02  0.10566000000E+00 0. -1.
         13    1    4    4    0    0  0.23027385102E+01 -0.90541142626E+00  0.23973275347E+01  0.34468417198E+01  0.10566000000E+00 0. -1.
        -13    1    4    4    0    0  0.19727811794E+02 -0.59334736588E+01  0.16346260599E+02  0.26298366250E+02  0.10566000000E+00 0.  1.
        -14    1    4    4    0    0  0.14524119865E+02 -0.56374431584E+01  0.12836691396E+02  0.20186913315E+02  0.00000000000E+00 0.  1.
<mgrwt>
<rscale>  0 0.77912742E+02</rscale>
<asrwt>0</asrwt>
<pdfrwt beam="1">  1        1 0.11141042E-01 0.77912742E+02</pdfrwt>
<pdfrwt beam="2">  1       -2 0.32240700E-02 0.77912742E+02</pdfrwt>
<totfact> 0.14988801E+05</totfact>
</mgrwt>
</event>
<event>
 8    1  0.1241100E-024  0.7978224E+02  0.7818608E-02  0.1329671E+00
          1   -1    0    0  501    0  0.00000000000E+00  0.00000000000E+00  0.16051897955E+03  0.16051897963E+03  0.50400000000E-02 0. -1.
         -2   -1    0    0    0  501 -0.00000000000E+00 -0.00000000000E+00 -0.99134777893E+01  0.99134781173E+01  0.25500000000E-02 0.  1.
        -24    2    1    2    0    0 -0.88817841970E-15 -0.35527136788E-14  0.15060550176E+03  0.17043245775E+03  0.79782237954E+02 0.  0.
         66    2    3    3    0    0 -0.63305519516E+01  0.25263192014E+02  0.10873167519E+02  0.28293648283E+02  0.20000006349E+01 0.  0.
         13    1    3    3    0    0  0.63305519516E+01 -0.25263192014E+02  0.13973233424E+03  0.14213880946E+03  0.10566000000E+00 0. -1.
         13    1    4    4    0    0 -0.30864529992E+01  0.85435217005E+01  0.35975692344E+01  0.97709581718E+01  0.10566000000E+00 0. -1.
        -13    1    4    4    0    0 -0.18974991336E+01  0.93374737849E+01  0.39685684065E+01  0.10322287483E+02  0.10566000000E+00 0.  1.
        -14    1    4    4    0    0 -0.13465998187E+01  0.73821965290E+01  0.33070298776E+01  0.82004026288E+01  0.00000000000E+00 0.  1.
<mgrwt>
<rscale>  0 0.79782238E+02</rscale>
<asrwt>0</asrwt>
<pdfrwt beam="1">  1        1 0.24695226E-01 0.79782238E+02</pdfrwt>
<pdfrwt beam="2">  1       -2 0.15251505E-02 0.79782238E+02</pdfrwt>
<totfact> 0.16105144E+05</totfact>
</mgrwt>
</event>
<event>
 8    1  0.1241100E-024  0.7911336E+02  0.7818608E-02  0.1331587E+00
          1   -1    0    0  501    0  0.00000000000E+00  0.00000000000E+00  0.14589287808E+02  0.14589288679E+02  0.50400000000E-02 0. -1.
         -2   -1    0    0    0  501 -0.00000000000E+00 -0.00000000000E+00 -0.10725204389E+03  0.10725204392E+03  0.25500000000E-02 0.  1.
        -24    2    1    2    0    0  0.00000000000E+00  0.00000000000E+00 -0.92662756078E+02  0.12184133260E+03  0.79113361480E+02 0.  0.
         66    2    3    3    0    0 -0.19767979434E+02  0.34067686089E+02 -0.51548455485E+02  0.64904726412E+02  0.20000003197E+01 0.  0.
         13    1    3    3    0    0  0.19767979434E+02 -0.34067686089E+02 -0.41114300593E+02  0.56936606184E+02  0.10566000000E+00 0. -1.
         13    1    4    4    0    0 -0.66605417061E+00  0.19832171882E+01 -0.26425816943E+01  0.33721181207E+01  0.10566000000E+00 0. -1.
        -13    1    4    4    0    0 -0.57518168249E+01  0.93311751839E+01 -0.14411441281E+02  0.18106767545E+02  0.10566000000E+00 0.  1.
        -14    1    4    4    0    0 -0.13350108439E+02  0.22753293717E+02 -0.34494432510E+02  0.43425840746E+02  0.00000000000E+00 0.  1.
<mgrwt>
<rscale>  0 0.79113361E+02</rscale>
<asrwt>0</asrwt>
<pdfrwt beam="1">  1        1 0.22445060E-02 0.79113361E+02</pdfrwt>
<pdfrwt beam="2">  1       -2 0.16500314E-01 0.79113361E+02</pdfrwt>
<totfact> 0.10727687E+05</totfact>
</mgrwt>
</event>
<event>
 8    1  0.1241100E-024  0.8033614E+02  0.7818608E-02  0.1328100E+00
         -2   -1    0    0    0  501 -0.00000000000E+00  0.00000000000E+00  0.48029711697E+03  0.48029711698E+03  0.25500000000E-02 0.  1.
          1   -1    0    0  501    0  0.00000000000E+00 -0.00000000000E+00 -0.33593229358E+01  0.33593267165E+01  0.50400000000E-02 0. -1.
        -24    2    1    2    0    0  0.00000000000E+00  0.00000000000E+00  0.47693779403E+03  0.48365644369E+03  0.80336144716E+02 0.  0.
         66    2    3    3    0    0 -0.14592039758E+01  0.11329128327E+02  0.47030354085E+03  0.47044648895E+03  0.20000017422E+01 0.  0.
         13    1    3    3    0    0  0.14592039758E+01 -0.11329128327E+02  0.66342531831E+01  0.13209954739E+02  0.10566000000E+00 0. -1.
         13    1    4    4    0    0 -0.14645569595E+00  0.22544644230E+01  0.10680045431E+03  0.10682439920E+03  0.10566000000E+00 0. -1.
        -13    1    4    4    0    0 -0.96170597530E+00  0.87725643808E+01  0.34916464568E+03  0.34927617114E+03  0.10566000000E+00 0.  1.
         14    1    4    4    0    0 -0.35104230454E+00  0.30209952285E+00  0.14338440860E+02  0.14345918622E+02  0.00000000000E+00 0. -1.
<mgrwt>
<rscale>  0 0.80336145E+02</rscale>
<asrwt>0</asrwt>
<pdfrwt beam="1">  1        1 0.51681904E-03 0.80336145E+02</pdfrwt>
<pdfrwt beam="2">  1       -2 0.73891887E-01 0.80336145E+02</pdfrwt>
<totfact> 0.51385921E+04</totfact>
</mgrwt>
</event>
<event>
 8    1  0.1241100E-024  0.7896378E+02  0.7818608E-02  0.1332018E+00
         -2   -1    0    0    0  501 -0.00000000000E+00  0.00000000000E+00  0.40239358502E+01  0.40239366582E+01  0.25500000000E-02 0.  1.
          1   -1    0    0  501    0  0.00000000000E+00 -0.00000000000E+00 -0.38738673376E+03  0.38738673379E+03  0.50400000000E-02 0. -1.
        -24    2    1    2    0    0 -0.88817841970E-15  0.71054273576E-14 -0.38336279791E+03  0.39141067045E+03  0.78963777276E+02 0.  0.
         66    2    3    3    0    0 -0.78081560439E+01  0.36802573148E+02 -0.25075037403E+03  0.25356487682E+03  0.19999970496E+01 0.  0.
         13    1    3    3    0    0  0.78081560439E+01 -0.36802573148E+02 -0.13261242388E+03  0.13784579363E+03  0.10566000000E+00 0. -1.
         13    1    4    4    0    0 -0.11430531513E+01  0.34429957897E+01 -0.25005408043E+02  0.25267417477E+02  0.10566000000E+00 0. -1.
        -13    1    4    4    0    0 -0.26620440180E+01  0.11984165821E+02 -0.77782895228E+02  0.78745772349E+02  0.10566000000E+00 0.  1.
        -14    1    4    4    0    0 -0.40030588746E+01  0.21375411537E+02 -0.14796207076E+03  0.14955168699E+03  0.00000000000E+00 0.  1.
<mgrwt>
<rscale>  0 0.78963777E+02</rscale>
<asrwt>0</asrwt>
<pdfrwt beam="1">  1        1 0.59597930E-01 0.78963777E+02</pdfrwt>
<pdfrwt beam="2">  1       -2 0.61906743E-03 0.78963777E+02</pdfrwt>
<totfact> 0.19550729E+05</totfact>
</mgrwt>
</event>
<event>
 8    1  0.1241100E-024  0.7922530E+02  0.7818608E-02  0.1331264E+00
         -2   -1    0    0    0  501 -0.00000000000E+00  0.00000000000E+00  0.65131144750E+01  0.65131149742E+01  0.25500000000E-02 0.  1.
          1   -1    0    0  501    0  0.00000000000E+00 -0.00000000000E+00 -0.24092344095E+03  0.24092344100E+03  0.50400000000E-02 0. -1.
        -24    2    1    2    0    0  0.00000000000E+00  0.35527136788E-14 -0.23441032647E+03  0.24743655598E+03  0.79225299467E+02 0.  0.
         66    2    3    3    0    0 -0.11300286848E+02  0.31455020777E+02 -0.51023432021E+02  0.61028726108E+02  0.19999950630E+01 0.  0.
         13    1    3    3    0    0  0.11300286848E+02 -0.31455020777E+02 -0.18338689445E+03  0.18640782987E+03  0.10566000000E+00 0. -1.
         13    1    4    4    0    0 -0.82550749439E+00  0.18439771683E+01 -0.32511130951E+01  0.38291793916E+01  0.10566000000E+00 0. -1.
        -13    1    4    4    0    0 -0.10164521417E+02  0.27448240731E+02 -0.44645550701E+02  0.53385014530E+02  0.10566000000E+00 0.  1.
         14    1    4    4    0    0 -0.31025793650E+00  0.21628028773E+01 -0.31267682248E+01  0.38145321869E+01  0.00000000000E+00 0. -1.
<mgrwt>
<rscale>  0 0.79225299E+02</rscale>
<asrwt>0</asrwt>
<pdfrwt beam="1">  1        1 0.37065138E-01 0.79225299E+02</pdfrwt>
<pdfrwt beam="2">  1       -2 0.10020178E-02 0.79225299E+02</pdfrwt>
<totfact> 0.17740905E+05</totfact>
</mgrwt>
</event>
<event>
 8    1  0.1241100E-024  0.8449270E+02  0.7818608E-02  0.1316765E+00
          1   -1    0    0  501    0  0.00000000000E+00  0.00000000000E+00  0.38680409262E+03  0.38680409266E+03  0.50400000000E-02 0. -1.
         -2   -1    0    0    0  501 -0.00000000000E+00 -0.00000000000E+00 -0.46141031145E+01  0.46141038191E+01  0.25500000000E-02 0.  1.
        -24    2    1    2    0    0 -0.35527136788E-14  0.00000000000E+00  0.38218998951E+03  0.39141819647E+03  0.84492700579E+02 0.  0.
         66    2    3    3    0    0  0.21432663275E+02  0.36373299640E+02  0.18837203262E+03  0.19305542890E+03  0.19999935819E+01 0.  0.
         13    1    3    3    0    0 -0.21432663275E+02 -0.36373299640E+02  0.19381795689E+03  0.19836276757E+03  0.10566000000E+00 0. -1.
         13    1    4    4    0    0  0.31408731702E+01  0.57429675078E+01  0.27195349836E+02  0.27972217946E+02  0.10566000000E+00 0. -1.
        -13    1    4    4    0    0  0.14581476359E+02  0.24772078891E+02  0.12754307724E+03  0.13074220077E+03  0.10566000000E+00 0.  1.
         14    1    4    4    0    0  0.37103137462E+01  0.58582532411E+01  0.33633605538E+02  0.34341010186E+02  0.00000000000E+00 0. -1.
<mgrwt>
<rscale>  0 0.84492701E+02</rscale>
<asrwt>0</asrwt>
<pdfrwt beam="1">  1        1 0.59508329E-01 0.84492701E+02</pdfrwt>
<pdfrwt beam="2">  1       -2 0.70986199E-03 0.84492701E+02</pdfrwt>
<totfact> 0.16355583E+05</totfact>
</mgrwt>
</event>
<event>
 8    1  0.1241100E-024  0.8080362E+02  0.7818608E-02  0.1326786E+00
          1   -1    0    0  501    0  0.00000000000E+00  0.00000000000E+00  0.19920465036E+02  0.19920465673E+02  0.50400000000E-02 0. -1.
         -2   -1    0    0    0  501 -0.00000000000E+00 -0.00000000000E+00 -0.81941161435E+02  0.81941161475E+02  0.25500000000E-02 0.  1.
        -24    2    1    2    0    0  0.00000000000E+00  0.00000000000E+00 -0.62020696399E+02  0.10186162715E+03  0.80803615658E+02 0.  0.
         66    2    3    3    0    0  0.22482725864E+02  0.18991424497E+02 -0.65876681997E+02  0.72179528913E+02  0.19999991192E+01 0.  0.
         13    1    3    3    0    0 -0.22482725864E+02 -0.18991424497E+02  0.38559855974E+01  0.29682098235E+02  0.10566000000E+00 0. -1.
         13    1    4    4    0    0  0.51582388759E+01  0.39716581974E+01 -0.13685778226E+02  0.15155632182E+02  0.10566000000E+00 0. -1.
        -13    1    4    4    0    0  0.61588193595E+01  0.60705695002E+01 -0.20728062728E+02  0.22459889101E+02  0.10566000000E+00 0.  1.
        -14    1    4    4    0    0  0.11165667628E+02  0.89491967991E+01 -0.31462841043E+02  0.34564007630E+02  0.00000000000E+00 0.  1.
<mgrwt>
<rscale>  0 0.80803616E+02</rscale>
<asrwt>0</asrwt>
<pdfrwt beam="1">  1        1 0.30646870E-02 0.80803616E+02</pdfrwt>
<pdfrwt beam="2">  1       -2 0.12606332E-01 0.80803616E+02</pdfrwt>
<totfact> 0.10838086E+05</totfact>
</mgrwt>
</event>
<event>
 8    1  0.1241100E-024  0.7821700E+02  0.7818608E-02  0.1334189E+00
          1   -1    0    0  501    0  0.00000000000E+00  0.00000000000E+00  0.41779938501E+02  0.41779938805E+02  0.50400000000E-02 0. -1.
         -2   -1    0    0    0  501 -0.00000000000E+00 -0.00000000000E+00 -0.36607878884E+02  0.36607878973E+02  0.25500000000E-02 0.  1.
        -24    2    1    2    0    0  0.17763568394E-14  0.00000000000E+00  0.51720596170E+01  0.78387817779E+02  0.78217004388E+02 0.  0.
         66    2    3    3    0    0  0.13741851008E+02  0.17608620054E+01 -0.34037008837E+02  0.36802948929E+02  0.19999937988E+01 0.  0.
         13    1    3    3    0    0 -0.13741851008E+02 -0.17608620054E+01  0.39209068454E+02  0.41584868849E+02  0.10566000000E+00 0. -1.
         13    1    4    4    0    0  0.44507221713E+01  0.60942882045E+00 -0.13131706026E+02  0.13879236237E+02  0.10566000000E+00 0. -1.
        -13    1    4    4    0    0  0.60032737869E+01  0.35606916103E+00 -0.13832799537E+02  0.15083885059E+02  0.10566000000E+00 0.  1.
         14    1    4    4    0    0  0.32878550497E+01  0.79536402391E+00 -0.70725032747E+01  0.78398276339E+01  0.00000000000E+00 0. -1.
<mgrwt>
<rscale>  0 0.78217004E+02</rscale>
<asrwt>0</asrwt>
<pdfrwt beam="1">  1        1 0.64276829E-02 0.78217004E+02</pdfrwt>
<pdfrwt beam="2">  1       -2 0.56319814E-02 0.78217004E+02</pdfrwt>
<totfact> 0.13621398E+05</totfact>
</mgrwt>
</event>
<event>
 8    1  0.1241100E-024  0.7305589E+02  0.7818608E-02  0.1349999E+00
         -2   -1    0    0    0  501 -0.00000000000E+00  0.00000000000E+00  0.76482535813E+01  0.76482540064E+01  0.25500000000E-02 0.  1.
          1   -1    0    0  501    0  0.00000000000E+00 -0.00000000000E+00 -0.17445691136E+03  0.17445691143E+03  0.50400000000E-02 0. -1.
        -24    2    1    2    0    0  0.00000000000E+00  0.35527136788E-14 -0.16680865778E+03  0.18210516544E+03  0.73055889356E+02 0.  0.
         66    2    3    3    0    0  0.14381589736E+02  0.27129754159E+02 -0.34275965906E+02  0.46061866217E+02  0.19999991472E+01 0.  0.
         13    1    3    3    0    0 -0.14381589736E+02 -0.27129754159E+02 -0.13253269187E+03  0.13604329922E+03  0.10566000000E+00 0. -1.
         13    1    4    4    0    0  0.96338618057E+00  0.13806151155E+01 -0.23558184706E+01  0.28974567696E+01  0.10566000000E+00 0. -1.
        -13    1    4    4    0    0  0.96877596425E+01  0.18672045878E+02 -0.23836951570E+02  0.31791656269E+02  0.10566000000E+00 0.  1.
        -14    1    4    4    0    0  0.37304439124E+01  0.70770931657E+01 -0.80831958647E+01  0.11372753178E+02  0.00000000000E+00 0.  1.
<mgrwt>
<rscale>  0 0.73055889E+02</rscale>
<asrwt>0</asrwt>
<pdfrwt beam="1">  1        1 0.26839522E-01 0.73055889E+02</pdfrwt>
<pdfrwt beam="2">  1       -2 0.11766546E-02 0.73055889E+02</pdfrwt>
<totfact> 0.20654381E+05</totfact>
</mgrwt>
</event>
<event>
 8    1  0.1241100E-024  0.7974150E+02  0.7818608E-02  0.1329787E+00
         -2   -1    0    0    0  501 -0.00000000000E+00  0.00000000000E+00  0.44364254522E+02  0.44364254595E+02  0.25500000000E-02 0.  1.
          1   -1    0    0  501    0  0.00000000000E+00 -0.00000000000E+00 -0.35832375401E+02  0.35832375755E+02  0.50400000000E-02 0. -1.
        -24    2    1    2    0    0  0.00000000000E+00  0.00000000000E+00  0.85318791211E+01  0.80196630351E+02  0.79741498345E+02 0.  0.
         66    2    3    3    0    0 -0.20924803701E+02 -0.18265913324E+02  0.33000551221E+02  0.43180173499E+02  0.20000007548E+01 0.  0.
         13    1    3    3    0    0  0.20924803701E+02  0.18265913324E+02 -0.24468672100E+02  0.37016456852E+02  0.10566000000E+00 0. -1.
         13    1    4    4    0    0 -0.84841290063E+01 -0.82347492361E+01  0.14573004229E+02  0.18766330389E+02  0.10566000000E+00 0. -1.
        -13    1    4    4    0    0 -0.21815665664E+01 -0.17418848986E+01  0.26640877949E+01  0.38603009595E+01  0.10566000000E+00 0.  1.
         14    1    4    4    0    0 -0.10259108128E+02 -0.82892791897E+01  0.15763459197E+02  0.20553542150E+02  0.00000000000E+00 0. -1.
<mgrwt>
<rscale>  0 0.79741498E+02</rscale>
<asrwt>0</asrwt>
<pdfrwt beam="1">  1        1 0.55126732E-02 0.79741498E+02</pdfrwt>
<pdfrwt beam="2">  1       -2 0.68252699E-02 0.79741498E+02</pdfrwt>
<totfact> 0.12584549E+05</totfact>
</mgrwt>
</event>
<event>
 8    1  0.1241100E-024  0.7921269E+02  0.7818608E-02  0.1331301E+00
          1   -1    0    0  501    0  0.00000000000E+00  0.00000000000E+00  0.66324041377E+01  0.66324060526E+01  0.50400000000E-02 0. -1.
         -2   -1    0    0    0  501 -0.00000000000E+00 -0.00000000000E+00 -0.23651490884E+03  0.23651490886E+03  0.25500000000E-02 0.  1.
        -24    2    1    2    0    0  0.00000000000E+00  0.00000000000E+00 -0.22988250471E+03  0.24314731491E+03  0.79212693289E+02 0.  0.
         66    2    3    3    0    0  0.37875243585E+02  0.85026506411E+01 -0.13875696847E+03  0.14409831863E+03  0.19999975555E+01 0.  0.
         13    1    3    3    0    0 -0.37875243585E+02 -0.85026506411E+01 -0.91125536241E+02  0.99048996279E+02  0.10566000000E+00 0. -1.
         13    1    4    4    0    0  0.29461748644E+02  0.66684156864E+01 -0.11045741285E+03  0.11451337746E+03  0.10566000000E+00 0. -1.
        -13    1    4    4    0    0  0.51725229887E+01  0.89509138935E+00 -0.17006223751E+02  0.17798286237E+02  0.10566000000E+00 0.  1.
         14    1    4    4    0    0  0.32409719523E+01  0.93914356535E+00 -0.11293331866E+02  0.11786654931E+02  0.00000000000E+00 0. -1.
<mgrwt>
<rscale>  0 0.79212693E+02</rscale>
<asrwt>0</asrwt>
<pdfrwt beam="1">  1        1 0.10203702E-02 0.79212693E+02</pdfrwt>
<pdfrwt beam="2">  1       -2 0.36386903E-01 0.79212693E+02</pdfrwt>
<totfact> 0.81185839E+04</totfact>
</mgrwt>
</event>
<event>
 8    1  0.1241100E-024  0.7895946E+02  0.7818608E-02  0.1332031E+00
          1   -1    0    0  501    0  0.00000000000E+00  0.00000000000E+00  0.11274135879E+03  0.11274135890E+03  0.50400000000E-02 0. -1.
         -2   -1    0    0    0  501 -0.00000000000E+00 -0.00000000000E+00 -0.13824998454E+02  0.13824998689E+02  0.25500000000E-02 0.  1.
        -24    2    1    2    0    0  0.00000000000E+00  0.00000000000E+00  0.98916360334E+02  0.12656635759E+03  0.78959461318E+02 0.  0.
         66    2    3    3    0    0  0.33403875212E+02 -0.19269209313E+02  0.36124545465E+02  0.52878200567E+02  0.20000008580E+01 0.  0.
         13    1    3    3    0    0 -0.33403875212E+02  0.19269209313E+02  0.62791814869E+02  0.73688157022E+02  0.10566000000E+00 0. -1.
         13    1    4    4    0    0  0.67351894207E+01 -0.34880006358E+01  0.77895981338E+01  0.10872806817E+02  0.10566000000E+00 0. -1.
        -13    1    4    4    0    0  0.19394716998E+02 -0.10967208133E+02  0.19999774808E+02  0.29940555407E+02  0.10566000000E+00 0.  1.
         14    1    4    4    0    0  0.72739687936E+01 -0.48140005448E+01  0.83351725229E+01  0.12064838343E+02  0.00000000000E+00 0. -1.
<mgrwt>
<rscale>  0 0.78959461E+02</rscale>
<asrwt>0</asrwt>
<pdfrwt beam="1">  1        1 0.17344825E-01 0.78959461E+02</pdfrwt>
<pdfrwt beam="2">  1       -2 0.21269228E-02 0.78959461E+02</pdfrwt>
<totfact> 0.15540529E+05</totfact>
</mgrwt>
</event>
<event>
 8    1  0.1241100E-024  0.7787234E+02  0.7818608E-02  0.1335200E+00
         -2   -1    0    0    0  501 -0.00000000000E+00  0.00000000000E+00  0.46072827730E+03  0.46072827730E+03  0.25500000000E-02 0.  1.
          1   -1    0    0  501    0  0.00000000000E+00 -0.00000000000E+00 -0.32904953645E+01  0.32904992243E+01  0.50400000000E-02 0. -1.
        -24    2    1    2    0    0  0.00000000000E+00  0.00000000000E+00  0.45743778193E+03  0.46401877653E+03  0.77872335470E+02 0.  0.
         66    2    3    3    0    0  0.37764320030E+02 -0.62005762662E+01  0.27076260361E+03  0.27346110972E+03  0.20000006985E+01 0.  0.
         13    1    3    3    0    0 -0.37764320030E+02  0.62005762662E+01  0.18667517832E+03  0.19055766681E+03  0.10566000000E+00 0. -1.
         13    1    4    4    0    0  0.18060509860E+02 -0.25799716757E+01  0.12873704254E+03  0.13002336543E+03  0.10566000000E+00 0. -1.
        -13    1    4    4    0    0  0.18743174383E+01 -0.47116396850E-01  0.15059228881E+02  0.15175863215E+02  0.10566000000E+00 0.  1.
        -14    1    4    4    0    0  0.17829492731E+02 -0.35734881936E+01  0.12696633218E+03  0.12826188108E+03  0.00000000000E+00 0.  1.
<mgrwt>
<rscale>  0 0.77872335E+02</rscale>
<asrwt>0</asrwt>
<pdfrwt beam="1">  1        1 0.50623072E-03 0.77872335E+02</pdfrwt>
<pdfrwt beam="2">  1       -2 0.70881222E-01 0.77872335E+02</pdfrwt>
<totfact> 0.57423781E+04</totfact>
</mgrwt>
</event>
<event>
 8    1  0.1241100E-024  0.7996388E+02  0.7818608E-02  0.1329154E+00
         -2   -1    0    0    0  501 -0.00000000000E+00  0.00000000000E+00  0.11792974406E+03  0.11792974409E+03  0.25500000000E-02 0.  1.
          1   -1    0    0  501    0  0.00000000000E+00 -0.00000000000E+00 -0.13555149231E+02  0.13555150168E+02  0.50400000000E-02 0. -1.
        -24    2    1    2    0    0  0.00000000000E+00  0.00000000000E+00  0.10437459483E+03  0.13148489426E+03  0.79963875418E+02 0.  0.
         66    2    3    3    0    0  0.40455045469E+01  0.36371272159E+02  0.25843518350E+02  0.44845545906E+02  0.20000003508E+01 0.  0.
         13    1    3    3    0    0 -0.40455045469E+01 -0.36371272159E+02  0.78531076482E+02  0.86639348352E+02  0.10566000000E+00 0. -1.
         13    1    4    4    0    0  0.77150936570E+00  0.42399508184E+01  0.32769838568E+01  0.54149974033E+01  0.10566000000E+00 0. -1.
        -13    1    4    4    0    0  0.23873738886E+01  0.16258009427E+02  0.11169852536E+02  0.19869554457E+02  0.10566000000E+00 0.  1.
         14    1    4    4    0    0  0.88662129266E+00  0.15873311913E+02  0.11396681957E+02  0.19560994045E+02  0.00000000000E+00 0. -1.
<mgrwt>
<rscale>  0 0.79963875E+02</rscale>
<asrwt>0</asrwt>
<pdfrwt beam="1">  1        1 0.20854076E-02 0.79963875E+02</pdfrwt>
<pdfrwt beam="2">  1       -2 0.18143038E-01 0.79963875E+02</pdfrwt>
<totfact> 0.10175465E+05</totfact>
</mgrwt>
</event>
<event>
 8    1  0.1241100E-024  0.8109890E+02  0.7818608E-02  0.1325962E+00
          1   -1    0    0  501    0  0.00000000000E+00  0.00000000000E+00  0.95529059764E+02  0.95529059897E+02  0.50400000000E-02 0. -1.
         -2   -1    0    0    0  501 -0.00000000000E+00 -0.00000000000E+00 -0.17212122740E+02  0.17212122929E+02  0.25500000000E-02 0.  1.
        -24    2    1    2    0    0 -0.35527136788E-14 -0.44408920985E-15  0.78316937025E+02  0.11274118283E+03  0.81098900609E+02 0.  0.
         66    2    3    3    0    0  0.29738969812E+02  0.23858573638E+01  0.10562305893E+01  0.29920131373E+02  0.19999993761E+01 0.  0.
         13    1    3    3    0    0 -0.29738969812E+02 -0.23858573638E+01  0.77260706435E+02  0.82821051453E+02  0.10566000000E+00 0. -1.
         13    1    4    4    0    0  0.11112661720E+02  0.93718043486E+00 -0.38824829252E+00  0.11159366399E+02  0.10566000000E+00 0. -1.
        -13    1    4    4    0    0  0.99392579295E+01  0.47119842369E+00  0.43057297166E+00  0.99602928302E+01  0.10566000000E+00 0.  1.
        -14    1    4    4    0    0  0.86870501625E+01  0.97747850525E+00  0.10139059102E+01  0.88004721435E+01  0.00000000000E+00 0.  1.
<mgrwt>
<rscale>  0 0.81098901E+02</rscale>
<asrwt>0</asrwt>
<pdfrwt beam="1">  1        1 0.14696779E-01 0.81098901E+02</pdfrwt>
<pdfrwt beam="2">  1       -2 0.26480188E-02 0.81098901E+02</pdfrwt>
<totfact> 0.14057730E+05</totfact>
</mgrwt>
</event>
<event>
 8    1  0.1241100E-024  0.7884614E+02  0.7818608E-02  0.1332358E+00
          1   -1    0    0  501    0  0.00000000000E+00  0.00000000000E+00  0.25576327699E+02  0.25576328196E+02  0.50400000000E-02 0. -1.
         -2   -1    0    0    0  501 -0.00000000000E+00 -0.00000000000E+00 -0.60766290295E+02  0.60766290349E+02  0.25500000000E-02 0.  1.
        -24    2    1    2    0    0  0.00000000000E+00  0.00000000000E+00 -0.35189962596E+02  0.86342618544E+02  0.78846143276E+02 0.  0.
         66    2    3    3    0    0  0.13141999334E+02 -0.34163012369E+02 -0.33563995519E+02  0.49702770106E+02  0.20000000901E+01 0.  0.
         13    1    3    3    0    0 -0.13141999334E+02  0.34163012369E+02 -0.16259670776E+01  0.36639848439E+02  0.10566000000E+00 0. -1.
         13    1    4    4    0    0  0.17808373657E+01 -0.50059443612E+01 -0.41193808289E+01  0.67239365791E+01  0.10566000000E+00 0. -1.
        -13    1    4    4    0    0  0.76580827294E+00 -0.14356425247E+01 -0.14943938859E+01  0.22117660119E+01  0.10566000000E+00 0. -1.
        -14    1    4    4    0    0  0.10595353696E+02 -0.27721425483E+02 -0.27950220804E+02  0.40767067515E+02  0.00000000000E+00 0.  1.
<mgrwt>
<rscale>  0 0.78846143E+02</rscale>
<asrwt>0</asrwt>
<pdfrwt beam="1">  1        1 0.39348197E-02 0.78846143E+02</pdfrwt>
<pdfrwt beam="2">  1       -2 0.93486600E-02 0.78846143E+02</pdfrwt>
<totfact> 0.12253050E+05</totfact>
</mgrwt>
</event>
<event>
 8    1  0.1241100E-024  0.8111419E+02  0.7818608E-02  0.1325919E+00
         -2   -1    0    0    0  501 -0.00000000000E+00  0.00000000000E+00  0.30782790375E+03  0.30782790376E+03  0.25500000000E-02 0.  1.
          1   -1    0    0  501    0  0.00000000000E+00 -0.00000000000E+00 -0.53434973415E+01  0.53434997184E+01  0.50400000000E-02 0. -1.
        -24    2    1    2    0    0  0.00000000000E+00  0.00000000000E+00  0.30248440641E+03  0.31317140348E+03  0.81114190107E+02 0.  0.
         66    2    3    3    0    0 -0.15811780588E+02 -0.12760863624E+02  0.28674101798E+03  0.28746697800E+03  0.20000011167E+01 0.  0.
         13    1    3    3    0    0  0.15811780588E+02  0.12760863624E+02  0.15743388430E+02  0.25704425477E+02  0.10566000000E+00 0. -1.
         13    1    4    4    0    0 -0.17245314098E+01 -0.12987546743E+01  0.32966437314E+02  0.33037220306E+02  0.10566000000E+00 0.  1.
        -13    1    4    4    0    0 -0.48474055519E+01 -0.39019728825E+01  0.98981877970E+02  0.99177346523E+02  0.10566000000E+00 0. -1.
        -14    1    4    4    0    0 -0.92398436261E+01 -0.75601360677E+01  0.15479270269E+03  0.15525241117E+03  0.00000000000E+00 0.  1.
<mgrwt>
<rscale>  0 0.81114190E+02</rscale>
<asrwt>0</asrwt>
<pdfrwt beam="1">  1        1 0.82207648E-03 0.81114190E+02</pdfrwt>
<pdfrwt beam="2">  1       -2 0.47358152E-01 0.81114190E+02</pdfrwt>
<totfact> 0.66849822E+04</totfact>
</mgrwt>
</event>
<event>
 8    1  0.1254371E-024  0.8113656E+02  0.7818608E-02  0.1325857E+00
          1   -1    0    0  501    0  0.00000000000E+00  0.00000000000E+00  0.11505165471E+02  0.11505166575E+02  0.50400000000E-02 0. -1.
         -2   -1    0    0    0  501 -0.00000000000E+00 -0.00000000000E+00 -0.14304749968E+03  0.14304749970E+03  0.25500000000E-02 0.  1.
        -24    2    1    2    0    0  0.00000000000E+00  0.00000000000E+00 -0.13154233421E+03  0.15455266628E+03  0.81136557509E+02 0.  0.
         66    2    3    3    0    0  0.16916893485E+02  0.54336423580E+01 -0.13522886696E+03  0.13640583619E+03  0.19999832719E+01 0.  0.
         13    1    3    3    0    0 -0.16916893485E+02 -0.54336423580E+01  0.36865327514E+01  0.18146830087E+02  0.10566000000E+00 0. -1.
         13    1    4    4    0    0  0.38419788505E+00  0.15752471327E+00 -0.20131536339E+01  0.20582452816E+01  0.10566000000E+00 0. -1.
        -13    1    4    4    0    0  0.83439924271E+01  0.32583777663E+01 -0.66264345769E+02  0.66867136319E+02  0.10566000000E+00 0.  1.
         14    1    4    4    0    0  0.81887031728E+01  0.20177398784E+01 -0.66951367555E+02  0.67480454587E+02  0.00000000000E+00 0. -1.
<mgrwt>
<rscale>  0 0.81136558E+02</rscale>
<asrwt>0</asrwt>
<pdfrwt beam="1">  1        1 0.17700257E-02 0.81136558E+02</pdfrwt>
<pdfrwt beam="2">  1       -2 0.22007306E-01 0.81136558E+02</pdfrwt>
<totfact> 0.92549515E+04</totfact>
</mgrwt>
</event>
<event>
 8    1  0.1241100E-024  0.8568221E+02  0.7818608E-02  0.1313658E+00
          1   -1    0    0  501    0  0.00000000000E+00  0.00000000000E+00  0.23130233402E+03  0.23130233407E+03  0.50400000000E-02 0. -1.
         -2   -1    0    0    0  501 -0.00000000000E+00 -0.00000000000E+00 -0.79348966828E+01  0.79348970926E+01  0.25500000000E-02 0.  1.
        -24    2    1    2    0    0  0.00000000000E+00  0.35527136788E-14  0.22336743733E+03  0.23923723116E+03  0.85682207686E+02 0.  0.
         66    2    3    3    0    0 -0.31384955164E+02  0.24565162297E+02  0.68049988923E+02  0.78887664423E+02  0.19999990942E+01 0.  0.
         13    1    3    3    0    0  0.31384955164E+02 -0.24565162297E+02  0.15531744841E+03  0.16034956674E+03  0.10566000000E+00 0. -1.
         13    1    4    4    0    0 -0.71097514187E+01  0.60023780261E+01  0.15151856545E+02  0.17781086243E+02  0.10566000000E+00 0. -1.
        -13    1    4    4    0    0 -0.36355181563E+01  0.33919283466E+01  0.88706930617E+01  0.10169686800E+02  0.10566000000E+00 0.  1.
         14    1    4    4    0    0 -0.20639685589E+02  0.15170855924E+02  0.44027439317E+02  0.50936891380E+02  0.00000000000E+00 0. -1.
<mgrwt>
<rscale>  0 0.85682208E+02</rscale>
<asrwt>0</asrwt>
<pdfrwt beam="1">  1        1 0.35584975E-01 0.85682208E+02</pdfrwt>
<pdfrwt beam="2">  1       -2 0.12207534E-02 0.85682208E+02</pdfrwt>
<totfact> 0.14293722E+05</totfact>
</mgrwt>
</event>
<event>
 8    1  0.1241100E-024  0.7958384E+02  0.7818608E-02  0.1330237E+00
         -2   -1    0    0    0  501 -0.00000000000E+00  0.00000000000E+00  0.76832199018E+02  0.76832199061E+02  0.25500000000E-02 0.  1.
          1   -1    0    0  501    0  0.00000000000E+00 -0.00000000000E+00 -0.20608505552E+02  0.20608506168E+02  0.50400000000E-02 0. -1.
        -24    2    1    2    0    0  0.00000000000E+00  0.00000000000E+00  0.56223693467E+02  0.97440705228E+02  0.79583838362E+02 0.  0.
         66    2    3    3    0    0  0.37974541449E+02  0.99341699154E+01  0.35934742913E+02  0.53254664347E+02  0.19999990755E+01 0.  0.
         13    1    3    3    0    0 -0.37974541449E+02 -0.99341699154E+01  0.20288950554E+02  0.44186040882E+02  0.10566000000E+00 0. -1.
         13    1    4    4    0    0  0.20527381215E+01  0.72652895922E+00  0.25447105396E+01  0.33508646481E+01  0.10566000000E+00 0. -1.
        -13    1    4    4    0    0  0.18063309649E+02  0.45618364336E+01  0.17142736221E+02  0.25317544832E+02  0.10566000000E+00 0.  1.
         14    1    4    4    0    0  0.17858493678E+02  0.46458045225E+01  0.16247296152E+02  0.24586254867E+02  0.00000000000E+00 0. -1.
<mgrwt>
<rscale>  0 0.79583838E+02</rscale>
<asrwt>0</asrwt>
<pdfrwt beam="1">  1        1 0.31705393E-02 0.79583838E+02</pdfrwt>
<pdfrwt beam="2">  1       -2 0.11820338E-01 0.79583838E+02</pdfrwt>
<totfact> 0.11423545E+05</totfact>
</mgrwt>
</event>
<event>
 8    1  0.1241100E-024  0.8034399E+02  0.7818608E-02  0.1328078E+00
          1   -1    0    0  501    0  0.00000000000E+00  0.00000000000E+00  0.20710630241E+02  0.20710630854E+02  0.50400000000E-02 0. -1.
         -2   -1    0    0    0  501 -0.00000000000E+00 -0.00000000000E+00 -0.77920804539E+02  0.77920804581E+02  0.25500000000E-02 0.  1.
        -24    2    1    2    0    0  0.00000000000E+00  0.00000000000E+00 -0.57210174298E+02  0.98631435435E+02  0.80343985542E+02 0.  0.
         66    2    3    3    0    0  0.53704661449E+01 -0.33942280661E+02 -0.54104671117E+02  0.64126716380E+02  0.19999984725E+01 0.  0.
         13    1    3    3    0    0 -0.53704661449E+01  0.33942280661E+02 -0.31055031805E+01  0.34504719055E+02  0.10566000000E+00 0. -1.
         13    1    4    4    0    0  0.36164567557E+00 -0.15812455018E+01 -0.22159647713E+01  0.27482337664E+01  0.10566000000E+00 0. -1.
        -13    1    4    4    0    0  0.10204454499E+01 -0.11555308229E+02 -0.18412338835E+02  0.21762165393E+02  0.10566000000E+00 0.  1.
        -14    1    4    4    0    0  0.39883750194E+01 -0.20805726929E+02 -0.33476367511E+02  0.39616317220E+02  0.00000000000E+00 0.  1.
<mgrwt>
<rscale>  0 0.80343986E+02</rscale>
<asrwt>0</asrwt>
<pdfrwt beam="1">  1        1 0.31862509E-02 0.80343986E+02</pdfrwt>
<pdfrwt beam="2">  1       -2 0.11987816E-01 0.80343986E+02</pdfrwt>
<totfact> 0.11117141E+05</totfact>
</mgrwt>
</event>
<event>
 8    1  0.1241100E-024  0.7976353E+02  0.7818608E-02  0.1329724E+00
         -2   -1    0    0    0  501 -0.00000000000E+00  0.00000000000E+00  0.32546508494E+02  0.32546508594E+02  0.25500000000E-02 0.  1.
          1   -1    0    0  501    0  0.00000000000E+00 -0.00000000000E+00 -0.48870225021E+02  0.48870225281E+02  0.50400000000E-02 0. -1.
        -24    2    1    2    0    0  0.00000000000E+00  0.00000000000E+00 -0.16323716527E+02  0.81416733875E+02  0.79763530724E+02 0.  0.
         66    2    3    3    0    0 -0.23344733094E+02  0.18473498017E+01  0.24753006441E+02  0.34133569870E+02  0.19999999120E+01 0.  0.
         13    1    3    3    0    0  0.23344733094E+02 -0.18473498017E+01 -0.41076722968E+02  0.47283164005E+02  0.10566000000E+00 0. -1.
         13    1    4    4    0    0 -0.44383912122E+01  0.15041816655E+00  0.53429559468E+01  0.69484015761E+01  0.10566000000E+00 0. -1.
        -13    1    4    4    0    0 -0.74684432365E+01  0.10690487246E+01  0.69282459123E+01  0.10243645104E+02  0.10566000000E+00 0.  1.
        -14    1    4    4    0    0 -0.11437898646E+02  0.62788291049E+00  0.12481804582E+02  0.16941523190E+02  0.00000000000E+00 0.  1.
<mgrwt>
<rscale>  0 0.79763531E+02</rscale>
<asrwt>0</asrwt>
<pdfrwt beam="1">  1        1 0.75184963E-02 0.79763531E+02</pdfrwt>
<pdfrwt beam="2">  1       -2 0.50071551E-02 0.79763531E+02</pdfrwt>
<totfact> 0.13218369E+05</totfact>
</mgrwt>
</event>
<event>
 8    1  0.1241100E-024  0.7859178E+02  0.7818608E-02  0.1333096E+00
          1   -1    0    0  501    0  0.00000000000E+00  0.00000000000E+00  0.21548629985E+03  0.21548629991E+03  0.50400000000E-02 0. -1.
         -2   -1    0    0    0  501 -0.00000000000E+00 -0.00000000000E+00 -0.71659637128E+01  0.71659641665E+01  0.25500000000E-02 0.  1.
        -24    2    1    2    0    0 -0.17763568394E-14  0.00000000000E+00  0.20832033614E+03  0.22265226408E+03  0.78591782329E+02 0.  0.
         66    2    3    3    0    0 -0.15775195293E+02 -0.35489749552E+02  0.87761013803E+02  0.95991534268E+02  0.19999993668E+01 0.  0.
         13    1    3    3    0    0  0.15775195293E+02  0.35489749552E+02  0.12055932234E+03  0.12666072981E+03  0.10566000000E+00 0. -1.
         13    1    4    4    0    0 -0.58228081452E-01 -0.17427639660E+00  0.56759233474E+00  0.60587776484E+00  0.10566000000E+00 0.  1.
        -13    1    4    4    0    0 -0.35130053560E+01 -0.91935841834E+01  0.22286965354E+02  0.24363562660E+02  0.10566000000E+00 0.  1.
        -14    1    4    4    0    0 -0.12203961855E+02 -0.26121888972E+02  0.64906456115E+02  0.71022093843E+02  0.00000000000E+00 0.  1.
<mgrwt>
<rscale>  0 0.78591782E+02</rscale>
<asrwt>0</asrwt>
<pdfrwt beam="1">  1        1 0.33151737E-01 0.78591782E+02</pdfrwt>
<pdfrwt beam="2">  1       -2 0.11024560E-02 0.78591782E+02</pdfrwt>
<totfact> 0.17732474E+05</totfact>
</mgrwt>
</event>
<event>
 8    1  0.1241100E-024  0.7937747E+02  0.7818608E-02  0.1330827E+00
         -2   -1    0    0    0  501 -0.00000000000E+00  0.00000000000E+00  0.51632467317E+01  0.51632473614E+01  0.25500000000E-02 0.  1.
          1   -1    0    0  501    0  0.00000000000E+00 -0.00000000000E+00 -0.30507851008E+03  0.30507851012E+03  0.50400000000E-02 0. -1.
        -24    2    1    2    0    0 -0.35527136788E-14  0.00000000000E+00 -0.29991526335E+03  0.31024175748E+03  0.79377470966E+02 0.  0.
         66    2    3    3    0    0  0.23284620618E+02  0.31907611432E+02 -0.16410204658E+03  0.16880092095E+03  0.19999997633E+01 0.  0.
         13    1    3    3    0    0 -0.23284620618E+02 -0.31907611432E+02 -0.13581321677E+03  0.14144083653E+03  0.10566000000E+00 0. -1.
         13    1    4    4    0    0  0.40601690841E+01  0.45981870063E+01 -0.26718815475E+02  0.27414130684E+02  0.10566000000E+00 0. -1.
        -13    1    4    4    0    0  0.18025201424E+02  0.25786579981E+02 -0.13006901589E+03  0.13382008687E+03  0.10566000000E+00 0.  1.
        -14    1    4    4    0    0  0.11992501099E+01  0.15228444449E+01 -0.73142152165E+01  0.75667033947E+01  0.00000000000E+00 0.  1.
<mgrwt>
<rscale>  0 0.79377471E+02</rscale>
<asrwt>0</asrwt>
<pdfrwt beam="1">  1        1 0.46935141E-01 0.79377471E+02</pdfrwt>
<pdfrwt beam="2">  1       -2 0.79434594E-03 0.79377471E+02</pdfrwt>
<totfact> 0.18475583E+05</totfact>
</mgrwt>
</event>
<event>
 8    1  0.1241100E-024  0.8143844E+02  0.7818608E-02  0.1325018E+00
          1   -1    0    0  501    0  0.00000000000E+00  0.00000000000E+00  0.15218356802E+03  0.15218356811E+03  0.50400000000E-02 0. -1.
         -2   -1    0    0    0  501 -0.00000000000E+00 -0.00000000000E+00 -0.10895098871E+02  0.10895099169E+02  0.25500000000E-02 0.  1.
        -24    2    1    2    0    0  0.35527136788E-14  0.00000000000E+00  0.14128846915E+03  0.16307866728E+03  0.81438444270E+02 0.  0.
         66    2    3    3    0    0  0.19624617525E+02  0.33121294372E+02  0.44279491794E+02  0.58709617237E+02  0.20000021872E+01 0.  0.
         13    1    3    3    0    0 -0.19624617525E+02 -0.33121294372E+02  0.97008977357E+02  0.10436905004E+03  0.10566000000E+00 0. -1.
         13    1    4    4    0    0  0.92275230147E+00  0.16540870383E+01  0.23535471292E+01  0.30228833695E+01  0.10566000000E+00 0.  1.
        -13    1    4    4    0    0  0.28391225341E+01  0.61386128974E+01  0.77590214166E+01  0.10293530126E+02  0.10566000000E+00 0.  1.
         14    1    4    4    0    0  0.15862742689E+02  0.25328594436E+02  0.34166923249E+02  0.45393203742E+02  0.00000000000E+00 0. -1.
<mgrwt>
<rscale>  0 0.81438444E+02</rscale>
<asrwt>0</asrwt>
<pdfrwt beam="1">  1        1 0.23412854E-01 0.81438444E+02</pdfrwt>
<pdfrwt beam="2">  1       -2 0.16761693E-02 0.81438444E+02</pdfrwt>
<totfact> 0.15093993E+05</totfact>
</mgrwt>
</event>
<event>
 8    1  0.1241100E-024  0.8355444E+02  0.7818608E-02  0.1319257E+00
          1   -1    0    0  501    0  0.00000000000E+00  0.00000000000E+00  0.86880275278E+02  0.86880275424E+02  0.50400000000E-02 0. -1.
         -2   -1    0    0    0  501 -0.00000000000E+00 -0.00000000000E+00 -0.20088980258E+02  0.20088980420E+02  0.25500000000E-02 0.  1.
        -24    2    1    2    0    0 -0.71054273576E-14 -0.17763568394E-14  0.66791295020E+02  0.10696925584E+03  0.83554440967E+02 0.  0.
         66    2    3    3    0    0 -0.25483005941E+02  0.12021999135E+02 -0.60326745286E+01  0.28884342065E+02  0.19999998961E+01 0.  0.
         13    1    3    3    0    0  0.25483005941E+02 -0.12021999135E+02  0.72823969549E+02  0.78084913779E+02  0.10566000000E+00 0. -1.
         13    1    4    4    0    0 -0.73414267302E+01  0.31907065822E+01 -0.11681684460E+01  0.80902989118E+01  0.10566000000E+00 0.  1.
        -13    1    4    4    0    0 -0.17149509189E+01  0.53511698541E+00 -0.66245174529E+00  0.19176582576E+01  0.10566000000E+00 0.  1.
         14    1    4    4    0    0 -0.16426628292E+02  0.82961755669E+01 -0.42020543373E+01  0.18876384896E+02  0.00000000000E+00 0. -1.
<mgrwt>
<rscale>  0 0.83554441E+02</rscale>
<asrwt>0</asrwt>
<pdfrwt beam="1">  1        1 0.13366196E-01 0.83554441E+02</pdfrwt>
<pdfrwt beam="2">  1       -2 0.30906123E-02 0.83554441E+02</pdfrwt>
<totfact> 0.12756784E+05</totfact>
</mgrwt>
</event>
<event>
 8    1  0.1241100E-024  0.8086998E+02  0.7818608E-02  0.1326601E+00
          1   -1    0    0  501    0  0.00000000000E+00  0.00000000000E+00  0.45159018949E+02  0.45159019231E+02  0.50400000000E-02 0. -1.
         -2   -1    0    0    0  501 -0.00000000000E+00 -0.00000000000E+00 -0.36205136531E+02  0.36205136621E+02  0.25500000000E-02 0.  1.
        -24    2    1    2    0    0 -0.35527136788E-14  0.35527136788E-14  0.89538824182E+01  0.81364155851E+02  0.80869981124E+02 0.  0.
         66    2    3    3    0    0 -0.27537159865E+02  0.23431472393E+02  0.22635842893E+02  0.42704923081E+02  0.19999999904E+01 0.  0.
         13    1    3    3    0    0  0.27537159865E+02 -0.23431472393E+02 -0.13681960475E+02  0.38659232770E+02  0.10566000000E+00 0. -1.
         13    1    4    4    0    0 -0.14358708962E+02  0.11987506617E+02  0.11316315320E+02  0.21861907382E+02  0.10566000000E+00 0. -1.
        -13    1    4    4    0    0 -0.10092423693E+02  0.81169277766E+01  0.80469434551E+01  0.15248147282E+02  0.10566000000E+00 0.  1.
         14    1    4    4    0    0 -0.30860272101E+01  0.33270379993E+01  0.32725841180E+01  0.55948684167E+01  0.00000000000E+00 0. -1.
<mgrwt>
<rscale>  0 0.80869981E+02</rscale>
<asrwt>0</asrwt>
<pdfrwt beam="1">  1        1 0.69475414E-02 0.80869981E+02</pdfrwt>
<pdfrwt beam="2">  1       -2 0.55700211E-02 0.80869981E+02</pdfrwt>
<totfact> 0.12560936E+05</totfact>
</mgrwt>
</event>
<event>
 8    1  0.1241100E-024  0.7898884E+02  0.7818608E-02  0.1331946E+00
         -2   -1    0    0    0  501 -0.00000000000E+00  0.00000000000E+00  0.22194932193E+02  0.22194932340E+02  0.25500000000E-02 0.  1.
          1   -1    0    0  501    0  0.00000000000E+00 -0.00000000000E+00 -0.70277722268E+02  0.70277722449E+02  0.50400000000E-02 0. -1.
        -24    2    1    2    0    0  0.35527136788E-14 -0.35527136788E-14 -0.48082790075E+02  0.92472654789E+02  0.78988842138E+02 0.  0.
         66    2    3    3    0    0 -0.19785166847E+02  0.13847825556E+02  0.12490794818E+02  0.27262337733E+02  0.20000009260E+01 0.  0.
         13    1    3    3    0    0  0.19785166847E+02 -0.13847825556E+02 -0.60573584892E+02  0.65210317056E+02  0.10566000000E+00 0. -1.
         13    1    4    4    0    0 -0.14335586113E+01  0.13522976291E+01  0.88035496966E+00  0.21610155201E+01  0.10566000000E+00 0. -1.
        -13    1    4    4    0    0 -0.66406776844E+01  0.54148283735E+01  0.45531622772E+01  0.97036805997E+01  0.10566000000E+00 0.  1.
         14    1    4    4    0    0 -0.11710930551E+02  0.70806995536E+01  0.70572775708E+01  0.15397641613E+02  0.00000000000E+00 0. -1.
<mgrwt>
<rscale>  0 0.78988842E+02</rscale>
<asrwt>0</asrwt>
<pdfrwt beam="1">  1        1 0.10811957E-01 0.78988842E+02</pdfrwt>
<pdfrwt beam="2">  1       -2 0.34146050E-02 0.78988842E+02</pdfrwt>
<totfact> 0.14370686E+05</totfact>
</mgrwt>
</event>
<event>
 8    1  0.1241100E-024  0.7780311E+02  0.7818608E-02  0.1335404E+00
         -2   -1    0    0    0  501 -0.00000000000E+00  0.00000000000E+00  0.10505568043E+02  0.10505568353E+02  0.25500000000E-02 0.  1.
          1   -1    0    0  501    0  0.00000000000E+00 -0.00000000000E+00 -0.14405035301E+03  0.14405035310E+03  0.50400000000E-02 0. -1.
        -24    2    1    2    0    0  0.00000000000E+00  0.00000000000E+00 -0.13354478497E+03  0.15455592145E+03  0.77803105747E+02 0.  0.
         66    2    3    3    0    0 -0.13187901409E+02 -0.33235454213E+02 -0.97126625865E+02  0.10351858574E+03  0.19999952337E+01 0.  0.
         13    1    3    3    0    0  0.13187901409E+02  0.33235454213E+02 -0.36418159103E+02  0.51037335714E+02  0.10566000000E+00 0. -1.
         13    1    4    4    0    0 -0.28770916780E+01 -0.65231189701E+01 -0.21036512459E+02  0.22212040836E+02  0.10566000000E+00 0. -1.
        -13    1    4    4    0    0 -0.36297870981E+01 -0.83604024885E+01 -0.23284588664E+02  0.25005097829E+02  0.10566000000E+00 0.  1.
         14    1    4    4    0    0 -0.66810226328E+01 -0.18351932755E+02 -0.52805524742E+02  0.56301447073E+02  0.00000000000E+00 0. -1.
<mgrwt>
<rscale>  0 0.77803106E+02</rscale>
<asrwt>0</asrwt>
<pdfrwt beam="1">  1        1 0.22161591E-01 0.77803106E+02</pdfrwt>
<pdfrwt beam="2">  1       -2 0.16162414E-02 0.77803106E+02</pdfrwt>
<totfact> 0.16881122E+05</totfact>
</mgrwt>
</event>
<event>
 8    1  0.1241100E-024  0.8516623E+02  0.7818608E-02  0.1314998E+00
          1   -1    0    0  501    0  0.00000000000E+00  0.00000000000E+00  0.16548091198E+03  0.16548091206E+03  0.50400000000E-02 0. -1.
         -2   -1    0    0    0  501 -0.00000000000E+00 -0.00000000000E+00 -0.10957891337E+02  0.10957891634E+02  0.25500000000E-02 0.  1.
        -24    2    1    2    0    0  0.00000000000E+00  0.00000000000E+00  0.15452302065E+03  0.17643880369E+03  0.85166234738E+02 0.  0.
         66    2    3    3    0    0 -0.37553104547E+02  0.58593077207E+01  0.37629492445E+02  0.53521452407E+02  0.20000045089E+01 0.  0.
         13    1    3    3    0    0  0.37553104547E+02 -0.58593077207E+01  0.11689352820E+03  0.12291735129E+03  0.10566000000E+00 0. -1.
         13    1    4    4    0    0 -0.52500432470E+01  0.34984080423E+00  0.53613761877E+01  0.75127133145E+01  0.10566000000E+00 0. -1.
        -13    1    4    4    0    0 -0.23990522546E+02  0.42736566901E+01  0.24744313401E+02  0.34728972389E+02  0.10566000000E+00 0.  1.
        -14    1    4    4    0    0 -0.83125387543E+01  0.12358102264E+01  0.75238028563E+01  0.11279766703E+02  0.00000000000E+00 0.  1.
<mgrwt>
<rscale>  0 0.85166235E+02</rscale>
<asrwt>0</asrwt>
<pdfrwt beam="1">  1        1 0.25458601E-01 0.85166235E+02</pdfrwt>
<pdfrwt beam="2">  1       -2 0.16858295E-02 0.85166235E+02</pdfrwt>
<totfact> 0.13600907E+05</totfact>
</mgrwt>
</event>
<event>
 8    1  0.1241100E-024  0.7823604E+02  0.7818608E-02  0.1334133E+00
         -2   -1    0    0    0  501 -0.00000000000E+00  0.00000000000E+00  0.22556863622E+02  0.22556863766E+02  0.25500000000E-02 0.  1.
          1   -1    0    0  501    0  0.00000000000E+00 -0.00000000000E+00 -0.67838316436E+02  0.67838316624E+02  0.50400000000E-02 0. -1.
        -24    2    1    2    0    0  0.00000000000E+00  0.00000000000E+00 -0.45281452815E+02  0.90395180389E+02  0.78236044561E+02 0.  0.
         66    2    3    3    0    0  0.21713684060E+02  0.86703179143E+01  0.13543470163E+02  0.27093985965E+02  0.20000007984E+01 0.  0.
         13    1    3    3    0    0 -0.21713684060E+02 -0.86703179143E+01 -0.58824922978E+02  0.63301194425E+02  0.10566000000E+00 0. -1.
         13    1    4    4    0    0  0.13997954751E+02  0.62869923518E+01  0.81564034528E+01  0.17378351227E+02  0.10566000000E+00 0. -1.
        -13    1    4    4    0    0  0.53475703066E+01  0.15885844874E+01  0.39171543008E+01  0.68172847021E+01  0.10566000000E+00 0.  1.
         14    1    4    4    0    0  0.23681590025E+01  0.79474107510E+00  0.14699124098E+01  0.28983500358E+01  0.00000000000E+00 0. -1.
<mgrwt>
<rscale>  0 0.78236045E+02</rscale>
<asrwt>0</asrwt>
<pdfrwt beam="1">  1        1 0.10436664E-01 0.78236045E+02</pdfrwt>
<pdfrwt beam="2">  1       -2 0.34702868E-02 0.78236045E+02</pdfrwt>
<totfact> 0.14670561E+05</totfact>
</mgrwt>
</event>
<event>
 8    1  0.1241100E-024  0.7973220E+02  0.7818608E-02  0.1329813E+00
          1   -1    0    0  501    0  0.00000000000E+00  0.00000000000E+00  0.73458535368E+02  0.73458535541E+02  0.50400000000E-02 0. -1.
         -2   -1    0    0    0  501 -0.00000000000E+00 -0.00000000000E+00 -0.21635413712E+02  0.21635413862E+02  0.25500000000E-02 0.  1.
        -24    2    1    2    0    0  0.35527136788E-14  0.00000000000E+00  0.51823121656E+02  0.95093949403E+02  0.79732197229E+02 0.  0.
         66    2    3    3    0    0  0.26132563971E+02 -0.13544297383E+02 -0.60957186351E+01  0.30125017474E+02  0.20000002060E+01 0.  0.
         13    1    3    3    0    0 -0.26132563971E+02  0.13544297383E+02  0.57918840291E+02  0.64968931929E+02  0.10566000000E+00 0. -1.
         13    1    4    4    0    0  0.28481578303E+01 -0.10364325919E+01 -0.62178311102E+00  0.30957993825E+01  0.10566000000E+00 0. -1.
        -13    1    4    4    0    0  0.18253834770E+02 -0.92764566550E+01 -0.38659490627E+01  0.20837750792E+02  0.10566000000E+00 0.  1.
        -14    1    4    4    0    0  0.50305713709E+01 -0.32314081364E+01 -0.16079864613E+01  0.61914672995E+01  0.00000000000E+00 0.  1.
<mgrwt>
<rscale>  0 0.79732197E+02</rscale>
<asrwt>0</asrwt>
<pdfrwt beam="1">  1        1 0.11301313E-01 0.79732197E+02</pdfrwt>
<pdfrwt beam="2">  1       -2 0.33285252E-02 0.79732197E+02</pdfrwt>
<totfact> 0.14105829E+05</totfact>
</mgrwt>
</event>
<event>
 8    1  0.1241100E-024  0.8035307E+02  0.7818608E-02  0.1328052E+00
          1   -1    0    0  501    0  0.00000000000E+00  0.00000000000E+00  0.91428794286E+01  0.91428808177E+01  0.50400000000E-02 0. -1.
         -2   -1    0    0    0  501 -0.00000000000E+00 -0.00000000000E+00 -0.17654766640E+03  0.17654766642E+03  0.25500000000E-02 0.  1.
        -24    2    1    2    0    0  0.17763568394E-14  0.71054273576E-14 -0.16740478697E+03  0.18569054723E+03  0.80353074813E+02 0.  0.
         66    2    3    3    0    0 -0.76687870883E+01 -0.39293148989E+02 -0.90834518189E+02  0.99285807329E+02  0.19999973708E+01 0.  0.
         13    1    3    3    0    0  0.76687870883E+01  0.39293148989E+02 -0.76570268780E+02  0.86404739905E+02  0.10566000000E+00 0. -1.
         13    1    4    4    0    0 -0.65678573625E+01 -0.33546212937E+02 -0.77007162500E+02  0.84253186249E+02  0.10566000000E+00 0. -1.
        -13    1    4    4    0    0 -0.64718649737E+00 -0.36390117977E+01 -0.78229776582E+01  0.86528261686E+01  0.10566000000E+00 0.  1.
         14    1    4    4    0    0 -0.45374322842E+00 -0.21079242548E+01 -0.60043780306E+01  0.63797949117E+01  0.00000000000E+00 0. -1.
<mgrwt>
<rscale>  0 0.80353075E+02</rscale>
<asrwt>0</asrwt>
<pdfrwt beam="1">  1        1 0.14065971E-02 0.80353075E+02</pdfrwt>
<pdfrwt beam="2">  1       -2 0.27161177E-01 0.80353075E+02</pdfrwt>
<totfact> 0.88284366E+04</totfact>
</mgrwt>
</event>
<event>
 8    1  0.1241100E-024  0.7993120E+02  0.7818608E-02  0.1329247E+00
          1   -1    0    0  501    0  0.00000000000E+00  0.00000000000E+00  0.86735703493E+01  0.86735718136E+01  0.50400000000E-02 0. -1.
         -2   -1    0    0    0  501 -0.00000000000E+00 -0.00000000000E+00 -0.18415128911E+03  0.18415128913E+03  0.25500000000E-02 0.  1.
        -24    2    1    2    0    0  0.00000000000E+00  0.00000000000E+00 -0.17547771876E+03  0.19282486095E+03  0.79931203017E+02 0.  0.
         66    2    3    3    0    0 -0.11123121403E+02 -0.73462404449E+01 -0.17862093016E+03  0.17912880238E+03  0.20000177084E+01 0.  0.
         13    1    3    3    0    0  0.11123121403E+02  0.73462404449E+01  0.31432113960E+01  0.13696058569E+02  0.10566000000E+00 0. -1.
         13    1    4    4    0    0 -0.41174453133E+01 -0.24372569599E+01 -0.71701696436E+02  0.71861241384E+02  0.10566000000E+00 0. -1.
        -13    1    4    4    0    0 -0.40056491703E+01 -0.21574246565E+01 -0.53184022347E+02  0.53378376741E+02  0.10566000000E+00 0.  1.
        -14    1    4    4    0    0 -0.30000269190E+01 -0.27515588285E+01 -0.53735211378E+02  0.53889184252E+02  0.00000000000E+00 0.  1.
<mgrwt>
<rscale>  0 0.79931203E+02</rscale>
<asrwt>0</asrwt>
<pdfrwt beam="1">  1        1 0.13343957E-02 0.79931203E+02</pdfrwt>
<pdfrwt beam="2">  1       -2 0.28330965E-01 0.79931203E+02</pdfrwt>
<totfact> 0.88082179E+04</totfact>
</mgrwt>
</event>
<event>
 8    1  0.1241100E-024  0.7955776E+02  0.7818608E-02  0.1330311E+00
         -2   -1    0    0    0  501 -0.00000000000E+00  0.00000000000E+00  0.92747947241E+01  0.92747950746E+01  0.25500000000E-02 0.  1.
          1   -1    0    0  501    0  0.00000000000E+00 -0.00000000000E+00 -0.17060856521E+03  0.17060856528E+03  0.50400000000E-02 0. -1.
        -24    2    1    2    0    0 -0.35527136788E-14  0.00000000000E+00 -0.16133377048E+03  0.17988336036E+03  0.79557764139E+02 0.  0.
         66    2    3    3    0    0  0.22671317003E+02 -0.29550072156E+02 -0.11214205250E+03  0.11818221238E+03  0.20000014947E+01 0.  0.
         13    1    3    3    0    0 -0.22671317003E+02  0.29550072156E+02 -0.49191717988E+02  0.61701147977E+02  0.10566000000E+00 0. -1.
         13    1    4    4    0    0  0.24837235763E+01 -0.24985666134E+01 -0.10584678837E+02  0.11156088385E+02  0.10566000000E+00 0.  1.
        -13    1    4    4    0    0  0.12220037519E+02 -0.16456833141E+02 -0.59868761256E+02  0.63280616402E+02  0.10566000000E+00 0.  1.
        -14    1    4    4    0    0  0.79675559080E+01 -0.10594672402E+02 -0.41688612404E+02  0.43745507594E+02  0.00000000000E+00 0.  1.
<mgrwt>
<rscale>  0 0.79557764E+02</rscale>
<asrwt>0</asrwt>
<pdfrwt beam="1">  1        1 0.26247469E-01 0.79557764E+02</pdfrwt>
<pdfrwt beam="2">  1       -2 0.14268917E-02 0.79557764E+02</pdfrwt>
<totfact> 0.16413287E+05</totfact>
</mgrwt>
</event>
<event>
 8    1  0.1241100E-024  0.8013683E+02  0.7818608E-02  0.1328664E+00
         -2   -1    0    0    0  501 -0.00000000000E+00  0.00000000000E+00  0.69416514403E+02  0.69416514450E+02  0.25500000000E-02 0.  1.
          1   -1    0    0  501    0  0.00000000000E+00 -0.00000000000E+00 -0.23128181135E+02  0.23128181684E+02  0.50400000000E-02 0. -1.
        -24    2    1    2    0    0  0.00000000000E+00  0.00000000000E+00  0.46288333269E+02  0.92544696134E+02  0.80136826651E+02 0.  0.
         66    2    3    3    0    0  0.39286604018E+02  0.45013478062E+01  0.30441632713E+02  0.49943892504E+02  0.20000022366E+01 0.  0.
         13    1    3    3    0    0 -0.39286604018E+02 -0.45013478062E+01  0.15846700556E+02  0.42600803630E+02  0.10566000000E+00 0. -1.
         13    1    4    4    0    0  0.89122481845E+01  0.52902355652E+00  0.74587685940E+01  0.11634106180E+02  0.10566000000E+00 0. -1.
        -13    1    4    4    0    0  0.47871108481E+01  0.29014246629E+00  0.37649431752E+01  0.60980795396E+01  0.10566000000E+00 0.  1.
        -14    1    4    4    0    0  0.25587244985E+02  0.36821817834E+01  0.19217920943E+02  0.32211706785E+02  0.00000000000E+00 0.  1.
<mgrwt>
<rscale>  0 0.80136827E+02</rscale>
<asrwt>0</asrwt>
<pdfrwt beam="1">  1        1 0.35581818E-02 0.80136827E+02</pdfrwt>
<pdfrwt beam="2">  1       -2 0.10679464E-01 0.80136827E+02</pdfrwt>
<totfact> 0.11460578E+05</totfact>
</mgrwt>
</event>
<event>
 8    1  0.1241100E-024  0.7979286E+02  0.7818608E-02  0.1329640E+00
          1   -1    0    0  501    0  0.00000000000E+00  0.00000000000E+00  0.17082398218E+02  0.17082398961E+02  0.50400000000E-02 0. -1.
         -2   -1    0    0    0  501 -0.00000000000E+00 -0.00000000000E+00 -0.93179247292E+02  0.93179247326E+02  0.25500000000E-02 0.  1.
        -24    2    1    2    0    0  0.00000000000E+00  0.00000000000E+00 -0.76096849074E+02  0.11026164629E+03  0.79792858095E+02 0.  0.
         66    2    3    3    0    0  0.37582318373E+02 -0.99224428004E+01 -0.50341532914E+02  0.63632974851E+02  0.20000067184E+01 0.  0.
         13    1    3    3    0    0 -0.37582318373E+02  0.99224428004E+01 -0.25755316160E+02  0.46628671436E+02  0.10566000000E+00 0. -1.
         13    1    4    4    0    0  0.13834588408E+02 -0.39049877329E+01 -0.20075344502E+02  0.24691605588E+02  0.10566000000E+00 0. -1.
        -13    1    4    4    0    0  0.11675190622E+02 -0.30442408583E+01 -0.15237024933E+02  0.19435935052E+02  0.10566000000E+00 0.  1.
         14    1    4    4    0    0  0.12072539343E+02 -0.29732142092E+01 -0.15029163479E+02  0.19505434212E+02  0.00000000000E+00 0. -1.
<mgrwt>
<rscale>  0 0.79792858E+02</rscale>
<asrwt>0</asrwt>
<pdfrwt beam="1">  1        1 0.26280614E-02 0.79792858E+02</pdfrwt>
<pdfrwt beam="2">  1       -2 0.14335269E-01 0.79792858E+02</pdfrwt>
<totfact> 0.10868203E+05</totfact>
</mgrwt>
</event>
<event>
 8    1  0.1241100E-024  0.7890423E+02  0.7818608E-02  0.1332190E+00
          1   -1    0    0  501    0  0.00000000000E+00  0.00000000000E+00  0.32472709269E+01  0.32472748381E+01  0.50400000000E-02 0. -1.
         -2   -1    0    0    0  501 -0.00000000000E+00 -0.00000000000E+00 -0.47931583678E+03  0.47931583678E+03  0.25500000000E-02 0.  1.
        -24    2    1    2    0    0 -0.35527136788E-14  0.00000000000E+00 -0.47606856585E+03  0.48256311162E+03  0.78904228706E+02 0.  0.
         66    2    3    3    0    0 -0.18238929412E+02 -0.56909916605E+00 -0.45193248044E+03  0.45230515064E+03  0.19999991225E+01 0.  0.
         13    1    3    3    0    0  0.18238929412E+02  0.56909916605E+00 -0.24136085409E+02  0.30257960983E+02  0.10566000000E+00 0. -1.
         13    1    4    4    0    0 -0.28683980928E+01 -0.29243520287E+00 -0.66394882156E+02  0.66457541081E+02  0.10566000000E+00 0. -1.
        -13    1    4    4    0    0 -0.10020107673E+02  0.35032263139E+00 -0.23559094861E+03  0.23580422285E+03  0.10566000000E+00 0.  1.
         14    1    4    4    0    0 -0.53504236467E+01 -0.62698659456E+00 -0.14994664968E+03  0.15004338671E+03  0.00000000000E+00 0. -1.
<mgrwt>
<rscale>  0 0.78904229E+02</rscale>
<asrwt>0</asrwt>
<pdfrwt beam="1">  1        1 0.49958082E-03 0.78904229E+02</pdfrwt>
<pdfrwt beam="2">  1       -2 0.73740842E-01 0.78904229E+02</pdfrwt>
<totfact> 0.53911298E+04</totfact>
</mgrwt>
</event>
<event>
 8    1  0.1241100E-024  0.7972661E+02  0.7818608E-02  0.1329829E+00
          1   -1    0    0  501    0  0.00000000000E+00  0.00000000000E+00  0.43842566619E+03  0.43842566622E+03  0.50400000000E-02 0. -1.
         -2   -1    0    0    0  501 -0.00000000000E+00 -0.00000000000E+00 -0.36245209666E+01  0.36245218636E+01  0.25500000000E-02 0.  1.
        -24    2    1    2    0    0 -0.35527136788E-14  0.35527136788E-14  0.43480114522E+03  0.44205018808E+03  0.79726613475E+02 0.  0.
         66    2    3    3    0    0 -0.22743517004E+02  0.29127023243E+02  0.30004266417E+03  0.30231647552E+03  0.19999988957E+01 0.  0.
         13    1    3    3    0    0  0.22743517004E+02 -0.29127023243E+02  0.13475848105E+03  0.13973371257E+03  0.10566000000E+00 0. -1.
         13    1    4    4    0    0 -0.88722459615E+01  0.12086443728E+02  0.11583363108E+03  0.11680000053E+03  0.10566000000E+00 0. -1.
        -13    1    4    4    0    0 -0.13288455465E+02  0.16545617850E+02  0.17791150631E+03  0.17917269815E+03  0.10566000000E+00 0.  1.
        -14    1    4    4    0    0 -0.58281557691E+00  0.49496166439E+00  0.62975267798E+01  0.63437768394E+01  0.00000000000E+00 0.  1.
<mgrwt>
<rscale>  0 0.79726613E+02</rscale>
<asrwt>0</asrwt>
<pdfrwt beam="1">  1        1 0.67450113E-01 0.79726613E+02</pdfrwt>
<pdfrwt beam="2">  1       -2 0.55761859E-03 0.79726613E+02</pdfrwt>
<totfact> 0.19440947E+05</totfact>
</mgrwt>
</event>
<event>
 8    1  0.1241100E-024  0.8180453E+02  0.7818608E-02  0.1324007E+00
         -2   -1    0    0    0  501 -0.00000000000E+00  0.00000000000E+00  0.26738989406E+02  0.26738989528E+02  0.25500000000E-02 0.  1.
          1   -1    0    0  501    0  0.00000000000E+00 -0.00000000000E+00 -0.62567637499E+02  0.62567637702E+02  0.50400000000E-02 0. -1.
        -24    2    1    2    0    0  0.11102230246E-15  0.00000000000E+00 -0.35828648093E+02  0.89306627230E+02  0.81804533145E+02 0.  0.
         66    2    3    3    0    0 -0.68714232072E+00  0.16233019104E+02  0.23025053963E+02  0.28251304092E+02  0.19999997669E+01 0.  0.
         13    1    3    3    0    0  0.68714232072E+00 -0.16233019104E+02 -0.58853702056E+02  0.61055323138E+02  0.10566000000E+00 0. -1.
         13    1    4    4    0    0  0.34943557546E+00  0.92668604241E+01  0.12727281616E+02  0.15747751227E+02  0.10566000000E+00 0. -1.
        -13    1    4    4    0    0 -0.62209235360E+00  0.37770099501E+01  0.48788464286E+01  0.62021858702E+01  0.10566000000E+00 0.  1.
         14    1    4    4    0    0 -0.41448554258E+00  0.31891487302E+01  0.54189259185E+01  0.63013669944E+01  0.00000000000E+00 0. -1.
<mgrwt>
<rscale>  0 0.81804533E+02</rscale>
<asrwt>0</asrwt>
<pdfrwt beam="1">  1        1 0.96257904E-02 0.81804533E+02</pdfrwt>
<pdfrwt beam="2">  1       -2 0.41136907E-02 0.81804533E+02</pdfrwt>
<totfact> 0.12815097E+05</totfact>
</mgrwt>
</event>
<event>
 8    1  0.1241100E-024  0.7882052E+02  0.7818608E-02  0.1332432E+00
         -2   -1    0    0    0  501 -0.00000000000E+00  0.00000000000E+00  0.87435265290E+02  0.87435265327E+02  0.25500000000E-02 0.  1.
          1   -1    0    0  501    0  0.00000000000E+00 -0.00000000000E+00 -0.17763641082E+02  0.17763641797E+02  0.50400000000E-02 0. -1.
        -24    2    1    2    0    0  0.35527136788E-14  0.00000000000E+00  0.69671624208E+02  0.10519890712E+03  0.78820522964E+02 0.  0.
         66    2    3    3    0    0  0.31362777942E+02  0.20103574394E+02  0.51918202117E+02  0.63931817287E+02  0.20000016984E+01 0.  0.
         13    1    3    3    0    0 -0.31362777942E+02 -0.20103574394E+02  0.17753422090E+02  0.41267089837E+02  0.10566000000E+00 0. -1.
         13    1    4    4    0    0  0.23369771039E+02  0.13984233538E+02  0.37976788233E+02  0.46732778588E+02  0.10566000000E+00 0. -1.
        -13    1    4    4    0    0  0.19066275136E+01  0.15635022160E+01  0.35384662913E+01  0.43141251008E+01  0.10566000000E+00 0.  1.
         14    1    4    4    0    0  0.60863793899E+01  0.45558386401E+01  0.10402947593E+02  0.12884913598E+02  0.00000000000E+00 0. -1.
<mgrwt>
<rscale>  0 0.78820523E+02</rscale>
<asrwt>0</asrwt>
<pdfrwt beam="1">  1        1 0.27328679E-02 0.78820523E+02</pdfrwt>
<pdfrwt beam="2">  1       -2 0.13451580E-01 0.78820523E+02</pdfrwt>
<totfact> 0.11380982E+05</totfact>
</mgrwt>
</event>
<event>
 8    1  0.1241100E-024  0.7947736E+02  0.7818608E-02  0.1330541E+00
          1   -1    0    0  501    0  0.00000000000E+00  0.00000000000E+00  0.49648686283E+02  0.49648686538E+02  0.50400000000E-02 0. -1.
         -2   -1    0    0    0  501 -0.00000000000E+00 -0.00000000000E+00 -0.31806739969E+02  0.31806740071E+02  0.25500000000E-02 0.  1.
        -24    2    1    2    0    0  0.00000000000E+00  0.00000000000E+00  0.17841946314E+02  0.81455426609E+02  0.79477364550E+02 0.  0.
         66    2    3    3    0    0  0.31225291064E+02 -0.64454375422E+00 -0.16213963177E+02  0.35246657160E+02  0.20000000935E+01 0.  0.
         13    1    3    3    0    0 -0.31225291064E+02  0.64454375422E+00  0.34055909492E+02  0.46208769449E+02  0.10566000000E+00 0. -1.
         13    1    4    4    0    0  0.80615845506E+01 -0.19252173387E+00 -0.38440472321E+01  0.89338722424E+01  0.10566000000E+00 0. -1.
        -13    1    4    4    0    0  0.10819222542E+02 -0.10056559167E+01 -0.56938956372E+01  0.12267784307E+02  0.10566000000E+00 0.  1.
         14    1    4    4    0    0  0.12344483971E+02  0.55363389637E+00 -0.66760203082E+01  0.14045000611E+02  0.00000000000E+00 0. -1.
<mgrwt>
<rscale>  0 0.79477365E+02</rscale>
<asrwt>0</asrwt>
<pdfrwt beam="1">  1        1 0.76382595E-02 0.79477365E+02</pdfrwt>
<pdfrwt beam="2">  1       -2 0.48933446E-02 0.79477365E+02</pdfrwt>
<totfact> 0.13384290E+05</totfact>
</mgrwt>
</event>
<event>
 8    1  0.1241100E-024  0.7962571E+02  0.7818608E-02  0.1330117E+00
          1   -1    0    0  501    0  0.00000000000E+00  0.00000000000E+00  0.35928238007E+02  0.35928238361E+02  0.50400000000E-02 0. -1.
         -2   -1    0    0    0  501 -0.00000000000E+00 -0.00000000000E+00 -0.44117485902E+02  0.44117485976E+02  0.25500000000E-02 0.  1.
        -24    2    1    2    0    0  0.00000000000E+00 -0.35527136788E-14 -0.81892478950E+01  0.80045724337E+02  0.79625713206E+02 0.  0.
         66    2    3    3    0    0 -0.25799783934E+02  0.30037769657E+02 -0.80115986853E+01  0.40448512563E+02  0.19999995198E+01 0.  0.
         13    1    3    3    0    0  0.25799783934E+02 -0.30037769657E+02 -0.17764920966E+00  0.39597211774E+02  0.10566000000E+00 0. -1.
         13    1    4    4    0    0 -0.13997994216E+02  0.15190750647E+02 -0.36226030990E+01  0.20972295167E+02  0.10566000000E+00 0. -1.
        -13    1    4    4    0    0 -0.48792203277E+01  0.63777205477E+01 -0.16171287111E+01  0.81919704403E+01  0.10566000000E+00 0.  1.
         14    1    4    4    0    0 -0.69225693898E+01  0.84692984618E+01 -0.27718668752E+01  0.11284246956E+02  0.00000000000E+00 0. -1.
<mgrwt>
<rscale>  0 0.79625713E+02</rscale>
<asrwt>0</asrwt>
<pdfrwt beam="1">  1        1 0.55274213E-02 0.79625713E+02</pdfrwt>
<pdfrwt beam="2">  1       -2 0.67873055E-02 0.79625713E+02</pdfrwt>
<totfact> 0.12642117E+05</totfact>
</mgrwt>
</event>
<event>
 8    1  0.1241100E-024  0.8255132E+02  0.7818608E-02  0.1321963E+00
          1   -1    0    0  501    0  0.00000000000E+00  0.00000000000E+00  0.69906788383E+02  0.69906788565E+02  0.50400000000E-02 0. -1.
         -2   -1    0    0    0  501 -0.00000000000E+00 -0.00000000000E+00 -0.24370738763E+02  0.24370738897E+02  0.25500000000E-02 0.  1.
        -24    2    1    2    0    0  0.00000000000E+00  0.00000000000E+00  0.45536049620E+02  0.94277527462E+02  0.82551319610E+02 0.  0.
         66    2    3    3    0    0  0.33467444164E+02 -0.22662598213E+02  0.32199741257E+02  0.51715437976E+02  0.20000028550E+01 0.  0.
         13    1    3    3    0    0 -0.33467444164E+02  0.22662598213E+02  0.13336308363E+02  0.42562089486E+02  0.10566000000E+00 0. -1.
         13    1    4    4    0    0  0.20034844331E+01 -0.97148952452E+00  0.14490184305E+01  0.26586764033E+01  0.10566000000E+00 0. -1.
        -13    1    4    4    0    0  0.17566698539E+02 -0.12243159910E+02  0.17634314894E+02  0.27739215706E+02  0.10566000000E+00 0.  1.
         14    1    4    4    0    0  0.13897261191E+02 -0.94479487779E+01  0.13116407933E+02  0.21317545867E+02  0.00000000000E+00 0. -1.
<mgrwt>
<rscale>  0 0.82551320E+02</rscale>
<asrwt>0</asrwt>
<pdfrwt beam="1">  1        1 0.10754891E-01 0.82551320E+02</pdfrwt>
<pdfrwt beam="2">  1       -2 0.37493444E-02 0.82551320E+02</pdfrwt>
<totfact> 0.12722819E+05</totfact>
</mgrwt>
</event>
<event>
 8    1  0.1241100E-024  0.7738023E+02  0.7818608E-02  0.1336655E+00
         -2   -1    0    0    0  501 -0.00000000000E+00  0.00000000000E+00  0.69124925647E+02  0.69124925694E+02  0.25500000000E-02 0.  1.
          1   -1    0    0  501    0  0.00000000000E+00 -0.00000000000E+00 -0.21655357533E+02  0.21655358120E+02  0.50400000000E-02 0. -1.
        -24    2    1    2    0    0  0.00000000000E+00  0.17763568394E-14  0.47469568114E+02  0.90780283813E+02  0.77380230242E+02 0.  0.
         66    2    3    3    0    0  0.24713165735E+02  0.90671900236E+01  0.56973636863E+02  0.62792911975E+02  0.20000003550E+01 0.  0.
         13    1    3    3    0    0 -0.24713165735E+02 -0.90671900236E+01 -0.95040687491E+01  0.27987371838E+02  0.10566000000E+00 0. -1.
         13    1    4    4    0    0  0.95480382826E+01  0.34919887238E+01  0.20395446500E+02  0.22789129475E+02  0.10566000000E+00 0. -1.
        -13    1    4    4    0    0  0.29896878041E+00  0.19111765903E+00  0.60593753538E+00  0.71009339079E+00  0.10566000000E+00 0. -1.
        -14    1    4    4    0    0  0.14866158672E+02  0.53840836408E+01  0.35972252828E+02  0.39293689109E+02  0.00000000000E+00 0.  1.
<mgrwt>
<rscale>  0 0.77380230E+02</rscale>
<asrwt>0</asrwt>
<pdfrwt beam="1">  1        1 0.33315935E-02 0.77380230E+02</pdfrwt>
<pdfrwt beam="2">  1       -2 0.10634604E-01 0.77380230E+02</pdfrwt>
<totfact> 0.12536047E+05</totfact>
</mgrwt>
</event>
<event>
 8    1  0.1241100E-024  0.7631439E+02  0.7818608E-02  0.1339848E+00
          1   -1    0    0  501    0  0.00000000000E+00  0.00000000000E+00  0.17023145802E+02  0.17023146548E+02  0.50400000000E-02 0. -1.
         -2   -1    0    0    0  501 -0.00000000000E+00 -0.00000000000E+00 -0.85528935241E+02  0.85528935279E+02  0.25500000000E-02 0.  1.
        -24    2    1    2    0    0 -0.44408920985E-15 -0.35527136788E-14 -0.68505789438E+02  0.10255208183E+03  0.76314391176E+02 0.  0.
         66    2    3    3    0    0 -0.27253491028E+01 -0.29333654030E+02 -0.66808669559E+02  0.73043063436E+02  0.20000003572E+01 0.  0.
         13    1    3    3    0    0  0.27253491028E+01  0.29333654030E+02 -0.16971198791E+01  0.29509018391E+02  0.10566000000E+00 0. -1.
         13    1    4    4    0    0  0.13651547537E+00 -0.76354604732E+01 -0.17442802832E+02  0.19041571043E+02  0.10566000000E+00 0. -1.
        -13    1    4    4    0    0 -0.21197086103E+01 -0.16164701419E+02 -0.37192218014E+02  0.40608656484E+02  0.10566000000E+00 0.  1.
         14    1    4    4    0    0 -0.74215596789E+00 -0.55334921374E+01 -0.12173648713E+02  0.13392835909E+02  0.00000000000E+00 0. -1.
<mgrwt>
<rscale>  0 0.76314391E+02</rscale>
<asrwt>0</asrwt>
<pdfrwt beam="1">  1        1 0.26189456E-02 0.76314391E+02</pdfrwt>
<pdfrwt beam="2">  1       -2 0.13158298E-01 0.76314391E+02</pdfrwt>
<totfact> 0.12419826E+05</totfact>
</mgrwt>
</event>
<event>
 8    1  0.1241100E-024  0.7950249E+02  0.7818608E-02  0.1330469E+00
          1   -1    0    0  501    0  0.00000000000E+00  0.00000000000E+00  0.21353389947E+02  0.21353390542E+02  0.50400000000E-02 0. -1.
         -2   -1    0    0    0  501 -0.00000000000E+00 -0.00000000000E+00 -0.74000493513E+02  0.74000493557E+02  0.25500000000E-02 0.  1.
        -24    2    1    2    0    0  0.00000000000E+00  0.00000000000E+00 -0.52647103566E+02  0.95353884100E+02  0.79502488634E+02 0.  0.
         66    2    3    3    0    0 -0.13922330927E+02 -0.10228588306E+02 -0.69245563206E+02  0.71396101572E+02  0.19999947251E+01 0.  0.
         13    1    3    3    0    0  0.13922330927E+02  0.10228588306E+02  0.16598459640E+02  0.23957782527E+02  0.10566000000E+00 0. -1.
         13    1    4    4    0    0 -0.35432830936E+00 -0.12140644088E+00 -0.10019548980E+01  0.10748794016E+01  0.10566000000E+00 0. -1.
        -13    1    4    4    0    0 -0.33575932974E+01 -0.28612317335E+01 -0.19812723584E+02  0.20298159020E+02  0.10566000000E+00 0.  1.
        -14    1    4    4    0    0 -0.10210409321E+02 -0.72459501315E+01 -0.48430884724E+02  0.50023063150E+02  0.00000000000E+00 0.  1.
<mgrwt>
<rscale>  0 0.79502489E+02</rscale>
<asrwt>0</asrwt>
<pdfrwt beam="1">  1        1 0.32851370E-02 0.79502489E+02</pdfrwt>
<pdfrwt beam="2">  1       -2 0.11384691E-01 0.79502489E+02</pdfrwt>
<totfact> 0.11543399E+05</totfact>
</mgrwt>
</event>
<event>
 8    1  0.1241100E-024  0.8173596E+02  0.7818608E-02  0.1324196E+00
          1   -1    0    0  501    0  0.00000000000E+00  0.00000000000E+00  0.44918641285E+02  0.44918641568E+02  0.50400000000E-02 0. -1.
         -2   -1    0    0    0  501 -0.00000000000E+00 -0.00000000000E+00 -0.37182600441E+02  0.37182600528E+02  0.25500000000E-02 0.  1.
        -24    2    1    2    0    0  0.00000000000E+00  0.00000000000E+00  0.77360408448E+01  0.82101242096E+02  0.81735962867E+02 0.  0.
         66    2    3    3    0    0 -0.99846360629E+01  0.24326386729E+02 -0.27521872012E+02  0.38117180987E+02  0.19999996782E+01 0.  0.
         13    1    3    3    0    0  0.99846360629E+01 -0.24326386729E+02  0.35257912857E+02  0.43984061109E+02  0.10566000000E+00 0. -1.
         13    1    4    4    0    0 -0.27408433371E+01  0.71410313106E+01 -0.70389379104E+01  0.10395400970E+02  0.10566000000E+00 0. -1.
        -13    1    4    4    0    0 -0.43328918339E+01  0.91050697005E+01 -0.11451798847E+02  0.15258804238E+02  0.10566000000E+00 0.  1.
        -14    1    4    4    0    0 -0.29109008919E+01  0.80802857178E+01 -0.90311352548E+01  0.12462975779E+02  0.00000000000E+00 0.  1.
<mgrwt>
<rscale>  0 0.81735963E+02</rscale>
<asrwt>0</asrwt>
<pdfrwt beam="1">  1        1 0.69105602E-02 0.81735963E+02</pdfrwt>
<pdfrwt beam="2">  1       -2 0.57204001E-02 0.81735963E+02</pdfrwt>
<totfact> 0.12180614E+05</totfact>
</mgrwt>
</event>
<event>
 8    1  0.1615547E-024  0.6960217E+02  0.7818608E-02  0.1361451E+00
         -2   -1    0    0    0  501 -0.00000000000E+00  0.00000000000E+00  0.40051986269E+02  0.40051986351E+02  0.25500000000E-02 0.  1.
          1   -1    0    0  501    0  0.00000000000E+00 -0.00000000000E+00 -0.30238586988E+02  0.30238587408E+02  0.50400000000E-02 0. -1.
        -24    2    1    2    0    0 -0.35527136788E-14 -0.17763568394E-14  0.98133992817E+01  0.70290573758E+02  0.69602169175E+02 0.  0.
         66    2    3    3    0    0 -0.19790947432E+02 -0.73922788995E+01  0.32802435072E+02  0.39068236912E+02  0.20000002992E+01 0.  0.
         13    1    3    3    0    0  0.19790947432E+02  0.73922788995E+01 -0.22989035790E+02  0.31222336847E+02  0.10566000000E+00 0. -1.
         13    1    4    4    0    0 -0.82193580450E+01 -0.26518507302E+01  0.13040831910E+02  0.15641758850E+02  0.10566000000E+00 0. -1.
        -13    1    4    4    0    0 -0.97525938344E+01 -0.34288261704E+01  0.16250447504E+02  0.19260273714E+02  0.10566000000E+00 0.  1.
         14    1    4    4    0    0 -0.18189955521E+01 -0.13116019989E+01  0.35111556575E+01  0.41662043485E+01  0.00000000000E+00 0. -1.
<mgrwt>
<rscale>  0 0.69602169E+02</rscale>
<asrwt>0</asrwt>
<pdfrwt beam="1">  1        1 0.46520904E-02 0.69602169E+02</pdfrwt>
<pdfrwt beam="2">  1       -2 0.61618441E-02 0.69602169E+02</pdfrwt>
<totfact> 0.17954268E+05</totfact>
</mgrwt>
</event>
<event>
 8    1  0.1241100E-024  0.7837428E+02  0.7818608E-02  0.1333729E+00
          1   -1    0    0  501    0  0.00000000000E+00  0.00000000000E+00  0.75160177825E+02  0.75160177994E+02  0.50400000000E-02 0. -1.
         -2   -1    0    0    0  501 -0.00000000000E+00 -0.00000000000E+00 -0.20431458307E+02  0.20431458466E+02  0.25500000000E-02 0.  1.
        -24    2    1    2    0    0 -0.17763568394E-14 -0.35527136788E-14  0.54728719518E+02  0.95591636460E+02  0.78374282906E+02 0.  0.
         66    2    3    3    0    0  0.76187940608E+01 -0.31477202483E+02  0.52789610052E+00  0.32452102709E+02  0.19999992195E+01 0.  0.
         13    1    3    3    0    0 -0.76187940608E+01  0.31477202483E+02  0.54200823417E+02  0.63139533750E+02  0.10566000000E+00 0. -1.
         13    1    4    4    0    0  0.22765389208E+01 -0.90248359998E+01 -0.25391083491E+00  0.93116018508E+01  0.10566000000E+00 0.  1.
        -13    1    4    4    0    0  0.12885866523E+01 -0.41974144051E+01  0.65399045674E+00  0.44404516439E+01  0.10566000000E+00 0. -1.
        -14    1    4    4    0    0  0.40536684878E+01 -0.18254952078E+02  0.12781647869E+00  0.18700049215E+02  0.00000000000E+00 0.  1.
<mgrwt>
<rscale>  0 0.78374283E+02</rscale>
<asrwt>0</asrwt>
<pdfrwt beam="1">  1        1 0.11563105E-01 0.78374283E+02</pdfrwt>
<pdfrwt beam="2">  1       -2 0.31433012E-02 0.78374283E+02</pdfrwt>
<totfact> 0.14835895E+05</totfact>
</mgrwt>
</event>
<event>
 8    1  0.1241100E-024  0.8249976E+02  0.7818608E-02  0.1322103E+00
          1   -1    0    0  501    0  0.00000000000E+00  0.00000000000E+00  0.52733292609E+02  0.52733292850E+02  0.50400000000E-02 0. -1.
         -2   -1    0    0    0  501 -0.00000000000E+00 -0.00000000000E+00 -0.32267144569E+02  0.32267144669E+02  0.25500000000E-02 0.  1.
        -24    2    1    2    0    0  0.00000000000E+00  0.00000000000E+00  0.20466148040E+02  0.85000437519E+02  0.82499764623E+02 0.  0.
         66    2    3    3    0    0  0.12712955017E+02 -0.35972497035E+00 -0.30164361204E+02  0.32796910266E+02  0.20000022099E+01 0.  0.
         13    1    3    3    0    0 -0.12712955017E+02  0.35972497035E+00  0.50630509244E+02  0.52203527253E+02  0.10566000000E+00 0. -1.
         13    1    4    4    0    0  0.41089632800E+01 -0.22209051842E+00 -0.11199881163E+02  0.11932367977E+02  0.10566000000E+00 0. -1.
        -13    1    4    4    0    0  0.81167333575E+01 -0.34951404199E+00 -0.17212826524E+02  0.19034076848E+02  0.10566000000E+00 0.  1.
        -14    1    4    4    0    0  0.48725837922E+00  0.21187959006E+00 -0.17516535166E+01  0.18304654411E+01  0.00000000000E+00 0.  1.
<mgrwt>
<rscale>  0 0.82499765E+02</rscale>
<asrwt>0</asrwt>
<pdfrwt beam="1">  1        1 0.81128142E-02 0.82499765E+02</pdfrwt>
<pdfrwt beam="2">  1       -2 0.49641762E-02 0.82499765E+02</pdfrwt>
<totfact> 0.12179364E+05</totfact>
</mgrwt>
</event>
<event>
 8    1  0.1241100E-024  0.7581855E+02  0.7818608E-02  0.1341355E+00
         -2   -1    0    0    0  501 -0.00000000000E+00  0.00000000000E+00  0.36154693063E+01  0.36154702055E+01  0.25500000000E-02 0.  1.
          1   -1    0    0  501    0  0.00000000000E+00 -0.00000000000E+00 -0.39749005194E+03  0.39749005198E+03  0.50400000000E-02 0. -1.
        -24    2    1    2    0    0  0.88817841970E-15 -0.71054273576E-14 -0.39387458264E+03  0.40110552218E+03  0.75818553642E+02 0.  0.
         66    2    3    3    0    0  0.60561900026E+01 -0.36615346228E+02 -0.23727608993E+03  0.24016932333E+03  0.20000005029E+01 0.  0.
         13    1    3    3    0    0 -0.60561900026E+01  0.36615346228E+02 -0.15659849271E+03  0.16093619885E+03  0.10566000000E+00 0. -1.
         13    1    4    4    0    0  0.11773258588E+00 -0.78820696832E+00 -0.64434615568E+01  0.64934191345E+01  0.10566000000E+00 0. -1.
        -13    1    4    4    0    0  0.22108662675E+01 -0.10631350565E+02 -0.71829845831E+02  0.72646069822E+02  0.10566000000E+00 0.  1.
         14    1    4    4    0    0  0.37275911492E+01 -0.25195788695E+02 -0.15900278254E+03  0.16102983437E+03  0.00000000000E+00 0. -1.
<mgrwt>
<rscale>  0 0.75818554E+02</rscale>
<asrwt>0</asrwt>
<pdfrwt beam="1">  1        1 0.61152282E-01 0.75818554E+02</pdfrwt>
<pdfrwt beam="2">  1       -2 0.55622643E-03 0.75818554E+02</pdfrwt>
<totfact> 0.21838495E+05</totfact>
</mgrwt>
</event>
<event>
 8    1  0.1241100E-024  0.8019679E+02  0.7818608E-02  0.1328494E+00
         -2   -1    0    0    0  501 -0.00000000000E+00  0.00000000000E+00  0.44892399373E+02  0.44892399445E+02  0.25500000000E-02 0.  1.
          1   -1    0    0  501    0  0.00000000000E+00 -0.00000000000E+00 -0.35816332351E+02  0.35816332706E+02  0.50400000000E-02 0. -1.
        -24    2    1    2    0    0 -0.35527136788E-14  0.00000000000E+00  0.90760670213E+01  0.80708732151E+02  0.80196785801E+02 0.  0.
         66    2    3    3    0    0 -0.20797622895E+02 -0.21814865626E+02 -0.22036954239E+02  0.37390598115E+02  0.19999987256E+01 0.  0.
         13    1    3    3    0    0  0.20797622895E+02  0.21814865626E+02  0.31113021260E+02  0.43318134036E+02  0.10566000000E+00 0. -1.
         13    1    4    4    0    0 -0.18619559621E+01 -0.24474346848E+01 -0.16992138386E+01  0.35150118415E+01  0.10566000000E+00 0. -1.
        -13    1    4    4    0    0 -0.16756202457E+02 -0.16902900841E+02 -0.17830798949E+02  0.29739316280E+02  0.10566000000E+00 0.  1.
         14    1    4    4    0    0 -0.21794644766E+01 -0.24645300998E+01 -0.25069414516E+01  0.41362699936E+01  0.00000000000E+00 0. -1.
<mgrwt>
<rscale>  0 0.80196786E+02</rscale>
<asrwt>0</asrwt>
<pdfrwt beam="1">  1        1 0.55102050E-02 0.80196786E+02</pdfrwt>
<pdfrwt beam="2">  1       -2 0.69065230E-02 0.80196786E+02</pdfrwt>
<totfact> 0.12381944E+05</totfact>
</mgrwt>
</event>
<event>
 8    1  0.1241100E-024  0.7847916E+02  0.7818608E-02  0.1333424E+00
         -2   -1    0    0    0  501 -0.00000000000E+00  0.00000000000E+00  0.73805217134E+02  0.73805217179E+02  0.25500000000E-02 0.  1.
          1   -1    0    0  501    0  0.00000000000E+00 -0.00000000000E+00 -0.20862271708E+02  0.20862272317E+02  0.50400000000E-02 0. -1.
        -24    2    1    2    0    0  0.35527136788E-14 -0.17763568394E-14  0.52942945427E+02  0.94667489495E+02  0.78479157085E+02 0.  0.
         66    2    3    3    0    0  0.29025730832E+02 -0.10268752343E+02  0.55783963602E+02  0.63747869942E+02  0.20000004929E+01 0.  0.
         13    1    3    3    0    0 -0.29025730832E+02  0.10268752343E+02 -0.28410181749E+01  0.30919619553E+02  0.10566000000E+00 0. -1.
         13    1    4    4    0    0  0.47860255714E+01 -0.20673935531E+01  0.98646623326E+01  0.11158086030E+02  0.10566000000E+00 0. -1.
        -13    1    4    4    0    0  0.19898489080E+02 -0.67763300055E+01  0.36489236610E+02  0.42111091988E+02  0.10566000000E+00 0.  1.
        -14    1    4    4    0    0  0.43412161810E+01 -0.14250287845E+01  0.94300646589E+01  0.10478691924E+02  0.00000000000E+00 0.  1.
<mgrwt>
<rscale>  0 0.78479157E+02</rscale>
<asrwt>0</asrwt>
<pdfrwt beam="1">  1        1 0.32095803E-02 0.78479157E+02</pdfrwt>
<pdfrwt beam="2">  1       -2 0.11354649E-01 0.78479157E+02</pdfrwt>
<totfact> 0.11936491E+05</totfact>
</mgrwt>
</event>
<event>
 8    1  0.1241100E-024  0.7964565E+02  0.7818608E-02  0.1330060E+00
          1   -1    0    0  501    0  0.00000000000E+00  0.00000000000E+00  0.28876527057E+03  0.28876527062E+03  0.50400000000E-02 0. -1.
         -2   -1    0    0    0  501 -0.00000000000E+00 -0.00000000000E+00 -0.54918555251E+01  0.54918561172E+01  0.25500000000E-02 0.  1.
        -24    2    1    2    0    0  0.71054273576E-14  0.44408920985E-15  0.28327341505E+03  0.29425712673E+03  0.79645646214E+02 0.  0.
         66    2    3    3    0    0 -0.38858771037E+02 -0.27907060291E+01  0.11169719318E+03  0.11831337663E+03  0.19999995896E+01 0.  0.
         13    1    3    3    0    0  0.38858771037E+02  0.27907060291E+01  0.17157622187E+03  0.17594375010E+03  0.10566000000E+00 0. -1.
         13    1    4    4    0    0 -0.24458636122E+01 -0.51167925544E+00  0.62166745310E+01  0.67009156635E+01  0.10566000000E+00 0. -1.
        -13    1    4    4    0    0 -0.18967736009E+02 -0.12907142780E+01  0.55283632670E+02  0.58461373213E+02  0.10566000000E+00 0.  1.
         14    1    4    4    0    0 -0.17445171416E+02 -0.98831249564E+00  0.50196885979E+02  0.53151087753E+02  0.00000000000E+00 0. -1.
<mgrwt>
<rscale>  0 0.79645646E+02</rscale>
<asrwt>0</asrwt>
<pdfrwt beam="1">  1        1 0.44425431E-01 0.79645646E+02</pdfrwt>
<pdfrwt beam="2">  1       -2 0.84490081E-03 0.79645646E+02</pdfrwt>
<totfact> 0.18121231E+05</totfact>
</mgrwt>
</event>
<event>
 8    1  0.1241100E-024  0.8093579E+02  0.7818608E-02  0.1326417E+00
          1   -1    0    0  501    0  0.00000000000E+00  0.00000000000E+00  0.23495649793E+02  0.23495650334E+02  0.50400000000E-02 0. -1.
         -2   -1    0    0    0  501 -0.00000000000E+00 -0.00000000000E+00 -0.69700164095E+02  0.69700164141E+02  0.25500000000E-02 0.  1.
        -24    2    1    2    0    0  0.00000000000E+00  0.00000000000E+00 -0.46204514302E+02  0.93195814475E+02  0.80935793650E+02 0.  0.
         66    2    3    3    0    0  0.34634816025E+02 -0.53678662019E+01 -0.46353980438E+02  0.58147020305E+02  0.19999998017E+01 0.  0.
         13    1    3    3    0    0 -0.34634816025E+02  0.53678662019E+01  0.14946613660E+00  0.35048794170E+02  0.10566000000E+00 0. -1.
         13    1    4    4    0    0  0.11601465095E+02 -0.23636487996E+01 -0.15447477112E+02  0.19463209940E+02  0.10566000000E+00 0. -1.
        -13    1    4    4    0    0  0.12783599485E+02 -0.21669080666E+01 -0.17899770869E+02  0.22102689148E+02  0.10566000000E+00 0.  1.
         14    1    4    4    0    0  0.10249751445E+02 -0.83730933576E+00 -0.13006732457E+02  0.16581121217E+02  0.00000000000E+00 0. -1.
<mgrwt>
<rscale>  0 0.80935794E+02</rscale>
<asrwt>0</asrwt>
<pdfrwt beam="1">  1        1 0.36147154E-02 0.80935794E+02</pdfrwt>
<pdfrwt beam="2">  1       -2 0.10723102E-01 0.80935794E+02</pdfrwt>
<totfact> 0.11166247E+05</totfact>
</mgrwt>
</event>
<event>
 8    1  0.1241100E-024  0.8168522E+02  0.7818608E-02  0.1324336E+00
         -2   -1    0    0    0  501 -0.00000000000E+00  0.00000000000E+00  0.10150260773E+02  0.10150261093E+02  0.25500000000E-02 0.  1.
          1   -1    0    0  501    0  0.00000000000E+00 -0.00000000000E+00 -0.16434244621E+03  0.16434244629E+03  0.50400000000E-02 0. -1.
        -24    2    1    2    0    0  0.00000000000E+00  0.00000000000E+00 -0.15419218544E+03  0.17449270738E+03  0.81685218240E+02 0.  0.
         66    2    3    3    0    0 -0.10815387850E+02 -0.26326905119E+02 -0.14642239029E+02  0.32069825601E+02  0.20000007005E+01 0.  0.
         13    1    3    3    0    0  0.10815387850E+02  0.26326905119E+02 -0.13954994641E+03  0.14242288178E+03  0.10566000000E+00 0. -1.
         13    1    4    4    0    0 -0.95462756616E-01 -0.64767672558E+00 -0.10452594622E+00  0.67133299322E+00  0.10566000000E+00 0.  1.
        -13    1    4    4    0    0 -0.79996787183E+01 -0.19252608564E+02 -0.10695885814E+02  0.23432262662E+02  0.10566000000E+00 0.  1.
        -14    1    4    4    0    0 -0.27202463752E+01 -0.64266198301E+01 -0.38418272689E+01  0.79662299456E+01  0.00000000000E+00 0.  1.
<mgrwt>
<rscale>  0 0.81685218E+02</rscale>
<asrwt>0</asrwt>
<pdfrwt beam="1">  1        1 0.25283451E-01 0.81685218E+02</pdfrwt>
<pdfrwt beam="2">  1       -2 0.15615787E-02 0.81685218E+02</pdfrwt>
<totfact> 0.15189842E+05</totfact>
</mgrwt>
</event>
<event>
 8    1  0.1241100E-024  0.7898047E+02  0.7818608E-02  0.1331970E+00
         -2   -1    0    0    0  501 -0.00000000000E+00  0.00000000000E+00  0.80422342515E+01  0.80422346558E+01  0.25500000000E-02 0.  1.
          1   -1    0    0  501    0  0.00000000000E+00 -0.00000000000E+00 -0.19391109706E+03  0.19391109712E+03  0.50400000000E-02 0. -1.
        -24    2    1    2    0    0  0.00000000000E+00  0.00000000000E+00 -0.18586886281E+03  0.20195333178E+03  0.78980466293E+02 0.  0.
         66    2    3    3    0    0  0.24580848860E+02 -0.30463378644E+02 -0.80148124048E+02  0.89218592959E+02  0.19999930442E+01 0.  0.
         13    1    3    3    0    0 -0.24580848860E+02  0.30463378644E+02 -0.10572073876E+03  0.11273473882E+03  0.10566000000E+00 0. -1.
         13    1    4    4    0    0  0.40154226897E+01 -0.54392876660E+01 -0.14690341653E+02  0.16171789375E+02  0.10566000000E+00 0. -1.
        -13    1    4    4    0    0  0.13623217978E+02 -0.15517933707E+02 -0.41701380986E+02  0.46534016319E+02  0.10566000000E+00 0.  1.
        -14    1    4    4    0    0  0.69422081927E+01 -0.95061572711E+01 -0.23756401409E+02  0.26512787265E+02  0.00000000000E+00 0.  1.
<mgrwt>
<rscale>  0 0.78980466E+02</rscale>
<asrwt>0</asrwt>
<pdfrwt beam="1">  1        1 0.29832473E-01 0.78980466E+02</pdfrwt>
<pdfrwt beam="2">  1       -2 0.12372670E-02 0.78980466E+02</pdfrwt>
<totfact> 0.17148401E+05</totfact>
</mgrwt>
</event>
<event>
 8    1  0.1241100E-024  0.8125595E+02  0.7818608E-02  0.1325525E+00
         -2   -1    0    0    0  501 -0.00000000000E+00  0.00000000000E+00  0.18534624706E+03  0.18534624708E+03  0.25500000000E-02 0.  1.
          1   -1    0    0  501    0  0.00000000000E+00 -0.00000000000E+00 -0.89056678016E+01  0.89056692278E+01  0.50400000000E-02 0. -1.
        -24    2    1    2    0    0  0.00000000000E+00 -0.22204460493E-15  0.17644057926E+03  0.19425191631E+03  0.81255947348E+02 0.  0.
         66    2    3    3    0    0 -0.40067591531E+02  0.59321757172E+00  0.72622164867E+02  0.82968323045E+02  0.20000001833E+01 0.  0.
         13    1    3    3    0    0  0.40067591531E+02 -0.59321757172E+00  0.10381841440E+03  0.11128359326E+03  0.10566000000E+00 0. -1.
         13    1    4    4    0    0 -0.10838258457E+02  0.14308738810E+00  0.18343598627E+02  0.21306972920E+02  0.10566000000E+00 0. -1.
        -13    1    4    4    0    0 -0.26797439065E+02  0.68145102909E+00  0.49344422547E+02  0.56155590251E+02  0.10566000000E+00 0.  1.
         14    1    4    4    0    0 -0.24318940097E+01 -0.23132084547E+00  0.49341436928E+01  0.55057598739E+01  0.00000000000E+00 0. -1.
<mgrwt>
<rscale>  0 0.81255947E+02</rscale>
<asrwt>0</asrwt>
<pdfrwt beam="1">  1        1 0.13701030E-02 0.81255947E+02</pdfrwt>
<pdfrwt beam="2">  1       -2 0.28514805E-01 0.81255947E+02</pdfrwt>
<totfact> 0.84216934E+04</totfact>
</mgrwt>
</event>
<event>
 8    1  0.1241100E-024  0.8051445E+02  0.7818608E-02  0.1327598E+00
         -2   -1    0    0    0  501 -0.00000000000E+00  0.00000000000E+00  0.77608843475E+01  0.77608847664E+01  0.25500000000E-02 0.  1.
          1   -1    0    0  501    0  0.00000000000E+00 -0.00000000000E+00 -0.20882211308E+03  0.20882211314E+03  0.50400000000E-02 0. -1.
        -24    2    1    2    0    0 -0.35527136788E-14  0.00000000000E+00 -0.20106122873E+03  0.21658299790E+03  0.80514453876E+02 0.  0.
         66    2    3    3    0    0  0.27017868314E+02  0.19595336223E+02 -0.40160628745E+02  0.52257234102E+02  0.20000012010E+01 0.  0.
         13    1    3    3    0    0 -0.27017868314E+02 -0.19595336223E+02 -0.16090059998E+03  0.16432576380E+03  0.10566000000E+00 0. -1.
         13    1    4    4    0    0  0.13606918734E+02  0.90440978487E+01 -0.18824679342E+02  0.24926364751E+02  0.10566000000E+00 0. -1.
        -13    1    4    4    0    0  0.87523324517E+01  0.69079690524E+01 -0.13369024447E+02  0.17408771883E+02  0.10566000000E+00 0.  1.
        -14    1    4    4    0    0  0.46586171288E+01  0.36432693219E+01 -0.79669249555E+01  0.99220974673E+01  0.00000000000E+00 0.  1.
<mgrwt>
<rscale>  0 0.80514454E+02</rscale>
<asrwt>0</asrwt>
<pdfrwt beam="1">  1        1 0.32126475E-01 0.80514454E+02</pdfrwt>
<pdfrwt beam="2">  1       -2 0.11939824E-02 0.80514454E+02</pdfrwt>
<totfact> 0.16530825E+05</totfact>
</mgrwt>
</event>
<event>
 8    1  0.1241100E-024  0.6940033E+02  0.7818608E-02  0.1362144E+00
          1   -1    0    0  501    0  0.00000000000E+00  0.00000000000E+00  0.86357073956E+02  0.86357074103E+02  0.50400000000E-02 0. -1.
         -2   -1    0    0    0  501 -0.00000000000E+00 -0.00000000000E+00 -0.13943286413E+02  0.13943286646E+02  0.25500000000E-02 0.  1.
        -24    2    1    2    0    0  0.17763568394E-14 -0.71054273576E-14  0.72413787543E+02  0.10030036075E+03  0.69400329539E+02 0.  0.
         66    2    3    3    0    0 -0.10524084832E+02  0.32488848977E+02  0.44886030746E+02  0.56436135831E+02  0.20000004970E+01 0.  0.
         13    1    3    3    0    0  0.10524084832E+02 -0.32488848977E+02  0.27527756796E+02  0.43864224918E+02  0.10566000000E+00 0. -1.
         13    1    4    4    0    0 -0.19697619054E+01  0.74647997003E+01  0.97614973144E+01  0.12445930676E+02  0.10566000000E+00 0.  1.
        -13    1    4    4    0    0 -0.33340889066E+01  0.92267070513E+01  0.14139331171E+02  0.17209884423E+02  0.10566000000E+00 0.  1.
         14    1    4    4    0    0 -0.52202340199E+01  0.15797342225E+02  0.20985202261E+02  0.26780320732E+02  0.00000000000E+00 0. -1.
<mgrwt>
<rscale>  0 0.69400330E+02</rscale>
<asrwt>0</asrwt>
<pdfrwt beam="1">  1        1 0.13285704E-01 0.69400330E+02</pdfrwt>
<pdfrwt beam="2">  1       -2 0.21451210E-02 0.69400330E+02</pdfrwt>
<totfact> 0.21017045E+05</totfact>
</mgrwt>
</event>
<event>
 8    1  0.1241100E-024  0.8109371E+02  0.7818608E-02  0.1325976E+00
         -2   -1    0    0    0  501 -0.00000000000E+00  0.00000000000E+00  0.97357904566E+01  0.97357907906E+01  0.25500000000E-02 0.  1.
          1   -1    0    0  501    0  0.00000000000E+00 -0.00000000000E+00 -0.16886633613E+03  0.16886633620E+03  0.50400000000E-02 0. -1.
        -24    2    1    2    0    0 -0.35527136788E-14  0.71054273576E-14 -0.15913054567E+03  0.17860212699E+03  0.81093706297E+02 0.  0.
         66    2    3    3    0    0  0.27381545669E+02 -0.29214077084E+02 -0.93337784060E+02  0.10158323329E+03  0.20000022646E+01 0.  0.
         13    1    3    3    0    0 -0.27381545669E+02  0.29214077084E+02 -0.65792761610E+02  0.77018893704E+02  0.10566000000E+00 0. -1.
         13    1    4    4    0    0  0.45803533502E+01 -0.41856968861E+01 -0.15822544061E+02  0.16995992464E+02  0.10566000000E+00 0. -1.
        -13    1    4    4    0    0  0.84734046593E+01 -0.94533260942E+01 -0.29055724939E+02  0.31708205192E+02  0.10566000000E+00 0.  1.
         14    1    4    4    0    0  0.14327787659E+02 -0.15575054103E+02 -0.48459515059E+02  0.52879035631E+02  0.00000000000E+00 0. -1.
<mgrwt>
<rscale>  0 0.81093706E+02</rscale>
<asrwt>0</asrwt>
<pdfrwt beam="1">  1        1 0.25979434E-01 0.81093706E+02</pdfrwt>
<pdfrwt beam="2">  1       -2 0.14978141E-02 0.81093706E+02</pdfrwt>
<totfact> 0.15567375E+05</totfact>
</mgrwt>
</event>
<event>
 8    1  0.1241100E-024  0.8063981E+02  0.7818608E-02  0.1327245E+00
         -2   -1    0    0    0  501 -0.00000000000E+00  0.00000000000E+00  0.16592999823E+02  0.16593000018E+02  0.25500000000E-02 0.  1.
          1   -1    0    0  501    0  0.00000000000E+00 -0.00000000000E+00 -0.97974743458E+02  0.97974743587E+02  0.50400000000E-02 0. -1.
        -24    2    1    2    0    0  0.00000000000E+00  0.00000000000E+00 -0.81381743635E+02  0.11456774361E+03  0.80639814470E+02 0.  0.
         66    2    3    3    0    0 -0.26143042887E+02 -0.80361417710E+01  0.13257001818E+01  0.27455340971E+02  0.20000002349E+01 0.  0.
         13    1    3    3    0    0  0.26143042887E+02  0.80361417710E+01 -0.82707443817E+02  0.87112402634E+02  0.10566000000E+00 0. -1.
         13    1    4    4    0    0 -0.87670112385E+01 -0.32910720090E+01 -0.12570346994E+00  0.93658211825E+01  0.10566000000E+00 0. -1.
        -13    1    4    4    0    0 -0.16831983280E+02 -0.45308802828E+01  0.12714712299E+01  0.17477767031E+02  0.10566000000E+00 0.  1.
         14    1    4    4    0    0 -0.54404836817E+00 -0.21418947921E+00  0.17993242183E+00  0.61175275753E+00  0.00000000000E+00 0. -1.
<mgrwt>
<rscale>  0 0.80639814E+02</rscale>
<asrwt>0</asrwt>
<pdfrwt beam="1">  1        1 0.15073037E-01 0.80639814E+02</pdfrwt>
<pdfrwt beam="2">  1       -2 0.25527693E-02 0.80639814E+02</pdfrwt>
<totfact> 0.14336370E+05</totfact>
</mgrwt>
</event>
<event>
 8    1  0.1241100E-024  0.8443905E+02  0.7818608E-02  0.1316906E+00
          1   -1    0    0  501    0  0.00000000000E+00  0.00000000000E+00  0.31207947506E+03  0.31207947510E+03  0.50400000000E-02 0. -1.
         -2   -1    0    0    0  501 -0.00000000000E+00 -0.00000000000E+00 -0.57116477500E+01  0.57116483193E+01  0.25500000000E-02 0.  1.
        -24    2    1    2    0    0 -0.17763568394E-14  0.00000000000E+00  0.30636782731E+03  0.31779112342E+03  0.84439046145E+02 0.  0.
         66    2    3    3    0    0  0.12243191027E+02 -0.37777687262E+02  0.20694929174E+03  0.21073456939E+03  0.20000009918E+01 0.  0.
         13    1    3    3    0    0 -0.12243191027E+02  0.37777687262E+02  0.99418535570E+02  0.10705655403E+03  0.10566000000E+00 0. -1.
         13    1    4    4    0    0  0.10400381935E+01 -0.38380109515E+01  0.19157180319E+02  0.19565805103E+02  0.10566000000E+00 0.  1.
        -13    1    4    4    0    0  0.41446545269E+01 -0.11005636712E+02  0.64431558789E+02  0.65496100133E+02  0.10566000000E+00 0.  1.
        -14    1    4    4    0    0  0.70584983062E+01 -0.22934039598E+02  0.12336055263E+03  0.12567266416E+03  0.00000000000E+00 0.  1.
<mgrwt>
<rscale>  0 0.84439046E+02</rscale>
<asrwt>0</asrwt>
<pdfrwt beam="1">  1        1 0.48012230E-01 0.84439046E+02</pdfrwt>
<pdfrwt beam="2">  1       -2 0.87871503E-03 0.84439046E+02</pdfrwt>
<totfact> 0.15759717E+05</totfact>
</mgrwt>
</event>
<event>
 8    1  0.1452895E-024  0.7981875E+02  0.7818608E-02  0.1329567E+00
         -2   -1    0    0    0  501 -0.00000000000E+00  0.00000000000E+00  0.91839681347E+02  0.91839681383E+02  0.25500000000E-02 0.  1.
          1   -1    0    0  501    0  0.00000000000E+00 -0.00000000000E+00 -0.17342811781E+02  0.17342812513E+02  0.50400000000E-02 0. -1.
        -24    2    1    2    0    0  0.17763568394E-14 -0.35527136788E-14  0.74496869567E+02  0.10918249390E+03  0.79818753424E+02 0.  0.
         66    2    3    3    0    0  0.82135823096E+01 -0.21959762277E+02  0.81407027173E+02  0.84739590308E+02  0.19999997236E+01 0.  0.
         13    1    3    3    0    0 -0.82135823096E+01  0.21959762277E+02 -0.69101576063E+01  0.24442903588E+02  0.10566000000E+00 0. -1.
         13    1    4    4    0    0  0.35787829234E+01 -0.99577858473E+01  0.36647579727E+02  0.38144743414E+02  0.10566000000E+00 0. -1.
        -13    1    4    4    0    0  0.29767360708E+01 -0.86822628408E+01  0.33802332906E+02  0.35026440293E+02  0.10566000000E+00 0.  1.
         14    1    4    4    0    0  0.16580633154E+01 -0.33197135890E+01  0.10957114540E+02  0.11568406602E+02  0.00000000000E+00 0. -1.
<mgrwt>
<rscale>  0 0.79818753E+02</rscale>
<asrwt>0</asrwt>
<pdfrwt beam="1">  1        1 0.26681250E-02 0.79818753E+02</pdfrwt>
<pdfrwt beam="2">  1       -2 0.14129181E-01 0.79818753E+02</pdfrwt>
<totfact> 0.10896419E+05</totfact>
</mgrwt>
</event>
<event>
 8    1  0.1241100E-024  0.8005549E+02  0.7818608E-02  0.1328894E+00
         -2   -1    0    0    0  501 -0.00000000000E+00  0.00000000000E+00  0.88658129475E+02  0.88658129512E+02  0.25500000000E-02 0.  1.
          1   -1    0    0  501    0  0.00000000000E+00 -0.00000000000E+00 -0.18071893616E+02  0.18071894318E+02  0.50400000000E-02 0. -1.
        -24    2    1    2    0    0  0.00000000000E+00  0.00000000000E+00  0.70586235860E+02  0.10673002383E+03  0.80055488844E+02 0.  0.
         66    2    3    3    0    0  0.14579209879E+02  0.33823289709E+02  0.56125276335E+02  0.67161111767E+02  0.20000006652E+01 0.  0.
         13    1    3    3    0    0 -0.14579209879E+02 -0.33823289709E+02  0.14460959525E+02  0.39568912063E+02  0.10566000000E+00 0. -1.
         13    1    4    4    0    0  0.12226679836E+01  0.37205620814E+01  0.52887078943E+01  0.65817242746E+01  0.10566000000E+00 0. -1.
        -13    1    4    4    0    0  0.79805953931E+01  0.16974574743E+02  0.29378705268E+02  0.34856069454E+02  0.10566000000E+00 0.  1.
        -14    1    4    4    0    0  0.53759465024E+01  0.13128152885E+02  0.21457863172E+02  0.25723318038E+02  0.00000000000E+00 0.  1.
<mgrwt>
<rscale>  0 0.80055489E+02</rscale>
<asrwt>0</asrwt>
<pdfrwt beam="1">  1        1 0.27802914E-02 0.80055489E+02</pdfrwt>
<pdfrwt beam="2">  1       -2 0.13639712E-01 0.80055489E+02</pdfrwt>
<totfact> 0.10903428E+05</totfact>
</mgrwt>
</event>
<event>
 8    1  0.1241100E-024  0.8759531E+02  0.7818608E-02  0.1308782E+00
         -2   -1    0    0    0  501 -0.00000000000E+00  0.00000000000E+00  0.14981635410E+02  0.14981635627E+02  0.25500000000E-02 0.  1.
          1   -1    0    0  501    0  0.00000000000E+00 -0.00000000000E+00 -0.12803906472E+03  0.12803906482E+03  0.50400000000E-02 0. -1.
        -24    2    1    2    0    0  0.00000000000E+00  0.00000000000E+00 -0.11305742931E+03  0.14302070045E+03  0.87595310573E+02 0.  0.
         66    2    3    3    0    0 -0.23608830500E+02  0.36793694383E+02 -0.60236934152E+02  0.74455631377E+02  0.19999959216E+01 0.  0.
         13    1    3    3    0    0  0.23608830500E+02 -0.36793694383E+02 -0.52820495162E+02  0.68565069074E+02  0.10566000000E+00 0. -1.
         13    1    4    4    0    0 -0.90557602386E+01  0.12841836922E+02 -0.21280091204E+02  0.26453223144E+02  0.10566000000E+00 0. -1.
        -13    1    4    4    0    0 -0.49636618411E+01  0.77731593073E+01 -0.12068910491E+02  0.15189789629E+02  0.10566000000E+00 0.  1.
         14    1    4    4    0    0 -0.95894084204E+01  0.16178698154E+02 -0.26887932457E+02  0.32812618604E+02  0.00000000000E+00 0. -1.
<mgrwt>
<rscale>  0 0.87595311E+02</rscale>
<asrwt>0</asrwt>
<pdfrwt beam="1">  1        1 0.19698317E-01 0.87595311E+02</pdfrwt>
<pdfrwt beam="2">  1       -2 0.23048671E-02 0.87595311E+02</pdfrwt>
<totfact> 0.12010943E+05</totfact>
</mgrwt>
</event>
<event>
 8    1  0.1241100E-024  0.7971522E+02  0.7818608E-02  0.1329862E+00
         -2   -1    0    0    0  501 -0.00000000000E+00  0.00000000000E+00  0.10099833048E+03  0.10099833052E+03  0.25500000000E-02 0.  1.
          1   -1    0    0  501    0  0.00000000000E+00 -0.00000000000E+00 -0.15729260883E+02  0.15729261690E+02  0.50400000000E-02 0. -1.
        -24    2    1    2    0    0  0.00000000000E+00  0.17763568394E-14  0.85269069602E+02  0.11672759221E+03  0.79715221581E+02 0.  0.
         66    2    3    3    0    0  0.36869390488E+02  0.14617051242E+02  0.48064183189E+02  0.62347220022E+02  0.19999992043E+01 0.  0.
         13    1    3    3    0    0 -0.36869390488E+02 -0.14617051242E+02  0.37204886413E+02  0.54380372186E+02  0.10566000000E+00 0. -1.
         13    1    4    4    0    0  0.13384734975E+02  0.57941209494E+01  0.18729473380E+02  0.23738730064E+02  0.10566000000E+00 0. -1.
        -13    1    4    4    0    0  0.82024909797E+01  0.29157445003E+01  0.10739854615E+02  0.13825269092E+02  0.10566000000E+00 0.  1.
        -14    1    4    4    0    0  0.15282164534E+02  0.59071857922E+01  0.18594855194E+02  0.24783220866E+02  0.00000000000E+00 0.  1.
<mgrwt>
<rscale>  0 0.79715222E+02</rscale>
<asrwt>0</asrwt>
<pdfrwt beam="1">  1        1 0.24198863E-02 0.79715222E+02</pdfrwt>
<pdfrwt beam="2">  1       -2 0.15538205E-01 0.79715222E+02</pdfrwt>
<totfact> 0.10683630E+05</totfact>
</mgrwt>
</event>
<event>
 8    1  0.1241100E-024  0.7924130E+02  0.7818608E-02  0.1331218E+00
         -2   -1    0    0    0  501 -0.00000000000E+00  0.00000000000E+00  0.52710051102E+01  0.52710057270E+01  0.25500000000E-02 0.  1.
          1   -1    0    0  501    0  0.00000000000E+00 -0.00000000000E+00 -0.29781715399E+03  0.29781715403E+03  0.50400000000E-02 0. -1.
        -24    2    1    2    0    0 -0.44408920985E-15 -0.14210854715E-13 -0.29254614888E+03  0.30308815976E+03  0.79241298337E+02 0.  0.
         66    2    3    3    0    0 -0.30808664699E+01 -0.38512737665E+02 -0.17950544946E+03  0.18362714692E+03  0.19999993424E+01 0.  0.
         13    1    3    3    0    0  0.30808664699E+01  0.38512737665E+02 -0.11304069942E+03  0.11946101284E+03  0.10566000000E+00 0. -1.
         13    1    4    4    0    0 -0.19681838151E+01 -0.25850663876E+02 -0.11836174390E+03  0.12116783464E+03  0.10566000000E+00 0. -1.
        -13    1    4    4    0    0 -0.92081762214E+00 -0.50403421642E+01 -0.23919439298E+02  0.24462291278E+02  0.10566000000E+00 0.  1.
        -14    1    4    4    0    0 -0.19186503266E+00 -0.76217316253E+01 -0.37224266270E+02  0.37997020995E+02  0.00000000000E+00 0.  1.
<mgrwt>
<rscale>  0 0.79241298E+02</rscale>
<asrwt>0</asrwt>
<pdfrwt beam="1">  1        1 0.45818011E-01 0.79241298E+02</pdfrwt>
<pdfrwt beam="2">  1       -2 0.81092414E-03 0.79241298E+02</pdfrwt>
<totfact> 0.18474680E+05</totfact>
</mgrwt>
</event>
<event>
 8    1  0.1241100E-024  0.8493153E+02  0.7818608E-02  0.1315612E+00
          1   -1    0    0  501    0  0.00000000000E+00  0.00000000000E+00  0.67921716622E+02  0.67921716809E+02  0.50400000000E-02 0. -1.
         -2   -1    0    0    0  501 -0.00000000000E+00 -0.00000000000E+00 -0.26550286254E+02  0.26550286377E+02  0.25500000000E-02 0.  1.
        -24    2    1    2    0    0  0.00000000000E+00  0.00000000000E+00  0.41371430368E+02  0.94472003185E+02  0.84931526156E+02 0.  0.
         66    2    3    3    0    0  0.29280056267E+02  0.30624782649E+02  0.23452730678E+02  0.48468851447E+02  0.19999942495E+01 0.  0.
         13    1    3    3    0    0 -0.29280056267E+02 -0.30624782649E+02  0.17918699689E+02  0.46003151739E+02  0.10566000000E+00 0. -1.
         13    1    4    4    0    0  0.27443267943E+01  0.29576915330E+01  0.24892138989E+01  0.47420057601E+01  0.10566000000E+00 0. -1.
        -13    1    4    4    0    0  0.65684685074E+01  0.60050596998E+01  0.43882894682E+01  0.99233950351E+01  0.10566000000E+00 0.  1.
        -14    1    4    4    0    0  0.19967260965E+02  0.21662031416E+02  0.16575227311E+02  0.33803450652E+02  0.00000000000E+00 0.  1.
<mgrwt>
<rscale>  0 0.84931526E+02</rscale>
<asrwt>0</asrwt>
<pdfrwt beam="1">  1        1 0.10449495E-01 0.84931526E+02</pdfrwt>
<pdfrwt beam="2">  1       -2 0.40846594E-02 0.84931526E+02</pdfrwt>
<totfact> 0.11707931E+05</totfact>
</mgrwt>
</event>
<event>
 8    1  0.1241100E-024  0.8198568E+02  0.7818608E-02  0.1323509E+00
         -2   -1    0    0    0  501 -0.00000000000E+00  0.00000000000E+00  0.24911712504E+02  0.24911712635E+02  0.25500000000E-02 0.  1.
          1   -1    0    0  501    0  0.00000000000E+00 -0.00000000000E+00 -0.67454727056E+02  0.67454727244E+02  0.50400000000E-02 0. -1.
        -24    2    1    2    0    0  0.71054273576E-14  0.00000000000E+00 -0.42543014552E+02  0.92366439879E+02  0.81985676363E+02 0.  0.
         66    2    3    3    0    0 -0.36922953377E+02  0.56901296219E+01 -0.23406885348E+01  0.37485475579E+02  0.19999988440E+01 0.  0.
         13    1    3    3    0    0  0.36922953377E+02 -0.56901296219E+01 -0.40202326017E+02  0.54880964299E+02  0.10566000000E+00 0. -1.
         13    1    4    4    0    0 -0.29254651025E+01  0.10741882593E+00 -0.34622772228E+00  0.29497326220E+01  0.10566000000E+00 0. -1.
        -13    1    4    4    0    0 -0.22495066432E+02  0.30835917484E+01 -0.11534473156E+01  0.22734954511E+02  0.10566000000E+00 0.  1.
        -14    1    4    4    0    0 -0.11502421843E+02  0.24991190476E+01 -0.84101349686E+00  0.11800788447E+02  0.00000000000E+00 0.  1.
<mgrwt>
<rscale>  0 0.81985676E+02</rscale>
<asrwt>0</asrwt>
<pdfrwt beam="1">  1        1 0.10377650E-01 0.81985676E+02</pdfrwt>
<pdfrwt beam="2">  1       -2 0.38325712E-02 0.81985676E+02</pdfrwt>
<totfact> 0.12891428E+05</totfact>
</mgrwt>
</event>
<event>
 8    1  0.1241100E-024  0.7931994E+02  0.7818608E-02  0.1330992E+00
         -2   -1    0    0    0  501 -0.00000000000E+00  0.00000000000E+00  0.27933048628E+03  0.27933048629E+03  0.25500000000E-02 0.  1.
          1   -1    0    0  501    0  0.00000000000E+00 -0.00000000000E+00 -0.56310108269E+01  0.56310130824E+01  0.50400000000E-02 0. -1.
        -24    2    1    2    0    0 -0.17763568394E-14  0.00000000000E+00  0.27369947545E+03  0.28496149937E+03  0.79319942399E+02 0.  0.
         66    2    3    3    0    0  0.15426425671E+02 -0.34414907591E+02  0.18072267718E+03  0.18462677630E+03  0.20000014532E+01 0.  0.
         13    1    3    3    0    0 -0.15426425671E+02  0.34414907591E+02  0.92976798270E+02  0.10033472307E+03  0.10566000000E+00 0. -1.
         13    1    4    4    0    0  0.94311008045E+01 -0.22662288993E+02  0.11739456516E+03  0.11993339859E+03  0.10566000000E+00 0. -1.
        -13    1    4    4    0    0  0.49582546530E+01 -0.98234465421E+01  0.51222549706E+02  0.52391269822E+02  0.10566000000E+00 0.  1.
        -14    1    4    4    0    0  0.10370702133E+01 -0.19291720560E+01  0.12105562312E+02  0.12302107882E+02  0.00000000000E+00 0.  1.
<mgrwt>
<rscale>  0 0.79319942E+02</rscale>
<asrwt>0</asrwt>
<pdfrwt beam="1">  1        1 0.86630965E-03 0.79319942E+02</pdfrwt>
<pdfrwt beam="2">  1       -2 0.42973915E-01 0.79319942E+02</pdfrwt>
<totfact> 0.74607608E+04</totfact>
</mgrwt>
</event>
<event>
 8    1  0.1777418E-024  0.8077551E+02  0.7818608E-02  0.1326865E+00
          1   -1    0    0  501    0  0.00000000000E+00  0.00000000000E+00  0.10319640295E+03  0.10319640308E+03  0.50400000000E-02 0. -1.
         -2   -1    0    0    0  501 -0.00000000000E+00 -0.00000000000E+00 -0.15806469660E+02  0.15806469866E+02  0.25500000000E-02 0.  1.
        -24    2    1    2    0    0  0.00000000000E+00  0.00000000000E+00  0.87389933293E+02  0.11900287294E+03  0.80775511930E+02 0.  0.
         66    2    3    3    0    0 -0.21076085182E+01  0.17017580859E+02 -0.10110110362E+02  0.20006359121E+02  0.20000004483E+01 0.  0.
         13    1    3    3    0    0  0.21076085182E+01 -0.17017580859E+02  0.97500043655E+02  0.98996513821E+02  0.10566000000E+00 0. -1.
         13    1    4    4    0    0 -0.58314893775E+00  0.59979433631E+01 -0.37609806176E+01  0.71043315317E+01  0.10566000000E+00 0. -1.
        -13    1    4    4    0    0 -0.91575028929E+00  0.95689477565E+01 -0.58416860913E+01  0.11248991963E+02  0.10566000000E+00 0.  1.
         14    1    4    4    0    0 -0.60870929113E+00  0.14506897392E+01 -0.50744365298E+00  0.16530356262E+01  0.00000000000E+00 0. -1.
<mgrwt>
<rscale>  0 0.80775512E+02</rscale>
<asrwt>0</asrwt>
<pdfrwt beam="1">  1        1 0.15876370E-01 0.80775512E+02</pdfrwt>
<pdfrwt beam="2">  1       -2 0.24317645E-02 0.80775512E+02</pdfrwt>
<totfact> 0.14397206E+05</totfact>
</mgrwt>
</event>
<event>
 8    1  0.1241100E-024  0.7942138E+02  0.7818608E-02  0.1330702E+00
         -2   -1    0    0    0  501 -0.00000000000E+00  0.00000000000E+00  0.16893257067E+03  0.16893257069E+03  0.25500000000E-02 0.  1.
          1   -1    0    0  501    0  0.00000000000E+00 -0.00000000000E+00 -0.93347224512E+01  0.93347238118E+01  0.50400000000E-02 0. -1.
        -24    2    1    2    0    0 -0.35527136788E-14 -0.22204460493E-15  0.15959784822E+03  0.17826729450E+03  0.79421377051E+02 0.  0.
         66    2    3    3    0    0 -0.31019387962E+02 -0.13690407494E+01  0.13532525172E+03  0.13885604222E+03  0.20000008536E+01 0.  0.
         13    1    3    3    0    0  0.31019387962E+02  0.13690407494E+01  0.24272596495E+02  0.39411252286E+02  0.10566000000E+00 0. -1.
         13    1    4    4    0    0 -0.34847870847E+01 -0.42496865173E+00  0.17545632145E+02  0.17893705899E+02  0.10566000000E+00 0. -1.
        -13    1    4    4    0    0 -0.13589222538E+02 -0.10183866198E+00  0.59173702353E+02  0.60714212130E+02  0.10566000000E+00 0.  1.
        -14    1    4    4    0    0 -0.13945378339E+02 -0.84223343569E+00  0.58605917226E+02  0.60248124187E+02  0.00000000000E+00 0.  1.
<mgrwt>
<rscale>  0 0.79421377E+02</rscale>
<asrwt>0</asrwt>
<pdfrwt beam="1">  1        1 0.14361113E-02 0.79421377E+02</pdfrwt>
<pdfrwt beam="2">  1       -2 0.25989626E-01 0.79421377E+02</pdfrwt>
<totfact> 0.92447753E+04</totfact>
</mgrwt>
</event>
<event>
 8    1  0.1241100E-024  0.8896294E+02  0.7818608E-02  0.1305383E+00
         -2   -1    0    0    0  501 -0.00000000000E+00  0.00000000000E+00  0.38926345490E+03  0.38926345490E+03  0.25500000000E-02 0.  1.
          1   -1    0    0  501    0  0.00000000000E+00 -0.00000000000E+00 -0.50829345317E+01  0.50829370305E+01  0.50400000000E-02 0. -1.
        -24    2    1    2    0    0  0.00000000000E+00  0.00000000000E+00  0.38418052036E+03  0.39434639193E+03  0.88962939501E+02 0.  0.
         66    2    3    3    0    0  0.33666444123E+02  0.28131283693E+02  0.16028469188E+03  0.16619260222E+03  0.20000002994E+01 0.  0.
         13    1    3    3    0    0 -0.33666444123E+02 -0.28131283693E+02  0.22389582849E+03  0.22815378971E+03  0.10566000000E+00 0. -1.
         13    1    4    4    0    0  0.39653412457E+01  0.29528322310E+01  0.17978478299E+02  0.18646179109E+02  0.10566000000E+00 0. -1.
        -13    1    4    4    0    0  0.20499838619E+02  0.16443346479E+02  0.97149790006E+02  0.10064154157E+03  0.10566000000E+00 0.  1.
         14    1    4    4    0    0  0.92012642580E+01  0.87351049833E+01  0.45156423573E+02  0.46904881546E+02  0.00000000000E+00 0. -1.
<mgrwt>
<rscale>  0 0.88962940E+02</rscale>
<asrwt>0</asrwt>
<pdfrwt beam="1">  1        1 0.78199022E-03 0.88962940E+02</pdfrwt>
<pdfrwt beam="2">  1       -2 0.59886678E-01 0.88962940E+02</pdfrwt>
<totfact> 0.45671611E+04</totfact>
</mgrwt>
</event>
<event>
 8    1  0.1241100E-024  0.7891324E+02  0.7818608E-02  0.1332164E+00
          1   -1    0    0  501    0  0.00000000000E+00  0.00000000000E+00  0.20651626360E+03  0.20651626366E+03  0.50400000000E-02 0. -1.
         -2   -1    0    0    0  501 -0.00000000000E+00 -0.00000000000E+00 -0.75385097839E+01  0.75385102152E+01  0.25500000000E-02 0.  1.
        -24    2    1    2    0    0  0.71054273576E-14  0.11102230246E-15  0.19897775382E+03  0.21405477388E+03  0.78913241638E+02 0.  0.
         66    2    3    3    0    0  0.37115272537E+02  0.97152625813E+00  0.63532793419E+02  0.73613199620E+02  0.19999999572E+01 0.  0.
         13    1    3    3    0    0 -0.37115272537E+02 -0.97152625813E+00  0.13544496040E+03  0.14044157426E+03  0.10566000000E+00 0. -1.
         13    1    4    4    0    0  0.41827341009E+01 -0.83001332139E-02  0.79930574339E+01  0.90219435061E+01  0.10566000000E+00 0. -1.
        -13    1    4    4    0    0  0.15114109540E+02  0.10927360645E+01  0.25125540891E+02  0.29341682781E+02  0.10566000000E+00 0.  1.
        -14    1    4    4    0    0  0.17818428896E+02 -0.11290967315E+00  0.30414195094E+02  0.35249573333E+02  0.00000000000E+00 0.  1.
<mgrwt>
<rscale>  0 0.78913242E+02</rscale>
<asrwt>0</asrwt>
<pdfrwt beam="1">  1        1 0.31771729E-01 0.78913242E+02</pdfrwt>
<pdfrwt beam="2">  1       -2 0.11597709E-02 0.78913242E+02</pdfrwt>
<totfact> 0.17397742E+05</totfact>
</mgrwt>
</event>
<event>
 8    1  0.1241100E-024  0.7810250E+02  0.7818608E-02  0.1334524E+00
          1   -1    0    0  501    0  0.00000000000E+00  0.00000000000E+00  0.11316976336E+02  0.11316977458E+02  0.50400000000E-02 0. -1.
         -2   -1    0    0    0  501 -0.00000000000E+00 -0.00000000000E+00 -0.13475330239E+03  0.13475330242E+03  0.25500000000E-02 0.  1.
        -24    2    1    2    0    0 -0.13877787808E-16  0.00000000000E+00 -0.12343632606E+03  0.14607027988E+03  0.78102497224E+02 0.  0.
         66    2    3    3    0    0  0.66885674937E-01 -0.22159600188E+02 -0.12183780390E+03  0.12385274646E+03  0.19999977083E+01 0.  0.
         13    1    3    3    0    0 -0.66885674937E-01  0.22159600188E+02 -0.15985221564E+01  0.22217533421E+02  0.10566000000E+00 0. -1.
         13    1    4    4    0    0  0.36543638502E+00 -0.15821897714E+01 -0.76540128615E+01  0.78250843537E+01  0.10566000000E+00 0. -1.
        -13    1    4    4    0    0 -0.24419594065E+00 -0.19872299194E+02 -0.10917373321E+03  0.11096793723E+03  0.10566000000E+00 0.  1.
        -14    1    4    4    0    0 -0.54354769436E-01 -0.70511122311E+00 -0.50100578320E+01  0.50597248697E+01  0.00000000000E+00 0.  1.
<mgrwt>
<rscale>  0 0.78102497E+02</rscale>
<asrwt>0</asrwt>
<pdfrwt beam="1">  1        1 0.17410735E-02 0.78102497E+02</pdfrwt>
<pdfrwt beam="2">  1       -2 0.20731276E-01 0.78102497E+02</pdfrwt>
<totfact> 0.10399018E+05</totfact>
</mgrwt>
</event>
<event>
 8    1  0.1241100E-024  0.8061625E+02  0.7818608E-02  0.1327312E+00
         -2   -1    0    0    0  501 -0.00000000000E+00  0.00000000000E+00  0.25065272418E+03  0.25065272419E+03  0.25500000000E-02 0.  1.
          1   -1    0    0  501    0  0.00000000000E+00 -0.00000000000E+00 -0.64820541693E+01  0.64820561286E+01  0.50400000000E-02 0. -1.
        -24    2    1    2    0    0  0.17763568394E-14 -0.35527136788E-14  0.24417067001E+03  0.25713478032E+03  0.80616246238E+02 0.  0.
         66    2    3    3    0    0 -0.10533152871E+02  0.18920202935E+02  0.23050479583E+03  0.23152836179E+03  0.20000068331E+01 0.  0.
         13    1    3    3    0    0  0.10533152871E+02 -0.18920202935E+02  0.13665874182E+02  0.25606418525E+02  0.10566000000E+00 0. -1.
         13    1    4    4    0    0 -0.64084664824E+01  0.13189397451E+02  0.15629309453E+03  0.15697952481E+03  0.10566000000E+00 0. -1.
        -13    1    4    4    0    0 -0.30050149173E+01  0.44692090366E+01  0.54913321223E+02  0.55176878816E+02  0.10566000000E+00 0.  1.
         14    1    4    4    0    0 -0.11196714713E+01  0.12615964475E+01  0.19298380075E+02  0.19371958170E+02  0.00000000000E+00 0. -1.
<mgrwt>
<rscale>  0 0.80616246E+02</rscale>
<asrwt>0</asrwt>
<pdfrwt beam="1">  1        1 0.99723915E-03 0.80616246E+02</pdfrwt>
<pdfrwt beam="2">  1       -2 0.38561962E-01 0.80616246E+02</pdfrwt>
<totfact> 0.75507592E+04</totfact>
</mgrwt>
</event>
<event>
 8    1  0.1241100E-024  0.7880585E+02  0.7818608E-02  0.1332475E+00
         -2   -1    0    0    0  501 -0.00000000000E+00  0.00000000000E+00  0.96513096742E+01  0.96513100111E+01  0.25500000000E-02 0.  1.
          1   -1    0    0  501    0  0.00000000000E+00 -0.00000000000E+00 -0.16086836407E+03  0.16086836415E+03  0.50400000000E-02 0. -1.
        -24    2    1    2    0    0  0.00000000000E+00  0.00000000000E+00 -0.15121705440E+03  0.17051967416E+03  0.78805848359E+02 0.  0.
         66    2    3    3    0    0 -0.17421858982E+02  0.21613448055E+02 -0.15228569211E+02  0.31726513039E+02  0.20000005357E+01 0.  0.
         13    1    3    3    0    0  0.17421858982E+02 -0.21613448055E+02 -0.13598848519E+03  0.13879316112E+03  0.10566000000E+00 0. -1.
         13    1    4    4    0    0 -0.71018208561E+00  0.10582290765E+01 -0.75000826896E+00  0.14825261590E+01  0.10566000000E+00 0. -1.
        -13    1    4    4    0    0 -0.14253896009E+01  0.24415882545E+01 -0.19356170952E+01  0.34279536598E+01  0.10566000000E+00 0.  1.
        -14    1    4    4    0    0 -0.15286287296E+02  0.18113630724E+02 -0.12542943847E+02  0.26816033220E+02  0.00000000000E+00 0.  1.
<mgrwt>
<rscale>  0 0.78805848E+02</rscale>
<asrwt>0</asrwt>
<pdfrwt beam="1">  1        1 0.24748977E-01 0.78805848E+02</pdfrwt>
<pdfrwt beam="2">  1       -2 0.14848170E-02 0.78805848E+02</pdfrwt>
<totfact> 0.16649164E+05</totfact>
</mgrwt>
</event>
<event>
 8    1  0.1241100E-024  0.8006116E+02  0.7818608E-02  0.1328878E+00
         -2   -1    0    0    0  501 -0.00000000000E+00  0.00000000000E+00  0.23055077439E+02  0.23055077580E+02  0.25500000000E-02 0.  1.
          1   -1    0    0  501    0  0.00000000000E+00 -0.00000000000E+00 -0.69505173696E+02  0.69505173879E+02  0.50400000000E-02 0. -1.
        -24    2    1    2    0    0  0.00000000000E+00  0.00000000000E+00 -0.46450096257E+02  0.92560251459E+02  0.80061156048E+02 0.  0.
         66    2    3    3    0    0 -0.35029837720E+02  0.89073463485E+01 -0.34157838068E+01  0.36360664612E+02  0.20000005915E+01 0.  0.
         13    1    3    3    0    0  0.35029837720E+02 -0.89073463485E+01 -0.43034312450E+02  0.56199586847E+02  0.10566000000E+00 0. -1.
         13    1    4    4    0    0 -0.34883285946E+01  0.86001492822E+00  0.19646322142E-01  0.35943861888E+01  0.10566000000E+00 0. -1.
        -13    1    4    4    0    0 -0.20130841928E+02  0.56795061797E+01 -0.17295060274E+01  0.20988328717E+02  0.10566000000E+00 0.  1.
         14    1    4    4    0    0 -0.11410667197E+02  0.23678252405E+01 -0.17059241016E+01  0.11777949707E+02  0.00000000000E+00 0. -1.
<mgrwt>
<rscale>  0 0.80061156E+02</rscale>
<asrwt>0</asrwt>
<pdfrwt beam="1">  1        1 0.10693104E-01 0.80061156E+02</pdfrwt>
<pdfrwt beam="2">  1       -2 0.35469350E-02 0.80061156E+02</pdfrwt>
<totfact> 0.13826105E+05</totfact>
</mgrwt>
</event>
<event>
 8    1  0.1241100E-024  0.8077552E+02  0.7818608E-02  0.1326865E+00
         -2   -1    0    0    0  501 -0.00000000000E+00  0.00000000000E+00  0.12121635191E+02  0.12121635459E+02  0.25500000000E-02 0.  1.
          1   -1    0    0  501    0  0.00000000000E+00 -0.00000000000E+00 -0.13456692215E+03  0.13456692224E+03  0.50400000000E-02 0. -1.
        -24    2    1    2    0    0  0.00000000000E+00  0.00000000000E+00 -0.12244528696E+03  0.14668855770E+03  0.80775520194E+02 0.  0.
         66    2    3    3    0    0  0.14945572568E+02 -0.25791804255E+02 -0.11840140099E+02  0.32136835839E+02  0.19999985206E+01 0.  0.
         13    1    3    3    0    0 -0.14945572568E+02  0.25791804255E+02 -0.11060514686E+03  0.11455172186E+03  0.10566000000E+00 0. -1.
         13    1    4    4    0    0  0.43418404447E+00 -0.87463668330E+00 -0.57818966241E+00  0.11397247183E+01  0.10566000000E+00 0. -1.
        -13    1    4    4    0    0  0.37665070716E+01 -0.60992741593E+01 -0.35137511543E+01  0.79840673845E+01  0.10566000000E+00 0.  1.
        -14    1    4    4    0    0  0.10744881452E+02 -0.18817893412E+02 -0.77481992826E+01  0.23013043736E+02  0.00000000000E+00 0.  1.
<mgrwt>
<rscale>  0 0.80775520E+02</rscale>
<asrwt>0</asrwt>
<pdfrwt beam="1">  1        1 0.20702602E-01 0.80775520E+02</pdfrwt>
<pdfrwt beam="2">  1       -2 0.18648671E-02 0.80775520E+02</pdfrwt>
<totfact> 0.15083578E+05</totfact>
</mgrwt>
</event>
<event>
 8    1  0.1241100E-024  0.8038402E+02  0.7818608E-02  0.1327965E+00
         -2   -1    0    0    0  501 -0.00000000000E+00  0.00000000000E+00  0.13188615729E+02  0.13188615975E+02  0.25500000000E-02 0.  1.
          1   -1    0    0  501    0  0.00000000000E+00 -0.00000000000E+00 -0.12248424688E+03  0.12248424699E+03  0.50400000000E-02 0. -1.
        -24    2    1    2    0    0  0.00000000000E+00 -0.71054273576E-14 -0.10929563116E+03  0.13567286296E+03  0.80384020519E+02 0.  0.
         66    2    3    3    0    0 -0.32699196664E+02 -0.23313832104E+02 -0.53352054694E+02  0.66807289988E+02  0.20000064027E+01 0.  0.
         13    1    3    3    0    0  0.32699196664E+02  0.23313832104E+02 -0.55943576461E+02  0.68865572975E+02  0.10566000000E+00 0. -1.
         13    1    4    4    0    0 -0.22138629971E+01 -0.12761672039E+01 -0.34773794848E+01  0.43166102696E+01  0.10566000000E+00 0.  1.
        -13    1    4    4    0    0 -0.10310820374E+02 -0.69119491317E+01 -0.15451539669E+02  0.19820426327E+02  0.10566000000E+00 0.  1.
        -14    1    4    4    0    0 -0.20174513293E+02 -0.15125715768E+02 -0.34423135540E+02  0.42670253392E+02  0.00000000000E+00 0.  1.
<mgrwt>
<rscale>  0 0.80384021E+02</rscale>
<asrwt>0</asrwt>
<pdfrwt beam="1">  1        1 0.18843730E-01 0.80384021E+02</pdfrwt>
<pdfrwt beam="2">  1       -2 0.20290179E-02 0.80384021E+02</pdfrwt>
<totfact> 0.15026522E+05</totfact>
</mgrwt>
</event>
<event>
 8    1  0.1241100E-024  0.7712540E+02  0.7818608E-02  0.1337413E+00
         -2   -1    0    0    0  501 -0.00000000000E+00  0.00000000000E+00  0.19263654675E+02  0.19263654843E+02  0.25500000000E-02 0.  1.
          1   -1    0    0  501    0  0.00000000000E+00 -0.00000000000E+00 -0.77196246933E+02  0.77196247097E+02  0.50400000000E-02 0. -1.
        -24    2    1    2    0    0  0.35527136788E-14  0.44408920985E-15 -0.57932592258E+02  0.96459901940E+02  0.77125400723E+02 0.  0.
         66    2    3    3    0    0 -0.19524209037E+02 -0.33223671755E+01  0.12359801629E+02  0.23430697751E+02  0.20000096572E+01 0.  0.
         13    1    3    3    0    0  0.19524209037E+02  0.33223671755E+01 -0.70292393887E+02  0.73029204189E+02  0.10566000000E+00 0. -1.
         13    1    4    4    0    0 -0.21046518923E+01 -0.14911969961E+00  0.10666769886E+01  0.23665925096E+01  0.10566000000E+00 0. -1.
        -13    1    4    4    0    0 -0.71531746233E+01 -0.73161084355E+00  0.39150066982E+01  0.81878936913E+01  0.10566000000E+00 0.  1.
        -14    1    4    4    0    0 -0.10266382522E+02 -0.24416366323E+01  0.73781179417E+01  0.12876211550E+02  0.00000000000E+00 0.  1.
<mgrwt>
<rscale>  0 0.77125401E+02</rscale>
<asrwt>0</asrwt>
<pdfrwt beam="1">  1        1 0.11876346E-01 0.77125401E+02</pdfrwt>
<pdfrwt beam="2">  1       -2 0.29636392E-02 0.77125401E+02</pdfrwt>
<totfact> 0.15563076E+05</totfact>
</mgrwt>
</event>
<event>
 8    1  0.1241100E-024  0.8387697E+02  0.7818608E-02  0.1318396E+00
          1   -1    0    0  501    0  0.00000000000E+00  0.00000000000E+00  0.45679796655E+01  0.45679824459E+01  0.50400000000E-02 0. -1.
         -2   -1    0    0    0  501 -0.00000000000E+00 -0.00000000000E+00 -0.38503583585E+03  0.38503583586E+03  0.25500000000E-02 0.  1.
        -24    2    1    2    0    0  0.35527136788E-14 -0.17763568394E-14 -0.38046785618E+03  0.38960381830E+03  0.83876967325E+02 0.  0.
         66    2    3    3    0    0 -0.29074838815E+02  0.13806195604E+02 -0.31505434626E+03  0.31670048687E+03  0.19999997226E+01 0.  0.
         13    1    3    3    0    0  0.29074838815E+02 -0.13806195604E+02 -0.65413509926E+02  0.72903331433E+02  0.10566000000E+00 0. -1.
         13    1    4    4    0    0 -0.47932285088E+01  0.21155757032E+01 -0.53407476477E+02  0.53663958182E+02  0.10566000000E+00 0. -1.
        -13    1    4    4    0    0 -0.30468301240E+01  0.12322663246E+01 -0.27331671218E+02  0.27528768039E+02  0.10566000000E+00 0.  1.
        -14    1    4    4    0    0 -0.21234780182E+02  0.10458353576E+02 -0.23431519856E+03  0.23550776065E+03  0.00000000000E+00 0.  1.
<mgrwt>
<rscale>  0 0.83876967E+02</rscale>
<asrwt>0</asrwt>
<pdfrwt beam="1">  1        1 0.70276662E-03 0.83876967E+02</pdfrwt>
<pdfrwt beam="2">  1       -2 0.59236257E-01 0.83876967E+02</pdfrwt>
<totfact> 0.53600285E+04</totfact>
</mgrwt>
</event>
<event>
 8    1  0.1241100E-024  0.7725340E+02  0.7818608E-02  0.1337032E+00
         -2   -1    0    0    0  501 -0.00000000000E+00  0.00000000000E+00  0.11342700375E+02  0.11342700662E+02  0.25500000000E-02 0.  1.
          1   -1    0    0  501    0  0.00000000000E+00 -0.00000000000E+00 -0.13154026311E+03  0.13154026321E+03  0.50400000000E-02 0. -1.
        -24    2    1    2    0    0  0.88817841970E-15  0.00000000000E+00 -0.12019756273E+03  0.14288296387E+03  0.77253396535E+02 0.  0.
         66    2    3    3    0    0  0.52599887486E+01 -0.36111649450E+02 -0.36868709245E+02  0.51913586078E+02  0.19999976083E+01 0.  0.
         13    1    3    3    0    0 -0.52599887486E+01  0.36111649450E+02 -0.83328853489E+02  0.90969377790E+02  0.10566000000E+00 0. -1.
         13    1    4    4    0    0  0.28899155489E+01 -0.17935550415E+02 -0.17312763772E+02  0.25095388700E+02  0.10566000000E+00 0.  1.
        -13    1    4    4    0    0  0.50016857607E+00 -0.19879518907E+01 -0.23475108298E+01  0.31183477124E+01  0.10566000000E+00 0. -1.
        -14    1    4    4    0    0  0.18699046236E+01 -0.16188147144E+02 -0.17208434644E+02  0.23699849665E+02  0.00000000000E+00 0.  1.
<mgrwt>
<rscale>  0 0.77253397E+02</rscale>
<asrwt>0</asrwt>
<pdfrwt beam="1">  1        1 0.20236963E-01 0.77253397E+02</pdfrwt>
<pdfrwt beam="2">  1       -2 0.17450309E-02 0.77253397E+02</pdfrwt>
<totfact> 0.16925798E+05</totfact>
</mgrwt>
</event>
<event>
 8    1  0.1241100E-024  0.8035880E+02  0.7818608E-02  0.1328036E+00
          1   -1    0    0  501    0  0.00000000000E+00  0.00000000000E+00  0.62721935839E+01  0.62721956088E+01  0.50400000000E-02 0. -1.
         -2   -1    0    0    0  501 -0.00000000000E+00 -0.00000000000E+00 -0.25738747999E+03  0.25738748000E+03  0.25500000000E-02 0.  1.
        -24    2    1    2    0    0  0.00000000000E+00  0.00000000000E+00 -0.25111528640E+03  0.26365967561E+03  0.80358804600E+02 0.  0.
         66    2    3    3    0    0  0.73211387877E+01 -0.11957183793E+02 -0.24909118099E+03  0.24949346637E+03  0.19999992782E+01 0.  0.
         13    1    3    3    0    0 -0.73211387877E+01  0.11957183793E+02 -0.20241054124E+01  0.14166209237E+02  0.10566000000E+00 0. -1.
         13    1    4    4    0    0  0.16874356644E+01 -0.25216330450E+01 -0.57327422965E+02  0.57407757840E+02  0.10566000000E+00 0.  1.
        -13    1    4    4    0    0  0.87214234860E+00 -0.27436288128E+01 -0.55376980252E+02  0.55451864145E+02  0.10566000000E+00 0. -1.
         14    1    4    4    0    0  0.47615607747E+01 -0.66919219350E+01 -0.13638677777E+03  0.13663384439E+03  0.00000000000E+00 0. -1.
<mgrwt>
<rscale>  0 0.80358805E+02</rscale>
<asrwt>0</asrwt>
<pdfrwt beam="1">  1        1 0.96495322E-03 0.80358805E+02</pdfrwt>
<pdfrwt beam="2">  1       -2 0.39598066E-01 0.80358805E+02</pdfrwt>
<totfact> 0.75166654E+04</totfact>
</mgrwt>
</event>
<event>
 8    1  0.1241100E-024  0.8199405E+02  0.7818608E-02  0.1323486E+00
         -2   -1    0    0    0  501 -0.00000000000E+00  0.00000000000E+00  0.81406053628E+01  0.81406057622E+01  0.25500000000E-02 0.  1.
          1   -1    0    0  501    0  0.00000000000E+00 -0.00000000000E+00 -0.20646571011E+03  0.20646571017E+03  0.50400000000E-02 0. -1.
        -24    2    1    2    0    0  0.00000000000E+00  0.00000000000E+00 -0.19832510475E+03  0.21460631593E+03  0.81994046526E+02 0.  0.
         66    2    3    3    0    0 -0.37781733990E+02  0.98023175862E+01 -0.13182866368E+03  0.13750033243E+03  0.19999993601E+01 0.  0.
         13    1    3    3    0    0  0.37781733990E+02 -0.98023175862E+01 -0.66496441067E+02  0.77105983503E+02  0.10566000000E+00 0. -1.
         13    1    4    4    0    0 -0.13784541613E+02  0.37052688359E+01 -0.51522029207E+02  0.53462821309E+02  0.10566000000E+00 0. -1.
        -13    1    4    4    0    0 -0.13380968693E+02  0.33741307431E+01 -0.45253119491E+02  0.47310580943E+02  0.10566000000E+00 0.  1.
         14    1    4    4    0    0 -0.10616223685E+02  0.27229180072E+01 -0.35053514982E+02  0.36726930179E+02  0.00000000000E+00 0. -1.
<mgrwt>
<rscale>  0 0.81994047E+02</rscale>
<asrwt>0</asrwt>
<pdfrwt beam="1">  1        1 0.31763952E-01 0.81994047E+02</pdfrwt>
<pdfrwt beam="2">  1       -2 0.12524010E-02 0.81994047E+02</pdfrwt>
<totfact> 0.15714971E+05</totfact>
</mgrwt>
</event>
<event>
 8    1  0.1241100E-024  0.7961555E+02  0.7818608E-02  0.1330146E+00
         -2   -1    0    0    0  501 -0.00000000000E+00  0.00000000000E+00  0.66079484335E+01  0.66079489256E+01  0.25500000000E-02 0.  1.
          1   -1    0    0  501    0  0.00000000000E+00 -0.00000000000E+00 -0.23981100319E+03  0.23981100325E+03  0.50400000000E-02 0. -1.
        -24    2    1    2    0    0  0.00000000000E+00  0.00000000000E+00 -0.23320305476E+03  0.24641895217E+03  0.79615546473E+02 0.  0.
         66    2    3    3    0    0 -0.32376078400E+02  0.16732400592E+02 -0.67301314760E+02  0.76561417217E+02  0.19999889031E+01 0.  0.
         13    1    3    3    0    0  0.32376078400E+02 -0.16732400592E+02 -0.16590174000E+03  0.16985753495E+03  0.10566000000E+00 0. -1.
         13    1    4    4    0    0 -0.18100995506E+01  0.12940795863E+01 -0.37672012559E+01  0.43765364956E+01  0.10566000000E+00 0. -1.
        -13    1    4    4    0    0 -0.25278395561E+02  0.13231985457E+02 -0.52550212578E+02  0.59796477550E+02  0.10566000000E+00 0.  1.
         14    1    4    4    0    0 -0.52875832889E+01  0.22063355487E+01 -0.10983900926E+02  0.12388403172E+02  0.00000000000E+00 0. -1.
<mgrwt>
<rscale>  0 0.79615546E+02</rscale>
<asrwt>0</asrwt>
<pdfrwt beam="1">  1        1 0.36893994E-01 0.79615546E+02</pdfrwt>
<pdfrwt beam="2">  1       -2 0.10166077E-02 0.79615546E+02</pdfrwt>
<totfact> 0.17496141E+05</totfact>
</mgrwt>
</event>
<event>
 8    1  0.1241100E-024  0.8024399E+02  0.7818608E-02  0.1328360E+00
          1   -1    0    0  501    0  0.00000000000E+00  0.00000000000E+00  0.73347634361E+02  0.73347634535E+02  0.50400000000E-02 0. -1.
         -2   -1    0    0    0  501 -0.00000000000E+00 -0.00000000000E+00 -0.21947188586E+02  0.21947188734E+02  0.25500000000E-02 0.  1.
        -24    2    1    2    0    0  0.00000000000E+00  0.00000000000E+00  0.51400445776E+02  0.95294823269E+02  0.80243987413E+02 0.  0.
         66    2    3    3    0    0 -0.55309202470E-01 -0.24079920045E+02 -0.12358625059E+02  0.27140029702E+02  0.19999976021E+01 0.  0.
         13    1    3    3    0    0  0.55309202470E-01  0.24079920045E+02  0.63759070834E+02  0.68154793567E+02  0.10566000000E+00 0. -1.
         13    1    4    4    0    0  0.11220658719E+00 -0.73856659269E+01 -0.30721989015E+01  0.80006388263E+01  0.10566000000E+00 0. -1.
        -13    1    4    4    0    0  0.63578080013E-01 -0.11872769454E+02 -0.71561363127E+01  0.13863193991E+02  0.10566000000E+00 0.  1.
        -14    1    4    4    0    0 -0.23109386967E+00 -0.48214846639E+01 -0.21302898446E+01  0.52761968844E+01  0.00000000000E+00 0.  1.
<mgrwt>
<rscale>  0 0.80243987E+02</rscale>
<asrwt>0</asrwt>
<pdfrwt beam="1">  1        1 0.11284252E-01 0.80243987E+02</pdfrwt>
<pdfrwt beam="2">  1       -2 0.33764905E-02 0.80243987E+02</pdfrwt>
<totfact> 0.13857995E+05</totfact>
</mgrwt>
</event>
<event>
 8    1  0.1241100E-024  0.8266271E+02  0.7818608E-02  0.1321660E+00
          1   -1    0    0  501    0  0.00000000000E+00  0.00000000000E+00  0.45731561635E+02  0.45731561913E+02  0.50400000000E-02 0. -1.
         -2   -1    0    0    0  501 -0.00000000000E+00 -0.00000000000E+00 -0.37354526773E+02  0.37354526860E+02  0.25500000000E-02 0.  1.
        -24    2    1    2    0    0  0.71054273576E-14  0.00000000000E+00  0.83770348621E+01  0.83086088773E+02  0.82662708851E+02 0.  0.
         66    2    3    3    0    0  0.38122662053E+02  0.22281339457E+01 -0.11636878736E+02  0.39971475886E+02  0.19999987192E+01 0.  0.
         13    1    3    3    0    0 -0.38122662053E+02 -0.22281339457E+01  0.20013913598E+02  0.43114612888E+02  0.10566000000E+00 0. -1.
         13    1    4    4    0    0  0.54507754961E+01  0.68011329971E+00 -0.13025750303E+01  0.56463593009E+01  0.10566000000E+00 0. -1.
        -13    1    4    4    0    0  0.24369778708E+02  0.16727571508E+01 -0.75434238763E+01  0.25565575264E+02  0.10566000000E+00 0.  1.
        -14    1    4    4    0    0  0.83021078490E+01 -0.12473650480E+00 -0.27908798292E+01  0.87595413209E+01  0.00000000000E+00 0.  1.
<mgrwt>
<rscale>  0 0.82662709E+02</rscale>
<asrwt>0</asrwt>
<pdfrwt beam="1">  1        1 0.70356249E-02 0.82662709E+02</pdfrwt>
<pdfrwt beam="2">  1       -2 0.57468503E-02 0.82662709E+02</pdfrwt>
<totfact> 0.11835324E+05</totfact>
</mgrwt>
</event>
<event>
 8    1  0.1241100E-024  0.7974793E+02  0.7818608E-02  0.1329768E+00
         -2   -1    0    0    0  501 -0.00000000000E+00  0.00000000000E+00  0.24451573263E+02  0.24451573396E+02  0.25500000000E-02 0.  1.
          1   -1    0    0  501    0  0.00000000000E+00 -0.00000000000E+00 -0.65023761354E+02  0.65023761549E+02  0.50400000000E-02 0. -1.
        -24    2    1    2    0    0  0.00000000000E+00  0.00000000000E+00 -0.40572188090E+02  0.89475334945E+02  0.79747934877E+02 0.  0.
         66    2    3    3    0    0 -0.37562126927E+00  0.32890603120E+02  0.49393138469E+01  0.33321609891E+02  0.19999998744E+01 0.  0.
         13    1    3    3    0    0  0.37562126927E+00 -0.32890603120E+02 -0.45511501937E+02  0.56153725055E+02  0.10566000000E+00 0. -1.
         13    1    4    4    0    0 -0.45803753432E+00  0.60353443962E+01  0.71072829476E+00  0.60952013181E+01  0.10566000000E+00 0. -1.
        -13    1    4    4    0    0 -0.16204060682E+00  0.13019089616E+02  0.13349392041E+01  0.13088780627E+02  0.10566000000E+00 0.  1.
        -14    1    4    4    0    0  0.24445687186E+00  0.13836169108E+02  0.28936463480E+01  0.14137627946E+02  0.00000000000E+00 0.  1.
<mgrwt>
<rscale>  0 0.79747935E+02</rscale>
<asrwt>0</asrwt>
<pdfrwt beam="1">  1        1 0.10003656E-01 0.79747935E+02</pdfrwt>
<pdfrwt beam="2">  1       -2 0.37617805E-02 0.79747935E+02</pdfrwt>
<totfact> 0.13829587E+05</totfact>
</mgrwt>
</event>
<event>
 8    1  0.1241100E-024  0.8603882E+02  0.7818608E-02  0.1312738E+00
         -2   -1    0    0    0  501 -0.00000000000E+00  0.00000000000E+00  0.51654296926E+01  0.51654303221E+01  0.25500000000E-02 0.  1.
          1   -1    0    0  501    0  0.00000000000E+00 -0.00000000000E+00 -0.35827987063E+03  0.35827987067E+03  0.50400000000E-02 0. -1.
        -24    2    1    2    0    0  0.00000000000E+00 -0.55511151231E-16 -0.35311444094E+03  0.36344530099E+03  0.86038819212E+02 0.  0.
         66    2    3    3    0    0 -0.42880208807E+02  0.12678158653E+00 -0.18996775852E+03  0.19475748421E+03  0.19999996035E+01 0.  0.
         13    1    3    3    0    0  0.42880208807E+02 -0.12678158653E+00 -0.16314668242E+03  0.16868781678E+03  0.10566000000E+00 0. -1.
         13    1    4    4    0    0 -0.10535762886E+02  0.76749706064E+00 -0.45408686526E+02  0.46621361278E+02  0.10566000000E+00 0. -1.
        -13    1    4    4    0    0 -0.23422626592E+02 -0.69361294671E+00 -0.10394762628E+03  0.10655618569E+03  0.10566000000E+00 0.  1.
        -14    1    4    4    0    0 -0.89218193286E+01  0.52897472602E-01 -0.40611445707E+02  0.41579937237E+02  0.00000000000E+00 0.  1.
<mgrwt>
<rscale>  0 0.86038819E+02</rscale>
<asrwt>0</asrwt>
<pdfrwt beam="1">  1        1 0.55119961E-01 0.86038819E+02</pdfrwt>
<pdfrwt beam="2">  1       -2 0.79468182E-03 0.86038819E+02</pdfrwt>
<totfact> 0.15382436E+05</totfact>
</mgrwt>
</event>
<event>
 8    1  0.1241100E-024  0.8020532E+02  0.7818608E-02  0.1328470E+00
         -2   -1    0    0    0  501 -0.00000000000E+00  0.00000000000E+00  0.22067582877E+02  0.22067583024E+02  0.25500000000E-02 0.  1.
          1   -1    0    0  501    0  0.00000000000E+00 -0.00000000000E+00 -0.72877188963E+02  0.72877189137E+02  0.50400000000E-02 0. -1.
        -24    2    1    2    0    0  0.00000000000E+00  0.17763568394E-14 -0.50809606086E+02  0.94944772162E+02  0.80205322081E+02 0.  0.
         66    2    3    3    0    0 -0.27251896687E+02  0.12450680697E+02  0.60894115458E+01  0.30639292657E+02  0.19999996769E+01 0.  0.
         13    1    3    3    0    0  0.27251896687E+02 -0.12450680697E+02 -0.56899017632E+02  0.64305479505E+02  0.10566000000E+00 0. -1.
         13    1    4    4    0    0 -0.56514663665E+01  0.25824072715E+01  0.89847333063E+00  0.62790379653E+01  0.10566000000E+00 0. -1.
        -13    1    4    4    0    0 -0.69389898906E+01  0.27183694869E+01  0.22491987206E+01  0.77851892906E+01  0.10566000000E+00 0.  1.
        -14    1    4    4    0    0 -0.14661440430E+02  0.71499039382E+01  0.29417394945E+01  0.16575065401E+02  0.00000000000E+00 0.  1.
<mgrwt>
<rscale>  0 0.80205322E+02</rscale>
<asrwt>0</asrwt>
<pdfrwt beam="1">  1        1 0.11211875E-01 0.80205322E+02</pdfrwt>
<pdfrwt beam="2">  1       -2 0.33950128E-02 0.80205322E+02</pdfrwt>
<totfact> 0.13862048E+05</totfact>
</mgrwt>
</event>
<event>
 8    1  0.1241100E-024  0.8652627E+02  0.7818608E-02  0.1311489E+00
          1   -1    0    0  501    0  0.00000000000E+00  0.00000000000E+00  0.45588258360E+02  0.45588258639E+02  0.50400000000E-02 0. -1.
         -2   -1    0    0    0  501 -0.00000000000E+00 -0.00000000000E+00 -0.41056599837E+02  0.41056599916E+02  0.25500000000E-02 0.  1.
        -24    2    1    2    0    0 -0.71054273576E-14  0.35527136788E-14  0.45316585230E+01  0.86644858555E+02  0.86526271068E+02 0.  0.
         66    2    3    3    0    0 -0.30351001635E+02  0.16672940779E+02 -0.23662923046E+02  0.41989334279E+02  0.20000028974E+01 0.  0.
         13    1    3    3    0    0  0.30351001635E+02 -0.16672940779E+02  0.28194581569E+02  0.44655524276E+02  0.10566000000E+00 0. -1.
         13    1    4    4    0    0 -0.65426589632E+01  0.37578682996E+01 -0.55429787830E+01  0.93628915561E+01  0.10566000000E+00 0.  1.
        -13    1    4    4    0    0 -0.28100875521E+01  0.21190383601E+01 -0.23493672159E+01  0.42329193204E+01  0.10566000000E+00 0.  1.
        -14    1    4    4    0    0 -0.20998255120E+02  0.10796034120E+02 -0.15770577047E+02  0.28393523402E+02  0.00000000000E+00 0.  1.
<mgrwt>
<rscale>  0 0.86526271E+02</rscale>
<asrwt>0</asrwt>
<pdfrwt beam="1">  1        1 0.70135782E-02 0.86526271E+02</pdfrwt>
<pdfrwt beam="2">  1       -2 0.63164000E-02 0.86526271E+02</pdfrwt>
<totfact> 0.10397461E+05</totfact>
</mgrwt>
</event>
<event>
 8    1  0.1241100E-024  0.7859457E+02  0.7818608E-02  0.1333088E+00
         -2   -1    0    0    0  501 -0.00000000000E+00  0.00000000000E+00  0.52717988911E+01  0.52717995078E+01  0.25500000000E-02 0.  1.
          1   -1    0    0  501    0  0.00000000000E+00 -0.00000000000E+00 -0.29293161848E+03  0.29293161852E+03  0.50400000000E-02 0. -1.
        -24    2    1    2    0    0  0.00000000000E+00  0.00000000000E+00 -0.28765981959E+03  0.29820341803E+03  0.78594571820E+02 0.  0.
         66    2    3    3    0    0  0.19280257601E+02 -0.29920136618E+02 -0.80965513811E+02  0.88466701852E+02  0.20000003804E+01 0.  0.
         13    1    3    3    0    0 -0.19280257601E+02  0.29920136618E+02 -0.20669430578E+03  0.20973671618E+03  0.10566000000E+00 0. -1.
         13    1    4    4    0    0  0.73512502108E+01 -0.11785514310E+02 -0.33476964900E+02  0.36244414330E+02  0.10566000000E+00 0. -1.
        -13    1    4    4    0    0  0.97242348070E+01 -0.15025635821E+02 -0.39895380786E+02  0.43726228359E+02  0.10566000000E+00 0.  1.
         14    1    4    4    0    0  0.22047725833E+01 -0.31089864876E+01 -0.75931681249E+01  0.84960591628E+01  0.00000000000E+00 0. -1.
<mgrwt>
<rscale>  0 0.78594572E+02</rscale>
<asrwt>0</asrwt>
<pdfrwt beam="1">  1        1 0.45066390E-01 0.78594572E+02</pdfrwt>
<pdfrwt beam="2">  1       -2 0.81104626E-03 0.78594572E+02</pdfrwt>
<totfact> 0.18818236E+05</totfact>
</mgrwt>
</event>
<event>
 8    1  0.1241100E-024  0.7854729E+02  0.7818608E-02  0.1333225E+00
         -2   -1    0    0    0  501 -0.00000000000E+00  0.00000000000E+00  0.10469481590E+02  0.10469481901E+02  0.25500000000E-02 0.  1.
          1   -1    0    0  501    0  0.00000000000E+00 -0.00000000000E+00 -0.14732524850E+03  0.14732524859E+03  0.50400000000E-02 0. -1.
        -24    2    1    2    0    0  0.00000000000E+00  0.00000000000E+00 -0.13685576691E+03  0.15779473049E+03  0.78547285332E+02 0.  0.
         66    2    3    3    0    0 -0.10269087053E+02  0.34937646132E+02 -0.39062228089E+02  0.53441097750E+02  0.19999998447E+01 0.  0.
         13    1    3    3    0    0  0.10269087053E+02 -0.34937646132E+02 -0.97793538824E+02  0.10435363274E+03  0.10566000000E+00 0. -1.
         13    1    4    4    0    0 -0.14723017870E+01  0.73036999204E+01 -0.78564352645E+01  0.10828039720E+02  0.10566000000E+00 0. -1.
        -13    1    4    4    0    0 -0.35428576264E+01  0.10545159777E+02 -0.12647622543E+02  0.16844160855E+02  0.10566000000E+00 0.  1.
        -14    1    4    4    0    0 -0.52539276393E+01  0.17088786435E+02 -0.18558170281E+02  0.25768897175E+02  0.00000000000E+00 0.  1.
<mgrwt>
<rscale>  0 0.78547285E+02</rscale>
<asrwt>0</asrwt>
<pdfrwt beam="1">  1        1 0.22665421E-01 0.78547285E+02</pdfrwt>
<pdfrwt beam="2">  1       -2 0.16106896E-02 0.78547285E+02</pdfrwt>
<totfact> 0.16525432E+05</totfact>
</mgrwt>
</event>
<event>
 8    1  0.1241100E-024  0.7986254E+02  0.7818608E-02  0.1329442E+00
         -2   -1    0    0    0  501 -0.00000000000E+00  0.00000000000E+00  0.40130909039E+03  0.40130909040E+03  0.25500000000E-02 0.  1.
          1   -1    0    0  501    0  0.00000000000E+00 -0.00000000000E+00 -0.39732609844E+01  0.39732641809E+01  0.50400000000E-02 0. -1.
        -24    2    1    2    0    0 -0.88817841970E-15 -0.35527136788E-14  0.39733582941E+03  0.40528235458E+03  0.79862541931E+02 0.  0.
         66    2    3    3    0    0  0.77431022268E+01 -0.30703371022E+02  0.32204159330E+03  0.32360074233E+03  0.19999999302E+01 0.  0.
         13    1    3    3    0    0 -0.77431022268E+01  0.30703371022E+02  0.75294236109E+02  0.81681612249E+02  0.10566000000E+00 0. -1.
         13    1    4    4    0    0  0.28303464567E+01 -0.11547521347E+02  0.12680296605E+03  0.12735917507E+03  0.10566000000E+00 0.  1.
        -13    1    4    4    0    0  0.37460210489E+01 -0.13732965260E+02  0.14542616381E+03  0.14612120754E+03  0.10566000000E+00 0. -1.
         14    1    4    4    0    0  0.11667347212E+01 -0.54228844149E+01  0.49812463437E+02  0.50120359725E+02  0.00000000000E+00 0. -1.
<mgrwt>
<rscale>  0 0.79862542E+02</rscale>
<asrwt>0</asrwt>
<pdfrwt beam="1">  1        1 0.61127117E-03 0.79862542E+02</pdfrwt>
<pdfrwt beam="2">  1       -2 0.61739860E-01 0.79862542E+02</pdfrwt>
<totfact> 0.59228113E+04</totfact>
</mgrwt>
</event>
<event>
 8    1  0.1241100E-024  0.8080876E+02  0.7818608E-02  0.1326772E+00
          1   -1    0    0  501    0  0.00000000000E+00  0.00000000000E+00  0.11547841118E+02  0.11547842217E+02  0.50400000000E-02 0. -1.
         -2   -1    0    0    0  501 -0.00000000000E+00 -0.00000000000E+00 -0.14136962816E+03  0.14136962818E+03  0.25500000000E-02 0.  1.
        -24    2    1    2    0    0 -0.35527136788E-14  0.00000000000E+00 -0.12982178704E+03  0.15291747040E+03  0.80808764145E+02 0.  0.
         66    2    3    3    0    0 -0.29887473318E+02 -0.21793186611E+02 -0.34302554602E+02  0.50486327801E+02  0.19999996654E+01 0.  0.
         13    1    3    3    0    0  0.29887473318E+02  0.21793186611E+02 -0.95519232436E+02  0.10243114259E+03  0.10566000000E+00 0. -1.
         13    1    4    4    0    0 -0.22576941964E+02 -0.16212236115E+02 -0.25035055908E+02  0.37407487174E+02  0.10566000000E+00 0. -1.
        -13    1    4    4    0    0 -0.62337783061E+01 -0.46818869103E+01 -0.82083499979E+01  0.11321140876E+02  0.10566000000E+00 0.  1.
         14    1    4    4    0    0 -0.10767530476E+01 -0.89906358556E+00 -0.10591486961E+01  0.17576997516E+01  0.00000000000E+00 0. -1.
<mgrwt>
<rscale>  0 0.80808764E+02</rscale>
<asrwt>0</asrwt>
<pdfrwt beam="1">  1        1 0.17765911E-02 0.80808764E+02</pdfrwt>
<pdfrwt beam="2">  1       -2 0.21749172E-01 0.80808764E+02</pdfrwt>
<totfact> 0.93869022E+04</totfact>
</mgrwt>
</event>
<event>
 8    1  0.1241100E-024  0.8146658E+02  0.7818608E-02  0.1324940E+00
          1   -1    0    0  501    0  0.00000000000E+00  0.00000000000E+00  0.12646171017E+03  0.12646171027E+03  0.50400000000E-02 0. -1.
         -2   -1    0    0    0  501 -0.00000000000E+00 -0.00000000000E+00 -0.13120184762E+02  0.13120185010E+02  0.25500000000E-02 0.  1.
        -24    2    1    2    0    0  0.00000000000E+00  0.00000000000E+00  0.11334152541E+03  0.13958189528E+03  0.81466582771E+02 0.  0.
         66    2    3    3    0    0 -0.88187648274E+01  0.29957947645E+02  0.11961849493E+02  0.33501269845E+02  0.19999994360E+01 0.  0.
         13    1    3    3    0    0  0.88187648274E+01 -0.29957947645E+02  0.10137967592E+03  0.10608062544E+03  0.10566000000E+00 0. -1.
         13    1    4    4    0    0 -0.40607657386E+01  0.10703908387E+02  0.41997439317E+01  0.12194772908E+02  0.10566000000E+00 0. -1.
        -13    1    4    4    0    0 -0.11284366248E+01  0.52406569017E+01  0.23044812382E+01  0.58360647520E+01  0.10566000000E+00 0.  1.
        -14    1    4    4    0    0 -0.36295624640E+01  0.14013382356E+02  0.54576243233E+01  0.15470432185E+02  0.00000000000E+00 0.  1.
<mgrwt>
<rscale>  0 0.81466583E+02</rscale>
<asrwt>0</asrwt>
<pdfrwt beam="1">  1        1 0.19455648E-01 0.81466583E+02</pdfrwt>
<pdfrwt beam="2">  1       -2 0.20184899E-02 0.81466583E+02</pdfrwt>
<totfact> 0.14578349E+05</totfact>
</mgrwt>
</event>
<event>
 8    1  0.1241100E-024  0.7880239E+02  0.7818608E-02  0.1332485E+00
          1   -1    0    0  501    0  0.00000000000E+00  0.00000000000E+00  0.80956171492E+02  0.80956171649E+02  0.50400000000E-02 0. -1.
         -2   -1    0    0    0  501 -0.00000000000E+00 -0.00000000000E+00 -0.19176476353E+02  0.19176476523E+02  0.25500000000E-02 0.  1.
        -24    2    1    2    0    0 -0.35527136788E-14  0.35527136788E-14  0.61779695138E+02  0.10013264817E+03  0.78802388913E+02 0.  0.
         66    2    3    3    0    0  0.28526299635E+02 -0.19597327538E+02  0.54771571039E+02  0.64820752372E+02  0.19999816292E+01 0.  0.
         13    1    3    3    0    0 -0.28526299635E+02  0.19597327538E+02  0.70081240993E+01  0.35311895799E+02  0.10566000000E+00 0. -1.
         13    1    4    4    0    0  0.52081067986E+01 -0.41257716202E+01  0.10631536050E+02  0.12537427595E+02  0.10566000000E+00 0. -1.
        -13    1    4    4    0    0  0.18126740038E+02 -0.12655782563E+02  0.34327924008E+02  0.40830932728E+02  0.10566000000E+00 0.  1.
        -14    1    4    4    0    0  0.51914527985E+01 -0.28157733545E+01  0.98121109806E+01  0.11452392049E+02  0.00000000000E+00 0.  1.
<mgrwt>
<rscale>  0 0.78802389E+02</rscale>
<asrwt>0</asrwt>
<pdfrwt beam="1">  1        1 0.12454796E-01 0.78802389E+02</pdfrwt>
<pdfrwt beam="2">  1       -2 0.29502272E-02 0.78802389E+02</pdfrwt>
<totfact> 0.14791066E+05</totfact>
</mgrwt>
</event>
<event>
 8    1  0.1241100E-024  0.7866797E+02  0.7818608E-02  0.1332875E+00
         -2   -1    0    0    0  501 -0.00000000000E+00  0.00000000000E+00  0.47788370609E+03  0.47788370609E+03  0.25500000000E-02 0.  1.
          1   -1    0    0  501    0  0.00000000000E+00 -0.00000000000E+00 -0.32375267868E+01  0.32375307098E+01  0.50400000000E-02 0. -1.
        -24    2    1    2    0    0  0.00000000000E+00  0.00000000000E+00  0.47464617930E+03  0.48112123680E+03  0.78667966665E+02 0.  0.
         66    2    3    3    0    0  0.44406247386E+01 -0.20081222492E+02  0.44235077695E+03  0.44283313393E+03  0.19999976427E+01 0.  0.
         13    1    3    3    0    0 -0.44406247386E+01  0.20081222492E+02  0.32295402345E+02  0.38288102871E+02  0.10566000000E+00 0. -1.
         13    1    4    4    0    0  0.24962623602E+01 -0.84839196277E+01  0.20552090019E+03  0.20571110762E+03  0.10566000000E+00 0. -1.
        -13    1    4    4    0    0  0.10131329303E+01 -0.48590103711E+01  0.99352886580E+02  0.99476849850E+02  0.10566000000E+00 0.  1.
         14    1    4    4    0    0  0.93122944806E+00 -0.67382924929E+01  0.13747699018E+03  0.13764517647E+03  0.00000000000E+00 0. -1.
<mgrwt>
<rscale>  0 0.78667967E+02</rscale>
<asrwt>0</asrwt>
<pdfrwt beam="1">  1        1 0.49808177E-03 0.78667967E+02</pdfrwt>
<pdfrwt beam="2">  1       -2 0.73520509E-01 0.78667967E+02</pdfrwt>
<totfact> 0.54451508E+04</totfact>
</mgrwt>
</event>
<event>
 8    1  0.1241100E-024  0.7915133E+02  0.7818608E-02  0.1331477E+00
         -2   -1    0    0    0  501 -0.00000000000E+00  0.00000000000E+00  0.11682749747E+03  0.11682749750E+03  0.25500000000E-02 0.  1.
          1   -1    0    0  501    0  0.00000000000E+00 -0.00000000000E+00 -0.13406373030E+02  0.13406373977E+02  0.50400000000E-02 0. -1.
        -24    2    1    2    0    0  0.00000000000E+00  0.35527136788E-14  0.10342112444E+03  0.13023387148E+03  0.79151325314E+02 0.  0.
         66    2    3    3    0    0  0.83312215327E+00  0.26935911577E+02  0.99374010024E+02  0.10298267473E+03  0.20000002725E+01 0.  0.
         13    1    3    3    0    0 -0.83312215327E+00 -0.26935911577E+02  0.40471144182E+01  0.27251196747E+02  0.10566000000E+00 0. -1.
         13    1    4    4    0    0  0.31931189569E-01  0.70124917530E+01  0.24364709078E+02  0.25354018867E+02  0.10566000000E+00 0. -1.
        -13    1    4    4    0    0  0.30553272961E+00  0.14944100841E+01  0.46944756613E+01  0.49371932835E+01  0.10566000000E+00 0.  1.
        -14    1    4    4    0    0  0.49565823409E+00  0.18429009740E+02  0.70314825285E+02  0.72691462579E+02  0.00000000000E+00 0.  1.
<mgrwt>
<rscale>  0 0.79151325E+02</rscale>
<asrwt>0</asrwt>
<pdfrwt beam="1">  1        1 0.20625190E-02 0.79151325E+02</pdfrwt>
<pdfrwt beam="2">  1       -2 0.17973461E-01 0.79151325E+02</pdfrwt>
<totfact> 0.10472691E+05</totfact>
</mgrwt>
</event>
<event>
 8    1  0.1241100E-024  0.7873414E+02  0.7818608E-02  0.1332683E+00
          1   -1    0    0  501    0  0.00000000000E+00  0.00000000000E+00  0.37715708435E+02  0.37715708772E+02  0.50400000000E-02 0. -1.
         -2   -1    0    0    0  501 -0.00000000000E+00 -0.00000000000E+00 -0.41090730339E+02  0.41090730418E+02  0.25500000000E-02 0.  1.
        -24    2    1    2    0    0  0.17763568394E-14  0.00000000000E+00 -0.33750219037E+01  0.78806439190E+02  0.78734135450E+02 0.  0.
         66    2    3    3    0    0  0.15303414775E+02  0.36175611436E+02  0.52516129847E+00  0.39333765610E+02  0.19999890363E+01 0.  0.
         13    1    3    3    0    0 -0.15303414775E+02 -0.36175611436E+02 -0.39001832022E+01  0.39472673580E+02  0.10566000000E+00 0. -1.
         13    1    4    4    0    0  0.27257730827E+01  0.79876333057E+01  0.50913721453E+00  0.84559156490E+01  0.10566000000E+00 0. -1.
        -13    1    4    4    0    0  0.11386713195E+02  0.25441968980E+02  0.25476210889E+00  0.27875205662E+02  0.10566000000E+00 0.  1.
         14    1    4    4    0    0  0.11909284973E+01  0.27460091504E+01 -0.23873802495E+00  0.30026442987E+01  0.00000000000E+00 0. -1.
<mgrwt>
<rscale>  0 0.78734135E+02</rscale>
<asrwt>0</asrwt>
<pdfrwt beam="1">  1        1 0.58024167E-02 0.78734135E+02</pdfrwt>
<pdfrwt beam="2">  1       -2 0.63216509E-02 0.78734135E+02</pdfrwt>
<totfact> 0.13155333E+05</totfact>
</mgrwt>
</event>
<event>
 8    1  0.1241100E-024  0.8401071E+02  0.7818608E-02  0.1318040E+00
         -2   -1    0    0    0  501 -0.00000000000E+00  0.00000000000E+00  0.14179127995E+03  0.14179127997E+03  0.25500000000E-02 0.  1.
          1   -1    0    0  501    0  0.00000000000E+00 -0.00000000000E+00 -0.12443992596E+02  0.12443993616E+02  0.50400000000E-02 0. -1.
        -24    2    1    2    0    0 -0.35527136788E-14  0.17763568394E-14  0.12934728735E+03  0.15423527359E+03  0.84010706895E+02 0.  0.
         66    2    3    3    0    0 -0.26771085926E+02  0.14019252013E+02  0.11821067785E+03  0.12202866395E+03  0.20000002944E+01 0.  0.
         13    1    3    3    0    0  0.26771085926E+02 -0.14019252013E+02  0.11136609507E+02  0.32206609632E+02  0.10566000000E+00 0. -1.
         13    1    4    4    0    0 -0.74194112835E+01  0.43554182957E+01  0.31741820874E+02  0.32887257239E+02  0.10566000000E+00 0. -1.
        -13    1    4    4    0    0 -0.18666434585E+01  0.10941543971E+01  0.10038947168E+02  0.10270012459E+02  0.10566000000E+00 0.  1.
        -14    1    4    4    0    0 -0.17485031184E+02  0.85696793204E+01  0.76429909804E+02  0.78871394255E+02  0.00000000000E+00 0.  1.
<mgrwt>
<rscale>  0 0.84010707E+02</rscale>
<asrwt>0</asrwt>
<pdfrwt beam="1">  1        1 0.19144606E-02 0.84010707E+02</pdfrwt>
<pdfrwt beam="2">  1       -2 0.21814042E-01 0.84010707E+02</pdfrwt>
<totfact> 0.84848401E+04</totfact>
</mgrwt>
</event>
<event>
 8    1  0.1241100E-024  0.7875987E+02  0.7818608E-02  0.1332608E+00
          1   -1    0    0  501    0  0.00000000000E+00  0.00000000000E+00  0.54613783320E+01  0.54613806576E+01  0.50400000000E-02 0. -1.
         -2   -1    0    0    0  501 -0.00000000000E+00 -0.00000000000E+00 -0.28395375377E+03  0.28395375378E+03  0.25500000000E-02 0.  1.
        -24    2    1    2    0    0  0.00000000000E+00  0.00000000000E+00 -0.27849237544E+03  0.28941513444E+03  0.78759868368E+02 0.  0.
         66    2    3    3    0    0 -0.78525843881E+01 -0.17457664443E+02 -0.26568933939E+03  0.26638554423E+03  0.19999940928E+01 0.  0.
         13    1    3    3    0    0  0.78525843881E+01  0.17457664443E+02 -0.12803036046E+02  0.23029590213E+02  0.10566000000E+00 0. -1.
         13    1    4    4    0    0 -0.96656183432E+00 -0.12044196057E+01 -0.21775513289E+02  0.21830460632E+02  0.10566000000E+00 0. -1.
        -13    1    4    4    0    0 -0.35290657142E+01 -0.86763695421E+01 -0.12078214192E+03  0.12114483342E+03  0.10566000000E+00 0.  1.
         14    1    4    4    0    0 -0.33569568396E+01 -0.75768752950E+01 -0.12313168419E+03  0.12341025018E+03  0.00000000000E+00 0. -1.
<mgrwt>
<rscale>  0 0.78759868E+02</rscale>
<asrwt>0</asrwt>
<pdfrwt beam="1">  1        1 0.84021245E-03 0.78759868E+02</pdfrwt>
<pdfrwt beam="2">  1       -2 0.43685181E-01 0.78759868E+02</pdfrwt>
<totfact> 0.75339011E+04</totfact>
</mgrwt>
</event>
<event>
 8    1  0.1241100E-024  0.7453155E+02  0.7818608E-02  0.1345328E+00
          1   -1    0    0  501    0  0.00000000000E+00  0.00000000000E+00  0.12426713623E+03  0.12426713634E+03  0.50400000000E-02 0. -1.
         -2   -1    0    0    0  501 -0.00000000000E+00 -0.00000000000E+00 -0.11175424190E+02  0.11175424481E+02  0.25500000000E-02 0.  1.
        -24    2    1    2    0    0  0.00000000000E+00  0.35527136788E-14  0.11309171204E+03  0.13544256082E+03  0.74531550015E+02 0.  0.
         66    2    3    3    0    0  0.15177109347E+02 -0.30568703536E+02  0.29513510110E+02  0.45164560803E+02  0.19999973822E+01 0.  0.
         13    1    3    3    0    0 -0.15177109347E+02  0.30568703536E+02  0.83578201935E+02  0.90278000015E+02  0.10566000000E+00 0. -1.
         13    1    4    4    0    0  0.42795021759E+01 -0.84843077464E+01  0.72673761082E+01  0.11963424942E+02  0.10566000000E+00 0. -1.
        -13    1    4    4    0    0  0.71681869470E+01 -0.13497172809E+02  0.13652421356E+02  0.20492836575E+02  0.10566000000E+00 0.  1.
         14    1    4    4    0    0  0.37294202238E+01 -0.85872229799E+01  0.85937126461E+01  0.12708299287E+02  0.00000000000E+00 0. -1.
<mgrwt>
<rscale>  0 0.74531550E+02</rscale>
<asrwt>0</asrwt>
<pdfrwt beam="1">  1        1 0.19118019E-01 0.74531550E+02</pdfrwt>
<pdfrwt beam="2">  1       -2 0.17192962E-02 0.74531550E+02</pdfrwt>
<totfact> 0.18438850E+05</totfact>
</mgrwt>
</event>
<event>
 8    1  0.1241100E-024  0.7849990E+02  0.7818608E-02  0.1333363E+00
          1   -1    0    0  501    0  0.00000000000E+00  0.00000000000E+00  0.50306689859E+02  0.50306690112E+02  0.50400000000E-02 0. -1.
         -2   -1    0    0    0  501 -0.00000000000E+00 -0.00000000000E+00 -0.30623331076E+02  0.30623331182E+02  0.25500000000E-02 0.  1.
        -24    2    1    2    0    0  0.00000000000E+00  0.00000000000E+00  0.19683358784E+02  0.80930021294E+02  0.78499896393E+02 0.  0.
         66    2    3    3    0    0  0.36525412166E+01 -0.37559379562E+02  0.20880034700E+02  0.43174342943E+02  0.19999972807E+01 0.  0.
         13    1    3    3    0    0 -0.36525412166E+01  0.37559379562E+02 -0.11966759161E+01  0.37755678350E+02  0.10566000000E+00 0. -1.
         13    1    4    4    0    0  0.22060599915E+01 -0.25915023664E+02  0.14988499382E+02  0.30018684680E+02  0.10566000000E+00 0. -1.
        -13    1    4    4    0    0  0.22133714763E+00 -0.31213036650E+01  0.12272840804E+01  0.33628733179E+01  0.10566000000E+00 0.  1.
        -14    1    4    4    0    0  0.12251440775E+01 -0.85230522334E+01  0.46642512372E+01  0.97927849455E+01  0.00000000000E+00 0.  1.
<mgrwt>
<rscale>  0 0.78499896E+02</rscale>
<asrwt>0</asrwt>
<pdfrwt beam="1">  1        1 0.77394907E-02 0.78499896E+02</pdfrwt>
<pdfrwt beam="2">  1       -2 0.47112818E-02 0.78499896E+02</pdfrwt>
<totfact> 0.13880384E+05</totfact>
</mgrwt>
</event>
<event>
 8    1  0.1241100E-024  0.8014741E+02  0.7818608E-02  0.1328634E+00
         -2   -1    0    0    0  501 -0.00000000000E+00  0.00000000000E+00  0.13754181034E+02  0.13754181271E+02  0.25500000000E-02 0.  1.
          1   -1    0    0  501    0  0.00000000000E+00 -0.00000000000E+00 -0.11675735243E+03  0.11675735254E+03  0.50400000000E-02 0. -1.
        -24    2    1    2    0    0  0.00000000000E+00  0.00000000000E+00 -0.10300317140E+03  0.13051153381E+03  0.80147408815E+02 0.  0.
         66    2    3    3    0    0  0.94597110441E+01 -0.20873897916E+02  0.19484719119E+01  0.23086842307E+02  0.19999994188E+01 0.  0.
         13    1    3    3    0    0 -0.94597110441E+01  0.20873897916E+02 -0.10495164331E+03  0.10742469150E+03  0.10566000000E+00 0. -1.
         13    1    4    4    0    0  0.33117778377E+01 -0.80826938085E+01  0.33691198040E+00  0.87419955026E+01  0.10566000000E+00 0. -1.
        -13    1    4    4    0    0  0.45474659568E+01 -0.81937176085E+01  0.75539065672E+00  0.94020335011E+01  0.10566000000E+00 0.  1.
         14    1    4    4    0    0  0.16004672496E+01 -0.45974864993E+01  0.85616927476E+00  0.49428133037E+01  0.00000000000E+00 0. -1.
<mgrwt>
<rscale>  0 0.80147409E+02</rscale>
<asrwt>0</asrwt>
<pdfrwt beam="1">  1        1 0.17962669E-01 0.80147409E+02</pdfrwt>
<pdfrwt beam="2">  1       -2 0.21160279E-02 0.80147409E+02</pdfrwt>
<totfact> 0.15019430E+05</totfact>
</mgrwt>
</event>
<event>
 8    1  0.1241100E-024  0.7974004E+02  0.7818608E-02  0.1329791E+00
         -2   -1    0    0    0  501 -0.00000000000E+00  0.00000000000E+00  0.74308183504E+02  0.74308183547E+02  0.25500000000E-02 0.  1.
          1   -1    0    0  501    0  0.00000000000E+00 -0.00000000000E+00 -0.21392238211E+02  0.21392238805E+02  0.50400000000E-02 0. -1.
        -24    2    1    2    0    0  0.35527136788E-14  0.00000000000E+00  0.52915945293E+02  0.95700422352E+02  0.79740037448E+02 0.  0.
         66    2    3    3    0    0  0.28631288621E+02 -0.65700684868E+01 -0.58338433246E+01  0.30015832724E+02  0.19999995361E+01 0.  0.
         13    1    3    3    0    0 -0.28631288621E+02  0.65700684868E+01  0.58749788617E+02  0.65684589628E+02  0.10566000000E+00 0. -1.
         13    1    4    4    0    0  0.54903918977E+00 -0.13596937547E+00 -0.25828856827E+00  0.63072079645E+00  0.10566000000E+00 0. -1.
        -13    1    4    4    0    0  0.10711862086E+02 -0.20070232333E+01 -0.14945459435E+01  0.11000771029E+02  0.10566000000E+00 0.  1.
        -14    1    4    4    0    0  0.17370387345E+02 -0.44270758780E+01 -0.40810088129E+01  0.18384340899E+02  0.00000000000E+00 0.  1.
<mgrwt>
<rscale>  0 0.79740037E+02</rscale>
<asrwt>0</asrwt>
<pdfrwt beam="1">  1        1 0.32911136E-02 0.79740037E+02</pdfrwt>
<pdfrwt beam="2">  1       -2 0.11432028E-01 0.79740037E+02</pdfrwt>
<totfact> 0.11446307E+05</totfact>
</mgrwt>
</event>
<event>
 8    1  0.1241100E-024  0.7898747E+02  0.7818608E-02  0.1331950E+00
          1   -1    0    0  501    0  0.00000000000E+00  0.00000000000E+00  0.48996006831E+02  0.48996007090E+02  0.50400000000E-02 0. -1.
         -2   -1    0    0    0  501 -0.00000000000E+00 -0.00000000000E+00 -0.31834333776E+02  0.31834333878E+02  0.25500000000E-02 0.  1.
        -24    2    1    2    0    0  0.00000000000E+00  0.00000000000E+00  0.17161673055E+02  0.80830340967E+02  0.78987473683E+02 0.  0.
         66    2    3    3    0    0  0.61936467217E+01 -0.13609175184E+02 -0.28792300740E+02  0.32504884110E+02  0.20000000575E+01 0.  0.
         13    1    3    3    0    0 -0.61936467217E+01  0.13609175184E+02  0.45953973795E+02  0.48325456857E+02  0.10566000000E+00 0. -1.
         13    1    4    4    0    0  0.30515150304E+01 -0.88609182886E+01 -0.17896586029E+02  0.20202142768E+02  0.10566000000E+00 0. -1.
        -13    1    4    4    0    0  0.21652933689E+01 -0.30703470523E+01 -0.67814272512E+01  0.77533506301E+01  0.10566000000E+00 0.  1.
         14    1    4    4    0    0  0.97683832245E+00 -0.16779098432E+01 -0.41142874598E+01  0.45493907121E+01  0.00000000000E+00 0. -1.
<mgrwt>
<rscale>  0 0.78987474E+02</rscale>
<asrwt>0</asrwt>
<pdfrwt beam="1">  1        1 0.75378473E-02 0.78987474E+02</pdfrwt>
<pdfrwt beam="2">  1       -2 0.48975898E-02 0.78987474E+02</pdfrwt>
<totfact> 0.13588172E+05</totfact>
</mgrwt>
</event>
<event>
 8    1  0.1241100E-024  0.7461328E+02  0.7818608E-02  0.1345073E+00
          1   -1    0    0  501    0  0.00000000000E+00  0.00000000000E+00  0.14549463566E+03  0.14549463575E+03  0.50400000000E-02 0. -1.
         -2   -1    0    0    0  501 -0.00000000000E+00 -0.00000000000E+00 -0.95658877130E+01  0.95658880528E+01  0.25500000000E-02 0.  1.
        -24    2    1    2    0    0  0.00000000000E+00  0.88817841970E-15  0.13592874795E+03  0.15506052380E+03  0.74613279802E+02 0.  0.
         66    2    3    3    0    0  0.24402961775E+02 -0.76015243420E+01  0.11614334707E+02  0.28145701108E+02  0.20000011218E+01 0.  0.
         13    1    3    3    0    0 -0.24402961775E+02  0.76015243420E+01  0.12431441324E+03  0.12691482269E+03  0.10566000000E+00 0. -1.
         13    1    4    4    0    0  0.46190727975E+01 -0.21254015140E+01  0.19966059048E+01  0.54635852953E+01  0.10566000000E+00 0. -1.
        -13    1    4    4    0    0  0.14372281366E+02 -0.37485420305E+01  0.72379316462E+01  0.16523100725E+02  0.10566000000E+00 0.  1.
        -14    1    4    4    0    0  0.54116076114E+01 -0.17275807975E+01  0.23797971560E+01  0.61590150881E+01  0.00000000000E+00 0.  1.
<mgrwt>
<rscale>  0 0.74613280E+02</rscale>
<asrwt>0</asrwt>
<pdfrwt beam="1">  1        1 0.22383791E-01 0.74613280E+02</pdfrwt>
<pdfrwt beam="2">  1       -2 0.14716750E-02 0.74613280E+02</pdfrwt>
<totfact> 0.18901682E+05</totfact>
</mgrwt>
</event>
<event>
 8    1  0.1241100E-024  0.7906431E+02  0.7818608E-02  0.1331728E+00
          1   -1    0    0  501    0  0.00000000000E+00  0.00000000000E+00  0.18849334027E+03  0.18849334034E+03  0.50400000000E-02 0. -1.
         -2   -1    0    0    0  501 -0.00000000000E+00 -0.00000000000E+00 -0.82909634145E+01  0.82909638066E+01  0.25500000000E-02 0.  1.
        -24    2    1    2    0    0 -0.88817841970E-15 -0.71054273576E-14  0.18020237685E+03  0.19678430414E+03  0.79064313903E+02 0.  0.
         66    2    3    3    0    0 -0.78195244038E+01 -0.34259105350E+02  0.45223249381E+02  0.57305964324E+02  0.20000003032E+01 0.  0.
         13    1    3    3    0    0  0.78195244038E+01  0.34259105350E+02  0.13497912747E+03  0.13947833982E+03  0.10566000000E+00 0. -1.
         13    1    4    4    0    0 -0.15703708191E+01 -0.47207002243E+01  0.62647609173E+01  0.80005917596E+01  0.10566000000E+00 0. -1.
        -13    1    4    4    0    0 -0.24589024681E+01 -0.90534200332E+01  0.11666402038E+02  0.14970862239E+02  0.10566000000E+00 0.  1.
        -14    1    4    4    0    0 -0.37902511166E+01 -0.20484985092E+02  0.27292086426E+02  0.34334510325E+02  0.00000000000E+00 0.  1.
<mgrwt>
<rscale>  0 0.79064314E+02</rscale>
<asrwt>0</asrwt>
<pdfrwt beam="1">  1        1 0.28998974E-01 0.79064314E+02</pdfrwt>
<pdfrwt beam="2">  1       -2 0.12755329E-02 0.79064314E+02</pdfrwt>
<totfact> 0.17007159E+05</totfact>
</mgrwt>
</event>
<event>
 8    1  0.1241100E-024  0.8062116E+02  0.7818608E-02  0.1327298E+00
         -2   -1    0    0    0  501 -0.00000000000E+00  0.00000000000E+00  0.16318953546E+03  0.16318953548E+03  0.25500000000E-02 0.  1.
          1   -1    0    0  501    0  0.00000000000E+00 -0.00000000000E+00 -0.99573963238E+01  0.99573975993E+01  0.50400000000E-02 0. -1.
        -24    2    1    2    0    0  0.00000000000E+00  0.00000000000E+00  0.15323213914E+03  0.17314693308E+03  0.80621163293E+02 0.  0.
         66    2    3    3    0    0  0.12076435231E+02 -0.10022973324E+02  0.15634790482E+03  0.15714632553E+03  0.20000009484E+01 0.  0.
         13    1    3    3    0    0 -0.12076435231E+02  0.10022973324E+02 -0.31157656834E+01  0.16000607550E+02  0.10566000000E+00 0. -1.
         13    1    4    4    0    0  0.22651316772E+01 -0.12713044689E+01  0.28676839132E+02  0.28794431809E+02  0.10566000000E+00 0. -1.
        -13    1    4    4    0    0  0.28775000165E+01 -0.18749724030E+01  0.33888708714E+02  0.34062461306E+02  0.10566000000E+00 0.  1.
         14    1    4    4    0    0  0.69338035372E+01 -0.68766964518E+01  0.93782356977E+02  0.94289432418E+02  0.00000000000E+00 0. -1.
<mgrwt>
<rscale>  0 0.80621163E+02</rscale>
<asrwt>0</asrwt>
<pdfrwt beam="1">  1        1 0.15319074E-02 0.80621163E+02</pdfrwt>
<pdfrwt beam="2">  1       -2 0.25106079E-01 0.80621163E+02</pdfrwt>
<totfact> 0.90038719E+04</totfact>
</mgrwt>
</event>
<event>
 8    1  0.1241100E-024  0.8053966E+02  0.7818608E-02  0.1327527E+00
         -2   -1    0    0    0  501 -0.00000000000E+00  0.00000000000E+00  0.11361317822E+03  0.11361317825E+03  0.25500000000E-02 0.  1.
          1   -1    0    0  501    0  0.00000000000E+00 -0.00000000000E+00 -0.14273511098E+02  0.14273511988E+02  0.50400000000E-02 0. -1.
        -24    2    1    2    0    0  0.00000000000E+00  0.71054273576E-14  0.99339667124E+02  0.12788669024E+03  0.80539655299E+02 0.  0.
         66    2    3    3    0    0  0.27486508542E+02 -0.27567711679E+02  0.33494183075E+02  0.51394038220E+02  0.19999964236E+01 0.  0.
         13    1    3    3    0    0 -0.27486508542E+02  0.27567711679E+02  0.65845484049E+02  0.76492652018E+02  0.10566000000E+00 0. -1.
         13    1    4    4    0    0  0.48687380488E+01 -0.52957202925E+01  0.56882956143E+01  0.91715393820E+01  0.10566000000E+00 0. -1.
        -13    1    4    4    0    0  0.17847394467E+02 -0.17541897982E+02  0.21147509267E+02  0.32763943387E+02  0.10566000000E+00 0.  1.
         14    1    4    4    0    0  0.47703760264E+01 -0.47300934046E+01  0.66583781935E+01  0.94585554509E+01  0.00000000000E+00 0. -1.
<mgrwt>
<rscale>  0 0.80539655E+02</rscale>
<asrwt>0</asrwt>
<pdfrwt beam="1">  1        1 0.21959249E-02 0.80539655E+02</pdfrwt>
<pdfrwt beam="2">  1       -2 0.17478951E-01 0.80539655E+02</pdfrwt>
<totfact> 0.10092262E+05</totfact>
</mgrwt>
</event>
<event>
 8    1  0.1241100E-024  0.8091572E+02  0.7818608E-02  0.1326473E+00
         -2   -1    0    0    0  501 -0.00000000000E+00  0.00000000000E+00  0.80009815894E+01  0.80009819958E+01  0.25500000000E-02 0.  1.
          1   -1    0    0  501    0  0.00000000000E+00 -0.00000000000E+00 -0.20457968671E+03  0.20457968677E+03  0.50400000000E-02 0. -1.
        -24    2    1    2    0    0 -0.35527136788E-14 -0.35527136788E-14 -0.19657870512E+03  0.21258066877E+03  0.80915718046E+02 0.  0.
         66    2    3    3    0    0  0.28804125345E+02  0.22471028878E+02 -0.52829214217E+02  0.64261580061E+02  0.20000053548E+01 0.  0.
         13    1    3    3    0    0 -0.28804125345E+02 -0.22471028878E+02 -0.14374949090E+03  0.14831908871E+03  0.10566000000E+00 0. -1.
         13    1    4    4    0    0  0.33807305161E+00  0.47076510562E+00 -0.86501424011E+00  0.10465786373E+01  0.10566000000E+00 0. -1.
        -13    1    4    4    0    0  0.64916552207E+01  0.55625858772E+01 -0.12852559010E+02  0.15436430491E+02  0.10566000000E+00 0.  1.
        -14    1    4    4    0    0  0.21974397073E+02  0.16437677895E+02 -0.39111640966E+02  0.47778570933E+02  0.00000000000E+00 0.  1.
<mgrwt>
<rscale>  0 0.80915718E+02</rscale>
<asrwt>0</asrwt>
<pdfrwt beam="1">  1        1 0.31473794E-01 0.80915718E+02</pdfrwt>
<pdfrwt beam="2">  1       -2 0.12309204E-02 0.80915718E+02</pdfrwt>
<totfact> 0.16248820E+05</totfact>
</mgrwt>
</event>
<event>
 8    1  0.1296155E-024  0.7688060E+02  0.7818608E-02  0.1338144E+00
         -2   -1    0    0    0  501 -0.00000000000E+00  0.00000000000E+00  0.14424527492E+03  0.14424527494E+03  0.25500000000E-02 0.  1.
          1   -1    0    0  501    0  0.00000000000E+00 -0.00000000000E+00 -0.10244056533E+02  0.10244057773E+02  0.50400000000E-02 0. -1.
        -24    2    1    2    0    0  0.17763568394E-14 -0.17763568394E-14  0.13400121839E+03  0.15448933272E+03  0.76880604795E+02 0.  0.
         66    2    3    3    0    0  0.12495439310E+02  0.12822068894E+02  0.13534154217E+03  0.13653525000E+03  0.20000004478E+01 0.  0.
         13    1    3    3    0    0 -0.12495439310E+02 -0.12822068894E+02 -0.13403237816E+01  0.17954082715E+02  0.10566000000E+00 0. -1.
         13    1    4    4    0    0  0.82673488102E+01  0.89119946929E+01  0.91852636445E+02  0.92653605929E+02  0.10566000000E+00 0. -1.
        -13    1    4    4    0    0  0.39584146712E+01  0.38043421948E+01  0.42429299327E+02  0.42783158738E+02  0.10566000000E+00 0.  1.
         14    1    4    4    0    0  0.26967582864E+00  0.10573200614E+00  0.10596063967E+01  0.10984853325E+01  0.00000000000E+00 0. -1.
<mgrwt>
<rscale>  0 0.76880605E+02</rscale>
<asrwt>0</asrwt>
<pdfrwt beam="1">  1        1 0.15760090E-02 0.76880605E+02</pdfrwt>
<pdfrwt beam="2">  1       -2 0.22191579E-01 0.76880605E+02</pdfrwt>
<totfact> 0.10601651E+05</totfact>
</mgrwt>
</event>
<event>
 8    1  0.1241100E-024  0.8409585E+02  0.7818608E-02  0.1317814E+00
         -2   -1    0    0    0  501 -0.00000000000E+00  0.00000000000E+00  0.10212327067E+03  0.10212327070E+03  0.25500000000E-02 0.  1.
          1   -1    0    0  501    0  0.00000000000E+00 -0.00000000000E+00 -0.17312682389E+02  0.17312683123E+02  0.50400000000E-02 0. -1.
        -24    2    1    2    0    0  0.00000000000E+00  0.00000000000E+00  0.84810588282E+02  0.11943595383E+03  0.84095845210E+02 0.  0.
         66    2    3    3    0    0  0.15001686515E+02  0.11641332084E+02  0.95672943260E+02  0.97559639450E+02  0.19999916651E+01 0.  0.
         13    1    3    3    0    0 -0.15001686515E+02 -0.11641332084E+02 -0.10862354977E+02  0.21876314376E+02  0.10566000000E+00 0. -1.
         13    1    4    4    0    0  0.34284514463E+01  0.21870917573E+01  0.18993415831E+02  0.19424177167E+02  0.10566000000E+00 0. -1.
        -13    1    4    4    0    0  0.11040538133E+02  0.91044200888E+01  0.71601405134E+02  0.73017507001E+02  0.10566000000E+00 0.  1.
         14    1    4    4    0    0  0.53269693582E+00  0.34982023810E+00  0.50781222950E+01  0.51179552819E+01  0.00000000000E+00 0. -1.
<mgrwt>
<rscale>  0 0.84095845E+02</rscale>
<asrwt>0</asrwt>
<pdfrwt beam="1">  1        1 0.26634896E-02 0.84095845E+02</pdfrwt>
<pdfrwt beam="2">  1       -2 0.15711273E-01 0.84095845E+02</pdfrwt>
<totfact> 0.92890987E+04</totfact>
</mgrwt>
</event>
<event>
 8    1  0.1241100E-024  0.7907811E+02  0.7818608E-02  0.1331688E+00
          1   -1    0    0  501    0  0.00000000000E+00  0.00000000000E+00  0.79012101748E+01  0.79012117823E+01  0.50400000000E-02 0. -1.
         -2   -1    0    0    0  501 -0.00000000000E+00 -0.00000000000E+00 -0.19786041139E+03  0.19786041141E+03  0.25500000000E-02 0.  1.
        -24    2    1    2    0    0  0.35527136788E-14 -0.35527136788E-14 -0.18995920122E+03  0.20576162319E+03  0.79078109809E+02 0.  0.
         66    2    3    3    0    0 -0.31829584679E+02  0.19085396588E+02 -0.59748990141E+02  0.70365592760E+02  0.19999994755E+01 0.  0.
         13    1    3    3    0    0  0.31829584679E+02 -0.19085396588E+02 -0.13021021108E+03  0.13539603043E+03  0.10566000000E+00 0. -1.
         13    1    4    4    0    0 -0.10620640056E+02  0.73845183258E+01 -0.20116801209E+02  0.23917064223E+02  0.10566000000E+00 0. -1.
        -13    1    4    4    0    0 -0.10846243044E+02  0.59505294171E+01 -0.20257390985E+02  0.23736529697E+02  0.10566000000E+00 0.  1.
         14    1    4    4    0    0 -0.10362701579E+02  0.57503488452E+01 -0.19374797947E+02  0.22711998841E+02  0.00000000000E+00 0. -1.
<mgrwt>
<rscale>  0 0.79078110E+02</rscale>
<asrwt>0</asrwt>
<pdfrwt beam="1">  1        1 0.12155711E-02 0.79078110E+02</pdfrwt>
<pdfrwt beam="2">  1       -2 0.30440060E-01 0.79078110E+02</pdfrwt>
<totfact> 0.88038793E+04</totfact>
</mgrwt>
</event>
<event>
 8    1  0.1241100E-024  0.7635065E+02  0.7818608E-02  0.1339739E+00
         -2   -1    0    0    0  501 -0.00000000000E+00  0.00000000000E+00  0.19270420818E+02  0.19270420987E+02  0.25500000000E-02 0.  1.
          1   -1    0    0  501    0  0.00000000000E+00 -0.00000000000E+00 -0.75626542632E+02  0.75626542800E+02  0.50400000000E-02 0. -1.
        -24    2    1    2    0    0  0.00000000000E+00  0.00000000000E+00 -0.56356121813E+02  0.94896963787E+02  0.76350646822E+02 0.  0.
         66    2    3    3    0    0  0.29737163121E+02  0.42077364701E+00  0.14994759997E+01  0.29845005451E+02  0.20000002900E+01 0.  0.
         13    1    3    3    0    0 -0.29737163121E+02 -0.42077364701E+00 -0.57855597813E+02  0.65051958336E+02  0.10566000000E+00 0. -1.
         13    1    4    4    0    0  0.40418300817E+01  0.34458377124E+00  0.49535583612E+00  0.40879909276E+01  0.10566000000E+00 0.  1.
        -13    1    4    4    0    0  0.12676528124E+02  0.71935833441E-01 -0.23519505850E+00  0.12679354116E+02  0.10566000000E+00 0.  1.
         14    1    4    4    0    0  0.13018804915E+02  0.42540423346E-02  0.12393152221E+01  0.13077660408E+02  0.00000000000E+00 0. -1.
<mgrwt>
<rscale>  0 0.76350647E+02</rscale>
<asrwt>0</asrwt>
<pdfrwt beam="1">  1        1 0.11634853E-01 0.76350647E+02</pdfrwt>
<pdfrwt beam="2">  1       -2 0.29646802E-02 0.76350647E+02</pdfrwt>
<totfact> 0.15944046E+05</totfact>
</mgrwt>
</event>
<event>
 8    1  0.1241100E-024  0.7909683E+02  0.7818608E-02  0.1331634E+00
          1   -1    0    0  501    0  0.00000000000E+00  0.00000000000E+00  0.37857828129E+03  0.37857828132E+03  0.50400000000E-02 0. -1.
         -2   -1    0    0    0  501 -0.00000000000E+00 -0.00000000000E+00 -0.41314497181E+01  0.41314505050E+01  0.25500000000E-02 0.  1.
        -24    2    1    2    0    0  0.00000000000E+00  0.35527136788E-14  0.37444683157E+03  0.38270973183E+03  0.79096834084E+02 0.  0.
         66    2    3    3    0    0 -0.33322788969E+02 -0.21251230794E+02  0.18626877988E+03  0.19042605239E+03  0.19999992131E+01 0.  0.
         13    1    3    3    0    0  0.33322788969E+02  0.21251230794E+02  0.18817805169E+03  0.19228367943E+03  0.10566000000E+00 0. -1.
         13    1    4    4    0    0 -0.33150146459E+01 -0.21259830865E+01  0.19508771142E+02  0.19902573745E+02  0.10566000000E+00 0. -1.
        -13    1    4    4    0    0 -0.13051386631E+01 -0.12479594692E+01  0.90747747925E+01  0.92532962417E+01  0.10566000000E+00 0.  1.
        -14    1    4    4    0    0 -0.28702635660E+02 -0.17877288239E+02  0.15768523395E+03  0.16127018241E+03  0.00000000000E+00 0.  1.
<mgrwt>
<rscale>  0 0.79096834E+02</rscale>
<asrwt>0</asrwt>
<pdfrwt beam="1">  1        1 0.58242817E-01 0.79096834E+02</pdfrwt>
<pdfrwt beam="2">  1       -2 0.63560766E-03 0.79096834E+02</pdfrwt>
<totfact> 0.19388907E+05</totfact>
</mgrwt>
</event>
<event>
 8    1  0.1241100E-024  0.8049822E+02  0.7818608E-02  0.1327643E+00
          1   -1    0    0  501    0  0.00000000000E+00  0.00000000000E+00  0.38444619294E+02  0.38444619625E+02  0.50400000000E-02 0. -1.
         -2   -1    0    0    0  501 -0.00000000000E+00 -0.00000000000E+00 -0.42138297046E+02  0.42138297123E+02  0.25500000000E-02 0.  1.
        -24    2    1    2    0    0  0.00000000000E+00  0.88817841970E-15 -0.36936777515E+01  0.80582916748E+02  0.80498218715E+02 0.  0.
         66    2    3    3    0    0 -0.37426196197E+02 -0.38357483888E+01 -0.16095052528E+02  0.40969303079E+02  0.19999878474E+01 0.  0.
         13    1    3    3    0    0  0.37426196197E+02  0.38357483888E+01  0.12401374777E+02  0.39613613669E+02  0.10566000000E+00 0. -1.
         13    1    4    4    0    0 -0.13398470040E+01 -0.51387476953E-01 -0.51481820700E+00  0.14401501619E+01  0.10566000000E+00 0.  1.
        -13    1    4    4    0    0 -0.87386647524E+01 -0.40118343441E+00 -0.43811854967E+01  0.97842301790E+01  0.10566000000E+00 0. -1.
        -14    1    4    4    0    0 -0.27347684441E+02 -0.33831774774E+01 -0.11199048824E+02  0.29744922738E+02  0.00000000000E+00 0.  1.
<mgrwt>
<rscale>  0 0.80498219E+02</rscale>
<asrwt>0</asrwt>
<pdfrwt beam="1">  1        1 0.59145569E-02 0.80498219E+02</pdfrwt>
<pdfrwt beam="2">  1       -2 0.64828149E-02 0.80498219E+02</pdfrwt>
<totfact> 0.12396148E+05</totfact>
</mgrwt>
</event>
<event>
 8    1  0.1241100E-024  0.8010839E+02  0.7818608E-02  0.1328744E+00
          1   -1    0    0  501    0  0.00000000000E+00  0.00000000000E+00  0.30595424710E+02  0.30595425125E+02  0.50400000000E-02 0. -1.
         -2   -1    0    0    0  501 -0.00000000000E+00 -0.00000000000E+00 -0.52437204501E+02  0.52437204563E+02  0.25500000000E-02 0.  1.
        -24    2    1    2    0    0  0.00000000000E+00  0.00000000000E+00 -0.21841779791E+02  0.83032629688E+02  0.80108390624E+02 0.  0.
         66    2    3    3    0    0 -0.22207221976E+02  0.99558892917E+01 -0.43869142378E+02  0.50207390830E+02  0.20000003650E+01 0.  0.
         13    1    3    3    0    0  0.22207221976E+02 -0.99558892917E+01  0.22027362587E+02  0.32825238858E+02  0.10566000000E+00 0. -1.
         13    1    4    4    0    0 -0.91334783978E+01  0.38558736612E+01 -0.18598640798E+02  0.21076261360E+02  0.10566000000E+00 0.  1.
        -13    1    4    4    0    0 -0.81630768048E+01  0.35499795616E+01 -0.14308878437E+02  0.16852102064E+02  0.10566000000E+00 0.  1.
        -14    1    4    4    0    0 -0.49106667738E+01  0.25500360689E+01 -0.10961623142E+02  0.12279027406E+02  0.00000000000E+00 0.  1.
<mgrwt>
<rscale>  0 0.80108391E+02</rscale>
<asrwt>0</asrwt>
<pdfrwt beam="1">  1        1 0.47069885E-02 0.80108391E+02</pdfrwt>
<pdfrwt beam="2">  1       -2 0.80672623E-02 0.80108391E+02</pdfrwt>
<totfact> 0.12089744E+05</totfact>
</mgrwt>
</event>
<event>
 8    1  0.1241100E-024  0.7622095E+02  0.7818608E-02  0.1340131E+00
          1   -1    0    0  501    0  0.00000000000E+00  0.00000000000E+00  0.12505590511E+03  0.12505590521E+03  0.50400000000E-02 0. -1.
         -2   -1    0    0    0  501 -0.00000000000E+00 -0.00000000000E+00 -0.11614070635E+02  0.11614070915E+02  0.25500000000E-02 0.  1.
        -24    2    1    2    0    0  0.00000000000E+00  0.00000000000E+00  0.11344183448E+03  0.13666997613E+03  0.76220945712E+02 0.  0.
         66    2    3    3    0    0  0.28083345028E+02 -0.25265150867E+02  0.65433816034E+02  0.75581653879E+02  0.20000015106E+01 0.  0.
         13    1    3    3    0    0 -0.28083345028E+02  0.25265150867E+02  0.48008018442E+02  0.61088322248E+02  0.10566000000E+00 0. -1.
         13    1    4    4    0    0  0.23715350192E+01 -0.16268261173E+01  0.52022816033E+01  0.59452198849E+01  0.10566000000E+00 0. -1.
        -13    1    4    4    0    0  0.21499125682E+02 -0.19151429090E+02  0.49376272453E+02  0.57157826119E+02  0.10566000000E+00 0.  1.
         14    1    4    4    0    0  0.42126843271E+01 -0.44868956592E+01  0.10855261978E+02  0.12478607875E+02  0.00000000000E+00 0. -1.
<mgrwt>
<rscale>  0 0.76220946E+02</rscale>
<asrwt>0</asrwt>
<pdfrwt beam="1">  1        1 0.19239370E-01 0.76220946E+02</pdfrwt>
<pdfrwt beam="2">  1       -2 0.17867802E-02 0.76220946E+02</pdfrwt>
<totfact> 0.17389737E+05</totfact>
</mgrwt>
</event>
<event>
 8    1  0.1241100E-024  0.7984767E+02  0.7818608E-02  0.1329484E+00
          1   -1    0    0  501    0  0.00000000000E+00  0.00000000000E+00  0.44367229955E+02  0.44367230242E+02  0.50400000000E-02 0. -1.
         -2   -1    0    0    0  501 -0.00000000000E+00 -0.00000000000E+00 -0.35925444519E+02  0.35925444610E+02  0.25500000000E-02 0.  1.
        -24    2    1    2    0    0  0.00000000000E+00 -0.71054273576E-14  0.84417854360E+01  0.80292674852E+02  0.79847666800E+02 0.  0.
         66    2    3    3    0    0 -0.26921647735E+01 -0.39788844820E+02  0.54582175280E+01  0.40301266215E+02  0.19999991759E+01 0.  0.
         13    1    3    3    0    0  0.26921647735E+01  0.39788844820E+02  0.29835679080E+01  0.39991408637E+02  0.10566000000E+00 0. -1.
         13    1    4    4    0    0 -0.25528139109E+00 -0.16374527705E+01 -0.29487826408E-01  0.16608593353E+01  0.10566000000E+00 0. -1.
        -13    1    4    4    0    0 -0.58637927066E+00 -0.18669241572E+02  0.26248407473E+01  0.18862273842E+02  0.10566000000E+00 0.  1.
        -14    1    4    4    0    0 -0.18505041118E+01 -0.19482150477E+02  0.28628646071E+01  0.19778133038E+02  0.00000000000E+00 0.  1.
<mgrwt>
<rscale>  0 0.79847667E+02</rscale>
<asrwt>0</asrwt>
<pdfrwt beam="1">  1        1 0.68257277E-02 0.79847667E+02</pdfrwt>
<pdfrwt beam="2">  1       -2 0.55269915E-02 0.79847667E+02</pdfrwt>
<totfact> 0.12979816E+05</totfact>
</mgrwt>
</event>
<event>
 8    1  0.1241100E-024  0.8989541E+02  0.7818608E-02  0.1303105E+00
          1   -1    0    0  501    0  0.00000000000E+00  0.00000000000E+00  0.85084977070E+02  0.85084977219E+02  0.50400000000E-02 0. -1.
         -2   -1    0    0    0  501 -0.00000000000E+00 -0.00000000000E+00 -0.23744452474E+02  0.23744452611E+02  0.25500000000E-02 0.  1.
        -24    2    1    2    0    0  0.00000000000E+00 -0.71054273576E-14  0.61340524596E+02  0.10882942983E+03  0.89895410558E+02 0.  0.
         66    2    3    3    0    0 -0.99728951850E+01  0.40793006675E+02  0.11362288227E+02  0.43550311372E+02  0.19999987251E+01 0.  0.
         13    1    3    3    0    0  0.99728951850E+01 -0.40793006675E+02  0.49978236369E+02  0.65279118457E+02  0.10566000000E+00 0. -1.
         13    1    4    4    0    0 -0.12475541393E+01  0.79872676641E+01  0.20678209138E+01  0.83450514340E+01  0.10566000000E+00 0. -1.
        -13    1    4    4    0    0 -0.52193833031E+01  0.21038793827E+02  0.60784738392E+01  0.22512925532E+02  0.10566000000E+00 0.  1.
        -14    1    4    4    0    0 -0.35059577426E+01  0.11766945184E+02  0.32159934742E+01  0.12692334406E+02  0.00000000000E+00 0.  1.
<mgrwt>
<rscale>  0 0.89895411E+02</rscale>
<asrwt>0</asrwt>
<pdfrwt beam="1">  1        1 0.13089997E-01 0.89895411E+02</pdfrwt>
<pdfrwt beam="2">  1       -2 0.36529926E-02 0.89895411E+02</pdfrwt>
<totfact> 0.10396614E+05</totfact>
</mgrwt>
</event>
<event>
 8    1  0.1241100E-024  0.7976029E+02  0.7818608E-02  0.1329733E+00
          1   -1    0    0  501    0  0.00000000000E+00  0.00000000000E+00  0.22217829771E+02  0.22217830343E+02  0.50400000000E-02 0. -1.
         -2   -1    0    0    0  501 -0.00000000000E+00 -0.00000000000E+00 -0.71583313717E+02  0.71583313762E+02  0.25500000000E-02 0.  1.
        -24    2    1    2    0    0  0.00000000000E+00  0.00000000000E+00 -0.49365483946E+02  0.93801144105E+02  0.79760288554E+02 0.  0.
         66    2    3    3    0    0 -0.34108648032E+02  0.15319693344E+02 -0.84736594080E+01  0.38391349368E+02  0.19999819377E+01 0.  0.
         13    1    3    3    0    0  0.34108648032E+02 -0.15319693344E+02 -0.40891824538E+02  0.55409794737E+02  0.10566000000E+00 0. -1.
         13    1    4    4    0    0 -0.39518036730E+01  0.20322256138E+01 -0.54163800363E+00  0.44778598658E+01  0.10566000000E+00 0.  1.
        -13    1    4    4    0    0 -0.14993258788E+02  0.60823936757E+01 -0.36239544538E+01  0.16581240359E+02  0.10566000000E+00 0.  1.
        -14    1    4    4    0    0 -0.15163585571E+02  0.72050740547E+01 -0.43080669505E+01  0.17332249143E+02  0.00000000000E+00 0.  1.
<mgrwt>
<rscale>  0 0.79760289E+02</rscale>
<asrwt>0</asrwt>
<pdfrwt beam="1">  1        1 0.34181277E-02 0.79760289E+02</pdfrwt>
<pdfrwt beam="2">  1       -2 0.11012817E-01 0.79760289E+02</pdfrwt>
<totfact> 0.11526890E+05</totfact>
</mgrwt>
</event>
<event>
 8    1  0.1568219E-024  0.7410842E+02  0.7818608E-02  0.1346654E+00
         -2   -1    0    0    0  501 -0.00000000000E+00  0.00000000000E+00  0.84036689999E+01  0.84036693868E+01  0.25500000000E-02 0.  1.
          1   -1    0    0  501    0  0.00000000000E+00 -0.00000000000E+00 -0.16338272402E+03  0.16338272410E+03  0.50400000000E-02 0. -1.
        -24    2    1    2    0    0 -0.35527136788E-14 -0.35527136788E-14 -0.15497905502E+03  0.17178639348E+03  0.74108417143E+02 0.  0.
         66    2    3    3    0    0 -0.24128211985E+02 -0.21914820479E+02 -0.36826084601E+02  0.49219817481E+02  0.19999889020E+01 0.  0.
         13    1    3    3    0    0  0.24128211985E+02  0.21914820479E+02 -0.11815297042E+03  0.12256657600E+03  0.10566000000E+00 0. -1.
         13    1    4    4    0    0 -0.49590918928E+01 -0.50539463173E+01 -0.84609966263E+01  0.11033340098E+02  0.10566000000E+00 0. -1.
        -13    1    4    4    0    0 -0.17107692911E+02 -0.15273484446E+02 -0.26013190602E+02  0.34679240666E+02  0.10566000000E+00 0.  1.
         14    1    4    4    0    0 -0.20614271814E+01 -0.15873897166E+01 -0.23518973722E+01  0.35072367165E+01  0.00000000000E+00 0. -1.
<mgrwt>
<rscale>  0 0.74108417E+02</rscale>
<asrwt>0</asrwt>
<pdfrwt beam="1">  1        1 0.25135802E-01 0.74108417E+02</pdfrwt>
<pdfrwt beam="2">  1       -2 0.12928723E-02 0.74108417E+02</pdfrwt>
<totfact> 0.19652143E+05</totfact>
</mgrwt>
</event>
<event>
 8    1  0.1241100E-024  0.8268997E+02  0.7818608E-02  0.1321586E+00
         -2   -1    0    0    0  501 -0.00000000000E+00  0.00000000000E+00  0.19090092837E+03  0.19090092838E+03  0.25500000000E-02 0.  1.
          1   -1    0    0  501    0  0.00000000000E+00 -0.00000000000E+00 -0.89544218251E+01  0.89544232435E+01  0.50400000000E-02 0. -1.
        -24    2    1    2    0    0 -0.17763568394E-14  0.71054273576E-14  0.18194650654E+03  0.19985535163E+03  0.82689965119E+02 0.  0.
         66    2    3    3    0    0 -0.11665477597E+02  0.28843198347E+02  0.15674661854E+03  0.15981713266E+03  0.20000027158E+01 0.  0.
         13    1    3    3    0    0  0.11665477597E+02 -0.28843198347E+02  0.25199888002E+02  0.40038218964E+02  0.10566000000E+00 0. -1.
         13    1    4    4    0    0 -0.96048164655E+00  0.26244975542E+01  0.12054200055E+02  0.12374385456E+02  0.10566000000E+00 0. -1.
        -13    1    4    4    0    0 -0.87465875540E+01  0.21250038270E+02  0.11491068291E+03  0.11718593401E+03  0.10566000000E+00 0.  1.
         14    1    4    4    0    0 -0.19584083963E+01  0.49686625228E+01  0.29781735577E+02  0.30256813194E+02  0.00000000000E+00 0. -1.
<mgrwt>
<rscale>  0 0.82689965E+02</rscale>
<asrwt>0</asrwt>
<pdfrwt beam="1">  1        1 0.13776035E-02 0.82689965E+02</pdfrwt>
<pdfrwt beam="2">  1       -2 0.29369372E-01 0.82689965E+02</pdfrwt>
<totfact> 0.79579180E+04</totfact>
</mgrwt>
</event>
<event>
 8    1  0.1241100E-024  0.7889815E+02  0.7818608E-02  0.1332208E+00
         -2   -1    0    0    0  501 -0.00000000000E+00  0.00000000000E+00  0.26435861146E+02  0.26435861269E+02  0.25500000000E-02 0.  1.
          1   -1    0    0  501    0  0.00000000000E+00 -0.00000000000E+00 -0.58868120829E+02  0.58868121044E+02  0.50400000000E-02 0. -1.
        -24    2    1    2    0    0 -0.71054273576E-14 -0.17763568394E-14 -0.32432259683E+02  0.85303982313E+02  0.78898149093E+02 0.  0.
         66    2    3    3    0    0  0.35367183754E+02  0.14235600102E+02 -0.53749720691E+01  0.38553602913E+02  0.19999939671E+01 0.  0.
         13    1    3    3    0    0 -0.35367183754E+02 -0.14235600102E+02 -0.27057287614E+02  0.46750379400E+02  0.10566000000E+00 0. -1.
         13    1    4    4    0    0  0.11630331757E+02  0.43309910618E+01 -0.19126596219E+01  0.12557528866E+02  0.10566000000E+00 0. -1.
        -13    1    4    4    0    0  0.13100414028E+02  0.48879831854E+01 -0.13532449086E+01  0.14048333109E+02  0.10566000000E+00 0.  1.
         14    1    4    4    0    0  0.10636437970E+02  0.50166258550E+01 -0.21090675387E+01  0.11947740939E+02  0.00000000000E+00 0. -1.
<mgrwt>
<rscale>  0 0.78898149E+02</rscale>
<asrwt>0</asrwt>
<pdfrwt beam="1">  1        1 0.90566340E-02 0.78898149E+02</pdfrwt>
<pdfrwt beam="2">  1       -2 0.40670556E-02 0.78898149E+02</pdfrwt>
<totfact> 0.14024049E+05</totfact>
</mgrwt>
</event>
<event>
 8    1  0.1241100E-024  0.7953899E+02  0.7818608E-02  0.1330365E+00
          1   -1    0    0  501    0  0.00000000000E+00  0.00000000000E+00  0.14172097749E+03  0.14172097758E+03  0.50400000000E-02 0. -1.
         -2   -1    0    0    0  501 -0.00000000000E+00 -0.00000000000E+00 -0.11160046442E+02  0.11160046733E+02  0.25500000000E-02 0.  1.
        -24    2    1    2    0    0 -0.17763568394E-14  0.00000000000E+00  0.13056093105E+03  0.15288102431E+03  0.79538989678E+02 0.  0.
         66    2    3    3    0    0 -0.11689365520E+02 -0.36226886571E+02  0.43357672831E+02  0.57731415882E+02  0.20000023950E+01 0.  0.
         13    1    3    3    0    0  0.11689365520E+02  0.36226886571E+02  0.87203258219E+02  0.95149608433E+02  0.10566000000E+00 0. -1.
         13    1    4    4    0    0 -0.66345771349E+01 -0.23111008682E+02  0.27875122336E+02  0.36812632959E+02  0.10566000000E+00 0. -1.
        -13    1    4    4    0    0 -0.44854672650E+01 -0.12060617829E+02  0.14153997330E+02  0.19129158984E+02  0.10566000000E+00 0.  1.
         14    1    4    4    0    0 -0.56932111979E+00 -0.10552600598E+01  0.13285531644E+01  0.17896239387E+01  0.00000000000E+00 0. -1.
<mgrwt>
<rscale>  0 0.79538990E+02</rscale>
<asrwt>0</asrwt>
<pdfrwt beam="1">  1        1 0.21803229E-01 0.79538990E+02</pdfrwt>
<pdfrwt beam="2">  1       -2 0.17169301E-02 0.79538990E+02</pdfrwt>
<totfact> 0.15868278E+05</totfact>
</mgrwt>
</event>
<event>
 8    1  0.1241100E-024  0.7897307E+02  0.7818608E-02  0.1331991E+00
         -2   -1    0    0    0  501 -0.00000000000E+00  0.00000000000E+00  0.56112376997E+01  0.56112382791E+01  0.25500000000E-02 0.  1.
          1   -1    0    0  501    0  0.00000000000E+00 -0.00000000000E+00 -0.27786855520E+03  0.27786855525E+03  0.50400000000E-02 0. -1.
        -24    2    1    2    0    0  0.00000000000E+00  0.35527136788E-14 -0.27225731750E+03  0.28347979353E+03  0.78973073921E+02 0.  0.
         66    2    3    3    0    0 -0.24800238211E+02 -0.24230527934E+02 -0.68581861448E+02  0.76874196163E+02  0.20000041665E+01 0.  0.
         13    1    3    3    0    0  0.24800238211E+02  0.24230527934E+02 -0.20367545606E+03  0.20660559737E+03  0.10566000000E+00 0. -1.
         13    1    4    4    0    0 -0.17182045570E+02 -0.16800055188E+02 -0.46443269329E+02  0.52291997230E+02  0.10566000000E+00 0.  1.
        -13    1    4    4    0    0 -0.54753591152E+01 -0.51760398202E+01 -0.16593901409E+02  0.18224699550E+02  0.10566000000E+00 0. -1.
         14    1    4    4    0    0 -0.21428335265E+01 -0.22544329257E+01 -0.55446907095E+01  0.63574993828E+01  0.00000000000E+00 0. -1.
<mgrwt>
<rscale>  0 0.78973074E+02</rscale>
<asrwt>0</asrwt>
<pdfrwt beam="1">  1        1 0.42748998E-01 0.78973074E+02</pdfrwt>
<pdfrwt beam="2">  1       -2 0.86326760E-03 0.78973074E+02</pdfrwt>
<totfact> 0.18394018E+05</totfact>
</mgrwt>
</event>
<event>
 8    1  0.1241100E-024  0.7980601E+02  0.7818608E-02  0.1329603E+00
         -2   -1    0    0    0  501 -0.00000000000E+00  0.00000000000E+00  0.66471768073E+03  0.66471768074E+03  0.25500000000E-02 0.  1.
          1   -1    0    0  501    0  0.00000000000E+00 -0.00000000000E+00 -0.23953748466E+01  0.23953801488E+01  0.50400000000E-02 0. -1.
        -24    2    1    2    0    0  0.71054273576E-14 -0.27755575616E-16  0.66232230589E+03  0.66711306089E+03  0.79806009366E+02 0.  0.
         66    2    3    3    0    0 -0.33981322634E+02 -0.22262654805E+00  0.50580630062E+03  0.50695048436E+03  0.19999992964E+01 0.  0.
         13    1    3    3    0    0  0.33981322634E+02  0.22262654805E+00  0.15651600527E+03  0.16016257652E+03  0.10566000000E+00 0. -1.
         13    1    4    4    0    0 -0.41164456659E+01 -0.43349821402E+00  0.61450356016E+02  0.61589694464E+02  0.10566000000E+00 0. -1.
        -13    1    4    4    0    0 -0.19866430289E+02 -0.28177077543E+00  0.30325830866E+03  0.30390848521E+03  0.10566000000E+00 0.  1.
         14    1    4    4    0    0 -0.99984466784E+01  0.49264244140E+00  0.14109763594E+03  0.14145230469E+03  0.00000000000E+00 0. -1.
<mgrwt>
<rscale>  0 0.79806009E+02</rscale>
<asrwt>0</asrwt>
<pdfrwt beam="1">  1        1 0.36851914E-03 0.79806009E+02</pdfrwt>
<pdfrwt beam="2">  1       -2 0.10226439E+00 0.79806009E+02</pdfrwt>
<totfact> 0.39953623E+04</totfact>
</mgrwt>
</event>
<event>
 8    1  0.1241100E-024  0.7955011E+02  0.7818608E-02  0.1330333E+00
          1   -1    0    0  501    0  0.00000000000E+00  0.00000000000E+00  0.70107324609E+02  0.70107324791E+02  0.50400000000E-02 0. -1.
         -2   -1    0    0    0  501 -0.00000000000E+00 -0.00000000000E+00 -0.22566188842E+02  0.22566188986E+02  0.25500000000E-02 0.  1.
        -24    2    1    2    0    0 -0.88817841970E-15  0.71054273576E-14  0.47541135768E+02  0.92673513776E+02  0.79550113549E+02 0.  0.
         66    2    3    3    0    0 -0.75919427235E+01  0.38807597245E+02  0.19070227937E+02  0.43947022470E+02  0.19999980397E+01 0.  0.
         13    1    3    3    0    0  0.75919427235E+01 -0.38807597245E+02  0.28470907831E+02  0.48726491306E+02  0.10566000000E+00 0. -1.
         13    1    4    4    0    0 -0.56862689226E-01  0.15863740953E+01  0.62976594805E+00  0.17110187961E+01  0.10566000000E+00 0. -1.
        -13    1    4    4    0    0 -0.30585659812E+01  0.12384816121E+02  0.64749150625E+01  0.14306438596E+02  0.10566000000E+00 0.  1.
         14    1    4    4    0    0 -0.44765140531E+01  0.24836407029E+02  0.11965546926E+02  0.27929565078E+02  0.00000000000E+00 0. -1.
<mgrwt>
<rscale>  0 0.79550114E+02</rscale>
<asrwt>0</asrwt>
<pdfrwt beam="1">  1        1 0.10785742E-01 0.79550114E+02</pdfrwt>
<pdfrwt beam="2">  1       -2 0.34717215E-02 0.79550114E+02</pdfrwt>
<totfact> 0.14089785E+05</totfact>
</mgrwt>
</event>
<event>
 8    1  0.1241100E-024  0.7991530E+02  0.7818608E-02  0.1329292E+00
         -2   -1    0    0    0  501 -0.00000000000E+00  0.00000000000E+00  0.18265110203E+03  0.18265110205E+03  0.25500000000E-02 0.  1.
          1   -1    0    0  501    0  0.00000000000E+00 -0.00000000000E+00 -0.87413310136E+01  0.87413324665E+01  0.50400000000E-02 0. -1.
        -24    2    1    2    0    0  0.00000000000E+00  0.00000000000E+00  0.17390977101E+03  0.19139243451E+03  0.79915302254E+02 0.  0.
         66    2    3    3    0    0  0.17713678368E+02 -0.16089398688E+02  0.16357114727E+03  0.16532441855E+03  0.19999992650E+01 0.  0.
         13    1    3    3    0    0 -0.17713678368E+02  0.16089398688E+02  0.10338623745E+02  0.26068015966E+02  0.10566000000E+00 0. -1.
         13    1    4    4    0    0  0.60548231504E+01 -0.60712834008E+01  0.62582340314E+02  0.63167094667E+02  0.10566000000E+00 0. -1.
        -13    1    4    4    0    0  0.29552107327E+01 -0.30442874574E+01  0.26210609935E+02  0.26551990393E+02  0.10566000000E+00 0.  1.
        -14    1    4    4    0    0  0.87036444847E+01 -0.69738278295E+01  0.74778197021E+02  0.75605333487E+02  0.00000000000E+00 0.  1.
<mgrwt>
<rscale>  0 0.79915302E+02</rscale>
<asrwt>0</asrwt>
<pdfrwt beam="1">  1        1 0.13448201E-02 0.79915302E+02</pdfrwt>
<pdfrwt beam="2">  1       -2 0.28100173E-01 0.79915302E+02</pdfrwt>
<totfact> 0.88402348E+04</totfact>
</mgrwt>
</event>
<event>
 8    1  0.1241100E-024  0.8235892E+02  0.7818608E-02  0.1322487E+00
          1   -1    0    0  501    0  0.00000000000E+00  0.00000000000E+00  0.22615939320E+02  0.22615939881E+02  0.50400000000E-02 0. -1.
         -2   -1    0    0    0  501 -0.00000000000E+00 -0.00000000000E+00 -0.74980213878E+02  0.74980213921E+02  0.25500000000E-02 0.  1.
        -24    2    1    2    0    0 -0.35527136788E-14  0.00000000000E+00 -0.52364274558E+02  0.97596153802E+02  0.82358921721E+02 0.  0.
         66    2    3    3    0    0  0.25243488514E+02  0.92076110871E+01 -0.63137345492E+02  0.68646472704E+02  0.20000011757E+01 0.  0.
         13    1    3    3    0    0 -0.25243488514E+02 -0.92076110871E+01  0.10773070934E+02  0.28949681098E+02  0.10566000000E+00 0. -1.
         13    1    4    4    0    0  0.12345521984E+02  0.45359482779E+01 -0.29422377729E+02  0.32228469015E+02  0.10566000000E+00 0. -1.
        -13    1    4    4    0    0  0.95254939222E+01  0.34827149692E+01 -0.23507941121E+02  0.25602710751E+02  0.10566000000E+00 0.  1.
         14    1    4    4    0    0  0.33724726082E+01  0.11889478400E+01 -0.10207026642E+02  0.10815292938E+02  0.00000000000E+00 0. -1.
<mgrwt>
<rscale>  0 0.82358922E+02</rscale>
<asrwt>0</asrwt>
<pdfrwt beam="1">  1        1 0.34793754E-02 0.82358922E+02</pdfrwt>
<pdfrwt beam="2">  1       -2 0.11535417E-01 0.82358922E+02</pdfrwt>
<totfact> 0.10522817E+05</totfact>
</mgrwt>
</event>
<event>
 8    1  0.1248421E-024  0.7969053E+02  0.7818608E-02  0.1329932E+00
         -2   -1    0    0    0  501 -0.00000000000E+00  0.00000000000E+00  0.82654997589E+01  0.82655001522E+01  0.25500000000E-02 0.  1.
          1   -1    0    0  501    0  0.00000000000E+00 -0.00000000000E+00 -0.19208097949E+03  0.19208097956E+03  0.50400000000E-02 0. -1.
        -24    2    1    2    0    0 -0.17763568394E-14  0.35527136788E-14 -0.18381547973E+03  0.20034647971E+03  0.79690534838E+02 0.  0.
         66    2    3    3    0    0  0.13264868989E+02 -0.31633783895E+02 -0.41122615995E+02  0.53588455880E+02  0.20000061165E+01 0.  0.
         13    1    3    3    0    0 -0.13264868989E+02  0.31633783895E+02 -0.14269286374E+03  0.14675802383E+03  0.10566000000E+00 0. -1.
         13    1    4    4    0    0  0.44483777619E+00 -0.20441618714E+01 -0.25958309008E+01  0.33355629966E+01  0.10566000000E+00 0. -1.
        -13    1    4    4    0    0  0.79140636940E+01 -0.19365262888E+02 -0.24584050407E+02  0.32280528331E+02  0.10566000000E+00 0.  1.
         14    1    4    4    0    0  0.49059675192E+01 -0.10224359136E+02 -0.13942734687E+02  0.17972364552E+02  0.00000000000E+00 0. -1.
<mgrwt>
<rscale>  0 0.79690535E+02</rscale>
<asrwt>0</asrwt>
<pdfrwt beam="1">  1        1 0.29550917E-01 0.79690535E+02</pdfrwt>
<pdfrwt beam="2">  1       -2 0.12716155E-02 0.79690535E+02</pdfrwt>
<totfact> 0.16715187E+05</totfact>
</mgrwt>
</event>
<event>
 8    1  0.1241100E-024  0.7866092E+02  0.7818608E-02  0.1332895E+00
          1   -1    0    0  501    0  0.00000000000E+00  0.00000000000E+00  0.14225624956E+02  0.14225625849E+02  0.50400000000E-02 0. -1.
         -2   -1    0    0    0  501 -0.00000000000E+00 -0.00000000000E+00 -0.10873932522E+03  0.10873932525E+03  0.25500000000E-02 0.  1.
        -24    2    1    2    0    0  0.00000000000E+00  0.00000000000E+00 -0.94513700262E+02  0.12296495110E+03  0.78660915715E+02 0.  0.
         66    2    3    3    0    0  0.23982670241E+02  0.28507202000E+02 -0.27696943970E+02  0.46464499313E+02  0.19999883467E+01 0.  0.
         13    1    3    3    0    0 -0.23982670241E+02 -0.28507202000E+02 -0.66816756292E+02  0.76500451784E+02  0.10566000000E+00 0. -1.
         13    1    4    4    0    0  0.26431433991E+01  0.36082957170E+01 -0.36762539680E+01  0.57906832310E+01  0.10566000000E+00 0.  1.
        -13    1    4    4    0    0  0.57374032946E+01  0.64239885342E+01 -0.70571510877E+01  0.11135527413E+02  0.10566000000E+00 0. -1.
         14    1    4    4    0    0  0.15602123547E+02  0.18474917748E+02 -0.16963538914E+02  0.29538288669E+02  0.00000000000E+00 0. -1.
<mgrwt>
<rscale>  0 0.78660916E+02</rscale>
<asrwt>0</asrwt>
<pdfrwt beam="1">  1        1 0.21885578E-02 0.78660916E+02</pdfrwt>
<pdfrwt beam="2">  1       -2 0.16729126E-01 0.78660916E+02</pdfrwt>
<totfact> 0.10847460E+05</totfact>
</mgrwt>
</event>
<event>
 8    1  0.1241100E-024  0.7939949E+02  0.7818608E-02  0.1330764E+00
          1   -1    0    0  501    0  0.00000000000E+00  0.00000000000E+00  0.67162628068E+01  0.67162646979E+01  0.50400000000E-02 0. -1.
         -2   -1    0    0    0  501 -0.00000000000E+00 -0.00000000000E+00 -0.23466466420E+03  0.23466466421E+03  0.25500000000E-02 0.  1.
        -24    2    1    2    0    0  0.00000000000E+00 -0.88817841970E-15 -0.22794840139E+03  0.24138092891E+03  0.79399490833E+02 0.  0.
         66    2    3    3    0    0  0.10262353967E+02  0.48533172946E+01 -0.22961717480E+03  0.22990632362E+03  0.20000202015E+01 0.  0.
         13    1    3    3    0    0 -0.10262353967E+02 -0.48533172946E+01  0.16687734114E+01  0.11474605285E+02  0.10566000000E+00 0. -1.
         13    1    4    4    0    0  0.81413001308E+00  0.28624762022E-01 -0.10408270648E+02  0.10440636426E+02  0.10566000000E+00 0. -1.
        -13    1    4    4    0    0  0.87510912084E+01  0.45117428694E+01 -0.20471763251E+03  0.20495428184E+03  0.10566000000E+00 0.  1.
         14    1    4    4    0    0  0.69713274541E+00  0.31294966317E+00 -0.14491271644E+02  0.14511405356E+02  0.00000000000E+00 0. -1.
<mgrwt>
<rscale>  0 0.79399491E+02</rscale>
<asrwt>0</asrwt>
<pdfrwt beam="1">  1        1 0.10332715E-02 0.79399491E+02</pdfrwt>
<pdfrwt beam="2">  1       -2 0.36102250E-01 0.79399491E+02</pdfrwt>
<totfact> 0.80983823E+04</totfact>
</mgrwt>
</event>
<event>
 8    1  0.1241100E-024  0.8046023E+02  0.7818608E-02  0.1327750E+00
          1   -1    0    0  501    0  0.00000000000E+00  0.00000000000E+00  0.69909217539E+02  0.69909217721E+02  0.50400000000E-02 0. -1.
         -2   -1    0    0    0  501 -0.00000000000E+00 -0.00000000000E+00 -0.23150913100E+02  0.23150913240E+02  0.25500000000E-02 0.  1.
        -24    2    1    2    0    0  0.00000000000E+00  0.00000000000E+00  0.46758304440E+02  0.93060130961E+02  0.80460232043E+02 0.  0.
         66    2    3    3    0    0  0.25222385458E+02  0.24821043274E+02  0.13208838420E+01  0.35468262854E+02  0.20000045866E+01 0.  0.
         13    1    3    3    0    0 -0.25222385458E+02 -0.24821043274E+02  0.45437420598E+02  0.57591868107E+02  0.10566000000E+00 0. -1.
         13    1    4    4    0    0  0.48844759948E+01  0.44316124793E+01  0.90071358330E+00  0.66573075568E+01  0.10566000000E+00 0. -1.
        -13    1    4    4    0    0  0.14912403666E+02  0.15328070219E+02  0.47997823066E+00  0.21390910754E+02  0.10566000000E+00 0.  1.
         14    1    4    4    0    0  0.54255057971E+01  0.50613605759E+01 -0.59807971946E-01  0.74200445435E+01  0.00000000000E+00 0. -1.
<mgrwt>
<rscale>  0 0.80460232E+02</rscale>
<asrwt>0</asrwt>
<pdfrwt beam="1">  1        1 0.10755264E-01 0.80460232E+02</pdfrwt>
<pdfrwt beam="2">  1       -2 0.35616790E-02 0.80460232E+02</pdfrwt>
<totfact> 0.13651564E+05</totfact>
</mgrwt>
</event>
<event>
 8    1  0.1319580E-024  0.7189709E+02  0.7818608E-02  0.1353758E+00
         -2   -1    0    0    0  501 -0.00000000000E+00  0.00000000000E+00  0.71370271452E+02  0.71370271497E+02  0.25500000000E-02 0.  1.
          1   -1    0    0  501    0  0.00000000000E+00 -0.00000000000E+00 -0.18106947867E+02  0.18106948568E+02  0.50400000000E-02 0. -1.
        -24    2    1    2    0    0  0.00000000000E+00  0.00000000000E+00  0.53263323585E+02  0.89477220066E+02  0.71897088059E+02 0.  0.
         66    2    3    3    0    0  0.21022293455E+02 -0.11597492387E+02  0.59903310016E+02  0.64566595112E+02  0.20000004267E+01 0.  0.
         13    1    3    3    0    0 -0.21022293455E+02  0.11597492387E+02 -0.66399864308E+01  0.24910624954E+02  0.10566000000E+00 0. -1.
         13    1    4    4    0    0  0.12200428851E+02 -0.70507502522E+01  0.34064865637E+02  0.36864478542E+02  0.10566000000E+00 0. -1.
        -13    1    4    4    0    0  0.86172575369E+01 -0.45949985890E+01  0.25061426472E+02  0.26897163425E+02  0.10566000000E+00 0.  1.
         14    1    4    4    0    0  0.20460706709E+00  0.48256453889E-01  0.77701790640E+00  0.80495314404E+00  0.00000000000E+00 0. -1.
<mgrwt>
<rscale>  0 0.71897088E+02</rscale>
<asrwt>0</asrwt>
<pdfrwt beam="1">  1        1 0.27856843E-02 0.71897088E+02</pdfrwt>
<pdfrwt beam="2">  1       -2 0.10980042E-01 0.71897088E+02</pdfrwt>
<totfact> 0.15004565E+05</totfact>
</mgrwt>
</event>
<event>
 8    1  0.1241100E-024  0.8056233E+02  0.7818608E-02  0.1327463E+00
          1   -1    0    0  501    0  0.00000000000E+00  0.00000000000E+00  0.10035530698E+03  0.10035530710E+03  0.50400000000E-02 0. -1.
         -2   -1    0    0    0  501 -0.00000000000E+00 -0.00000000000E+00 -0.16168276956E+02  0.16168277157E+02  0.25500000000E-02 0.  1.
        -24    2    1    2    0    0  0.00000000000E+00  0.00000000000E+00  0.84187030020E+02  0.11652358426E+03  0.80562334034E+02 0.  0.
         66    2    3    3    0    0  0.87763272175E+01  0.26719030410E+02  0.45875482630E+00  0.28198243974E+02  0.20000004414E+01 0.  0.
         13    1    3    3    0    0 -0.87763272175E+01 -0.26719030410E+02  0.83728275194E+02  0.88325340285E+02  0.10566000000E+00 0. -1.
         13    1    4    4    0    0  0.19765535868E+01  0.49265447226E+01 -0.42400429220E+00  0.53262135388E+01  0.10566000000E+00 0. -1.
        -13    1    4    4    0    0  0.17893160184E+01  0.66667846886E+01  0.67788176843E+00  0.69367396971E+01  0.10566000000E+00 0.  1.
         14    1    4    4    0    0  0.50104576124E+01  0.15125700999E+02  0.20487735007E+00  0.15935290739E+02  0.00000000000E+00 0. -1.
<mgrwt>
<rscale>  0 0.80562334E+02</rscale>
<asrwt>0</asrwt>
<pdfrwt beam="1">  1        1 0.15439278E-01 0.80562334E+02</pdfrwt>
<pdfrwt beam="2">  1       -2 0.24874273E-02 0.80562334E+02</pdfrwt>
<totfact> 0.14431986E+05</totfact>
</mgrwt>
</event>
<event>
 8    1  0.1241100E-024  0.8824240E+02  0.7818608E-02  0.1307165E+00
          1   -1    0    0  501    0  0.00000000000E+00  0.00000000000E+00  0.10974781267E+03  0.10974781278E+03  0.50400000000E-02 0. -1.
         -2   -1    0    0    0  501 -0.00000000000E+00 -0.00000000000E+00 -0.17737757730E+02  0.17737757914E+02  0.25500000000E-02 0.  1.
        -24    2    1    2    0    0  0.17763568394E-14  0.00000000000E+00  0.92010054937E+02  0.12748557070E+03  0.88242396423E+02 0.  0.
         66    2    3    3    0    0 -0.15002116443E+02  0.41452895966E+02  0.47656059413E+02  0.64950027486E+02  0.19999974590E+01 0.  0.
         13    1    3    3    0    0  0.15002116443E+02 -0.41452895966E+02  0.44353995523E+02  0.62535543211E+02  0.10566000000E+00 0. -1.
         13    1    4    4    0    0 -0.24810285717E+01  0.75559595395E+01  0.80885593595E+01  0.11343896327E+02  0.10566000000E+00 0. -1.
        -13    1    4    4    0    0 -0.11821159270E+02  0.30790009844E+02  0.36005709697E+02  0.48828135409E+02  0.10566000000E+00 0.  1.
        -14    1    4    4    0    0 -0.69992860070E+00  0.31069265824E+01  0.35617903568E+01  0.47779957493E+01  0.00000000000E+00 0.  1.
<mgrwt>
<rscale>  0 0.88242396E+02</rscale>
<asrwt>0</asrwt>
<pdfrwt beam="1">  1        1 0.16884279E-01 0.88242396E+02</pdfrwt>
<pdfrwt beam="2">  1       -2 0.27288858E-02 0.88242396E+02</pdfrwt>
<totfact> 0.11445940E+05</totfact>
</mgrwt>
</event>
<event>
 8    1  0.1241100E-024  0.7953932E+02  0.7818608E-02  0.1330364E+00
         -2   -1    0    0    0  501 -0.00000000000E+00  0.00000000000E+00  0.39375413667E+02  0.39375413749E+02  0.25500000000E-02 0.  1.
          1   -1    0    0  501    0  0.00000000000E+00 -0.00000000000E+00 -0.40167855665E+02  0.40167855981E+02  0.50400000000E-02 0. -1.
        -24    2    1    2    0    0  0.00000000000E+00 -0.17763568394E-14 -0.79244199787E+00  0.79543269730E+02  0.79539322320E+02 0.  0.
         66    2    3    3    0    0 -0.19518946480E+02 -0.15831247575E+02  0.30394719638E+02  0.39489956679E+02  0.20000062874E+01 0.  0.
         13    1    3    3    0    0  0.19518946480E+02  0.15831247575E+02 -0.31187161636E+02  0.40053313052E+02  0.10566000000E+00 0. -1.
         13    1    4    4    0    0 -0.69117010422E+01 -0.48384588172E+01  0.10364713962E+02  0.13364907578E+02  0.10566000000E+00 0. -1.
        -13    1    4    4    0    0 -0.21852422947E+01 -0.21494387571E+01  0.43725280769E+01  0.53409303193E+01  0.10566000000E+00 0.  1.
         14    1    4    4    0    0 -0.10422003144E+02 -0.88433500008E+01  0.15657477599E+02  0.20784118782E+02  0.00000000000E+00 0. -1.
<mgrwt>
<rscale>  0 0.79539322E+02</rscale>
<asrwt>0</asrwt>
<pdfrwt beam="1">  1        1 0.61796702E-02 0.79539322E+02</pdfrwt>
<pdfrwt beam="2">  1       -2 0.60577559E-02 0.79539322E+02</pdfrwt>
<totfact> 0.12914456E+05</totfact>
</mgrwt>
</event>
<event>
 8    1  0.1241100E-024  0.7992948E+02  0.7818608E-02  0.1329252E+00
         -2   -1    0    0    0  501 -0.00000000000E+00  0.00000000000E+00  0.38463749300E+02  0.38463749385E+02  0.25500000000E-02 0.  1.
          1   -1    0    0  501    0  0.00000000000E+00 -0.00000000000E+00 -0.41524307056E+02  0.41524307362E+02  0.50400000000E-02 0. -1.
        -24    2    1    2    0    0  0.00000000000E+00  0.00000000000E+00 -0.30605577564E+01  0.79988056747E+02  0.79929482723E+02 0.  0.
         66    2    3    3    0    0  0.18910541533E+02 -0.17047009875E+02  0.29264136922E+02  0.38840685302E+02  0.19999995538E+01 0.  0.
         13    1    3    3    0    0 -0.18910541533E+02  0.17047009875E+02 -0.32324694678E+02  0.41147371445E+02  0.10566000000E+00 0. -1.
         13    1    4    4    0    0  0.15248814257E+02 -0.14181146656E+02  0.23269328389E+02  0.31226656312E+02  0.10566000000E+00 0. -1.
        -13    1    4    4    0    0  0.34700663261E+01 -0.28650865846E+01  0.57840782907E+01  0.73291750664E+01  0.10566000000E+00 0.  1.
         14    1    4    4    0    0  0.19166095027E+00 -0.77663436185E-03  0.21073024227E+00  0.28485392401E+00  0.00000000000E+00 0. -1.
<mgrwt>
<rscale>  0 0.79929483E+02</rscale>
<asrwt>0</asrwt>
<pdfrwt beam="1">  1        1 0.63883550E-02 0.79929483E+02</pdfrwt>
<pdfrwt beam="2">  1       -2 0.59174999E-02 0.79929483E+02</pdfrwt>
<totfact> 0.12806273E+05</totfact>
</mgrwt>
</event>
<event>
 8    1  0.1241100E-024  0.8585810E+02  0.7818608E-02  0.1313204E+00
         -2   -1    0    0    0  501 -0.00000000000E+00  0.00000000000E+00  0.29212970166E+02  0.29212970277E+02  0.25500000000E-02 0.  1.
          1   -1    0    0  501    0  0.00000000000E+00 -0.00000000000E+00 -0.63085100361E+02  0.63085100563E+02  0.50400000000E-02 0. -1.
        -24    2    1    2    0    0  0.00000000000E+00  0.00000000000E+00 -0.33872130196E+02  0.92298070840E+02  0.85858096163E+02 0.  0.
         66    2    3    3    0    0  0.13916094964E+01 -0.19313581840E+02  0.24214311420E+02  0.31069018225E+02  0.19999988537E+01 0.  0.
         13    1    3    3    0    0 -0.13916094964E+01  0.19313581840E+02 -0.58086441616E+02  0.61229052615E+02  0.10566000000E+00 0. -1.
         13    1    4    4    0    0  0.16885733636E+00 -0.40071003462E+00  0.77984505154E+00  0.89911271367E+00  0.10566000000E+00 0. -1.
        -13    1    4    4    0    0  0.96173531589E+00 -0.18399634807E+02  0.22688728603E+02  0.29227744789E+02  0.10566000000E+00 0.  1.
        -14    1    4    4    0    0  0.26101684414E+00 -0.51323699895E+00  0.74573776578E+00  0.94216072160E+00  0.00000000000E+00 0.  1.
<mgrwt>
<rscale>  0 0.85858096E+02</rscale>
<asrwt>0</asrwt>
<pdfrwt beam="1">  1        1 0.97054001E-02 0.85858096E+02</pdfrwt>
<pdfrwt beam="2">  1       -2 0.44943031E-02 0.85858096E+02</pdfrwt>
<totfact> 0.11222643E+05</totfact>
</mgrwt>
</event>
<event>
 8    1  0.1241100E-024  0.8041059E+02  0.7818608E-02  0.1327890E+00
         -2   -1    0    0    0  501 -0.00000000000E+00  0.00000000000E+00  0.19651576128E+02  0.19651576293E+02  0.25500000000E-02 0.  1.
          1   -1    0    0  501    0  0.00000000000E+00 -0.00000000000E+00 -0.82256287926E+02  0.82256288081E+02  0.50400000000E-02 0. -1.
        -24    2    1    2    0    0  0.35527136788E-14  0.00000000000E+00 -0.62604711799E+02  0.10190786437E+03  0.80410589364E+02 0.  0.
         66    2    3    3    0    0 -0.22086622117E+02  0.10040723278E+02  0.92694739421E+01  0.26049148721E+02  0.20000003623E+01 0.  0.
         13    1    3    3    0    0  0.22086622117E+02 -0.10040723278E+02 -0.71874185741E+02  0.75858715652E+02  0.10566000000E+00 0. -1.
         13    1    4    4    0    0 -0.59917414813E+01  0.36314669198E+01  0.29779225108E+01  0.76136525061E+01  0.10566000000E+00 0. -1.
        -13    1    4    4    0    0 -0.50370375472E+01  0.21014417309E+01  0.18358444392E+01  0.57592788993E+01  0.10566000000E+00 0.  1.
         14    1    4    4    0    0 -0.11057843089E+02  0.43078146269E+01  0.44557069921E+01  0.12676217316E+02  0.00000000000E+00 0. -1.
<mgrwt>
<rscale>  0 0.80410589E+02</rscale>
<asrwt>0</asrwt>
<pdfrwt beam="1">  1        1 0.12654813E-01 0.80410589E+02</pdfrwt>
<pdfrwt beam="2">  1       -2 0.30233195E-02 0.80410589E+02</pdfrwt>
<totfact> 0.14036222E+05</totfact>
</mgrwt>
</event>
<event>
 8    1  0.1241100E-024  0.7934325E+02  0.7818608E-02  0.1330926E+00
         -2   -1    0    0    0  501 -0.00000000000E+00  0.00000000000E+00  0.12978533283E+02  0.12978533533E+02  0.25500000000E-02 0.  1.
          1   -1    0    0  501    0  0.00000000000E+00 -0.00000000000E+00 -0.12126468396E+03  0.12126468406E+03  0.50400000000E-02 0. -1.
        -24    2    1    2    0    0 -0.35527136788E-14  0.00000000000E+00 -0.10828615068E+03  0.13424321760E+03  0.79343248248E+02 0.  0.
         66    2    3    3    0    0 -0.17767156713E+02 -0.17491298139E+02 -0.20226852824E+01  0.25093995842E+02  0.20000008297E+01 0.  0.
         13    1    3    3    0    0  0.17767156713E+02  0.17491298139E+02 -0.10626346539E+03  0.10914922175E+03  0.10566000000E+00 0. -1.
         13    1    4    4    0    0 -0.16379403221E+01 -0.11545579620E+01  0.11567657655E+00  0.20100740514E+01  0.10566000000E+00 0. -1.
        -13    1    4    4    0    0 -0.25132982976E+01 -0.24044983130E+01 -0.70441580511E+00  0.35504430896E+01  0.10566000000E+00 0.  1.
         14    1    4    4    0    0 -0.13615918093E+02 -0.13932241864E+02 -0.14339460538E+01  0.19533478701E+02  0.00000000000E+00 0. -1.
<mgrwt>
<rscale>  0 0.79343248E+02</rscale>
<asrwt>0</asrwt>
<pdfrwt beam="1">  1        1 0.18656105E-01 0.79343248E+02</pdfrwt>
<pdfrwt beam="2">  1       -2 0.19966975E-02 0.79343248E+02</pdfrwt>
<totfact> 0.15534455E+05</totfact>
</mgrwt>
</event>
<event>
 8    1  0.1241100E-024  0.7777114E+02  0.7818608E-02  0.1335498E+00
          1   -1    0    0  501    0  0.00000000000E+00  0.00000000000E+00  0.12392549867E+02  0.12392550892E+02  0.50400000000E-02 0. -1.
         -2   -1    0    0    0  501 -0.00000000000E+00 -0.00000000000E+00 -0.12201584452E+03  0.12201584454E+03  0.25500000000E-02 0.  1.
        -24    2    1    2    0    0  0.35527136788E-14  0.35527136788E-14 -0.10962329465E+03  0.13440839544E+03  0.77771138821E+02 0.  0.
         66    2    3    3    0    0 -0.16649349374E+02 -0.29155949591E+02 -0.88662134697E+02  0.94827445197E+02  0.20000006220E+01 0.  0.
         13    1    3    3    0    0  0.16649349374E+02  0.29155949591E+02 -0.20961159953E+02  0.39580950238E+02  0.10566000000E+00 0. -1.
         13    1    4    4    0    0 -0.91048926907E+01 -0.14081180970E+02 -0.45043277736E+02  0.48063361947E+02  0.10566000000E+00 0. -1.
        -13    1    4    4    0    0 -0.10543239725E+01 -0.20019961824E+01 -0.59291736098E+01  0.63471136341E+01  0.10566000000E+00 0.  1.
         14    1    4    4    0    0 -0.64901327106E+01 -0.13072772439E+02 -0.37689683351E+02  0.40416969616E+02  0.00000000000E+00 0. -1.
<mgrwt>
<rscale>  0 0.77771139E+02</rscale>
<asrwt>0</asrwt>
<pdfrwt beam="1">  1        1 0.19065463E-02 0.77771139E+02</pdfrwt>
<pdfrwt beam="2">  1       -2 0.18771668E-01 0.77771139E+02</pdfrwt>
<totfact> 0.10824028E+05</totfact>
</mgrwt>
</event>
<event>
 8    1  0.1241100E-024  0.7884269E+02  0.7818608E-02  0.1332368E+00
         -2   -1    0    0    0  501 -0.00000000000E+00  0.00000000000E+00  0.28425504620E+03  0.28425504621E+03  0.25500000000E-02 0.  1.
          1   -1    0    0  501    0  0.00000000000E+00 -0.00000000000E+00 -0.54670699462E+01  0.54670722694E+01  0.50400000000E-02 0. -1.
        -24    2    1    2    0    0  0.00000000000E+00 -0.88817841970E-15  0.27878797626E+03  0.28972211848E+03  0.78842692961E+02 0.  0.
         66    2    3    3    0    0  0.21640144723E+02  0.76673796308E+01  0.25712808663E+03  0.25815874483E+03  0.20000052854E+01 0.  0.
         13    1    3    3    0    0 -0.21640144723E+02 -0.76673796308E+01  0.21659889624E+02  0.31563373657E+02  0.10566000000E+00 0. -1.
         13    1    4    4    0    0  0.15276278017E+01  0.33842938072E+00  0.16213504918E+02  0.16289170848E+02  0.10566000000E+00 0. -1.
        -13    1    4    4    0    0  0.16778400667E+02  0.55463864886E+01  0.20227113120E+03  0.20304161843E+03  0.10566000000E+00 0.  1.
        -14    1    4    4    0    0  0.33341162541E+01  0.17825637615E+01  0.38643450511E+02  0.38827955550E+02  0.00000000000E+00 0.  1.
<mgrwt>
<rscale>  0 0.78842693E+02</rscale>
<asrwt>0</asrwt>
<pdfrwt beam="1">  1        1 0.84108791E-03 0.78842693E+02</pdfrwt>
<pdfrwt beam="2">  1       -2 0.43731543E-01 0.78842693E+02</pdfrwt>
<totfact> 0.75093268E+04</totfact>
</mgrwt>
</event>
<event>
 8    1  0.1241100E-024  0.8069131E+02  0.7818608E-02  0.1327101E+00
         -2   -1    0    0    0  501 -0.00000000000E+00  0.00000000000E+00  0.13214042121E+02  0.13214042367E+02  0.25500000000E-02 0.  1.
          1   -1    0    0  501    0  0.00000000000E+00 -0.00000000000E+00 -0.12318500338E+03  0.12318500349E+03  0.50400000000E-02 0. -1.
        -24    2    1    2    0    0  0.00000000000E+00  0.00000000000E+00 -0.10997096126E+03  0.13639904585E+03  0.80691309251E+02 0.  0.
         66    2    3    3    0    0  0.18714187836E+02  0.15051192143E+02 -0.27045462984E+00  0.24100463801E+02  0.19999996097E+01 0.  0.
         13    1    3    3    0    0 -0.18714187836E+02 -0.15051192143E+02 -0.10970050663E+03  0.11229858205E+03  0.10566000000E+00 0. -1.
         13    1    4    4    0    0  0.13606437083E+02  0.11724636604E+02 -0.14432814274E+00  0.17962021830E+02  0.10566000000E+00 0.  1.
        -13    1    4    4    0    0  0.97510730865E+00  0.90623584369E+00  0.13440126122E+00  0.13421346439E+01  0.10566000000E+00 0. -1.
         14    1    4    4    0    0  0.41326434446E+01  0.24203196956E+01 -0.26052774833E+00  0.47963073272E+01  0.00000000000E+00 0. -1.
<mgrwt>
<rscale>  0 0.80691309E+02</rscale>
<asrwt>0</asrwt>
<pdfrwt beam="1">  1        1 0.18951538E-01 0.80691309E+02</pdfrwt>
<pdfrwt beam="2">  1       -2 0.20329297E-02 0.80691309E+02</pdfrwt>
<totfact> 0.14888222E+05</totfact>
</mgrwt>
</event>
<event>
 8    1  0.1241100E-024  0.8221567E+02  0.7818608E-02  0.1322879E+00
         -2   -1    0    0    0  501 -0.00000000000E+00  0.00000000000E+00  0.85356243692E+02  0.85356243730E+02  0.25500000000E-02 0.  1.
          1   -1    0    0  501    0  0.00000000000E+00 -0.00000000000E+00 -0.19797660630E+02  0.19797661272E+02  0.50400000000E-02 0. -1.
        -24    2    1    2    0    0  0.35527136788E-14 -0.35527136788E-14  0.65558583062E+02  0.10515390500E+03  0.82215667145E+02 0.  0.
         66    2    3    3    0    0 -0.27215580120E+02 -0.27904308487E+02  0.49401561081E+02  0.62959133326E+02  0.19999996336E+01 0.  0.
         13    1    3    3    0    0  0.27215580120E+02  0.27904308487E+02  0.16157021982E+02  0.42194771676E+02  0.10566000000E+00 0. -1.
         13    1    4    4    0    0 -0.44251937714E+01 -0.39603823796E+01  0.78028045076E+01  0.98062169427E+01  0.10566000000E+00 0. -1.
        -13    1    4    4    0    0 -0.98698863184E+01 -0.11358136406E+02  0.18596050209E+02  0.23921667291E+02  0.10566000000E+00 0.  1.
        -14    1    4    4    0    0 -0.12920500031E+02 -0.12585789702E+02  0.23002706364E+02  0.29231249093E+02  0.00000000000E+00 0.  1.
<mgrwt>
<rscale>  0 0.82215667E+02</rscale>
<asrwt>0</asrwt>
<pdfrwt beam="1">  1        1 0.30457940E-02 0.82215667E+02</pdfrwt>
<pdfrwt beam="2">  1       -2 0.13131730E-01 0.82215667E+02</pdfrwt>
<totfact> 0.10275329E+05</totfact>
</mgrwt>
</event>
<event>
 8    1  0.1241100E-024  0.8004937E+02  0.7818608E-02  0.1328911E+00
         -2   -1    0    0    0  501 -0.00000000000E+00  0.00000000000E+00  0.27977474335E+02  0.27977474451E+02  0.25500000000E-02 0.  1.
          1   -1    0    0  501    0  0.00000000000E+00 -0.00000000000E+00 -0.57259467089E+02  0.57259467310E+02  0.50400000000E-02 0. -1.
        -24    2    1    2    0    0  0.00000000000E+00  0.00000000000E+00 -0.29281992753E+02  0.85236941762E+02  0.80049366901E+02 0.  0.
         66    2    3    3    0    0 -0.54122559351E+01 -0.20073184500E+02  0.21736699693E+02  0.30144806267E+02  0.19999952588E+01 0.  0.
         13    1    3    3    0    0  0.54122559351E+01  0.20073184500E+02 -0.51018692447E+02  0.55092135494E+02  0.10566000000E+00 0. -1.
         13    1    4    4    0    0 -0.35852822343E+00 -0.12559747429E+01  0.15316245647E+01  0.20157015862E+01  0.10566000000E+00 0.  1.
        -13    1    4    4    0    0 -0.44527417563E+01 -0.14349259510E+02  0.14785824278E+02  0.21079846328E+02  0.10566000000E+00 0.  1.
        -14    1    4    4    0    0 -0.60098595532E+00 -0.44679502477E+01  0.54192508511E+01  0.70492583526E+01  0.00000000000E+00 0.  1.
<mgrwt>
<rscale>  0 0.80049367E+02</rscale>
<asrwt>0</asrwt>
<pdfrwt beam="1">  1        1 0.88091488E-02 0.80049367E+02</pdfrwt>
<pdfrwt beam="2">  1       -2 0.43042268E-02 0.80049367E+02</pdfrwt>
<totfact> 0.13416870E+05</totfact>
</mgrwt>
</event>
<event>
 8    1  0.1241100E-024  0.7703387E+02  0.7818608E-02  0.1337686E+00
          1   -1    0    0  501    0  0.00000000000E+00  0.00000000000E+00  0.17321745144E+03  0.17321745152E+03  0.50400000000E-02 0. -1.
         -2   -1    0    0    0  501 -0.00000000000E+00 -0.00000000000E+00 -0.85646932686E+01  0.85646936482E+01  0.25500000000E-02 0.  1.
        -24    2    1    2    0    0  0.00000000000E+00  0.00000000000E+00  0.16465275818E+03  0.18178214517E+03  0.77033872590E+02 0.  0.
         66    2    3    3    0    0 -0.20152577731E+02 -0.16933417087E+02  0.16111165483E+02  0.30926310254E+02  0.20000023067E+01 0.  0.
         13    1    3    3    0    0  0.20152577731E+02  0.16933417087E+02  0.14854159269E+03  0.15085583491E+03  0.10566000000E+00 0. -1.
         13    1    4    4    0    0 -0.56205954243E+00 -0.72230557599E+00  0.63935387287E+00  0.11214159285E+01  0.10566000000E+00 0. -1.
        -13    1    4    4    0    0 -0.63621594940E+01 -0.59685442444E+01  0.58696918929E+01  0.10514991240E+02  0.10566000000E+00 0.  1.
        -14    1    4    4    0    0 -0.13228358695E+02 -0.10242567267E+02  0.96021197177E+01  0.19289903085E+02  0.00000000000E+00 0.  1.
<mgrwt>
<rscale>  0 0.77033873E+02</rscale>
<asrwt>0</asrwt>
<pdfrwt beam="1">  1        1 0.26648836E-01 0.77033873E+02</pdfrwt>
<pdfrwt beam="2">  1       -2 0.13176453E-02 0.77033873E+02</pdfrwt>
<totfact> 0.17932179E+05</totfact>
</mgrwt>
</event>
<event>
 8    1  0.1241100E-024  0.8011633E+02  0.7818608E-02  0.1328722E+00
         -2   -1    0    0    0  501 -0.00000000000E+00  0.00000000000E+00  0.72950463477E+02  0.72950463521E+02  0.25500000000E-02 0.  1.
          1   -1    0    0  501    0  0.00000000000E+00 -0.00000000000E+00 -0.21996522422E+02  0.21996522999E+02  0.50400000000E-02 0. -1.
        -24    2    1    2    0    0  0.00000000000E+00  0.00000000000E+00  0.50953941054E+02  0.94946986521E+02  0.80116328800E+02 0.  0.
         66    2    3    3    0    0 -0.22586771609E+02 -0.32977278210E+02  0.22845872096E+02  0.46082502133E+02  0.20000002966E+01 0.  0.
         13    1    3    3    0    0  0.22586771609E+02  0.32977278210E+02  0.28108068958E+02  0.48864484387E+02  0.10566000000E+00 0. -1.
         13    1    4    4    0    0 -0.65464258427E+01 -0.91249688910E+01  0.60038965691E+01  0.12734939600E+02  0.10566000000E+00 0. -1.
        -13    1    4    4    0    0 -0.62030147079E+01 -0.10496103486E+02  0.73087685020E+01  0.14215303054E+02  0.10566000000E+00 0.  1.
        -14    1    4    4    0    0 -0.98373310587E+01 -0.13356205832E+02  0.95332070253E+01  0.19132259479E+02  0.00000000000E+00 0.  1.
<mgrwt>
<rscale>  0 0.80116329E+02</rscale>
<asrwt>0</asrwt>
<pdfrwt beam="1">  1        1 0.33840805E-02 0.80116329E+02</pdfrwt>
<pdfrwt beam="2">  1       -2 0.11223148E-01 0.80116329E+02</pdfrwt>
<totfact> 0.11353167E+05</totfact>
</mgrwt>
</event>
<event>
 8    1  0.1241100E-024  0.7868725E+02  0.7818608E-02  0.1332819E+00
          1   -1    0    0  501    0  0.00000000000E+00  0.00000000000E+00  0.78694317751E+01  0.78694333890E+01  0.50400000000E-02 0. -1.
         -2   -1    0    0    0  501 -0.00000000000E+00 -0.00000000000E+00 -0.19670045902E+03  0.19670045903E+03  0.25500000000E-02 0.  1.
        -24    2    1    2    0    0  0.35527136788E-14 -0.35527136788E-14 -0.18883102724E+03  0.20456989242E+03  0.78687254600E+02 0.  0.
         66    2    3    3    0    0  0.27219486936E+02 -0.27984920980E+02 -0.10663149202E+03  0.11357082085E+03  0.19999969991E+01 0.  0.
         13    1    3    3    0    0 -0.27219486936E+02  0.27984920980E+02 -0.82199535225E+02  0.90999071570E+02  0.10566000000E+00 0. -1.
         13    1    4    4    0    0  0.39488668077E+01 -0.32291296551E+01 -0.13274707415E+02  0.14221457323E+02  0.10566000000E+00 0. -1.
        -13    1    4    4    0    0  0.10406634505E+02 -0.11306399272E+02 -0.41418039688E+02  0.44176893076E+02  0.10566000000E+00 0.  1.
         14    1    4    4    0    0  0.12863985624E+02 -0.13449392054E+02 -0.51938744913E+02  0.55172470453E+02  0.00000000000E+00 0. -1.
<mgrwt>
<rscale>  0 0.78687255E+02</rscale>
<asrwt>0</asrwt>
<pdfrwt beam="1">  1        1 0.12106821E-02 0.78687255E+02</pdfrwt>
<pdfrwt beam="2">  1       -2 0.30261605E-01 0.78687255E+02</pdfrwt>
<totfact> 0.89380866E+04</totfact>
</mgrwt>
</event>
<event>
 8    1  0.1241100E-024  0.7903317E+02  0.7818608E-02  0.1331818E+00
         -2   -1    0    0    0  501 -0.00000000000E+00  0.00000000000E+00  0.63225150078E+02  0.63225150129E+02  0.25500000000E-02 0.  1.
          1   -1    0    0  501    0  0.00000000000E+00 -0.00000000000E+00 -0.24698408359E+02  0.24698408873E+02  0.50400000000E-02 0. -1.
        -24    2    1    2    0    0 -0.71054273576E-14 -0.35527136788E-14  0.38526741719E+02  0.87923559003E+02  0.79033172784E+02 0.  0.
         66    2    3    3    0    0  0.34761616319E+02 -0.17030463790E+02  0.27975096049E+02  0.47801806095E+02  0.20000002560E+01 0.  0.
         13    1    3    3    0    0 -0.34761616319E+02  0.17030463790E+02  0.10551645670E+02  0.40121752908E+02  0.10566000000E+00 0. -1.
         13    1    4    4    0    0  0.77814315823E+00 -0.20301500937E+00  0.44404470430E+00  0.92469541134E+00  0.10566000000E+00 0. -1.
        -13    1    4    4    0    0  0.18384574153E+02 -0.86268002450E+01  0.14219877019E+02  0.24791738861E+02  0.10566000000E+00 0.  1.
         14    1    4    4    0    0  0.15598899007E+02 -0.82006485353E+01  0.13311174325E+02  0.22085371823E+02  0.00000000000E+00 0. -1.
<mgrwt>
<rscale>  0 0.79033173E+02</rscale>
<asrwt>0</asrwt>
<pdfrwt beam="1">  1        1 0.37997552E-02 0.79033173E+02</pdfrwt>
<pdfrwt beam="2">  1       -2 0.97269461E-02 0.79033173E+02</pdfrwt>
<totfact> 0.12089143E+05</totfact>
</mgrwt>
</event>
<event>
 8    1  0.1241100E-024  0.7705264E+02  0.7818608E-02  0.1337630E+00
         -2   -1    0    0    0  501 -0.00000000000E+00  0.00000000000E+00  0.10616312541E+02  0.10616312847E+02  0.25500000000E-02 0.  1.
          1   -1    0    0  501    0  0.00000000000E+00 -0.00000000000E+00 -0.13981098837E+03  0.13981098846E+03  0.50400000000E-02 0. -1.
        -24    2    1    2    0    0  0.35527136788E-14 -0.17763568394E-14 -0.12919467583E+03  0.15042730131E+03  0.77052636011E+02 0.  0.
         66    2    3    3    0    0  0.23583130097E+02 -0.15652810906E+02 -0.13690773037E+02  0.31505742123E+02  0.20000014965E+01 0.  0.
         13    1    3    3    0    0 -0.23583130097E+02  0.15652810906E+02 -0.11550390280E+03  0.11892155919E+03  0.10566000000E+00 0. -1.
         13    1    4    4    0    0  0.74902898801E+01 -0.42567008674E+01 -0.35530542739E+01  0.93198338757E+01  0.10566000000E+00 0. -1.
        -13    1    4    4    0    0  0.13085480958E+02 -0.90566616350E+01 -0.84530022538E+01  0.18019915178E+02  0.10566000000E+00 0.  1.
        -14    1    4    4    0    0  0.30073592590E+01 -0.23394484033E+01 -0.16847165089E+01  0.41659930701E+01  0.00000000000E+00 0.  1.
<mgrwt>
<rscale>  0 0.77052636E+02</rscale>
<asrwt>0</asrwt>
<pdfrwt beam="1">  1        1 0.21509382E-01 0.77052636E+02</pdfrwt>
<pdfrwt beam="2">  1       -2 0.16332790E-02 0.77052636E+02</pdfrwt>
<totfact> 0.17229869E+05</totfact>
</mgrwt>
</event>
<event>
 8    1  0.1241100E-024  0.8103734E+02  0.7818608E-02  0.1326133E+00
         -2   -1    0    0    0  501 -0.00000000000E+00  0.00000000000E+00  0.54757360759E+02  0.54757360818E+02  0.25500000000E-02 0.  1.
          1   -1    0    0  501    0  0.00000000000E+00 -0.00000000000E+00 -0.29982502922E+02  0.29982503346E+02  0.50400000000E-02 0. -1.
        -24    2    1    2    0    0 -0.35527136788E-14  0.00000000000E+00  0.24774857836E+02  0.84739864164E+02  0.81037343230E+02 0.  0.
         66    2    3    3    0    0  0.25359463116E+02 -0.17961877832E+02  0.39543150952E+02  0.50332814445E+02  0.19999994959E+01 0.  0.
         13    1    3    3    0    0 -0.25359463116E+02  0.17961877832E+02 -0.14768293115E+02  0.34407049719E+02  0.10566000000E+00 0. -1.
         13    1    4    4    0    0  0.48787628966E+00 -0.30619151105E+00  0.74892615238E+00  0.95070023287E+00  0.10566000000E+00 0.  1.
        -13    1    4    4    0    0  0.23996451235E+02 -0.16763594547E+02  0.37625057969E+02  0.47670786917E+02  0.10566000000E+00 0.  1.
        -14    1    4    4    0    0  0.87513559184E+00 -0.89209177378E+00  0.11691668297E+01  0.17113272956E+01  0.00000000000E+00 0.  1.
<mgrwt>
<rscale>  0 0.81037343E+02</rscale>
<asrwt>0</asrwt>
<pdfrwt beam="1">  1        1 0.46126929E-02 0.81037343E+02</pdfrwt>
<pdfrwt beam="2">  1       -2 0.84242093E-02 0.81037343E+02</pdfrwt>
<totfact> 0.11653311E+05</totfact>
</mgrwt>
</event>
<event>
 8    1  0.1241100E-024  0.6942225E+02  0.7818608E-02  0.1362069E+00
          1   -1    0    0  501    0  0.00000000000E+00  0.00000000000E+00  0.57185336824E+02  0.57185337046E+02  0.50400000000E-02 0. -1.
         -2   -1    0    0    0  501 -0.00000000000E+00 -0.00000000000E+00 -0.21069426054E+02  0.21069426209E+02  0.25500000000E-02 0.  1.
        -24    2    1    2    0    0  0.00000000000E+00  0.00000000000E+00  0.36115910770E+02  0.78254763255E+02  0.69422251198E+02 0.  0.
         66    2    3    3    0    0 -0.19430481179E+02 -0.28450086514E+02  0.22568617125E+02  0.41234615354E+02  0.20000007203E+01 0.  0.
         13    1    3    3    0    0  0.19430481179E+02  0.28450086514E+02  0.13547293644E+02  0.37020147901E+02  0.10566000000E+00 0. -1.
         13    1    4    4    0    0 -0.63894206481E+01 -0.78611381680E+01  0.70011983481E+01  0.12314630805E+02  0.10566000000E+00 0. -1.
        -13    1    4    4    0    0 -0.59402073805E+01 -0.95151522571E+01  0.71844031689E+01  0.13321073498E+02  0.10566000000E+00 0.  1.
         14    1    4    4    0    0 -0.71008531502E+01 -0.11073796089E+02  0.83830156084E+01  0.15598911051E+02  0.00000000000E+00 0. -1.
<mgrwt>
<rscale>  0 0.69422251E+02</rscale>
<asrwt>0</asrwt>
<pdfrwt beam="1">  1        1 0.87977442E-02 0.69422251E+02</pdfrwt>
<pdfrwt beam="2">  1       -2 0.32414502E-02 0.69422251E+02</pdfrwt>
<totfact> 0.19785561E+05</totfact>
</mgrwt>
</event>
<event>
 8    1  0.1373029E-024  0.7925480E+02  0.7818608E-02  0.1331180E+00
         -2   -1    0    0    0  501 -0.00000000000E+00  0.00000000000E+00  0.33393208584E+02  0.33393208681E+02  0.25500000000E-02 0.  1.
          1   -1    0    0  501    0  0.00000000000E+00 -0.00000000000E+00 -0.47025453355E+02  0.47025453625E+02  0.50400000000E-02 0. -1.
        -24    2    1    2    0    0  0.00000000000E+00 -0.24286128664E-16 -0.13632244772E+02  0.80418662306E+02  0.79254798906E+02 0.  0.
         66    2    3    3    0    0  0.11696531026E+02 -0.18684269130E-01  0.31570553940E+02  0.33726978223E+02  0.19999991975E+01 0.  0.
         13    1    3    3    0    0 -0.11696531026E+02  0.18684269130E-01 -0.45202798712E+02  0.46691684084E+02  0.10566000000E+00 0. -1.
         13    1    4    4    0    0  0.22419210762E+01 -0.39207424854E+00  0.47538903028E+01  0.52716761447E+01  0.10566000000E+00 0. -1.
        -13    1    4    4    0    0  0.57575293806E+01 -0.25992846555E+00  0.15991809107E+02  0.16998994968E+02  0.10566000000E+00 0.  1.
         14    1    4    4    0    0  0.36970805693E+01  0.63331844496E+00  0.10824854530E+02  0.11456307109E+02  0.00000000000E+00 0. -1.
<mgrwt>
<rscale>  0 0.79254799E+02</rscale>
<asrwt>0</asrwt>
<pdfrwt beam="1">  1        1 0.72346852E-02 0.79254799E+02</pdfrwt>
<pdfrwt beam="2">  1       -2 0.51374167E-02 0.79254799E+02</pdfrwt>
<totfact> 0.13375024E+05</totfact>
</mgrwt>
</event>
<event>
 8    1  0.1241100E-024  0.7989453E+02  0.7818608E-02  0.1329351E+00
         -2   -1    0    0    0  501 -0.00000000000E+00  0.00000000000E+00  0.55637052161E+02  0.55637052219E+02  0.25500000000E-02 0.  1.
          1   -1    0    0  501    0  0.00000000000E+00 -0.00000000000E+00 -0.28682039349E+02  0.28682039792E+02  0.50400000000E-02 0. -1.
        -24    2    1    2    0    0  0.00000000000E+00  0.35527136788E-14  0.26955012812E+02  0.84319092011E+02  0.79894533992E+02 0.  0.
         66    2    3    3    0    0 -0.10624632920E+01  0.19683310839E+02  0.50124758064E+02  0.53898542823E+02  0.19999984173E+01 0.  0.
         13    1    3    3    0    0  0.10624632920E+01 -0.19683310839E+02 -0.23169745252E+02  0.30420549188E+02  0.10566000000E+00 0. -1.
         13    1    4    4    0    0  0.38321726588E+00  0.25776451657E+01  0.74647315462E+01  0.79072429561E+01  0.10566000000E+00 0. -1.
        -13    1    4    4    0    0 -0.91470630208E+00  0.68888493858E+01  0.16759629348E+02  0.18143573887E+02  0.10566000000E+00 0.  1.
         14    1    4    4    0    0 -0.53097425581E+00  0.10216816287E+02  0.25900397170E+02  0.27847725980E+02  0.00000000000E+00 0. -1.
<mgrwt>
<rscale>  0 0.79894534E+02</rscale>
<asrwt>0</asrwt>
<pdfrwt beam="1">  1        1 0.44126215E-02 0.79894534E+02</pdfrwt>
<pdfrwt beam="2">  1       -2 0.85595465E-02 0.79894534E+02</pdfrwt>
<totfact> 0.12043854E+05</totfact>
</mgrwt>
</event>
<event>
 8    1  0.1241100E-024  0.8128411E+02  0.7818608E-02  0.1325446E+00
         -2   -1    0    0    0  501 -0.00000000000E+00  0.00000000000E+00  0.24853051588E+03  0.24853051590E+03  0.25500000000E-02 0.  1.
          1   -1    0    0  501    0  0.00000000000E+00 -0.00000000000E+00 -0.66461710176E+01  0.66461729286E+01  0.50400000000E-02 0. -1.
        -24    2    1    2    0    0 -0.71054273576E-14  0.00000000000E+00  0.24188434487E+03  0.25517668882E+03  0.81284108093E+02 0.  0.
         66    2    3    3    0    0  0.36350189110E+02  0.14389764409E+02  0.15560044752E+03  0.16044905995E+03  0.20000001418E+01 0.  0.
         13    1    3    3    0    0 -0.36350189110E+02 -0.14389764409E+02  0.86283897344E+02  0.94727628879E+02  0.10566000000E+00 0. -1.
         13    1    4    4    0    0  0.17203195399E+02  0.65321332028E+01  0.74114454339E+02  0.76364796878E+02  0.10566000000E+00 0. -1.
        -13    1    4    4    0    0  0.18739101580E+02  0.77414540989E+01  0.78889008807E+02  0.81452875420E+02  0.10566000000E+00 0.  1.
         14    1    4    4    0    0  0.40789213070E+00  0.11617710739E+00  0.25969843754E+01  0.26313876485E+01  0.00000000000E+00 0. -1.
<mgrwt>
<rscale>  0 0.81284108E+02</rscale>
<asrwt>0</asrwt>
<pdfrwt beam="1">  1        1 0.10224882E-02 0.81284108E+02</pdfrwt>
<pdfrwt beam="2">  1       -2 0.38235458E-01 0.81284108E+02</pdfrwt>
<totfact> 0.74214546E+04</totfact>
</mgrwt>
</event>
<event>
 8    1  0.1241100E-024  0.8790190E+02  0.7818608E-02  0.1308014E+00
          1   -1    0    0  501    0  0.00000000000E+00  0.00000000000E+00  0.34063568107E+03  0.34063568111E+03  0.50400000000E-02 0. -1.
         -2   -1    0    0    0  501 -0.00000000000E+00 -0.00000000000E+00 -0.56708264124E+01  0.56708269857E+01  0.25500000000E-02 0.  1.
        -24    2    1    2    0    0 -0.17763568394E-14  0.00000000000E+00  0.33496485466E+03  0.34630650809E+03  0.87901898112E+02 0.  0.
         66    2    3    3    0    0  0.10935579019E+02 -0.38635648834E+02  0.97382549317E+02  0.10535492950E+03  0.20000025212E+01 0.  0.
         13    1    3    3    0    0 -0.10935579019E+02  0.38635648834E+02  0.23758230534E+03  0.24095157859E+03  0.10566000000E+00 0. -1.
         13    1    4    4    0    0  0.13453664916E+01 -0.55592417552E+01  0.12761447116E+02  0.13985023290E+02  0.10566000000E+00 0. -1.
        -13    1    4    4    0    0  0.25848518230E+01 -0.70493053708E+01  0.18732248769E+02  0.20181240624E+02  0.10566000000E+00 0.  1.
         14    1    4    4    0    0  0.70053607048E+01 -0.26027101708E+02  0.65888853433E+02  0.71188665591E+02  0.00000000000E+00 0. -1.
<mgrwt>
<rscale>  0 0.87901898E+02</rscale>
<asrwt>0</asrwt>
<pdfrwt beam="1">  1        1 0.52405500E-01 0.87901898E+02</pdfrwt>
<pdfrwt beam="2">  1       -2 0.87243471E-03 0.87901898E+02</pdfrwt>
<totfact> 0.14399836E+05</totfact>
</mgrwt>
</event>
<event>
 8    1  0.1241100E-024  0.8116822E+02  0.7818608E-02  0.1325769E+00
         -2   -1    0    0    0  501 -0.00000000000E+00  0.00000000000E+00  0.21570320941E+03  0.21570320942E+03  0.25500000000E-02 0.  1.
          1   -1    0    0  501    0  0.00000000000E+00 -0.00000000000E+00 -0.76358149166E+01  0.76358165799E+01  0.50400000000E-02 0. -1.
        -24    2    1    2    0    0  0.00000000000E+00  0.00000000000E+00  0.20806739449E+03  0.22333902600E+03  0.81168219677E+02 0.  0.
         66    2    3    3    0    0  0.31548203214E+02  0.17351978905E+02  0.15547679479E+03  0.15960392862E+03  0.20000033134E+01 0.  0.
         13    1    3    3    0    0 -0.31548203214E+02 -0.17351978905E+02  0.52590599698E+02  0.63735097385E+02  0.10566000000E+00 0. -1.
         13    1    4    4    0    0  0.30979414463E+01  0.12198698379E+01  0.14955063518E+02  0.15321566907E+02  0.10566000000E+00 0. -1.
        -13    1    4    4    0    0  0.48642513266E+01  0.28166571393E+01  0.26105158339E+02  0.26703650581E+02  0.10566000000E+00 0.  1.
        -14    1    4    4    0    0  0.23586010442E+02  0.13315451927E+02  0.11441657294E+03  0.11757871113E+03  0.00000000000E+00 0.  1.
<mgrwt>
<rscale>  0 0.81168220E+02</rscale>
<asrwt>0</asrwt>
<pdfrwt beam="1">  1        1 0.11747409E-02 0.81168220E+02</pdfrwt>
<pdfrwt beam="2">  1       -2 0.33185108E-01 0.81168220E+02</pdfrwt>
<totfact> 0.79407957E+04</totfact>
</mgrwt>
</event>
<event>
 8    1  0.1241100E-024  0.8175918E+02  0.7818608E-02  0.1324132E+00
          1   -1    0    0  501    0  0.00000000000E+00  0.00000000000E+00  0.96365310009E+01  0.96365323189E+01  0.50400000000E-02 0. -1.
         -2   -1    0    0    0  501 -0.00000000000E+00 -0.00000000000E+00 -0.17341724043E+03  0.17341724045E+03  0.25500000000E-02 0.  1.
        -24    2    1    2    0    0  0.00000000000E+00  0.00000000000E+00 -0.16378070943E+03  0.18305377277E+03  0.81759176509E+02 0.  0.
         66    2    3    3    0    0  0.43574981381E+01 -0.34736251317E+02 -0.12909218121E+03  0.13376990015E+03  0.19999982240E+01 0.  0.
         13    1    3    3    0    0 -0.43574981381E+01  0.34736251317E+02 -0.34688528224E+02  0.49283872615E+02  0.10566000000E+00 0. -1.
         13    1    4    4    0    0  0.66349247032E+00 -0.91441232390E+01 -0.36550681306E+02  0.37683135220E+02  0.10566000000E+00 0. -1.
        -13    1    4    4    0    0  0.17535403583E+01 -0.13183627886E+02 -0.47891407731E+02  0.49703933914E+02  0.10566000000E+00 0.  1.
         14    1    4    4    0    0  0.19404653095E+01 -0.12408500192E+02 -0.44650092170E+02  0.46382831020E+02  0.00000000000E+00 0. -1.
<mgrwt>
<rscale>  0 0.81759177E+02</rscale>
<asrwt>0</asrwt>
<pdfrwt beam="1">  1        1 0.14825435E-02 0.81759177E+02</pdfrwt>
<pdfrwt beam="2">  1       -2 0.26679573E-01 0.81759177E+02</pdfrwt>
<totfact> 0.84977812E+04</totfact>
</mgrwt>
</event>
<event>
 8    1  0.1241100E-024  0.7905047E+02  0.7818608E-02  0.1331768E+00
          1   -1    0    0  501    0  0.00000000000E+00  0.00000000000E+00  0.68899395032E+02  0.68899395216E+02  0.50400000000E-02 0. -1.
         -2   -1    0    0    0  501 -0.00000000000E+00 -0.00000000000E+00 -0.22674279031E+02  0.22674279174E+02  0.25500000000E-02 0.  1.
        -24    2    1    2    0    0 -0.88817841970E-15  0.17763568394E-14  0.46225116001E+02  0.91573674390E+02  0.79050468006E+02 0.  0.
         66    2    3    3    0    0 -0.61514087059E+01  0.14169748616E+02 -0.18985972039E+02  0.24557864522E+02  0.19999926820E+01 0.  0.
         13    1    3    3    0    0  0.61514087059E+01 -0.14169748616E+02  0.65211088040E+02  0.67015809868E+02  0.10566000000E+00 0. -1.
         13    1    4    4    0    0 -0.43908673289E+01  0.86020314253E+01 -0.12020878628E+02  0.15420354976E+02  0.10566000000E+00 0. -1.
        -13    1    4    4    0    0 -0.14208058141E+01  0.30431754336E+01 -0.37397528866E+01  0.50275761128E+01  0.10566000000E+00 0.  1.
         14    1    4    4    0    0 -0.33973556286E+00  0.25245417569E+01 -0.32253405235E+01  0.41099334335E+01  0.00000000000E+00 0. -1.
<mgrwt>
<rscale>  0 0.79050468E+02</rscale>
<asrwt>0</asrwt>
<pdfrwt beam="1">  1        1 0.10599907E-01 0.79050468E+02</pdfrwt>
<pdfrwt beam="2">  1       -2 0.34883507E-02 0.79050468E+02</pdfrwt>
<totfact> 0.14295616E+05</totfact>
</mgrwt>
</event>
<event>
 8    1  0.1241100E-024  0.7611182E+02  0.7818608E-02  0.1340462E+00
         -2   -1    0    0    0  501 -0.00000000000E+00  0.00000000000E+00  0.11458033119E+02  0.11458033402E+02  0.25500000000E-02 0.  1.
          1   -1    0    0  501    0  0.00000000000E+00 -0.00000000000E+00 -0.12639625157E+03  0.12639625167E+03  0.50400000000E-02 0. -1.
        -24    2    1    2    0    0  0.00000000000E+00  0.00000000000E+00 -0.11493821845E+03  0.13785428507E+03  0.76111824653E+02 0.  0.
         66    2    3    3    0    0  0.18505125554E+02  0.23105112396E+02 -0.14268154713E+02  0.32922122283E+02  0.20000015277E+01 0.  0.
         13    1    3    3    0    0 -0.18505125554E+02 -0.23105112396E+02 -0.10067006374E+03  0.10493216279E+03  0.10566000000E+00 0. -1.
         13    1    4    4    0    0  0.64798944647E+01  0.74337964476E+01 -0.51645879470E+01  0.11132587058E+02  0.10566000000E+00 0. -1.
        -13    1    4    4    0    0  0.10745579497E+02  0.14595544967E+02 -0.83559396051E+01  0.19958213907E+02  0.10566000000E+00 0.  1.
         14    1    4    4    0    0  0.12796515923E+01  0.10757709807E+01 -0.74762716075E+00  0.18313213186E+01  0.00000000000E+00 0. -1.
<mgrwt>
<rscale>  0 0.76111825E+02</rscale>
<asrwt>0</asrwt>
<pdfrwt beam="1">  1        1 0.19445576E-01 0.76111825E+02</pdfrwt>
<pdfrwt beam="2">  1       -2 0.17627744E-02 0.76111825E+02</pdfrwt>
<totfact> 0.17488765E+05</totfact>
</mgrwt>
</event>
<event>
 8    1  0.1241100E-024  0.7918618E+02  0.7818608E-02  0.1331377E+00
          1   -1    0    0  501    0  0.00000000000E+00  0.00000000000E+00  0.64127034592E+02  0.64127034790E+02  0.50400000000E-02 0. -1.
         -2   -1    0    0    0  501 -0.00000000000E+00 -0.00000000000E+00 -0.24445427925E+02  0.24445428058E+02  0.25500000000E-02 0.  1.
        -24    2    1    2    0    0 -0.35527136788E-14  0.00000000000E+00  0.39681606667E+02  0.88572462848E+02  0.79186181037E+02 0.  0.
         66    2    3    3    0    0 -0.17296010263E+02  0.34811199974E+02  0.11585627905E+02  0.40610323600E+02  0.19999985712E+01 0.  0.
         13    1    3    3    0    0  0.17296010263E+02 -0.34811199974E+02  0.28095978761E+02  0.47962139248E+02  0.10566000000E+00 0. -1.
         13    1    4    4    0    0 -0.25288799699E+01  0.47671377361E+01  0.18039322719E+01  0.56908849728E+01  0.10566000000E+00 0. -1.
        -13    1    4    4    0    0 -0.12580134399E+02  0.26724901100E+02  0.88748739331E+01  0.30842416761E+02  0.10566000000E+00 0.  1.
        -14    1    4    4    0    0 -0.21869958936E+01  0.33191611379E+01  0.90682170047E+00  0.40770218659E+01  0.00000000000E+00 0.  1.
<mgrwt>
<rscale>  0 0.79186181E+02</rscale>
<asrwt>0</asrwt>
<pdfrwt beam="1">  1        1 0.98656976E-02 0.79186181E+02</pdfrwt>
<pdfrwt beam="2">  1       -2 0.37608351E-02 0.79186181E+02</pdfrwt>
<totfact> 0.14069942E+05</totfact>
</mgrwt>
</event>
<event>
 8    1  0.1241100E-024  0.8000276E+02  0.7818608E-02  0.1329044E+00
         -2   -1    0    0    0  501 -0.00000000000E+00  0.00000000000E+00  0.17173039724E+03  0.17173039726E+03  0.25500000000E-02 0.  1.
          1   -1    0    0  501    0  0.00000000000E+00 -0.00000000000E+00 -0.93175720881E+01  0.93175734512E+01  0.50400000000E-02 0. -1.
        -24    2    1    2    0    0  0.00000000000E+00  0.00000000000E+00  0.16241282515E+03  0.18104797071E+03  0.80002761980E+02 0.  0.
         66    2    3    3    0    0 -0.25019905983E+02  0.25218193697E+02  0.12274830572E+03  0.12780101536E+03  0.19999949846E+01 0.  0.
         13    1    3    3    0    0  0.25019905983E+02 -0.25218193697E+02  0.39664519431E+02  0.53246955354E+02  0.10566000000E+00 0. -1.
         13    1    4    4    0    0 -0.12162974131E+02  0.13379050902E+02  0.60385366996E+02  0.63034440222E+02  0.10566000000E+00 0. -1.
        -13    1    4    4    0    0 -0.99310220096E+01  0.92198205275E+01  0.48771321141E+02  0.50619000569E+02  0.10566000000E+00 0.  1.
         14    1    4    4    0    0 -0.29259098420E+01  0.26193222678E+01  0.13591617584E+02  0.14147574566E+02  0.00000000000E+00 0. -1.
<mgrwt>
<rscale>  0 0.80002762E+02</rscale>
<asrwt>0</asrwt>
<pdfrwt beam="1">  1        1 0.14334728E-02 0.80002762E+02</pdfrwt>
<pdfrwt beam="2">  1       -2 0.26420060E-01 0.80002762E+02</pdfrwt>
<totfact> 0.90192240E+04</totfact>
</mgrwt>
</event>
<event>
 8    1  0.1241100E-024  0.7941439E+02  0.7818608E-02  0.1330722E+00
         -2   -1    0    0    0  501 -0.00000000000E+00  0.00000000000E+00  0.12263205516E+02  0.12263205781E+02  0.25500000000E-02 0.  1.
          1   -1    0    0  501    0  0.00000000000E+00 -0.00000000000E+00 -0.12856846056E+03  0.12856846066E+03  0.50400000000E-02 0. -1.
        -24    2    1    2    0    0  0.00000000000E+00  0.00000000000E+00 -0.11630525504E+03  0.14083166644E+03  0.79414393665E+02 0.  0.
         66    2    3    3    0    0  0.30567115476E+02 -0.22786432200E+02 -0.38675289742E+02  0.54344715298E+02  0.20000008106E+01 0.  0.
         13    1    3    3    0    0 -0.30567115476E+02  0.22786432200E+02 -0.77629965302E+02  0.86486951141E+02  0.10566000000E+00 0. -1.
         13    1    4    4    0    0  0.71631200290E+00 -0.87909355345E+00 -0.13725179454E+01  0.17835015860E+01  0.10566000000E+00 0. -1.
        -13    1    4    4    0    0  0.93326321083E+01 -0.70682412081E+01 -0.11758786621E+02  0.16593320423E+02  0.10566000000E+00 0.  1.
         14    1    4    4    0    0  0.20518171365E+02 -0.14839097438E+02 -0.25543985176E+02  0.35967893288E+02  0.00000000000E+00 0. -1.
<mgrwt>
<rscale>  0 0.79414394E+02</rscale>
<asrwt>0</asrwt>
<pdfrwt beam="1">  1        1 0.19779762E-01 0.79414394E+02</pdfrwt>
<pdfrwt beam="2">  1       -2 0.18866471E-02 0.79414394E+02</pdfrwt>
<totfact> 0.15658111E+05</totfact>
</mgrwt>
</event>
<event>
 8    1  0.1241100E-024  0.7893657E+02  0.7818608E-02  0.1332097E+00
          1   -1    0    0  501    0  0.00000000000E+00  0.00000000000E+00  0.92581174726E+02  0.92581174864E+02  0.50400000000E-02 0. -1.
         -2   -1    0    0    0  501 -0.00000000000E+00 -0.00000000000E+00 -0.16825725579E+02  0.16825725772E+02  0.25500000000E-02 0.  1.
        -24    2    1    2    0    0 -0.44408920985E-15  0.00000000000E+00  0.75755449148E+02  0.10940690064E+03  0.78936568402E+02 0.  0.
         66    2    3    3    0    0  0.31049066378E+01 -0.33086729493E+02  0.84555834400E+01  0.34349221468E+02  0.20000025924E+01 0.  0.
         13    1    3    3    0    0 -0.31049066378E+01  0.33086729493E+02  0.67299865708E+02  0.75057679168E+02  0.10566000000E+00 0. -1.
         13    1    4    4    0    0  0.48383897635E+00 -0.25283091882E+01  0.27831762317E+00  0.25913456429E+01  0.10566000000E+00 0. -1.
        -13    1    4    4    0    0  0.20218261799E+01 -0.27013131988E+02  0.70860920739E+01  0.28000374029E+02  0.10566000000E+00 0.  1.
        -14    1    4    4    0    0  0.59924148152E+00 -0.35452883171E+01  0.10911737429E+01  0.37575017953E+01  0.00000000000E+00 0.  1.
<mgrwt>
<rscale>  0 0.78936568E+02</rscale>
<asrwt>0</asrwt>
<pdfrwt beam="1">  1        1 0.14243258E-01 0.78936568E+02</pdfrwt>
<pdfrwt beam="2">  1       -2 0.25885732E-02 0.78936568E+02</pdfrwt>
<totfact> 0.15046600E+05</totfact>
</mgrwt>
</event>
<event>
 8    1  0.1241100E-024  0.8082006E+02  0.7818608E-02  0.1326740E+00
         -2   -1    0    0    0  501 -0.00000000000E+00  0.00000000000E+00  0.22858209237E+02  0.22858209379E+02  0.25500000000E-02 0.  1.
          1   -1    0    0  501    0  0.00000000000E+00 -0.00000000000E+00 -0.71439128753E+02  0.71439128931E+02  0.50400000000E-02 0. -1.
        -24    2    1    2    0    0 -0.35527136788E-14  0.17763568394E-14 -0.48580919516E+02  0.94297338310E+02  0.80820061069E+02 0.  0.
         66    2    3    3    0    0  0.26597977685E+02 -0.15163764222E+02  0.64221542740E+01  0.31347028916E+02  0.19999985070E+01 0.  0.
         13    1    3    3    0    0 -0.26597977685E+02  0.15163764222E+02 -0.55003073791E+02  0.62950309394E+02  0.10566000000E+00 0. -1.
         13    1    4    4    0    0  0.40030651584E+01 -0.21178290600E+01  0.11323616054E+01  0.46693829818E+01  0.10566000000E+00 0. -1.
        -13    1    4    4    0    0  0.18257457654E+02 -0.10104861306E+02  0.48133755308E+01  0.21415478749E+02  0.10566000000E+00 0.  1.
         14    1    4    4    0    0  0.43374548727E+01 -0.29410738562E+01  0.47641713785E+00  0.52621671856E+01  0.00000000000E+00 0. -1.
<mgrwt>
<rscale>  0 0.80820061E+02</rscale>
<asrwt>0</asrwt>
<pdfrwt beam="1">  1        1 0.10990635E-01 0.80820061E+02</pdfrwt>
<pdfrwt beam="2">  1       -2 0.35166476E-02 0.80820061E+02</pdfrwt>
<totfact> 0.13532246E+05</totfact>
</mgrwt>
</event>
<event>
 8    1  0.1241100E-024  0.7640709E+02  0.7818608E-02  0.1339568E+00
         -2   -1    0    0    0  501 -0.00000000000E+00  0.00000000000E+00  0.52415814918E+01  0.52415821121E+01  0.25500000000E-02 0.  1.
          1   -1    0    0  501    0  0.00000000000E+00 -0.00000000000E+00 -0.27844855860E+03  0.27844855865E+03  0.50400000000E-02 0. -1.
        -24    2    1    2    0    0 -0.17763568394E-14  0.00000000000E+00 -0.27320697711E+03  0.28369014076E+03  0.76407091441E+02 0.  0.
         66    2    3    3    0    0 -0.14230086579E+02  0.33719841518E+02 -0.96367567271E+02  0.10310301189E+03  0.19999909003E+01 0.  0.
         13    1    3    3    0    0  0.14230086579E+02 -0.33719841518E+02 -0.17683940984E+03  0.18058712886E+03  0.10566000000E+00 0. -1.
         13    1    4    4    0    0 -0.11846733230E-01  0.11949368261E+00 -0.33578285296E+00  0.37193177494E+00  0.10566000000E+00 0.  1.
        -13    1    4    4    0    0 -0.11111926651E+01  0.30041365888E+01 -0.85752717159E+01  0.91545636062E+01  0.10566000000E+00 0. -1.
        -14    1    4    4    0    0 -0.13107047181E+02  0.30596211246E+02 -0.87456512702E+02  0.93576516512E+02  0.00000000000E+00 0.  1.
<mgrwt>
<rscale>  0 0.76407091E+02</rscale>
<asrwt>0</asrwt>
<pdfrwt beam="1">  1        1 0.42838228E-01 0.76407091E+02</pdfrwt>
<pdfrwt beam="2">  1       -2 0.80639742E-03 0.76407091E+02</pdfrwt>
<totfact> 0.20072249E+05</totfact>
</mgrwt>
</event>
<event>
 8    1  0.1241100E-024  0.7816369E+02  0.7818608E-02  0.1334345E+00
          1   -1    0    0  501    0  0.00000000000E+00  0.00000000000E+00  0.24939491806E+02  0.24939492315E+02  0.50400000000E-02 0. -1.
         -2   -1    0    0    0  501 -0.00000000000E+00 -0.00000000000E+00 -0.61243850480E+02  0.61243850533E+02  0.25500000000E-02 0.  1.
        -24    2    1    2    0    0  0.17763568394E-14  0.00000000000E+00 -0.36304358674E+02  0.86183342848E+02  0.78163688025E+02 0.  0.
         66    2    3    3    0    0  0.14750017968E+02 -0.15698962580E+02 -0.54085219603E+02  0.58251450045E+02  0.19999991649E+01 0.  0.
         13    1    3    3    0    0 -0.14750017968E+02  0.15698962580E+02  0.17780860929E+02  0.27931892803E+02  0.10566000000E+00 0. -1.
         13    1    4    4    0    0  0.38868605502E+01 -0.40195746949E+01 -0.12011975078E+02  0.13250033018E+02  0.10566000000E+00 0. -1.
        -13    1    4    4    0    0  0.45927116394E+01 -0.46982549876E+01 -0.16438958671E+02  0.17703590776E+02  0.10566000000E+00 0.  1.
         14    1    4    4    0    0  0.62704457789E+01 -0.69811328974E+01 -0.25634285854E+02  0.27297826251E+02  0.00000000000E+00 0. -1.
<mgrwt>
<rscale>  0 0.78163688E+02</rscale>
<asrwt>0</asrwt>
<pdfrwt beam="1">  1        1 0.38368450E-02 0.78163688E+02</pdfrwt>
<pdfrwt beam="2">  1       -2 0.94221308E-02 0.78163688E+02</pdfrwt>
<totfact> 0.12507212E+05</totfact>
</mgrwt>
</event>
<event>
 8    1  0.1241100E-024  0.7921273E+02  0.7818608E-02  0.1331301E+00
         -2   -1    0    0    0  501 -0.00000000000E+00  0.00000000000E+00  0.99001840034E+02  0.99001840067E+02  0.25500000000E-02 0.  1.
          1   -1    0    0  501    0  0.00000000000E+00 -0.00000000000E+00 -0.15844797665E+02  0.15844798466E+02  0.50400000000E-02 0. -1.
        -24    2    1    2    0    0  0.00000000000E+00  0.00000000000E+00  0.83157042369E+02  0.11484663853E+03  0.79212730586E+02 0.  0.
         66    2    3    3    0    0  0.25618596594E+02 -0.25102971050E+02  0.17336184202E+02  0.39887528474E+02  0.19999995249E+01 0.  0.
         13    1    3    3    0    0 -0.25618596594E+02  0.25102971050E+02  0.65820858167E+02  0.74959110059E+02  0.10566000000E+00 0. -1.
         13    1    4    4    0    0  0.11567227991E+02 -0.10730925733E+02  0.70668285288E+01  0.17288862310E+02  0.10566000000E+00 0. -1.
        -13    1    4    4    0    0  0.78387547102E+01 -0.72970977074E+01  0.52122717822E+01  0.11911030666E+02  0.10566000000E+00 0.  1.
         14    1    4    4    0    0  0.62126138930E+01 -0.70749476101E+01  0.50570838914E+01  0.10687635499E+02  0.00000000000E+00 0. -1.
<mgrwt>
<rscale>  0 0.79212731E+02</rscale>
<asrwt>0</asrwt>
<pdfrwt beam="1">  1        1 0.24376613E-02 0.79212731E+02</pdfrwt>
<pdfrwt beam="2">  1       -2 0.15231052E-01 0.79212731E+02</pdfrwt>
<totfact> 0.10911802E+05</totfact>
</mgrwt>
</event>
<event>
 8    1  0.1241100E-024  0.7957386E+02  0.7818608E-02  0.1330265E+00
         -2   -1    0    0    0  501 -0.00000000000E+00  0.00000000000E+00  0.54266803533E+03  0.54266803533E+03  0.25500000000E-02 0.  1.
          1   -1    0    0  501    0  0.00000000000E+00 -0.00000000000E+00 -0.29170661735E+01  0.29170705275E+01  0.50400000000E-02 0. -1.
        -24    2    1    2    0    0 -0.17763568394E-14  0.00000000000E+00  0.53975096915E+03  0.54558510586E+03  0.79573858990E+02 0.  0.
         66    2    3    3    0    0 -0.13830259270E+02  0.35614747461E+02  0.34556126864E+03  0.34767265739E+03  0.20000018813E+01 0.  0.
         13    1    3    3    0    0  0.13830259270E+02 -0.35614747461E+02  0.19418970051E+03  0.19791244847E+03  0.10566000000E+00 0. -1.
         13    1    4    4    0    0 -0.29816116764E+01  0.97686154508E+01  0.96244701853E+02  0.96785172701E+02  0.10566000000E+00 0. -1.
        -13    1    4    4    0    0 -0.91699560927E+01  0.22048273417E+02  0.21222626063E+03  0.21356547314E+03  0.10566000000E+00 0.  1.
         14    1    4    4    0    0 -0.16786915009E+01  0.37978585934E+01  0.37090306159E+02  0.37322011548E+02  0.00000000000E+00 0. -1.
<mgrwt>
<rscale>  0 0.79573859E+02</rscale>
<asrwt>0</asrwt>
<pdfrwt beam="1">  1        1 0.44877990E-03 0.79573859E+02</pdfrwt>
<pdfrwt beam="2">  1       -2 0.83487362E-01 0.79573859E+02</pdfrwt>
<totfact> 0.47900123E+04</totfact>
</mgrwt>
</event>
<event>
 8    1  0.1241100E-024  0.8044811E+02  0.7818608E-02  0.1327785E+00
         -2   -1    0    0    0  501 -0.00000000000E+00  0.00000000000E+00  0.14366251442E+03  0.14366251445E+03  0.25500000000E-02 0.  1.
          1   -1    0    0  501    0  0.00000000000E+00 -0.00000000000E+00 -0.11262328109E+02  0.11262329237E+02  0.50400000000E-02 0. -1.
        -24    2    1    2    0    0  0.00000000000E+00  0.00000000000E+00  0.13240018632E+03  0.15492484368E+03  0.80448106591E+02 0.  0.
         66    2    3    3    0    0 -0.12909512879E+02 -0.14929476350E+02  0.13368215591E+03  0.13514608242E+03  0.19999999683E+01 0.  0.
         13    1    3    3    0    0  0.12909512879E+02  0.14929476350E+02 -0.12819695924E+01  0.19778761259E+02  0.10566000000E+00 0. -1.
         13    1    4    4    0    0 -0.18303335303E+01 -0.14598529754E+01  0.14535991353E+02  0.14723705382E+02  0.10566000000E+00 0. -1.
        -13    1    4    4    0    0 -0.62584560458E+01 -0.74096396156E+01  0.70379175945E+02  0.71044426960E+02  0.10566000000E+00 0.  1.
        -14    1    4    4    0    0 -0.48207233031E+01 -0.60599837586E+01  0.48766988610E+02  0.49377950083E+02  0.00000000000E+00 0.  1.
<mgrwt>
<rscale>  0 0.80448107E+02</rscale>
<asrwt>0</asrwt>
<pdfrwt beam="1">  1        1 0.17326660E-02 0.80448107E+02</pdfrwt>
<pdfrwt beam="2">  1       -2 0.22101925E-01 0.80448107E+02</pdfrwt>
<totfact> 0.94472434E+04</totfact>
</mgrwt>
</event>
<event>
 8    1  0.1241100E-024  0.8044081E+02  0.7818608E-02  0.1327805E+00
         -2   -1    0    0    0  501 -0.00000000000E+00  0.00000000000E+00  0.13590986226E+02  0.13590986465E+02  0.25500000000E-02 0.  1.
          1   -1    0    0  501    0  0.00000000000E+00 -0.00000000000E+00 -0.11902601183E+03  0.11902601194E+03  0.50400000000E-02 0. -1.
        -24    2    1    2    0    0  0.35527136788E-14 -0.35527136788E-14 -0.10543502561E+03  0.13261699840E+03  0.80440808306E+02 0.  0.
         66    2    3    3    0    0 -0.21257807695E+02  0.22462351597E+02 -0.10420876779E+02  0.32696273483E+02  0.19999998895E+01 0.  0.
         13    1    3    3    0    0  0.21257807695E+02 -0.22462351597E+02 -0.95014148826E+02  0.99920724920E+02  0.10566000000E+00 0. -1.
         13    1    4    4    0    0 -0.70567150881E+01  0.80491635963E+01 -0.31431285657E+01  0.11156911923E+02  0.10566000000E+00 0. -1.
        -13    1    4    4    0    0 -0.11499608134E+02  0.12318248679E+02 -0.59376043964E+01  0.17867471779E+02  0.10566000000E+00 0.  1.
         14    1    4    4    0    0 -0.27014844725E+01  0.20949393221E+01 -0.13401438173E+01  0.36718897818E+01  0.00000000000E+00 0. -1.
<mgrwt>
<rscale>  0 0.80440808E+02</rscale>
<asrwt>0</asrwt>
<pdfrwt beam="1">  1        1 0.18311694E-01 0.80440808E+02</pdfrwt>
<pdfrwt beam="2">  1       -2 0.20909211E-02 0.80440808E+02</pdfrwt>
<totfact> 0.14922605E+05</totfact>
</mgrwt>
</event>
<event>
 8    1  0.1241100E-024  0.8307996E+02  0.7818608E-02  0.1320531E+00
         -2   -1    0    0    0  501 -0.00000000000E+00  0.00000000000E+00  0.29245589369E+03  0.29245589370E+03  0.25500000000E-02 0.  1.
          1   -1    0    0  501    0  0.00000000000E+00 -0.00000000000E+00 -0.59002723506E+01  0.59002745031E+01  0.50400000000E-02 0. -1.
        -24    2    1    2    0    0  0.00000000000E+00  0.00000000000E+00  0.28655562134E+03  0.29835616821E+03  0.83079955370E+02 0.  0.
         66    2    3    3    0    0  0.12380972239E+01  0.41305382488E+02  0.15767917607E+03  0.16301653315E+03  0.20000017788E+01 0.  0.
         13    1    3    3    0    0 -0.12380972239E+01 -0.41305382488E+02  0.12887644527E+03  0.13533963505E+03  0.10566000000E+00 0. -1.
         13    1    4    4    0    0  0.71959353747E+00  0.71948473992E+01  0.28971028658E+02  0.29859928157E+02  0.10566000000E+00 0. -1.
        -13    1    4    4    0    0  0.41521307913E+00  0.31729337064E+02  0.12067135322E+03  0.12477383494E+03  0.10566000000E+00 0.  1.
        -14    1    4    4    0    0  0.10329060726E+00  0.23811980241E+01  0.80367941901E+01  0.83827700573E+01  0.00000000000E+00 0.  1.
<mgrwt>
<rscale>  0 0.83079955E+02</rscale>
<asrwt>0</asrwt>
<pdfrwt beam="1">  1        1 0.90773465E-03 0.83079955E+02</pdfrwt>
<pdfrwt beam="2">  1       -2 0.44993201E-01 0.83079955E+02</pdfrwt>
<totfact> 0.64608277E+04</totfact>
</mgrwt>
</event>
<event>
 8    1  0.1241100E-024  0.7976869E+02  0.7818608E-02  0.1329709E+00
          1   -1    0    0  501    0  0.00000000000E+00  0.00000000000E+00  0.10642884852E+03  0.10642884864E+03  0.50400000000E-02 0. -1.
         -2   -1    0    0    0  501 -0.00000000000E+00 -0.00000000000E+00 -0.14946706560E+02  0.14946706777E+02  0.25500000000E-02 0.  1.
        -24    2    1    2    0    0  0.00000000000E+00  0.88817841970E-15  0.91482141964E+02  0.12137555542E+03  0.79768685305E+02 0.  0.
         66    2    3    3    0    0 -0.23311543590E+02 -0.61327901239E+01 -0.25325774657E+01  0.24319809517E+02  0.20000017696E+01 0.  0.
         13    1    3    3    0    0  0.23311543590E+02  0.61327901239E+01  0.94014719430E+02  0.97055745903E+02  0.10566000000E+00 0. -1.
         13    1    4    4    0    0 -0.40946976142E+01 -0.13453222590E+01 -0.69462166728E+00  0.43669330002E+01  0.10566000000E+00 0. -1.
        -13    1    4    4    0    0 -0.99615485533E+01 -0.21846975591E+01 -0.16866668598E+01  0.10337376947E+02  0.10566000000E+00 0.  1.
        -14    1    4    4    0    0 -0.92552974228E+01 -0.26027703059E+01 -0.15128893859E+00  0.96154995706E+01  0.00000000000E+00 0.  1.
<mgrwt>
<rscale>  0 0.79768685E+02</rscale>
<asrwt>0</asrwt>
<pdfrwt beam="1">  1        1 0.16373669E-01 0.79768685E+02</pdfrwt>
<pdfrwt beam="2">  1       -2 0.22994934E-02 0.79768685E+02</pdfrwt>
<totfact> 0.14971490E+05</totfact>
</mgrwt>
</event>
<event>
 8    1  0.1241100E-024  0.7953940E+02  0.7818608E-02  0.1330364E+00
          1   -1    0    0  501    0  0.00000000000E+00  0.00000000000E+00  0.18807227707E+02  0.18807228383E+02  0.50400000000E-02 0. -1.
         -2   -1    0    0    0  501 -0.00000000000E+00 -0.00000000000E+00 -0.84096867314E+02  0.84096867352E+02  0.25500000000E-02 0.  1.
        -24    2    1    2    0    0  0.00000000000E+00  0.22204460493E-15 -0.65289639606E+02  0.10290409573E+03  0.79539398282E+02 0.  0.
         66    2    3    3    0    0  0.17174542910E+02 -0.10493662839E+01 -0.79016294110E+02  0.80892773610E+02  0.19999984076E+01 0.  0.
         13    1    3    3    0    0 -0.17174542910E+02  0.10493662839E+01  0.13726654504E+02  0.22011322125E+02  0.10566000000E+00 0. -1.
         13    1    4    4    0    0  0.48085558428E+01 -0.21439390944E+00 -0.20617682664E+02  0.21172344615E+02  0.10566000000E+00 0. -1.
        -13    1    4    4    0    0  0.62829654351E+01  0.34205622764E+00 -0.30372079854E+02  0.31017205803E+02  0.10566000000E+00 0.  1.
         14    1    4    4    0    0  0.60830216325E+01 -0.11770286021E+01 -0.28026531592E+02  0.28703223192E+02  0.00000000000E+00 0. -1.
<mgrwt>
<rscale>  0 0.79539398E+02</rscale>
<asrwt>0</asrwt>
<pdfrwt beam="1">  1        1 0.28934197E-02 0.79539398E+02</pdfrwt>
<pdfrwt beam="2">  1       -2 0.12937979E-01 0.79539398E+02</pdfrwt>
<totfact> 0.11218348E+05</totfact>
</mgrwt>
</event>
<event>
 8    1  0.1241100E-024  0.7995743E+02  0.7818608E-02  0.1329172E+00
          1   -1    0    0  501    0  0.00000000000E+00  0.00000000000E+00  0.32987038487E+02  0.32987038872E+02  0.50400000000E-02 0. -1.
         -2   -1    0    0    0  501 -0.00000000000E+00 -0.00000000000E+00 -0.48452293720E+02  0.48452293787E+02  0.25500000000E-02 0.  1.
        -24    2    1    2    0    0  0.00000000000E+00 -0.71054273576E-14 -0.15465255233E+02  0.81439332659E+02  0.79957431077E+02 0.  0.
         66    2    3    3    0    0  0.21787640808E+02 -0.33080370579E+02 -0.24175729064E+01  0.39734831849E+02  0.19999984184E+01 0.  0.
         13    1    3    3    0    0 -0.21787640808E+02  0.33080370579E+02 -0.13047682327E+02  0.41704500810E+02  0.10566000000E+00 0. -1.
         13    1    4    4    0    0  0.18382674029E+02 -0.28825798607E+02 -0.18717132742E+01  0.34239799129E+02  0.10566000000E+00 0.  1.
        -13    1    4    4    0    0  0.22369336957E+01 -0.24610882125E+01 -0.31654502503E+00  0.33424829599E+01  0.10566000000E+00 0. -1.
        -14    1    4    4    0    0  0.11680330835E+01 -0.17934837591E+01 -0.22931460719E+00  0.21525497596E+01  0.00000000000E+00 0.  1.
<mgrwt>
<rscale>  0 0.79957431E+02</rscale>
<asrwt>0</asrwt>
<pdfrwt beam="1">  1        1 0.50749290E-02 0.79957431E+02</pdfrwt>
<pdfrwt beam="2">  1       -2 0.74541991E-02 0.79957431E+02</pdfrwt>
<totfact> 0.12315000E+05</totfact>
</mgrwt>
</event>
<event>
 8    1  0.1241100E-024  0.7915614E+02  0.7818608E-02  0.1331463E+00
         -2   -1    0    0    0  501 -0.00000000000E+00  0.00000000000E+00  0.27206819201E+03  0.27206819203E+03  0.25500000000E-02 0.  1.
          1   -1    0    0  501    0  0.00000000000E+00 -0.00000000000E+00 -0.57574661381E+01  0.57574683440E+01  0.50400000000E-02 0. -1.
        -24    2    1    2    0    0  0.35527136788E-14  0.00000000000E+00  0.26631072588E+03  0.27782566037E+03  0.79156142171E+02 0.  0.
         66    2    3    3    0    0 -0.17781012046E+02  0.29216976620E+02  0.20296356117E+03  0.20583489323E+03  0.19999996804E+01 0.  0.
         13    1    3    3    0    0  0.17781012046E+02 -0.29216976620E+02  0.63347164710E+02  0.71990767137E+02  0.10566000000E+00 0. -1.
         13    1    4    4    0    0 -0.15216940883E+01  0.18733618909E+01  0.12873675616E+02  0.13098386373E+02  0.10566000000E+00 0. -1.
        -13    1    4    4    0    0 -0.70121607829E+01  0.11406368300E+02  0.82961749954E+02  0.84035342304E+02  0.10566000000E+00 0.  1.
         14    1    4    4    0    0 -0.92471571743E+01  0.15937246429E+02  0.10712813560E+03  0.10870116456E+03  0.00000000000E+00 0. -1.
<mgrwt>
<rscale>  0 0.79156142E+02</rscale>
<asrwt>0</asrwt>
<pdfrwt beam="1">  1        1 0.88576419E-03 0.79156142E+02</pdfrwt>
<pdfrwt beam="2">  1       -2 0.41856645E-01 0.79156142E+02</pdfrwt>
<totfact> 0.76025258E+04</totfact>
</mgrwt>
</event>
<event>
 8    1  0.1241100E-024  0.7873768E+02  0.7818608E-02  0.1332672E+00
          1   -1    0    0  501    0  0.00000000000E+00  0.00000000000E+00  0.38383967188E+02  0.38383967519E+02  0.50400000000E-02 0. -1.
         -2   -1    0    0    0  501 -0.00000000000E+00 -0.00000000000E+00 -0.40378978949E+02  0.40378979030E+02  0.25500000000E-02 0.  1.
        -24    2    1    2    0    0  0.00000000000E+00 -0.35527136788E-14 -0.19950117617E+01  0.78762946548E+02  0.78737676350E+02 0.  0.
         66    2    3    3    0    0  0.76379314411E+01  0.17169449623E+02 -0.35574722267E+02  0.40282612367E+02  0.19999994160E+01 0.  0.
         13    1    3    3    0    0 -0.76379314411E+01 -0.17169449623E+02  0.33579710505E+02  0.38480334182E+02  0.10566000000E+00 0. -1.
         13    1    4    4    0    0  0.10234167348E+01  0.37579223790E+01 -0.64663486939E+01  0.75494497738E+01  0.10566000000E+00 0. -1.
        -13    1    4    4    0    0  0.29217448186E+01  0.60901360334E+01 -0.12386018105E+02  0.14108542030E+02  0.10566000000E+00 0.  1.
        -14    1    4    4    0    0  0.36927698877E+01  0.73213912110E+01 -0.16722355468E+02  0.18624620563E+02  0.00000000000E+00 0.  1.
<mgrwt>
<rscale>  0 0.78737676E+02</rscale>
<asrwt>0</asrwt>
<pdfrwt beam="1">  1        1 0.59052258E-02 0.78737676E+02</pdfrwt>
<pdfrwt beam="2">  1       -2 0.62121506E-02 0.78737676E+02</pdfrwt>
<totfact> 0.13191052E+05</totfact>
</mgrwt>
</event>
<event>
 8    1  0.1241100E-024  0.7683163E+02  0.7818608E-02  0.1338291E+00
          1   -1    0    0  501    0  0.00000000000E+00  0.00000000000E+00  0.44129679923E+02  0.44129680211E+02  0.50400000000E-02 0. -1.
         -2   -1    0    0    0  501 -0.00000000000E+00 -0.00000000000E+00 -0.33441772238E+02  0.33441772336E+02  0.25500000000E-02 0.  1.
        -24    2    1    2    0    0  0.00000000000E+00  0.00000000000E+00  0.10687907685E+02  0.77571452547E+02  0.76831626818E+02 0.  0.
         66    2    3    3    0    0  0.20675197347E+02 -0.20446503277E+02 -0.19958635611E+02  0.35325209381E+02  0.20000001945E+01 0.  0.
         13    1    3    3    0    0 -0.20675197347E+02  0.20446503277E+02  0.30646543296E+02  0.42246243166E+02  0.10566000000E+00 0. -1.
         13    1    4    4    0    0  0.12125900136E+02 -0.12611978325E+02 -0.12237064720E+02  0.21350793156E+02  0.10566000000E+00 0. -1.
        -13    1    4    4    0    0  0.53116062153E+01 -0.55350803315E+01 -0.49111293901E+01  0.91093704933E+01  0.10566000000E+00 0.  1.
        -14    1    4    4    0    0  0.32376909956E+01 -0.22994446203E+01 -0.28104415009E+01  0.48650457320E+01  0.00000000000E+00 0.  1.
<mgrwt>
<rscale>  0 0.76831627E+02</rscale>
<asrwt>0</asrwt>
<pdfrwt beam="1">  1        1 0.67891816E-02 0.76831627E+02</pdfrwt>
<pdfrwt beam="2">  1       -2 0.51448881E-02 0.76831627E+02</pdfrwt>
<totfact> 0.14439574E+05</totfact>
</mgrwt>
</event>
<event>
 8    1  0.1241100E-024  0.7898862E+02  0.7818608E-02  0.1331946E+00
         -2   -1    0    0    0  501 -0.00000000000E+00  0.00000000000E+00  0.87504349798E+02  0.87504349836E+02  0.25500000000E-02 0.  1.
          1   -1    0    0  501    0  0.00000000000E+00 -0.00000000000E+00 -0.17825407340E+02  0.17825408052E+02  0.50400000000E-02 0. -1.
        -24    2    1    2    0    0  0.35527136788E-14 -0.71054273576E-14  0.69678942459E+02  0.10532975789E+03  0.78988624969E+02 0.  0.
         66    2    3    3    0    0  0.24495952304E+02 -0.30946134460E+02  0.35240916604E+02  0.52949382688E+02  0.20000016550E+01 0.  0.
         13    1    3    3    0    0 -0.24495952304E+02  0.30946134460E+02  0.34438025855E+02  0.52380375200E+02  0.10566000000E+00 0. -1.
         13    1    4    4    0    0  0.95685535051E+01 -0.12744057901E+02  0.13301633021E+02  0.20758440043E+02  0.10566000000E+00 0. -1.
        -13    1    4    4    0    0  0.72856055358E+01 -0.87299513718E+01  0.11177359506E+02  0.15944799420E+02  0.10566000000E+00 0.  1.
        -14    1    4    4    0    0  0.76417932632E+01 -0.94721251873E+01  0.10761924076E+02  0.16246143224E+02  0.00000000000E+00 0.  1.
<mgrwt>
<rscale>  0 0.78988625E+02</rscale>
<asrwt>0</asrwt>
<pdfrwt beam="1">  1        1 0.27423704E-02 0.78988625E+02</pdfrwt>
<pdfrwt beam="2">  1       -2 0.13462208E-01 0.78988625E+02</pdfrwt>
<totfact> 0.11317242E+05</totfact>
</mgrwt>
</event>
<event>
 8    1  0.1241100E-024  0.7943862E+02  0.7818608E-02  0.1330652E+00
         -2   -1    0    0    0  501 -0.00000000000E+00  0.00000000000E+00  0.87645402313E+02  0.87645402350E+02  0.25500000000E-02 0.  1.
          1   -1    0    0  501    0  0.00000000000E+00 -0.00000000000E+00 -0.18000071252E+02  0.18000071958E+02  0.50400000000E-02 0. -1.
        -24    2    1    2    0    0  0.35527136788E-14  0.00000000000E+00  0.69645331061E+02  0.10564547431E+03  0.79438618462E+02 0.  0.
         66    2    3    3    0    0  0.25305487581E+02 -0.30341328182E+02  0.29753626890E+02  0.49499921293E+02  0.19999993309E+01 0.  0.
         13    1    3    3    0    0 -0.25305487581E+02  0.30341328182E+02  0.39891704171E+02  0.56145553014E+02  0.10566000000E+00 0. -1.
         13    1    4    4    0    0  0.71686913184E+01 -0.80839898900E+01  0.74154796292E+01  0.13105019265E+02  0.10566000000E+00 0. -1.
        -13    1    4    4    0    0  0.11223607625E+02 -0.14408354871E+02  0.13749309867E+02  0.22860987382E+02  0.10566000000E+00 0.  1.
        -14    1    4    4    0    0  0.69131886378E+01 -0.78489834212E+01  0.85888373939E+01  0.13533914647E+02  0.00000000000E+00 0.  1.
<mgrwt>
<rscale>  0 0.79438618E+02</rscale>
<asrwt>0</asrwt>
<pdfrwt beam="1">  1        1 0.27692419E-02 0.79438618E+02</pdfrwt>
<pdfrwt beam="2">  1       -2 0.13483907E-01 0.79438618E+02</pdfrwt>
<totfact> 0.11150247E+05</totfact>
</mgrwt>
</event>
<event>
 8    1  0.1241100E-024  0.8021767E+02  0.7818608E-02  0.1328435E+00
          1   -1    0    0  501    0  0.00000000000E+00  0.00000000000E+00  0.47760025210E+02  0.47760025476E+02  0.50400000000E-02 0. -1.
         -2   -1    0    0    0  501 -0.00000000000E+00 -0.00000000000E+00 -0.33683373391E+02  0.33683373488E+02  0.25500000000E-02 0.  1.
        -24    2    1    2    0    0  0.00000000000E+00  0.00000000000E+00  0.14076651819E+02  0.81443398964E+02  0.80217673292E+02 0.  0.
         66    2    3    3    0    0 -0.18608476902E+02 -0.17237516976E+02 -0.24468736980E+02  0.35300516894E+02  0.19999998688E+01 0.  0.
         13    1    3    3    0    0  0.18608476902E+02  0.17237516976E+02  0.38545388799E+02  0.46142882071E+02  0.10566000000E+00 0. -1.
         13    1    4    4    0    0 -0.81863050030E+01 -0.76575756368E+01 -0.11047314527E+02  0.15738753970E+02  0.10566000000E+00 0.  1.
        -13    1    4    4    0    0 -0.76451567872E+01 -0.78116702173E+01 -0.10591680258E+02  0.15220560719E+02  0.10566000000E+00 0. -1.
         14    1    4    4    0    0 -0.27770151118E+01 -0.17682711215E+01 -0.28297421952E+01  0.43412022046E+01  0.00000000000E+00 0. -1.
<mgrwt>
<rscale>  0 0.80217673E+02</rscale>
<asrwt>0</asrwt>
<pdfrwt beam="1">  1        1 0.73476963E-02 0.80217673E+02</pdfrwt>
<pdfrwt beam="2">  1       -2 0.51820574E-02 0.80217673E+02</pdfrwt>
<totfact> 0.12963829E+05</totfact>
</mgrwt>
</event>
<event>
 8    1  0.1241100E-024  0.8009742E+02  0.7818608E-02  0.1328775E+00
          1   -1    0    0  501    0  0.00000000000E+00  0.00000000000E+00  0.71227250307E+01  0.71227268138E+01  0.50400000000E-02 0. -1.
         -2   -1    0    0    0  501 -0.00000000000E+00 -0.00000000000E+00 -0.22518051522E+03  0.22518051523E+03  0.25500000000E-02 0.  1.
        -24    2    1    2    0    0  0.35527136788E-14  0.00000000000E+00 -0.21805779019E+03  0.23230324205E+03  0.80097418210E+02 0.  0.
         66    2    3    3    0    0 -0.27394007055E+02 -0.23347069451E+02 -0.15986172324E+03  0.16387583053E+03  0.20000001492E+01 0.  0.
         13    1    3    3    0    0  0.27394007055E+02  0.23347069451E+02 -0.58196066948E+02  0.68427411515E+02  0.10566000000E+00 0. -1.
         13    1    4    4    0    0 -0.42384811557E+01 -0.31329523723E+01 -0.22061181763E+02  0.22682306273E+02  0.10566000000E+00 0. -1.
        -13    1    4    4    0    0 -0.15021547007E+02 -0.12904869392E+02 -0.91613697582E+02  0.93729735288E+02  0.10566000000E+00 0.  1.
        -14    1    4    4    0    0 -0.81339788924E+01 -0.73092476871E+01 -0.46186843897E+02  0.47463788972E+02  0.00000000000E+00 0.  1.
<mgrwt>
<rscale>  0 0.80097418E+02</rscale>
<asrwt>0</asrwt>
<pdfrwt beam="1">  1        1 0.10958042E-02 0.80097418E+02</pdfrwt>
<pdfrwt beam="2">  1       -2 0.34643151E-01 0.80097418E+02</pdfrwt>
<totfact> 0.80654275E+04</totfact>
</mgrwt>
</event>
<event>
 8    1  0.1241100E-024  0.8734026E+02  0.7818608E-02  0.1309424E+00
         -2   -1    0    0    0  501 -0.00000000000E+00  0.00000000000E+00  0.36270038230E+03  0.36270038231E+03  0.25500000000E-02 0.  1.
          1   -1    0    0  501    0  0.00000000000E+00 -0.00000000000E+00 -0.52580029768E+01  0.52580053923E+01  0.50400000000E-02 0. -1.
        -24    2    1    2    0    0  0.00000000000E+00  0.00000000000E+00  0.35744237932E+03  0.36795838770E+03  0.87340257290E+02 0.  0.
         66    2    3    3    0    0  0.33352481595E+02  0.25822398391E+02  0.22608416483E+03  0.22999398662E+03  0.20000016371E+01 0.  0.
         13    1    3    3    0    0 -0.33352481595E+02 -0.25822398391E+02  0.13135821449E+03  0.13796440108E+03  0.10566000000E+00 0. -1.
         13    1    4    4    0    0  0.13773073392E+02  0.10999064189E+02  0.90309468810E+02  0.92013522291E+02  0.10566000000E+00 0. -1.
        -13    1    4    4    0    0  0.14135306171E+02  0.10445675761E+02  0.95278244969E+02  0.96885882104E+02  0.10566000000E+00 0.  1.
         14    1    4    4    0    0  0.54441020316E+01  0.43776584419E+01  0.40496451051E+02  0.41094582223E+02  0.00000000000E+00 0. -1.
<mgrwt>
<rscale>  0 0.87340257E+02</rscale>
<asrwt>0</asrwt>
<pdfrwt beam="1">  1        1 0.80892385E-03 0.87340257E+02</pdfrwt>
<pdfrwt beam="2">  1       -2 0.55800050E-01 0.87340257E+02</pdfrwt>
<totfact> 0.50115419E+04</totfact>
</mgrwt>
</event>
<event>
 8    1  0.1241100E-024  0.8296240E+02  0.7818608E-02  0.1320849E+00
         -2   -1    0    0    0  501 -0.00000000000E+00  0.00000000000E+00  0.27695819129E+02  0.27695819246E+02  0.25500000000E-02 0.  1.
          1   -1    0    0  501    0  0.00000000000E+00 -0.00000000000E+00 -0.62128142105E+02  0.62128142310E+02  0.50400000000E-02 0. -1.
        -24    2    1    2    0    0  0.17763568394E-14  0.00000000000E+00 -0.34432322977E+02  0.89823961556E+02  0.82962396325E+02 0.  0.
         66    2    3    3    0    0  0.14060614491E+02  0.18721676439E+02  0.19815775622E+02  0.30738689159E+02  0.19999997919E+01 0.  0.
         13    1    3    3    0    0 -0.14060614491E+02 -0.18721676439E+02 -0.54248098599E+02  0.59085272396E+02  0.10566000000E+00 0. -1.
         13    1    4    4    0    0  0.95971180991E+00  0.99709473555E+00  0.15750543010E+01  0.20993343603E+01  0.10566000000E+00 0. -1.
        -13    1    4    4    0    0  0.59366781803E+01  0.85803663927E+01  0.93551511390E+01  0.14014166123E+02  0.10566000000E+00 0.  1.
        -14    1    4    4    0    0  0.71642245013E+01  0.91442153112E+01  0.88855701819E+01  0.14625188676E+02  0.00000000000E+00 0.  1.
<mgrwt>
<rscale>  0 0.82962396E+02</rscale>
<asrwt>0</asrwt>
<pdfrwt beam="1">  1        1 0.95581757E-02 0.82962396E+02</pdfrwt>
<pdfrwt beam="2">  1       -2 0.42608953E-02 0.82962396E+02</pdfrwt>
<totfact> 0.12312783E+05</totfact>
</mgrwt>
</event>
<event>
 8    1  0.1241100E-024  0.7821899E+02  0.7818608E-02  0.1334183E+00
          1   -1    0    0  501    0  0.00000000000E+00  0.00000000000E+00  0.23278648416E+03  0.23278648422E+03  0.50400000000E-02 0. -1.
         -2   -1    0    0    0  501 -0.00000000000E+00 -0.00000000000E+00 -0.65706250377E+01  0.65706255326E+01  0.25500000000E-02 0.  1.
        -24    2    1    2    0    0  0.00000000000E+00  0.22204460493E-15  0.22621585913E+03  0.23935710975E+03  0.78218994293E+02 0.  0.
         66    2    3    3    0    0  0.32159371292E+02  0.18091014411E+01  0.45440263185E+02  0.55734329950E+02  0.20000016761E+01 0.  0.
         13    1    3    3    0    0 -0.32159371292E+02 -0.18091014411E+01  0.18077559594E+03  0.18362277980E+03  0.10566000000E+00 0. -1.
         13    1    4    4    0    0  0.13105421950E+02  0.13281485112E+01  0.18135781291E+02  0.22415034911E+02  0.10566000000E+00 0. -1.
        -13    1    4    4    0    0  0.40661194775E+01  0.15367419531E+00  0.50457476981E+01  0.64828756915E+01  0.10566000000E+00 0.  1.
         14    1    4    4    0    0  0.14987829864E+02  0.32727873462E+00  0.22258734196E+02  0.26836419348E+02  0.00000000000E+00 0. -1.
<mgrwt>
<rscale>  0 0.78218994E+02</rscale>
<asrwt>0</asrwt>
<pdfrwt beam="1">  1        1 0.35813310E-01 0.78218994E+02</pdfrwt>
<pdfrwt beam="2">  1       -2 0.10108653E-02 0.78218994E+02</pdfrwt>
<totfact> 0.18228141E+05</totfact>
</mgrwt>
</event>
<event>
 8    1  0.1241100E-024  0.8056779E+02  0.7818608E-02  0.1327448E+00
         -2   -1    0    0    0  501 -0.00000000000E+00  0.00000000000E+00  0.36531116274E+02  0.36531116363E+02  0.25500000000E-02 0.  1.
          1   -1    0    0  501    0  0.00000000000E+00 -0.00000000000E+00 -0.44422192961E+02  0.44422193246E+02  0.50400000000E-02 0. -1.
        -24    2    1    2    0    0  0.00000000000E+00  0.44408920985E-15 -0.78910766863E+01  0.80953309610E+02  0.80567792855E+02 0.  0.
         66    2    3    3    0    0  0.39198434370E+02  0.29743724806E+01  0.47782456744E+01  0.39650924185E+02  0.20000020659E+01 0.  0.
         13    1    3    3    0    0 -0.39198434370E+02 -0.29743724806E+01 -0.12669322361E+02  0.41302385425E+02  0.10566000000E+00 0. -1.
         13    1    4    4    0    0  0.63551415460E+01  0.12218788082E+00  0.85564471681E+00  0.64145183658E+01  0.10566000000E+00 0. -1.
        -13    1    4    4    0    0  0.34764026121E+01  0.52870748196E+00  0.84030600699E+00  0.36169303205E+01  0.10566000000E+00 0.  1.
        -14    1    4    4    0    0  0.29366890212E+02  0.23234771179E+01  0.30822949506E+01  0.29619475498E+02  0.00000000000E+00 0.  1.
<mgrwt>
<rscale>  0 0.80567793E+02</rscale>
<asrwt>0</asrwt>
<pdfrwt beam="1">  1        1 0.68341836E-02 0.80567793E+02</pdfrwt>
<pdfrwt beam="2">  1       -2 0.56201717E-02 0.80567793E+02</pdfrwt>
<totfact> 0.12659963E+05</totfact>
</mgrwt>
</event>
<event>
 8    1  0.1241100E-024  0.7344299E+02  0.7818608E-02  0.1348761E+00
          1   -1    0    0  501    0  0.00000000000E+00  0.00000000000E+00  0.12494241385E+03  0.12494241395E+03  0.50400000000E-02 0. -1.
         -2   -1    0    0    0  501 -0.00000000000E+00 -0.00000000000E+00 -0.10792718817E+02  0.10792719118E+02  0.25500000000E-02 0.  1.
        -24    2    1    2    0    0  0.00000000000E+00  0.35527136788E-14  0.11414969503E+03  0.13573513307E+03  0.73442994718E+02 0.  0.
         66    2    3    3    0    0 -0.66102989403E+01  0.22952164712E+02  0.56341396675E+01  0.24621970765E+02  0.19999993789E+01 0.  0.
         13    1    3    3    0    0  0.66102989403E+01 -0.22952164712E+02  0.10851555536E+03  0.11111316230E+03  0.10566000000E+00 0. -1.
         13    1    4    4    0    0 -0.23577703027E+01  0.10676840570E+02  0.32171053165E+01  0.11398023338E+02  0.10566000000E+00 0. -1.
        -13    1    4    4    0    0 -0.16857815436E+01  0.56080102098E+01  0.10948790976E+01  0.59583187393E+01  0.10566000000E+00 0.  1.
         14    1    4    4    0    0 -0.25667470940E+01  0.66673139317E+01  0.13221552534E+01  0.72656286873E+01  0.00000000000E+00 0. -1.
<mgrwt>
<rscale>  0 0.73442995E+02</rscale>
<asrwt>0</asrwt>
<pdfrwt beam="1">  1        1 0.19221911E-01 0.73442995E+02</pdfrwt>
<pdfrwt beam="2">  1       -2 0.16604182E-02 0.73442995E+02</pdfrwt>
<totfact> 0.19190966E+05</totfact>
</mgrwt>
</event>
<event>
 8    1  0.1241100E-024  0.7795870E+02  0.7818608E-02  0.1334946E+00
          1   -1    0    0  501    0  0.00000000000E+00  0.00000000000E+00  0.66412744369E+01  0.66412763493E+01  0.50400000000E-02 0. -1.
         -2   -1    0    0    0  501 -0.00000000000E+00 -0.00000000000E+00 -0.22877980468E+03  0.22877980470E+03  0.25500000000E-02 0.  1.
        -24    2    1    2    0    0  0.88817841970E-15 -0.35527136788E-14 -0.22213853024E+03  0.23542108104E+03  0.77958699201E+02 0.  0.
         66    2    3    3    0    0  0.57343442627E+01 -0.24904973894E+02 -0.19991887049E+03  0.20155568761E+03  0.20000005035E+01 0.  0.
         13    1    3    3    0    0 -0.57343442627E+01  0.24904973894E+02 -0.22219659757E+02  0.33865393435E+02  0.10566000000E+00 0. -1.
         13    1    4    4    0    0  0.25286488452E+00 -0.40911048770E+01 -0.31040500480E+02  0.31310140751E+02  0.10566000000E+00 0. -1.
        -13    1    4    4    0    0  0.14599952788E+01 -0.46184000246E+01 -0.38335228848E+02  0.38640162265E+02  0.10566000000E+00 0.  1.
         14    1    4    4    0    0  0.40214840994E+01 -0.16195468992E+02 -0.13054314116E+03  0.13160538459E+03  0.00000000000E+00 0. -1.
<mgrwt>
<rscale>  0 0.77958699E+02</rscale>
<asrwt>0</asrwt>
<pdfrwt beam="1">  1        1 0.10217349E-02 0.77958699E+02</pdfrwt>
<pdfrwt beam="2">  1       -2 0.35196887E-01 0.77958699E+02</pdfrwt>
<totfact> 0.85878306E+04</totfact>
</mgrwt>
</event>
<event>
 8    1  0.1241100E-024  0.8041811E+02  0.7818608E-02  0.1327869E+00
         -2   -1    0    0    0  501 -0.00000000000E+00  0.00000000000E+00  0.30034668130E+03  0.30034668131E+03  0.25500000000E-02 0.  1.
          1   -1    0    0  501    0  0.00000000000E+00 -0.00000000000E+00 -0.53830057778E+01  0.53830081372E+01  0.50400000000E-02 0. -1.
        -24    2    1    2    0    0  0.00000000000E+00  0.00000000000E+00  0.29496367552E+03  0.30572968945E+03  0.80418114454E+02 0.  0.
         66    2    3    3    0    0  0.17971847896E+02  0.13571949582E+02  0.27409622412E+03  0.27502713541E+03  0.20000010611E+01 0.  0.
         13    1    3    3    0    0 -0.17971847896E+02 -0.13571949582E+02  0.20867451404E+02  0.30702554037E+02  0.10566000000E+00 0. -1.
         13    1    4    4    0    0  0.13518437903E+01  0.10496633092E+01  0.24816144567E+02  0.24875318488E+02  0.10566000000E+00 0. -1.
        -13    1    4    4    0    0  0.57753834744E+01  0.34675098832E+01  0.81384192143E+02  0.81662577561E+02  0.10566000000E+00 0.  1.
        -14    1    4    4    0    0  0.10844620631E+02  0.90547763896E+01  0.16789588741E+03  0.16848923936E+03  0.00000000000E+00 0.  1.
<mgrwt>
<rscale>  0 0.80418114E+02</rscale>
<asrwt>0</asrwt>
<pdfrwt beam="1">  1        1 0.82815474E-03 0.80418114E+02</pdfrwt>
<pdfrwt beam="2">  1       -2 0.46207192E-01 0.80418114E+02</pdfrwt>
<totfact> 0.69285934E+04</totfact>
</mgrwt>
</event>
<event>
 8    1  0.1241100E-024  0.7770301E+02  0.7818608E-02  0.1335699E+00
          1   -1    0    0  501    0  0.00000000000E+00  0.00000000000E+00  0.45887193288E+02  0.45887193565E+02  0.50400000000E-02 0. -1.
         -2   -1    0    0    0  501 -0.00000000000E+00 -0.00000000000E+00 -0.32894570477E+02  0.32894570576E+02  0.25500000000E-02 0.  1.
        -24    2    1    2    0    0  0.35527136788E-14  0.71054273576E-14  0.12992622811E+02  0.78781764140E+02  0.77703012255E+02 0.  0.
         66    2    3    3    0    0 -0.22422354616E+02 -0.30330189867E+02 -0.28333009388E+01  0.37877565939E+02  0.20000008493E+01 0.  0.
         13    1    3    3    0    0  0.22422354616E+02  0.30330189867E+02  0.15825923750E+02  0.40904198201E+02  0.10566000000E+00 0. -1.
         13    1    4    4    0    0 -0.29161236853E+01 -0.45748851035E+01 -0.92924347502E+00  0.55052709769E+01  0.10566000000E+00 0. -1.
        -13    1    4    4    0    0 -0.10618836586E+02 -0.14549423158E+02 -0.92216392987E+00  0.18036267769E+02  0.10566000000E+00 0.  1.
         14    1    4    4    0    0 -0.88873943443E+01 -0.11205881606E+02 -0.98189353387E+00  0.14336027194E+02  0.00000000000E+00 0. -1.
<mgrwt>
<rscale>  0 0.77703012E+02</rscale>
<asrwt>0</asrwt>
<pdfrwt beam="1">  1        1 0.70595683E-02 0.77703012E+02</pdfrwt>
<pdfrwt beam="2">  1       -2 0.50607031E-02 0.77703012E+02</pdfrwt>
<totfact> 0.14078035E+05</totfact>
</mgrwt>
</event>
<event>
 8    1  0.1241100E-024  0.8451563E+02  0.7818608E-02  0.1316704E+00
         -2   -1    0    0    0  501 -0.00000000000E+00  0.00000000000E+00  0.94266773069E+02  0.94266773103E+02  0.25500000000E-02 0.  1.
          1   -1    0    0  501    0  0.00000000000E+00 -0.00000000000E+00 -0.18943288643E+02  0.18943289313E+02  0.50400000000E-02 0. -1.
        -24    2    1    2    0    0  0.17763568394E-14  0.00000000000E+00  0.75323484426E+02  0.11321006242E+03  0.84515625338E+02 0.  0.
         66    2    3    3    0    0 -0.12498447167E+02  0.34062844918E+02  0.66637067351E+02  0.75901168154E+02  0.19999990992E+01 0.  0.
         13    1    3    3    0    0  0.12498447167E+02 -0.34062844918E+02  0.86864170749E+01  0.37308894263E+02  0.10566000000E+00 0. -1.
         13    1    4    4    0    0 -0.70108210373E+00  0.17366163803E+01  0.27209252069E+01  0.33048374522E+01  0.10566000000E+00 0.  1.
        -13    1    4    4    0    0 -0.58507137180E+01  0.16676621628E+02  0.33621623419E+02  0.37983750280E+02  0.10566000000E+00 0.  1.
         14    1    4    4    0    0 -0.59466513450E+01  0.15649606910E+02  0.30294518725E+02  0.34612580422E+02  0.00000000000E+00 0. -1.
<mgrwt>
<rscale>  0 0.84515625E+02</rscale>
<asrwt>0</asrwt>
<pdfrwt beam="1">  1        1 0.29143522E-02 0.84515625E+02</pdfrwt>
<pdfrwt beam="2">  1       -2 0.14502581E-01 0.84515625E+02</pdfrwt>
<totfact> 0.93551472E+04</totfact>
</mgrwt>
</event>
<event>
 8    1  0.1241100E-024  0.7913977E+02  0.7818608E-02  0.1331511E+00
          1   -1    0    0  501    0  0.00000000000E+00  0.00000000000E+00  0.12244972221E+03  0.12244972231E+03  0.50400000000E-02 0. -1.
         -2   -1    0    0    0  501 -0.00000000000E+00 -0.00000000000E+00 -0.12787090437E+02  0.12787090691E+02  0.25500000000E-02 0.  1.
        -24    2    1    2    0    0  0.00000000000E+00  0.35527136788E-14  0.10966263177E+03  0.13523681300E+03  0.79139767401E+02 0.  0.
         66    2    3    3    0    0  0.26015532791E+02  0.27398601739E+02  0.34917504615E+02  0.51485177071E+02  0.20000014771E+01 0.  0.
         13    1    3    3    0    0 -0.26015532791E+02 -0.27398601739E+02  0.74745127157E+02  0.83751635933E+02  0.10566000000E+00 0. -1.
         13    1    4    4    0    0  0.12909747693E+02  0.12340341299E+02  0.17021968106E+02  0.24671930834E+02  0.10566000000E+00 0. -1.
        -13    1    4    4    0    0  0.55495053567E+01  0.63158320129E+01  0.77980637770E+01  0.11467680952E+02  0.10566000000E+00 0.  1.
         14    1    4    4    0    0  0.75562797414E+01  0.87424284271E+01  0.10097472732E+02  0.15345565285E+02  0.00000000000E+00 0. -1.
<mgrwt>
<rscale>  0 0.79139767E+02</rscale>
<asrwt>0</asrwt>
<pdfrwt beam="1">  1        1 0.18838419E-01 0.79139767E+02</pdfrwt>
<pdfrwt beam="2">  1       -2 0.19672447E-02 0.79139767E+02</pdfrwt>
<totfact> 0.15668550E+05</totfact>
</mgrwt>
</event>
<event>
 8    1  0.1241100E-024  0.8131542E+02  0.7818608E-02  0.1325359E+00
         -2   -1    0    0    0  501 -0.00000000000E+00  0.00000000000E+00  0.29106880881E+03  0.29106880882E+03  0.25500000000E-02 0.  1.
          1   -1    0    0  501    0  0.00000000000E+00 -0.00000000000E+00 -0.56792379411E+01  0.56792401774E+01  0.50400000000E-02 0. -1.
        -24    2    1    2    0    0  0.00000000000E+00  0.00000000000E+00  0.28538957087E+03  0.29674804900E+03  0.81315419348E+02 0.  0.
         66    2    3    3    0    0  0.72425684392E+01  0.27981683669E+02  0.24700242362E+03  0.24869585179E+03  0.20000013549E+01 0.  0.
         13    1    3    3    0    0 -0.72425684392E+01 -0.27981683669E+02  0.38387147252E+02  0.48052197210E+02  0.10566000000E+00 0. -1.
         13    1    4    4    0    0  0.30328815170E+01  0.96639045025E+01  0.86134441134E+02  0.86727980110E+02  0.10566000000E+00 0.  1.
        -13    1    4    4    0    0  0.30423138673E+01  0.11023005547E+02  0.94010354224E+02  0.94703327240E+02  0.10566000000E+00 0. -1.
        -14    1    4    4    0    0  0.11673730548E+01  0.72947736200E+01  0.66857628258E+02  0.67264544437E+02  0.00000000000E+00 0.  1.
<mgrwt>
<rscale>  0 0.81315419E+02</rscale>
<asrwt>0</asrwt>
<pdfrwt beam="1">  1        1 0.87372900E-03 0.81315419E+02</pdfrwt>
<pdfrwt beam="2">  1       -2 0.44779822E-01 0.81315419E+02</pdfrwt>
<totfact> 0.68473352E+04</totfact>
</mgrwt>
</event>
<event>
 8    1  0.1241100E-024  0.7747607E+02  0.7818608E-02  0.1336370E+00
          1   -1    0    0  501    0  0.00000000000E+00  0.00000000000E+00  0.15227104290E+02  0.15227105124E+02  0.50400000000E-02 0. -1.
         -2   -1    0    0    0  501 -0.00000000000E+00 -0.00000000000E+00 -0.98550273243E+02  0.98550273276E+02  0.25500000000E-02 0.  1.
        -24    2    1    2    0    0  0.00000000000E+00  0.00000000000E+00 -0.83323168952E+02  0.11377737840E+03  0.77476069540E+02 0.  0.
         66    2    3    3    0    0  0.16102786358E+02 -0.24704280357E+01 -0.93260794657E+02  0.94694131511E+02  0.19999948307E+01 0.  0.
         13    1    3    3    0    0 -0.16102786358E+02  0.24704280357E+01  0.99376257049E+01  0.19083246889E+02  0.10566000000E+00 0. -1.
         13    1    4    4    0    0  0.49817541579E+01 -0.71535794679E+00 -0.25027740004E+02  0.25528974622E+02  0.10566000000E+00 0. -1.
        -13    1    4    4    0    0  0.44889168111E+01 -0.43212208638E+00 -0.30308156344E+02  0.30642007255E+02  0.10566000000E+00 0.  1.
        -14    1    4    4    0    0  0.66321153885E+01 -0.13229480025E+01 -0.37924898309E+02  0.38523149634E+02  0.00000000000E+00 0.  1.
<mgrwt>
<rscale>  0 0.77476070E+02</rscale>
<asrwt>0</asrwt>
<pdfrwt beam="1">  1        1 0.23426316E-02 0.77476070E+02</pdfrwt>
<pdfrwt beam="2">  1       -2 0.15161580E-01 0.77476070E+02</pdfrwt>
<totfact> 0.11561102E+05</totfact>
</mgrwt>
</event>
<event>
 8    1  0.1241100E-024  0.7855982E+02  0.7818608E-02  0.1333189E+00
          1   -1    0    0  501    0  0.00000000000E+00  0.00000000000E+00  0.46845048492E+02  0.46845048763E+02  0.50400000000E-02 0. -1.
         -2   -1    0    0    0  501 -0.00000000000E+00 -0.00000000000E+00 -0.32936483953E+02  0.32936484052E+02  0.25500000000E-02 0.  1.
        -24    2    1    2    0    0  0.00000000000E+00 -0.35527136788E-14  0.13908564539E+02  0.79781532815E+02  0.78559816769E+02 0.  0.
         66    2    3    3    0    0 -0.16109698617E+02  0.21679573352E+02 -0.21968933438E+02  0.34873489934E+02  0.19999933895E+01 0.  0.
         13    1    3    3    0    0  0.16109698617E+02 -0.21679573352E+02  0.35877497977E+02  0.44908042881E+02  0.10566000000E+00 0. -1.
         13    1    4    4    0    0 -0.10376834701E+02  0.12673749050E+02 -0.13516604089E+02  0.21237051668E+02  0.10566000000E+00 0. -1.
        -13    1    4    4    0    0 -0.42783955105E+01  0.71718545060E+01 -0.63731006406E+01  0.10505605219E+02  0.10566000000E+00 0.  1.
        -14    1    4    4    0    0 -0.14544684053E+01  0.18339697960E+01 -0.20792287081E+01  0.31308330481E+01  0.00000000000E+00 0.  1.
<mgrwt>
<rscale>  0 0.78559817E+02</rscale>
<asrwt>0</asrwt>
<pdfrwt beam="1">  1        1 0.72069306E-02 0.78559817E+02</pdfrwt>
<pdfrwt beam="2">  1       -2 0.50671514E-02 0.78559817E+02</pdfrwt>
<totfact> 0.13698858E+05</totfact>
</mgrwt>
</event>
<event>
 8    1  0.1241100E-024  0.7884067E+02  0.7818608E-02  0.1332374E+00
         -2   -1    0    0    0  501 -0.00000000000E+00  0.00000000000E+00  0.21241538026E+01  0.21241553332E+01  0.25500000000E-02 0.  1.
          1   -1    0    0  501    0  0.00000000000E+00 -0.00000000000E+00 -0.73156765107E+03  0.73156765109E+03  0.50400000000E-02 0. -1.
        -24    2    1    2    0    0 -0.35527136788E-14  0.88817841970E-15 -0.72944349727E+03  0.73369180642E+03  0.78840669092E+02 0.  0.
         66    2    3    3    0    0 -0.29938246257E+02  0.79681651495E+01 -0.59141276372E+03  0.59222702348E+03  0.20000010645E+01 0.  0.
         13    1    3    3    0    0  0.29938246257E+02 -0.79681651495E+01 -0.13803073355E+03  0.14146478295E+03  0.10566000000E+00 0. -1.
         13    1    4    4    0    0 -0.14978926416E+02  0.37845280970E+01 -0.31004312501E+03  0.31042783609E+03  0.10566000000E+00 0. -1.
        -13    1    4    4    0    0 -0.31345802965E+01  0.11963847339E+01 -0.59929058926E+02  0.60022997242E+02  0.10566000000E+00 0.  1.
         14    1    4    4    0    0 -0.11824739544E+02  0.29872523186E+01 -0.22144057979E+03  0.22177619015E+03  0.00000000000E+00 0. -1.
<mgrwt>
<rscale>  0 0.78840669E+02</rscale>
<asrwt>0</asrwt>
<pdfrwt beam="1">  1        1 0.11254867E+00 0.78840669E+02</pdfrwt>
<pdfrwt beam="2">  1       -2 0.32679360E-03 0.78840669E+02</pdfrwt>
<totfact> 0.20779214E+05</totfact>
</mgrwt>
</event>
<event>
 8    1  0.1241100E-024  0.7992350E+02  0.7818608E-02  0.1329269E+00
          1   -1    0    0  501    0  0.00000000000E+00  0.00000000000E+00  0.35744687374E+01  0.35744722906E+01  0.50400000000E-02 0. -1.
         -2   -1    0    0    0  501 -0.00000000000E+00 -0.00000000000E+00 -0.44676310678E+03  0.44676310679E+03  0.25500000000E-02 0.  1.
        -24    2    1    2    0    0  0.00000000000E+00 -0.35527136788E-14 -0.44318863804E+03  0.45033757908E+03  0.79923502423E+02 0.  0.
         66    2    3    3    0    0 -0.24524379003E+02 -0.22866828333E+02 -0.34396597084E+03  0.34560226577E+03  0.20000009361E+01 0.  0.
         13    1    3    3    0    0  0.24524379003E+02  0.22866828333E+02 -0.99222667201E+02  0.10473531331E+03  0.10566000000E+00 0. -1.
         13    1    4    4    0    0 -0.18529677145E+01 -0.12741554376E+01 -0.23136171584E+02  0.23245441726E+02  0.10566000000E+00 0. -1.
        -13    1    4    4    0    0 -0.21799064869E+02 -0.21038451229E+02 -0.30866882712E+03  0.31015201379E+03  0.10566000000E+00 0.  1.
        -14    1    4    4    0    0 -0.87234642030E+00 -0.55422166606E+00 -0.12160972133E+02  0.12204810247E+02  0.00000000000E+00 0.  1.
<mgrwt>
<rscale>  0 0.79923502E+02</rscale>
<asrwt>0</asrwt>
<pdfrwt beam="1">  1        1 0.54991890E-03 0.79923502E+02</pdfrwt>
<pdfrwt beam="2">  1       -2 0.68732741E-01 0.79923502E+02</pdfrwt>
<totfact> 0.54901434E+04</totfact>
</mgrwt>
</event>
<event>
 8    1  0.1241100E-024  0.7820764E+02  0.7818608E-02  0.1334216E+00
         -2   -1    0    0    0  501 -0.00000000000E+00  0.00000000000E+00  0.39193586607E+02  0.39193586690E+02  0.25500000000E-02 0.  1.
          1   -1    0    0  501    0  0.00000000000E+00 -0.00000000000E+00 -0.39014261046E+02  0.39014261371E+02  0.50400000000E-02 0. -1.
        -24    2    1    2    0    0  0.00000000000E+00  0.00000000000E+00  0.17932556165E+00  0.78207848062E+02  0.78207642470E+02 0.  0.
         66    2    3    3    0    0  0.34580713498E+02 -0.15319513436E+02  0.99178022668E+01  0.39151960790E+02  0.19999984838E+01 0.  0.
         13    1    3    3    0    0 -0.34580713498E+02  0.15319513436E+02 -0.97384767052E+01  0.39055887271E+02  0.10566000000E+00 0. -1.
         13    1    4    4    0    0  0.28309093908E+01 -0.12889968934E+01  0.13314360075E+01  0.33851804750E+01  0.10566000000E+00 0. -1.
        -13    1    4    4    0    0  0.21890814448E+02 -0.10058604800E+02  0.60425771633E+01  0.24837616442E+02  0.10566000000E+00 0.  1.
         14    1    4    4    0    0  0.98589896596E+01 -0.39719117433E+01  0.25437890960E+01  0.10929163873E+02  0.00000000000E+00 0. -1.
<mgrwt>
<rscale>  0 0.78207642E+02</rscale>
<asrwt>0</asrwt>
<pdfrwt beam="1">  1        1 0.60021940E-02 0.78207642E+02</pdfrwt>
<pdfrwt beam="2">  1       -2 0.60297826E-02 0.78207642E+02</pdfrwt>
<totfact> 0.13479196E+05</totfact>
</mgrwt>
</event>
<event>
 8    1  0.1241100E-024  0.8008463E+02  0.7818608E-02  0.1328811E+00
          1   -1    0    0  501    0  0.00000000000E+00  0.00000000000E+00  0.75723134811E+01  0.75723151584E+01  0.50400000000E-02 0. -1.
         -2   -1    0    0    0  501 -0.00000000000E+00 -0.00000000000E+00 -0.21174331882E+03  0.21174331884E+03  0.25500000000E-02 0.  1.
        -24    2    1    2    0    0  0.00000000000E+00 -0.17763568394E-14 -0.20417100534E+03  0.21931563400E+03  0.80084629568E+02 0.  0.
         66    2    3    3    0    0  0.33207308723E+02 -0.10295638236E+02 -0.15641486886E+03  0.16024461526E+03  0.19999997403E+01 0.  0.
         13    1    3    3    0    0 -0.33207308723E+02  0.10295638236E+02 -0.47756136483E+02  0.59071018742E+02  0.10566000000E+00 0. -1.
         13    1    4    4    0    0  0.16132045392E+01 -0.80064232252E+00 -0.85228084902E+01  0.87116522893E+01  0.10566000000E+00 0. -1.
        -13    1    4    4    0    0  0.10471051919E+02 -0.36556194033E+01 -0.51574994155E+02  0.52754124651E+02  0.10566000000E+00 0.  1.
         14    1    4    4    0    0  0.21123052265E+02 -0.58393765100E+01 -0.96317066213E+02  0.98778838315E+02  0.00000000000E+00 0. -1.
<mgrwt>
<rscale>  0 0.80084630E+02</rscale>
<asrwt>0</asrwt>
<pdfrwt beam="1">  1        1 0.11649716E-02 0.80084630E+02</pdfrwt>
<pdfrwt beam="2">  1       -2 0.32575891E-01 0.80084630E+02</pdfrwt>
<totfact> 0.82862850E+04</totfact>
</mgrwt>
</event>
<event>
 8    1  0.1241100E-024  0.8710025E+02  0.7818608E-02  0.1310030E+00
          1   -1    0    0  501    0  0.00000000000E+00  0.00000000000E+00  0.22476448611E+03  0.22476448616E+03  0.50400000000E-02 0. -1.
         -2   -1    0    0    0  501 -0.00000000000E+00 -0.00000000000E+00 -0.84382260727E+01  0.84382264580E+01  0.25500000000E-02 0.  1.
        -24    2    1    2    0    0  0.35527136788E-14 -0.35527136788E-14  0.21632626003E+03  0.23320271262E+03  0.87100254842E+02 0.  0.
         66    2    3    3    0    0 -0.24693266853E+02 -0.26315384958E+02  0.43056566270E+02  0.56214987469E+02  0.20000009656E+01 0.  0.
         13    1    3    3    0    0  0.24693266853E+02  0.26315384958E+02  0.17326969376E+03  0.17698772515E+03  0.10566000000E+00 0. -1.
         13    1    4    4    0    0 -0.97005358562E+00 -0.70009864664E+00  0.13916863679E+01  0.18382320464E+01  0.10566000000E+00 0. -1.
        -13    1    4    4    0    0 -0.17684668308E+02 -0.19505935036E+02  0.30581309225E+02  0.40354140218E+02  0.10566000000E+00 0.  1.
         14    1    4    4    0    0 -0.60385449597E+01 -0.61093512752E+01  0.11083570677E+02  0.14022615205E+02  0.00000000000E+00 0. -1.
<mgrwt>
<rscale>  0 0.87100255E+02</rscale>
<asrwt>0</asrwt>
<pdfrwt beam="1">  1        1 0.34579144E-01 0.87100255E+02</pdfrwt>
<pdfrwt beam="2">  1       -2 0.12981889E-02 0.87100255E+02</pdfrwt>
<totfact> 0.13602762E+05</totfact>
</mgrwt>
</event>
<event>
 8    1  0.1241100E-024  0.8167319E+02  0.7818608E-02  0.1324369E+00
         -2   -1    0    0    0  501 -0.00000000000E+00  0.00000000000E+00  0.23370925956E+03  0.23370925957E+03  0.25500000000E-02 0.  1.
          1   -1    0    0  501    0  0.00000000000E+00 -0.00000000000E+00 -0.71354777855E+01  0.71354795654E+01  0.50400000000E-02 0. -1.
        -24    2    1    2    0    0  0.00000000000E+00 -0.71054273576E-14  0.22657378178E+03  0.24084473914E+03  0.81673188890E+02 0.  0.
         66    2    3    3    0    0 -0.28011050675E+02 -0.28957844492E+02  0.13256695459E+03  0.13856829787E+03  0.20000019156E+01 0.  0.
         13    1    3    3    0    0  0.28011050675E+02  0.28957844492E+02  0.94006827187E+02  0.10227644127E+03  0.10566000000E+00 0. -1.
         13    1    4    4    0    0 -0.79153906168E+01 -0.84690232332E+01  0.35469463299E+02  0.37315837843E+02  0.10566000000E+00 0. -1.
        -13    1    4    4    0    0 -0.31525695724E+01 -0.34678842790E+01  0.16465262282E+02  0.17119606957E+02  0.10566000000E+00 0.  1.
         14    1    4    4    0    0 -0.16943090485E+02 -0.17020936980E+02  0.80632229007E+02  0.84132853069E+02  0.00000000000E+00 0. -1.
<mgrwt>
<rscale>  0 0.81673189E+02</rscale>
<asrwt>0</asrwt>
<pdfrwt beam="1">  1        1 0.10977660E-02 0.81673189E+02</pdfrwt>
<pdfrwt beam="2">  1       -2 0.35955270E-01 0.81673189E+02</pdfrwt>
<totfact> 0.75428111E+04</totfact>
</mgrwt>
</event>
<event>
 8    1  0.1241100E-024  0.8093449E+02  0.7818608E-02  0.1326420E+00
          1   -1    0    0  501    0  0.00000000000E+00  0.00000000000E+00  0.20781367541E+03  0.20781367547E+03  0.50400000000E-02 0. -1.
         -2   -1    0    0    0  501 -0.00000000000E+00 -0.00000000000E+00 -0.78801263593E+01  0.78801267719E+01  0.25500000000E-02 0.  1.
        -24    2    1    2    0    0  0.35527136788E-14 -0.35527136788E-14  0.19993354905E+03  0.21569380224E+03  0.80934493820E+02 0.  0.
         66    2    3    3    0    0  0.27629271172E+02 -0.26337122668E+02  0.64414429902E+02  0.74901531593E+02  0.19999998532E+01 0.  0.
         13    1    3    3    0    0 -0.27629271172E+02  0.26337122668E+02  0.13551911914E+03  0.14079227065E+03  0.10566000000E+00 0. -1.
         13    1    4    4    0    0  0.31209870639E+01 -0.35517313381E+01  0.72840824542E+01  0.86847208929E+01  0.10566000000E+00 0.  1.
        -13    1    4    4    0    0  0.10408007509E+02 -0.91144182919E+01  0.24084064630E+02  0.27775035090E+02  0.10566000000E+00 0. -1.
        -14    1    4    4    0    0  0.14100276599E+02 -0.13670973038E+02  0.33046282817E+02  0.38441775610E+02  0.00000000000E+00 0.  1.
<mgrwt>
<rscale>  0 0.80934494E+02</rscale>
<asrwt>0</asrwt>
<pdfrwt beam="1">  1        1 0.31971331E-01 0.80934494E+02</pdfrwt>
<pdfrwt beam="2">  1       -2 0.12123273E-02 0.80934494E+02</pdfrwt>
<totfact> 0.16288582E+05</totfact>
</mgrwt>
</event>
<event>
 8    1  0.1241100E-024  0.8025714E+02  0.7818608E-02  0.1328323E+00
          1   -1    0    0  501    0  0.00000000000E+00  0.00000000000E+00  0.58817392785E+02  0.58817393001E+02  0.50400000000E-02 0. -1.
         -2   -1    0    0    0  501 -0.00000000000E+00 -0.00000000000E+00 -0.27377994661E+02  0.27377994780E+02  0.25500000000E-02 0.  1.
        -24    2    1    2    0    0 -0.35527136788E-14  0.00000000000E+00  0.31439398124E+02  0.86195387781E+02  0.80257143734E+02 0.  0.
         66    2    3    3    0    0  0.21138359439E+02 -0.32933993248E+02  0.63162807641E+01  0.39690975723E+02  0.20000000326E+01 0.  0.
         13    1    3    3    0    0 -0.21138359439E+02  0.32933993248E+02  0.25123117360E+02  0.46504412059E+02  0.10566000000E+00 0. -1.
         13    1    4    4    0    0  0.11870062474E+02 -0.19075610437E+02  0.41805377983E+01  0.22853125759E+02  0.10566000000E+00 0.  1.
        -13    1    4    4    0    0  0.31724867964E+01 -0.49547205928E+01  0.12127531813E+01  0.60079832674E+01  0.10566000000E+00 0. -1.
         14    1    4    4    0    0  0.60958101691E+01 -0.89036622181E+01  0.92298978448E+00  0.10829866696E+02  0.00000000000E+00 0. -1.
<mgrwt>
<rscale>  0 0.80257144E+02</rscale>
<asrwt>0</asrwt>
<pdfrwt beam="1">  1        1 0.90488295E-02 0.80257144E+02</pdfrwt>
<pdfrwt beam="2">  1       -2 0.42119993E-02 0.80257144E+02</pdfrwt>
<totfact> 0.13377356E+05</totfact>
</mgrwt>
</event>
<event>
 8    1  0.1241100E-024  0.8294117E+02  0.7818608E-02  0.1320906E+00
          1   -1    0    0  501    0  0.00000000000E+00  0.00000000000E+00  0.11820788830E+02  0.11820789904E+02  0.50400000000E-02 0. -1.
         -2   -1    0    0    0  501 -0.00000000000E+00 -0.00000000000E+00 -0.14549024242E+03  0.14549024244E+03  0.25500000000E-02 0.  1.
        -24    2    1    2    0    0  0.17763568394E-14  0.35527136788E-14 -0.13366945359E+03  0.15731103235E+03  0.82941172375E+02 0.  0.
         66    2    3    3    0    0 -0.96180713731E+01  0.28977157470E+02 -0.12003479415E+03  0.12387305911E+03  0.20000039714E+01 0.  0.
         13    1    3    3    0    0  0.96180713731E+01 -0.28977157470E+02 -0.13634659445E+02  0.33437973237E+02  0.10566000000E+00 0. -1.
         13    1    4    4    0    0 -0.51491032691E+01  0.14340192004E+02 -0.58647186189E+02  0.60594207505E+02  0.10566000000E+00 0.  1.
        -13    1    4    4    0    0 -0.65805110908E+00  0.10512431641E+01 -0.49022689774E+01  0.50578205400E+01  0.10566000000E+00 0.  1.
        -14    1    4    4    0    0 -0.38109169950E+01  0.13585722301E+02 -0.56485338981E+02  0.58221031067E+02  0.00000000000E+00 0.  1.
<mgrwt>
<rscale>  0 0.82941172E+02</rscale>
<asrwt>0</asrwt>
<pdfrwt beam="1">  1        1 0.18185831E-02 0.82941172E+02</pdfrwt>
<pdfrwt beam="2">  1       -2 0.22383113E-01 0.82941172E+02</pdfrwt>
<totfact> 0.86978045E+04</totfact>
</mgrwt>
</event>
<event>
 8    1  0.1241100E-024  0.8013422E+02  0.7818608E-02  0.1328671E+00
         -2   -1    0    0    0  501 -0.00000000000E+00  0.00000000000E+00  0.42962182441E+01  0.42962190008E+01  0.25500000000E-02 0.  1.
          1   -1    0    0  501    0  0.00000000000E+00 -0.00000000000E+00 -0.37367123980E+03  0.37367123983E+03  0.50400000000E-02 0. -1.
        -24    2    1    2    0    0  0.00000000000E+00  0.00000000000E+00 -0.36937502155E+03  0.37796745883E+03  0.80134221083E+02 0.  0.
         66    2    3    3    0    0 -0.39503717146E+02 -0.64466528356E+01 -0.17949647115E+03  0.18391597579E+03  0.19999991640E+01 0.  0.
         13    1    3    3    0    0  0.39503717146E+02  0.64466528356E+01 -0.18987855040E+03  0.19405148304E+03  0.10566000000E+00 0. -1.
         13    1    4    4    0    0 -0.11963065684E+01 -0.31569799304E+00 -0.44995280298E+01  0.46677329781E+01  0.10566000000E+00 0. -1.
        -13    1    4    4    0    0 -0.14805670942E+02 -0.23577684376E+01 -0.69805639796E+02  0.71397517292E+02  0.10566000000E+00 0.  1.
        -14    1    4    4    0    0 -0.23501739636E+02 -0.37731864049E+01 -0.10519130332E+03  0.10785072552E+03  0.00000000000E+00 0.  1.
<mgrwt>
<rscale>  0 0.80134221E+02</rscale>
<asrwt>0</asrwt>
<pdfrwt beam="1">  1        1 0.57487858E-01 0.80134221E+02</pdfrwt>
<pdfrwt beam="2">  1       -2 0.66095701E-03 0.80134221E+02</pdfrwt>
<totfact> 0.18694523E+05</totfact>
</mgrwt>
</event>
<event>
 8    1  0.1241100E-024  0.8053657E+02  0.7818608E-02  0.1327536E+00
         -2   -1    0    0    0  501 -0.00000000000E+00  0.00000000000E+00  0.38583849111E+03  0.38583849112E+03  0.25500000000E-02 0.  1.
          1   -1    0    0  501    0  0.00000000000E+00 -0.00000000000E+00 -0.42026247271E+01  0.42026277492E+01  0.50400000000E-02 0. -1.
        -24    2    1    2    0    0  0.00000000000E+00  0.00000000000E+00  0.38163586638E+03  0.39004111886E+03  0.80536574906E+02 0.  0.
         66    2    3    3    0    0  0.24196604690E+01 -0.39986800746E+02  0.17234724004E+03  0.17695301673E+03  0.19999977382E+01 0.  0.
         13    1    3    3    0    0 -0.24196604690E+01  0.39986800746E+02  0.20928862634E+03  0.21308810213E+03  0.10566000000E+00 0. -1.
         13    1    4    4    0    0  0.15192445285E+01 -0.17436448749E+02  0.74592961391E+02  0.76618920000E+02  0.10566000000E+00 0. -1.
        -13    1    4    4    0    0  0.10502545445E+01 -0.20147773522E+02  0.88664252997E+02  0.90930724929E+02  0.10566000000E+00 0.  1.
         14    1    4    4    0    0 -0.14983860395E+00 -0.24025784749E+01  0.90900256506E+01  0.94033718030E+01  0.00000000000E+00 0. -1.
<mgrwt>
<rscale>  0 0.80536575E+02</rscale>
<asrwt>0</asrwt>
<pdfrwt beam="1">  1        1 0.64655797E-03 0.80536575E+02</pdfrwt>
<pdfrwt beam="2">  1       -2 0.59359760E-01 0.80536575E+02</pdfrwt>
<totfact> 0.59468351E+04</totfact>
</mgrwt>
</event>
<event>
 8    1  0.1241100E-024  0.7892810E+02  0.7818608E-02  0.1332121E+00
         -2   -1    0    0    0  501 -0.00000000000E+00  0.00000000000E+00  0.47213328733E+02  0.47213328802E+02  0.25500000000E-02 0.  1.
          1   -1    0    0  501    0  0.00000000000E+00 -0.00000000000E+00 -0.32986686221E+02  0.32986686606E+02  0.50400000000E-02 0. -1.
        -24    2    1    2    0    0  0.00000000000E+00  0.00000000000E+00  0.14226642512E+02  0.80200015408E+02  0.78928100917E+02 0.  0.
         66    2    3    3    0    0 -0.24906195100E+01  0.15913266176E+02  0.43697602666E+02  0.46614544109E+02  0.20000044557E+01 0.  0.
         13    1    3    3    0    0  0.24906195100E+01 -0.15913266176E+02 -0.29470960154E+02  0.33585471299E+02  0.10566000000E+00 0. -1.
         13    1    4    4    0    0 -0.13036669975E+01  0.54486970261E+01  0.16420007903E+02  0.17349803183E+02  0.10566000000E+00 0. -1.
        -13    1    4    4    0    0 -0.14065844269E+01  0.97599542508E+01  0.25305344726E+02  0.27158917917E+02  0.10566000000E+00 0.  1.
        -14    1    4    4    0    0  0.21963191447E+00  0.70461489866E+00  0.19722500379E+01  0.21058230091E+01  0.00000000000E+00 0.  1.
<mgrwt>
<rscale>  0 0.78928101E+02</rscale>
<asrwt>0</asrwt>
<pdfrwt beam="1">  1        1 0.50748749E-02 0.78928101E+02</pdfrwt>
<pdfrwt beam="2">  1       -2 0.72635890E-02 0.78928101E+02</pdfrwt>
<totfact> 0.12778236E+05</totfact>
</mgrwt>
</event>
<event>
 8    1  0.1241100E-024  0.7885465E+02  0.7818608E-02  0.1332334E+00
         -2   -1    0    0    0  501 -0.00000000000E+00  0.00000000000E+00  0.65212112322E+01  0.65212117307E+01  0.25500000000E-02 0.  1.
          1   -1    0    0  501    0  0.00000000000E+00 -0.00000000000E+00 -0.23837812089E+03  0.23837812094E+03  0.50400000000E-02 0. -1.
        -24    2    1    2    0    0 -0.35527136788E-14  0.35527136788E-14 -0.23185690965E+03  0.24489933267E+03  0.78854654828E+02 0.  0.
         66    2    3    3    0    0 -0.31829516935E+02  0.11002386959E+02 -0.52480815946E+02  0.62389155351E+02  0.19999989908E+01 0.  0.
         13    1    3    3    0    0  0.31829516935E+02 -0.11002386959E+02 -0.17937609371E+03  0.18251017732E+03  0.10566000000E+00 0. -1.
         13    1    4    4    0    0 -0.12018220400E+02  0.34651488653E+01 -0.18491921890E+02  0.22325035665E+02  0.10566000000E+00 0. -1.
        -13    1    4    4    0    0 -0.16954603353E+02  0.67228837732E+01 -0.29097818043E+02  0.34341664490E+02  0.10566000000E+00 0.  1.
         14    1    4    4    0    0 -0.28566931822E+01  0.81435432051E+00 -0.48910760130E+01  0.57224551952E+01  0.00000000000E+00 0. -1.
<mgrwt>
<rscale>  0 0.78854655E+02</rscale>
<asrwt>0</asrwt>
<pdfrwt beam="1">  1        1 0.36673550E-01 0.78854655E+02</pdfrwt>
<pdfrwt beam="2">  1       -2 0.10032635E-02 0.78854655E+02</pdfrwt>
<totfact> 0.17925045E+05</totfact>
</mgrwt>
</event>
<event>
 8    1  0.1241100E-024  0.7977906E+02  0.7818608E-02  0.1329680E+00
         -2   -1    0    0    0  501 -0.00000000000E+00  0.00000000000E+00  0.94772667653E+01  0.94772671084E+01  0.25500000000E-02 0.  1.
          1   -1    0    0  501    0  0.00000000000E+00 -0.00000000000E+00 -0.16789384558E+03  0.16789384566E+03  0.50400000000E-02 0. -1.
        -24    2    1    2    0    0  0.11102230246E-15  0.00000000000E+00 -0.15841657882E+03  0.17737111277E+03  0.79779064923E+02 0.  0.
         66    2    3    3    0    0 -0.99790311393E+00  0.27310604368E+02 -0.14732840212E+02  0.31111436761E+02  0.19999987655E+01 0.  0.
         13    1    3    3    0    0  0.99790311393E+00 -0.27310604368E+02 -0.14368373861E+03  0.14625967601E+03  0.10566000000E+00 0. -1.
         13    1    4    4    0    0 -0.17925808791E+00  0.15900310076E+01 -0.74477217809E+00  0.17681011566E+01  0.10566000000E+00 0. -1.
        -13    1    4    4    0    0 -0.27695090114E+00  0.39268546761E+01 -0.28596433102E+01  0.48667867578E+01  0.10566000000E+00 0.  1.
        -14    1    4    4    0    0 -0.54169412489E+00  0.21793718684E+02 -0.11128424723E+02  0.24476548847E+02  0.00000000000E+00 0.  1.
<mgrwt>
<rscale>  0 0.79779065E+02</rscale>
<asrwt>0</asrwt>
<pdfrwt beam="1">  1        1 0.25829820E-01 0.79779065E+02</pdfrwt>
<pdfrwt beam="2">  1       -2 0.14580412E-02 0.79779065E+02</pdfrwt>
<totfact> 0.16243125E+05</totfact>
</mgrwt>
</event>
<event>
 8    1  0.1241100E-024  0.8079035E+02  0.7818608E-02  0.1326823E+00
          1   -1    0    0  501    0  0.00000000000E+00  0.00000000000E+00  0.96784214238E+02  0.96784214370E+02  0.50400000000E-02 0. -1.
         -2   -1    0    0    0  501 -0.00000000000E+00 -0.00000000000E+00 -0.16859878282E+02  0.16859878475E+02  0.25500000000E-02 0.  1.
        -24    2    1    2    0    0  0.71054273576E-14  0.88817841970E-15  0.79924335956E+02  0.11364409284E+03  0.80790348189E+02 0.  0.
         66    2    3    3    0    0  0.39468381911E+02  0.48616374023E+01  0.30202863881E+02  0.49976011059E+02  0.20000014462E+01 0.  0.
         13    1    3    3    0    0 -0.39468381911E+02 -0.48616374023E+01  0.49721472076E+02  0.63668081786E+02  0.10566000000E+00 0. -1.
         13    1    4    4    0    0  0.11615460345E+02  0.93486834792E+00  0.94164901111E+01  0.14982468018E+02  0.10566000000E+00 0. -1.
        -13    1    4    4    0    0  0.19986058295E+02  0.24399669773E+01  0.15291760498E+02  0.25283296229E+02  0.10566000000E+00 0.  1.
         14    1    4    4    0    0  0.78668632716E+01  0.14868020771E+01  0.54946132716E+01  0.97102468123E+01  0.00000000000E+00 0. -1.
<mgrwt>
<rscale>  0 0.80790348E+02</rscale>
<asrwt>0</asrwt>
<pdfrwt beam="1">  1        1 0.14889879E-01 0.80790348E+02</pdfrwt>
<pdfrwt beam="2">  1       -2 0.25938274E-02 0.80790348E+02</pdfrwt>
<totfact> 0.14234872E+05</totfact>
</mgrwt>
</event>
<event>
 8    1  0.1241100E-024  0.8068710E+02  0.7818608E-02  0.1327113E+00
         -2   -1    0    0    0  501 -0.00000000000E+00  0.00000000000E+00  0.48647319056E+01  0.48647325739E+01  0.25500000000E-02 0.  1.
          1   -1    0    0  501    0  0.00000000000E+00 -0.00000000000E+00 -0.33457175558E+03  0.33457175561E+03  0.50400000000E-02 0. -1.
        -24    2    1    2    0    0  0.00000000000E+00 -0.88817841970E-15 -0.32970702367E+03  0.33943648819E+03  0.80687099686E+02 0.  0.
         66    2    3    3    0    0 -0.39710672322E+02 -0.65498025000E+01 -0.17505057375E+03  0.17962889740E+03  0.19999999852E+01 0.  0.
         13    1    3    3    0    0  0.39710672322E+02  0.65498025000E+01 -0.15465644992E+03  0.15980759079E+03  0.10566000000E+00 0. -1.
         13    1    4    4    0    0 -0.84789185952E+01 -0.17723313605E+01 -0.40742767137E+02  0.41653540750E+02  0.10566000000E+00 0. -1.
        -13    1    4    4    0    0 -0.11335208629E+02 -0.18066127860E+01 -0.47625947039E+02  0.48989721369E+02  0.10566000000E+00 0.  1.
         14    1    4    4    0    0 -0.19896545098E+02 -0.29708583535E+01 -0.86681859575E+02  0.88985635277E+02  0.00000000000E+00 0. -1.
<mgrwt>
<rscale>  0 0.80687100E+02</rscale>
<asrwt>0</asrwt>
<pdfrwt beam="1">  1        1 0.51472560E-01 0.80687100E+02</pdfrwt>
<pdfrwt beam="2">  1       -2 0.74842061E-03 0.80687100E+02</pdfrwt>
<totfact> 0.18002824E+05</totfact>
</mgrwt>
</event>
<event>
 8    1  0.1241100E-024  0.8054578E+02  0.7818608E-02  0.1327510E+00
          1   -1    0    0  501    0  0.00000000000E+00  0.00000000000E+00  0.69366369456E+02  0.69366369639E+02  0.50400000000E-02 0. -1.
         -2   -1    0    0    0  501 -0.00000000000E+00 -0.00000000000E+00 -0.23381731517E+02  0.23381731656E+02  0.25500000000E-02 0.  1.
        -24    2    1    2    0    0 -0.35527136788E-14  0.00000000000E+00  0.45984637939E+02  0.92748101295E+02  0.80545784294E+02 0.  0.
         66    2    3    3    0    0  0.26984848591E+02 -0.26020803699E+02  0.61364937219E+01  0.38038412572E+02  0.19999992943E+01 0.  0.
         13    1    3    3    0    0 -0.26984848591E+02  0.26020803699E+02  0.39848144217E+02  0.54709688723E+02  0.10566000000E+00 0. -1.
         13    1    4    4    0    0  0.60119844527E+01 -0.61155781008E+01  0.15990786022E+01  0.87242460407E+01  0.10566000000E+00 0. -1.
        -13    1    4    4    0    0  0.99304269747E+01 -0.10528341653E+02  0.24002249661E+01  0.14670773728E+02  0.10566000000E+00 0.  1.
        -14    1    4    4    0    0  0.11042437163E+02 -0.93768839457E+01  0.21371901535E+01  0.14643392803E+02  0.00000000000E+00 0.  1.
<mgrwt>
<rscale>  0 0.80545784E+02</rscale>
<asrwt>0</asrwt>
<pdfrwt beam="1">  1        1 0.10671749E-01 0.80545784E+02</pdfrwt>
<pdfrwt beam="2">  1       -2 0.35971895E-02 0.80545784E+02</pdfrwt>
<totfact> 0.13595005E+05</totfact>
</mgrwt>
</event>
<event>
 8    1  0.1241100E-024  0.7952009E+02  0.7818608E-02  0.1330419E+00
         -2   -1    0    0    0  501 -0.00000000000E+00  0.00000000000E+00  0.76596600853E+02  0.76596600896E+02  0.25500000000E-02 0.  1.
          1   -1    0    0  501    0  0.00000000000E+00 -0.00000000000E+00 -0.20638789990E+02  0.20638790605E+02  0.50400000000E-02 0. -1.
        -24    2    1    2    0    0  0.35527136788E-14  0.44408920985E-15  0.55957810863E+02  0.97235391501E+02  0.79520090315E+02 0.  0.
         66    2    3    3    0    0 -0.23187875473E+02 -0.35484510548E+01  0.67212984263E+02  0.71216952536E+02  0.20000002688E+01 0.  0.
         13    1    3    3    0    0  0.23187875473E+02  0.35484510548E+01 -0.11255173400E+02  0.26018438965E+02  0.10566000000E+00 0. -1.
         13    1    4    4    0    0 -0.57204699703E+01 -0.20776084092E+00  0.16561048762E+02  0.17522740693E+02  0.10566000000E+00 0. -1.
        -13    1    4    4    0    0 -0.49612948391E+01 -0.66257599378E+00  0.15448301461E+02  0.16239292949E+02  0.10566000000E+00 0.  1.
        -14    1    4    4    0    0 -0.12506110664E+02 -0.26781142201E+01  0.35203634040E+02  0.37454918894E+02  0.00000000000E+00 0.  1.
<mgrwt>
<rscale>  0 0.79520090E+02</rscale>
<asrwt>0</asrwt>
<pdfrwt beam="1">  1        1 0.31751986E-02 0.79520090E+02</pdfrwt>
<pdfrwt beam="2">  1       -2 0.11784092E-01 0.79520090E+02</pdfrwt>
<totfact> 0.11454278E+05</totfact>
</mgrwt>
</event>
<event>
 8    1  0.1241100E-024  0.7879984E+02  0.7818608E-02  0.1332492E+00
         -2   -1    0    0    0  501 -0.00000000000E+00  0.00000000000E+00  0.17374503535E+02  0.17374503723E+02  0.25500000000E-02 0.  1.
          1   -1    0    0  501    0  0.00000000000E+00 -0.00000000000E+00 -0.89346656017E+02  0.89346656159E+02  0.50400000000E-02 0. -1.
        -24    2    1    2    0    0 -0.17763568394E-14 -0.35527136788E-14 -0.71972152482E+02  0.10672115988E+03  0.78799842853E+02 0.  0.
         66    2    3    3    0    0 -0.85383440682E+01  0.22379129844E+02  0.63149342924E+01  0.24851703480E+02  0.19999996768E+01 0.  0.
         13    1    3    3    0    0  0.85383440682E+01 -0.22379129844E+02 -0.78287086774E+02  0.81869456402E+02  0.10566000000E+00 0. -1.
         13    1    4    4    0    0 -0.49976055310E+01  0.14687835482E+02  0.39263430311E+01  0.16004246493E+02  0.10566000000E+00 0.  1.
        -13    1    4    4    0    0 -0.31139271999E+00  0.13317483159E+01  0.19678744370E+00  0.13857879840E+01  0.10566000000E+00 0. -1.
        -14    1    4    4    0    0 -0.32293458172E+01  0.63595460464E+01  0.21918038176E+01  0.74616690022E+01  0.00000000000E+00 0.  1.
<mgrwt>
<rscale>  0 0.78799843E+02</rscale>
<asrwt>0</asrwt>
<pdfrwt beam="1">  1        1 0.13745639E-01 0.78799843E+02</pdfrwt>
<pdfrwt beam="2">  1       -2 0.26730006E-02 0.78799843E+02</pdfrwt>
<totfact> 0.15029631E+05</totfact>
</mgrwt>
</event>
<event>
 8    1  0.1241100E-024  0.7537848E+02  0.7818608E-02  0.1342703E+00
         -2   -1    0    0    0  501 -0.00000000000E+00  0.00000000000E+00  0.40256893821E+02  0.40256893901E+02  0.25500000000E-02 0.  1.
          1   -1    0    0  501    0  0.00000000000E+00 -0.00000000000E+00 -0.35285353318E+02  0.35285353678E+02  0.50400000000E-02 0. -1.
        -24    2    1    2    0    0  0.00000000000E+00  0.00000000000E+00  0.49715405027E+01  0.75542247579E+02  0.75378478058E+02 0.  0.
         66    2    3    3    0    0 -0.24269898082E+02 -0.28533628271E+02  0.64047104641E+01  0.38055436093E+02  0.20000012065E+01 0.  0.
         13    1    3    3    0    0  0.24269898082E+02  0.28533628271E+02 -0.14331699614E+01  0.37486811487E+02  0.10566000000E+00 0. -1.
         13    1    4    4    0    0 -0.10899397198E+02 -0.11557955538E+02  0.26220866591E+01  0.16101853868E+02  0.10566000000E+00 0. -1.
        -13    1    4    4    0    0 -0.93410237020E+01 -0.12351141739E+02  0.29318876390E+01  0.15761108946E+02  0.10566000000E+00 0.  1.
        -14    1    4    4    0    0 -0.40294771823E+01 -0.46245309944E+01  0.85073616594E+00  0.61924732785E+01  0.00000000000E+00 0.  1.
<mgrwt>
<rscale>  0 0.75378478E+02</rscale>
<asrwt>0</asrwt>
<pdfrwt beam="1">  1        1 0.54285160E-02 0.75378478E+02</pdfrwt>
<pdfrwt beam="2">  1       -2 0.61933683E-02 0.75378478E+02</pdfrwt>
<totfact> 0.14713350E+05</totfact>
</mgrwt>
</event>
<event>
 8    1  0.1241100E-024  0.7971074E+02  0.7818608E-02  0.1329874E+00
          1   -1    0    0  501    0  0.00000000000E+00  0.00000000000E+00  0.52813860971E+01  0.52813885019E+01  0.50400000000E-02 0. -1.
         -2   -1    0    0    0  501 -0.00000000000E+00 -0.00000000000E+00 -0.30076384357E+03  0.30076384359E+03  0.25500000000E-02 0.  1.
        -24    2    1    2    0    0  0.35527136788E-14  0.00000000000E+00 -0.29548245748E+03  0.30604523209E+03  0.79710735829E+02 0.  0.
         66    2    3    3    0    0  0.25497705598E+02  0.13996209990E+02 -0.25230778892E+03  0.25398670681E+03  0.20000005289E+01 0.  0.
         13    1    3    3    0    0 -0.25497705598E+02 -0.13996209990E+02 -0.43174668558E+02  0.52058525277E+02  0.10566000000E+00 0. -1.
         13    1    4    4    0    0  0.64705720064E+01  0.31674550198E+01 -0.68180180813E+02  0.68559822733E+02  0.10566000000E+00 0. -1.
        -13    1    4    4    0    0  0.30226022623E+01  0.13970742713E+01 -0.26757165917E+02  0.26963772601E+02  0.10566000000E+00 0.  1.
         14    1    4    4    0    0  0.16004531330E+02  0.94316806993E+01 -0.15737044219E+03  0.15846311148E+03  0.00000000000E+00 0. -1.
<mgrwt>
<rscale>  0 0.79710736E+02</rscale>
<asrwt>0</asrwt>
<pdfrwt beam="1">  1        1 0.81252136E-03 0.79710736E+02</pdfrwt>
<pdfrwt beam="2">  1       -2 0.46271347E-01 0.79710736E+02</pdfrwt>
<totfact> 0.70832271E+04</totfact>
</mgrwt>
</event>
<event>
 8    1  0.1241100E-024  0.8026394E+02  0.7818608E-02  0.1328304E+00
          1   -1    0    0  501    0  0.00000000000E+00  0.00000000000E+00  0.49600821240E+03  0.49600821242E+03  0.50400000000E-02 0. -1.
         -2   -1    0    0    0  501 -0.00000000000E+00 -0.00000000000E+00 -0.32470724049E+01  0.32470734062E+01  0.25500000000E-02 0.  1.
        -24    2    1    2    0    0  0.00000000000E+00  0.35527136788E-14  0.49276113999E+03  0.49925528583E+03  0.80263935498E+02 0.  0.
         66    2    3    3    0    0  0.22159839457E+02  0.31006613078E+02  0.32424823764E+03  0.32648642879E+03  0.20000079999E+01 0.  0.
         13    1    3    3    0    0 -0.22159839457E+02 -0.31006613078E+02  0.16851290235E+03  0.17276885704E+03  0.10566000000E+00 0. -1.
         13    1    4    4    0    0  0.62163263401E+01  0.73573809770E+01  0.80504198767E+02  0.81078424695E+02  0.10566000000E+00 0. -1.
        -13    1    4    4    0    0  0.12938829439E+02  0.18881222247E+02  0.19726185605E+03  0.19858540953E+03  0.10566000000E+00 0.  1.
         14    1    4    4    0    0  0.30046836780E+01  0.47680098548E+01  0.46482182826E+02  0.46822594570E+02  0.00000000000E+00 0. -1.
<mgrwt>
<rscale>  0 0.80263935E+02</rscale>
<asrwt>0</asrwt>
<pdfrwt beam="1">  1        1 0.76308907E-01 0.80263935E+02</pdfrwt>
<pdfrwt beam="2">  1       -2 0.49955000E-03 0.80263935E+02</pdfrwt>
<totfact> 0.19421405E+05</totfact>
</mgrwt>
</event>
<event>
 8    1  0.1241100E-024  0.7774470E+02  0.7818608E-02  0.1335576E+00
          1   -1    0    0  501    0  0.00000000000E+00  0.00000000000E+00  0.19484684598E+03  0.19484684605E+03  0.50400000000E-02 0. -1.
         -2   -1    0    0    0  501 -0.00000000000E+00 -0.00000000000E+00 -0.77551148390E+01  0.77551152583E+01  0.25500000000E-02 0.  1.
        -24    2    1    2    0    0  0.00000000000E+00  0.00000000000E+00  0.18709173114E+03  0.20260196131E+03  0.77744703117E+02 0.  0.
         66    2    3    3    0    0 -0.30907670094E+02  0.17755679121E+02  0.53361572997E+02  0.64202847965E+02  0.20000005904E+01 0.  0.
         13    1    3    3    0    0  0.30907670094E+02 -0.17755679121E+02  0.13373015815E+03  0.13839911334E+03  0.10566000000E+00 0. -1.
         13    1    4    4    0    0 -0.53833359807E+01  0.34486415123E+01  0.94852373632E+01  0.11439157593E+02  0.10566000000E+00 0. -1.
        -13    1    4    4    0    0 -0.88145644165E+01  0.48132650228E+01  0.13701002271E+02  0.16988016167E+02  0.10566000000E+00 0.  1.
        -14    1    4    4    0    0 -0.16709769697E+02  0.94937725861E+01  0.30175333363E+02  0.35775674205E+02  0.00000000000E+00 0.  1.
<mgrwt>
<rscale>  0 0.77744703E+02</rscale>
<asrwt>0</asrwt>
<pdfrwt beam="1">  1        1 0.29976436E-01 0.77744703E+02</pdfrwt>
<pdfrwt beam="2">  1       -2 0.11930947E-02 0.77744703E+02</pdfrwt>
<totfact> 0.17896915E+05</totfact>
</mgrwt>
</event>
<event>
 8    1  0.1241100E-024  0.8072567E+02  0.7818608E-02  0.1327005E+00
          1   -1    0    0  501    0  0.00000000000E+00  0.00000000000E+00  0.33200917336E+03  0.33200917339E+03  0.50400000000E-02 0. -1.
         -2   -1    0    0    0  501 -0.00000000000E+00 -0.00000000000E+00 -0.49069673931E+01  0.49069680557E+01  0.25500000000E-02 0.  1.
        -24    2    1    2    0    0  0.17763568394E-14 -0.71054273576E-14  0.32710220596E+03  0.33691614145E+03  0.80725666450E+02 0.  0.
         66    2    3    3    0    0  0.10942106584E+02 -0.37389536448E+02  0.11998851874E+03  0.12617032836E+03  0.19999997155E+01 0.  0.
         13    1    3    3    0    0 -0.10942106584E+02  0.37389536448E+02  0.20711368723E+03  0.21074581309E+03  0.10566000000E+00 0. -1.
         13    1    4    4    0    0  0.17623058623E+00 -0.36444236893E+00  0.97749373085E+00  0.10632654839E+01  0.10566000000E+00 0. -1.
        -13    1    4    4    0    0  0.68093970555E+01 -0.24900725371E+02  0.80831882753E+02  0.84854100936E+02  0.10566000000E+00 0.  1.
        -14    1    4    4    0    0  0.39564789424E+01 -0.12124368708E+02  0.38179142253E+02  0.40252961945E+02  0.00000000000E+00 0.  1.
<mgrwt>
<rscale>  0 0.80725666E+02</rscale>
<asrwt>0</asrwt>
<pdfrwt beam="1">  1        1 0.51078349E-01 0.80725666E+02</pdfrwt>
<pdfrwt beam="2">  1       -2 0.75491790E-03 0.80725666E+02</pdfrwt>
<totfact> 0.17954859E+05</totfact>
</mgrwt>
</event>
<event>
 8    1  0.1241100E-024  0.7979549E+02  0.7818608E-02  0.1329633E+00
          1   -1    0    0  501    0  0.00000000000E+00  0.00000000000E+00  0.21822999455E+02  0.21823000037E+02  0.50400000000E-02 0. -1.
         -2   -1    0    0    0  501 -0.00000000000E+00 -0.00000000000E+00 -0.72942763536E+02  0.72942763580E+02  0.25500000000E-02 0.  1.
        -24    2    1    2    0    0  0.35527136788E-14  0.00000000000E+00 -0.51119764080E+02  0.94765763617E+02  0.79795486554E+02 0.  0.
         66    2    3    3    0    0  0.20977490351E+02  0.11921599747E+02 -0.63274647146E+02  0.67748510087E+02  0.20000013960E+01 0.  0.
         13    1    3    3    0    0 -0.20977490351E+02 -0.11921599747E+02  0.12154883066E+02  0.27017253530E+02  0.10566000000E+00 0. -1.
         13    1    4    4    0    0  0.61090857835E+01  0.34867939921E+01 -0.17237538879E+02  0.18617802558E+02  0.10566000000E+00 0. -1.
        -13    1    4    4    0    0  0.12433534128E+02  0.72261863551E+01 -0.40101287967E+02  0.42602053950E+02  0.10566000000E+00 0.  1.
        -14    1    4    4    0    0  0.24348704396E+01  0.12086193997E+01 -0.59358203001E+01  0.65286535783E+01  0.00000000000E+00 0.  1.
<mgrwt>
<rscale>  0 0.79795487E+02</rscale>
<asrwt>0</asrwt>
<pdfrwt beam="1">  1        1 0.33573846E-02 0.79795487E+02</pdfrwt>
<pdfrwt beam="2">  1       -2 0.11221964E-01 0.79795487E+02</pdfrwt>
<totfact> 0.11469850E+05</totfact>
</mgrwt>
</event>
<event>
 8    1  0.1241100E-024  0.7482232E+02  0.7818608E-02  0.1344422E+00
         -2   -1    0    0    0  501 -0.00000000000E+00  0.00000000000E+00  0.54660641900E+02  0.54660641959E+02  0.25500000000E-02 0.  1.
          1   -1    0    0  501    0  0.00000000000E+00 -0.00000000000E+00 -0.25605164943E+02  0.25605165439E+02  0.50400000000E-02 0. -1.
        -24    2    1    2    0    0  0.00000000000E+00  0.00000000000E+00  0.29055476957E+02  0.80265807398E+02  0.74822316831E+02 0.  0.
         66    2    3    3    0    0 -0.28149989685E+02 -0.14941303873E+02  0.35502792739E+02  0.47750525982E+02  0.19999896497E+01 0.  0.
         13    1    3    3    0    0  0.28149989685E+02  0.14941303873E+02 -0.64473157821E+01  0.32515281415E+02  0.10566000000E+00 0. -1.
         13    1    4    4    0    0 -0.34697978383E+01 -0.25037272649E+01  0.52035966552E+01  0.67377095100E+01  0.10566000000E+00 0. -1.
        -13    1    4    4    0    0 -0.71569128979E+01 -0.36420718412E+01  0.85350553881E+01  0.11719403741E+02  0.10566000000E+00 0.  1.
         14    1    4    4    0    0 -0.17523278949E+02 -0.87955047665E+01  0.21764140696E+02  0.29293412731E+02  0.00000000000E+00 0. -1.
<mgrwt>
<rscale>  0 0.74822317E+02</rscale>
<asrwt>0</asrwt>
<pdfrwt beam="1">  1        1 0.39392562E-02 0.74822317E+02</pdfrwt>
<pdfrwt beam="2">  1       -2 0.84093296E-02 0.74822317E+02</pdfrwt>
<totfact> 0.14253816E+05</totfact>
</mgrwt>
</event>
<event>
 8    1  0.1241100E-024  0.8041313E+02  0.7818608E-02  0.1327883E+00
         -2   -1    0    0    0  501 -0.00000000000E+00  0.00000000000E+00  0.51978882750E+02  0.51978882812E+02  0.25500000000E-02 0.  1.
          1   -1    0    0  501    0  0.00000000000E+00 -0.00000000000E+00 -0.31100475280E+02  0.31100475688E+02  0.50400000000E-02 0. -1.
        -24    2    1    2    0    0  0.71054273576E-14  0.26645352591E-14  0.20878407470E+02  0.83079358501E+02  0.80413132698E+02 0.  0.
         66    2    3    3    0    0  0.33531766307E+02  0.63760669252E+01  0.32350742209E+02  0.47070203977E+02  0.19999999682E+01 0.  0.
         13    1    3    3    0    0 -0.33531766307E+02 -0.63760669252E+01 -0.11472334739E+02  0.36009154523E+02  0.10566000000E+00 0. -1.
         13    1    4    4    0    0  0.16253198806E+01  0.56939540728E+00  0.18520061630E+01  0.25311986701E+01  0.10566000000E+00 0. -1.
        -13    1    4    4    0    0  0.12734987355E+02  0.21678650935E+01  0.13027405695E+02  0.18346770974E+02  0.10566000000E+00 0.  1.
        -14    1    4    4    0    0  0.19171459071E+02  0.36388064245E+01  0.17471330351E+02  0.26192234333E+02  0.00000000000E+00 0.  1.
<mgrwt>
<rscale>  0 0.80413133E+02</rscale>
<asrwt>0</asrwt>
<pdfrwt beam="1">  1        1 0.47846886E-02 0.80413133E+02</pdfrwt>
<pdfrwt beam="2">  1       -2 0.79967512E-02 0.80413133E+02</pdfrwt>
<totfact> 0.11993213E+05</totfact>
</mgrwt>
</event>
<event>
 8    1  0.1241100E-024  0.8043300E+02  0.7818608E-02  0.1327827E+00
          1   -1    0    0  501    0  0.00000000000E+00  0.00000000000E+00  0.84149461943E+01  0.84149477036E+01  0.50400000000E-02 0. -1.
         -2   -1    0    0    0  501 -0.00000000000E+00 -0.00000000000E+00 -0.19220164913E+03  0.19220164915E+03  0.25500000000E-02 0.  1.
        -24    2    1    2    0    0  0.00000000000E+00  0.00000000000E+00 -0.18378670293E+03  0.20061659685E+03  0.80432995443E+02 0.  0.
         66    2    3    3    0    0 -0.94124905886E+01  0.34560278023E+02 -0.13742085523E+03  0.14202640319E+03  0.19999883655E+01 0.  0.
         13    1    3    3    0    0  0.94124905886E+01 -0.34560278023E+02 -0.46365847700E+02  0.58590193660E+02  0.10566000000E+00 0. -1.
         13    1    4    4    0    0 -0.14694313627E+01  0.56945044965E+01 -0.23565434813E+02  0.24288423002E+02  0.10566000000E+00 0. -1.
        -13    1    4    4    0    0 -0.22136186019E+00  0.22891831856E+01 -0.80306812030E+01  0.83541825064E+01  0.10566000000E+00 0.  1.
        -14    1    4    4    0    0 -0.77216973658E+01  0.26576590341E+02 -0.10582473922E+03  0.10938379768E+03  0.00000000000E+00 0.  1.
<mgrwt>
<rscale>  0 0.80432995E+02</rscale>
<asrwt>0</asrwt>
<pdfrwt beam="1">  1        1 0.12946074E-02 0.80432995E+02</pdfrwt>
<pdfrwt beam="2">  1       -2 0.29569481E-01 0.80432995E+02</pdfrwt>
<totfact> 0.85244779E+04</totfact>
</mgrwt>
</event>
<event>
 8    1  0.1241100E-024  0.7999989E+02  0.7818608E-02  0.1329052E+00
         -2   -1    0    0    0  501 -0.00000000000E+00  0.00000000000E+00  0.86485354837E+02  0.86485354875E+02  0.25500000000E-02 0.  1.
          1   -1    0    0  501    0  0.00000000000E+00 -0.00000000000E+00 -0.18500189592E+02  0.18500190278E+02  0.50400000000E-02 0. -1.
        -24    2    1    2    0    0  0.88817841970E-15  0.71054273576E-14  0.67985165245E+02  0.10498554515E+03  0.79999887485E+02 0.  0.
         66    2    3    3    0    0  0.74243622198E+01  0.38636385168E+02  0.43302474449E+02  0.58540547552E+02  0.20000002489E+01 0.  0.
         13    1    3    3    0    0 -0.74243622198E+01 -0.38636385168E+02  0.24682690796E+02  0.46444997601E+02  0.10566000000E+00 0. -1.
         13    1    4    4    0    0  0.29390985982E+01  0.13202632180E+02  0.13952335030E+02  0.19432617268E+02  0.10566000000E+00 0. -1.
        -13    1    4    4    0    0  0.12288537691E+00  0.55444223494E+00  0.51153037623E+00  0.77157913991E+00  0.10566000000E+00 0.  1.
        -14    1    4    4    0    0  0.43623782447E+01  0.24879310753E+02  0.28838609043E+02  0.38336351144E+02  0.00000000000E+00 0.  1.
<mgrwt>
<rscale>  0 0.79999887E+02</rscale>
<asrwt>0</asrwt>
<pdfrwt beam="1">  1        1 0.28461831E-02 0.79999887E+02</pdfrwt>
<pdfrwt beam="2">  1       -2 0.13305439E-01 0.79999887E+02</pdfrwt>
<totfact> 0.10984931E+05</totfact>
</mgrwt>
</event>
<event>
 8    1  0.1241100E-024  0.8331407E+02  0.7818608E-02  0.1319901E+00
         -2   -1    0    0    0  501 -0.00000000000E+00  0.00000000000E+00  0.83113499204E+01  0.83113503116E+01  0.25500000000E-02 0.  1.
          1   -1    0    0  501    0  0.00000000000E+00 -0.00000000000E+00 -0.20878781960E+03  0.20878781966E+03  0.50400000000E-02 0. -1.
        -24    2    1    2    0    0 -0.35527136788E-14  0.17763568394E-14 -0.20047646968E+03  0.21709916997E+03  0.83314072686E+02 0.  0.
         66    2    3    3    0    0  0.30740448166E+02 -0.15222359952E+02 -0.38818560189E+02  0.51841836517E+02  0.20000005837E+01 0.  0.
         13    1    3    3    0    0 -0.30740448166E+02  0.15222359952E+02 -0.16165790949E+03  0.16525733345E+03  0.10566000000E+00 0. -1.
         13    1    4    4    0    0  0.97846811220E+01 -0.54380101954E+01 -0.12321564868E+02  0.16647644409E+02  0.10566000000E+00 0.  1.
        -13    1    4    4    0    0  0.44853034640E+01 -0.22535721943E+01 -0.65367836244E+01  0.82424049274E+01  0.10566000000E+00 0. -1.
        -14    1    4    4    0    0  0.16470463580E+02 -0.75307775618E+01 -0.19960211697E+02  0.26951787180E+02  0.00000000000E+00 0.  1.
<mgrwt>
<rscale>  0 0.83314073E+02</rscale>
<asrwt>0</asrwt>
<pdfrwt beam="1">  1        1 0.32121199E-01 0.83314073E+02</pdfrwt>
<pdfrwt beam="2">  1       -2 0.12786694E-02 0.83314073E+02</pdfrwt>
<totfact> 0.15093809E+05</totfact>
</mgrwt>
</event>
<event>
 8    1  0.1241100E-024  0.8039518E+02  0.7818608E-02  0.1327934E+00
          1   -1    0    0  501    0  0.00000000000E+00  0.00000000000E+00  0.26743849676E+03  0.26743849681E+03  0.50400000000E-02 0. -1.
         -2   -1    0    0    0  501 -0.00000000000E+00 -0.00000000000E+00 -0.60419361645E+01  0.60419367026E+01  0.25500000000E-02 0.  1.
        -24    2    1    2    0    0 -0.71054273576E-14  0.00000000000E+00  0.26139656059E+03  0.27348043351E+03  0.80395184070E+02 0.  0.
         66    2    3    3    0    0 -0.39040650842E+02 -0.65591073162E+01  0.15401212233E+03  0.15903121747E+03  0.19999994774E+01 0.  0.
         13    1    3    3    0    0  0.39040650842E+02  0.65591073162E+01  0.10738443826E+03  0.11444921604E+03  0.10566000000E+00 0. -1.
         13    1    4    4    0    0 -0.14006676711E+02 -0.20458865801E+01  0.52566603845E+02  0.54439247315E+02  0.10566000000E+00 0. -1.
        -13    1    4    4    0    0 -0.67373769941E+01 -0.13259060161E+01  0.25498689638E+02  0.26407283329E+02  0.10566000000E+00 0.  1.
        -14    1    4    4    0    0 -0.18296597136E+02 -0.31873147201E+01  0.75946828852E+02  0.78184686829E+02  0.00000000000E+00 0.  1.
<mgrwt>
<rscale>  0 0.80395184E+02</rscale>
<asrwt>0</asrwt>
<pdfrwt beam="1">  1        1 0.41144387E-01 0.80395184E+02</pdfrwt>
<pdfrwt beam="2">  1       -2 0.92952863E-03 0.80395184E+02</pdfrwt>
<totfact> 0.17417758E+05</totfact>
</mgrwt>
</event>
<event>
 8    1  0.1241100E-024  0.7952869E+02  0.7818608E-02  0.1330394E+00
         -2   -1    0    0    0  501 -0.00000000000E+00  0.00000000000E+00  0.18442434032E+03  0.18442434034E+03  0.25500000000E-02 0.  1.
          1   -1    0    0  501    0  0.00000000000E+00 -0.00000000000E+00 -0.85737223381E+01  0.85737238195E+01  0.50400000000E-02 0. -1.
        -24    2    1    2    0    0  0.00000000000E+00  0.35527136788E-14  0.17585061798E+03  0.19299806416E+03  0.79528692456E+02 0.  0.
         66    2    3    3    0    0 -0.36483597403E+02  0.14891917100E+02  0.10044412368E+03  0.10791591197E+03  0.19999998728E+01 0.  0.
         13    1    3    3    0    0  0.36483597403E+02 -0.14891917100E+02  0.75406494305E+02  0.85082152193E+02  0.10566000000E+00 0. -1.
         13    1    4    4    0    0 -0.28256484280E+01  0.15774620766E+01  0.91786493914E+01  0.97330079794E+01  0.10566000000E+00 0. -1.
        -13    1    4    4    0    0 -0.23758390861E+02  0.91087775747E+01  0.64175170565E+02  0.69035459340E+02  0.10566000000E+00 0.  1.
        -14    1    4    4    0    0 -0.98995581144E+01  0.42056774485E+01  0.27090303722E+02  0.29147444646E+02  0.00000000000E+00 0.  1.
<mgrwt>
<rscale>  0 0.79528692E+02</rscale>
<asrwt>0</asrwt>
<pdfrwt beam="1">  1        1 0.13190344E-02 0.79528692E+02</pdfrwt>
<pdfrwt beam="2">  1       -2 0.28372974E-01 0.79528692E+02</pdfrwt>
<totfact> 0.89185315E+04</totfact>
</mgrwt>
</event>
<event>
 8    1  0.1241100E-024  0.7982037E+02  0.7818608E-02  0.1329562E+00
          1   -1    0    0  501    0  0.00000000000E+00  0.00000000000E+00  0.56042756021E+02  0.56042756248E+02  0.50400000000E-02 0. -1.
         -2   -1    0    0    0  501 -0.00000000000E+00 -0.00000000000E+00 -0.28421563394E+02  0.28421563508E+02  0.25500000000E-02 0.  1.
        -24    2    1    2    0    0  0.00000000000E+00  0.00000000000E+00  0.27621192628E+02  0.84464319756E+02  0.79820367261E+02 0.  0.
         66    2    3    3    0    0  0.34439262544E+02  0.10349056368E+02 -0.44371090971E+01  0.36288478863E+02  0.19999971920E+01 0.  0.
         13    1    3    3    0    0 -0.34439262544E+02 -0.10349056368E+02  0.32058301725E+02  0.48175840893E+02  0.10566000000E+00 0. -1.
         13    1    4    4    0    0  0.10565089511E+01  0.31491575833E+00 -0.13511730975E-01  0.11075783047E+01  0.10566000000E+00 0. -1.
        -13    1    4    4    0    0  0.26147966304E+02  0.71094676835E+01 -0.35241693074E+01  0.27325658381E+02  0.10566000000E+00 0.  1.
        -14    1    4    4    0    0  0.72347872884E+01  0.29246729261E+01 -0.89942805873E+00  0.78552421774E+01  0.00000000000E+00 0.  1.
<mgrwt>
<rscale>  0 0.79820367E+02</rscale>
<asrwt>0</asrwt>
<pdfrwt beam="1">  1        1 0.86219625E-02 0.79820367E+02</pdfrwt>
<pdfrwt beam="2">  1       -2 0.43725482E-02 0.79820367E+02</pdfrwt>
<totfact> 0.13478158E+05</totfact>
</mgrwt>
</event>
<event>
 8    1  0.1241100E-024  0.7959623E+02  0.7818608E-02  0.1330201E+00
         -2   -1    0    0    0  501 -0.00000000000E+00  0.00000000000E+00  0.50358366890E+02  0.50358366955E+02  0.25500000000E-02 0.  1.
          1   -1    0    0  501    0  0.00000000000E+00 -0.00000000000E+00 -0.31452368961E+02  0.31452369365E+02  0.50400000000E-02 0. -1.
        -24    2    1    2    0    0 -0.17763568394E-14 -0.71054273576E-14  0.18905997929E+02  0.81810736320E+02  0.79596229933E+02 0.  0.
         66    2    3    3    0    0  0.93811284235E+01  0.38415315203E+02  0.13836916110E+02  0.41942844889E+02  0.19999943222E+01 0.  0.
         13    1    3    3    0    0 -0.93811284235E+01 -0.38415315203E+02  0.50690818189E+01  0.39867891431E+02  0.10566000000E+00 0. -1.
         13    1    4    4    0    0  0.34478741642E+01  0.16322578029E+02  0.51456716801E+01  0.17458622249E+02  0.10566000000E+00 0. -1.
        -13    1    4    4    0    0  0.46914265531E+01  0.18596846629E+02  0.73023921697E+01  0.20522872194E+02  0.10566000000E+00 0.  1.
         14    1    4    4    0    0  0.12418277062E+01  0.34958905452E+01  0.13888522600E+01  0.39613504460E+01  0.00000000000E+00 0. -1.
<mgrwt>
<rscale>  0 0.79596230E+02</rscale>
<asrwt>0</asrwt>
<pdfrwt beam="1">  1        1 0.48388261E-02 0.79596230E+02</pdfrwt>
<pdfrwt beam="2">  1       -2 0.77474409E-02 0.79596230E+02</pdfrwt>
<totfact> 0.12373522E+05</totfact>
</mgrwt>
</event>
<event>
 8    1  0.1241100E-024  0.7946608E+02  0.7818608E-02  0.1330573E+00
         -2   -1    0    0    0  501 -0.00000000000E+00  0.00000000000E+00  0.40870487600E+02  0.40870487679E+02  0.25500000000E-02 0.  1.
          1   -1    0    0  501    0  0.00000000000E+00 -0.00000000000E+00 -0.38627244643E+02  0.38627244972E+02  0.50400000000E-02 0. -1.
        -24    2    1    2    0    0  0.00000000000E+00  0.00000000000E+00  0.22432429564E+01  0.79497732652E+02  0.79466076774E+02 0.  0.
         66    2    3    3    0    0  0.13665912964E+02 -0.37163109304E+02  0.40993383027E+01  0.39857978310E+02  0.19999975346E+01 0.  0.
         13    1    3    3    0    0 -0.13665912964E+02  0.37163109304E+02 -0.18560953463E+01  0.39639754342E+02  0.10566000000E+00 0. -1.
         13    1    4    4    0    0  0.10191310919E+01 -0.35056146428E+01  0.18192128978E+00  0.36568048345E+01  0.10566000000E+00 0. -1.
        -13    1    4    4    0    0  0.90555782731E+01 -0.23953380364E+02  0.20855167247E+01  0.25692965434E+02  0.10566000000E+00 0.  1.
        -14    1    4    4    0    0  0.35912035992E+01 -0.97041142972E+01  0.18319002881E+01  0.10508208042E+02  0.00000000000E+00 0.  1.
<mgrwt>
<rscale>  0 0.79466077E+02</rscale>
<asrwt>0</asrwt>
<pdfrwt beam="1">  1        1 0.59426531E-02 0.79466077E+02</pdfrwt>
<pdfrwt beam="2">  1       -2 0.62877673E-02 0.79466077E+02</pdfrwt>
<totfact> 0.12866270E+05</totfact>
</mgrwt>
</event>
<event>
 8    1  0.1241100E-024  0.7945039E+02  0.7818608E-02  0.1330618E+00
          1   -1    0    0  501    0  0.00000000000E+00  0.00000000000E+00  0.83911360607E+02  0.83911360758E+02  0.50400000000E-02 0. -1.
         -2   -1    0    0    0  501 -0.00000000000E+00 -0.00000000000E+00 -0.18806645041E+02  0.18806645214E+02  0.25500000000E-02 0.  1.
        -24    2    1    2    0    0  0.00000000000E+00  0.00000000000E+00  0.65104715565E+02  0.10271800597E+03  0.79450391831E+02 0.  0.
         66    2    3    3    0    0  0.25595890210E+02  0.11902356289E+02 -0.35177195070E+01  0.28516486849E+02  0.19999977104E+01 0.  0.
         13    1    3    3    0    0 -0.25595890210E+02 -0.11902356289E+02  0.68622435072E+02  0.74201519123E+02  0.10566000000E+00 0. -1.
         13    1    4    4    0    0  0.18483959879E+02  0.89644145228E+01 -0.29661108526E+01  0.20756359945E+02  0.10566000000E+00 0. -1.
        -13    1    4    4    0    0  0.60050671070E+01  0.23545790351E+01 -0.74560275150E+00  0.64939942171E+01  0.10566000000E+00 0.  1.
         14    1    4    4    0    0  0.11068632235E+01  0.58336273076E+00  0.19399409702E+00  0.12661326869E+01  0.00000000000E+00 0. -1.
<mgrwt>
<rscale>  0 0.79450392E+02</rscale>
<asrwt>0</asrwt>
<pdfrwt beam="1">  1        1 0.12909440E-01 0.79450392E+02</pdfrwt>
<pdfrwt beam="2">  1       -2 0.28933301E-02 0.79450392E+02</pdfrwt>
<totfact> 0.14549261E+05</totfact>
</mgrwt>
</event>
<event>
 8    1  0.1241100E-024  0.7677529E+02  0.7818608E-02  0.1338460E+00
         -2   -1    0    0    0  501 -0.00000000000E+00  0.00000000000E+00  0.66550929337E+01  0.66550934223E+01  0.25500000000E-02 0.  1.
          1   -1    0    0  501    0  0.00000000000E+00 -0.00000000000E+00 -0.22142606681E+03  0.22142606686E+03  0.50400000000E-02 0. -1.
        -24    2    1    2    0    0  0.00000000000E+00  0.00000000000E+00 -0.21477097387E+03  0.22808116028E+03  0.76775285471E+02 0.  0.
         66    2    3    3    0    0 -0.18192613749E+02 -0.32301354443E+02 -0.13675558722E+03  0.14170546687E+03  0.20000030177E+01 0.  0.
         13    1    3    3    0    0  0.18192613749E+02  0.32301354443E+02 -0.78015386651E+02  0.86375693411E+02  0.10566000000E+00 0. -1.
         13    1    4    4    0    0 -0.69128068940E+01 -0.12662277315E+02 -0.56339457480E+02  0.58157250615E+02  0.10566000000E+00 0.  1.
        -13    1    4    4    0    0 -0.53958051887E+01 -0.10157042246E+02 -0.41101935741E+02  0.42680915015E+02  0.10566000000E+00 0. -1.
        -14    1    4    4    0    0 -0.58840016664E+01 -0.94820348820E+01 -0.39314193999E+02  0.40867301243E+02  0.00000000000E+00 0.  1.
<mgrwt>
<rscale>  0 0.76775285E+02</rscale>
<asrwt>0</asrwt>
<pdfrwt beam="1">  1        1 0.34065543E-01 0.76775285E+02</pdfrwt>
<pdfrwt beam="2">  1       -2 0.10238607E-02 0.76775285E+02</pdfrwt>
<totfact> 0.18962173E+05</totfact>
</mgrwt>
</event>
<event>
 8    1  0.1241100E-024  0.7897669E+02  0.7818608E-02  0.1331981E+00
         -2   -1    0    0    0  501 -0.00000000000E+00  0.00000000000E+00  0.78279501321E+02  0.78279501362E+02  0.25500000000E-02 0.  1.
          1   -1    0    0  501    0  0.00000000000E+00 -0.00000000000E+00 -0.19920021269E+02  0.19920021906E+02  0.50400000000E-02 0. -1.
        -24    2    1    2    0    0 -0.17763568394E-14  0.88817841970E-15  0.58359480052E+02  0.98199523268E+02  0.78976689334E+02 0.  0.
         66    2    3    3    0    0 -0.15328491878E+02 -0.51500378502E+01  0.73957975990E+02  0.75731550670E+02  0.20000003238E+01 0.  0.
         13    1    3    3    0    0  0.15328491878E+02  0.51500378502E+01 -0.15598495938E+02  0.22467972598E+02  0.10566000000E+00 0. -1.
         13    1    4    4    0    0 -0.10530274430E+01 -0.38644976031E+00  0.34152839335E+01  0.35963229269E+01  0.10566000000E+00 0. -1.
        -13    1    4    4    0    0 -0.23187627298E+01 -0.47604295585E+00  0.10655552420E+02  0.10915825160E+02  0.10566000000E+00 0.  1.
        -14    1    4    4    0    0 -0.11956701705E+02 -0.42875451341E+01  0.59887139636E+02  0.61219402584E+02  0.00000000000E+00 0.  1.
<mgrwt>
<rscale>  0 0.78976689E+02</rscale>
<asrwt>0</asrwt>
<pdfrwt beam="1">  1        1 0.30646187E-02 0.78976689E+02</pdfrwt>
<pdfrwt beam="2">  1       -2 0.12043000E-01 0.78976689E+02</pdfrwt>
<totfact> 0.11602522E+05</totfact>
</mgrwt>
</event>
<event>
 8    1  0.1241100E-024  0.8094402E+02  0.7818608E-02  0.1326394E+00
          1   -1    0    0  501    0  0.00000000000E+00  0.00000000000E+00  0.16494397279E+02  0.16494398049E+02  0.50400000000E-02 0. -1.
         -2   -1    0    0    0  501 -0.00000000000E+00 -0.00000000000E+00 -0.99305440261E+02  0.99305440294E+02  0.25500000000E-02 0.  1.
        -24    2    1    2    0    0  0.00000000000E+00  0.00000000000E+00 -0.82811042982E+02  0.11579983834E+03  0.80944015964E+02 0.  0.
         66    2    3    3    0    0 -0.11726533102E+02  0.24721116304E+02 -0.84046131546E+02  0.88410391877E+02  0.19999985036E+01 0.  0.
         13    1    3    3    0    0  0.11726533102E+02 -0.24721116304E+02  0.12350885642E+01  0.27389446466E+02  0.10566000000E+00 0. -1.
         13    1    4    4    0    0 -0.31054669662E+00  0.13436875249E+01 -0.34658455348E+01  0.37316463822E+01  0.10566000000E+00 0. -1.
        -13    1    4    4    0    0 -0.74633763804E+01  0.14794497838E+02 -0.50511905948E+02  0.53160539499E+02  0.10566000000E+00 0.  1.
        -14    1    4    4    0    0 -0.39526100250E+01  0.85829309415E+01 -0.30068380064E+02  0.31518205996E+02  0.00000000000E+00 0.  1.
<mgrwt>
<rscale>  0 0.80944016E+02</rscale>
<asrwt>0</asrwt>
<pdfrwt beam="1">  1        1 0.25375997E-02 0.80944016E+02</pdfrwt>
<pdfrwt beam="2">  1       -2 0.15277760E-01 0.80944016E+02</pdfrwt>
<totfact> 0.10316629E+05</totfact>
</mgrwt>
</event>
<event>
 8    1  0.1241100E-024  0.8310270E+02  0.7818608E-02  0.1320470E+00
         -2   -1    0    0    0  501 -0.00000000000E+00  0.00000000000E+00  0.34495130147E+02  0.34495130241E+02  0.25500000000E-02 0.  1.
          1   -1    0    0  501    0  0.00000000000E+00 -0.00000000000E+00 -0.50050973989E+02  0.50050974243E+02  0.50400000000E-02 0. -1.
        -24    2    1    2    0    0  0.35527136788E-14  0.35527136788E-14 -0.15555843842E+02  0.84546104484E+02  0.83102704563E+02 0.  0.
         66    2    3    3    0    0 -0.28068417623E+02 -0.25199442264E+02  0.98876726144E+01  0.39046306111E+02  0.19999982147E+01 0.  0.
         13    1    3    3    0    0  0.28068417623E+02  0.25199442264E+02 -0.25443516457E+02  0.45499798373E+02  0.10566000000E+00 0. -1.
         13    1    4    4    0    0 -0.42061383279E+01 -0.30156621528E+01  0.13810453965E+01  0.53576364449E+01  0.10566000000E+00 0. -1.
        -13    1    4    4    0    0 -0.93057297310E+01 -0.91145870044E+01  0.30330615565E+01  0.13374712278E+02  0.10566000000E+00 0.  1.
         14    1    4    4    0    0 -0.14556549565E+02 -0.13069193107E+02  0.54735656614E+01  0.20313957387E+02  0.00000000000E+00 0. -1.
<mgrwt>
<rscale>  0 0.83102705E+02</rscale>
<asrwt>0</asrwt>
<pdfrwt beam="1">  1        1 0.77001499E-02 0.83102705E+02</pdfrwt>
<pdfrwt beam="2">  1       -2 0.53069431E-02 0.83102705E+02</pdfrwt>
<totfact> 0.11833531E+05</totfact>
</mgrwt>
</event>
<event>
 8    1  0.1241100E-024  0.8026892E+02  0.7818608E-02  0.1328290E+00
          1   -1    0    0  501    0  0.00000000000E+00  0.00000000000E+00  0.36268218708E+02  0.36268219058E+02  0.50400000000E-02 0. -1.
         -2   -1    0    0    0  501 -0.00000000000E+00 -0.00000000000E+00 -0.44412845059E+02  0.44412845132E+02  0.25500000000E-02 0.  1.
        -24    2    1    2    0    0  0.00000000000E+00  0.35527136788E-14 -0.81446263506E+01  0.80681064190E+02  0.80268917898E+02 0.  0.
         66    2    3    3    0    0  0.13814574416E+02  0.24712733646E+02 -0.32632123597E+02  0.43248319755E+02  0.20000001518E+01 0.  0.
         13    1    3    3    0    0 -0.13814574416E+02 -0.24712733646E+02  0.24487497246E+02  0.37432744435E+02  0.10566000000E+00 0. -1.
         13    1    4    4    0    0  0.78196646348E+00  0.16827342061E+01 -0.27185107261E+01  0.32931034849E+01  0.10566000000E+00 0. -1.
        -13    1    4    4    0    0  0.10158155938E+02  0.16969979429E+02 -0.22560883703E+02  0.30002882718E+02  0.10566000000E+00 0.  1.
        -14    1    4    4    0    0  0.28744520140E+01  0.60600200108E+01 -0.73527291680E+01  0.99523335520E+01  0.00000000000E+00 0.  1.
<mgrwt>
<rscale>  0 0.80268918E+02</rscale>
<asrwt>0</asrwt>
<pdfrwt beam="1">  1        1 0.55797260E-02 0.80268918E+02</pdfrwt>
<pdfrwt beam="2">  1       -2 0.68327454E-02 0.80268918E+02</pdfrwt>
<totfact> 0.12376325E+05</totfact>
</mgrwt>
</event>
<event>
 8    1  0.1241100E-024  0.7933555E+02  0.7818608E-02  0.1330948E+00
          1   -1    0    0  501    0  0.00000000000E+00  0.00000000000E+00  0.17922462421E+02  0.17922463130E+02  0.50400000000E-02 0. -1.
         -2   -1    0    0    0  501 -0.00000000000E+00 -0.00000000000E+00 -0.87796667610E+02  0.87796667647E+02  0.25500000000E-02 0.  1.
        -24    2    1    2    0    0 -0.17763568394E-14 -0.17763568394E-14 -0.69874205189E+02  0.10571913078E+03  0.79335553578E+02 0.  0.
         66    2    3    3    0    0  0.59006246314E+01  0.10162915369E+02 -0.85410648797E+02  0.86238513130E+02  0.19999997830E+01 0.  0.
         13    1    3    3    0    0 -0.59006246314E+01 -0.10162915369E+02  0.15536443609E+02  0.19480617646E+02  0.10566000000E+00 0. -1.
         13    1    4    4    0    0  0.13634879773E+01  0.13476308260E+01 -0.14561817872E+02  0.14687849130E+02  0.10566000000E+00 0. -1.
        -13    1    4    4    0    0  0.16523692341E+01  0.33184727141E+01 -0.31030377133E+02  0.31251208846E+02  0.10566000000E+00 0.  1.
         14    1    4    4    0    0  0.28847674200E+01  0.54968118294E+01 -0.39818453792E+02  0.40299455154E+02  0.00000000000E+00 0. -1.
<mgrwt>
<rscale>  0 0.79335554E+02</rscale>
<asrwt>0</asrwt>
<pdfrwt beam="1">  1        1 0.27573020E-02 0.79335554E+02</pdfrwt>
<pdfrwt beam="2">  1       -2 0.13507179E-01 0.79335554E+02</pdfrwt>
<totfact> 0.11182851E+05</totfact>
</mgrwt>
</event>
<event>
 8    1  0.1241100E-024  0.7391859E+02  0.7818608E-02  0.1347253E+00
         -2   -1    0    0    0  501 -0.00000000000E+00  0.00000000000E+00  0.28997355407E+02  0.28997355519E+02  0.25500000000E-02 0.  1.
          1   -1    0    0  501    0  0.00000000000E+00 -0.00000000000E+00 -0.47107382818E+02  0.47107383088E+02  0.50400000000E-02 0. -1.
        -24    2    1    2    0    0  0.00000000000E+00  0.88817841970E-15 -0.18110027412E+02  0.76104738607E+02  0.73918591339E+02 0.  0.
         66    2    3    3    0    0  0.36268681868E+02 -0.67572379425E+01 -0.10817082040E+02  0.38497880652E+02  0.20000004415E+01 0.  0.
         13    1    3    3    0    0 -0.36268681868E+02  0.67572379425E+01 -0.72929453717E+01  0.37606857955E+02  0.10566000000E+00 0. -1.
         13    1    4    4    0    0  0.55537548859E+01 -0.14855563436E+01 -0.17968090171E+01  0.60241810781E+01  0.10566000000E+00 0.  1.
        -13    1    4    4    0    0  0.43338470995E+01 -0.11842769302E+01 -0.10784484138E+01  0.46215752235E+01  0.10566000000E+00 0.  1.
         14    1    4    4    0    0  0.26381079882E+02 -0.40874046687E+01 -0.79418246092E+01  0.27852124350E+02  0.00000000000E+00 0. -1.
<mgrwt>
<rscale>  0 0.73918591E+02</rscale>
<asrwt>0</asrwt>
<pdfrwt beam="1">  1        1 0.72472897E-02 0.73918591E+02</pdfrwt>
<pdfrwt beam="2">  1       -2 0.44611316E-02 0.73918591E+02</pdfrwt>
<totfact> 0.16225165E+05</totfact>
</mgrwt>
</event>
<event>
 8    1  0.1241100E-024  0.7936413E+02  0.7818608E-02  0.1330866E+00
         -2   -1    0    0    0  501 -0.00000000000E+00  0.00000000000E+00  0.64837473367E+01  0.64837478381E+01  0.25500000000E-02 0.  1.
          1   -1    0    0  501    0  0.00000000000E+00 -0.00000000000E+00 -0.24286357256E+03  0.24286357261E+03  0.50400000000E-02 0. -1.
        -24    2    1    2    0    0 -0.71054273576E-14  0.35527136788E-14 -0.23637982523E+03  0.24934732045E+03  0.79364125669E+02 0.  0.
         66    2    3    3    0    0 -0.33775094658E+02  0.19807214198E+02 -0.13803034246E+03  0.14349027213E+03  0.20000013319E+01 0.  0.
         13    1    3    3    0    0  0.33775094658E+02 -0.19807214198E+02 -0.98349482770E+02  0.10585704832E+03  0.10566000000E+00 0. -1.
         13    1    4    4    0    0 -0.26820478693E+01  0.12521246637E+01 -0.93894976941E+01  0.98455587922E+01  0.10566000000E+00 0. -1.
        -13    1    4    4    0    0 -0.22573172166E+02  0.12860041222E+02 -0.92179687532E+02  0.95770740413E+02  0.10566000000E+00 0.  1.
        -14    1    4    4    0    0 -0.85198746228E+01  0.56950483130E+01 -0.36461157229E+02  0.37873972928E+02  0.00000000000E+00 0.  1.
<mgrwt>
<rscale>  0 0.79364126E+02</rscale>
<asrwt>0</asrwt>
<pdfrwt beam="1">  1        1 0.37363620E-01 0.79364126E+02</pdfrwt>
<pdfrwt beam="2">  1       -2 0.99749982E-03 0.79364126E+02</pdfrwt>
<totfact> 0.17686588E+05</totfact>
</mgrwt>
</event>
<event>
 8    1  0.1241100E-024  0.7641503E+02  0.7818608E-02  0.1339544E+00
         -2   -1    0    0    0  501 -0.00000000000E+00  0.00000000000E+00  0.13494142691E+02  0.13494142932E+02  0.25500000000E-02 0.  1.
          1   -1    0    0  501    0  0.00000000000E+00 -0.00000000000E+00 -0.10818132253E+03  0.10818132265E+03  0.50400000000E-02 0. -1.
        -24    2    1    2    0    0  0.00000000000E+00 -0.35527136788E-14 -0.94687179839E+02  0.12167546558E+03  0.76415030576E+02 0.  0.
         66    2    3    3    0    0 -0.20425658343E+02  0.30500125844E+02 -0.30649670580E+02  0.47863007609E+02  0.19999988801E+01 0.  0.
         13    1    3    3    0    0  0.20425658343E+02 -0.30500125844E+02 -0.64037509259E+02  0.73812457969E+02  0.10566000000E+00 0. -1.
         13    1    4    4    0    0 -0.42379974217E+01  0.56735689878E+01 -0.64048131358E+01  0.95489686640E+01  0.10566000000E+00 0.  1.
        -13    1    4    4    0    0 -0.37707696934E+00  0.46008475816E+00 -0.68977021077E+00  0.91695801690E+00  0.10566000000E+00 0.  1.
        -14    1    4    4    0    0 -0.15810583952E+02  0.24366472098E+02 -0.23555087233E+02  0.37397080929E+02  0.00000000000E+00 0.  1.
<mgrwt>
<rscale>  0 0.76415031E+02</rscale>
<asrwt>0</asrwt>
<pdfrwt beam="1">  1        1 0.16643280E-01 0.76415031E+02</pdfrwt>
<pdfrwt beam="2">  1       -2 0.20760220E-02 0.76415031E+02</pdfrwt>
<totfact> 0.16850365E+05</totfact>
</mgrwt>
</event>
<event>
 8    1  0.1241100E-024  0.8378840E+02  0.7818608E-02  0.1318632E+00
         -2   -1    0    0    0  501 -0.00000000000E+00  0.00000000000E+00  0.51989976625E+03  0.51989976625E+03  0.25500000000E-02 0.  1.
          1   -1    0    0  501    0  0.00000000000E+00 -0.00000000000E+00 -0.33758875201E+01  0.33758912823E+01  0.50400000000E-02 0. -1.
        -24    2    1    2    0    0  0.35527136788E-14  0.00000000000E+00  0.51652387873E+03  0.52327565754E+03  0.83788402982E+02 0.  0.
         66    2    3    3    0    0 -0.21309790224E+02 -0.10828881911E+02  0.47309724510E+03  0.47370494526E+03  0.20000011720E+01 0.  0.
         13    1    3    3    0    0  0.21309790224E+02  0.10828881911E+02  0.43426633631E+02  0.49570712275E+02  0.10566000000E+00 0. -1.
         13    1    4    4    0    0 -0.38771312097E+01 -0.23795182508E+01  0.89530274066E+02  0.89645833098E+02  0.10566000000E+00 0. -1.
        -13    1    4    4    0    0 -0.64391701415E+01 -0.39534508430E+01  0.14611066597E+03  0.14630594848E+03  0.10566000000E+00 0.  1.
        -14    1    4    4    0    0 -0.10993488873E+02 -0.44959128171E+01  0.23745630506E+03  0.23775316369E+03  0.00000000000E+00 0.  1.
<mgrwt>
<rscale>  0 0.83788403E+02</rscale>
<asrwt>0</asrwt>
<pdfrwt beam="1">  1        1 0.51936824E-03 0.83788403E+02</pdfrwt>
<pdfrwt beam="2">  1       -2 0.79984481E-01 0.83788403E+02</pdfrwt>
<totfact> 0.43367223E+04</totfact>
</mgrwt>
</event>
<event>
 8    1  0.1241100E-024  0.8096004E+02  0.7818608E-02  0.1326349E+00
         -2   -1    0    0    0  501 -0.00000000000E+00  0.00000000000E+00  0.10295597185E+02  0.10295597500E+02  0.25500000000E-02 0.  1.
          1   -1    0    0  501    0  0.00000000000E+00 -0.00000000000E+00 -0.15915852544E+03  0.15915852552E+03  0.50400000000E-02 0. -1.
        -24    2    1    2    0    0  0.00000000000E+00  0.00000000000E+00 -0.14886292826E+03  0.16945412302E+03  0.80960041995E+02 0.  0.
         66    2    3    3    0    0 -0.11584433470E+02  0.38217661876E+02 -0.88015201085E+02  0.96671942208E+02  0.20000025204E+01 0.  0.
         13    1    3    3    0    0  0.11584433470E+02 -0.38217661876E+02 -0.60847727172E+02  0.72782180814E+02  0.10566000000E+00 0. -1.
         13    1    4    4    0    0 -0.81809376864E+01  0.23889469085E+02 -0.56063613799E+02  0.61488002333E+02  0.10566000000E+00 0.  1.
        -13    1    4    4    0    0 -0.10455082013E+01  0.48674493805E+01 -0.11028400034E+02  0.12100492644E+02  0.10566000000E+00 0. -1.
        -14    1    4    4    0    0 -0.23579875819E+01  0.94607434098E+01 -0.20923187252E+02  0.23083447231E+02  0.00000000000E+00 0.  1.
<mgrwt>
<rscale>  0 0.80960042E+02</rscale>
<asrwt>0</asrwt>
<pdfrwt beam="1">  1        1 0.24485925E-01 0.80960042E+02</pdfrwt>
<pdfrwt beam="2">  1       -2 0.15839382E-02 0.80960042E+02</pdfrwt>
<totfact> 0.15462613E+05</totfact>
</mgrwt>
</event>
<event>
 8    1  0.1241100E-024  0.7814568E+02  0.7818608E-02  0.1334398E+00
          1   -1    0    0  501    0  0.00000000000E+00  0.00000000000E+00  0.46125207638E+02  0.46125207914E+02  0.50400000000E-02 0. -1.
         -2   -1    0    0    0  501 -0.00000000000E+00 -0.00000000000E+00 -0.33098754113E+02  0.33098754212E+02  0.25500000000E-02 0.  1.
        -24    2    1    2    0    0  0.00000000000E+00  0.17763568394E-14  0.13026453525E+02  0.79223962125E+02  0.78145682436E+02 0.  0.
         66    2    3    3    0    0 -0.27385570029E+02 -0.80534587935E+01 -0.20493241024E+02  0.35196598690E+02  0.19999968441E+01 0.  0.
         13    1    3    3    0    0  0.27385570029E+02  0.80534587935E+01  0.33519694549E+02  0.44027363435E+02  0.10566000000E+00 0. -1.
         13    1    4    4    0    0 -0.22829455650E+01 -0.85917378688E+00 -0.13636143590E+01  0.27965386113E+01  0.10566000000E+00 0. -1.
        -13    1    4    4    0    0 -0.20695937870E+02 -0.60592446470E+01 -0.15148212597E+02  0.26353667656E+02  0.10566000000E+00 0.  1.
         14    1    4    4    0    0 -0.44066865938E+01 -0.11350403597E+01 -0.39814140676E+01  0.60463924229E+01  0.00000000000E+00 0. -1.
<mgrwt>
<rscale>  0 0.78145682E+02</rscale>
<asrwt>0</asrwt>
<pdfrwt beam="1">  1        1 0.70961858E-02 0.78145682E+02</pdfrwt>
<pdfrwt beam="2">  1       -2 0.50921160E-02 0.78145682E+02</pdfrwt>
<totfact> 0.13868439E+05</totfact>
</mgrwt>
</event>
<event>
 8    1  0.1269233E-024  0.7943492E+02  0.7818608E-02  0.1330663E+00
         -2   -1    0    0    0  501 -0.00000000000E+00  0.00000000000E+00  0.13504768838E+03  0.13504768841E+03  0.25500000000E-02 0.  1.
          1   -1    0    0  501    0  0.00000000000E+00 -0.00000000000E+00 -0.11680885555E+02  0.11680886643E+02  0.50400000000E-02 0. -1.
        -24    2    1    2    0    0  0.00000000000E+00 -0.88817841970E-15  0.12336680283E+03  0.14672857505E+03  0.79434921138E+02 0.  0.
         66    2    3    3    0    0  0.14936361738E+02 -0.64330600537E+01  0.12860348519E+03  0.12964310842E+03  0.19999986937E+01 0.  0.
         13    1    3    3    0    0 -0.14936361738E+02  0.64330600537E+01 -0.52366823635E+01  0.17085466626E+02  0.10566000000E+00 0. -1.
         13    1    4    4    0    0  0.81693860739E+01 -0.41307752591E+01  0.67861309828E+02  0.68476059383E+02  0.10566000000E+00 0. -1.
        -13    1    4    4    0    0  0.52054539331E+01 -0.21288938130E+01  0.47082664653E+02  0.47417480051E+02  0.10566000000E+00 0.  1.
         14    1    4    4    0    0  0.15615217310E+01 -0.17339098158E+00  0.13659510709E+02  0.13749568988E+02  0.00000000000E+00 0. -1.
<mgrwt>
<rscale>  0 0.79434921E+02</rscale>
<asrwt>0</asrwt>
<pdfrwt beam="1">  1        1 0.17970594E-02 0.79434921E+02</pdfrwt>
<pdfrwt beam="2">  1       -2 0.20776568E-01 0.79434921E+02</pdfrwt>
<totfact> 0.99502564E+04</totfact>
</mgrwt>
</event>
<event>
 8    1  0.1241100E-024  0.7072408E+02  0.7818608E-02  0.1357648E+00
         -2   -1    0    0    0  501 -0.00000000000E+00  0.00000000000E+00  0.17662753427E+01  0.17662771834E+01  0.25500000000E-02 0.  1.
          1   -1    0    0  501    0  0.00000000000E+00 -0.00000000000E+00 -0.70797187367E+03  0.70797187369E+03  0.50400000000E-02 0. -1.
        -24    2    1    2    0    0  0.00000000000E+00  0.00000000000E+00 -0.70620559833E+03  0.70973815087E+03  0.70724081425E+02 0.  0.
         66    2    3    3    0    0 -0.26863879054E+02 -0.11727371493E+02 -0.55138030848E+03  0.55216251576E+03  0.19999981401E+01 0.  0.
         13    1    3    3    0    0  0.26863879054E+02  0.11727371493E+02 -0.15482528985E+03  0.15757563511E+03  0.10566000000E+00 0. -1.
         13    1    4    4    0    0 -0.51938836457E+01 -0.16537505556E+01 -0.10922123682E+03  0.10935721766E+03  0.10566000000E+00 0. -1.
        -13    1    4    4    0    0 -0.18147703982E+02 -0.85257721012E+01 -0.36484609459E+03  0.36539665002E+03  0.10566000000E+00 0.  1.
        -14    1    4    4    0    0 -0.35222914264E+01 -0.15478488363E+01 -0.77312977076E+02  0.77408648078E+02  0.00000000000E+00 0.  1.
<mgrwt>
<rscale>  0 0.70724081E+02</rscale>
<asrwt>0</asrwt>
<pdfrwt beam="1">  1        1 0.10891852E+00 0.70724081E+02</pdfrwt>
<pdfrwt beam="2">  1       -2 0.27173537E-03 0.70724081E+02</pdfrwt>
<totfact> 0.27567964E+05</totfact>
</mgrwt>
</event>
<event>
 8    1  0.1241100E-024  0.7852940E+02  0.7818608E-02  0.1333277E+00
         -2   -1    0    0    0  501 -0.00000000000E+00  0.00000000000E+00  0.55027240631E+01  0.55027246539E+01  0.25500000000E-02 0.  1.
          1   -1    0    0  501    0  0.00000000000E+00 -0.00000000000E+00 -0.28017330388E+03  0.28017330393E+03  0.50400000000E-02 0. -1.
        -24    2    1    2    0    0  0.17763568394E-14  0.71054273576E-14 -0.27467057982E+03  0.28567602858E+03  0.78529395056E+02 0.  0.
         66    2    3    3    0    0  0.12972110791E+02  0.34370312582E+02 -0.87264691875E+02  0.94703328842E+02  0.20000001267E+01 0.  0.
         13    1    3    3    0    0 -0.12972110791E+02 -0.34370312582E+02 -0.18740588794E+03  0.19097269974E+03  0.10566000000E+00 0. -1.
         13    1    4    4    0    0  0.20469884509E+01  0.51325527825E+01 -0.14729215603E+02  0.15731948897E+02  0.10566000000E+00 0. -1.
        -13    1    4    4    0    0  0.92750176877E+01  0.25670311342E+02 -0.63192035206E+02  0.68834840851E+02  0.10566000000E+00 0.  1.
        -14    1    4    4    0    0  0.16501046524E+01  0.35674484568E+01 -0.93434410654E+01  0.10136539094E+02  0.00000000000E+00 0.  1.
<mgrwt>
<rscale>  0 0.78529395E+02</rscale>
<asrwt>0</asrwt>
<pdfrwt beam="1">  1        1 0.43103575E-01 0.78529395E+02</pdfrwt>
<pdfrwt beam="2">  1       -2 0.84657319E-03 0.78529395E+02</pdfrwt>
<totfact> 0.18698905E+05</totfact>
</mgrwt>
</event>
<event>
 8    1  0.1241100E-024  0.7532511E+02  0.7818608E-02  0.1342867E+00
          1   -1    0    0  501    0  0.00000000000E+00  0.00000000000E+00  0.86566972984E+02  0.86566973130E+02  0.50400000000E-02 0. -1.
         -2   -1    0    0    0  501 -0.00000000000E+00 -0.00000000000E+00 -0.16385787486E+02  0.16385787685E+02  0.25500000000E-02 0.  1.
        -24    2    1    2    0    0 -0.71054273576E-14  0.00000000000E+00  0.70181185497E+02  0.10295276082E+03  0.75325109769E+02 0.  0.
         66    2    3    3    0    0  0.32592506036E+02 -0.18767144141E+02  0.33189124270E+02  0.50199553265E+02  0.20000073361E+01 0.  0.
         13    1    3    3    0    0 -0.32592506036E+02  0.18767144141E+02  0.36992061228E+02  0.52753207550E+02  0.10566000000E+00 0. -1.
         13    1    4    4    0    0  0.99295136706E+01 -0.55010581303E+01  0.11060555367E+02  0.15849414228E+02  0.10566000000E+00 0. -1.
        -13    1    4    4    0    0  0.16677693821E+02 -0.94351749357E+01  0.16424042475E+02  0.25237439104E+02  0.10566000000E+00 0.  1.
         14    1    4    4    0    0  0.59852985438E+01 -0.38309110751E+01  0.57045264267E+01  0.91126999334E+01  0.00000000000E+00 0. -1.
<mgrwt>
<rscale>  0 0.75325110E+02</rscale>
<asrwt>0</asrwt>
<pdfrwt beam="1">  1        1 0.13317996E-01 0.75325110E+02</pdfrwt>
<pdfrwt beam="2">  1       -2 0.25208904E-02 0.75325110E+02</pdfrwt>
<totfact> 0.16889970E+05</totfact>
</mgrwt>
</event>
<event>
 8    1  0.1241100E-024  0.7933815E+02  0.7818608E-02  0.1330940E+00
          1   -1    0    0  501    0  0.00000000000E+00  0.00000000000E+00  0.92809608153E+02  0.92809608289E+02  0.50400000000E-02 0. -1.
         -2   -1    0    0    0  501 -0.00000000000E+00 -0.00000000000E+00 -0.16955525592E+02  0.16955525784E+02  0.25500000000E-02 0.  1.
        -24    2    1    2    0    0 -0.17763568394E-14  0.22204460493E-15  0.75854082560E+02  0.10976513407E+03  0.79338154863E+02 0.  0.
         66    2    3    3    0    0  0.15543483460E+02  0.15067997101E+01 -0.12461882028E+02  0.20079064426E+02  0.20000002799E+01 0.  0.
         13    1    3    3    0    0 -0.15543483460E+02 -0.15067997101E+01  0.88315964589E+02  0.89686069647E+02  0.10566000000E+00 0. -1.
         13    1    4    4    0    0  0.83120402639E+00  0.43363625944E+00 -0.46561424509E+00  0.10520937220E+01  0.10566000000E+00 0. -1.
        -13    1    4    4    0    0  0.11090037457E+02  0.54924500099E+00 -0.88142783136E+01  0.14177209426E+02  0.10566000000E+00 0.  1.
         14    1    4    4    0    0  0.36222419761E+01  0.52391844963E+00 -0.31819894698E+01  0.48497612788E+01  0.00000000000E+00 0. -1.
<mgrwt>
<rscale>  0 0.79338155E+02</rscale>
<asrwt>0</asrwt>
<pdfrwt beam="1">  1        1 0.14278401E-01 0.79338155E+02</pdfrwt>
<pdfrwt beam="2">  1       -2 0.26085425E-02 0.79338155E+02</pdfrwt>
<totfact> 0.14847466E+05</totfact>
</mgrwt>
</event>
<event>
 8    1  0.1241100E-024  0.7693456E+02  0.7818608E-02  0.1337983E+00
          1   -1    0    0  501    0  0.00000000000E+00  0.00000000000E+00  0.13574195565E+03  0.13574195575E+03  0.50400000000E-02 0. -1.
         -2   -1    0    0    0  501 -0.00000000000E+00 -0.00000000000E+00 -0.10901063809E+02  0.10901064107E+02  0.25500000000E-02 0.  1.
        -24    2    1    2    0    0  0.00000000000E+00 -0.35527136788E-14  0.12484089184E+03  0.14664301985E+03  0.76934563073E+02 0.  0.
         66    2    3    3    0    0  0.23767410798E+02 -0.22909142174E+02  0.24916797087E+02  0.41407310666E+02  0.19999970783E+01 0.  0.
         13    1    3    3    0    0 -0.23767410798E+02  0.22909142174E+02  0.99924094756E+02  0.10523570919E+03  0.10566000000E+00 0. -1.
         13    1    4    4    0    0  0.87625272409E+00 -0.13656735026E+01  0.13420582819E+01  0.21083565685E+01  0.10566000000E+00 0. -1.
        -13    1    4    4    0    0  0.18221033763E+02 -0.16797747478E+02  0.18413220645E+02  0.30874394736E+02  0.10566000000E+00 0.  1.
         14    1    4    4    0    0  0.46701243109E+01 -0.47457211927E+01  0.51615181595E+01  0.84245593611E+01  0.00000000000E+00 0. -1.
<mgrwt>
<rscale>  0 0.76934563E+02</rscale>
<asrwt>0</asrwt>
<pdfrwt beam="1">  1        1 0.20883378E-01 0.76934563E+02</pdfrwt>
<pdfrwt beam="2">  1       -2 0.16770868E-02 0.76934563E+02</pdfrwt>
<totfact> 0.17209369E+05</totfact>
</mgrwt>
</event>
<event>
 8    1  0.1241100E-024  0.7914362E+02  0.7818608E-02  0.1331499E+00
          1   -1    0    0  501    0  0.00000000000E+00  0.00000000000E+00  0.51480041314E+01  0.51480065985E+01  0.50400000000E-02 0. -1.
         -2   -1    0    0    0  501 -0.00000000000E+00 -0.00000000000E+00 -0.30418156022E+03  0.30418156023E+03  0.25500000000E-02 0.  1.
        -24    2    1    2    0    0  0.35527136788E-14  0.00000000000E+00 -0.29903355609E+03  0.30932956683E+03  0.79143624176E+02 0.  0.
         66    2    3    3    0    0  0.31561196463E+02  0.87590337284E+01 -0.23622589870E+03  0.23849424524E+03  0.20000003769E+01 0.  0.
         13    1    3    3    0    0 -0.31561196463E+02 -0.87590337284E+01 -0.62807657385E+02  0.70835321587E+02  0.10566000000E+00 0. -1.
         13    1    4    4    0    0  0.77037523214E+00  0.13763481716E+00 -0.73148335099E+01  0.73573347521E+01  0.10566000000E+00 0.  1.
        -13    1    4    4    0    0  0.92598177576E+01  0.29836709847E+01 -0.66538545782E+02  0.67246083576E+02  0.10566000000E+00 0.  1.
        -14    1    4    4    0    0  0.21531003473E+02  0.56377279265E+01 -0.16237251941E+03  0.16389082691E+03  0.00000000000E+00 0.  1.
<mgrwt>
<rscale>  0 0.79143624E+02</rscale>
<asrwt>0</asrwt>
<pdfrwt beam="1">  1        1 0.79200107E-03 0.79143624E+02</pdfrwt>
<pdfrwt beam="2">  1       -2 0.46797149E-01 0.79143624E+02</pdfrwt>
<totfact> 0.71705841E+04</totfact>
</mgrwt>
</event>
<event>
 8    1  0.1241100E-024  0.8573474E+02  0.7818608E-02  0.1313522E+00
          1   -1    0    0  501    0  0.00000000000E+00  0.00000000000E+00  0.37104093877E+02  0.37104094219E+02  0.50400000000E-02 0. -1.
         -2   -1    0    0    0  501 -0.00000000000E+00 -0.00000000000E+00 -0.49525840255E+02  0.49525840320E+02  0.25500000000E-02 0.  1.
        -24    2    1    2    0    0 -0.35527136788E-14  0.00000000000E+00 -0.12421746377E+02  0.86629934540E+02  0.85734740772E+02 0.  0.
         66    2    3    3    0    0  0.27705623661E+02  0.52336198363E+01 -0.38809619136E+02  0.48012278580E+02  0.19999994931E+01 0.  0.
         13    1    3    3    0    0 -0.27705623661E+02 -0.52336198363E+01  0.26387872759E+02  0.38617655959E+02  0.10566000000E+00 0. -1.
         13    1    4    4    0    0  0.11846533722E+02  0.20432957965E+01 -0.17689064360E+02  0.21387603440E+02  0.10566000000E+00 0. -1.
        -13    1    4    4    0    0  0.13855075771E+02  0.27888548903E+01 -0.18991499098E+02  0.23673382484E+02  0.10566000000E+00 0.  1.
         14    1    4    4    0    0  0.20040141672E+01  0.40146914948E+00 -0.21290556782E+01  0.29512926560E+01  0.00000000000E+00 0. -1.
<mgrwt>
<rscale>  0 0.85734741E+02</rscale>
<asrwt>0</asrwt>
<pdfrwt beam="1">  1        1 0.57083222E-02 0.85734741E+02</pdfrwt>
<pdfrwt beam="2">  1       -2 0.76193600E-02 0.85734741E+02</pdfrwt>
<totfact> 0.10295484E+05</totfact>
</mgrwt>
</event>
<event>
 8    1  0.1241100E-024  0.8250474E+02  0.7818608E-02  0.1322090E+00
         -2   -1    0    0    0  501 -0.00000000000E+00  0.00000000000E+00  0.13703871036E+02  0.13703871273E+02  0.25500000000E-02 0.  1.
          1   -1    0    0  501    0  0.00000000000E+00 -0.00000000000E+00 -0.12418082479E+03  0.12418082489E+03  0.50400000000E-02 0. -1.
        -24    2    1    2    0    0  0.35527136788E-14 -0.35527136788E-14 -0.11047695375E+03  0.13788469616E+03  0.82504740019E+02 0.  0.
         66    2    3    3    0    0  0.27119148368E+02 -0.30802241352E+02 -0.48685516652E+02  0.63706403224E+02  0.19999998699E+01 0.  0.
         13    1    3    3    0    0 -0.27119148368E+02  0.30802241352E+02 -0.61791437098E+02  0.74178292938E+02  0.10566000000E+00 0. -1.
         13    1    4    4    0    0  0.70134354055E+01 -0.86606617468E+01 -0.12223133775E+02  0.16541206165E+02  0.10566000000E+00 0. -1.
        -13    1    4    4    0    0  0.12237978380E+02 -0.13082369754E+02 -0.21449784191E+02  0.27946751495E+02  0.10566000000E+00 0.  1.
         14    1    4    4    0    0  0.78677345832E+01 -0.90592098510E+01 -0.15012598686E+02  0.19218445564E+02  0.00000000000E+00 0. -1.
<mgrwt>
<rscale>  0 0.82504740E+02</rscale>
<asrwt>0</asrwt>
<pdfrwt beam="1">  1        1 0.19104742E-01 0.82504740E+02</pdfrwt>
<pdfrwt beam="2">  1       -2 0.21082880E-02 0.82504740E+02</pdfrwt>
<totfact> 0.14043673E+05</totfact>
</mgrwt>
</event>
<event>
 8    1  0.1241100E-024  0.7687537E+02  0.7818608E-02  0.1338160E+00
         -2   -1    0    0    0  501 -0.00000000000E+00  0.00000000000E+00  0.84389656909E+01  0.84389660761E+01  0.25500000000E-02 0.  1.
          1   -1    0    0  501    0  0.00000000000E+00 -0.00000000000E+00 -0.17507541192E+03  0.17507541199E+03  0.50400000000E-02 0. -1.
        -24    2    1    2    0    0  0.00000000000E+00  0.71054273576E-14 -0.16663644623E+03  0.18351437807E+03  0.76875365013E+02 0.  0.
         66    2    3    3    0    0  0.18799908919E+02 -0.32728918330E+02 -0.66354797893E+02  0.76364768516E+02  0.19999991408E+01 0.  0.
         13    1    3    3    0    0 -0.18799908919E+02  0.32728918330E+02 -0.10028164833E+03  0.10714960955E+03  0.10566000000E+00 0. -1.
         13    1    4    4    0    0  0.65216222376E+01 -0.99112309876E+01 -0.21039611975E+02  0.24154512879E+02  0.10566000000E+00 0. -1.
        -13    1    4    4    0    0  0.71321488511E+01 -0.14291289572E+02 -0.27863261578E+02  0.32116678139E+02  0.10566000000E+00 0.  1.
        -14    1    4    4    0    0  0.51461378299E+01 -0.85263977704E+01 -0.17451924340E+02  0.20093577498E+02  0.00000000000E+00 0.  1.
<mgrwt>
<rscale>  0 0.76875365E+02</rscale>
<asrwt>0</asrwt>
<pdfrwt beam="1">  1        1 0.26934676E-01 0.76875365E+02</pdfrwt>
<pdfrwt beam="2">  1       -2 0.12983026E-02 0.76875365E+02</pdfrwt>
<totfact> 0.18066424E+05</totfact>
</mgrwt>
</event>
<event>
 8    1  0.1241100E-024  0.7952224E+02  0.7818608E-02  0.1330413E+00
          1   -1    0    0  501    0  0.00000000000E+00  0.00000000000E+00  0.19591587560E+02  0.19591588209E+02  0.50400000000E-02 0. -1.
         -2   -1    0    0    0  501 -0.00000000000E+00 -0.00000000000E+00 -0.80695179087E+02  0.80695179128E+02  0.25500000000E-02 0.  1.
        -24    2    1    2    0    0  0.17763568394E-14  0.00000000000E+00 -0.61103591527E+02  0.10028676734E+03  0.79522240947E+02 0.  0.
         66    2    3    3    0    0  0.10823932129E+02  0.37726603984E+02 -0.38394825522E+02  0.54941939932E+02  0.19999954300E+01 0.  0.
         13    1    3    3    0    0 -0.10823932129E+02 -0.37726603984E+02 -0.22708766005E+02  0.45344827405E+02  0.10566000000E+00 0. -1.
         13    1    4    4    0    0  0.87051083262E+00  0.22746719782E+01 -0.22922905215E+01  0.33462937093E+01  0.10566000000E+00 0. -1.
        -13    1    4    4    0    0  0.90718438787E+01  0.31474886377E+02 -0.32748806100E+02  0.46319135234E+02  0.10566000000E+00 0.  1.
        -14    1    4    4    0    0  0.88157741789E+00  0.39770456281E+01 -0.33537289002E+01  0.52765109881E+01  0.00000000000E+00 0.  1.
<mgrwt>
<rscale>  0 0.79522241E+02</rscale>
<asrwt>0</asrwt>
<pdfrwt beam="1">  1        1 0.30140905E-02 0.79522241E+02</pdfrwt>
<pdfrwt beam="2">  1       -2 0.12414643E-01 0.79522241E+02</pdfrwt>
<totfact> 0.11326693E+05</totfact>
</mgrwt>
</event>
<event>
 8    1  0.1241100E-024  0.7588159E+02  0.7818608E-02  0.1341163E+00
         -2   -1    0    0    0  501 -0.00000000000E+00  0.00000000000E+00  0.97288612473E+01  0.97288615815E+01  0.25500000000E-02 0.  1.
          1   -1    0    0  501    0  0.00000000000E+00 -0.00000000000E+00 -0.14796223738E+03  0.14796223747E+03  0.50400000000E-02 0. -1.
        -24    2    1    2    0    0  0.00000000000E+00  0.00000000000E+00 -0.13823337613E+03  0.15769109905E+03  0.75881594881E+02 0.  0.
         66    2    3    3    0    0 -0.37381516189E+02  0.88234211373E+00 -0.56129775761E+02  0.67473757930E+02  0.20000005061E+01 0.  0.
         13    1    3    3    0    0  0.37381516189E+02 -0.88234211373E+00 -0.82103600372E+02  0.90217341118E+02  0.10566000000E+00 0. -1.
         13    1    4    4    0    0 -0.44864863708E+01 -0.15916968159E+00 -0.59771001872E+01  0.74760140199E+01  0.10566000000E+00 0. -1.
        -13    1    4    4    0    0 -0.12788593651E+02  0.27538291327E+00 -0.18537174257E+02  0.22522476702E+02  0.10566000000E+00 0.  1.
        -14    1    4    4    0    0 -0.20106436168E+02  0.76612888205E+00 -0.31615501317E+02  0.37475267208E+02  0.00000000000E+00 0.  1.
<mgrwt>
<rscale>  0 0.75881595E+02</rscale>
<asrwt>0</asrwt>
<pdfrwt beam="1">  1        1 0.22763420E-01 0.75881595E+02</pdfrwt>
<pdfrwt beam="2">  1       -2 0.14967480E-02 0.75881595E+02</pdfrwt>
<totfact> 0.18130405E+05</totfact>
</mgrwt>
</event>
<event>
 8    1  0.1241100E-024  0.7979741E+02  0.7818608E-02  0.1329627E+00
          1   -1    0    0  501    0  0.00000000000E+00  0.00000000000E+00  0.33167304080E+01  0.33167342373E+01  0.50400000000E-02 0. -1.
         -2   -1    0    0    0  501 -0.00000000000E+00 -0.00000000000E+00 -0.47996230210E+03  0.47996230211E+03  0.25500000000E-02 0.  1.
        -24    2    1    2    0    0  0.71054273576E-14  0.35527136788E-14 -0.47664557169E+03  0.48327903634E+03  0.79797405697E+02 0.  0.
         66    2    3    3    0    0  0.32190478548E+02  0.18735264135E+02 -0.32469009268E+03  0.32682547839E+03  0.20000018982E+01 0.  0.
         13    1    3    3    0    0 -0.32190478548E+02 -0.18735264135E+02 -0.15195547901E+03  0.15645355796E+03  0.10566000000E+00 0. -1.
         13    1    4    4    0    0  0.65182071415E+01  0.43759624364E+01 -0.67970815604E+02  0.68422795978E+02  0.10566000000E+00 0. -1.
        -13    1    4    4    0    0  0.17634065518E+02  0.10146373658E+02 -0.17230805219E+03  0.17350500044E+03  0.10566000000E+00 0.  1.
         14    1    4    4    0    0  0.80382058881E+01  0.42129280400E+01 -0.84411224892E+02  0.84897681973E+02  0.00000000000E+00 0. -1.
<mgrwt>
<rscale>  0 0.79797406E+02</rscale>
<asrwt>0</asrwt>
<pdfrwt beam="1">  1        1 0.51026689E-03 0.79797406E+02</pdfrwt>
<pdfrwt beam="2">  1       -2 0.73840299E-01 0.79797406E+02</pdfrwt>
<totfact> 0.52314382E+04</totfact>
</mgrwt>
</event>
<event>
 8    1  0.1241100E-024  0.8051172E+02  0.7818608E-02  0.1327605E+00
          1   -1    0    0  501    0  0.00000000000E+00  0.00000000000E+00  0.38824829514E+02  0.38824829841E+02  0.50400000000E-02 0. -1.
         -2   -1    0    0    0  501 -0.00000000000E+00 -0.00000000000E+00 -0.41739633916E+02  0.41739633994E+02  0.25500000000E-02 0.  1.
        -24    2    1    2    0    0 -0.35527136788E-14 -0.35527136788E-14 -0.29148044028E+01  0.80564463835E+02  0.80511718081E+02 0.  0.
         66    2    3    3    0    0 -0.21889857482E+02 -0.28512551962E+02 -0.19536615953E+02  0.40961089443E+02  0.20000013768E+01 0.  0.
         13    1    3    3    0    0  0.21889857482E+02  0.28512551962E+02  0.16621811550E+02  0.39603374392E+02  0.10566000000E+00 0. -1.
         13    1    4    4    0    0 -0.89760588737E+00 -0.69322087763E+00 -0.75148634149E+00  0.13646051705E+01  0.10566000000E+00 0. -1.
        -13    1    4    4    0    0 -0.92178142138E+01 -0.12673806467E+02 -0.86040603347E+01  0.17878324516E+02  0.10566000000E+00 0.  1.
         14    1    4    4    0    0 -0.11774437381E+02 -0.15145524618E+02 -0.10181069277E+02  0.21718159756E+02  0.00000000000E+00 0. -1.
<mgrwt>
<rscale>  0 0.80511718E+02</rscale>
<asrwt>0</asrwt>
<pdfrwt beam="1">  1        1 0.59730508E-02 0.80511718E+02</pdfrwt>
<pdfrwt beam="2">  1       -2 0.64214821E-02 0.80511718E+02</pdfrwt>
<totfact> 0.12410408E+05</totfact>
</mgrwt>
</event>
<event>
 8    1  0.1241100E-024  0.7929370E+02  0.7818608E-02  0.1331068E+00
          1   -1    0    0  501    0  0.00000000000E+00  0.00000000000E+00  0.19651487393E+03  0.19651487399E+03  0.50400000000E-02 0. -1.
         -2   -1    0    0    0  501 -0.00000000000E+00 -0.00000000000E+00 -0.79987474591E+01  0.79987478656E+01  0.25500000000E-02 0.  1.
        -24    2    1    2    0    0  0.00000000000E+00 -0.71054273576E-14  0.18851612647E+03  0.20451362186E+03  0.79293704585E+02 0.  0.
         66    2    3    3    0    0  0.12381035497E+02  0.25511349190E+02  0.22946046271E+02  0.36532725330E+02  0.20000007842E+01 0.  0.
         13    1    3    3    0    0 -0.12381035497E+02 -0.25511349190E+02  0.16557008020E+03  0.16798089653E+03  0.10566000000E+00 0. -1.
         13    1    4    4    0    0  0.29721629545E+01  0.48267709887E+01  0.43689944383E+01  0.71575657345E+01  0.10566000000E+00 0.  1.
        -13    1    4    4    0    0  0.28925079200E+01  0.76854132164E+01  0.65350973072E+01  0.10495276996E+02  0.10566000000E+00 0.  1.
         14    1    4    4    0    0  0.65163646226E+01  0.12999164985E+02  0.12041954525E+02  0.18879882600E+02  0.00000000000E+00 0. -1.
<mgrwt>
<rscale>  0 0.79293705E+02</rscale>
<asrwt>0</asrwt>
<pdfrwt beam="1">  1        1 0.30233056E-01 0.79293705E+02</pdfrwt>
<pdfrwt beam="2">  1       -2 0.12305766E-02 0.79293705E+02</pdfrwt>
<totfact> 0.17013009E+05</totfact>
</mgrwt>
</event>
<event>
 8    1  0.1241100E-024  0.8007378E+02  0.7818608E-02  0.1328842E+00
         -2   -1    0    0    0  501 -0.00000000000E+00  0.00000000000E+00  0.12250039227E+02  0.12250039493E+02  0.25500000000E-02 0.  1.
          1   -1    0    0  501    0  0.00000000000E+00 -0.00000000000E+00 -0.13085285505E+03  0.13085285514E+03  0.50400000000E-02 0. -1.
        -24    2    1    2    0    0  0.71054273576E-14 -0.35527136788E-14 -0.11860281582E+03  0.14310289464E+03  0.80073781807E+02 0.  0.
         66    2    3    3    0    0  0.31520382349E+02 -0.23424043197E+02 -0.73033815133E+02  0.82946720467E+02  0.19999950394E+01 0.  0.
         13    1    3    3    0    0 -0.31520382349E+02  0.23424043197E+02 -0.45569000686E+02  0.60156174169E+02  0.10566000000E+00 0. -1.
         13    1    4    4    0    0  0.88652586834E+01 -0.60921232901E+01 -0.21556003443E+02  0.24091061126E+02  0.10566000000E+00 0. -1.
        -13    1    4    4    0    0  0.16859850713E+02 -0.13188089050E+02 -0.38375738525E+02  0.43941879002E+02  0.10566000000E+00 0.  1.
        -14    1    4    4    0    0  0.57952729528E+01 -0.41438308567E+01 -0.13102073165E+02  0.14913780338E+02  0.00000000000E+00 0.  1.
<mgrwt>
<rscale>  0 0.80073782E+02</rscale>
<asrwt>0</asrwt>
<pdfrwt beam="1">  1        1 0.20131208E-01 0.80073782E+02</pdfrwt>
<pdfrwt beam="2">  1       -2 0.18846215E-02 0.80073782E+02</pdfrwt>
<totfact> 0.15363078E+05</totfact>
</mgrwt>
</event>
<event>
 8    1  0.1241100E-024  0.8000736E+02  0.7818608E-02  0.1329031E+00
          1   -1    0    0  501    0  0.00000000000E+00  0.00000000000E+00  0.91150352551E+02  0.91150352690E+02  0.50400000000E-02 0. -1.
         -2   -1    0    0    0  501 -0.00000000000E+00 -0.00000000000E+00 -0.17556645393E+02  0.17556645578E+02  0.25500000000E-02 0.  1.
        -24    2    1    2    0    0 -0.22204460493E-15  0.00000000000E+00  0.73593707158E+02  0.10870699827E+03  0.80007360532E+02 0.  0.
         66    2    3    3    0    0  0.19535140365E+01  0.25090398633E+02 -0.53866716518E+01  0.25813960432E+02  0.20000002629E+01 0.  0.
         13    1    3    3    0    0 -0.19535140365E+01 -0.25090398633E+02  0.78980378810E+02  0.82893037836E+02  0.10566000000E+00 0. -1.
         13    1    4    4    0    0 -0.35625927428E+00  0.32974143667E+01 -0.56714316775E+00  0.33664042515E+01  0.10566000000E+00 0.  1.
        -13    1    4    4    0    0  0.22141679348E+01  0.21423354105E+02 -0.47945969235E+01  0.22064948775E+02  0.10566000000E+00 0. -1.
         14    1    4    4    0    0  0.95605375957E-01  0.36963016152E+00 -0.24931560597E-01  0.38260740575E+00  0.00000000000E+00 0. -1.
<mgrwt>
<rscale>  0 0.80007361E+02</rscale>
<asrwt>0</asrwt>
<pdfrwt beam="1">  1        1 0.14023131E-01 0.80007361E+02</pdfrwt>
<pdfrwt beam="2">  1       -2 0.27010224E-02 0.80007361E+02</pdfrwt>
<totfact> 0.14470383E+05</totfact>
</mgrwt>
</event>
<event>
 8    1  0.1241100E-024  0.7899733E+02  0.7818608E-02  0.1331921E+00
          1   -1    0    0  501    0  0.00000000000E+00  0.00000000000E+00  0.25623354146E+03  0.25623354151E+03  0.50400000000E-02 0. -1.
         -2   -1    0    0    0  501 -0.00000000000E+00 -0.00000000000E+00 -0.60887602550E+01  0.60887607889E+01  0.25500000000E-02 0.  1.
        -24    2    1    2    0    0  0.88817841970E-15  0.00000000000E+00  0.25014478120E+03  0.26232230229E+03  0.78997333619E+02 0.  0.
         66    2    3    3    0    0  0.41292811763E+01 -0.38857428359E+02  0.10660746477E+03  0.11356100668E+03  0.19999977525E+01 0.  0.
         13    1    3    3    0    0 -0.41292811763E+01  0.38857428359E+02  0.14353731643E+03  0.14876129562E+03  0.10566000000E+00 0. -1.
         13    1    4    4    0    0  0.71238420321E+00 -0.63670304814E+01  0.15495265864E+02  0.16767856054E+02  0.10566000000E+00 0.  1.
        -13    1    4    4    0    0  0.24492815453E+01 -0.24434206220E+02  0.68101184360E+02  0.72393451976E+02  0.10566000000E+00 0.  1.
        -14    1    4    4    0    0  0.96761542777E+00 -0.80561916577E+01  0.23011014548E+02  0.24399698649E+02  0.00000000000E+00 0.  1.
<mgrwt>
<rscale>  0 0.78997334E+02</rscale>
<asrwt>0</asrwt>
<pdfrwt beam="1">  1        1 0.39420548E-01 0.78997334E+02</pdfrwt>
<pdfrwt beam="2">  1       -2 0.93673231E-03 0.78997334E+02</pdfrwt>
<totfact> 0.18091636E+05</totfact>
</mgrwt>
</event>
<event>
 8    1  0.1241100E-024  0.7981705E+02  0.7818608E-02  0.1329571E+00
         -2   -1    0    0    0  501 -0.00000000000E+00  0.00000000000E+00  0.42474100534E+01  0.42474108189E+01  0.25500000000E-02 0.  1.
          1   -1    0    0  501    0  0.00000000000E+00 -0.00000000000E+00 -0.37497919674E+03  0.37497919677E+03  0.50400000000E-02 0. -1.
        -24    2    1    2    0    0  0.35527136788E-14 -0.35527136788E-14 -0.37073178668E+03  0.37922660759E+03  0.79817054859E+02 0.  0.
         66    2    3    3    0    0  0.30487119631E+02 -0.25676378960E+02 -0.19210761106E+03  0.19620926365E+03  0.20000041818E+01 0.  0.
         13    1    3    3    0    0 -0.30487119631E+02  0.25676378960E+02 -0.17862417562E+03  0.18301734394E+03  0.10566000000E+00 0. -1.
         13    1    4    4    0    0  0.10172738872E+02 -0.94155621142E+01 -0.66082030551E+02  0.67520244015E+02  0.10566000000E+00 0. -1.
        -13    1    4    4    0    0  0.77717408049E+01 -0.69142585995E+01 -0.51019671667E+02  0.52069424695E+02  0.10566000000E+00 0.  1.
        -14    1    4    4    0    0  0.12542639954E+02 -0.93465582467E+01 -0.75005908842E+02  0.76619594943E+02  0.00000000000E+00 0.  1.
<mgrwt>
<rscale>  0 0.79817055E+02</rscale>
<asrwt>0</asrwt>
<pdfrwt beam="1">  1        1 0.57689081E-01 0.79817055E+02</pdfrwt>
<pdfrwt beam="2">  1       -2 0.65344805E-03 0.79817055E+02</pdfrwt>
<totfact> 0.18901796E+05</totfact>
</mgrwt>
</event>
<event>
 8    1  0.1241100E-024  0.8063117E+02  0.7818608E-02  0.1327270E+00
          1   -1    0    0  501    0  0.00000000000E+00  0.00000000000E+00  0.73621075591E+01  0.73621092843E+01  0.50400000000E-02 0. -1.
         -2   -1    0    0    0  501 -0.00000000000E+00 -0.00000000000E+00 -0.22077188018E+03  0.22077188019E+03  0.25500000000E-02 0.  1.
        -24    2    1    2    0    0 -0.88817841970E-15 -0.35527136788E-14 -0.21340977262E+03  0.22813398948E+03  0.80631173286E+02 0.  0.
         66    2    3    3    0    0 -0.67268504478E+01  0.29053292087E+02 -0.18342425000E+03  0.18584348193E+03  0.19999971108E+01 0.  0.
         13    1    3    3    0    0  0.67268504478E+01 -0.29053292087E+02 -0.29985522617E+02  0.42290507548E+02  0.10566000000E+00 0. -1.
         13    1    4    4    0    0 -0.82731207238E+00  0.27019222143E+01 -0.18599006260E+02  0.18812735761E+02  0.10566000000E+00 0. -1.
        -13    1    4    4    0    0 -0.11391733447E+01  0.83198761404E+01 -0.52869276073E+02  0.53532135875E+02  0.10566000000E+00 0.  1.
        -14    1    4    4    0    0 -0.47603650307E+01  0.18031493733E+02 -0.11195596767E+03  0.11349861029E+03  0.00000000000E+00 0.  1.
<mgrwt>
<rscale>  0 0.80631173E+02</rscale>
<asrwt>0</asrwt>
<pdfrwt beam="1">  1        1 0.11326322E-02 0.80631173E+02</pdfrwt>
<pdfrwt beam="2">  1       -2 0.33964900E-01 0.80631173E+02</pdfrwt>
<totfact> 0.79974115E+04</totfact>
</mgrwt>
</event>
<event>
 8    1  0.1241100E-024  0.7863780E+02  0.7818608E-02  0.1332962E+00
         -2   -1    0    0    0  501 -0.00000000000E+00  0.00000000000E+00  0.30003448609E+02  0.30003448717E+02  0.25500000000E-02 0.  1.
          1   -1    0    0  501    0  0.00000000000E+00 -0.00000000000E+00 -0.51526602738E+02  0.51526602984E+02  0.50400000000E-02 0. -1.
        -24    2    1    2    0    0  0.00000000000E+00  0.00000000000E+00 -0.21523154129E+02  0.81530051702E+02  0.78637797316E+02 0.  0.
         66    2    3    3    0    0  0.12210379840E+02 -0.23745180212E+02  0.19119584877E+02  0.32901147158E+02  0.19999998225E+01 0.  0.
         13    1    3    3    0    0 -0.12210379840E+02  0.23745180212E+02 -0.40642739006E+02  0.48628904544E+02  0.10566000000E+00 0. -1.
         13    1    4    4    0    0  0.48387424245E+01 -0.84412548235E+01  0.77365401388E+01  0.12431147518E+02  0.10566000000E+00 0. -1.
        -13    1    4    4    0    0  0.30444900917E+01 -0.54368082823E+01  0.44518196279E+01  0.76588293004E+01  0.10566000000E+00 0.  1.
        -14    1    4    4    0    0  0.43271473235E+01 -0.98671171063E+01  0.69312251105E+01  0.12811170340E+02  0.00000000000E+00 0.  1.
<mgrwt>
<rscale>  0 0.78637797E+02</rscale>
<asrwt>0</asrwt>
<pdfrwt beam="1">  1        1 0.79271697E-02 0.78637797E+02</pdfrwt>
<pdfrwt beam="2">  1       -2 0.46159152E-02 0.78637797E+02</pdfrwt>
<totfact> 0.13864286E+05</totfact>
</mgrwt>
</event>
<event>
 8    1  0.1241100E-024  0.8225905E+02  0.7818608E-02  0.1322760E+00
         -2   -1    0    0    0  501 -0.00000000000E+00  0.00000000000E+00  0.31063744196E+02  0.31063744301E+02  0.25500000000E-02 0.  1.
          1   -1    0    0  501    0  0.00000000000E+00 -0.00000000000E+00 -0.54456983211E+02  0.54456983444E+02  0.50400000000E-02 0. -1.
        -24    2    1    2    0    0 -0.35527136788E-14  0.00000000000E+00 -0.23393239015E+02  0.85520727745E+02  0.82259049608E+02 0.  0.
         66    2    3    3    0    0  0.23194904311E+02 -0.23764498894E+02  0.13482621717E+02  0.35896184800E+02  0.20000002957E+01 0.  0.
         13    1    3    3    0    0 -0.23194904311E+02  0.23764498894E+02 -0.36875860732E+02  0.49624542944E+02  0.10566000000E+00 0. -1.
         13    1    4    4    0    0  0.25665903745E+01 -0.26362939230E+01  0.18122979837E+01  0.41028063343E+01  0.10566000000E+00 0. -1.
        -13    1    4    4    0    0  0.69935641634E+01 -0.79193389330E+01  0.47955859833E+01  0.11603218424E+02  0.10566000000E+00 0.  1.
        -14    1    4    4    0    0  0.13634749773E+02 -0.13208866038E+02  0.68747377497E+01  0.20190160042E+02  0.00000000000E+00 0.  1.
<mgrwt>
<rscale>  0 0.82259050E+02</rscale>
<asrwt>0</asrwt>
<pdfrwt beam="1">  1        1 0.83779975E-02 0.82259050E+02</pdfrwt>
<pdfrwt beam="2">  1       -2 0.47790376E-02 0.82259050E+02</pdfrwt>
<totfact> 0.12342591E+05</totfact>
</mgrwt>
</event>
<event>
 8    1  0.1241100E-024  0.8265988E+02  0.7818608E-02  0.1321668E+00
          1   -1    0    0  501    0  0.00000000000E+00  0.00000000000E+00  0.61594892536E+02  0.61594892742E+02  0.50400000000E-02 0. -1.
         -2   -1    0    0    0  501 -0.00000000000E+00 -0.00000000000E+00 -0.27732233937E+02  0.27732234054E+02  0.25500000000E-02 0.  1.
        -24    2    1    2    0    0 -0.35527136788E-14 -0.71054273576E-14  0.33862658599E+02  0.89327126797E+02  0.82659881045E+02 0.  0.
         66    2    3    3    0    0 -0.26369928238E+02 -0.30118329573E+02  0.59380007373E+01  0.40518474159E+02  0.20000009572E+01 0.  0.
         13    1    3    3    0    0  0.26369928238E+02  0.30118329573E+02  0.27924657862E+02  0.48808652638E+02  0.10566000000E+00 0. -1.
         13    1    4    4    0    0 -0.17035140456E+01 -0.24685538118E+01  0.70179474729E+00  0.30821093310E+01  0.10566000000E+00 0. -1.
        -13    1    4    4    0    0 -0.17963026053E+02 -0.20813895884E+02  0.39742649226E+01  0.27779390068E+02  0.10566000000E+00 0.  1.
        -14    1    4    4    0    0 -0.67033881400E+01 -0.68358798774E+01  0.12619410674E+01  0.96569747598E+01  0.00000000000E+00 0.  1.
<mgrwt>
<rscale>  0 0.82659881E+02</rscale>
<asrwt>0</asrwt>
<pdfrwt beam="1">  1        1 0.94761374E-02 0.82659881E+02</pdfrwt>
<pdfrwt beam="2">  1       -2 0.42664975E-02 0.82659881E+02</pdfrwt>
<totfact> 0.12420640E+05</totfact>
</mgrwt>
</event>
<event>
 8    1  0.1241100E-024  0.7911192E+02  0.7818608E-02  0.1331591E+00
         -2   -1    0    0    0  501 -0.00000000000E+00  0.00000000000E+00  0.24118414357E+02  0.24118414492E+02  0.25500000000E-02 0.  1.
          1   -1    0    0  501    0  0.00000000000E+00 -0.00000000000E+00 -0.64874653561E+02  0.64874653757E+02  0.50400000000E-02 0. -1.
        -24    2    1    2    0    0  0.00000000000E+00  0.00000000000E+00 -0.40756239204E+02  0.88993068249E+02  0.79111915426E+02 0.  0.
         66    2    3    3    0    0  0.10196374496E+02 -0.37706163861E+02 -0.13553412739E+02  0.41393427728E+02  0.20000040615E+01 0.  0.
         13    1    3    3    0    0 -0.10196374496E+02  0.37706163861E+02 -0.27202826465E+02  0.47599640521E+02  0.10566000000E+00 0. -1.
         13    1    4    4    0    0  0.11678069509E+01 -0.33100175847E+01 -0.13745244744E+01  0.37710039846E+01  0.10566000000E+00 0. -1.
        -13    1    4    4    0    0  0.40881626896E+01 -0.15684256657E+02 -0.63816697942E+01  0.17419697312E+02  0.10566000000E+00 0.  1.
         14    1    4    4    0    0  0.49404048559E+01 -0.18711889619E+02 -0.57972184705E+01  0.20202726431E+02  0.00000000000E+00 0. -1.
<mgrwt>
<rscale>  0 0.79111915E+02</rscale>
<asrwt>0</asrwt>
<pdfrwt beam="1">  1        1 0.99807159E-02 0.79111915E+02</pdfrwt>
<pdfrwt beam="2">  1       -2 0.37105253E-02 0.79111915E+02</pdfrwt>
<totfact> 0.14131706E+05</totfact>
</mgrwt>
</event>
<event>
 8    1  0.1241100E-024  0.8099452E+02  0.7818608E-02  0.1326253E+00
          1   -1    0    0  501    0  0.00000000000E+00  0.00000000000E+00  0.15659368596E+02  0.15659369407E+02  0.50400000000E-02 0. -1.
         -2   -1    0    0    0  501 -0.00000000000E+00 -0.00000000000E+00 -0.10473143914E+03  0.10473143917E+03  0.25500000000E-02 0.  1.
        -24    2    1    2    0    0  0.00000000000E+00  0.00000000000E+00 -0.89072070544E+02  0.12039080858E+03  0.80994524748E+02 0.  0.
         66    2    3    3    0    0 -0.20598687213E+02  0.34486107689E+02 -0.51909296723E+02  0.65667134903E+02  0.19999954151E+01 0.  0.
         13    1    3    3    0    0  0.20598687213E+02 -0.34486107689E+02 -0.37162773821E+02  0.54723673676E+02  0.10566000000E+00 0. -1.
         13    1    4    4    0    0 -0.83805068124E+00  0.12620901209E+01 -0.24667549393E+01  0.28967644682E+01  0.10566000000E+00 0. -1.
        -13    1    4    4    0    0 -0.16090206588E+02  0.27254939267E+02 -0.41139146875E+02  0.51905366121E+02  0.10566000000E+00 0.  1.
        -14    1    4    4    0    0 -0.36704299441E+01  0.59690783009E+01 -0.83033949091E+01  0.10865004314E+02  0.00000000000E+00 0.  1.
<mgrwt>
<rscale>  0 0.80994525E+02</rscale>
<asrwt>0</asrwt>
<pdfrwt beam="1">  1        1 0.24091338E-02 0.80994525E+02</pdfrwt>
<pdfrwt beam="2">  1       -2 0.16112529E-01 0.80994525E+02</pdfrwt>
<totfact> 0.10162981E+05</totfact>
</mgrwt>
</event>
<event>
 8    1  0.1241100E-024  0.8023322E+02  0.7818608E-02  0.1328391E+00
          1   -1    0    0  501    0  0.00000000000E+00  0.00000000000E+00  0.17608156718E+03  0.17608156725E+03  0.50400000000E-02 0. -1.
         -2   -1    0    0    0  501 -0.00000000000E+00 -0.00000000000E+00 -0.91397556771E+01  0.91397560329E+01  0.25500000000E-02 0.  1.
        -24    2    1    2    0    0  0.35527136788E-14  0.00000000000E+00  0.16694181150E+03  0.18522132328E+03  0.80233223613E+02 0.  0.
         66    2    3    3    0    0 -0.17859041062E+02  0.34581393277E+02  0.10572775690E+03  0.11268174957E+03  0.20000000302E+01 0.  0.
         13    1    3    3    0    0  0.17859041062E+02 -0.34581393277E+02  0.61214054602E+02  0.72539573706E+02  0.10566000000E+00 0. -1.
         13    1    4    4    0    0 -0.93260783399E+01  0.18857275485E+02  0.57432743865E+02  0.61164563334E+02  0.10566000000E+00 0.  1.
        -13    1    4    4    0    0 -0.62384503803E+01  0.11249951320E+02  0.33108685786E+02  0.35520077511E+02  0.10566000000E+00 0. -1.
         14    1    4    4    0    0 -0.22945123415E+01  0.44741664717E+01  0.15186327245E+02  0.15997108729E+02  0.00000000000E+00 0. -1.
<mgrwt>
<rscale>  0 0.80233224E+02</rscale>
<asrwt>0</asrwt>
<pdfrwt beam="1">  1        1 0.27089471E-01 0.80233224E+02</pdfrwt>
<pdfrwt beam="2">  1       -2 0.14061163E-02 0.80233224E+02</pdfrwt>
<totfact> 0.16144179E+05</totfact>
</mgrwt>
</event>
<event>
 8    1  0.1241100E-024  0.7981839E+02  0.7818608E-02  0.1329568E+00
         -2   -1    0    0    0  501 -0.00000000000E+00  0.00000000000E+00  0.16390007191E+02  0.16390007389E+02  0.25500000000E-02 0.  1.
          1   -1    0    0  501    0  0.00000000000E+00 -0.00000000000E+00 -0.97177732814E+02  0.97177732945E+02  0.50400000000E-02 0. -1.
        -24    2    1    2    0    0  0.00000000000E+00  0.71054273576E-14 -0.80787725623E+02  0.11356774033E+03  0.79818387814E+02 0.  0.
         66    2    3    3    0    0  0.34463705432E+01  0.38959902365E+02 -0.29307671423E+02  0.48915140953E+02  0.19999869928E+01 0.  0.
         13    1    3    3    0    0 -0.34463705432E+01 -0.38959902365E+02 -0.51480054200E+02  0.64652599381E+02  0.10566000000E+00 0. -1.
         13    1    4    4    0    0  0.50632907245E+00  0.25262179267E+01 -0.16428288514E+01  0.30574821035E+01  0.10566000000E+00 0. -1.
        -13    1    4    4    0    0  0.24126949993E+01  0.24336441179E+02 -0.18042759108E+02  0.30391376847E+02  0.10566000000E+00 0.  1.
         14    1    4    4    0    0  0.52734647139E+00  0.12097243260E+02 -0.96220834642E+01  0.15466282002E+02  0.00000000000E+00 0. -1.
<mgrwt>
<rscale>  0 0.79818388E+02</rscale>
<asrwt>0</asrwt>
<pdfrwt beam="1">  1        1 0.14950420E-01 0.79818388E+02</pdfrwt>
<pdfrwt beam="2">  1       -2 0.25215397E-02 0.79818388E+02</pdfrwt>
<totfact> 0.14718927E+05</totfact>
</mgrwt>
</event>
<event>
 8    1  0.1241100E-024  0.8062818E+02  0.7818608E-02  0.1327278E+00
         -2   -1    0    0    0  501 -0.00000000000E+00  0.00000000000E+00  0.42956499529E+03  0.42956499530E+03  0.25500000000E-02 0.  1.
          1   -1    0    0  501    0  0.00000000000E+00 -0.00000000000E+00 -0.37834211905E+01  0.37834245474E+01  0.50400000000E-02 0. -1.
        -24    2    1    2    0    0  0.00000000000E+00 -0.16653345369E-15  0.42578157410E+03  0.43334841985E+03  0.80628184523E+02 0.  0.
         66    2    3    3    0    0 -0.35949568756E+02  0.26506279908E+00  0.31077202970E+03  0.31285091689E+03  0.20000003244E+01 0.  0.
         13    1    3    3    0    0  0.35949568756E+02 -0.26506279908E+00  0.11500954440E+03  0.12049750296E+03  0.10566000000E+00 0. -1.
         13    1    4    4    0    0 -0.74219203712E+01 -0.48671930505E+00  0.68259130990E+02  0.68663250179E+02  0.10566000000E+00 0. -1.
        -13    1    4    4    0    0 -0.71832558781E+01 -0.58377067141E-01  0.63256181940E+02  0.63662848590E+02  0.10566000000E+00 0.  1.
         14    1    4    4    0    0 -0.21344392507E+02  0.81015917127E+00  0.17925671677E+03  0.18052481812E+03  0.00000000000E+00 0. -1.
<mgrwt>
<rscale>  0 0.80628185E+02</rscale>
<asrwt>0</asrwt>
<pdfrwt beam="1">  1        1 0.58206509E-03 0.80628185E+02</pdfrwt>
<pdfrwt beam="2">  1       -2 0.66086919E-01 0.80628185E+02</pdfrwt>
<totfact> 0.55174188E+04</totfact>
</mgrwt>
</event>
<event>
 8    1  0.1241100E-024  0.8074303E+02  0.7818608E-02  0.1326956E+00
          1   -1    0    0  501    0  0.00000000000E+00  0.00000000000E+00  0.78125846444E+01  0.78125862701E+01  0.50400000000E-02 0. -1.
         -2   -1    0    0    0  501 -0.00000000000E+00 -0.00000000000E+00 -0.20861969796E+03  0.20861969797E+03  0.25500000000E-02 0.  1.
        -24    2    1    2    0    0  0.00000000000E+00  0.00000000000E+00 -0.20080711331E+03  0.21643228424E+03  0.80743030074E+02 0.  0.
         66    2    3    3    0    0  0.41813799923E+01 -0.33225122184E+02 -0.16078900358E+03  0.16425132073E+03  0.20000013075E+01 0.  0.
         13    1    3    3    0    0 -0.41813799923E+01  0.33225122184E+02 -0.40018109728E+02  0.52180963512E+02  0.10566000000E+00 0. -1.
         13    1    4    4    0    0  0.23690860355E+01 -0.16475525588E+02 -0.78980458249E+02  0.80715422698E+02  0.10566000000E+00 0. -1.
        -13    1    4    4    0    0  0.19755164631E+01 -0.13464971520E+02 -0.66356468891E+02  0.67737731369E+02  0.10566000000E+00 0.  1.
        -14    1    4    4    0    0 -0.16322250630E+00 -0.32846250763E+01 -0.15452076445E+02  0.15798166664E+02  0.00000000000E+00 0.  1.
<mgrwt>
<rscale>  0 0.80743030E+02</rscale>
<asrwt>0</asrwt>
<pdfrwt beam="1">  1        1 0.12019364E-02 0.80743030E+02</pdfrwt>
<pdfrwt beam="2">  1       -2 0.32095334E-01 0.80743030E+02</pdfrwt>
<totfact> 0.81638754E+04</totfact>
</mgrwt>
</event>
<event>
 8    1  0.1241100E-024  0.8062364E+02  0.7818608E-02  0.1327291E+00
          1   -1    0    0  501    0  0.00000000000E+00  0.00000000000E+00  0.33252648741E+02  0.33252649123E+02  0.50400000000E-02 0. -1.
         -2   -1    0    0    0  501 -0.00000000000E+00 -0.00000000000E+00 -0.48869572688E+02  0.48869572754E+02  0.25500000000E-02 0.  1.
        -24    2    1    2    0    0  0.44408920985E-15  0.35527136788E-14 -0.15616923947E+02  0.82122221877E+02  0.80623638050E+02 0.  0.
         66    2    3    3    0    0  0.38042480000E+01  0.18482166633E+02 -0.44069456826E+02  0.47981035935E+02  0.19999995406E+01 0.  0.
         13    1    3    3    0    0 -0.38042480000E+01 -0.18482166633E+02  0.28452532879E+02  0.34141185942E+02  0.10566000000E+00 0. -1.
         13    1    4    4    0    0  0.11249826491E+01  0.72109627880E+01 -0.18401790146E+02  0.19796479861E+02  0.10566000000E+00 0. -1.
        -13    1    4    4    0    0  0.21534662350E+01  0.92683382396E+01 -0.19943965580E+02  0.22097792597E+02  0.10566000000E+00 0.  1.
        -14    1    4    4    0    0  0.52579911591E+00  0.20028656057E+01 -0.57237010992E+01  0.60867634764E+01  0.00000000000E+00 0.  1.
<mgrwt>
<rscale>  0 0.80623638E+02</rscale>
<asrwt>0</asrwt>
<pdfrwt beam="1">  1        1 0.51157922E-02 0.80623638E+02</pdfrwt>
<pdfrwt beam="2">  1       -2 0.75183958E-02 0.80623638E+02</pdfrwt>
<totfact> 0.12043228E+05</totfact>
</mgrwt>
</event>
<event>
 8    1  0.1241100E-024  0.8112106E+02  0.7818608E-02  0.1325900E+00
          1   -1    0    0  501    0  0.00000000000E+00  0.00000000000E+00  0.11314159566E+03  0.11314159577E+03  0.50400000000E-02 0. -1.
         -2   -1    0    0    0  501 -0.00000000000E+00 -0.00000000000E+00 -0.14540688668E+02  0.14540688892E+02  0.25500000000E-02 0.  1.
        -24    2    1    2    0    0  0.00000000000E+00  0.00000000000E+00  0.98600906987E+02  0.12768228466E+03  0.81121063584E+02 0.  0.
         66    2    3    3    0    0  0.16317324830E+02  0.36868996480E+02  0.42732081187E+02  0.58784426555E+02  0.20000129376E+01 0.  0.
         13    1    3    3    0    0 -0.16317324830E+02 -0.36868996480E+02  0.55868825800E+02  0.68897858104E+02  0.10566000000E+00 0. -1.
         13    1    4    4    0    0  0.32741932627E+01  0.75734242218E+01  0.97915041704E+01  0.12804757472E+02  0.10566000000E+00 0. -1.
        -13    1    4    4    0    0  0.47694020417E+01  0.99693655303E+01  0.11005788344E+02  0.15597242898E+02  0.10566000000E+00 0.  1.
        -14    1    4    4    0    0  0.82737295259E+01  0.19326206728E+02  0.21934788673E+02  0.30382426185E+02  0.00000000000E+00 0.  1.
<mgrwt>
<rscale>  0 0.81121064E+02</rscale>
<asrwt>0</asrwt>
<pdfrwt beam="1">  1        1 0.17406399E-01 0.81121064E+02</pdfrwt>
<pdfrwt beam="2">  1       -2 0.22370291E-02 0.81121064E+02</pdfrwt>
<totfact> 0.14459294E+05</totfact>
</mgrwt>
</event>
<event>
 8    1  0.1241100E-024  0.8104664E+02  0.7818608E-02  0.1326107E+00
         -2   -1    0    0    0  501 -0.00000000000E+00  0.00000000000E+00  0.80514283222E+02  0.80514283262E+02  0.25500000000E-02 0.  1.
          1   -1    0    0  501    0  0.00000000000E+00 -0.00000000000E+00 -0.20395628683E+02  0.20395629306E+02  0.50400000000E-02 0. -1.
        -24    2    1    2    0    0  0.00000000000E+00  0.00000000000E+00  0.60118654539E+02  0.10090991257E+03  0.81046639850E+02 0.  0.
         66    2    3    3    0    0  0.20898543674E+02  0.42864273711E+01  0.72938371101E+02  0.76020579831E+02  0.19999979378E+01 0.  0.
         13    1    3    3    0    0 -0.20898543674E+02 -0.42864273711E+01 -0.12819716562E+02  0.24889332737E+02  0.10566000000E+00 0. -1.
         13    1    4    4    0    0  0.51722418246E+01  0.11124109706E+01  0.16349430675E+02  0.17184428740E+02  0.10566000000E+00 0.  1.
        -13    1    4    4    0    0  0.30175028616E+01  0.11380063673E+01  0.10623120351E+02  0.11102352546E+02  0.10566000000E+00 0. -1.
         14    1    4    4    0    0  0.12708798988E+02  0.20360100333E+01  0.45965820074E+02  0.47733798546E+02  0.00000000000E+00 0. -1.
<mgrwt>
<rscale>  0 0.81046640E+02</rscale>
<asrwt>0</asrwt>
<pdfrwt beam="1">  1        1 0.31377891E-02 0.81046640E+02</pdfrwt>
<pdfrwt beam="2">  1       -2 0.12386813E-01 0.81046640E+02</pdfrwt>
<totfact> 0.10796782E+05</totfact>
</mgrwt>
</event>
<event>
 8    1  0.1241100E-024  0.7786347E+02  0.7818608E-02  0.1335226E+00
          1   -1    0    0  501    0  0.00000000000E+00  0.00000000000E+00  0.84961141974E+02  0.84961142123E+02  0.50400000000E-02 0. -1.
         -2   -1    0    0    0  501 -0.00000000000E+00 -0.00000000000E+00 -0.17839684244E+02  0.17839684427E+02  0.25500000000E-02 0.  1.
        -24    2    1    2    0    0  0.00000000000E+00  0.00000000000E+00  0.67121457729E+02  0.10280082655E+03  0.77863469301E+02 0.  0.
         66    2    3    3    0    0  0.60426158719E+01  0.19932829862E+02 -0.98025691627E+01  0.23106736491E+02  0.19999990484E+01 0.  0.
         13    1    3    3    0    0 -0.60426158719E+01 -0.19932829862E+02  0.76924026892E+02  0.79694090058E+02  0.10566000000E+00 0. -1.
         13    1    4    4    0    0  0.15526228726E+01  0.31538322457E+01 -0.17954063554E+01  0.39486635252E+01  0.10566000000E+00 0. -1.
        -13    1    4    4    0    0  0.43723181599E+01  0.16405578011E+02 -0.79939845423E+01  0.18766329126E+02  0.10566000000E+00 0.  1.
        -14    1    4    4    0    0  0.11767483943E+00  0.37341960516E+00 -0.13178265124E-01  0.39174383981E+00  0.00000000000E+00 0.  1.
<mgrwt>
<rscale>  0 0.77863469E+02</rscale>
<asrwt>0</asrwt>
<pdfrwt beam="1">  1        1 0.13070945E-01 0.77863469E+02</pdfrwt>
<pdfrwt beam="2">  1       -2 0.27445668E-02 0.77863469E+02</pdfrwt>
<totfact> 0.15398225E+05</totfact>
</mgrwt>
</event>
<event>
 8    1  0.1241100E-024  0.7775200E+02  0.7818608E-02  0.1335555E+00
         -2   -1    0    0    0  501 -0.00000000000E+00  0.00000000000E+00  0.20477504077E+03  0.20477504079E+03  0.25500000000E-02 0.  1.
          1   -1    0    0  501    0  0.00000000000E+00 -0.00000000000E+00 -0.73805043513E+01  0.73805060722E+01  0.50400000000E-02 0. -1.
        -24    2    1    2    0    0  0.00000000000E+00  0.00000000000E+00  0.19739453642E+03  0.21215554686E+03  0.77751997111E+02 0.  0.
         66    2    3    3    0    0  0.42041150268E+01  0.38467715573E+02  0.89350191625E+02  0.97390433124E+02  0.19999990065E+01 0.  0.
         13    1    3    3    0    0 -0.42041150268E+01 -0.38467715573E+02  0.10804434479E+03  0.11476511373E+03  0.10566000000E+00 0. -1.
         13    1    4    4    0    0  0.32750092895E+01  0.24003919910E+02  0.56771691766E+02  0.61724792482E+02  0.10566000000E+00 0. -1.
        -13    1    4    4    0    0  0.55466842261E+00  0.67041713186E+01  0.14231445233E+02  0.15741625315E+02  0.10566000000E+00 0.  1.
         14    1    4    4    0    0  0.37443731468E+00  0.77596243441E+01  0.18347054626E+02  0.19924015326E+02  0.00000000000E+00 0. -1.
<mgrwt>
<rscale>  0 0.77751997E+02</rscale>
<asrwt>0</asrwt>
<pdfrwt beam="1">  1        1 0.11354625E-02 0.77751997E+02</pdfrwt>
<pdfrwt beam="2">  1       -2 0.31503848E-01 0.77751997E+02</pdfrwt>
<totfact> 0.90682113E+04</totfact>
</mgrwt>
</event>
<event>
 8    1  0.1241100E-024  0.7401099E+02  0.7818608E-02  0.1346961E+00
          1   -1    0    0  501    0  0.00000000000E+00  0.00000000000E+00  0.47707249275E+02  0.47707249542E+02  0.50400000000E-02 0. -1.
         -2   -1    0    0    0  501 -0.00000000000E+00 -0.00000000000E+00 -0.28704373667E+02  0.28704373781E+02  0.25500000000E-02 0.  1.
        -24    2    1    2    0    0 -0.35527136788E-14  0.00000000000E+00  0.19002875608E+02  0.76411623322E+02  0.74010991733E+02 0.  0.
         66    2    3    3    0    0  0.29552415286E+02  0.20415023671E+02  0.43210815505E+00  0.35976452881E+02  0.20000009277E+01 0.  0.
         13    1    3    3    0    0 -0.29552415286E+02 -0.20415023671E+02  0.18570767453E+02  0.40435170441E+02  0.10566000000E+00 0. -1.
         13    1    4    4    0    0  0.18391392728E+02  0.12610652208E+02 -0.49263510909E+00  0.22305284777E+02  0.10566000000E+00 0. -1.
        -13    1    4    4    0    0  0.10789664957E+02  0.76151702522E+01  0.77931342301E+00  0.13229746079E+02  0.10566000000E+00 0.  1.
         14    1    4    4    0    0  0.37135760104E+00  0.18920121040E+00  0.14542984113E+00  0.44142202546E+00  0.00000000000E+00 0. -1.
<mgrwt>
<rscale>  0 0.74010992E+02</rscale>
<asrwt>0</asrwt>
<pdfrwt beam="1">  1        1 0.73395768E-02 0.74010992E+02</pdfrwt>
<pdfrwt beam="2">  1       -2 0.44160575E-02 0.74010992E+02</pdfrwt>
<totfact> 0.16199662E+05</totfact>
</mgrwt>
</event>
<event>
 8    1  0.1241100E-024  0.7877991E+02  0.7818608E-02  0.1332550E+00
          1   -1    0    0  501    0  0.00000000000E+00  0.00000000000E+00  0.20562002967E+02  0.20562003585E+02  0.50400000000E-02 0. -1.
         -2   -1    0    0    0  501 -0.00000000000E+00 -0.00000000000E+00 -0.75458037893E+02  0.75458037936E+02  0.25500000000E-02 0.  1.
        -24    2    1    2    0    0  0.00000000000E+00 -0.35527136788E-14 -0.54896034926E+02  0.96020041521E+02  0.78779906849E+02 0.  0.
         66    2    3    3    0    0 -0.89853510389E+01 -0.20701172841E+02 -0.66777492450E+02  0.70516016599E+02  0.20000021876E+01 0.  0.
         13    1    3    3    0    0  0.89853510389E+01  0.20701172841E+02  0.11881457524E+02  0.25504024922E+02  0.10566000000E+00 0. -1.
         13    1    4    4    0    0 -0.51217742231E+00 -0.61856911298E+00 -0.24007842067E+01  0.25337486660E+01  0.10566000000E+00 0. -1.
        -13    1    4    4    0    0 -0.42927135020E+01 -0.11869271482E+02 -0.38079272101E+02  0.40116693813E+02  0.10566000000E+00 0.  1.
         14    1    4    4    0    0 -0.41804601146E+01 -0.82133322465E+01 -0.26297436142E+02  0.27865574119E+02  0.00000000000E+00 0. -1.
<mgrwt>
<rscale>  0 0.78779907E+02</rscale>
<asrwt>0</asrwt>
<pdfrwt beam="1">  1        1 0.31633852E-02 0.78779907E+02</pdfrwt>
<pdfrwt beam="2">  1       -2 0.11608929E-01 0.78779907E+02</pdfrwt>
<totfact> 0.11766943E+05</totfact>
</mgrwt>
</event>
<event>
 8    1  0.1241100E-024  0.7973299E+02  0.7818608E-02  0.1329811E+00
         -2   -1    0    0    0  501 -0.00000000000E+00  0.00000000000E+00  0.52477551369E+01  0.52477557565E+01  0.25500000000E-02 0.  1.
          1   -1    0    0  501    0  0.00000000000E+00 -0.00000000000E+00 -0.30286039662E+03  0.30286039666E+03  0.50400000000E-02 0. -1.
        -24    2    1    2    0    0  0.00000000000E+00  0.00000000000E+00 -0.29761264148E+03  0.30810815241E+03  0.79732987001E+02 0.  0.
         66    2    3    3    0    0  0.32323385473E+02 -0.20867774077E+02 -0.10891504606E+03  0.11552814586E+03  0.19999960740E+01 0.  0.
         13    1    3    3    0    0 -0.32323385473E+02  0.20867774077E+02 -0.18869759542E+03  0.19258000656E+03  0.10566000000E+00 0. -1.
         13    1    4    4    0    0  0.95413160276E+00 -0.47730994031E+00 -0.27195241244E+01  0.29232118284E+01  0.10566000000E+00 0.  1.
        -13    1    4    4    0    0  0.24288141273E+01 -0.16646671585E+01 -0.96868251513E+01  0.10125018536E+02  0.10566000000E+00 0.  1.
         14    1    4    4    0    0  0.28940439743E+02 -0.18725796978E+02 -0.96508696781E+02  0.10247991549E+03  0.00000000000E+00 0. -1.
<mgrwt>
<rscale>  0 0.79732987E+02</rscale>
<asrwt>0</asrwt>
<pdfrwt beam="1">  1        1 0.46593894E-01 0.79732987E+02</pdfrwt>
<pdfrwt beam="2">  1       -2 0.80734723E-03 0.79732987E+02</pdfrwt>
<totfact> 0.18234143E+05</totfact>
</mgrwt>
</event>
<event>
 8    1  0.1241100E-024  0.7888714E+02  0.7818608E-02  0.1332240E+00
         -2   -1    0    0    0  501 -0.00000000000E+00  0.00000000000E+00  0.60586409005E+02  0.60586409058E+02  0.25500000000E-02 0.  1.
          1   -1    0    0  501    0  0.00000000000E+00 -0.00000000000E+00 -0.25678945712E+02  0.25678946206E+02  0.50400000000E-02 0. -1.
        -24    2    1    2    0    0 -0.71054273576E-14  0.00000000000E+00  0.34907463293E+02  0.86265355265E+02  0.78887137896E+02 0.  0.
         66    2    3    3    0    0 -0.37923567138E+02 -0.14584781838E+01  0.29113237343E+02  0.47873841600E+02  0.20000044559E+01 0.  0.
         13    1    3    3    0    0  0.37923567138E+02  0.14584781838E+01  0.57942259503E+01  0.38391513665E+02  0.10566000000E+00 0. -1.
         13    1    4    4    0    0 -0.45489264073E+01  0.19010273931E+00  0.35512536668E+01  0.57750703158E+01  0.10566000000E+00 0. -1.
        -13    1    4    4    0    0 -0.73594271786E+01  0.25292375960E+00  0.57405617665E+01  0.93375774297E+01  0.10566000000E+00 0.  1.
         14    1    4    4    0    0 -0.26015213552E+02 -0.19015046827E+01  0.19821421909E+02  0.32761193854E+02  0.00000000000E+00 0. -1.
<mgrwt>
<rscale>  0 0.78887138E+02</rscale>
<asrwt>0</asrwt>
<pdfrwt beam="1">  1        1 0.39506072E-02 0.78887138E+02</pdfrwt>
<pdfrwt beam="2">  1       -2 0.93209858E-02 0.78887138E+02</pdfrwt>
<totfact> 0.12243714E+05</totfact>
</mgrwt>
</event>
<event>
 8    1  0.1740339E-024  0.7826575E+02  0.7818608E-02  0.1334046E+00
          1   -1    0    0  501    0  0.00000000000E+00  0.00000000000E+00  0.10231766081E+02  0.10231767322E+02  0.50400000000E-02 0. -1.
         -2   -1    0    0    0  501 -0.00000000000E+00 -0.00000000000E+00 -0.14966935084E+03  0.14966935086E+03  0.25500000000E-02 0.  1.
        -24    2    1    2    0    0 -0.17763568394E-14  0.00000000000E+00 -0.13943758476E+03  0.15990111818E+03  0.78265749551E+02 0.  0.
         66    2    3    3    0    0  0.10691592758E+02  0.92588184205E+01 -0.14425419044E+03  0.14495967486E+03  0.19999998150E+01 0.  0.
         13    1    3    3    0    0 -0.10691592758E+02 -0.92588184205E+01  0.48166056883E+01  0.14941443325E+02  0.10566000000E+00 0. -1.
         13    1    4    4    0    0  0.28515827716E+01  0.21850316780E+01 -0.36497224179E+02  0.36673756619E+02  0.10566000000E+00 0. -1.
        -13    1    4    4    0    0  0.78729715603E+01  0.69918215063E+01 -0.10481065245E+03  0.10533828022E+03  0.10566000000E+00 0.  1.
         14    1    4    4    0    0 -0.32961574367E-01  0.81965236245E-01 -0.29463138147E+01  0.29476380138E+01  0.00000000000E+00 0. -1.
<mgrwt>
<rscale>  0 0.78265750E+02</rscale>
<asrwt>0</asrwt>
<pdfrwt beam="1">  1        1 0.15741181E-02 0.78265750E+02</pdfrwt>
<pdfrwt beam="2">  1       -2 0.23026052E-01 0.78265750E+02</pdfrwt>
<totfact> 0.10006327E+05</totfact>
</mgrwt>
</event>
<event>
 8    1  0.1241100E-024  0.7984954E+02  0.7818608E-02  0.1329479E+00
          1   -1    0    0  501    0  0.00000000000E+00  0.00000000000E+00  0.16826536155E+03  0.16826536163E+03  0.50400000000E-02 0. -1.
         -2   -1    0    0    0  501 -0.00000000000E+00 -0.00000000000E+00 -0.94730556023E+01  0.94730559455E+01  0.25500000000E-02 0.  1.
        -24    2    1    2    0    0  0.00000000000E+00  0.00000000000E+00  0.15879230595E+03  0.17773841757E+03  0.79849537584E+02 0.  0.
         66    2    3    3    0    0 -0.34944531517E+02  0.22351358084E+01  0.36869321130E+02  0.50886766001E+02  0.19999996080E+01 0.  0.
         13    1    3    3    0    0  0.34944531517E+02 -0.22351358084E+01  0.12192298482E+03  0.12685165157E+03  0.10566000000E+00 0. -1.
         13    1    4    4    0    0 -0.74816154491E+01  0.48214926772E-01  0.87084132229E+01  0.11481485936E+02  0.10566000000E+00 0. -1.
        -13    1    4    4    0    0 -0.16173268817E+02  0.97534895394E+00  0.16155417279E+02  0.22880878508E+02  0.10566000000E+00 0. -1.
        -14    1    4    4    0    0 -0.11289647252E+02  0.12115719277E+01  0.12005490628E+02  0.16524401557E+02  0.00000000000E+00 0.  1.
<mgrwt>
<rscale>  0 0.79849538E+02</rscale>
<asrwt>0</asrwt>
<pdfrwt beam="1">  1        1 0.25886978E-01 0.79849538E+02</pdfrwt>
<pdfrwt beam="2">  1       -2 0.14573932E-02 0.79849538E+02</pdfrwt>
<totfact> 0.16211707E+05</totfact>
</mgrwt>
</event>
<event>
 8    1  0.1241100E-024  0.7931056E+02  0.7818608E-02  0.1331019E+00
         -2   -1    0    0    0  501 -0.00000000000E+00  0.00000000000E+00  0.52785302000E+02  0.52785302061E+02  0.25500000000E-02 0.  1.
          1   -1    0    0  501    0  0.00000000000E+00 -0.00000000000E+00 -0.29791268172E+02  0.29791268598E+02  0.50400000000E-02 0. -1.
        -24    2    1    2    0    0 -0.22204460493E-15  0.00000000000E+00  0.22994033828E+02  0.82576570659E+02  0.79310556865E+02 0.  0.
         66    2    3    3    0    0 -0.17860284771E+01  0.30396594674E+02  0.37914046561E+02  0.48668447599E+02  0.19999998889E+01 0.  0.
         13    1    3    3    0    0  0.17860284771E+01 -0.30396594674E+02 -0.14920012733E+02  0.33908123060E+02  0.10566000000E+00 0. -1.
         13    1    4    4    0    0  0.25540131287E+00  0.18873992511E+01  0.22425732290E+01  0.29441135316E+01  0.10566000000E+00 0. -1.
        -13    1    4    4    0    0 -0.11958901068E+01  0.20885148596E+02  0.26744860127E+02  0.33954650525E+02  0.10566000000E+00 0.  1.
         14    1    4    4    0    0 -0.84553968317E+00  0.76240468272E+01  0.89266132053E+01  0.11769683543E+02  0.00000000000E+00 0. -1.
<mgrwt>
<rscale>  0 0.79310557E+02</rscale>
<asrwt>0</asrwt>
<pdfrwt beam="1">  1        1 0.45832722E-02 0.79310557E+02</pdfrwt>
<pdfrwt beam="2">  1       -2 0.81208156E-02 0.79310557E+02</pdfrwt>
<totfact> 0.12383993E+05</totfact>
</mgrwt>
</event>
<event>
 8    1  0.1241100E-024  0.7274527E+02  0.7818608E-02  0.1350999E+00
         -2   -1    0    0    0  501 -0.00000000000E+00  0.00000000000E+00  0.11591944803E+02  0.11591945084E+02  0.25500000000E-02 0.  1.
          1   -1    0    0  501    0  0.00000000000E+00 -0.00000000000E+00 -0.11412827314E+03  0.11412827326E+03  0.50400000000E-02 0. -1.
        -24    2    1    2    0    0  0.00000000000E+00  0.35527136788E-14 -0.10253632834E+03  0.12572021834E+03  0.72745272490E+02 0.  0.
         66    2    3    3    0    0 -0.18349805831E+02 -0.31368634336E+02 -0.50430261231E+02  0.62192586651E+02  0.19999980951E+01 0.  0.
         13    1    3    3    0    0  0.18349805831E+02  0.31368634336E+02 -0.52106067111E+02  0.63527631689E+02  0.10566000000E+00 0. -1.
         13    1    4    4    0    0 -0.87218262883E+00 -0.19729061018E+01 -0.33901093400E+01  0.40195853514E+01  0.10566000000E+00 0. -1.
        -13    1    4    4    0    0 -0.38656151594E+01 -0.55760937058E+01 -0.89717507068E+01  0.11248967791E+02  0.10566000000E+00 0.  1.
        -14    1    4    4    0    0 -0.13612008043E+02 -0.23819634529E+02 -0.38068401184E+02  0.46924033509E+02  0.00000000000E+00 0.  1.
<mgrwt>
<rscale>  0 0.72745272E+02</rscale>
<asrwt>0</asrwt>
<pdfrwt beam="1">  1        1 0.17558195E-01 0.72745272E+02</pdfrwt>
<pdfrwt beam="2">  1       -2 0.17833762E-02 0.72745272E+02</pdfrwt>
<totfact> 0.19384893E+05</totfact>
</mgrwt>
</event>
<event>
 8    1  0.1241100E-024  0.8341120E+02  0.7818608E-02  0.1319640E+00
          1   -1    0    0  501    0  0.00000000000E+00  0.00000000000E+00  0.23508917627E+03  0.23508917632E+03  0.50400000000E-02 0. -1.
         -2   -1    0    0    0  501 -0.00000000000E+00 -0.00000000000E+00 -0.73987116208E+01  0.73987120603E+01  0.25500000000E-02 0.  1.
        -24    2    1    2    0    0  0.00000000000E+00  0.71054273576E-14  0.22769046465E+03  0.24248788838E+03  0.83411200212E+02 0.  0.
         66    2    3    3    0    0  0.13362162598E+02 -0.34209690595E+02  0.56609506212E+02  0.67509158753E+02  0.20000004984E+01 0.  0.
         13    1    3    3    0    0 -0.13362162598E+02  0.34209690595E+02  0.17108095843E+03  0.17497872963E+03  0.10566000000E+00 0. -1.
         13    1    4    4    0    0  0.19285913831E+01 -0.43271153566E+01  0.69000961698E+01  0.83705366148E+01  0.10566000000E+00 0. -1.
        -13    1    4    4    0    0  0.23980696828E+01 -0.75032782235E+01  0.13245301734E+02  0.15411005949E+02  0.10566000000E+00 0.  1.
        -14    1    4    4    0    0  0.90355015319E+01 -0.22379297014E+02  0.36464108309E+02  0.43727616189E+02  0.00000000000E+00 0.  1.
<mgrwt>
<rscale>  0 0.83411200E+02</rscale>
<asrwt>0</asrwt>
<pdfrwt beam="1">  1        1 0.36167566E-01 0.83411200E+02</pdfrwt>
<pdfrwt beam="2">  1       -2 0.11382633E-02 0.83411200E+02</pdfrwt>
<totfact> 0.15403231E+05</totfact>
</mgrwt>
</event>
<event>
 8    1  0.1241100E-024  0.8193045E+02  0.7818608E-02  0.1323661E+00
          1   -1    0    0  501    0  0.00000000000E+00  0.00000000000E+00  0.51355256579E+02  0.51355256827E+02  0.50400000000E-02 0. -1.
         -2   -1    0    0    0  501 -0.00000000000E+00 -0.00000000000E+00 -0.32677272165E+02  0.32677272265E+02  0.25500000000E-02 0.  1.
        -24    2    1    2    0    0  0.17763568394E-14 -0.35527136788E-14  0.18677984414E+02  0.84032529091E+02  0.81930451260E+02 0.  0.
         66    2    3    3    0    0 -0.14494453504E+02  0.29545640608E+02 -0.15634164981E+02  0.36489192845E+02  0.20000046226E+01 0.  0.
         13    1    3    3    0    0  0.14494453504E+02 -0.29545640608E+02  0.34312149395E+02  0.47543336247E+02  0.10566000000E+00 0. -1.
         13    1    4    4    0    0 -0.71809168444E+01  0.14339857092E+02 -0.68811676365E+01  0.17451610247E+02  0.10566000000E+00 0. -1.
        -13    1    4    4    0    0 -0.91444880910E+00  0.18951150410E+01 -0.14815404369E+01  0.25756171580E+01  0.10566000000E+00 0.  1.
        -14    1    4    4    0    0 -0.63990878504E+01  0.13310668475E+02 -0.72714569074E+01  0.16461965440E+02  0.00000000000E+00 0.  1.
<mgrwt>
<rscale>  0 0.81930451E+02</rscale>
<asrwt>0</asrwt>
<pdfrwt beam="1">  1        1 0.79008088E-02 0.81930451E+02</pdfrwt>
<pdfrwt beam="2">  1       -2 0.50272726E-02 0.81930451E+02</pdfrwt>
<totfact> 0.12364090E+05</totfact>
</mgrwt>
</event>
<event>
 8    1  0.1241100E-024  0.8377949E+02  0.7818608E-02  0.1318655E+00
         -2   -1    0    0    0  501 -0.00000000000E+00  0.00000000000E+00  0.14300222877E+03  0.14300222879E+03  0.25500000000E-02 0.  1.
          1   -1    0    0  501    0  0.00000000000E+00 -0.00000000000E+00 -0.12270793270E+02  0.12270794305E+02  0.50400000000E-02 0. -1.
        -24    2    1    2    0    0  0.00000000000E+00 -0.17763568394E-14  0.13073143550E+03  0.15527302310E+03  0.83779493159E+02 0.  0.
         66    2    3    3    0    0 -0.38587762137E+02  0.15748184572E+02  0.58053400414E+02  0.71492782874E+02  0.19999998162E+01 0.  0.
         13    1    3    3    0    0  0.38587762137E+02 -0.15748184572E+02  0.72678035086E+02  0.83780240224E+02  0.10566000000E+00 0. -1.
         13    1    4    4    0    0 -0.18017668481E+02  0.77397531227E+01  0.26927786336E+02  0.33311514479E+02  0.10566000000E+00 0. -1.
        -13    1    4    4    0    0 -0.52029011050E+01  0.25057078654E+01  0.87623546935E+01  0.10494702265E+02  0.10566000000E+00 0.  1.
         14    1    4    4    0    0 -0.15367192551E+02  0.55027235838E+01  0.22363259385E+02  0.27686566130E+02  0.00000000000E+00 0. -1.
<mgrwt>
<rscale>  0 0.83779493E+02</rscale>
<asrwt>0</asrwt>
<pdfrwt beam="1">  1        1 0.18878144E-02 0.83779493E+02</pdfrwt>
<pdfrwt beam="2">  1       -2 0.22000343E-01 0.83779493E+02</pdfrwt>
<totfact> 0.85222513E+04</totfact>
</mgrwt>
</event>
<event>
 8    1  0.1241100E-024  0.7987708E+02  0.7818608E-02  0.1329401E+00
          1   -1    0    0  501    0  0.00000000000E+00  0.00000000000E+00  0.65284874876E+02  0.65284875071E+02  0.50400000000E-02 0. -1.
         -2   -1    0    0    0  501 -0.00000000000E+00 -0.00000000000E+00 -0.24432718627E+02  0.24432718760E+02  0.25500000000E-02 0.  1.
        -24    2    1    2    0    0  0.00000000000E+00  0.71054273576E-14  0.40852156249E+02  0.89717593831E+02  0.79877080396E+02 0.  0.
         66    2    3    3    0    0 -0.88805675197E+01 -0.33647155492E+02 -0.15162951517E+01  0.34889750628E+02  0.19999989198E+01 0.  0.
         13    1    3    3    0    0  0.88805675197E+01  0.33647155492E+02  0.42368451401E+02  0.54827843203E+02  0.10566000000E+00 0. -1.
         13    1    4    4    0    0 -0.31328956649E+01 -0.14307940656E+02 -0.40635477149E+00  0.14652934495E+02  0.10566000000E+00 0. -1.
        -13    1    4    4    0    0 -0.47080079621E+01 -0.17108111001E+02 -0.10212749742E+01  0.17773771901E+02  0.10566000000E+00 0.  1.
        -14    1    4    4    0    0 -0.10396638927E+01 -0.22311038348E+01 -0.88665405989E-01  0.24630442314E+01  0.00000000000E+00 0.  1.
<mgrwt>
<rscale>  0 0.79877080E+02</rscale>
<asrwt>0</asrwt>
<pdfrwt beam="1">  1        1 0.10043827E-01 0.79877080E+02</pdfrwt>
<pdfrwt beam="2">  1       -2 0.37588798E-02 0.79877080E+02</pdfrwt>
<totfact> 0.13776951E+05</totfact>
</mgrwt>
</event>
<event>
 8    1  0.1241100E-024  0.8111158E+02  0.7818608E-02  0.1325926E+00
          1   -1    0    0  501    0  0.00000000000E+00  0.00000000000E+00  0.69544646548E+01  0.69544664811E+01  0.50400000000E-02 0. -1.
         -2   -1    0    0    0  501 -0.00000000000E+00 -0.00000000000E+00 -0.23650586730E+03  0.23650586732E+03  0.25500000000E-02 0.  1.
        -24    2    1    2    0    0  0.00000000000E+00  0.00000000000E+00 -0.22955140265E+03  0.24346033380E+03  0.81111575470E+02 0.  0.
         66    2    3    3    0    0 -0.32703129582E+02  0.20592211669E+02 -0.15151250333E+03  0.15637638099E+03  0.19999999932E+01 0.  0.
         13    1    3    3    0    0  0.32703129582E+02 -0.20592211669E+02 -0.78038899312E+02  0.87083952803E+02  0.10566000000E+00 0. -1.
         13    1    4    4    0    0 -0.73038268701E+01  0.41749667507E+01 -0.35761201212E+02  0.36737595328E+02  0.10566000000E+00 0. -1.
        -13    1    4    4    0    0 -0.23195138965E+02  0.14897127063E+02 -0.10483841176E+03  0.10840222604E+03  0.10566000000E+00 0.  1.
        -14    1    4    4    0    0 -0.22041637474E+01  0.15201178558E+01 -0.10912890367E+02  0.11236559628E+02  0.00000000000E+00 0.  1.
<mgrwt>
<rscale>  0 0.81111575E+02</rscale>
<asrwt>0</asrwt>
<pdfrwt beam="1">  1        1 0.10699180E-02 0.81111575E+02</pdfrwt>
<pdfrwt beam="2">  1       -2 0.36385512E-01 0.81111575E+02</pdfrwt>
<totfact> 0.76369814E+04</totfact>
</mgrwt>
</event>
<event>
 8    1  0.1241100E-024  0.7961682E+02  0.7818608E-02  0.1330142E+00
         -2   -1    0    0    0  501 -0.00000000000E+00  0.00000000000E+00  0.68445428896E+03  0.68445428897E+03  0.25500000000E-02 0.  1.
          1   -1    0    0  501    0  0.00000000000E+00 -0.00000000000E+00 -0.23152864651E+01  0.23152919508E+01  0.50400000000E-02 0. -1.
        -24    2    1    2    0    0  0.00000000000E+00  0.00000000000E+00  0.68213900250E+03  0.68676958092E+03  0.79616823261E+02 0.  0.
         66    2    3    3    0    0 -0.30338296740E+02 -0.40008979241E+01  0.56057387318E+03  0.56141204718E+03  0.20000001627E+01 0.  0.
         13    1    3    3    0    0  0.30338296740E+02  0.40008979241E+01  0.12156512932E+03  0.12535753373E+03  0.10566000000E+00 0. -1.
         13    1    4    4    0    0 -0.11658298688E+02 -0.18484273845E+01  0.23059080960E+03  0.23089275703E+03  0.10566000000E+00 0. -1.
        -13    1    4    4    0    0 -0.47245818451E+01 -0.86394842734E+00  0.85557068028E+02  0.85691838200E+02  0.10566000000E+00 0.  1.
         14    1    4    4    0    0 -0.13955416207E+02 -0.12885221123E+01  0.24442599555E+03  0.24482745195E+03  0.00000000000E+00 0. -1.
<mgrwt>
<rscale>  0 0.79616823E+02</rscale>
<asrwt>0</asrwt>
<pdfrwt beam="1">  1        1 0.35619792E-03 0.79616823E+02</pdfrwt>
<pdfrwt beam="2">  1       -2 0.10530078E+00 0.79616823E+02</pdfrwt>
<totfact> 0.39127637E+04</totfact>
</mgrwt>
</event>
<event>
 8    1  0.1241100E-024  0.8045732E+02  0.7818608E-02  0.1327759E+00
          1   -1    0    0  501    0  0.00000000000E+00  0.00000000000E+00  0.47974528578E+01  0.47974555052E+01  0.50400000000E-02 0. -1.
         -2   -1    0    0    0  501 -0.00000000000E+00 -0.00000000000E+00 -0.33733417836E+03  0.33733417837E+03  0.25500000000E-02 0.  1.
        -24    2    1    2    0    0  0.00000000000E+00  0.00000000000E+00 -0.33253672550E+03  0.34213163388E+03  0.80457324652E+02 0.  0.
         66    2    3    3    0    0 -0.23447612302E+02 -0.11676085943E+02 -0.29606490986E+03  0.29722811502E+03  0.20000000612E+01 0.  0.
         13    1    3    3    0    0  0.23447612302E+02  0.11676085943E+02 -0.36471815643E+02  0.44903518859E+02  0.10566000000E+00 0. -1.
         13    1    4    4    0    0 -0.91738313232E+01 -0.45789692048E+01 -0.11115517218E+03  0.11162710068E+03  0.10566000000E+00 0. -1.
        -13    1    4    4    0    0 -0.79312918258E+01 -0.39752186737E+01 -0.94698871074E+02  0.95113590513E+02  0.10566000000E+00 0.  1.
         14    1    4    4    0    0 -0.63424891528E+01 -0.31218980644E+01 -0.90210866611E+02  0.90487423827E+02  0.00000000000E+00 0. -1.
<mgrwt>
<rscale>  0 0.80457325E+02</rscale>
<asrwt>0</asrwt>
<pdfrwt beam="1">  1        1 0.73807014E-03 0.80457325E+02</pdfrwt>
<pdfrwt beam="2">  1       -2 0.51897547E-01 0.80457325E+02</pdfrwt>
<totfact> 0.64786935E+04</totfact>
</mgrwt>
</event>
<event>
 8    1  0.1241100E-024  0.7945349E+02  0.7818608E-02  0.1330610E+00
          1   -1    0    0  501    0  0.00000000000E+00  0.00000000000E+00  0.15793653983E+03  0.15793653991E+03  0.50400000000E-02 0. -1.
         -2   -1    0    0    0  501 -0.00000000000E+00 -0.00000000000E+00 -0.99927118824E+01  0.99927122078E+01  0.25500000000E-02 0.  1.
        -24    2    1    2    0    0  0.00000000000E+00 -0.35527136788E-14  0.14794382795E+03  0.16792925212E+03  0.79453492619E+02 0.  0.
         66    2    3    3    0    0  0.16164192424E+02  0.25750138013E+02  0.20056398632E+02  0.36477525369E+02  0.20000016413E+01 0.  0.
         13    1    3    3    0    0 -0.16164192424E+02 -0.25750138013E+02  0.12788742932E+03  0.13145172675E+03  0.10566000000E+00 0. -1.
         13    1    4    4    0    0  0.93297571161E+01  0.14354456498E+02  0.12052128897E+02  0.20937042871E+02  0.10566000000E+00 0. -1.
        -13    1    4    4    0    0  0.39450182172E+01  0.63998522756E+01  0.50475111393E+01  0.90559268228E+01  0.10566000000E+00 0.  1.
         14    1    4    4    0    0  0.28894170904E+01  0.49958292393E+01  0.29567585959E+01  0.64845556753E+01  0.00000000000E+00 0. -1.
<mgrwt>
<rscale>  0 0.79453493E+02</rscale>
<asrwt>0</asrwt>
<pdfrwt beam="1">  1        1 0.24297929E-01 0.79453493E+02</pdfrwt>
<pdfrwt beam="2">  1       -2 0.15373404E-02 0.79453493E+02</pdfrwt>
<totfact> 0.16234316E+05</totfact>
</mgrwt>
</event>
<event>
 8    1  0.1241100E-024  0.7997428E+02  0.7818608E-02  0.1329124E+00
          1   -1    0    0  501    0  0.00000000000E+00  0.00000000000E+00  0.41088057564E+01  0.41088088475E+01  0.50400000000E-02 0. -1.
         -2   -1    0    0    0  501 -0.00000000000E+00 -0.00000000000E+00 -0.38915701772E+03  0.38915701773E+03  0.25500000000E-02 0.  1.
        -24    2    1    2    0    0  0.00000000000E+00  0.88817841970E-15 -0.38504821196E+03  0.39326582657E+03  0.79974275964E+02 0.  0.
         66    2    3    3    0    0 -0.27050856708E+02 -0.56922698645E+01 -0.33455328657E+03  0.33569934814E+03  0.20000006387E+01 0.  0.
         13    1    3    3    0    0  0.27050856708E+02  0.56922698645E+01 -0.50494925394E+02  0.57566478435E+02  0.10566000000E+00 0. -1.
         13    1    4    4    0    0 -0.10567281754E+02 -0.18006895505E+01 -0.11933383993E+03  0.11981438329E+03  0.10566000000E+00 0. -1.
        -13    1    4    4    0    0 -0.10862193251E+02 -0.26203464753E+01 -0.14294056267E+03  0.14337666853E+03  0.10566000000E+00 0.  1.
         14    1    4    4    0    0 -0.56213817030E+01 -0.12712338387E+01 -0.72278883970E+02  0.72508296323E+02  0.00000000000E+00 0. -1.
<mgrwt>
<rscale>  0 0.79974276E+02</rscale>
<asrwt>0</asrwt>
<pdfrwt beam="1">  1        1 0.63212451E-03 0.79974276E+02</pdfrwt>
<pdfrwt beam="2">  1       -2 0.59870282E-01 0.79974276E+02</pdfrwt>
<totfact> 0.60219632E+04</totfact>
</mgrwt>
</event>
<event>
 8    1  0.1241100E-024  0.7968539E+02  0.7818608E-02  0.1329947E+00
         -2   -1    0    0    0  501 -0.00000000000E+00  0.00000000000E+00  0.16541130667E+02  0.16541130864E+02  0.25500000000E-02 0.  1.
          1   -1    0    0  501    0  0.00000000000E+00 -0.00000000000E+00 -0.95969281257E+02  0.95969281390E+02  0.50400000000E-02 0. -1.
        -24    2    1    2    0    0  0.35527136788E-14  0.00000000000E+00 -0.79428150590E+02  0.11251041225E+03  0.79685392383E+02 0.  0.
         66    2    3    3    0    0  0.24029858564E+02 -0.28477910205E+01  0.49077866686E+01  0.24771563995E+02  0.19999991186E+01 0.  0.
         13    1    3    3    0    0 -0.24029858564E+02  0.28477910205E+01 -0.84335937259E+02  0.87738848258E+02  0.10566000000E+00 0. -1.
         13    1    4    4    0    0  0.13372340163E+02 -0.11788448572E+01  0.23667265015E+01  0.13631643885E+02  0.10566000000E+00 0. -1.
        -13    1    4    4    0    0  0.86618098177E+01 -0.12053391059E+01  0.16249484215E+01  0.88955839092E+01  0.10566000000E+00 0.  1.
         14    1    4    4    0    0  0.19957085837E+01 -0.46360705731E+00  0.91611174562E+00  0.22443362015E+01  0.00000000000E+00 0. -1.
<mgrwt>
<rscale>  0 0.79685392E+02</rscale>
<asrwt>0</asrwt>
<pdfrwt beam="1">  1        1 0.14764505E-01 0.79685392E+02</pdfrwt>
<pdfrwt beam="2">  1       -2 0.25447894E-02 0.79685392E+02</pdfrwt>
<totfact> 0.14754655E+05</totfact>
</mgrwt>
</event>
<event>
 8    1  0.1241100E-024  0.8016818E+02  0.7818608E-02  0.1328575E+00
          1   -1    0    0  501    0  0.00000000000E+00  0.00000000000E+00  0.13510205077E+03  0.13510205086E+03  0.50400000000E-02 0. -1.
         -2   -1    0    0    0  501 -0.00000000000E+00 -0.00000000000E+00 -0.11892743758E+02  0.11892744032E+02  0.25500000000E-02 0.  1.
        -24    2    1    2    0    0  0.71054273576E-14  0.35527136788E-14  0.12320930701E+03  0.14699479489E+03  0.80168175680E+02 0.  0.
         66    2    3    3    0    0 -0.24570863776E+02 -0.15924036707E+02  0.11514435360E+02  0.31525934119E+02  0.20000021739E+01 0.  0.
         13    1    3    3    0    0  0.24570863776E+02  0.15924036707E+02  0.11169487165E+03  0.11546886077E+03  0.10566000000E+00 0. -1.
         13    1    4    4    0    0 -0.56275153204E+01 -0.43137562913E+01  0.21362855017E+01  0.74062339825E+01  0.10566000000E+00 0. -1.
        -13    1    4    4    0    0 -0.14536645592E+02 -0.90673974396E+01  0.73262764195E+01  0.18633766437E+02  0.10566000000E+00 0.  1.
         14    1    4    4    0    0 -0.44067028631E+01 -0.25428829756E+01  0.20518734391E+01  0.54859337000E+01  0.00000000000E+00 0. -1.
<mgrwt>
<rscale>  0 0.80168176E+02</rscale>
<asrwt>0</asrwt>
<pdfrwt beam="1">  1        1 0.20784931E-01 0.80168176E+02</pdfrwt>
<pdfrwt beam="2">  1       -2 0.18296529E-02 0.80168176E+02</pdfrwt>
<totfact> 0.15402953E+05</totfact>
</mgrwt>
</event>
<event>
 8    1  0.1241100E-024  0.8230475E+02  0.7818608E-02  0.1322635E+00
          1   -1    0    0  501    0  0.00000000000E+00  0.00000000000E+00  0.64936489813E+01  0.64936509372E+01  0.50400000000E-02 0. -1.
         -2   -1    0    0    0  501 -0.00000000000E+00 -0.00000000000E+00 -0.26079602435E+03  0.26079602436E+03  0.25500000000E-02 0.  1.
        -24    2    1    2    0    0  0.00000000000E+00  0.55511151231E-16 -0.25430237536E+03  0.26728967530E+03  0.82304753226E+02 0.  0.
         66    2    3    3    0    0  0.40580210412E+02  0.17875958237E+00 -0.10550677659E+03  0.11305956536E+03  0.19999952289E+01 0.  0.
         13    1    3    3    0    0 -0.40580210412E+02 -0.17875958237E+00 -0.14879559877E+03  0.15423010993E+03  0.10566000000E+00 0. -1.
         13    1    4    4    0    0  0.27438597852E+01 -0.19664343459E+00 -0.74142777150E+01  0.79088629545E+01  0.10566000000E+00 0. -1.
        -13    1    4    4    0    0  0.19702019395E+02 -0.40718112719E+00 -0.52655823902E+02  0.56222613951E+02  0.10566000000E+00 0.  1.
         14    1    4    4    0    0  0.18134331231E+02  0.78258414415E+00 -0.45436674975E+02  0.48928088456E+02  0.00000000000E+00 0. -1.
<mgrwt>
<rscale>  0 0.82304753E+02</rscale>
<asrwt>0</asrwt>
<pdfrwt beam="1">  1        1 0.99902327E-03 0.82304753E+02</pdfrwt>
<pdfrwt beam="2">  1       -2 0.40122457E-01 0.82304753E+02</pdfrwt>
<totfact> 0.70203337E+04</totfact>
</mgrwt>
</event>
<event>
 8    1  0.1241100E-024  0.8333739E+02  0.7818608E-02  0.1319839E+00
         -2   -1    0    0    0  501 -0.00000000000E+00  0.00000000000E+00  0.19135672122E+03  0.19135672123E+03  0.25500000000E-02 0.  1.
          1   -1    0    0  501    0  0.00000000000E+00 -0.00000000000E+00 -0.90735250627E+01  0.90735264625E+01  0.50400000000E-02 0. -1.
        -24    2    1    2    0    0  0.00000000000E+00 -0.88817841970E-15  0.18228319615E+03  0.20043024769E+03  0.83337390116E+02 0.  0.
         66    2    3    3    0    0  0.23972265940E+02  0.51931860920E+01  0.17213495586E+03  0.17388525455E+03  0.20000009145E+01 0.  0.
         13    1    3    3    0    0 -0.23972265940E+02 -0.51931860920E+01  0.10148240290E+02  0.26544993146E+02  0.10566000000E+00 0. -1.
         13    1    4    4    0    0  0.56421792700E+01  0.84009325001E+00  0.39721422903E+02  0.40129073563E+02  0.10566000000E+00 0. -1.
        -13    1    4    4    0    0  0.13138677622E+02  0.24551150796E+01  0.95654376759E+02  0.96583763630E+02  0.10566000000E+00 0.  1.
         14    1    4    4    0    0  0.51914090486E+01  0.18979777624E+01  0.36759156200E+02  0.37172417355E+02  0.00000000000E+00 0. -1.
<mgrwt>
<rscale>  0 0.83337390E+02</rscale>
<asrwt>0</asrwt>
<pdfrwt beam="1">  1        1 0.13959271E-02 0.83337390E+02</pdfrwt>
<pdfrwt beam="2">  1       -2 0.29439495E-01 0.83337390E+02</pdfrwt>
<totfact> 0.77918072E+04</totfact>
</mgrwt>
</event>
<event>
 8    1  0.1241100E-024  0.7942227E+02  0.7818608E-02  0.1330699E+00
          1   -1    0    0  501    0  0.00000000000E+00  0.00000000000E+00  0.20731879453E+03  0.20731879460E+03  0.50400000000E-02 0. -1.
         -2   -1    0    0    0  501 -0.00000000000E+00 -0.00000000000E+00 -0.76065184041E+01  0.76065188316E+01  0.25500000000E-02 0.  1.
        -24    2    1    2    0    0  0.00000000000E+00  0.00000000000E+00  0.19971227613E+03  0.21492531343E+03  0.79422270898E+02 0.  0.
         66    2    3    3    0    0  0.38112099829E+02  0.11064703695E+02  0.10018309772E+03  0.10777575281E+03  0.20000010030E+01 0.  0.
         13    1    3    3    0    0 -0.38112099829E+02 -0.11064703695E+02  0.99529178411E+02  0.10714956062E+03  0.10566000000E+00 0. -1.
         13    1    4    4    0    0  0.38695579439E+01  0.13041207188E+01  0.10272534912E+02  0.11054878881E+02  0.10566000000E+00 0. -1.
        -13    1    4    4    0    0  0.24381660192E+02  0.77815626509E+01  0.64721896925E+02  0.69598514184E+02  0.10566000000E+00 0.  1.
        -14    1    4    4    0    0  0.98608816925E+01  0.19790203251E+01  0.25188665882E+02  0.27122359745E+02  0.00000000000E+00 0.  1.
<mgrwt>
<rscale>  0 0.79422271E+02</rscale>
<asrwt>0</asrwt>
<pdfrwt beam="1">  1        1 0.31895201E-01 0.79422271E+02</pdfrwt>
<pdfrwt beam="2">  1       -2 0.11702336E-02 0.79422271E+02</pdfrwt>
<totfact> 0.17116672E+05</totfact>
</mgrwt>
</event>
<event>
 8    1  0.1241100E-024  0.7797017E+02  0.7818608E-02  0.1334913E+00
         -2   -1    0    0    0  501 -0.00000000000E+00  0.00000000000E+00  0.17887549765E+03  0.17887549767E+03  0.25500000000E-02 0.  1.
          1   -1    0    0  501    0  0.00000000000E+00 -0.00000000000E+00 -0.84966179618E+01  0.84966194566E+01  0.50400000000E-02 0. -1.
        -24    2    1    2    0    0  0.00000000000E+00  0.00000000000E+00  0.17037887969E+03  0.18737211712E+03  0.77970171424E+02 0.  0.
         66    2    3    3    0    0 -0.19300045727E+02  0.19100609460E+02  0.15238278737E+03  0.15479612060E+03  0.20000047495E+01 0.  0.
         13    1    3    3    0    0  0.19300045727E+02 -0.19100609460E+02  0.17996092316E+02  0.32575996524E+02  0.10566000000E+00 0. -1.
         13    1    4    4    0    0 -0.12364529822E+02  0.11803667142E+02  0.10016703176E+03  0.10161522313E+03  0.10566000000E+00 0. -1.
        -13    1    4    4    0    0 -0.46131194618E+01  0.49223235254E+01  0.36424960894E+02  0.37044555338E+02  0.10566000000E+00 0.  1.
         14    1    4    4    0    0 -0.23223964439E+01  0.23746187934E+01  0.15790794718E+02  0.16136342135E+02  0.00000000000E+00 0. -1.
<mgrwt>
<rscale>  0 0.77970171E+02</rscale>
<asrwt>0</asrwt>
<pdfrwt beam="1">  1        1 0.13071722E-02 0.77970171E+02</pdfrwt>
<pdfrwt beam="2">  1       -2 0.27519307E-01 0.77970171E+02</pdfrwt>
<totfact> 0.94938663E+04</totfact>
</mgrwt>
</event>
<event>
 8    1  0.1241100E-024  0.8472786E+02  0.7818608E-02  0.1316146E+00
         -2   -1    0    0    0  501 -0.00000000000E+00  0.00000000000E+00  0.74971809016E+01  0.74971813353E+01  0.25500000000E-02 0.  1.
          1   -1    0    0  501    0  0.00000000000E+00 -0.00000000000E+00 -0.23938366391E+03  0.23938366397E+03  0.50400000000E-02 0. -1.
        -24    2    1    2    0    0 -0.71054273576E-14  0.88817841970E-15 -0.23188648301E+03  0.24688084530E+03  0.84727863028E+02 0.  0.
         66    2    3    3    0    0  0.32774477860E+02 -0.73153665603E+01 -0.40866587952E+02  0.52931644582E+02  0.20000001223E+01 0.  0.
         13    1    3    3    0    0 -0.32774477860E+02  0.73153665603E+01 -0.19101989506E+03  0.19394920072E+03  0.10566000000E+00 0. -1.
         13    1    4    4    0    0  0.23004047156E+02 -0.48887426826E+01 -0.27556436633E+02  0.36227811893E+02  0.10566000000E+00 0. -1.
        -13    1    4    4    0    0  0.85546882612E+01 -0.18803813654E+01 -0.11577261915E+02  0.14517667953E+02  0.10566000000E+00 0.  1.
         14    1    4    4    0    0  0.12157424423E+01 -0.54624251225E+00 -0.17328894041E+01  0.21861647365E+01  0.00000000000E+00 0. -1.
<mgrwt>
<rscale>  0 0.84727863E+02</rscale>
<asrwt>0</asrwt>
<pdfrwt beam="1">  1        1 0.36828250E-01 0.84727863E+02</pdfrwt>
<pdfrwt beam="2">  1       -2 0.11534127E-02 0.84727863E+02</pdfrwt>
<totfact> 0.14827445E+05</totfact>
</mgrwt>
</event>
<event>
 8    1  0.1241100E-024  0.8085316E+02  0.7818608E-02  0.1326648E+00
          1   -1    0    0  501    0  0.00000000000E+00  0.00000000000E+00  0.96118433523E+02  0.96118433655E+02  0.50400000000E-02 0. -1.
         -2   -1    0    0    0  501 -0.00000000000E+00 -0.00000000000E+00 -0.17003068543E+02  0.17003068735E+02  0.25500000000E-02 0.  1.
        -24    2    1    2    0    0  0.00000000000E+00  0.44408920985E-15  0.79115364980E+02  0.11312150239E+03  0.80853159042E+02 0.  0.
         66    2    3    3    0    0 -0.37475086493E+02  0.33022235165E+01  0.18971030234E+02  0.42180407432E+02  0.19999988009E+01 0.  0.
         13    1    3    3    0    0  0.37475086493E+02 -0.33022235165E+01  0.60144334745E+02  0.70941094958E+02  0.10566000000E+00 0. -1.
         13    1    4    4    0    0 -0.12238927235E+02  0.58867109107E+00  0.56159733545E+01  0.13479176320E+02  0.10566000000E+00 0. -1.
        -13    1    4    4    0    0 -0.18381298984E+02  0.24567595506E+01  0.97775982644E+01  0.20964742108E+02  0.10566000000E+00 0.  1.
        -14    1    4    4    0    0 -0.68548602740E+01  0.25679287489E+00  0.35774586152E+01  0.77364890034E+01  0.00000000000E+00 0.  1.
<mgrwt>
<rscale>  0 0.80853159E+02</rscale>
<asrwt>0</asrwt>
<pdfrwt beam="1">  1        1 0.14787451E-01 0.80853159E+02</pdfrwt>
<pdfrwt beam="2">  1       -2 0.26158568E-02 0.80853159E+02</pdfrwt>
<totfact> 0.14188484E+05</totfact>
</mgrwt>
</event>
<event>
 8    1  0.1287558E-024  0.7887128E+02  0.7818608E-02  0.1332285E+00
          1   -1    0    0  501    0  0.00000000000E+00  0.00000000000E+00  0.13237793300E+03  0.13237793310E+03  0.50400000000E-02 0. -1.
         -2   -1    0    0    0  501 -0.00000000000E+00 -0.00000000000E+00 -0.11747951932E+02  0.11747952209E+02  0.25500000000E-02 0.  1.
        -24    2    1    2    0    0  0.00000000000E+00  0.00000000000E+00  0.12062998107E+03  0.14412588531E+03  0.78871277932E+02 0.  0.
         66    2    3    3    0    0  0.64547865740E+01  0.30018833646E+02  0.15207620610E+02  0.34322971447E+02  0.20000002802E+01 0.  0.
         13    1    3    3    0    0 -0.64547865740E+01 -0.30018833646E+02  0.10542236046E+03  0.10980291386E+03  0.10566000000E+00 0. -1.
         13    1    4    4    0    0  0.28153548272E+01  0.14063536377E+02  0.65518985524E+01  0.15768570541E+02  0.10566000000E+00 0. -1.
        -13    1    4    4    0    0  0.29904513372E+01  0.14586366008E+02  0.77010434040E+01  0.16763713970E+02  0.10566000000E+00 0.  1.
         14    1    4    4    0    0  0.64898040965E+00  0.13689312603E+01  0.95467865378E+00  0.17906869351E+01  0.00000000000E+00 0. -1.
<mgrwt>
<rscale>  0 0.78871278E+02</rscale>
<asrwt>0</asrwt>
<pdfrwt beam="1">  1        1 0.20365837E-01 0.78871278E+02</pdfrwt>
<pdfrwt beam="2">  1       -2 0.18073771E-02 0.78871278E+02</pdfrwt>
<totfact> 0.16031781E+05</totfact>
</mgrwt>
</event>
<event>
 8    1  0.1241100E-024  0.8882559E+02  0.7818608E-02  0.1305721E+00
          1   -1    0    0  501    0  0.00000000000E+00  0.00000000000E+00  0.27803940766E+03  0.27803940770E+03  0.50400000000E-02 0. -1.
         -2   -1    0    0    0  501 -0.00000000000E+00 -0.00000000000E+00 -0.70943040118E+01  0.70943044701E+01  0.25500000000E-02 0.  1.
        -24    2    1    2    0    0  0.71054273576E-14  0.00000000000E+00  0.27094510365E+03  0.28513371217E+03  0.88825585437E+02 0.  0.
         66    2    3    3    0    0  0.41407918570E+02 -0.42019241362E+01  0.85996152243E+02  0.95559458447E+02  0.20000028454E+01 0.  0.
         13    1    3    3    0    0 -0.41407918570E+02  0.42019241362E+01  0.18494895140E+03  0.18957425373E+03  0.10566000000E+00 0. -1.
         13    1    4    4    0    0  0.29867660835E+01 -0.34252394189E+00  0.51357782693E+01  0.59519305066E+01  0.10566000000E+00 0. -1.
        -13    1    4    4    0    0  0.20149574208E+02 -0.19851716628E+01  0.42447317386E+02  0.47029056600E+02  0.10566000000E+00 0.  1.
         14    1    4    4    0    0  0.18271578279E+02 -0.18742285315E+01  0.38413056587E+02  0.42578471341E+02  0.00000000000E+00 0. -1.
<mgrwt>
<rscale>  0 0.88825585E+02</rscale>
<asrwt>0</asrwt>
<pdfrwt beam="1">  1        1 0.42775286E-01 0.88825585E+02</pdfrwt>
<pdfrwt beam="2">  1       -2 0.10914316E-02 0.88825585E+02</pdfrwt>
<totfact> 0.13467930E+05</totfact>
</mgrwt>
</event>
<event>
 8    1  0.1241100E-024  0.8007685E+02  0.7818608E-02  0.1328833E+00
          1   -1    0    0  501    0  0.00000000000E+00  0.00000000000E+00  0.64165800864E+01  0.64165820657E+01  0.50400000000E-02 0. -1.
         -2   -1    0    0    0  501 -0.00000000000E+00 -0.00000000000E+00 -0.24983329900E+03  0.24983329901E+03  0.25500000000E-02 0.  1.
        -24    2    1    2    0    0  0.00000000000E+00  0.35527136788E-14 -0.24341671891E+03  0.25624988107E+03  0.80076853747E+02 0.  0.
         66    2    3    3    0    0  0.25690509419E+02 -0.27397559826E+02 -0.77623144450E+02  0.86255325118E+02  0.19999995829E+01 0.  0.
         13    1    3    3    0    0 -0.25690509419E+02  0.27397559826E+02 -0.16579357446E+03  0.16999455596E+03  0.10566000000E+00 0. -1.
         13    1    4    4    0    0  0.34285653441E+01 -0.35454254419E+01 -0.90128354255E+01  0.10274603074E+02  0.10566000000E+00 0. -1.
        -13    1    4    4    0    0  0.10156591925E+02 -0.10150598822E+02 -0.30615933694E+02  0.33816232434E+02  0.10566000000E+00 0.  1.
        -14    1    4    4    0    0  0.12105352149E+02 -0.13701535562E+02 -0.37994375330E+02  0.42164489610E+02  0.00000000000E+00 0.  1.
<mgrwt>
<rscale>  0 0.80076854E+02</rscale>
<asrwt>0</asrwt>
<pdfrwt beam="1">  1        1 0.98716652E-03 0.80076854E+02</pdfrwt>
<pdfrwt beam="2">  1       -2 0.38435885E-01 0.80076854E+02</pdfrwt>
<totfact> 0.76948632E+04</totfact>
</mgrwt>
</event>
<event>
 8    1  0.1241100E-024  0.8098726E+02  0.7818608E-02  0.1326273E+00
         -2   -1    0    0    0  501 -0.00000000000E+00  0.00000000000E+00  0.98433602564E+02  0.98433602597E+02  0.25500000000E-02 0.  1.
          1   -1    0    0  501    0  0.00000000000E+00 -0.00000000000E+00 -0.16658275869E+02  0.16658276631E+02  0.50400000000E-02 0. -1.
        -24    2    1    2    0    0 -0.35527136788E-14 -0.35527136788E-14  0.81775326695E+02  0.11509187923E+03  0.80987262011E+02 0.  0.
         66    2    3    3    0    0 -0.30475122763E+02  0.21526534763E+02  0.63183851758E+02  0.73405203770E+02  0.20000028242E+01 0.  0.
         13    1    3    3    0    0  0.30475122763E+02 -0.21526534763E+02  0.18591474938E+02  0.41686675458E+02  0.10566000000E+00 0. -1.
         13    1    4    4    0    0 -0.23614865452E+01  0.15360386653E+01  0.40257578511E+01  0.49146641590E+01  0.10566000000E+00 0. -1.
        -13    1    4    4    0    0 -0.48954771041E+01  0.40034732528E+01  0.10791546045E+02  0.12508482092E+02  0.10566000000E+00 0.  1.
        -14    1    4    4    0    0 -0.23218159114E+02  0.15987022844E+02  0.48366547861E+02  0.55982057519E+02  0.00000000000E+00 0.  1.
<mgrwt>
<rscale>  0 0.80987262E+02</rscale>
<asrwt>0</asrwt>
<pdfrwt beam="1">  1        1 0.25628117E-02 0.80987262E+02</pdfrwt>
<pdfrwt beam="2">  1       -2 0.15143631E-01 0.80987262E+02</pdfrwt>
<totfact> 0.10325002E+05</totfact>
</mgrwt>
</event>
<event>
 8    1  0.1241100E-024  0.8982544E+02  0.7818608E-02  0.1303275E+00
         -2   -1    0    0    0  501 -0.00000000000E+00  0.00000000000E+00  0.81297060674E+01  0.81297064673E+01  0.25500000000E-02 0.  1.
          1   -1    0    0  501    0  0.00000000000E+00 -0.00000000000E+00 -0.24812118100E+03  0.24812118105E+03  0.50400000000E-02 0. -1.
        -24    2    1    2    0    0  0.00000000000E+00  0.00000000000E+00 -0.23999147493E+03  0.25625088752E+03  0.89825438010E+02 0.  0.
         66    2    3    3    0    0  0.20190950060E+01 -0.37068075967E+02 -0.48052923750E+02  0.60755267121E+02  0.20000003557E+01 0.  0.
         13    1    3    3    0    0 -0.20190950060E+01  0.37068075967E+02 -0.19193855118E+03  0.19549562040E+03  0.10566000000E+00 0. -1.
         13    1    4    4    0    0  0.92449217098E+00 -0.21364305803E+02 -0.28058818413E+02  0.35278842144E+02  0.10566000000E+00 0. -1.
        -13    1    4    4    0    0  0.11720901294E+01 -0.81739291346E+01 -0.10533376747E+02  0.13384696579E+02  0.10566000000E+00 0.  1.
         14    1    4    4    0    0 -0.77487294404E-01 -0.75298410294E+01 -0.94607285894E+01  0.12091728398E+02  0.00000000000E+00 0. -1.
<mgrwt>
<rscale>  0 0.89825438E+02</rscale>
<asrwt>0</asrwt>
<pdfrwt beam="1">  1        1 0.38172484E-01 0.89825438E+02</pdfrwt>
<pdfrwt beam="2">  1       -2 0.12507242E-02 0.89825438E+02</pdfrwt>
<totfact> 0.12776626E+05</totfact>
</mgrwt>
</event>
<event>
 8    1  0.1241100E-024  0.7952239E+02  0.7818608E-02  0.1330412E+00
          1   -1    0    0  501    0  0.00000000000E+00  0.00000000000E+00  0.63797555109E+01  0.63797575017E+01  0.50400000000E-02 0. -1.
         -2   -1    0    0    0  501 -0.00000000000E+00 -0.00000000000E+00 -0.24780765559E+03  0.24780765560E+03  0.25500000000E-02 0.  1.
        -24    2    1    2    0    0  0.35527136788E-14  0.00000000000E+00 -0.24142790008E+03  0.25418741311E+03  0.79522387064E+02 0.  0.
         66    2    3    3    0    0  0.27074743738E+02  0.49269427389E+01 -0.21241278534E+03  0.21419735734E+03  0.19999997779E+01 0.  0.
         13    1    3    3    0    0 -0.27074743738E+02 -0.49269427389E+01 -0.29015114736E+02  0.39990055770E+02  0.10566000000E+00 0. -1.
         13    1    4    4    0    0  0.35727495032E+01  0.55425463880E+00 -0.25339452713E+02  0.25596303738E+02  0.10566000000E+00 0. -1.
        -13    1    4    4    0    0  0.48657899266E+00 -0.12441259809E-01 -0.27648718716E+01  0.28093761590E+01  0.10566000000E+00 0. -1.
        -14    1    4    4    0    0  0.23015415243E+02  0.43851293600E+01 -0.18430846076E+03  0.18579167744E+03  0.00000000000E+00 0.  1.
<mgrwt>
<rscale>  0 0.79522387E+02</rscale>
<asrwt>0</asrwt>
<pdfrwt beam="1">  1        1 0.98150119E-03 0.79522387E+02</pdfrwt>
<pdfrwt beam="2">  1       -2 0.38124247E-01 0.79522387E+02</pdfrwt>
<totfact> 0.78645190E+04</totfact>
</mgrwt>
</event>
<event>
 8    1  0.1241100E-024  0.8162761E+02  0.7818608E-02  0.1324495E+00
          1   -1    0    0  501    0  0.00000000000E+00  0.00000000000E+00  0.95300869747E+02  0.95300869880E+02  0.50400000000E-02 0. -1.
         -2   -1    0    0    0  501 -0.00000000000E+00 -0.00000000000E+00 -0.17479030743E+02  0.17479030929E+02  0.25500000000E-02 0.  1.
        -24    2    1    2    0    0 -0.35527136788E-14 -0.88817841970E-15  0.77821839003E+02  0.11277990081E+03  0.81627614205E+02 0.  0.
         66    2    3    3    0    0 -0.18929010343E+02 -0.41813387754E+01 -0.10650478525E+02  0.22208640691E+02  0.20000004952E+01 0.  0.
         13    1    3    3    0    0  0.18929010343E+02  0.41813387754E+01  0.88472317529E+02  0.90571260118E+02  0.10566000000E+00 0. -1.
         13    1    4    4    0    0 -0.49703129866E+01 -0.10513295624E+01 -0.20786794722E+01  0.54901163391E+01  0.10566000000E+00 0. -1.
        -13    1    4    4    0    0 -0.22398131216E+01 -0.76586304127E-01 -0.13629022698E+01  0.26251275996E+01  0.10566000000E+00 0.  1.
        -14    1    4    4    0    0 -0.11718884235E+02 -0.30534229088E+01 -0.72088967835E+01  0.14093396752E+02  0.00000000000E+00 0.  1.
<mgrwt>
<rscale>  0 0.81627614E+02</rscale>
<asrwt>0</asrwt>
<pdfrwt beam="1">  1        1 0.14661672E-01 0.81627614E+02</pdfrwt>
<pdfrwt beam="2">  1       -2 0.26890816E-02 0.81627614E+02</pdfrwt>
<totfact> 0.13806531E+05</totfact>
</mgrwt>
</event>
<event>
 8    1  0.1241100E-024  0.8000702E+02  0.7818608E-02  0.1329032E+00
          1   -1    0    0  501    0  0.00000000000E+00  0.00000000000E+00  0.23531580964E+03  0.23531580969E+03  0.50400000000E-02 0. -1.
         -2   -1    0    0    0  501 -0.00000000000E+00 -0.00000000000E+00 -0.68005669339E+01  0.68005674120E+01  0.25500000000E-02 0.  1.
        -24    2    1    2    0    0  0.00000000000E+00  0.00000000000E+00  0.22851524270E+03  0.24211637710E+03  0.80007024153E+02 0.  0.
         66    2    3    3    0    0 -0.65794239481E+01 -0.39305431840E+02  0.10472562589E+03  0.11206990008E+03  0.19999984938E+01 0.  0.
         13    1    3    3    0    0  0.65794239481E+01  0.39305431840E+02  0.12378961681E+03  0.13004647702E+03  0.10566000000E+00 0. -1.
         13    1    4    4    0    0 -0.96018202276E+00 -0.55274006550E+01  0.13436148606E+02  0.14560747265E+02  0.10566000000E+00 0. -1.
        -13    1    4    4    0    0 -0.54726188994E+01 -0.33257392569E+02  0.90229551255E+02  0.96319192282E+02  0.10566000000E+00 0.  1.
        -14    1    4    4    0    0 -0.14662302601E+00 -0.52063861667E+00  0.10599260286E+01  0.11899605317E+01  0.00000000000E+00 0.  1.
<mgrwt>
<rscale>  0 0.80007024E+02</rscale>
<asrwt>0</asrwt>
<pdfrwt beam="1">  1        1 0.36202431E-01 0.80007024E+02</pdfrwt>
<pdfrwt beam="2">  1       -2 0.10462411E-02 0.80007024E+02</pdfrwt>
<totfact> 0.17206916E+05</totfact>
</mgrwt>
</event>
<event>
 8    1  0.1241100E-024  0.8022142E+02  0.7818608E-02  0.1328424E+00
         -2   -1    0    0    0  501 -0.00000000000E+00  0.00000000000E+00  0.10260947044E+02  0.10260947360E+02  0.25500000000E-02 0.  1.
          1   -1    0    0  501    0  0.00000000000E+00 -0.00000000000E+00 -0.15679537576E+03  0.15679537584E+03  0.50400000000E-02 0. -1.
        -24    2    1    2    0    0  0.00000000000E+00 -0.71054273576E-14 -0.14653442871E+03  0.16705632320E+03  0.80221420595E+02 0.  0.
         66    2    3    3    0    0  0.10979339698E+02  0.38497689664E+02 -0.69021533358E+02  0.79815976340E+02  0.20000005831E+01 0.  0.
         13    1    3    3    0    0 -0.10979339698E+02 -0.38497689664E+02 -0.77512895356E+02  0.87240346860E+02  0.10566000000E+00 0. -1.
         13    1    4    4    0    0  0.41242935649E+01  0.14028215092E+02 -0.23412743379E+02  0.27603773884E+02  0.10566000000E+00 0.  1.
        -13    1    4    4    0    0  0.17742972244E+01  0.66174919842E+01 -0.12633687342E+02  0.14372214537E+02  0.10566000000E+00 0.  1.
         14    1    4    4    0    0  0.50807489089E+01  0.17851982587E+02 -0.32975102637E+02  0.37839987919E+02  0.00000000000E+00 0. -1.
<mgrwt>
<rscale>  0 0.80221421E+02</rscale>
<asrwt>0</asrwt>
<pdfrwt beam="1">  1        1 0.24122364E-01 0.80221421E+02</pdfrwt>
<pdfrwt beam="2">  1       -2 0.15786074E-02 0.80221421E+02</pdfrwt>
<totfact> 0.15801594E+05</totfact>
</mgrwt>
</event>
<event>
 8    1  0.1241100E-024  0.7783841E+02  0.7818608E-02  0.1335300E+00
         -2   -1    0    0    0  501 -0.00000000000E+00  0.00000000000E+00  0.34337496580E+02  0.34337496675E+02  0.25500000000E-02 0.  1.
          1   -1    0    0  501    0  0.00000000000E+00 -0.00000000000E+00 -0.44112253422E+02  0.44112253710E+02  0.50400000000E-02 0. -1.
        -24    2    1    2    0    0  0.00000000000E+00  0.00000000000E+00 -0.97747568414E+01  0.78449750384E+02  0.77838406099E+02 0.  0.
         66    2    3    3    0    0  0.12660260916E+02 -0.25412125343E+02  0.21900907386E+02  0.35912505655E+02  0.19999993012E+01 0.  0.
         13    1    3    3    0    0 -0.12660260916E+02  0.25412125343E+02 -0.31675664227E+02  0.42537244729E+02  0.10566000000E+00 0. -1.
         13    1    4    4    0    0  0.44184072507E+01 -0.10280910782E+02  0.82645831451E+01  0.13911647916E+02  0.10566000000E+00 0. -1.
        -13    1    4    4    0    0  0.15615822561E+01 -0.21322626287E+01  0.22866516294E+01  0.34964300036E+01  0.10566000000E+00 0.  1.
        -14    1    4    4    0    0  0.66802714090E+01 -0.12998951932E+02  0.11349672611E+02  0.18504427735E+02  0.00000000000E+00 0.  1.
<mgrwt>
<rscale>  0 0.77838406E+02</rscale>
<asrwt>0</asrwt>
<pdfrwt beam="1">  1        1 0.67865006E-02 0.77838406E+02</pdfrwt>
<pdfrwt beam="2">  1       -2 0.52826918E-02 0.77838406E+02</pdfrwt>
<totfact> 0.13924788E+05</totfact>
</mgrwt>
</event>
<event>
 8    1  0.1241100E-024  0.8026863E+02  0.7818608E-02  0.1328291E+00
          1   -1    0    0  501    0  0.00000000000E+00  0.00000000000E+00  0.47393162532E+01  0.47393189330E+01  0.50400000000E-02 0. -1.
         -2   -1    0    0    0  501 -0.00000000000E+00 -0.00000000000E+00 -0.33987236650E+03  0.33987236651E+03  0.25500000000E-02 0.  1.
        -24    2    1    2    0    0  0.00000000000E+00 -0.35527136788E-14 -0.33513305025E+03  0.34461168544E+03  0.80268626348E+02 0.  0.
         66    2    3    3    0    0 -0.32231841321E+02 -0.21412756811E+02 -0.21297561708E+03  0.21647173309E+03  0.20000008322E+01 0.  0.
         13    1    3    3    0    0  0.32231841321E+02  0.21412756811E+02 -0.12215743316E+03  0.12813995236E+03  0.10566000000E+00 0. -1.
         13    1    4    4    0    0 -0.17146829907E+01 -0.13218025957E+01 -0.13294778047E+02  0.13470322462E+02  0.10566000000E+00 0. -1.
        -13    1    4    4    0    0 -0.28890308447E+02 -0.18632470187E+02 -0.18699870878E+03  0.19013244625E+03  0.10566000000E+00 0.  1.
        -14    1    4    4    0    0 -0.16268498841E+01 -0.14584840283E+01 -0.12682130258E+02  0.12868964375E+02  0.00000000000E+00 0.  1.
<mgrwt>
<rscale>  0 0.80268626E+02</rscale>
<asrwt>0</asrwt>
<pdfrwt beam="1">  1        1 0.72912606E-03 0.80268626E+02</pdfrwt>
<pdfrwt beam="2">  1       -2 0.52288037E-01 0.80268626E+02</pdfrwt>
<totfact> 0.64892661E+04</totfact>
</mgrwt>
</event>
<event>
 8    1  0.1241100E-024  0.7322180E+02  0.7818608E-02  0.1349468E+00
          1   -1    0    0  501    0  0.00000000000E+00  0.00000000000E+00  0.50918049735E+01  0.50918074679E+01  0.50400000000E-02 0. -1.
         -2   -1    0    0    0  501 -0.00000000000E+00 -0.00000000000E+00 -0.26323821506E+03  0.26323821507E+03  0.25500000000E-02 0.  1.
        -24    2    1    2    0    0  0.17763568394E-14  0.00000000000E+00 -0.25814641009E+03  0.26833002254E+03  0.73221799731E+02 0.  0.
         66    2    3    3    0    0 -0.15417811724E+02 -0.91203217501E+01 -0.24606220178E+03  0.24672149548E+03  0.20000004229E+01 0.  0.
         13    1    3    3    0    0  0.15417811724E+02  0.91203217501E+01 -0.12084208311E+02  0.21608527061E+02  0.10566000000E+00 0. -1.
         13    1    4    4    0    0 -0.53832894336E+00 -0.61601782654E+00 -0.81739891433E+01  0.82155059835E+01  0.10566000000E+00 0.  1.
        -13    1    4    4    0    0 -0.94645421228E+01 -0.57920225746E+01 -0.15197535244E+03  0.15237993305E+03  0.10566000000E+00 0.  1.
         14    1    4    4    0    0 -0.54149406584E+01 -0.27122813490E+01 -0.85912860199E+02  0.86126056452E+02  0.00000000000E+00 0. -1.
<mgrwt>
<rscale>  0 0.73221800E+02</rscale>
<asrwt>0</asrwt>
<pdfrwt beam="1">  1        1 0.78335501E-03 0.73221800E+02</pdfrwt>
<pdfrwt beam="2">  1       -2 0.40498176E-01 0.73221800E+02</pdfrwt>
<totfact> 0.94447358E+04</totfact>
</mgrwt>
</event>
<event>
 8    1  0.1241100E-024  0.8279841E+02  0.7818608E-02  0.1321292E+00
          1   -1    0    0  501    0  0.00000000000E+00  0.00000000000E+00  0.91042424854E+01  0.91042438805E+01  0.50400000000E-02 0. -1.
         -2   -1    0    0    0  501 -0.00000000000E+00 -0.00000000000E+00 -0.18825224375E+03  0.18825224377E+03  0.25500000000E-02 0.  1.
        -24    2    1    2    0    0  0.00000000000E+00 -0.17763568394E-14 -0.17914800127E+03  0.19735648765E+03  0.82798410973E+02 0.  0.
         66    2    3    3    0    0 -0.20683266610E+02  0.75828191939E+01 -0.17310556576E+03  0.17451313292E+03  0.19999997237E+01 0.  0.
         13    1    3    3    0    0  0.20683266610E+02 -0.75828191939E+01 -0.60424355070E+01  0.22843354733E+02  0.10566000000E+00 0. -1.
         13    1    4    4    0    0 -0.12035860561E+01  0.39841504447E+00 -0.13032769241E+02  0.13094716189E+02  0.10566000000E+00 0. -1.
        -13    1    4    4    0    0 -0.96553141184E+01  0.37258092266E+01 -0.84397724468E+02  0.85029958276E+02  0.10566000000E+00 0.  1.
        -14    1    4    4    0    0 -0.98243664350E+01  0.34585949228E+01 -0.75675072051E+02  0.76388458451E+02  0.00000000000E+00 0.  1.
<mgrwt>
<rscale>  0 0.82798411E+02</rscale>
<asrwt>0</asrwt>
<pdfrwt beam="1">  1        1 0.14006529E-02 0.82798411E+02</pdfrwt>
<pdfrwt beam="2">  1       -2 0.28961881E-01 0.82798411E+02</pdfrwt>
<totfact> 0.79744305E+04</totfact>
</mgrwt>
</event>
<event>
 8    1  0.1241100E-024  0.8169486E+02  0.7818608E-02  0.1324309E+00
         -2   -1    0    0    0  501 -0.00000000000E+00  0.00000000000E+00  0.97747126993E+02  0.97747127026E+02  0.25500000000E-02 0.  1.
          1   -1    0    0  501    0  0.00000000000E+00 -0.00000000000E+00 -0.17069682067E+02  0.17069682811E+02  0.50400000000E-02 0. -1.
        -24    2    1    2    0    0  0.17763568394E-14 -0.35527136788E-14  0.80677444926E+02  0.11481680984E+03  0.81694857253E+02 0.  0.
         66    2    3    3    0    0 -0.97711171683E+01  0.24594251929E+02  0.84048025477E+02  0.88138655180E+02  0.19999979154E+01 0.  0.
         13    1    3    3    0    0  0.97711171683E+01 -0.24594251929E+02 -0.33705805510E+01  0.26678154658E+02  0.10566000000E+00 0. -1.
         13    1    4    4    0    0 -0.26830515742E+01  0.61008576983E+01  0.18897236434E+02  0.20038361692E+02  0.10566000000E+00 0. -1.
        -13    1    4    4    0    0 -0.23373047879E+01  0.56389319132E+01  0.21342894947E+02  0.22198893566E+02  0.10566000000E+00 0.  1.
         14    1    4    4    0    0 -0.47507608062E+01  0.12854462317E+02  0.43807894096E+02  0.45901399922E+02  0.00000000000E+00 0. -1.
<mgrwt>
<rscale>  0 0.81694857E+02</rscale>
<asrwt>0</asrwt>
<pdfrwt beam="1">  1        1 0.26261050E-02 0.81694857E+02</pdfrwt>
<pdfrwt beam="2">  1       -2 0.15038019E-01 0.81694857E+02</pdfrwt>
<totfact> 0.10114995E+05</totfact>
</mgrwt>
</event>
<event>
 8    1  0.1241100E-024  0.8008271E+02  0.7818608E-02  0.1328817E+00
         -2   -1    0    0    0  501 -0.00000000000E+00  0.00000000000E+00  0.14395097763E+02  0.14395097989E+02  0.25500000000E-02 0.  1.
          1   -1    0    0  501    0  0.00000000000E+00 -0.00000000000E+00 -0.11137889549E+03  0.11137889560E+03  0.50400000000E-02 0. -1.
        -24    2    1    2    0    0  0.00000000000E+00  0.00000000000E+00 -0.96983797726E+02  0.12577399359E+03  0.80082710011E+02 0.  0.
         66    2    3    3    0    0 -0.38089009476E+02  0.10612948242E+02 -0.38853554386E+02  0.55470767008E+02  0.19999976896E+01 0.  0.
         13    1    3    3    0    0  0.38089009476E+02 -0.10612948242E+02 -0.58130243340E+02  0.70303226583E+02  0.10566000000E+00 0. -1.
         13    1    4    4    0    0 -0.18018131790E+02  0.56631580185E+01 -0.18891681705E+02  0.26713877173E+02  0.10566000000E+00 0. -1.
        -13    1    4    4    0    0 -0.14460488789E+02  0.39050187621E+01 -0.13973842457E+02  0.20484978511E+02  0.10566000000E+00 0.  1.
         14    1    4    4    0    0 -0.56103888975E+01  0.10447714614E+01 -0.59880302243E+01  0.82719113242E+01  0.00000000000E+00 0. -1.
<mgrwt>
<rscale>  0 0.80082710E+02</rscale>
<asrwt>0</asrwt>
<pdfrwt beam="1">  1        1 0.17135214E-01 0.80082710E+02</pdfrwt>
<pdfrwt beam="2">  1       -2 0.22146305E-02 0.80082710E+02</pdfrwt>
<totfact> 0.14929601E+05</totfact>
</mgrwt>
</event>
<event>
 8    1  0.1241100E-024  0.7876083E+02  0.7818608E-02  0.1332605E+00
          1   -1    0    0  501    0  0.00000000000E+00  0.00000000000E+00  0.18469553114E+02  0.18469553802E+02  0.50400000000E-02 0. -1.
         -2   -1    0    0    0  501 -0.00000000000E+00 -0.00000000000E+00 -0.83966144171E+02  0.83966144210E+02  0.25500000000E-02 0.  1.
        -24    2    1    2    0    0  0.00000000000E+00  0.00000000000E+00 -0.65496591057E+02  0.10243569801E+03  0.78760832823E+02 0.  0.
         66    2    3    3    0    0 -0.47343202008E+01  0.35220901472E+02 -0.54759995364E+02  0.65311429138E+02  0.19999988830E+01 0.  0.
         13    1    3    3    0    0  0.47343202008E+01 -0.35220901472E+02 -0.10736595694E+02  0.37124268874E+02  0.10566000000E+00 0. -1.
         13    1    4    4    0    0 -0.62692165216E+00  0.26798124274E+01 -0.36334990974E+01  0.45593755198E+01  0.10566000000E+00 0. -1.
        -13    1    4    4    0    0 -0.27462802035E+01  0.24897629862E+02 -0.39403440315E+02  0.46691287200E+02  0.10566000000E+00 0.  1.
        -14    1    4    4    0    0 -0.13611183451E+01  0.76434591833E+01 -0.11723055952E+02  0.14060766419E+02  0.00000000000E+00 0.  1.
<mgrwt>
<rscale>  0 0.78760833E+02</rscale>
<asrwt>0</asrwt>
<pdfrwt beam="1">  1        1 0.28414698E-02 0.78760833E+02</pdfrwt>
<pdfrwt beam="2">  1       -2 0.12917868E-01 0.78760833E+02</pdfrwt>
<totfact> 0.11507277E+05</totfact>
</mgrwt>
</event>
<event>
 8    1  0.1241100E-024  0.7808595E+02  0.7818608E-02  0.1334573E+00
         -2   -1    0    0    0  501 -0.00000000000E+00  0.00000000000E+00  0.17939875374E+02  0.17939875555E+02  0.25500000000E-02 0.  1.
          1   -1    0    0  501    0  0.00000000000E+00 -0.00000000000E+00 -0.84970145362E+02  0.84970145511E+02  0.50400000000E-02 0. -1.
        -24    2    1    2    0    0  0.00000000000E+00  0.00000000000E+00 -0.67030269988E+02  0.10291002107E+03  0.78085948423E+02 0.  0.
         66    2    3    3    0    0  0.14418290202E+02 -0.92262483131E+01  0.12671289709E+02  0.21390940278E+02  0.19999981975E+01 0.  0.
         13    1    3    3    0    0 -0.14418290202E+02  0.92262483131E+01 -0.79701559698E+02  0.81519080788E+02  0.10566000000E+00 0. -1.
         13    1    4    4    0    0  0.24592663881E+01 -0.16141274629E+01  0.14347929851E+01  0.32746287698E+01  0.10566000000E+00 0. -1.
        -13    1    4    4    0    0  0.56049674545E+01 -0.41170334838E+01  0.56994205422E+01  0.89922290577E+01  0.10566000000E+00 0.  1.
         14    1    4    4    0    0  0.63540563593E+01 -0.34950873664E+01  0.55370761820E+01  0.91240824504E+01  0.00000000000E+00 0. -1.
<mgrwt>
<rscale>  0 0.78085948E+02</rscale>
<asrwt>0</asrwt>
<pdfrwt beam="1">  1        1 0.13072330E-01 0.78085948E+02</pdfrwt>
<pdfrwt beam="2">  1       -2 0.27599809E-02 0.78085948E+02</pdfrwt>
<totfact> 0.15279976E+05</totfact>
</mgrwt>
</event>
<event>
 8    1  0.1241100E-024  0.8094872E+02  0.7818608E-02  0.1326380E+00
         -2   -1    0    0    0  501 -0.00000000000E+00  0.00000000000E+00  0.32350701533E+01  0.32350711583E+01  0.25500000000E-02 0.  1.
          1   -1    0    0  501    0  0.00000000000E+00 -0.00000000000E+00 -0.50637955302E+03  0.50637955304E+03  0.50400000000E-02 0. -1.
        -24    2    1    2    0    0  0.00000000000E+00  0.35527136788E-14 -0.50314448286E+03  0.50961462420E+03  0.80948715633E+02 0.  0.
         66    2    3    3    0    0  0.86043734065E+01  0.29666518761E+02 -0.41613756822E+03  0.41728720716E+03  0.19999998903E+01 0.  0.
         13    1    3    3    0    0 -0.86043734065E+01 -0.29666518761E+02 -0.87006914639E+02  0.92327417034E+02  0.10566000000E+00 0. -1.
         13    1    4    4    0    0  0.18077698436E+01  0.51715961596E+01 -0.81725694181E+02  0.81909179534E+02  0.10566000000E+00 0. -1.
        -13    1    4    4    0    0  0.40360298555E+01  0.16193754028E+02 -0.22076453138E+03  0.22139448205E+03  0.10566000000E+00 0.  1.
         14    1    4    4    0    0  0.27605737074E+01  0.83011685735E+01 -0.11364734267E+03  0.11398354558E+03  0.00000000000E+00 0. -1.
<mgrwt>
<rscale>  0 0.80948716E+02</rscale>
<asrwt>0</asrwt>
<pdfrwt beam="1">  1        1 0.77904484E-01 0.80948716E+02</pdfrwt>
<pdfrwt beam="2">  1       -2 0.49770358E-03 0.80948716E+02</pdfrwt>
<totfact> 0.19039786E+05</totfact>
</mgrwt>
</event>
<event>
 8    1  0.1241100E-024  0.7801014E+02  0.7818608E-02  0.1334795E+00
         -2   -1    0    0    0  501 -0.00000000000E+00  0.00000000000E+00  0.45726640051E+01  0.45726647161E+01  0.25500000000E-02 0.  1.
          1   -1    0    0  501    0  0.00000000000E+00 -0.00000000000E+00 -0.33271534623E+03  0.33271534627E+03  0.50400000000E-02 0. -1.
        -24    2    1    2    0    0  0.00000000000E+00  0.00000000000E+00 -0.32814268222E+03  0.33728801098E+03  0.78010143289E+02 0.  0.
         66    2    3    3    0    0 -0.38821841638E+02  0.18569253310E+01 -0.17701007137E+03  0.18123782422E+03  0.20000008500E+01 0.  0.
         13    1    3    3    0    0  0.38821841638E+02 -0.18569253310E+01 -0.15113261086E+03  0.15605018676E+03  0.10566000000E+00 0. -1.
         13    1    4    4    0    0 -0.29051864665E+02  0.13517432270E+01 -0.13345158827E+03  0.13658395083E+03  0.10566000000E+00 0. -1.
        -13    1    4    4    0    0 -0.92549262513E+01  0.55421877631E+00 -0.40176852989E+02  0.41232893404E+02  0.10566000000E+00 0.  1.
         14    1    4    4    0    0 -0.51505072177E+00 -0.49036672287E-01 -0.33816301126E+01  0.34209799852E+01  0.00000000000E+00 0. -1.
<mgrwt>
<rscale>  0 0.78010143E+02</rscale>
<asrwt>0</asrwt>
<pdfrwt beam="1">  1        1 0.51186958E-01 0.78010143E+02</pdfrwt>
<pdfrwt beam="2">  1       -2 0.70348708E-03 0.78010143E+02</pdfrwt>
<totfact> 0.19653458E+05</totfact>
</mgrwt>
</event>
<event>
 8    1  0.1241100E-024  0.7969032E+02  0.7818608E-02  0.1329933E+00
          1   -1    0    0  501    0  0.00000000000E+00  0.00000000000E+00  0.21040910511E+03  0.21040910517E+03  0.50400000000E-02 0. -1.
         -2   -1    0    0    0  501 -0.00000000000E+00 -0.00000000000E+00 -0.75454744750E+01  0.75454749059E+01  0.25500000000E-02 0.  1.
        -24    2    1    2    0    0 -0.88817841970E-15  0.14210854715E-13  0.20286363063E+03  0.21795458007E+03  0.79690315232E+02 0.  0.
         66    2    3    3    0    0 -0.25494707780E+01  0.38578511767E+02  0.75429443489E+02  0.84784446078E+02  0.19999950898E+01 0.  0.
         13    1    3    3    0    0  0.25494707780E+01 -0.38578511767E+02  0.12743418714E+03  0.13317013400E+03  0.10566000000E+00 0. -1.
         13    1    4    4    0    0 -0.10989271093E-01  0.47681843021E+01  0.96379303839E+01  0.10753444491E+02  0.10566000000E+00 0. -1.
        -13    1    4    4    0    0 -0.27131020993E+01  0.31691440816E+02  0.61253475990E+02  0.69019619159E+02  0.10566000000E+00 0.  1.
         14    1    4    4    0    0  0.17462059238E+00  0.21188866489E+01  0.45380371152E+01  0.50113824281E+01  0.00000000000E+00 0. -1.
<mgrwt>
<rscale>  0 0.79690315E+02</rscale>
<asrwt>0</asrwt>
<pdfrwt beam="1">  1        1 0.32370625E-01 0.79690315E+02</pdfrwt>
<pdfrwt beam="2">  1       -2 0.11608425E-02 0.79690315E+02</pdfrwt>
<totfact> 0.17013331E+05</totfact>
</mgrwt>
</event>
<event>
 8    1  0.1241100E-024  0.7413284E+02  0.7818608E-02  0.1346578E+00
         -2   -1    0    0    0  501 -0.00000000000E+00  0.00000000000E+00  0.59011936440E+02  0.59011936496E+02  0.25500000000E-02 0.  1.
          1   -1    0    0  501    0  0.00000000000E+00 -0.00000000000E+00 -0.23282060493E+02  0.23282061039E+02  0.50400000000E-02 0. -1.
        -24    2    1    2    0    0  0.00000000000E+00  0.00000000000E+00  0.35729875947E+02  0.82293997534E+02  0.74132840192E+02 0.  0.
         66    2    3    3    0    0  0.35074204423E+02 -0.41455791202E+01  0.30265664214E+02  0.46555301195E+02  0.19999992335E+01 0.  0.
         13    1    3    3    0    0 -0.35074204423E+02  0.41455791202E+01  0.54642117328E+01  0.35738696339E+02  0.10566000000E+00 0. -1.
         13    1    4    4    0    0  0.21896402856E+02 -0.20535842622E+01  0.18510863533E+02  0.28746006664E+02  0.10566000000E+00 0. -1.
        -13    1    4    4    0    0  0.12185331579E+02 -0.21268118375E+01  0.10641390056E+02  0.16317352133E+02  0.10566000000E+00 0.  1.
         14    1    4    4    0    0  0.99246998758E+00  0.34816979476E-01  0.11134106259E+01  0.14919423984E+01  0.00000000000E+00 0. -1.
<mgrwt>
<rscale>  0 0.74132840E+02</rscale>
<asrwt>0</asrwt>
<pdfrwt beam="1">  1        1 0.35818556E-02 0.74132840E+02</pdfrwt>
<pdfrwt beam="2">  1       -2 0.90787593E-02 0.74132840E+02</pdfrwt>
<totfact> 0.14393769E+05</totfact>
</mgrwt>
</event>
<event>
 8    1  0.1241100E-024  0.7961347E+02  0.7818608E-02  0.1330152E+00
          1   -1    0    0  501    0  0.00000000000E+00  0.00000000000E+00  0.27785386440E+02  0.27785386897E+02  0.50400000000E-02 0. -1.
         -2   -1    0    0    0  501 -0.00000000000E+00 -0.00000000000E+00 -0.57029126528E+02  0.57029126585E+02  0.25500000000E-02 0.  1.
        -24    2    1    2    0    0  0.00000000000E+00  0.00000000000E+00 -0.29243740087E+02  0.84814513482E+02  0.79613474757E+02 0.  0.
         66    2    3    3    0    0 -0.15961415276E+02  0.28412067755E+02 -0.38937356369E+02  0.50814664477E+02  0.20000083209E+01 0.  0.
         13    1    3    3    0    0  0.15961415276E+02 -0.28412067755E+02  0.96936162813E+01  0.33999849005E+02  0.10566000000E+00 0. -1.
         13    1    4    4    0    0 -0.31810984269E+01  0.55901964934E+01 -0.70381033326E+01  0.95349749131E+01  0.10566000000E+00 0. -1.
        -13    1    4    4    0    0 -0.69304520149E+01  0.13610453258E+02 -0.17926448348E+02  0.23550887826E+02  0.10566000000E+00 0.  1.
        -14    1    4    4    0    0 -0.58498648339E+01  0.92114180037E+01 -0.13972804688E+02  0.17728801738E+02  0.00000000000E+00 0.  1.
<mgrwt>
<rscale>  0 0.79613475E+02</rscale>
<asrwt>0</asrwt>
<pdfrwt beam="1">  1        1 0.42746749E-02 0.79613475E+02</pdfrwt>
<pdfrwt beam="2">  1       -2 0.87737118E-02 0.79613475E+02</pdfrwt>
<totfact> 0.12097323E+05</totfact>
</mgrwt>
</event>
<event>
 8    1  0.1241100E-024  0.7942753E+02  0.7818608E-02  0.1330684E+00
         -2   -1    0    0    0  501 -0.00000000000E+00  0.00000000000E+00  0.74329076368E+03  0.74329076369E+03  0.25500000000E-02 0.  1.
          1   -1    0    0  501    0  0.00000000000E+00 -0.00000000000E+00 -0.21218895604E+01  0.21218955460E+01  0.50400000000E-02 0. -1.
        -24    2    1    2    0    0 -0.11102230246E-15  0.00000000000E+00  0.74116887412E+03  0.74541265923E+03  0.79427530347E+02 0.  0.
         66    2    3    3    0    0 -0.85013185063E+00 -0.29642753013E+02  0.61836494730E+03  0.61907885086E+03  0.20000014252E+01 0.  0.
         13    1    3    3    0    0  0.85013185063E+00  0.29642753013E+02  0.12280392682E+03  0.12633380837E+03  0.10566000000E+00 0. -1.
         13    1    4    4    0    0  0.11167910920E+00 -0.48112487932E+00  0.81882413072E+01  0.82038047950E+01  0.10566000000E+00 0.  1.
        -13    1    4    4    0    0 -0.28736900100E+00 -0.20652214386E+02  0.43914149206E+03  0.43962695294E+03  0.10566000000E+00 0.  1.
        -14    1    4    4    0    0 -0.67444195883E+00 -0.85094137475E+01  0.17103521394E+03  0.17124809313E+03  0.00000000000E+00 0.  1.
<mgrwt>
<rscale>  0 0.79427530E+02</rscale>
<asrwt>0</asrwt>
<pdfrwt beam="1">  1        1 0.32644453E-03 0.79427530E+02</pdfrwt>
<pdfrwt beam="2">  1       -2 0.11435259E+00 0.79427530E+02</pdfrwt>
<totfact> 0.36408287E+04</totfact>
</mgrwt>
</event>
<event>
 8    1  0.1241100E-024  0.8050152E+02  0.7818608E-02  0.1327634E+00
         -2   -1    0    0    0  501 -0.00000000000E+00  0.00000000000E+00  0.49896456379E+01  0.49896462895E+01  0.25500000000E-02 0.  1.
          1   -1    0    0  501    0  0.00000000000E+00 -0.00000000000E+00 -0.32469709083E+03  0.32469709087E+03  0.50400000000E-02 0. -1.
        -24    2    1    2    0    0  0.00000000000E+00  0.00000000000E+00 -0.31970744519E+03  0.32968673716E+03  0.80501516427E+02 0.  0.
         66    2    3    3    0    0 -0.24842883691E+02  0.41152750383E+01 -0.28842104281E+03  0.28952513240E+03  0.19999993527E+01 0.  0.
         13    1    3    3    0    0  0.24842883691E+02 -0.41152750383E+01 -0.31286402387E+02  0.40161604762E+02  0.10566000000E+00 0. -1.
         13    1    4    4    0    0 -0.16334466207E+02  0.30800130657E+01 -0.19303421586E+03  0.19374860237E+03  0.10566000000E+00 0. -1.
        -13    1    4    4    0    0 -0.82784175820E+01  0.11124476417E+01 -0.90855490447E+02  0.91238703661E+02  0.10566000000E+00 0.  1.
         14    1    4    4    0    0 -0.22999990280E+00 -0.77185669041E-01 -0.45313365029E+01  0.45378263613E+01  0.00000000000E+00 0. -1.
<mgrwt>
<rscale>  0 0.80501516E+02</rscale>
<asrwt>0</asrwt>
<pdfrwt beam="1">  1        1 0.49953382E-01 0.80501516E+02</pdfrwt>
<pdfrwt beam="2">  1       -2 0.76763809E-03 0.80501516E+02</pdfrwt>
<totfact> 0.18012753E+05</totfact>
</mgrwt>
</event>
<event>
 8    1  0.1241100E-024  0.7881223E+02  0.7818608E-02  0.1332456E+00
         -2   -1    0    0    0  501 -0.00000000000E+00  0.00000000000E+00  0.23632944325E+02  0.23632944462E+02  0.25500000000E-02 0.  1.
          1   -1    0    0  501    0  0.00000000000E+00 -0.00000000000E+00 -0.65706660224E+02  0.65706660418E+02  0.50400000000E-02 0. -1.
        -24    2    1    2    0    0  0.00000000000E+00  0.17763568394E-14 -0.42073715900E+02  0.89339604880E+02  0.78812228940E+02 0.  0.
         66    2    3    3    0    0 -0.60411585002E+00  0.11917292074E+02  0.21491950701E+02  0.24663551036E+02  0.19999996024E+01 0.  0.
         13    1    3    3    0    0  0.60411585002E+00 -0.11917292074E+02 -0.63565666601E+02  0.64676053844E+02  0.10566000000E+00 0. -1.
         13    1    4    4    0    0 -0.26338292629E+00  0.39938512222E+00  0.13788952180E+01  0.14633506413E+01  0.10566000000E+00 0. -1.
        -13    1    4    4    0    0 -0.16061128679E-01  0.26296592083E+01  0.54125074962E+01  0.60184522050E+01  0.10566000000E+00 0.  1.
        -14    1    4    4    0    0 -0.32467179505E+00  0.88882477436E+01  0.14700547987E+02  0.17181748190E+02  0.00000000000E+00 0.  1.
<mgrwt>
<rscale>  0 0.78812229E+02</rscale>
<asrwt>0</asrwt>
<pdfrwt beam="1">  1        1 0.10108717E-01 0.78812229E+02</pdfrwt>
<pdfrwt beam="2">  1       -2 0.36358376E-02 0.78812229E+02</pdfrwt>
<totfact> 0.14307829E+05</totfact>
</mgrwt>
</event>
<event>
 8    1  0.1241100E-024  0.7975131E+02  0.7818608E-02  0.1329759E+00
         -2   -1    0    0    0  501 -0.00000000000E+00  0.00000000000E+00  0.19961253675E+03  0.19961253677E+03  0.25500000000E-02 0.  1.
          1   -1    0    0  501    0  0.00000000000E+00 -0.00000000000E+00 -0.79657708811E+01  0.79657724755E+01  0.50400000000E-02 0. -1.
        -24    2    1    2    0    0  0.00000000000E+00  0.00000000000E+00  0.19164676587E+03  0.20757830925E+03  0.79751310960E+02 0.  0.
         66    2    3    3    0    0  0.22164918076E+02  0.10225139855E+01  0.18204168927E+03  0.18339985213E+03  0.19999996864E+01 0.  0.
         13    1    3    3    0    0 -0.22164918076E+02 -0.10225139855E+01  0.96050766016E+01  0.24178457120E+02  0.10566000000E+00 0. -1.
         13    1    4    4    0    0  0.54836481885E+01  0.49151742462E+00  0.39760848860E+02  0.40140356911E+02  0.10566000000E+00 0. -1.
        -13    1    4    4    0    0  0.41096607137E+01  0.52682079770E+00  0.35692779798E+02  0.35932611164E+02  0.10566000000E+00 0.  1.
         14    1    4    4    0    0  0.12571609174E+02  0.41757631929E-02  0.10658806061E+03  0.10732688405E+03  0.00000000000E+00 0. -1.
<mgrwt>
<rscale>  0 0.79751311E+02</rscale>
<asrwt>0</asrwt>
<pdfrwt beam="1">  1        1 0.12255033E-02 0.79751311E+02</pdfrwt>
<pdfrwt beam="2">  1       -2 0.30709622E-01 0.79751311E+02</pdfrwt>
<totfact> 0.85829494E+04</totfact>
</mgrwt>
</event>
<event>
 8    1  0.1290971E-024  0.7138252E+02  0.7818608E-02  0.1355454E+00
          1   -1    0    0  501    0  0.00000000000E+00  0.00000000000E+00  0.14921914951E+02  0.14921915802E+02  0.50400000000E-02 0. -1.
         -2   -1    0    0    0  501 -0.00000000000E+00 -0.00000000000E+00 -0.85368807558E+02  0.85368807597E+02  0.25500000000E-02 0.  1.
        -24    2    1    2    0    0  0.17763568394E-14  0.00000000000E+00 -0.70446892608E+02  0.10029072340E+03  0.71382522523E+02 0.  0.
         66    2    3    3    0    0 -0.11419230084E+02  0.17981344747E+02 -0.75437598168E+02  0.78412746329E+02  0.19999987069E+01 0.  0.
         13    1    3    3    0    0  0.11419230084E+02 -0.17981344747E+02  0.49907055605E+01  0.21877977070E+02  0.10566000000E+00 0. -1.
         13    1    4    4    0    0 -0.71957142620E+00  0.57391051790E+00 -0.34385687593E+01  0.35611901758E+01  0.10566000000E+00 0. -1.
        -13    1    4    4    0    0 -0.80496753213E+01  0.12352360379E+02 -0.53178236531E+02  0.55184364491E+02  0.10566000000E+00 0.  1.
         14    1    4    4    0    0 -0.26499833361E+01  0.50550738508E+01 -0.18820792878E+02  0.19667191662E+02  0.00000000000E+00 0. -1.
<mgrwt>
<rscale>  0 0.71382523E+02</rscale>
<asrwt>0</asrwt>
<pdfrwt beam="1">  1        1 0.22956794E-02 0.71382523E+02</pdfrwt>
<pdfrwt beam="2">  1       -2 0.13133662E-01 0.71382523E+02</pdfrwt>
<totfact> 0.14722080E+05</totfact>
</mgrwt>
</event>
<event>
 8    1  0.1241100E-024  0.7955118E+02  0.7818608E-02  0.1330330E+00
         -2   -1    0    0    0  501 -0.00000000000E+00  0.00000000000E+00  0.48760906127E+03  0.48760906127E+03  0.25500000000E-02 0.  1.
          1   -1    0    0  501    0  0.00000000000E+00 -0.00000000000E+00 -0.32446007790E+01  0.32446046935E+01  0.50400000000E-02 0. -1.
        -24    2    1    2    0    0 -0.55511151231E-16  0.00000000000E+00  0.48436446049E+03  0.49085366597E+03  0.79551183584E+02 0.  0.
         66    2    3    3    0    0  0.29735969259E+00  0.33234052021E+02  0.37688423426E+03  0.37835210673E+03  0.19999993830E+01 0.  0.
         13    1    3    3    0    0 -0.29735969259E+00 -0.33234052021E+02  0.10748022623E+03  0.11250155924E+03  0.10566000000E+00 0. -1.
         13    1    4    4    0    0  0.60152226975E-01  0.12555661965E+01  0.18041454831E+02  0.18085500303E+02  0.10566000000E+00 0. -1.
        -13    1    4    4    0    0  0.38701393187E+00  0.15265910691E+02  0.17662565940E+03  0.17728460884E+03  0.10566000000E+00 0.  1.
         14    1    4    4    0    0 -0.14980646626E+00  0.16712575134E+02  0.18221712003E+03  0.18298199759E+03  0.00000000000E+00 0. -1.
<mgrwt>
<rscale>  0 0.79551184E+02</rscale>
<asrwt>0</asrwt>
<pdfrwt beam="1">  1        1 0.49916962E-03 0.79551184E+02</pdfrwt>
<pdfrwt beam="2">  1       -2 0.75016784E-01 0.79551184E+02</pdfrwt>
<totfact> 0.52111154E+04</totfact>
</mgrwt>
</event>
<event>
 8    1  0.1241100E-024  0.7939629E+02  0.7818608E-02  0.1330773E+00
         -2   -1    0    0    0  501 -0.00000000000E+00  0.00000000000E+00  0.15675189464E+02  0.15675189671E+02  0.25500000000E-02 0.  1.
          1   -1    0    0  501    0  0.00000000000E+00 -0.00000000000E+00 -0.10053738742E+03  0.10053738755E+03  0.50400000000E-02 0. -1.
        -24    2    1    2    0    0  0.00000000000E+00  0.00000000000E+00 -0.84862197958E+02  0.11621257722E+03  0.79396287455E+02 0.  0.
         66    2    3    3    0    0 -0.22953262505E+02 -0.10205769111E+01  0.48820107544E+01  0.23573881210E+02  0.20000023598E+01 0.  0.
         13    1    3    3    0    0  0.22953262505E+02  0.10205769111E+01 -0.89744208713E+02  0.92638696009E+02  0.10566000000E+00 0. -1.
         13    1    4    4    0    0 -0.20100153529E+02 -0.10195044471E+01  0.43903573956E+01  0.20599562211E+02  0.10566000000E+00 0. -1.
        -13    1    4    4    0    0 -0.25556169920E+01 -0.19264539347E+00  0.33310646370E+00  0.25865835400E+01  0.10566000000E+00 0.  1.
         14    1    4    4    0    0 -0.29749198395E+00  0.19157292946E+00  0.15854689506E+00  0.38773545846E+00  0.00000000000E+00 0. -1.
<mgrwt>
<rscale>  0 0.79396287E+02</rscale>
<asrwt>0</asrwt>
<pdfrwt beam="1">  1        1 0.15467290E-01 0.79396287E+02</pdfrwt>
<pdfrwt beam="2">  1       -2 0.24115677E-02 0.79396287E+02</pdfrwt>
<totfact> 0.15016480E+05</totfact>
</mgrwt>
</event>
<event>
 8    1  0.1241100E-024  0.8069185E+02  0.7818608E-02  0.1327099E+00
         -2   -1    0    0    0  501 -0.00000000000E+00  0.00000000000E+00  0.10020866823E+02  0.10020867147E+02  0.25500000000E-02 0.  1.
          1   -1    0    0  501    0  0.00000000000E+00 -0.00000000000E+00 -0.16244038751E+03  0.16244038759E+03  0.50400000000E-02 0. -1.
        -24    2    1    2    0    0  0.00000000000E+00  0.00000000000E+00 -0.15241952069E+03  0.17246125473E+03  0.80691846541E+02 0.  0.
         66    2    3    3    0    0  0.18292281293E+02  0.24358840284E+02 -0.19797074683E+02  0.36385228179E+02  0.20000021919E+01 0.  0.
         13    1    3    3    0    0 -0.18292281293E+02 -0.24358840284E+02 -0.13262244600E+03  0.13607602655E+03  0.10566000000E+00 0. -1.
         13    1    4    4    0    0  0.68215400917E+01  0.10338069391E+02 -0.83473088306E+01  0.14936459310E+02  0.10566000000E+00 0. -1.
        -13    1    4    4    0    0  0.10429444092E+02  0.13086875064E+02 -0.10678670427E+02  0.19851568430E+02  0.10566000000E+00 0.  1.
         14    1    4    4    0    0  0.10412971094E+01  0.93389582870E+00 -0.77109542521E+00  0.15972004394E+01  0.00000000000E+00 0. -1.
<mgrwt>
<rscale>  0 0.80691847E+02</rscale>
<asrwt>0</asrwt>
<pdfrwt beam="1">  1        1 0.24990827E-01 0.80691847E+02</pdfrwt>
<pdfrwt beam="2">  1       -2 0.15416720E-02 0.80691847E+02</pdfrwt>
<totfact> 0.15660124E+05</totfact>
</mgrwt>
</event>
<event>
 8    1  0.1241100E-024  0.8260495E+02  0.7818608E-02  0.1321817E+00
          1   -1    0    0  501    0  0.00000000000E+00  0.00000000000E+00  0.10112389882E+02  0.10112391138E+02  0.50400000000E-02 0. -1.
         -2   -1    0    0    0  501 -0.00000000000E+00 -0.00000000000E+00 -0.16869349230E+03  0.16869349232E+03  0.25500000000E-02 0.  1.
        -24    2    1    2    0    0  0.00000000000E+00 -0.88817841970E-15 -0.15858110242E+03  0.17880588346E+03  0.82604950911E+02 0.  0.
         66    2    3    3    0    0  0.16540118165E+02 -0.55973542863E+01 -0.16029905291E+03  0.16125970434E+03  0.19999991014E+01 0.  0.
         13    1    3    3    0    0 -0.16540118165E+02  0.55973542863E+01  0.17179504849E+01  0.17546179124E+02  0.10566000000E+00 0. -1.
         13    1    4    4    0    0  0.69468446757E+01 -0.31347613056E+01 -0.68057883512E+02  0.68483370620E+02  0.10566000000E+00 0. -1.
        -13    1    4    4    0    0  0.65541703869E+01 -0.19116095029E+01 -0.59848213938E+02  0.60236461350E+02  0.10566000000E+00 0.  1.
         14    1    4    4    0    0  0.30391031028E+01 -0.55098347784E+00 -0.32392955457E+02  0.32539872367E+02  0.00000000000E+00 0. -1.
<mgrwt>
<rscale>  0 0.82604951E+02</rscale>
<asrwt>0</asrwt>
<pdfrwt beam="1">  1        1 0.15557525E-02 0.82604951E+02</pdfrwt>
<pdfrwt beam="2">  1       -2 0.25952843E-01 0.82604951E+02</pdfrwt>
<totfact> 0.83581109E+04</totfact>
</mgrwt>
</event>
<event>
 8    1  0.1241100E-024  0.8509418E+02  0.7818608E-02  0.1315186E+00
         -2   -1    0    0    0  501 -0.00000000000E+00  0.00000000000E+00  0.51930871130E+01  0.51930877391E+01  0.25500000000E-02 0.  1.
          1   -1    0    0  501    0  0.00000000000E+00 -0.00000000000E+00 -0.34858935265E+03  0.34858935268E+03  0.50400000000E-02 0. -1.
        -24    2    1    2    0    0  0.00000000000E+00 -0.44408920985E-15 -0.34339626553E+03  0.35378244042E+03  0.85094182931E+02 0.  0.
         66    2    3    3    0    0 -0.39628218698E+02 -0.26738078278E+01 -0.10864394711E+03  0.11569378648E+03  0.20000053778E+01 0.  0.
         13    1    3    3    0    0  0.39628218698E+02  0.26738078278E+01 -0.23475231842E+03  0.23808865394E+03  0.10566000000E+00 0. -1.
         13    1    4    4    0    0 -0.87075875478E+01 -0.60213958297E-01 -0.22402605073E+02  0.24035673170E+02  0.10566000000E+00 0. -1.
        -13    1    4    4    0    0 -0.12585255595E+02 -0.11205357057E+01 -0.36321094039E+02  0.38456173690E+02  0.10566000000E+00 0.  1.
        -14    1    4    4    0    0 -0.18335375555E+02 -0.14930581638E+01 -0.49920247997E+02  0.53201939622E+02  0.00000000000E+00 0.  1.
<mgrwt>
<rscale>  0 0.85094183E+02</rscale>
<asrwt>0</asrwt>
<pdfrwt beam="1">  1        1 0.53629113E-01 0.85094183E+02</pdfrwt>
<pdfrwt beam="2">  1       -2 0.79893680E-03 0.85094183E+02</pdfrwt>
<totfact> 0.15761025E+05</totfact>
</mgrwt>
</event>
<event>
 8    1  0.1241100E-024  0.7860278E+02  0.7818608E-02  0.1333064E+00
         -2   -1    0    0    0  501 -0.00000000000E+00  0.00000000000E+00  0.32143695956E+03  0.32143695957E+03  0.25500000000E-02 0.  1.
          1   -1    0    0  501    0  0.00000000000E+00 -0.00000000000E+00 -0.48052926508E+01  0.48052952939E+01  0.50400000000E-02 0. -1.
        -24    2    1    2    0    0  0.00000000000E+00  0.00000000000E+00  0.31663166690E+03  0.32624225486E+03  0.78602775835E+02 0.  0.
         66    2    3    3    0    0 -0.30028902427E+02 -0.23593853858E+02  0.19650099740E+03  0.20018752929E+03  0.19999949343E+01 0.  0.
         13    1    3    3    0    0  0.30028902427E+02  0.23593853858E+02  0.12013066950E+03  0.12605472557E+03  0.10566000000E+00 0. -1.
         13    1    4    4    0    0 -0.93250906491E+01 -0.74240048547E+01  0.59075436323E+02  0.60266006210E+02  0.10566000000E+00 0. -1.
        -13    1    4    4    0    0 -0.18214604639E+02 -0.14741010899E+02  0.12132124766E+03  0.12356344736E+03  0.10566000000E+00 0.  1.
        -14    1    4    4    0    0 -0.24892071393E+01 -0.14288381045E+01  0.16104313419E+02  0.16358075718E+02  0.00000000000E+00 0.  1.
<mgrwt>
<rscale>  0 0.78602776E+02</rscale>
<asrwt>0</asrwt>
<pdfrwt beam="1">  1        1 0.73927584E-03 0.78602776E+02</pdfrwt>
<pdfrwt beam="2">  1       -2 0.49451851E-01 0.78602776E+02</pdfrwt>
<totfact> 0.70765552E+04</totfact>
</mgrwt>
</event>
<event>
 8    1  0.1241100E-024  0.7830234E+02  0.7818608E-02  0.1333939E+00
         -2   -1    0    0    0  501 -0.00000000000E+00  0.00000000000E+00  0.65701020192E+02  0.65701020241E+02  0.25500000000E-02 0.  1.
          1   -1    0    0  501    0  0.00000000000E+00 -0.00000000000E+00 -0.23330144098E+02  0.23330144642E+02  0.50400000000E-02 0. -1.
        -24    2    1    2    0    0  0.00000000000E+00  0.71054273576E-14  0.42370876094E+02  0.89031164884E+02  0.78302344662E+02 0.  0.
         66    2    3    3    0    0  0.23770998915E+01  0.31697793370E+02  0.47137403390E+02  0.56888799462E+02  0.19999993414E+01 0.  0.
         13    1    3    3    0    0 -0.23770998915E+01 -0.31697793370E+02 -0.47665272969E+01  0.32142365422E+02  0.10566000000E+00 0. -1.
         13    1    4    4    0    0  0.31360484864E+00  0.11790167980E+02  0.18591635754E+02  0.22017413405E+02  0.10566000000E+00 0. -1.
        -13    1    4    4    0    0  0.18119297350E+01  0.15509471019E+02  0.22670037146E+02  0.27527595770E+02  0.10566000000E+00 0.  1.
        -14    1    4    4    0    0  0.25156530791E+00  0.43981543703E+01  0.58757304907E+01  0.73437902862E+01  0.00000000000E+00 0.  1.
<mgrwt>
<rscale>  0 0.78302345E+02</rscale>
<asrwt>0</asrwt>
<pdfrwt beam="1">  1        1 0.35892530E-02 0.78302345E+02</pdfrwt>
<pdfrwt beam="2">  1       -2 0.10107849E-01 0.78302345E+02</pdfrwt>
<totfact> 0.12286297E+05</totfact>
</mgrwt>
</event>
<event>
 8    1  0.1241100E-024  0.8099562E+02  0.7818608E-02  0.1326250E+00
         -2   -1    0    0    0  501 -0.00000000000E+00  0.00000000000E+00  0.14352955669E+03  0.14352955671E+03  0.25500000000E-02 0.  1.
          1   -1    0    0  501    0  0.00000000000E+00 -0.00000000000E+00 -0.11426722959E+02  0.11426724071E+02  0.50400000000E-02 0. -1.
        -24    2    1    2    0    0  0.00000000000E+00  0.83266726847E-16  0.13210283373E+03  0.15495628078E+03  0.80995618858E+02 0.  0.
         66    2    3    3    0    0 -0.16118870543E+02  0.15527577267E+00  0.13711601428E+03  0.13807477488E+03  0.19999968096E+01 0.  0.
         13    1    3    3    0    0  0.16118870543E+02 -0.15527577267E+00 -0.50131805551E+01  0.16881505900E+02  0.10566000000E+00 0. -1.
         13    1    4    4    0    0 -0.41047331613E+01  0.69913844714E+00  0.32565586012E+02  0.32830872441E+02  0.10566000000E+00 0. -1.
        -13    1    4    4    0    0 -0.20722427133E+01  0.14074751611E+00  0.20237864709E+02  0.20344442281E+02  0.10566000000E+00 0.  1.
         14    1    4    4    0    0 -0.99418946680E+01 -0.68461019058E+00  0.84312563561E+02  0.84899460157E+02  0.00000000000E+00 0. -1.
<mgrwt>
<rscale>  0 0.80995619E+02</rscale>
<asrwt>0</asrwt>
<pdfrwt beam="1">  1        1 0.17579576E-02 0.80995619E+02</pdfrwt>
<pdfrwt beam="2">  1       -2 0.22081469E-01 0.80995619E+02</pdfrwt>
<totfact> 0.92865057E+04</totfact>
</mgrwt>
</event>
<event>
 8    1  0.1241100E-024  0.8078017E+02  0.7818608E-02  0.1326852E+00
          1   -1    0    0  501    0  0.00000000000E+00  0.00000000000E+00  0.39545126146E+01  0.39545158263E+01  0.50400000000E-02 0. -1.
         -2   -1    0    0    0  501 -0.00000000000E+00 -0.00000000000E+00 -0.41253080816E+03  0.41253080817E+03  0.25500000000E-02 0.  1.
        -24    2    1    2    0    0 -0.71054273576E-14  0.17763568394E-14 -0.40857629555E+03  0.41648532400E+03  0.80780169726E+02 0.  0.
         66    2    3    3    0    0 -0.35139246063E+02  0.10480505165E+02 -0.29141398411E+03  0.29371877323E+03  0.20000021638E+01 0.  0.
         13    1    3    3    0    0  0.35139246063E+02 -0.10480505165E+02 -0.11716231143E+03  0.12276655077E+03  0.10566000000E+00 0. -1.
         13    1    4    4    0    0 -0.26868749966E+01  0.46621676776E+00 -0.23356514027E+02  0.23515411263E+02  0.10566000000E+00 0. -1.
        -13    1    4    4    0    0 -0.56349660436E+01  0.21965700142E+01 -0.46254383816E+02  0.46648225566E+02  0.10566000000E+00 0.  1.
         14    1    4    4    0    0 -0.26817405022E+02  0.78177183833E+01 -0.22180308627E+03  0.22355513640E+03  0.00000000000E+00 0. -1.
<mgrwt>
<rscale>  0 0.80780170E+02</rscale>
<asrwt>0</asrwt>
<pdfrwt beam="1">  1        1 0.60838713E-03 0.80780170E+02</pdfrwt>
<pdfrwt beam="2">  1       -2 0.63466244E-01 0.80780170E+02</pdfrwt>
<totfact> 0.56451206E+04</totfact>
</mgrwt>
</event>
<event>
 8    1  0.1241100E-024  0.7983053E+02  0.7818608E-02  0.1329533E+00
          1   -1    0    0  501    0  0.00000000000E+00  0.00000000000E+00  0.42953756056E+01  0.42953785624E+01  0.50400000000E-02 0. -1.
         -2   -1    0    0    0  501 -0.00000000000E+00 -0.00000000000E+00 -0.37091696256E+03  0.37091696257E+03  0.25500000000E-02 0.  1.
        -24    2    1    2    0    0  0.88817841970E-15 -0.71054273576E-14 -0.36662158695E+03  0.37521234113E+03  0.79830526218E+02 0.  0.
         66    2    3    3    0    0  0.48528871308E+01  0.39148297463E+02 -0.15558612221E+03  0.16052159086E+03  0.20000000866E+01 0.  0.
         13    1    3    3    0    0 -0.48528871308E+01 -0.39148297463E+02 -0.21103546474E+03  0.21469075027E+03  0.10566000000E+00 0. -1.
         13    1    4    4    0    0  0.67762914123E+00  0.11532738502E+02 -0.44517185280E+02  0.45991892632E+02  0.10566000000E+00 0. -1.
        -13    1    4    4    0    0  0.65727709910E+00  0.53586810913E+01 -0.20362987271E+02  0.21066795932E+02  0.10566000000E+00 0.  1.
        -14    1    4    4    0    0  0.35179808905E+01  0.22256877869E+02 -0.90705949659E+02  0.93462902295E+02  0.00000000000E+00 0.  1.
<mgrwt>
<rscale>  0 0.79830526E+02</rscale>
<asrwt>0</asrwt>
<pdfrwt beam="1">  1        1 0.66082754E-03 0.79830526E+02</pdfrwt>
<pdfrwt beam="2">  1       -2 0.57064123E-01 0.79830526E+02</pdfrwt>
<totfact> 0.62388310E+04</totfact>
</mgrwt>
</event>
<event>
 8    1  0.1241100E-024  0.7654342E+02  0.7818608E-02  0.1339157E+00
         -2   -1    0    0    0  501 -0.00000000000E+00  0.00000000000E+00  0.83425316539E+01  0.83425320436E+01  0.25500000000E-02 0.  1.
          1   -1    0    0  501    0  0.00000000000E+00 -0.00000000000E+00 -0.17557304042E+03  0.17557304049E+03  0.50400000000E-02 0. -1.
        -24    2    1    2    0    0  0.00000000000E+00  0.00000000000E+00 -0.16723050877E+03  0.18391557254E+03  0.76543417477E+02 0.  0.
         66    2    3    3    0    0  0.15237542376E+02  0.34048046386E+02 -0.63388174044E+02  0.73576577593E+02  0.20000003361E+01 0.  0.
         13    1    3    3    0    0 -0.15237542376E+02 -0.34048046386E+02 -0.10384233472E+03  0.11033899494E+03  0.10566000000E+00 0. -1.
         13    1    4    4    0    0  0.44145568270E+00  0.14595759867E+01 -0.26510127480E+01  0.30601107507E+01  0.10566000000E+00 0. -1.
        -13    1    4    4    0    0  0.52806470166E+01  0.12469268019E+02 -0.24370119384E+02  0.27879773325E+02  0.10566000000E+00 0.  1.
         14    1    4    4    0    0  0.95154396770E+01  0.20119202380E+02 -0.36367041912E+02  0.42636693518E+02  0.00000000000E+00 0. -1.
<mgrwt>
<rscale>  0 0.76543417E+02</rscale>
<asrwt>0</asrwt>
<pdfrwt beam="1">  1        1 0.27011234E-01 0.76543417E+02</pdfrwt>
<pdfrwt beam="2">  1       -2 0.12834666E-02 0.76543417E+02</pdfrwt>
<totfact> 0.18284478E+05</totfact>
</mgrwt>
</event>
<event>
 8    1  0.1241100E-024  0.8033384E+02  0.7818608E-02  0.1328107E+00
         -2   -1    0    0    0  501 -0.00000000000E+00  0.00000000000E+00  0.16791289145E+02  0.16791289339E+02  0.25500000000E-02 0.  1.
          1   -1    0    0  501    0  0.00000000000E+00 -0.00000000000E+00 -0.96084429237E+02  0.96084429369E+02  0.50400000000E-02 0. -1.
        -24    2    1    2    0    0  0.00000000000E+00  0.35527136788E-14 -0.79293140092E+02  0.11287571871E+03  0.80333839746E+02 0.  0.
         66    2    3    3    0    0 -0.22246597771E+02  0.21912131603E+02 -0.42272072393E+01  0.31574070122E+02  0.19999998183E+01 0.  0.
         13    1    3    3    0    0  0.22246597771E+02 -0.21912131603E+02 -0.75065932853E+02  0.81301648586E+02  0.10566000000E+00 0. -1.
         13    1    4    4    0    0 -0.51900056152E+01  0.53315595576E+01 -0.17975882059E+01  0.76553362432E+01  0.10566000000E+00 0. -1.
        -13    1    4    4    0    0 -0.73437339820E+01  0.68078108827E+01 -0.86378977424E+00  0.10051567769E+02  0.10566000000E+00 0.  1.
         14    1    4    4    0    0 -0.97128581737E+01  0.97727611626E+01 -0.15658292592E+01  0.13867166110E+02  0.00000000000E+00 0. -1.
<mgrwt>
<rscale>  0 0.80333840E+02</rscale>
<asrwt>0</asrwt>
<pdfrwt beam="1">  1        1 0.14782220E-01 0.80333840E+02</pdfrwt>
<pdfrwt beam="2">  1       -2 0.25832753E-02 0.80333840E+02</pdfrwt>
<totfact> 0.14437455E+05</totfact>
</mgrwt>
</event>
<event>
 8    1  0.1364149E-024  0.8259721E+02  0.7818608E-02  0.1321838E+00
          1   -1    0    0  501    0  0.00000000000E+00  0.00000000000E+00  0.42105175984E+03  0.42105175987E+03  0.50400000000E-02 0. -1.
         -2   -1    0    0    0  501 -0.00000000000E+00 -0.00000000000E+00 -0.40507478175E+01  0.40507486201E+01  0.25500000000E-02 0.  1.
        -24    2    1    2    0    0  0.00000000000E+00 -0.35527136788E-14  0.41700101202E+03  0.42510250849E+03  0.82597207561E+02 0.  0.
         66    2    3    3    0    0  0.33902601558E+02  0.23480712216E+02  0.19994991276E+03  0.20416830766E+03  0.20000009922E+01 0.  0.
         13    1    3    3    0    0 -0.33902601558E+02 -0.23480712216E+02  0.21705109926E+03  0.22093420082E+03  0.10566000000E+00 0. -1.
         13    1    4    4    0    0  0.51403485487E+01  0.32580305161E+01  0.27809279458E+02  0.28467615531E+02  0.10566000000E+00 0. -1.
        -13    1    4    4    0    0  0.14123244659E+02  0.10267946257E+02  0.82146497421E+02  0.83981872822E+02  0.10566000000E+00 0.  1.
         14    1    4    4    0    0  0.14639008351E+02  0.99547354432E+01  0.89994135879E+02  0.91718819312E+02  0.00000000000E+00 0. -1.
<mgrwt>
<rscale>  0 0.82597208E+02</rscale>
<asrwt>0</asrwt>
<pdfrwt beam="1">  1        1 0.64777136E-01 0.82597208E+02</pdfrwt>
<pdfrwt beam="2">  1       -2 0.62319259E-03 0.82597208E+02</pdfrwt>
<totfact> 0.17606665E+05</totfact>
</mgrwt>
</event>
<event>
 8    1  0.1241100E-024  0.7916181E+02  0.7818608E-02  0.1331447E+00
          1   -1    0    0  501    0  0.00000000000E+00  0.00000000000E+00  0.18975726132E+03  0.18975726139E+03  0.50400000000E-02 0. -1.
         -2   -1    0    0    0  501 -0.00000000000E+00 -0.00000000000E+00 -0.82560641583E+01  0.82560645521E+01  0.25500000000E-02 0.  1.
        -24    2    1    2    0    0 -0.35527136788E-14  0.00000000000E+00  0.18150119716E+03  0.19801332594E+03  0.79161813259E+02 0.  0.
         66    2    3    3    0    0 -0.22766589286E+02 -0.32343699998E+02  0.91956562779E+02  0.10012213518E+03  0.19999994533E+01 0.  0.
         13    1    3    3    0    0  0.22766589286E+02  0.32343699998E+02  0.89544634385E+02  0.97891190760E+02  0.10566000000E+00 0. -1.
         13    1    4    4    0    0 -0.45108554156E+01 -0.74058941116E+01  0.20229480294E+02  0.22009955047E+02  0.10566000000E+00 0. -1.
        -13    1    4    4    0    0 -0.49536608618E+01 -0.76406877397E+01  0.21701453456E+02  0.23534721397E+02  0.10566000000E+00 0.  1.
        -14    1    4    4    0    0 -0.13302073008E+02 -0.17297118147E+02  0.50025629029E+02  0.54577458738E+02  0.00000000000E+00 0.  1.
<mgrwt>
<rscale>  0 0.79161813E+02</rscale>
<asrwt>0</asrwt>
<pdfrwt beam="1">  1        1 0.29193427E-01 0.79161813E+02</pdfrwt>
<pdfrwt beam="2">  1       -2 0.12701637E-02 0.79161813E+02</pdfrwt>
<totfact> 0.16973409E+05</totfact>
</mgrwt>
</event>
<event>
 8    1  0.1241100E-024  0.7852535E+02  0.7818608E-02  0.1333289E+00
          1   -1    0    0  501    0  0.00000000000E+00  0.00000000000E+00  0.81929770018E+01  0.81929785520E+01  0.50400000000E-02 0. -1.
         -2   -1    0    0    0  501 -0.00000000000E+00 -0.00000000000E+00 -0.18815598860E+03  0.18815598862E+03  0.25500000000E-02 0.  1.
        -24    2    1    2    0    0 -0.44408920985E-15  0.00000000000E+00 -0.17996301160E+03  0.19634896717E+03  0.78525354918E+02 0.  0.
         66    2    3    3    0    0 -0.21244617107E+01  0.34322410622E+02 -0.13728515760E+03  0.14154065033E+03  0.19999978639E+01 0.  0.
         13    1    3    3    0    0  0.21244617107E+01 -0.34322410622E+02 -0.42677854005E+02  0.54808316841E+02  0.10566000000E+00 0. -1.
         13    1    4    4    0    0 -0.21021583476E+00  0.30441847709E+01 -0.12332845028E+02  0.12705175407E+02  0.10566000000E+00 0.  1.
        -13    1    4    4    0    0 -0.15758018533E+01  0.20320658995E+02 -0.84587383107E+02  0.87008326489E+02  0.10566000000E+00 0.  1.
        -14    1    4    4    0    0 -0.33844402264E+00  0.10957566856E+02 -0.40364929462E+02  0.41827148435E+02  0.00000000000E+00 0.  1.
<mgrwt>
<rscale>  0 0.78525355E+02</rscale>
<asrwt>0</asrwt>
<pdfrwt beam="1">  1        1 0.12604583E-02 0.78525355E+02</pdfrwt>
<pdfrwt beam="2">  1       -2 0.28947072E-01 0.78525355E+02</pdfrwt>
<totfact> 0.91442801E+04</totfact>
</mgrwt>
</event>
<event>
 8    1  0.1241100E-024  0.7966457E+02  0.7818608E-02  0.1330006E+00
         -2   -1    0    0    0  501 -0.00000000000E+00  0.00000000000E+00  0.32336457376E+02  0.32336457476E+02  0.25500000000E-02 0.  1.
          1   -1    0    0  501    0  0.00000000000E+00 -0.00000000000E+00 -0.49065700620E+02  0.49065700879E+02  0.50400000000E-02 0. -1.
        -24    2    1    2    0    0  0.00000000000E+00  0.00000000000E+00 -0.16729243245E+02  0.81402158355E+02  0.79664570578E+02 0.  0.
         66    2    3    3    0    0 -0.19059585291E+02  0.18187874184E+02  0.22122919242E+02  0.34459978466E+02  0.20000003174E+01 0.  0.
         13    1    3    3    0    0  0.19059585291E+02 -0.18187874184E+02 -0.38852162487E+02  0.46942179889E+02  0.10566000000E+00 0. -1.
         13    1    4    4    0    0 -0.17724156885E+01  0.16399719113E+01  0.19739244704E+01  0.31206581186E+01  0.10566000000E+00 0. -1.
        -13    1    4    4    0    0 -0.10593062297E+02  0.11338960454E+02  0.13299205220E+02  0.20436854370E+02  0.10566000000E+00 0.  1.
         14    1    4    4    0    0 -0.66941073059E+01  0.52089418184E+01  0.68497895521E+01  0.10902465978E+02  0.00000000000E+00 0. -1.
<mgrwt>
<rscale>  0 0.79664571E+02</rscale>
<asrwt>0</asrwt>
<pdfrwt beam="1">  1        1 0.75485693E-02 0.79664571E+02</pdfrwt>
<pdfrwt beam="2">  1       -2 0.49748396E-02 0.79664571E+02</pdfrwt>
<totfact> 0.13272430E+05</totfact>
</mgrwt>
</event>
<event>
 8    1  0.1241100E-024  0.8124361E+02  0.7818608E-02  0.1325559E+00
          1   -1    0    0  501    0  0.00000000000E+00  0.00000000000E+00  0.21821832638E+02  0.21821833220E+02  0.50400000000E-02 0. -1.
         -2   -1    0    0    0  501 -0.00000000000E+00 -0.00000000000E+00 -0.75618345863E+02  0.75618345906E+02  0.25500000000E-02 0.  1.
        -24    2    1    2    0    0 -0.35527136788E-14  0.00000000000E+00 -0.53796513225E+02  0.97440179125E+02  0.81243606966E+02 0.  0.
         66    2    3    3    0    0  0.21931109662E+02  0.32726441327E+02 -0.15155150247E+02  0.42257214093E+02  0.20000077351E+01 0.  0.
         13    1    3    3    0    0 -0.21931109662E+02 -0.32726441327E+02 -0.38641362978E+02  0.55182965032E+02  0.10566000000E+00 0. -1.
         13    1    4    4    0    0  0.68569172421E+01  0.10470024300E+02 -0.39663446011E+01  0.13129424071E+02  0.10566000000E+00 0. -1.
        -13    1    4    4    0    0  0.18724474876E+01  0.23471636034E+01 -0.12772344962E+01  0.32646176757E+01  0.10566000000E+00 0. -1.
        -14    1    4    4    0    0  0.13201744933E+02  0.19909253423E+02 -0.99115711499E+01  0.25863172346E+02  0.00000000000E+00 0.  1.
<mgrwt>
<rscale>  0 0.81243607E+02</rscale>
<asrwt>0</asrwt>
<pdfrwt beam="1">  1        1 0.33572051E-02 0.81243607E+02</pdfrwt>
<pdfrwt beam="2">  1       -2 0.11633592E-01 0.81243607E+02</pdfrwt>
<totfact> 0.10875151E+05</totfact>
</mgrwt>
</event>
<event>
 8    1  0.1241100E-024  0.8064917E+02  0.7818608E-02  0.1327219E+00
         -2   -1    0    0    0  501 -0.00000000000E+00  0.00000000000E+00  0.47127810543E+02  0.47127810612E+02  0.25500000000E-02 0.  1.
          1   -1    0    0  501    0  0.00000000000E+00 -0.00000000000E+00 -0.34503450296E+02  0.34503450664E+02  0.50400000000E-02 0. -1.
        -24    2    1    2    0    0  0.17763568394E-14  0.00000000000E+00  0.12624360247E+02  0.81631261275E+02  0.80649168289E+02 0.  0.
         66    2    3    3    0    0 -0.15967195405E+02  0.23594096623E+01  0.43691979098E+02  0.46620887839E+02  0.20000005973E+01 0.  0.
         13    1    3    3    0    0  0.15967195405E+02 -0.23594096623E+01 -0.31067618851E+02  0.35010373436E+02  0.10566000000E+00 0. -1.
         13    1    4    4    0    0 -0.19604675634E+01 -0.19708320482E+00  0.59521477773E+01  0.62706859318E+01  0.10566000000E+00 0. -1.
        -13    1    4    4    0    0 -0.61212427596E+01  0.15944118406E+01  0.17363642379E+02  0.18480232757E+02  0.10566000000E+00 0.  1.
         14    1    4    4    0    0 -0.78854850823E+01  0.96208102657E+00  0.20376188941E+02  0.21869969151E+02  0.00000000000E+00 0. -1.
<mgrwt>
<rscale>  0 0.80649168E+02</rscale>
<asrwt>0</asrwt>
<pdfrwt beam="1">  1        1 0.53082232E-02 0.80649168E+02</pdfrwt>
<pdfrwt beam="2">  1       -2 0.72504324E-02 0.80649168E+02</pdfrwt>
<totfact> 0.12108749E+05</totfact>
</mgrwt>
</event>
<event>
 8    1  0.1241100E-024  0.7893054E+02  0.7818608E-02  0.1332114E+00
         -2   -1    0    0    0  501 -0.00000000000E+00  0.00000000000E+00  0.47057598161E+01  0.47057605070E+01  0.25500000000E-02 0.  1.
          1   -1    0    0  501    0  0.00000000000E+00 -0.00000000000E+00 -0.33097898473E+03  0.33097898477E+03  0.50400000000E-02 0. -1.
        -24    2    1    2    0    0  0.00000000000E+00  0.00000000000E+00 -0.32627322491E+03  0.33568474527E+03  0.78930544879E+02 0.  0.
         66    2    3    3    0    0 -0.18097917514E+02  0.34905840266E+02 -0.15009792246E+03  0.15517518691E+03  0.20000005643E+01 0.  0.
         13    1    3    3    0    0  0.18097917514E+02 -0.34905840266E+02 -0.17617530245E+03  0.18050955836E+03  0.10566000000E+00 0. -1.
         13    1    4    4    0    0 -0.10087449616E+02  0.17413097130E+02 -0.75845153943E+02  0.78469555447E+02  0.10566000000E+00 0. -1.
        -13    1    4    4    0    0 -0.49262366878E+01  0.11120762365E+02 -0.46984184035E+02  0.48533121443E+02  0.10566000000E+00 0.  1.
        -14    1    4    4    0    0 -0.30842312102E+01  0.63719807709E+01 -0.27268584483E+02  0.28172510019E+02  0.00000000000E+00 0.  1.
<mgrwt>
<rscale>  0 0.78930545E+02</rscale>
<asrwt>0</asrwt>
<pdfrwt beam="1">  1        1 0.50919826E-01 0.78930545E+02</pdfrwt>
<pdfrwt beam="2">  1       -2 0.72396336E-03 0.78930545E+02</pdfrwt>
<totfact> 0.19038837E+05</totfact>
</mgrwt>
</event>
<event>
 8    1  0.1241100E-024  0.8114514E+02  0.7818608E-02  0.1325833E+00
          1   -1    0    0  501    0  0.00000000000E+00  0.00000000000E+00  0.13771031770E+03  0.13771031780E+03  0.50400000000E-02 0. -1.
         -2   -1    0    0    0  501 -0.00000000000E+00 -0.00000000000E+00 -0.11953595403E+02  0.11953595675E+02  0.25500000000E-02 0.  1.
        -24    2    1    2    0    0  0.00000000000E+00 -0.71054273576E-14  0.12575672230E+03  0.14966391347E+03  0.81145140284E+02 0.  0.
         66    2    3    3    0    0 -0.13158358361E+02 -0.38241982667E+02  0.57527515595E+02  0.70349176854E+02  0.20000001019E+01 0.  0.
         13    1    3    3    0    0  0.13158358361E+02  0.38241982667E+02  0.68229206706E+02  0.79314736618E+02  0.10566000000E+00 0. -1.
         13    1    4    4    0    0 -0.28895112708E+01 -0.82038562527E+01  0.12490162515E+02  0.15220639161E+02  0.10566000000E+00 0. -1.
        -13    1    4    4    0    0 -0.60364076643E+01 -0.17438786043E+02  0.24684853746E+02  0.30820490662E+02  0.10566000000E+00 0.  1.
         14    1    4    4    0    0 -0.42324394261E+01 -0.12599340371E+02  0.20352499335E+02  0.24308047031E+02  0.00000000000E+00 0. -1.
<mgrwt>
<rscale>  0 0.81145140E+02</rscale>
<asrwt>0</asrwt>
<pdfrwt beam="1">  1        1 0.21186202E-01 0.81145140E+02</pdfrwt>
<pdfrwt beam="2">  1       -2 0.18390147E-02 0.81145140E+02</pdfrwt>
<totfact> 0.14962597E+05</totfact>
</mgrwt>
</event>
<event>
 8    1  0.1241100E-024  0.8031743E+02  0.7818608E-02  0.1328153E+00
          1   -1    0    0  501    0  0.00000000000E+00  0.00000000000E+00  0.71872698216E+01  0.71872715887E+01  0.50400000000E-02 0. -1.
         -2   -1    0    0    0  501 -0.00000000000E+00 -0.00000000000E+00 -0.22438589946E+03  0.22438589948E+03  0.25500000000E-02 0.  1.
        -24    2    1    2    0    0  0.00000000000E+00  0.00000000000E+00 -0.21719862964E+03  0.23157317107E+03  0.80317425504E+02 0.  0.
         66    2    3    3    0    0  0.35925045519E+01  0.24683507957E+02 -0.19931788731E+03  0.20088255745E+03  0.20000075797E+01 0.  0.
         13    1    3    3    0    0 -0.35925045519E+01 -0.24683507957E+02 -0.17880742332E+02  0.30690613621E+02  0.10566000000E+00 0. -1.
         13    1    4    4    0    0  0.10067400906E+01  0.56864852903E+01 -0.51394882631E+02  0.51718418047E+02  0.10566000000E+00 0. -1.
        -13    1    4    4    0    0  0.18480190207E+01  0.10237250877E+02 -0.78000192577E+02  0.78690899638E+02  0.10566000000E+00 0.  1.
        -14    1    4    4    0    0  0.73774544063E+00  0.87597717902E+01 -0.69922812102E+02  0.70473239761E+02  0.00000000000E+00 0.  1.
<mgrwt>
<rscale>  0 0.80317426E+02</rscale>
<asrwt>0</asrwt>
<pdfrwt beam="1">  1        1 0.11057341E-02 0.80317426E+02</pdfrwt>
<pdfrwt beam="2">  1       -2 0.34520902E-01 0.80317426E+02</pdfrwt>
<totfact> 0.80210230E+04</totfact>
</mgrwt>
</event>
<event>
 8    1  0.1241100E-024  0.8354231E+02  0.7818608E-02  0.1319289E+00
          1   -1    0    0  501    0  0.00000000000E+00  0.00000000000E+00  0.10321987970E+02  0.10321989200E+02  0.50400000000E-02 0. -1.
         -2   -1    0    0    0  501 -0.00000000000E+00 -0.00000000000E+00 -0.16904003800E+03  0.16904003802E+03  0.25500000000E-02 0.  1.
        -24    2    1    2    0    0  0.71054273576E-14  0.88817841970E-15 -0.15871805003E+03  0.17936202722E+03  0.83542309058E+02 0.  0.
         66    2    3    3    0    0 -0.40392575885E+02 -0.69552798615E+01 -0.96430227446E+02  0.10479849652E+03  0.20000005251E+01 0.  0.
         13    1    3    3    0    0  0.40392575885E+02  0.69552798615E+01 -0.62287822583E+02  0.74563530702E+02  0.10566000000E+00 0. -1.
         13    1    4    4    0    0 -0.77439791700E+00 -0.80562875188E-01 -0.19995448082E+01  0.21483775242E+01  0.10566000000E+00 0.  1.
        -13    1    4    4    0    0 -0.15898280269E+02 -0.33917110285E+01 -0.39640024316E+02  0.42843922685E+02  0.10566000000E+00 0.  1.
        -14    1    4    4    0    0 -0.23719897699E+02 -0.34830059578E+01 -0.54790658322E+02  0.59806196307E+02  0.00000000000E+00 0.  1.
<mgrwt>
<rscale>  0 0.83542309E+02</rscale>
<asrwt>0</asrwt>
<pdfrwt beam="1">  1        1 0.15879984E-02 0.83542309E+02</pdfrwt>
<pdfrwt beam="2">  1       -2 0.26006158E-01 0.83542309E+02</pdfrwt>
<totfact> 0.81121511E+04</totfact>
</mgrwt>
</event>
<event>
 8    1  0.1241100E-024  0.7978841E+02  0.7818608E-02  0.1329653E+00
         -2   -1    0    0    0  501 -0.00000000000E+00  0.00000000000E+00  0.66251990939E+03  0.66251990939E+03  0.25500000000E-02 0.  1.
          1   -1    0    0  501    0  0.00000000000E+00 -0.00000000000E+00 -0.24022613915E+01  0.24022666785E+01  0.50400000000E-02 0. -1.
        -24    2    1    2    0    0 -0.71054273576E-14  0.00000000000E+00  0.66011764799E+03  0.66492217607E+03  0.79788414165E+02 0.  0.
         66    2    3    3    0    0  0.35817276021E+02 -0.85203893027E+01  0.45776336429E+03  0.45924587313E+03  0.20000001189E+01 0.  0.
         13    1    3    3    0    0 -0.35817276021E+02  0.85203893027E+01  0.20235428370E+03  0.20567630294E+03  0.10566000000E+00 0. -1.
         13    1    4    4    0    0  0.74009511390E+01 -0.20629582627E+01  0.96888988341E+02  0.97193194722E+02  0.10566000000E+00 0. -1.
        -13    1    4    4    0    0  0.18324588374E+02 -0.36418648557E+01  0.23840685576E+03  0.23913781332E+03  0.10566000000E+00 0.  1.
        -14    1    4    4    0    0  0.10091736508E+02 -0.28155661843E+01  0.12246752019E+03  0.12291486509E+03  0.00000000000E+00 0.  1.
<mgrwt>
<rscale>  0 0.79788414E+02</rscale>
<asrwt>0</asrwt>
<pdfrwt beam="1">  1        1 0.36957924E-03 0.79788414E+02</pdfrwt>
<pdfrwt beam="2">  1       -2 0.10192610E+00 0.79788414E+02</pdfrwt>
<totfact> 0.40097829E+04</totfact>
</mgrwt>
</event>
<event>
 8    1  0.1241100E-024  0.8021611E+02  0.7818608E-02  0.1328439E+00
          1   -1    0    0  501    0  0.00000000000E+00  0.00000000000E+00  0.13359310750E+02  0.13359311700E+02  0.50400000000E-02 0. -1.
         -2   -1    0    0    0  501 -0.00000000000E+00 -0.00000000000E+00 -0.12041459547E+03  0.12041459550E+03  0.25500000000E-02 0.  1.
        -24    2    1    2    0    0  0.00000000000E+00  0.71054273576E-14 -0.10705528472E+03  0.13377390720E+03  0.80216109731E+02 0.  0.
         66    2    3    3    0    0 -0.65986526490E+01  0.36391053370E+02 -0.79331575926E+02  0.87551984093E+02  0.19999993955E+01 0.  0.
         13    1    3    3    0    0  0.65986526490E+01 -0.36391053370E+02 -0.27723708797E+02  0.46221923107E+02  0.10566000000E+00 0. -1.
         13    1    4    4    0    0 -0.14994628421E+01  0.12767927998E+02 -0.27058778656E+02  0.29957587362E+02  0.10566000000E+00 0. -1.
        -13    1    4    4    0    0 -0.13435244686E+01  0.64109243726E+01 -0.13383763335E+02  0.14901050109E+02  0.10566000000E+00 0.  1.
        -14    1    4    4    0    0 -0.37556653383E+01  0.17212201000E+02 -0.38889033935E+02  0.42693346622E+02  0.00000000000E+00 0.  1.
<mgrwt>
<rscale>  0 0.80216110E+02</rscale>
<asrwt>0</asrwt>
<pdfrwt beam="1">  1        1 0.20552787E-02 0.80216110E+02</pdfrwt>
<pdfrwt beam="2">  1       -2 0.18525322E-01 0.80216110E+02</pdfrwt>
<totfact> 0.10035016E+05</totfact>
</mgrwt>
</event>
<event>
 8    1  0.1241100E-024  0.7963299E+02  0.7818608E-02  0.1330096E+00
         -2   -1    0    0    0  501 -0.00000000000E+00  0.00000000000E+00  0.10721080273E+03  0.10721080276E+03  0.25500000000E-02 0.  1.
          1   -1    0    0  501    0  0.00000000000E+00 -0.00000000000E+00 -0.14787252412E+02  0.14787253271E+02  0.50400000000E-02 0. -1.
        -24    2    1    2    0    0  0.00000000000E+00  0.00000000000E+00  0.92423550314E+02  0.12199805603E+03  0.79632989531E+02 0.  0.
         66    2    3    3    0    0  0.33498192304E+02 -0.84090764582E+01  0.76515150480E+02  0.83972672349E+02  0.19999984991E+01 0.  0.
         13    1    3    3    0    0 -0.33498192304E+02  0.84090764582E+01  0.15908399835E+02  0.38025383678E+02  0.10566000000E+00 0. -1.
         13    1    4    4    0    0  0.16400268357E+02 -0.35617485283E+01  0.38560918471E+02  0.42054850518E+02  0.10566000000E+00 0. -1.
        -13    1    4    4    0    0  0.10949091100E+02 -0.32507834082E+01  0.23474756448E+02  0.26106044185E+02  0.10566000000E+00 0.  1.
        -14    1    4    4    0    0  0.61488328470E+01 -0.15965445217E+01  0.14479475561E+02  0.15811777645E+02  0.00000000000E+00 0.  1.
<mgrwt>
<rscale>  0 0.79632990E+02</rscale>
<asrwt>0</asrwt>
<pdfrwt beam="1">  1        1 0.22749620E-02 0.79632990E+02</pdfrwt>
<pdfrwt beam="2">  1       -2 0.16493969E-01 0.79632990E+02</pdfrwt>
<totfact> 0.10550331E+05</totfact>
</mgrwt>
</event>
<event>
 8    1  0.1241100E-024  0.7448928E+02  0.7818608E-02  0.1345460E+00
          1   -1    0    0  501    0  0.00000000000E+00  0.00000000000E+00  0.13492246435E+03  0.13492246445E+03  0.50400000000E-02 0. -1.
         -2   -1    0    0    0  501 -0.00000000000E+00 -0.00000000000E+00 -0.10281186994E+02  0.10281187310E+02  0.25500000000E-02 0.  1.
        -24    2    1    2    0    0  0.00000000000E+00  0.00000000000E+00  0.12464127736E+03  0.14520365176E+03  0.74489277497E+02 0.  0.
         66    2    3    3    0    0  0.17762682068E+02 -0.18690540527E+02  0.10048393457E+02  0.27745619318E+02  0.20000002123E+01 0.  0.
         13    1    3    3    0    0 -0.17762682068E+02  0.18690540527E+02  0.11459288390E+03  0.11745803244E+03  0.10566000000E+00 0. -1.
         13    1    4    4    0    0  0.67737524890E+01 -0.63025075408E+01  0.42643851869E+01  0.10188300601E+02  0.10566000000E+00 0. -1.
        -13    1    4    4    0    0  0.94188286334E+01 -0.10508732614E+02  0.51987456892E+01  0.15039478540E+02  0.10566000000E+00 0.  1.
         14    1    4    4    0    0  0.15701009453E+01 -0.18793003722E+01  0.58526258064E+00  0.25178401767E+01  0.00000000000E+00 0. -1.
<mgrwt>
<rscale>  0 0.74489277E+02</rscale>
<asrwt>0</asrwt>
<pdfrwt beam="1">  1        1 0.20757302E-01 0.74489277E+02</pdfrwt>
<pdfrwt beam="2">  1       -2 0.15817211E-02 0.74489277E+02</pdfrwt>
<totfact> 0.18732795E+05</totfact>
</mgrwt>
</event>
<event>
 8    1  0.1241100E-024  0.8183068E+02  0.7818608E-02  0.1323935E+00
          1   -1    0    0  501    0  0.00000000000E+00  0.00000000000E+00  0.83625384458E+01  0.83625399646E+01  0.50400000000E-02 0. -1.
         -2   -1    0    0    0  501 -0.00000000000E+00 -0.00000000000E+00 -0.20018620643E+03  0.20018620644E+03  0.25500000000E-02 0.  1.
        -24    2    1    2    0    0  0.00000000000E+00 -0.17763568394E-14 -0.19182366798E+03  0.20854874641E+03  0.81830679030E+02 0.  0.
         66    2    3    3    0    0 -0.35457456219E+02  0.13445347079E+02 -0.56979516532E+02  0.68473891763E+02  0.19999973510E+01 0.  0.
         13    1    3    3    0    0  0.35457456219E+02 -0.13445347079E+02 -0.13484415145E+03  0.14007485464E+03  0.10566000000E+00 0. -1.
         13    1    4    4    0    0 -0.15690348005E+02  0.55283847855E+01 -0.26075951758E+02  0.30930833855E+02  0.10566000000E+00 0. -1.
        -13    1    4    4    0    0 -0.16257904494E+02  0.63771072075E+01 -0.24675138364E+02  0.30230126896E+02  0.10566000000E+00 0.  1.
        -14    1    4    4    0    0 -0.35092037202E+01  0.15398550861E+01 -0.62284264099E+01  0.73129310116E+01  0.00000000000E+00 0.  1.
<mgrwt>
<rscale>  0 0.81830679E+02</rscale>
<asrwt>0</asrwt>
<pdfrwt beam="1">  1        1 0.12865446E-02 0.81830679E+02</pdfrwt>
<pdfrwt beam="2">  1       -2 0.30797874E-01 0.81830679E+02</pdfrwt>
<totfact> 0.80219353E+04</totfact>
</mgrwt>
</event>
<event>
 8    1  0.1241100E-024  0.8014923E+02  0.7818608E-02  0.1328628E+00
         -2   -1    0    0    0  501 -0.00000000000E+00  0.00000000000E+00  0.14169145658E+02  0.14169145888E+02  0.25500000000E-02 0.  1.
          1   -1    0    0  501    0  0.00000000000E+00 -0.00000000000E+00 -0.11334308907E+03  0.11334308918E+03  0.50400000000E-02 0. -1.
        -24    2    1    2    0    0 -0.35527136788E-14  0.00000000000E+00 -0.99173943412E+02  0.12751223507E+03  0.80149229820E+02 0.  0.
         66    2    3    3    0    0  0.25134546784E+02 -0.19077653182E+02 -0.10380399012E+02  0.33278446098E+02  0.19999995049E+01 0.  0.
         13    1    3    3    0    0 -0.25134546784E+02  0.19077653182E+02 -0.88793544400E+02  0.94233788973E+02  0.10566000000E+00 0. -1.
         13    1    4    4    0    0  0.21985496483E+01 -0.13726366132E+01 -0.11261973058E+01  0.28279385133E+01  0.10566000000E+00 0.  1.
        -13    1    4    4    0    0  0.21148702878E+01 -0.17145830511E+01 -0.13014993981E+01  0.30195258058E+01  0.10566000000E+00 0.  1.
        -14    1    4    4    0    0  0.20821126848E+02 -0.15990433518E+02 -0.79527023084E+01  0.27430981778E+02  0.00000000000E+00 0.  1.
<mgrwt>
<rscale>  0 0.80149230E+02</rscale>
<asrwt>0</asrwt>
<pdfrwt beam="1">  1        1 0.17437398E-01 0.80149230E+02</pdfrwt>
<pdfrwt beam="2">  1       -2 0.21798687E-02 0.80149230E+02</pdfrwt>
<totfact> 0.14941295E+05</totfact>
</mgrwt>
</event>
<event>
 8    1  0.1241100E-024  0.7864050E+02  0.7818608E-02  0.1332954E+00
         -2   -1    0    0    0  501 -0.00000000000E+00  0.00000000000E+00  0.17069207196E+03  0.17069207198E+03  0.25500000000E-02 0.  1.
          1   -1    0    0  501    0  0.00000000000E+00 -0.00000000000E+00 -0.90577251997E+01  0.90577266019E+01  0.50400000000E-02 0. -1.
        -24    2    1    2    0    0  0.35527136788E-14  0.00000000000E+00  0.16163434676E+03  0.17974979858E+03  0.78640498709E+02 0.  0.
         66    2    3    3    0    0  0.29000036198E+02 -0.12492351879E+02  0.27410132617E+02  0.41861395221E+02  0.20000211938E+01 0.  0.
         13    1    3    3    0    0 -0.29000036198E+02  0.12492351879E+02  0.13422421414E+03  0.13788840336E+03  0.10566000000E+00 0. -1.
         13    1    4    4    0    0  0.12798641771E+02 -0.46517370762E+01  0.11482008649E+02  0.17812680193E+02  0.10566000000E+00 0. -1.
        -13    1    4    4    0    0  0.60552723025E+01 -0.32580317576E+01  0.57420349279E+01  0.89589744246E+01  0.10566000000E+00 0.  1.
         14    1    4    4    0    0  0.10146122124E+02 -0.45825830456E+01  0.10186089040E+02  0.15089740603E+02  0.00000000000E+00 0. -1.
<mgrwt>
<rscale>  0 0.78640499E+02</rscale>
<asrwt>0</asrwt>
<pdfrwt beam="1">  1        1 0.13934963E-02 0.78640499E+02</pdfrwt>
<pdfrwt beam="2">  1       -2 0.26260318E-01 0.78640499E+02</pdfrwt>
<totfact> 0.94477932E+04</totfact>
</mgrwt>
</event>
<event>
 8    1  0.1241100E-024  0.8012375E+02  0.7818608E-02  0.1328701E+00
          1   -1    0    0  501    0  0.00000000000E+00  0.00000000000E+00  0.68275847624E+02  0.68275847810E+02  0.50400000000E-02 0. -1.
         -2   -1    0    0    0  501 -0.00000000000E+00 -0.00000000000E+00 -0.23506905027E+02  0.23506905166E+02  0.25500000000E-02 0.  1.
        -24    2    1    2    0    0  0.35527136788E-14  0.00000000000E+00  0.44768942597E+02  0.91782752976E+02  0.80123751301E+02 0.  0.
         66    2    3    3    0    0 -0.17380933082E+02 -0.31244695973E+02  0.17594031214E+01  0.35852801150E+02  0.19999974240E+01 0.  0.
         13    1    3    3    0    0  0.17380933082E+02  0.31244695973E+02  0.43009539475E+02  0.55929951825E+02  0.10566000000E+00 0. -1.
         13    1    4    4    0    0 -0.67486196979E+00 -0.84935543588E+00  0.32314185315E+00  0.11368500462E+01  0.10566000000E+00 0. -1.
        -13    1    4    4    0    0 -0.59977383031E+01 -0.10695839218E+02  0.64788583100E+00  0.12280259013E+02  0.10566000000E+00 0.  1.
         14    1    4    4    0    0 -0.10708332809E+02 -0.19699501319E+02  0.78837543728E+00  0.22435692091E+02  0.00000000000E+00 0. -1.
<mgrwt>
<rscale>  0 0.80123751E+02</rscale>
<asrwt>0</asrwt>
<pdfrwt beam="1">  1        1 0.10503977E-01 0.80123751E+02</pdfrwt>
<pdfrwt beam="2">  1       -2 0.36164470E-02 0.80123751E+02</pdfrwt>
<totfact> 0.13757649E+05</totfact>
</mgrwt>
</event>
<event>
 8    1  0.1241100E-024  0.7730732E+02  0.7818608E-02  0.1336871E+00
         -2   -1    0    0    0  501 -0.00000000000E+00  0.00000000000E+00  0.24658879682E+03  0.24658879684E+03  0.25500000000E-02 0.  1.
          1   -1    0    0  501    0  0.00000000000E+00 -0.00000000000E+00 -0.60590959870E+01  0.60590980832E+01  0.50400000000E-02 0. -1.
        -24    2    1    2    0    0  0.00000000000E+00  0.00000000000E+00  0.24052970083E+03  0.25264789492E+03  0.77307320630E+02 0.  0.
         66    2    3    3    0    0 -0.82891360344E+01 -0.20932056026E+02  0.22292590755E+03  0.22406878633E+03  0.20000009050E+01 0.  0.
         13    1    3    3    0    0  0.82891360344E+01  0.20932056026E+02  0.17603793280E+02  0.28579108586E+02  0.10566000000E+00 0. -1.
         13    1    4    4    0    0 -0.32826186302E+01 -0.70257931454E+01  0.73190387890E+02  0.73600145366E+02  0.10566000000E+00 0. -1.
        -13    1    4    4    0    0 -0.30380844055E+01 -0.88724286236E+01  0.10088776987E+03  0.10132276753E+03  0.10566000000E+00 0.  1.
        -14    1    4    4    0    0 -0.19684329988E+01 -0.50338342573E+01  0.48847749793E+02  0.49145873435E+02  0.00000000000E+00 0.  1.
<mgrwt>
<rscale>  0 0.77307321E+02</rscale>
<asrwt>0</asrwt>
<pdfrwt beam="1">  1        1 0.93216870E-03 0.77307321E+02</pdfrwt>
<pdfrwt beam="2">  1       -2 0.37936741E-01 0.77307321E+02</pdfrwt>
<totfact> 0.84785674E+04</totfact>
</mgrwt>
</event>
<event>
 8    1  0.1241100E-024  0.8030035E+02  0.7818608E-02  0.1328201E+00
         -2   -1    0    0    0  501 -0.00000000000E+00  0.00000000000E+00  0.14301899793E+02  0.14301900020E+02  0.25500000000E-02 0.  1.
          1   -1    0    0  501    0  0.00000000000E+00 -0.00000000000E+00 -0.11271485249E+03  0.11271485260E+03  0.50400000000E-02 0. -1.
        -24    2    1    2    0    0  0.00000000000E+00  0.00000000000E+00 -0.98412952698E+02  0.12701675262E+03  0.80300349865E+02 0.  0.
         66    2    3    3    0    0 -0.29288125108E+02  0.22363680339E+02 -0.24121945034E+02  0.44088509821E+02  0.19999988366E+01 0.  0.
         13    1    3    3    0    0  0.29288125108E+02 -0.22363680339E+02 -0.74291007664E+02  0.82928242803E+02  0.10566000000E+00 0. -1.
         13    1    4    4    0    0 -0.87813148151E+01  0.66013943685E+01 -0.64167052309E+01  0.12723017234E+02  0.10566000000E+00 0. -1.
        -13    1    4    4    0    0 -0.89907503454E+01  0.69019510386E+01 -0.70721346525E+01  0.13360268429E+02  0.10566000000E+00 0.  1.
         14    1    4    4    0    0 -0.11516059947E+02  0.88603349322E+01 -0.10633105150E+02  0.18005224157E+02  0.00000000000E+00 0. -1.
<mgrwt>
<rscale>  0 0.80300350E+02</rscale>
<asrwt>0</asrwt>
<pdfrwt beam="1">  1        1 0.17340746E-01 0.80300350E+02</pdfrwt>
<pdfrwt beam="2">  1       -2 0.22002924E-02 0.80300350E+02</pdfrwt>
<totfact> 0.14851385E+05</totfact>
</mgrwt>
</event>
<event>
 8    1  0.1241100E-024  0.8545282E+02  0.7818608E-02  0.1314253E+00
         -2   -1    0    0    0  501 -0.00000000000E+00  0.00000000000E+00  0.10457850524E+02  0.10457850835E+02  0.25500000000E-02 0.  1.
          1   -1    0    0  501    0  0.00000000000E+00 -0.00000000000E+00 -0.17456226083E+03  0.17456226090E+03  0.50400000000E-02 0. -1.
        -24    2    1    2    0    0  0.00000000000E+00  0.00000000000E+00 -0.16410441030E+03  0.18502011174E+03  0.85452818945E+02 0.  0.
         66    2    3    3    0    0  0.20260672516E+02 -0.17846671618E+02 -0.10464732620E+02  0.29026008445E+02  0.19999996974E+01 0.  0.
         13    1    3    3    0    0 -0.20260672516E+02  0.17846671618E+02 -0.15363967768E+03  0.15599410329E+03  0.10566000000E+00 0. -1.
         13    1    4    4    0    0  0.99444862939E+01 -0.95406422547E+01 -0.44996954511E+01  0.14497416510E+02  0.10566000000E+00 0.  1.
        -13    1    4    4    0    0  0.39619465045E+01 -0.32041878424E+01 -0.24205157122E+01  0.56421538603E+01  0.10566000000E+00 0. -1.
        -14    1    4    4    0    0  0.63542397181E+01 -0.51018415212E+01 -0.35445214570E+01  0.88864380750E+01  0.00000000000E+00 0.  1.
<mgrwt>
<rscale>  0 0.85452819E+02</rscale>
<asrwt>0</asrwt>
<pdfrwt beam="1">  1        1 0.26855730E-01 0.85452819E+02</pdfrwt>
<pdfrwt beam="2">  1       -2 0.16089002E-02 0.85452819E+02</pdfrwt>
<totfact> 0.13618379E+05</totfact>
</mgrwt>
</event>
<event>
 8    1  0.1241100E-024  0.7908928E+02  0.7818608E-02  0.1331656E+00
         -2   -1    0    0    0  501 -0.00000000000E+00  0.00000000000E+00  0.53219709068E+02  0.53219709129E+02  0.25500000000E-02 0.  1.
          1   -1    0    0  501    0  0.00000000000E+00 -0.00000000000E+00 -0.29383445692E+02  0.29383446125E+02  0.50400000000E-02 0. -1.
        -24    2    1    2    0    0  0.00000000000E+00  0.00000000000E+00  0.23836263375E+02  0.82603155253E+02  0.79089277441E+02 0.  0.
         66    2    3    3    0    0  0.36645765440E+02  0.11733611900E+02  0.25152134161E+01  0.38612382263E+02  0.19999981576E+01 0.  0.
         13    1    3    3    0    0 -0.36645765440E+02 -0.11733611900E+02  0.21321049959E+02  0.43990772990E+02  0.10566000000E+00 0. -1.
         13    1    4    4    0    0  0.14597680412E+02  0.49947598499E+01  0.49917689514E+00  0.15436976419E+02  0.10566000000E+00 0. -1.
        -13    1    4    4    0    0  0.44607438377E+01  0.18736095976E+01  0.46810157698E+00  0.48619884442E+01  0.10566000000E+00 0.  1.
         14    1    4    4    0    0  0.17587341190E+02  0.48652424521E+01  0.15479349440E+01  0.18313417399E+02  0.00000000000E+00 0. -1.
<mgrwt>
<rscale>  0 0.79089277E+02</rscale>
<asrwt>0</asrwt>
<pdfrwt beam="1">  1        1 0.45205302E-02 0.79089277E+02</pdfrwt>
<pdfrwt beam="2">  1       -2 0.81876475E-02 0.79089277E+02</pdfrwt>
<totfact> 0.12453507E+05</totfact>
</mgrwt>
</event>
<event>
 8    1  0.1241100E-024  0.7978162E+02  0.7818608E-02  0.1329672E+00
         -2   -1    0    0    0  501 -0.00000000000E+00  0.00000000000E+00  0.37524724846E+02  0.37524724933E+02  0.25500000000E-02 0.  1.
          1   -1    0    0  501    0  0.00000000000E+00 -0.00000000000E+00 -0.42406091143E+02  0.42406091443E+02  0.50400000000E-02 0. -1.
        -24    2    1    2    0    0 -0.17763568394E-14 -0.88817841970E-15 -0.48813662973E+01  0.79930816376E+02  0.79781624887E+02 0.  0.
         66    2    3    3    0    0  0.15660655238E+02  0.36976316408E+01  0.34099865722E+02  0.37758832594E+02  0.19999985859E+01 0.  0.
         13    1    3    3    0    0 -0.15660655238E+02 -0.36976316408E+01 -0.38981232020E+02  0.42171983781E+02  0.10566000000E+00 0. -1.
         13    1    4    4    0    0  0.10989609466E+02  0.32919860564E+01  0.23318038267E+02  0.25987511636E+02  0.10566000000E+00 0. -1.
        -13    1    4    4    0    0  0.40499818675E+01  0.15563842377E+00  0.92870992795E+01  0.10133506476E+02  0.10566000000E+00 0.  1.
        -14    1    4    4    0    0  0.62106390470E+00  0.25000716065E+00  0.14947281762E+01  0.16378144812E+01  0.00000000000E+00 0.  1.
<mgrwt>
<rscale>  0 0.79781625E+02</rscale>
<asrwt>0</asrwt>
<pdfrwt beam="1">  1        1 0.65240141E-02 0.79781625E+02</pdfrwt>
<pdfrwt beam="2">  1       -2 0.57730346E-02 0.79781625E+02</pdfrwt>
<totfact> 0.12916498E+05</totfact>
</mgrwt>
</event>
<event>
 8    1  0.1241100E-024  0.7917808E+02  0.7818608E-02  0.1331400E+00
          1   -1    0    0  501    0  0.00000000000E+00  0.00000000000E+00  0.86883960875E+02  0.86883961022E+02  0.50400000000E-02 0. -1.
         -2   -1    0    0    0  501 -0.00000000000E+00 -0.00000000000E+00 -0.18038911247E+02  0.18038911427E+02  0.25500000000E-02 0.  1.
        -24    2    1    2    0    0  0.00000000000E+00 -0.35527136788E-14  0.68845049629E+02  0.10492287245E+03  0.79178079697E+02 0.  0.
         66    2    3    3    0    0 -0.69146234670E+01 -0.20848664684E+02 -0.91610455210E+01  0.23883123675E+02  0.20000011670E+01 0.  0.
         13    1    3    3    0    0  0.69146234670E+01  0.20848664684E+02  0.78006095150E+02  0.81039748774E+02  0.10566000000E+00 0. -1.
         13    1    4    4    0    0 -0.32388451392E+01 -0.82916510633E+01 -0.40206257910E+01  0.97682235323E+01  0.10566000000E+00 0. -1.
        -13    1    4    4    0    0 -0.68295190256E+00 -0.10597201477E+01 -0.49072513404E+00  0.13569838929E+01  0.10566000000E+00 0.  1.
         14    1    4    4    0    0 -0.29928264252E+01 -0.11497293472E+02 -0.46496945959E+01  0.12757916250E+02  0.00000000000E+00 0. -1.
<mgrwt>
<rscale>  0 0.79178080E+02</rscale>
<asrwt>0</asrwt>
<pdfrwt beam="1">  1        1 0.13366763E-01 0.79178080E+02</pdfrwt>
<pdfrwt beam="2">  1       -2 0.27752171E-02 0.79178080E+02</pdfrwt>
<totfact> 0.14768580E+05</totfact>
</mgrwt>
</event>
<event>
 8    1  0.1241100E-024  0.8469514E+02  0.7818608E-02  0.1316232E+00
         -2   -1    0    0    0  501 -0.00000000000E+00  0.00000000000E+00  0.11545654637E+03  0.11545654640E+03  0.25500000000E-02 0.  1.
          1   -1    0    0  501    0  0.00000000000E+00 -0.00000000000E+00 -0.15532394696E+02  0.15532395514E+02  0.50400000000E-02 0. -1.
        -24    2    1    2    0    0  0.71054273576E-14  0.00000000000E+00  0.99924151672E+02  0.13098894191E+03  0.84695140446E+02 0.  0.
         66    2    3    3    0    0 -0.36673894698E+02 -0.13494099164E+02  0.75130749751E+02  0.84709473380E+02  0.20000143962E+01 0.  0.
         13    1    3    3    0    0  0.36673894698E+02  0.13494099164E+02  0.24793401921E+02  0.46279468530E+02  0.10566000000E+00 0. -1.
         13    1    4    4    0    0 -0.60327512254E+01 -0.25704786407E+01  0.11900046027E+02  0.13587630671E+02  0.10566000000E+00 0. -1.
        -13    1    4    4    0    0 -0.26424279189E+02 -0.99089940220E+01  0.54529008172E+02  0.61399141602E+02  0.10566000000E+00 0.  1.
        -14    1    4    4    0    0 -0.42168642831E+01 -0.10146265008E+01  0.87016955520E+01  0.97227011061E+01  0.00000000000E+00 0.  1.
<mgrwt>
<rscale>  0 0.84695140E+02</rscale>
<asrwt>0</asrwt>
<pdfrwt beam="1">  1        1 0.23895992E-02 0.84695140E+02</pdfrwt>
<pdfrwt beam="2">  1       -2 0.17762546E-01 0.84695140E+02</pdfrwt>
<totfact> 0.88300012E+04</totfact>
</mgrwt>
</event>
<event>
 8    1  0.1299311E-024  0.7851701E+02  0.7818608E-02  0.1333313E+00
         -2   -1    0    0    0  501 -0.00000000000E+00  0.00000000000E+00  0.12463683717E+02  0.12463683977E+02  0.25500000000E-02 0.  1.
          1   -1    0    0  501    0  0.00000000000E+00 -0.00000000000E+00 -0.12365768550E+03  0.12365768560E+03  0.50400000000E-02 0. -1.
        -24    2    1    2    0    0 -0.35527136788E-14  0.35527136788E-14 -0.11119400178E+03  0.13612136958E+03  0.78517012319E+02 0.  0.
         66    2    3    3    0    0  0.19948906277E+02 -0.29628864480E+02 -0.27496615828E+02  0.45120863802E+02  0.19999990528E+01 0.  0.
         13    1    3    3    0    0 -0.19948906277E+02  0.29628864480E+02 -0.83697385951E+02  0.91000505774E+02  0.10566000000E+00 0. -1.
         13    1    4    4    0    0  0.46799011669E+01 -0.66160514436E+01 -0.59698217659E+01  0.10065959844E+02  0.10566000000E+00 0. -1.
        -13    1    4    4    0    0  0.14173907059E+02 -0.21091196752E+02 -0.19240876506E+02  0.31874138647E+02  0.10566000000E+00 0.  1.
         14    1    4    4    0    0  0.10950980512E+01 -0.19216162842E+01 -0.22859175556E+01  0.31807653099E+01  0.00000000000E+00 0. -1.
<mgrwt>
<rscale>  0 0.78517012E+02</rscale>
<asrwt>0</asrwt>
<pdfrwt beam="1">  1        1 0.19024259E-01 0.78517012E+02</pdfrwt>
<pdfrwt beam="2">  1       -2 0.19174899E-02 0.78517012E+02</pdfrwt>
<totfact> 0.16031542E+05</totfact>
</mgrwt>
</event>
<event>
 8    1  0.1241100E-024  0.7900663E+02  0.7818608E-02  0.1331894E+00
         -2   -1    0    0    0  501 -0.00000000000E+00  0.00000000000E+00  0.16626004495E+02  0.16626004690E+02  0.25500000000E-02 0.  1.
          1   -1    0    0  501    0  0.00000000000E+00 -0.00000000000E+00 -0.93859713687E+02  0.93859713823E+02  0.50400000000E-02 0. -1.
        -24    2    1    2    0    0  0.17763568394E-14 -0.35527136788E-14 -0.77233709193E+02  0.11048571851E+03  0.79006633644E+02 0.  0.
         66    2    3    3    0    0  0.13204988379E+02 -0.25724992915E+02 -0.10561068491E+01  0.29004522882E+02  0.20000018473E+01 0.  0.
         13    1    3    3    0    0 -0.13204988379E+02  0.25724992915E+02 -0.76177602344E+02  0.81481195631E+02  0.10566000000E+00 0. -1.
         13    1    4    4    0    0  0.12687778140E+01 -0.33027819014E+01  0.30492124460E+00  0.35527885430E+01  0.10566000000E+00 0. -1.
        -13    1    4    4    0    0  0.71398188090E+01 -0.13494179321E+02 -0.41199462927E+00  0.15272550272E+02  0.10566000000E+00 0.  1.
         14    1    4    4    0    0  0.47963917554E+01 -0.89280316922E+01 -0.94903346443E+00  0.10179184068E+02  0.00000000000E+00 0. -1.
<mgrwt>
<rscale>  0 0.79006634E+02</rscale>
<asrwt>0</asrwt>
<pdfrwt beam="1">  1        1 0.14439956E-01 0.79006634E+02</pdfrwt>
<pdfrwt beam="2">  1       -2 0.25578469E-02 0.79006634E+02</pdfrwt>
<totfact> 0.15044467E+05</totfact>
</mgrwt>
</event>
<event>
 8    1  0.1241100E-024  0.8211640E+02  0.7818608E-02  0.1323150E+00
          1   -1    0    0  501    0  0.00000000000E+00  0.00000000000E+00  0.21936957353E+02  0.21936957932E+02  0.50400000000E-02 0. -1.
         -2   -1    0    0    0  501 -0.00000000000E+00 -0.00000000000E+00 -0.76846381977E+02  0.76846382019E+02  0.25500000000E-02 0.  1.
        -24    2    1    2    0    0  0.00000000000E+00 -0.35527136788E-14 -0.54909424624E+02  0.98783339951E+02  0.82116401160E+02 0.  0.
         66    2    3    3    0    0 -0.97154341921E+01 -0.24845131994E+02 -0.64977700326E+02  0.70269280524E+02  0.20000000866E+01 0.  0.
         13    1    3    3    0    0  0.97154341921E+01  0.24845131994E+02  0.10068275702E+02  0.28514059427E+02  0.10566000000E+00 0. -1.
         13    1    4    4    0    0 -0.13929980970E+01 -0.24103607808E+01 -0.72457040893E+01  0.77628393373E+01  0.10566000000E+00 0. -1.
        -13    1    4    4    0    0 -0.15933906384E+01 -0.30944150286E+01 -0.84533836083E+01  0.91424918136E+01  0.10566000000E+00 0.  1.
        -14    1    4    4    0    0 -0.67290454568E+01 -0.19340356185E+02 -0.49278612629E+02  0.53363949373E+02  0.00000000000E+00 0.  1.
<mgrwt>
<rscale>  0 0.82116401E+02</rscale>
<asrwt>0</asrwt>
<pdfrwt beam="1">  1        1 0.33749166E-02 0.82116401E+02</pdfrwt>
<pdfrwt beam="2">  1       -2 0.11822520E-01 0.82116401E+02</pdfrwt>
<totfact> 0.10547176E+05</totfact>
</mgrwt>
</event>
<event>
 8    1  0.1241100E-024  0.7912395E+02  0.7818608E-02  0.1331556E+00
         -2   -1    0    0    0  501 -0.00000000000E+00  0.00000000000E+00  0.43885293051E+02  0.43885293125E+02  0.25500000000E-02 0.  1.
          1   -1    0    0  501    0  0.00000000000E+00 -0.00000000000E+00 -0.35664566870E+02  0.35664567226E+02  0.50400000000E-02 0. -1.
        -24    2    1    2    0    0  0.71054273576E-14  0.00000000000E+00  0.82207261816E+01  0.79549860351E+02  0.79123953029E+02 0.  0.
         66    2    3    3    0    0 -0.39259630528E+02  0.37697871829E+00 -0.56872777358E+00  0.39316461700E+02  0.20000018030E+01 0.  0.
         13    1    3    3    0    0  0.39259630528E+02 -0.37697871829E+00  0.87894539551E+01  0.40233398651E+02  0.10566000000E+00 0. -1.
         13    1    4    4    0    0 -0.54402131910E+01 -0.50879007139E+00 -0.27640444967E-02  0.54649756244E+01  0.10566000000E+00 0. -1.
        -13    1    4    4    0    0 -0.20101767472E+02  0.37385658041E+00  0.14235791085E+00  0.20106025317E+02  0.10566000000E+00 0.  1.
        -14    1    4    4    0    0 -0.13717649865E+02  0.51191220926E+00 -0.70832163994E+00  0.13745460759E+02  0.00000000000E+00 0.  1.
<mgrwt>
<rscale>  0 0.79123953E+02</rscale>
<asrwt>0</asrwt>
<pdfrwt beam="1">  1        1 0.54868565E-02 0.79123953E+02</pdfrwt>
<pdfrwt beam="2">  1       -2 0.67515836E-02 0.79123953E+02</pdfrwt>
<totfact> 0.12854918E+05</totfact>
</mgrwt>
</event>
<event>
 8    1  0.1241100E-024  0.7953718E+02  0.7818608E-02  0.1330370E+00
          1   -1    0    0  501    0  0.00000000000E+00  0.00000000000E+00  0.17476095469E+01  0.17476168145E+01  0.50400000000E-02 0. -1.
         -2   -1    0    0    0  501 -0.00000000000E+00 -0.00000000000E+00 -0.90497185934E+03  0.90497185935E+03  0.25500000000E-02 0.  1.
        -24    2    1    2    0    0 -0.35527136788E-14  0.35527136788E-14 -0.90322424980E+03  0.90671947616E+03  0.79537180175E+02 0.  0.
         66    2    3    3    0    0 -0.27579400938E+02  0.13009944594E+02 -0.74246217631E+03  0.74309081898E+03  0.19999977308E+01 0.  0.
         13    1    3    3    0    0  0.27579400938E+02 -0.13009944594E+02 -0.16076207348E+03  0.16362865718E+03  0.10566000000E+00 0. -1.
         13    1    4    4    0    0 -0.45299191580E+01  0.21090185176E+01 -0.12689210208E+03  0.12699049122E+03  0.10566000000E+00 0. -1.
        -13    1    4    4    0    0 -0.71169617500E+01  0.25221962838E+01 -0.18626812094E+03  0.18642112719E+03  0.10566000000E+00 0.  1.
        -14    1    4    4    0    0 -0.15932520030E+02  0.83787297929E+01 -0.42930195329E+03  0.42967920058E+03  0.00000000000E+00 0.  1.
<mgrwt>
<rscale>  0 0.79537180E+02</rscale>
<asrwt>0</asrwt>
<pdfrwt beam="1">  1        1 0.26886429E-03 0.79537180E+02</pdfrwt>
<pdfrwt beam="2">  1       -2 0.13922607E+00 0.79537180E+02</pdfrwt>
<totfact> 0.29628276E+04</totfact>
</mgrwt>
</event>
<event>
 8    1  0.1241100E-024  0.7857109E+02  0.7818608E-02  0.1333156E+00
         -2   -1    0    0    0  501 -0.00000000000E+00  0.00000000000E+00  0.10696152905E+03  0.10696152908E+03  0.25500000000E-02 0.  1.
          1   -1    0    0  501    0  0.00000000000E+00 -0.00000000000E+00 -0.14429057684E+02  0.14429058564E+02  0.50400000000E-02 0. -1.
        -24    2    1    2    0    0  0.00000000000E+00  0.44408920985E-15  0.92532471368E+02  0.12139058765E+03  0.78571092087E+02 0.  0.
         66    2    3    3    0    0 -0.38241335430E+02 -0.31783750113E+01  0.33476779653E+02  0.50962697638E+02  0.19999928589E+01 0.  0.
         13    1    3    3    0    0  0.38241335430E+02  0.31783750113E+01  0.59055691715E+02  0.70427890009E+02  0.10566000000E+00 0. -1.
         13    1    4    4    0    0 -0.56281116136E+01 -0.81151609882E+00  0.42321039649E+01  0.70891513398E+01  0.10566000000E+00 0. -1.
        -13    1    4    4    0    0 -0.21739374291E+02 -0.14014314236E+01  0.19801457192E+02  0.29439315134E+02  0.10566000000E+00 0.  1.
        -14    1    4    4    0    0 -0.10873849525E+02 -0.96542748885E+00  0.94432184958E+01  0.14434231164E+02  0.00000000000E+00 0.  1.
<mgrwt>
<rscale>  0 0.78571092E+02</rscale>
<asrwt>0</asrwt>
<pdfrwt beam="1">  1        1 0.22198552E-02 0.78571092E+02</pdfrwt>
<pdfrwt beam="2">  1       -2 0.16455620E-01 0.78571092E+02</pdfrwt>
<totfact> 0.10925987E+05</totfact>
</mgrwt>
</event>
<event>
 8    1  0.1241100E-024  0.7872624E+02  0.7818608E-02  0.1332706E+00
          1   -1    0    0  501    0  0.00000000000E+00  0.00000000000E+00  0.16726359810E+03  0.16726359818E+03  0.50400000000E-02 0. -1.
         -2   -1    0    0    0  501 -0.00000000000E+00 -0.00000000000E+00 -0.92635519385E+01  0.92635522895E+01  0.25500000000E-02 0.  1.
        -24    2    1    2    0    0  0.35527136788E-14  0.00000000000E+00  0.15800004617E+03  0.17652715047E+03  0.78726236189E+02 0.  0.
         66    2    3    3    0    0  0.29880633947E+02  0.71933041640E+01  0.23995688251E+02  0.39043424109E+02  0.20000004169E+01 0.  0.
         13    1    3    3    0    0 -0.29880633947E+02 -0.71933041640E+01  0.13400435791E+03  0.13748372636E+03  0.10566000000E+00 0. -1.
         13    1    4    4    0    0  0.87607163606E+01  0.26404686659E+01  0.68905393582E+01  0.11454820933E+02  0.10566000000E+00 0. -1.
        -13    1    4    4    0    0  0.11231701000E+02  0.21399109128E+01  0.82843021917E+01  0.14119885018E+02  0.10566000000E+00 0.  1.
        -14    1    4    4    0    0  0.98882165858E+01  0.24129245853E+01  0.88208467010E+01  0.13468718158E+02  0.00000000000E+00 0.  1.
<mgrwt>
<rscale>  0 0.78726236E+02</rscale>
<asrwt>0</asrwt>
<pdfrwt beam="1">  1        1 0.25732861E-01 0.78726236E+02</pdfrwt>
<pdfrwt beam="2">  1       -2 0.14251619E-02 0.78726236E+02</pdfrwt>
<totfact> 0.16816006E+05</totfact>
</mgrwt>
</event>
<event>
 8    1  0.1241100E-024  0.7522041E+02  0.7818608E-02  0.1343190E+00
          1   -1    0    0  501    0  0.00000000000E+00  0.00000000000E+00  0.62533051686E+00  0.62535082707E+00  0.50400000000E-02 0. -1.
         -2   -1    0    0    0  501 -0.00000000000E+00 -0.00000000000E+00 -0.22620110998E+04  0.22620110998E+04  0.25500000000E-02 0.  1.
        -24    2    1    2    0    0  0.00000000000E+00  0.00000000000E+00 -0.22613857693E+04  0.22626364507E+04  0.75220410771E+02 0.  0.
         66    2    3    3    0    0 -0.47569311127E+01  0.96120557296E+01 -0.22150007036E+04  0.22150275703E+04  0.19999969406E+01 0.  0.
         13    1    3    3    0    0  0.47569311127E+01 -0.96120557296E+01 -0.46385065702E+02  0.47608880403E+02  0.10566000000E+00 0. -1.
         13    1    4    4    0    0 -0.13293426817E+01  0.18510812629E+01 -0.51202221436E+03  0.51202729694E+03  0.10566000000E+00 0. -1.
        -13    1    4    4    0    0 -0.26672103733E+01  0.58241644742E+01 -0.11472423637E+04  0.11472602525E+04  0.10566000000E+00 0.  1.
        -14    1    4    4    0    0 -0.76037805770E+00  0.19368099925E+01 -0.55573612559E+03  0.55574002078E+03  0.00000000000E+00 0.  1.
<mgrwt>
<rscale>  0 0.75220411E+02</rscale>
<asrwt>0</asrwt>
<pdfrwt beam="1">  1        1 0.96208068E-04 0.75220411E+02</pdfrwt>
<pdfrwt beam="2">  1       -2 0.34799516E+00 0.75220411E+02</pdfrwt>
<totfact> 0.66267430E+03</totfact>
</mgrwt>
</event>
<event>
 8    1  0.1241100E-024  0.8028204E+02  0.7818608E-02  0.1328253E+00
          1   -1    0    0  501    0  0.00000000000E+00  0.00000000000E+00  0.10323087047E+03  0.10323087059E+03  0.50400000000E-02 0. -1.
         -2   -1    0    0    0  501 -0.00000000000E+00 -0.00000000000E+00 -0.15608716017E+02  0.15608716225E+02  0.25500000000E-02 0.  1.
        -24    2    1    2    0    0  0.35527136788E-14 -0.35527136788E-14  0.87622154450E+02  0.11883958681E+03  0.80282036869E+02 0.  0.
         66    2    3    3    0    0 -0.29757371935E+02  0.26861090741E+02  0.41604493153E+02  0.57809629453E+02  0.20000066556E+01 0.  0.
         13    1    3    3    0    0  0.29757371935E+02 -0.26861090741E+02  0.46017661297E+02  0.61029957362E+02  0.10566000000E+00 0. -1.
         13    1    4    4    0    0 -0.15505074210E+01  0.14900511972E+01  0.19937878521E+01  0.29343959970E+01  0.10566000000E+00 0. -1.
        -13    1    4    4    0    0 -0.53144626091E+01  0.57064801238E+01  0.81076156426E+01  0.11249534376E+02  0.10566000000E+00 0.  1.
        -14    1    4    4    0    0 -0.22892401905E+02  0.19664559420E+02  0.31503089658E+02  0.43625699080E+02  0.00000000000E+00 0.  1.
<mgrwt>
<rscale>  0 0.80282037E+02</rscale>
<asrwt>0</asrwt>
<pdfrwt beam="1">  1        1 0.15881673E-01 0.80282037E+02</pdfrwt>
<pdfrwt beam="2">  1       -2 0.24013408E-02 0.80282037E+02</pdfrwt>
<totfact> 0.14638430E+05</totfact>
</mgrwt>
</event>
<event>
 8    1  0.1241100E-024  0.7579681E+02  0.7818608E-02  0.1341421E+00
          1   -1    0    0  501    0  0.00000000000E+00  0.00000000000E+00  0.26785571416E+03  0.26785571421E+03  0.50400000000E-02 0. -1.
         -2   -1    0    0    0  501 -0.00000000000E+00 -0.00000000000E+00 -0.53621747932E+01  0.53621753996E+01  0.25500000000E-02 0.  1.
        -24    2    1    2    0    0  0.35527136788E-14 -0.35527136788E-14  0.26249353937E+03  0.27321788961E+03  0.75796813865E+02 0.  0.
         66    2    3    3    0    0  0.20020056685E+02 -0.22841241056E+02  0.21288172172E+03  0.21504686093E+03  0.19999981904E+01 0.  0.
         13    1    3    3    0    0 -0.20020056685E+02  0.22841241056E+02  0.49611817652E+02  0.58171028677E+02  0.10566000000E+00 0. -1.
         13    1    4    4    0    0  0.17773221532E+01 -0.14585681594E+01  0.16659843363E+02  0.16818080747E+02  0.10566000000E+00 0. -1.
        -13    1    4    4    0    0  0.12381858974E+02 -0.15341173174E+02  0.13601028141E+03  0.13743169154E+03  0.10566000000E+00 0.  1.
        -14    1    4    4    0    0  0.58608755576E+01 -0.60414997226E+01  0.60211596944E+02  0.60797088645E+02  0.00000000000E+00 0.  1.
<mgrwt>
<rscale>  0 0.75796814E+02</rscale>
<asrwt>0</asrwt>
<pdfrwt beam="1">  1        1 0.41208561E-01 0.75796814E+02</pdfrwt>
<pdfrwt beam="2">  1       -2 0.82495023E-03 0.75796814E+02</pdfrwt>
<totfact> 0.20347050E+05</totfact>
</mgrwt>
</event>
<event>
 8    1  0.1241100E-024  0.7814852E+02  0.7818608E-02  0.1334389E+00
         -2   -1    0    0    0  501 -0.00000000000E+00  0.00000000000E+00  0.11241574066E+02  0.11241574355E+02  0.25500000000E-02 0.  1.
          1   -1    0    0  501    0  0.00000000000E+00 -0.00000000000E+00 -0.13581707708E+03  0.13581707717E+03  0.50400000000E-02 0. -1.
        -24    2    1    2    0    0 -0.35527136788E-14  0.00000000000E+00 -0.12457550301E+03  0.14705865153E+03  0.78148519105E+02 0.  0.
         66    2    3    3    0    0 -0.18681414084E+02 -0.21455199842E+02 -0.11993889033E+02  0.30938232123E+02  0.20000000766E+01 0.  0.
         13    1    3    3    0    0  0.18681414084E+02  0.21455199842E+02 -0.11258161398E+03  0.11612041940E+03  0.10566000000E+00 0. -1.
         13    1    4    4    0    0 -0.38321382491E+01 -0.46732175934E+01 -0.31836658337E+01  0.68316278011E+01  0.10566000000E+00 0. -1.
        -13    1    4    4    0    0 -0.14415366586E+02 -0.15980842731E+02 -0.83421662170E+01  0.23082309881E+02  0.10566000000E+00 0.  1.
        -14    1    4    4    0    0 -0.43390924832E+00 -0.80113951790E+00 -0.46805698203E+00  0.10242944407E+01  0.00000000000E+00 0.  1.
<mgrwt>
<rscale>  0 0.78148519E+02</rscale>
<asrwt>0</asrwt>
<pdfrwt beam="1">  1        1 0.20894934E-01 0.78148519E+02</pdfrwt>
<pdfrwt beam="2">  1       -2 0.17294731E-02 0.78148519E+02</pdfrwt>
<totfact> 0.16506810E+05</totfact>
</mgrwt>
</event>
<event>
 8    1  0.1241100E-024  0.7636442E+02  0.7818608E-02  0.1339697E+00
         -2   -1    0    0    0  501 -0.00000000000E+00  0.00000000000E+00  0.41309785987E+01  0.41309793858E+01  0.25500000000E-02 0.  1.
          1   -1    0    0  501    0  0.00000000000E+00 -0.00000000000E+00 -0.35291422690E+03  0.35291422693E+03  0.50400000000E-02 0. -1.
        -24    2    1    2    0    0  0.00000000000E+00 -0.35527136788E-14 -0.34878324830E+03  0.35704520632E+03  0.76364422748E+02 0.  0.
         66    2    3    3    0    0  0.30987940009E+02  0.20864889781E+02 -0.13820980140E+03  0.14318360678E+03  0.19999994869E+01 0.  0.
         13    1    3    3    0    0 -0.30987940009E+02 -0.20864889781E+02 -0.21057344690E+03  0.21386159953E+03  0.10566000000E+00 0. -1.
         13    1    4    4    0    0  0.24427809392E+02  0.17222450442E+02 -0.10892996136E+03  0.11295609022E+03  0.10566000000E+00 0. -1.
        -13    1    4    4    0    0  0.46259762831E+01  0.25090814308E+01 -0.20987554343E+02  0.21637554103E+02  0.10566000000E+00 0.  1.
         14    1    4    4    0    0  0.19341543335E+01  0.11333579085E+01 -0.82922856895E+01  0.85899624616E+01  0.00000000000E+00 0. -1.
<mgrwt>
<rscale>  0 0.76364423E+02</rscale>
<asrwt>0</asrwt>
<pdfrwt beam="1">  1        1 0.54294473E-01 0.76364423E+02</pdfrwt>
<pdfrwt beam="2">  1       -2 0.63553551E-03 0.76364423E+02</pdfrwt>
<totfact> 0.21003900E+05</totfact>
</mgrwt>
</event>
<event>
 8    1  0.1241100E-024  0.8105844E+02  0.7818608E-02  0.1326074E+00
          1   -1    0    0  501    0  0.00000000000E+00  0.00000000000E+00  0.36973088710E+02  0.36973089053E+02  0.50400000000E-02 0. -1.
         -2   -1    0    0    0  501 -0.00000000000E+00 -0.00000000000E+00 -0.44427386010E+02  0.44427386083E+02  0.25500000000E-02 0.  1.
        -24    2    1    2    0    0  0.00000000000E+00 -0.44408920985E-15 -0.74542973003E+01  0.81400475137E+02  0.81058440672E+02 0.  0.
         66    2    3    3    0    0 -0.36486316833E+02  0.20689902874E+01 -0.21269671933E+02  0.42331206176E+02  0.20000088348E+01 0.  0.
         13    1    3    3    0    0  0.36486316833E+02 -0.20689902874E+01  0.13815374633E+02  0.39069268961E+02  0.10566000000E+00 0. -1.
         13    1    4    4    0    0 -0.78402692458E+01  0.11960736640E+01 -0.48633423959E+01  0.93039603047E+01  0.10566000000E+00 0.  1.
        -13    1    4    4    0    0 -0.15221622781E+02  0.21334509976E+00 -0.87000160024E+01  0.17534102734E+02  0.10566000000E+00 0. -1.
         14    1    4    4    0    0 -0.13424424806E+02  0.65957152366E+00 -0.77063135352E+01  0.15493143137E+02  0.00000000000E+00 0. -1.
<mgrwt>
<rscale>  0 0.81058441E+02</rscale>
<asrwt>0</asrwt>
<pdfrwt beam="1">  1        1 0.56881676E-02 0.81058441E+02</pdfrwt>
<pdfrwt beam="2">  1       -2 0.68349824E-02 0.81058441E+02</pdfrwt>
<totfact> 0.12076117E+05</totfact>
</mgrwt>
</event>
<event>
 8    1  0.1241100E-024  0.8007952E+02  0.7818608E-02  0.1328826E+00
         -2   -1    0    0    0  501 -0.00000000000E+00  0.00000000000E+00  0.40612652239E+01  0.40612660245E+01  0.25500000000E-02 0.  1.
          1   -1    0    0  501    0  0.00000000000E+00 -0.00000000000E+00 -0.39474949471E+03  0.39474949474E+03  0.50400000000E-02 0. -1.
        -24    2    1    2    0    0  0.44408920985E-15  0.00000000000E+00 -0.39068822949E+03  0.39881076077E+03  0.80079524501E+02 0.  0.
         66    2    3    3    0    0  0.31468921601E+01  0.38055099220E+02 -0.25503746854E+03  0.25788796767E+03  0.19999997667E+01 0.  0.
         13    1    3    3    0    0 -0.31468921601E+01 -0.38055099220E+02 -0.13565076094E+03  0.14092279310E+03  0.10566000000E+00 0. -1.
         13    1    4    4    0    0 -0.80292858925E-01  0.57426113023E+00 -0.35765482157E+01  0.36247874371E+01  0.10566000000E+00 0.  1.
        -13    1    4    4    0    0  0.18136316491E+01  0.27339382322E+02 -0.18507950797E+03  0.18709667693E+03  0.10566000000E+00 0.  1.
        -14    1    4    4    0    0  0.14135533699E+01  0.10141455768E+02 -0.66381412358E+02  0.67166503295E+02  0.00000000000E+00 0.  1.
<mgrwt>
<rscale>  0 0.80079525E+02</rscale>
<asrwt>0</asrwt>
<pdfrwt beam="1">  1        1 0.60730662E-01 0.80079525E+02</pdfrwt>
<pdfrwt beam="2">  1       -2 0.62481041E-03 0.80079525E+02</pdfrwt>
<totfact> 0.18902861E+05</totfact>
</mgrwt>
</event>
<event>
 8    1  0.1241100E-024  0.7928617E+02  0.7818608E-02  0.1331089E+00
         -2   -1    0    0    0  501 -0.00000000000E+00  0.00000000000E+00  0.49201901792E+02  0.49201901858E+02  0.25500000000E-02 0.  1.
          1   -1    0    0  501    0  0.00000000000E+00 -0.00000000000E+00 -0.31941327113E+02  0.31941327511E+02  0.50400000000E-02 0. -1.
        -24    2    1    2    0    0  0.00000000000E+00  0.88817841970E-15  0.17260574679E+02  0.81143229369E+02  0.79286166727E+02 0.  0.
         66    2    3    3    0    0  0.36875284421E+02 -0.48301488759E+01  0.22610337829E+02  0.43569993295E+02  0.19999999304E+01 0.  0.
         13    1    3    3    0    0 -0.36875284421E+02  0.48301488759E+01 -0.53497631507E+01  0.37573236074E+02  0.10566000000E+00 0. -1.
         13    1    4    4    0    0  0.16561758971E+02 -0.20243335615E+01  0.94836907730E+01  0.19192220853E+02  0.10566000000E+00 0. -1.
        -13    1    4    4    0    0  0.19552663563E+01 -0.61986533181E+00  0.13114200508E+01  0.24368598931E+01  0.10566000000E+00 0.  1.
        -14    1    4    4    0    0  0.18358259094E+02 -0.21859499826E+01  0.11815227006E+02  0.21940912549E+02  0.00000000000E+00 0.  1.
<mgrwt>
<rscale>  0 0.79286167E+02</rscale>
<asrwt>0</asrwt>
<pdfrwt beam="1">  1        1 0.49140503E-02 0.79286167E+02</pdfrwt>
<pdfrwt beam="2">  1       -2 0.75695234E-02 0.79286167E+02</pdfrwt>
<totfact> 0.12545590E+05</totfact>
</mgrwt>
</event>
<event>
 8    1  0.1241100E-024  0.8113416E+02  0.7818608E-02  0.1325863E+00
          1   -1    0    0  501    0  0.00000000000E+00  0.00000000000E+00  0.21277996751E+02  0.21277997348E+02  0.50400000000E-02 0. -1.
         -2   -1    0    0    0  501 -0.00000000000E+00 -0.00000000000E+00 -0.77342249483E+02  0.77342249525E+02  0.25500000000E-02 0.  1.
        -24    2    1    2    0    0  0.00000000000E+00 -0.71054273576E-14 -0.56064252732E+02  0.98620246874E+02  0.81134164561E+02 0.  0.
         66    2    3    3    0    0 -0.91729054767E+01  0.36233116977E+02 -0.47140999398E+02  0.60193477886E+02  0.19999987584E+01 0.  0.
         13    1    3    3    0    0  0.91729054767E+01 -0.36233116977E+02 -0.89232533338E+01  0.38426768988E+02  0.10566000000E+00 0. -1.
         13    1    4    4    0    0  0.82598971365E-03  0.29698861012E+00 -0.63052813059E+00  0.70493451885E+00  0.10566000000E+00 0.  1.
        -13    1    4    4    0    0 -0.14417977798E+01  0.55493754427E+01 -0.72802147631E+01  0.92675260816E+01  0.10566000000E+00 0.  1.
         14    1    4    4    0    0 -0.77319336866E+01  0.30386752924E+02 -0.39230256504E+02  0.50221017286E+02  0.00000000000E+00 0. -1.
<mgrwt>
<rscale>  0 0.81134165E+02</rscale>
<asrwt>0</asrwt>
<pdfrwt beam="1">  1        1 0.32735381E-02 0.81134165E+02</pdfrwt>
<pdfrwt beam="2">  1       -2 0.11898807E-01 0.81134165E+02</pdfrwt>
<totfact> 0.10860642E+05</totfact>
</mgrwt>
</event>
<event>
 8    1  0.1241100E-024  0.8233608E+02  0.7818608E-02  0.1322550E+00
         -2   -1    0    0    0  501 -0.00000000000E+00  0.00000000000E+00  0.97736795293E+01  0.97736798620E+01  0.25500000000E-02 0.  1.
          1   -1    0    0  501    0  0.00000000000E+00 -0.00000000000E+00 -0.17340528029E+03  0.17340528037E+03  0.50400000000E-02 0. -1.
        -24    2    1    2    0    0  0.00000000000E+00  0.00000000000E+00 -0.16363160076E+03  0.18317896023E+03  0.82336083838E+02 0.  0.
         66    2    3    3    0    0  0.31380738514E+01  0.40442558433E+02 -0.66554241708E+02  0.77967397911E+02  0.20000018841E+01 0.  0.
         13    1    3    3    0    0 -0.31380738514E+01 -0.40442558433E+02 -0.97077359056E+02  0.10521156232E+03  0.10566000000E+00 0. -1.
         13    1    4    4    0    0  0.51243651416E+00  0.68128872252E+01 -0.12172580791E+02  0.13959258958E+02  0.10566000000E+00 0. -1.
        -13    1    4    4    0    0  0.27240957345E+01  0.30040246606E+02 -0.48917743366E+02  0.57469939045E+02  0.10566000000E+00 0.  1.
        -14    1    4    4    0    0 -0.98458397177E-01  0.35894246018E+01 -0.54639175512E+01  0.65381999078E+01  0.00000000000E+00 0.  1.
<mgrwt>
<rscale>  0 0.82336084E+02</rscale>
<asrwt>0</asrwt>
<pdfrwt beam="1">  1        1 0.26677733E-01 0.82336084E+02</pdfrwt>
<pdfrwt beam="2">  1       -2 0.15036432E-02 0.82336084E+02</pdfrwt>
<totfact> 0.15023627E+05</totfact>
</mgrwt>
</event>
<event>
 8    1  0.1241100E-024  0.8044518E+02  0.7818608E-02  0.1327793E+00
         -2   -1    0    0    0  501 -0.00000000000E+00  0.00000000000E+00  0.82090950520E+02  0.82090950559E+02  0.25500000000E-02 0.  1.
          1   -1    0    0  501    0  0.00000000000E+00 -0.00000000000E+00 -0.19708099324E+02  0.19708099969E+02  0.50400000000E-02 0. -1.
        -24    2    1    2    0    0  0.00000000000E+00  0.00000000000E+00  0.62382851195E+02  0.10179905053E+03  0.80445177389E+02 0.  0.
         66    2    3    3    0    0 -0.30916575291E+02  0.10150937673E+02  0.61075599268E+02  0.69232254016E+02  0.20000017363E+01 0.  0.
         13    1    3    3    0    0  0.30916575291E+02 -0.10150937673E+02  0.13072519278E+01  0.32566796511E+02  0.10566000000E+00 0. -1.
         13    1    4    4    0    0 -0.79978268839E+01  0.21238261002E+01  0.14257561162E+02  0.16485299102E+02  0.10566000000E+00 0. -1.
        -13    1    4    4    0    0 -0.10596937206E+02  0.33644390068E+01  0.21850763934E+02  0.24516965075E+02  0.10566000000E+00 0.  1.
        -14    1    4    4    0    0 -0.12321811201E+02  0.46626725660E+01  0.24967274172E+02  0.28229989839E+02  0.00000000000E+00 0.  1.
<mgrwt>
<rscale>  0 0.80445177E+02</rscale>
<asrwt>0</asrwt>
<pdfrwt beam="1">  1        1 0.30320153E-02 0.80445177E+02</pdfrwt>
<pdfrwt beam="2">  1       -2 0.12629377E-01 0.80445177E+02</pdfrwt>
<totfact> 0.10957276E+05</totfact>
</mgrwt>
</event>
<event>
 8    1  0.1241100E-024  0.7935253E+02  0.7818608E-02  0.1330899E+00
         -2   -1    0    0    0  501 -0.00000000000E+00  0.00000000000E+00  0.17034206007E+02  0.17034206198E+02  0.25500000000E-02 0.  1.
          1   -1    0    0  501    0  0.00000000000E+00 -0.00000000000E+00 -0.92414399212E+02  0.92414399350E+02  0.50400000000E-02 0. -1.
        -24    2    1    2    0    0 -0.17763568394E-14 -0.71054273576E-14 -0.75380193205E+02  0.10944860555E+03  0.79352528181E+02 0.  0.
         66    2    3    3    0    0 -0.88350050263E+01 -0.37433701495E+02 -0.24422664924E+02  0.45604888754E+02  0.19999987135E+01 0.  0.
         13    1    3    3    0    0  0.88350050263E+01  0.37433701495E+02 -0.50957528281E+02  0.63843716793E+02  0.10566000000E+00 0. -1.
         13    1    4    4    0    0 -0.23015750431E+01 -0.83412304552E+01 -0.54656505356E+01  0.10235129359E+02  0.10566000000E+00 0. -1.
        -13    1    4    4    0    0 -0.35993757988E+01 -0.19172899197E+02 -0.11996557376E+02  0.22901618342E+02  0.10566000000E+00 0.  1.
        -14    1    4    4    0    0 -0.29340541844E+01 -0.99195718424E+01 -0.69604570123E+01  0.12468141053E+02  0.00000000000E+00 0.  1.
<mgrwt>
<rscale>  0 0.79352528E+02</rscale>
<asrwt>0</asrwt>
<pdfrwt beam="1">  1        1 0.14217600E-01 0.79352528E+02</pdfrwt>
<pdfrwt beam="2">  1       -2 0.26206471E-02 0.79352528E+02</pdfrwt>
<totfact> 0.14829757E+05</totfact>
</mgrwt>
</event>
<event>
 8    1  0.1241100E-024  0.7901312E+02  0.7818608E-02  0.1331876E+00
         -2   -1    0    0    0  501 -0.00000000000E+00  0.00000000000E+00  0.46662475361E+02  0.46662475431E+02  0.25500000000E-02 0.  1.
          1   -1    0    0  501    0  0.00000000000E+00 -0.00000000000E+00 -0.33448040586E+02  0.33448040966E+02  0.50400000000E-02 0. -1.
        -24    2    1    2    0    0 -0.17763568394E-14  0.00000000000E+00  0.13214434775E+02  0.80110516396E+02  0.79013122650E+02 0.  0.
         66    2    3    3    0    0  0.11285259619E+02 -0.20822846148E+02  0.38638376633E+02  0.45363775686E+02  0.19999973012E+01 0.  0.
         13    1    3    3    0    0 -0.11285259619E+02  0.20822846148E+02 -0.25423941858E+02  0.34746740711E+02  0.10566000000E+00 0. -1.
         13    1    4    4    0    0  0.59858226749E+00 -0.76696260066E+00  0.11695273945E+01  0.15249559744E+01  0.10566000000E+00 0. -1.
        -13    1    4    4    0    0  0.68922254794E+01 -0.12095852353E+02  0.23777469027E+02  0.27553431974E+02  0.10566000000E+00 0.  1.
         14    1    4    4    0    0  0.37944518723E+01 -0.79600311950E+01  0.13691380212E+02  0.16285387737E+02  0.00000000000E+00 0. -1.
<mgrwt>
<rscale>  0 0.79013123E+02</rscale>
<asrwt>0</asrwt>
<pdfrwt beam="1">  1        1 0.51458525E-02 0.79013123E+02</pdfrwt>
<pdfrwt beam="2">  1       -2 0.71788423E-02 0.79013123E+02</pdfrwt>
<totfact> 0.12768964E+05</totfact>
</mgrwt>
</event>
<event>
 8    1  0.1241100E-024  0.7752587E+02  0.7818608E-02  0.1336223E+00
         -2   -1    0    0    0  501 -0.00000000000E+00  0.00000000000E+00  0.38484164878E+01  0.38484173327E+01  0.25500000000E-02 0.  1.
          1   -1    0    0  501    0  0.00000000000E+00 -0.00000000000E+00 -0.39043715240E+03  0.39043715243E+03  0.50400000000E-02 0. -1.
        -24    2    1    2    0    0  0.00000000000E+00  0.00000000000E+00 -0.38658873591E+03  0.39428556976E+03  0.77525865302E+02 0.  0.
         66    2    3    3    0    0 -0.33582861226E+02  0.10441275674E+01 -0.29147046369E+03  0.29340744704E+03  0.20000006975E+01 0.  0.
         13    1    3    3    0    0  0.33582861226E+02 -0.10441275674E+01 -0.95118272218E+02  0.10087812272E+03  0.10566000000E+00 0. -1.
         13    1    4    4    0    0 -0.14617665485E+02  0.90797532768E+00 -0.12178692142E+03  0.12266444455E+03  0.10566000000E+00 0. -1.
        -13    1    4    4    0    0 -0.13224311976E+02 -0.30077328725E+00 -0.11629523152E+03  0.11704514057E+03  0.10566000000E+00 0.  1.
         14    1    4    4    0    0 -0.57408837641E+01  0.43692552699E+00 -0.53388310749E+02  0.53697861921E+02  0.00000000000E+00 0. -1.
<mgrwt>
<rscale>  0 0.77525865E+02</rscale>
<asrwt>0</asrwt>
<pdfrwt beam="1">  1        1 0.60067223E-01 0.77525865E+02</pdfrwt>
<pdfrwt beam="2">  1       -2 0.59206445E-03 0.77525865E+02</pdfrwt>
<totfact> 0.20542415E+05</totfact>
</mgrwt>
</event>
<event>
 8    1  0.1241100E-024  0.7932536E+02  0.7818608E-02  0.1330977E+00
          1   -1    0    0  501    0  0.00000000000E+00  0.00000000000E+00  0.17038126068E+03  0.17038126076E+03  0.50400000000E-02 0. -1.
         -2   -1    0    0    0  501 -0.00000000000E+00 -0.00000000000E+00 -0.92329880664E+01  0.92329884185E+01  0.25500000000E-02 0.  1.
        -24    2    1    2    0    0  0.00000000000E+00  0.00000000000E+00  0.16114827262E+03  0.17961424918E+03  0.79325360004E+02 0.  0.
         66    2    3    3    0    0  0.33257252943E+02  0.20771188551E+02  0.93757229857E+02  0.10164598028E+03  0.20000021160E+01 0.  0.
         13    1    3    3    0    0 -0.33257252943E+02 -0.20771188551E+02  0.67391042759E+02  0.77968268900E+02  0.10566000000E+00 0. -1.
         13    1    4    4    0    0  0.13093622918E+02  0.77616099781E+01  0.36227606288E+02  0.39295498113E+02  0.10566000000E+00 0.  1.
        -13    1    4    4    0    0  0.67239541406E+01  0.48165757376E+01  0.18403737100E+02  0.20177206556E+02  0.10566000000E+00 0. -1.
        -14    1    4    4    0    0  0.13439675885E+02  0.81930028354E+01  0.39125886470E+02  0.42173275606E+02  0.00000000000E+00 0.  1.
<mgrwt>
<rscale>  0 0.79325360E+02</rscale>
<asrwt>0</asrwt>
<pdfrwt beam="1">  1        1 0.26212499E-01 0.79325360E+02</pdfrwt>
<pdfrwt beam="2">  1       -2 0.14204599E-02 0.79325360E+02</pdfrwt>
<totfact> 0.16537450E+05</totfact>
</mgrwt>
</event>
<event>
 8    1  0.1241100E-024  0.7956559E+02  0.7818608E-02  0.1330289E+00
          1   -1    0    0  501    0  0.00000000000E+00  0.00000000000E+00  0.20696118802E+02  0.20696119416E+02  0.50400000000E-02 0. -1.
         -2   -1    0    0    0  501 -0.00000000000E+00 -0.00000000000E+00 -0.76471860732E+02  0.76471860775E+02  0.25500000000E-02 0.  1.
        -24    2    1    2    0    0  0.00000000000E+00 -0.88817841970E-15 -0.55775741930E+02  0.97167980190E+02  0.79565589211E+02 0.  0.
         66    2    3    3    0    0 -0.30229327247E+02  0.68806867782E+01 -0.58301828758E+02  0.66062540875E+02  0.19999984924E+01 0.  0.
         13    1    3    3    0    0  0.30229327247E+02 -0.68806867782E+01  0.25260868279E+01  0.31105439316E+02  0.10566000000E+00 0. -1.
         13    1    4    4    0    0 -0.11688800372E+02  0.20974642453E+01 -0.23119158801E+02  0.25991038419E+02  0.10566000000E+00 0.  1.
        -13    1    4    4    0    0 -0.16315428424E+01  0.12549694577E+00 -0.28373513720E+01  0.32771036563E+01  0.10566000000E+00 0. -1.
        -14    1    4    4    0    0 -0.16908984032E+02  0.46577255872E+01 -0.32345318585E+02  0.36794398800E+02  0.00000000000E+00 0.  1.
<mgrwt>
<rscale>  0 0.79565589E+02</rscale>
<asrwt>0</asrwt>
<pdfrwt beam="1">  1        1 0.31840184E-02 0.79565589E+02</pdfrwt>
<pdfrwt beam="2">  1       -2 0.11764902E-01 0.79565589E+02</pdfrwt>
<totfact> 0.11441536E+05</totfact>
</mgrwt>
</event>
<event>
 8    1  0.1241100E-024  0.7900759E+02  0.7818608E-02  0.1331892E+00
         -2   -1    0    0    0  501 -0.00000000000E+00  0.00000000000E+00  0.12239823878E+02  0.12239824143E+02  0.25500000000E-02 0.  1.
          1   -1    0    0  501    0  0.00000000000E+00 -0.00000000000E+00 -0.12749772199E+03  0.12749772209E+03  0.50400000000E-02 0. -1.
        -24    2    1    2    0    0  0.00000000000E+00  0.00000000000E+00 -0.11525789811E+03  0.13973754623E+03  0.79007586660E+02 0.  0.
         66    2    3    3    0    0  0.34141635508E+02  0.47619219024E+01 -0.91696627253E+02  0.97982644437E+02  0.19999964921E+01 0.  0.
         13    1    3    3    0    0 -0.34141635508E+02 -0.47619219024E+01 -0.23561270859E+02  0.41754901795E+02  0.10566000000E+00 0. -1.
         13    1    4    4    0    0  0.52419784204E+01  0.16137721456E+00 -0.14210749078E+02  0.15147967975E+02  0.10566000000E+00 0.  1.
        -13    1    4    4    0    0  0.16498526637E+02  0.26661989295E+01 -0.42749866704E+02  0.45900678265E+02  0.10566000000E+00 0. -1.
         14    1    4    4    0    0  0.12401130451E+02  0.19343457583E+01 -0.34736011471E+02  0.36933998198E+02  0.00000000000E+00 0. -1.
<mgrwt>
<rscale>  0 0.79007587E+02</rscale>
<asrwt>0</asrwt>
<pdfrwt beam="1">  1        1 0.19615033E-01 0.79007587E+02</pdfrwt>
<pdfrwt beam="2">  1       -2 0.18830499E-02 0.79007587E+02</pdfrwt>
<totfact> 0.15851519E+05</totfact>
</mgrwt>
</event>
<event>
 8    1  0.1241100E-024  0.7860165E+02  0.7818608E-02  0.1333067E+00
          1   -1    0    0  501    0  0.00000000000E+00  0.00000000000E+00  0.39977227641E+03  0.39977227645E+03  0.50400000000E-02 0. -1.
         -2   -1    0    0    0  501 -0.00000000000E+00 -0.00000000000E+00 -0.38635863748E+01  0.38635872163E+01  0.25500000000E-02 0.  1.
        -24    2    1    2    0    0  0.00000000000E+00  0.71054273576E-14  0.39590869004E+03  0.40363586366E+03  0.78601651291E+02 0.  0.
         66    2    3    3    0    0 -0.25658152999E+02 -0.29460749480E+02  0.21879772652E+03  0.22226723038E+03  0.19999989966E+01 0.  0.
         13    1    3    3    0    0  0.25658152999E+02  0.29460749480E+02  0.17711096352E+03  0.18136863328E+03  0.10566000000E+00 0. -1.
         13    1    4    4    0    0 -0.18875647110E+01 -0.17067560278E+01  0.14408780881E+02  0.14632157982E+02  0.10566000000E+00 0. -1.
        -13    1    4    4    0    0 -0.56264313663E+01 -0.57009012366E+01  0.45932382172E+02  0.46625657109E+02  0.10566000000E+00 0.  1.
        -14    1    4    4    0    0 -0.18144156922E+02 -0.22053092216E+02  0.15845656347E+03  0.16100941529E+03  0.00000000000E+00 0.  1.
<mgrwt>
<rscale>  0 0.78601651E+02</rscale>
<asrwt>0</asrwt>
<pdfrwt beam="1">  1        1 0.61503402E-01 0.78601651E+02</pdfrwt>
<pdfrwt beam="2">  1       -2 0.59439821E-03 0.78601651E+02</pdfrwt>
<totfact> 0.19891124E+05</totfact>
</mgrwt>
</event>
<event>
 8    1  0.1241100E-024  0.8166039E+02  0.7818608E-02  0.1324404E+00
         -2   -1    0    0    0  501 -0.00000000000E+00  0.00000000000E+00  0.21920255440E+02  0.21920255588E+02  0.25500000000E-02 0.  1.
          1   -1    0    0  501    0  0.00000000000E+00 -0.00000000000E+00 -0.76053174225E+02  0.76053174392E+02  0.50400000000E-02 0. -1.
        -24    2    1    2    0    0  0.00000000000E+00  0.00000000000E+00 -0.54132918785E+02  0.97973429981E+02  0.81660394843E+02 0.  0.
         66    2    3    3    0    0 -0.36770851277E+01 -0.22142166337E+02  0.13802887901E+02  0.26425673348E+02  0.20000030862E+01 0.  0.
         13    1    3    3    0    0  0.36770851277E+01  0.22142166337E+02 -0.67935806686E+02  0.71547756633E+02  0.10566000000E+00 0. -1.
         13    1    4    4    0    0 -0.53211849157E+00 -0.41016207106E+01  0.21663707840E+01  0.46702000977E+01  0.10566000000E+00 0. -1.
        -13    1    4    4    0    0 -0.12981511095E+01 -0.86353903856E+01  0.46435293833E+01  0.98908388210E+01  0.10566000000E+00 0.  1.
         14    1    4    4    0    0 -0.18468155267E+01 -0.94051552408E+01  0.69929877333E+01  0.11864634429E+02  0.00000000000E+00 0. -1.
<mgrwt>
<rscale>  0 0.81660395E+02</rscale>
<asrwt>0</asrwt>
<pdfrwt beam="1">  1        1 0.11700488E-01 0.81660395E+02</pdfrwt>
<pdfrwt beam="2">  1       -2 0.33723470E-02 0.81660395E+02</pdfrwt>
<totfact> 0.13287428E+05</totfact>
</mgrwt>
</event>
<event>
 8    1  0.1241100E-024  0.7540942E+02  0.7818608E-02  0.1342608E+00
          1   -1    0    0  501    0  0.00000000000E+00  0.00000000000E+00  0.36619351102E+01  0.36619385786E+01  0.50400000000E-02 0. -1.
         -2   -1    0    0    0  501 -0.00000000000E+00 -0.00000000000E+00 -0.38822222283E+03  0.38822222284E+03  0.25500000000E-02 0.  1.
        -24    2    1    2    0    0  0.00000000000E+00 -0.88817841970E-15 -0.38456028772E+03  0.39188416142E+03  0.75409423008E+02 0.  0.
         66    2    3    3    0    0 -0.35053869820E+02  0.72680544316E+01 -0.25347233107E+03  0.25599574415E+03  0.20000001039E+01 0.  0.
         13    1    3    3    0    0  0.35053869820E+02 -0.72680544316E+01 -0.13108795665E+03  0.13588841727E+03  0.10566000000E+00 0. -1.
         13    1    4    4    0    0 -0.19760225260E+02  0.42516171626E+01 -0.14345602959E+03  0.14487300073E+03  0.10566000000E+00 0. -1.
        -13    1    4    4    0    0 -0.10901683638E+02  0.22637918473E+01 -0.82489024536E+02  0.83237141906E+02  0.10566000000E+00 0.  1.
         14    1    4    4    0    0 -0.43919609228E+01  0.75264542174E+00 -0.27527276946E+02  0.27885601517E+02  0.00000000000E+00 0. -1.
<mgrwt>
<rscale>  0 0.75409423E+02</rscale>
<asrwt>0</asrwt>
<pdfrwt beam="1">  1        1 0.56337521E-03 0.75409423E+02</pdfrwt>
<pdfrwt beam="2">  1       -2 0.59726463E-01 0.75409423E+02</pdfrwt>
<totfact> 0.70181393E+04</totfact>
</mgrwt>
</event>
<event>
 8    1  0.1241100E-024  0.8043551E+02  0.7818608E-02  0.1327820E+00
          1   -1    0    0  501    0  0.00000000000E+00  0.00000000000E+00  0.21313681535E+03  0.21313681541E+03  0.50400000000E-02 0. -1.
         -2   -1    0    0    0  501 -0.00000000000E+00 -0.00000000000E+00 -0.75888715625E+01  0.75888719909E+01  0.25500000000E-02 0.  1.
        -24    2    1    2    0    0  0.35527136788E-14  0.35527136788E-14  0.20554794379E+03  0.22072568740E+03  0.80435513818E+02 0.  0.
         66    2    3    3    0    0 -0.18949046524E+02 -0.31244645907E+02  0.14876928408E+03  0.15320441946E+03  0.19999986332E+01 0.  0.
         13    1    3    3    0    0  0.18949046524E+02  0.31244645907E+02  0.56778659710E+02  0.67521267942E+02  0.10566000000E+00 0. -1.
         13    1    4    4    0    0 -0.26901944511E+01 -0.55185377548E+01  0.25614351688E+02  0.26340037616E+02  0.10566000000E+00 0. -1.
        -13    1    4    4    0    0 -0.75894527115E+01 -0.12918154262E+02  0.61710113937E+02  0.63502974955E+02  0.10566000000E+00 0.  1.
         14    1    4    4    0    0 -0.86693993618E+01 -0.12807953890E+02  0.61444818455E+02  0.63361406890E+02  0.00000000000E+00 0. -1.
<mgrwt>
<rscale>  0 0.80435514E+02</rscale>
<asrwt>0</asrwt>
<pdfrwt beam="1">  1        1 0.32790283E-01 0.80435514E+02</pdfrwt>
<pdfrwt beam="2">  1       -2 0.11675186E-02 0.80435514E+02</pdfrwt>
<totfact> 0.16640188E+05</totfact>
</mgrwt>
</event>
<event>
 8    1  0.1241100E-024  0.8133719E+02  0.7818608E-02  0.1325299E+00
          1   -1    0    0  501    0  0.00000000000E+00  0.00000000000E+00  0.49960586464E+02  0.49960586718E+02  0.50400000000E-02 0. -1.
         -2   -1    0    0    0  501 -0.00000000000E+00 -0.00000000000E+00 -0.33104784499E+02  0.33104784597E+02  0.25500000000E-02 0.  1.
        -24    2    1    2    0    0 -0.71054273576E-14 -0.44408920985E-15  0.16855801965E+02  0.83065371315E+02  0.81337186157E+02 0.  0.
         66    2    3    3    0    0 -0.32693615455E+02 -0.31763342692E+01 -0.16012353370E+02  0.36597227495E+02  0.20000022500E+01 0.  0.
         13    1    3    3    0    0  0.32693615455E+02  0.31763342692E+01  0.32868155335E+02  0.46468143820E+02  0.10566000000E+00 0. -1.
         13    1    4    4    0    0 -0.10047288508E+02 -0.35435078683E+00 -0.55396207883E+01  0.11479204387E+02  0.10566000000E+00 0.  1.
        -13    1    4    4    0    0 -0.10591778321E+02 -0.10438770143E+01 -0.47164675738E+01  0.11641807318E+02  0.10566000000E+00 0. -1.
        -14    1    4    4    0    0 -0.12054548626E+02 -0.17781064681E+01 -0.57562650079E+01  0.13476215790E+02  0.00000000000E+00 0.  1.
<mgrwt>
<rscale>  0 0.81337186E+02</rscale>
<asrwt>0</asrwt>
<pdfrwt beam="1">  1        1 0.76862441E-02 0.81337186E+02</pdfrwt>
<pdfrwt beam="2">  1       -2 0.50930438E-02 0.81337186E+02</pdfrwt>
<totfact> 0.12561803E+05</totfact>
</mgrwt>
</event>
<event>
 8    1  0.1241100E-024  0.7909977E+02  0.7818608E-02  0.1331626E+00
          1   -1    0    0  501    0  0.00000000000E+00  0.00000000000E+00  0.17884971720E+03  0.17884971727E+03  0.50400000000E-02 0. -1.
         -2   -1    0    0    0  501 -0.00000000000E+00 -0.00000000000E+00 -0.87458527061E+01  0.87458530778E+01  0.25500000000E-02 0.  1.
        -24    2    1    2    0    0  0.00000000000E+00 -0.17763568394E-14  0.17010386449E+03  0.18759557034E+03  0.79099768006E+02 0.  0.
         66    2    3    3    0    0  0.29312115768E+02 -0.11441560767E+02  0.28381042211E+02  0.42421609311E+02  0.19999839891E+01 0.  0.
         13    1    3    3    0    0 -0.29312115768E+02  0.11441560767E+02  0.14172282228E+03  0.14517396103E+03  0.10566000000E+00 0. -1.
         13    1    4    4    0    0  0.11700177155E+01 -0.56496370676E+00  0.17185675472E+01  0.21570266327E+01  0.10566000000E+00 0. -1.
        -13    1    4    4    0    0  0.10184242558E+02 -0.40205473147E+01  0.97504571935E+01  0.14661724889E+02  0.10566000000E+00 0.  1.
         14    1    4    4    0    0  0.17957855494E+02 -0.68560497454E+01  0.16912017470E+02  0.25602857789E+02  0.00000000000E+00 0. -1.
<mgrwt>
<rscale>  0 0.79099768E+02</rscale>
<asrwt>0</asrwt>
<pdfrwt beam="1">  1        1 0.27515338E-01 0.79099768E+02</pdfrwt>
<pdfrwt beam="2">  1       -2 0.13455160E-02 0.79099768E+02</pdfrwt>
<totfact> 0.16816931E+05</totfact>
</mgrwt>
</event>
<event>
 8    1  0.1241100E-024  0.7480230E+02  0.7818608E-02  0.1344484E+00
         -2   -1    0    0    0  501 -0.00000000000E+00  0.00000000000E+00  0.15497859178E+02  0.15497859388E+02  0.25500000000E-02 0.  1.
          1   -1    0    0  501    0  0.00000000000E+00 -0.00000000000E+00 -0.90260592776E+02  0.90260592917E+02  0.50400000000E-02 0. -1.
        -24    2    1    2    0    0  0.00000000000E+00  0.35527136788E-14 -0.74762733598E+02  0.10575845230E+03  0.74802298754E+02 0.  0.
         66    2    3    3    0    0  0.10670635947E+02 -0.16091244209E+02  0.78359673128E+01  0.20933060070E+02  0.20000021177E+01 0.  0.
         13    1    3    3    0    0 -0.10670635947E+02  0.16091244209E+02 -0.82598700911E+02  0.84825392235E+02  0.10566000000E+00 0. -1.
         13    1    4    4    0    0  0.96002822977E+00 -0.13346681224E+01  0.25275750746E+00  0.16667464091E+01  0.10566000000E+00 0. -1.
        -13    1    4    4    0    0  0.33004551889E+01 -0.55852313460E+01  0.33568862109E+01  0.73053174271E+01  0.10566000000E+00 0.  1.
        -14    1    4    4    0    0  0.64101525280E+01 -0.91713447403E+01  0.42263235944E+01  0.11960996234E+02  0.00000000000E+00 0.  1.
<mgrwt>
<rscale>  0 0.74802299E+02</rscale>
<asrwt>0</asrwt>
<pdfrwt beam="1">  1        1 0.13886245E-01 0.74802299E+02</pdfrwt>
<pdfrwt beam="2">  1       -2 0.23842861E-02 0.74802299E+02</pdfrwt>
<totfact> 0.17322971E+05</totfact>
</mgrwt>
</event>
<event>
 8    1  0.1241100E-024  0.7319768E+02  0.7818608E-02  0.1349545E+00
          1   -1    0    0  501    0  0.00000000000E+00  0.00000000000E+00  0.43337209765E+03  0.43337209768E+03  0.50400000000E-02 0. -1.
         -2   -1    0    0    0  501 -0.00000000000E+00 -0.00000000000E+00 -0.30908192951E+01  0.30908203470E+01  0.25500000000E-02 0.  1.
        -24    2    1    2    0    0  0.00000000000E+00  0.17763568394E-14  0.43028127835E+03  0.43646291802E+03  0.73197679672E+02 0.  0.
         66    2    3    3    0    0  0.32919347892E+02 -0.12664612980E+02  0.27292572895E+03  0.27520270600E+03  0.19999959237E+01 0.  0.
         13    1    3    3    0    0 -0.32919347892E+02  0.12664612980E+02  0.15735554941E+03  0.16126021202E+03  0.10566000000E+00 0. -1.
         13    1    4    4    0    0  0.51855676944E+01 -0.24449215373E+01  0.42558379666E+02  0.42942922554E+02  0.10566000000E+00 0. -1.
        -13    1    4    4    0    0  0.23334247327E+02 -0.89965594810E+01  0.19726952626E+03  0.19884844061E+03  0.10566000000E+00 0.  1.
         14    1    4    4    0    0  0.43995328711E+01 -0.12231319620E+01  0.33097823024E+02  0.33411342837E+02  0.00000000000E+00 0. -1.
<mgrwt>
<rscale>  0 0.73197680E+02</rscale>
<asrwt>0</asrwt>
<pdfrwt beam="1">  1        1 0.66672638E-01 0.73197680E+02</pdfrwt>
<pdfrwt beam="2">  1       -2 0.47551069E-03 0.73197680E+02</pdfrwt>
<totfact> 0.24257417E+05</totfact>
</mgrwt>
</event>
<event>
 8    1  0.1241100E-024  0.7744960E+02  0.7818608E-02  0.1336449E+00
         -2   -1    0    0    0  501 -0.00000000000E+00  0.00000000000E+00  0.37915985887E+01  0.37915994462E+01  0.25500000000E-02 0.  1.
          1   -1    0    0  501    0  0.00000000000E+00 -0.00000000000E+00 -0.39550860780E+03  0.39550860783E+03  0.50400000000E-02 0. -1.
        -24    2    1    2    0    0  0.00000000000E+00  0.00000000000E+00 -0.39171700921E+03  0.39930020728E+03  0.77449597979E+02 0.  0.
         66    2    3    3    0    0 -0.43376025253E+01  0.38048822540E+02 -0.22472982340E+03  0.22797811565E+03  0.19999988498E+01 0.  0.
         13    1    3    3    0    0  0.43376025253E+01 -0.38048822540E+02 -0.16698718581E+03  0.17132209163E+03  0.10566000000E+00 0. -1.
         13    1    4    4    0    0 -0.14049099025E+01  0.16612686239E+02 -0.94868957557E+02  0.96322818625E+02  0.10566000000E+00 0. -1.
        -13    1    4    4    0    0 -0.26123907391E+01  0.20552656240E+02 -0.12475794798E+03  0.12646656875E+03  0.10566000000E+00 0.  1.
         14    1    4    4    0    0 -0.32030188364E+00  0.88348006107E+00 -0.51029178682E+01  0.51887282724E+01  0.00000000000E+00 0. -1.
<mgrwt>
<rscale>  0 0.77449598E+02</rscale>
<asrwt>0</asrwt>
<pdfrwt beam="1">  1        1 0.60847446E-01 0.77449598E+02</pdfrwt>
<pdfrwt beam="2">  1       -2 0.58332324E-03 0.77449598E+02</pdfrwt>
<totfact> 0.20639361E+05</totfact>
</mgrwt>
</event>
<event>
 8    1  0.1241100E-024  0.8021200E+02  0.7818608E-02  0.1328451E+00
          1   -1    0    0  501    0  0.00000000000E+00  0.00000000000E+00  0.14808493248E+02  0.14808494106E+02  0.50400000000E-02 0. -1.
         -2   -1    0    0    0  501 -0.00000000000E+00 -0.00000000000E+00 -0.10861950793E+03  0.10861950796E+03  0.25500000000E-02 0.  1.
        -24    2    1    2    0    0  0.00000000000E+00  0.00000000000E+00 -0.93811014683E+02  0.12342800207E+03  0.80212001710E+02 0.  0.
         66    2    3    3    0    0  0.92479933001E+01  0.38367000891E+02 -0.36170415996E+02  0.53570991549E+02  0.20000011998E+01 0.  0.
         13    1    3    3    0    0 -0.92479933001E+01 -0.38367000891E+02 -0.57640598687E+02  0.69857010518E+02  0.10566000000E+00 0. -1.
         13    1    4    4    0    0  0.25010325823E+01  0.89934785252E+01 -0.76686573782E+01  0.12081278491E+02  0.10566000000E+00 0.  1.
        -13    1    4    4    0    0  0.33497904660E+00  0.15220858898E+01 -0.12679761007E+01  0.20119353482E+01  0.10566000000E+00 0.  1.
        -14    1    4    4    0    0  0.64119816711E+01  0.27851436476E+02 -0.27233782517E+02  0.39477777710E+02  0.00000000000E+00 0.  1.
<mgrwt>
<rscale>  0 0.80212002E+02</rscale>
<asrwt>0</asrwt>
<pdfrwt beam="1">  1        1 0.22782299E-02 0.80212002E+02</pdfrwt>
<pdfrwt beam="2">  1       -2 0.16710693E-01 0.80212002E+02</pdfrwt>
<totfact> 0.10321057E+05</totfact>
</mgrwt>
</event>
<event>
 8    1  0.1241100E-024  0.7630765E+02  0.7818608E-02  0.1339869E+00
         -2   -1    0    0    0  501 -0.00000000000E+00  0.00000000000E+00  0.38160681225E+03  0.38160681226E+03  0.25500000000E-02 0.  1.
          1   -1    0    0  501    0  0.00000000000E+00 -0.00000000000E+00 -0.38146954861E+01  0.38146988155E+01  0.50400000000E-02 0. -1.
        -24    2    1    2    0    0 -0.44408920985E-15  0.00000000000E+00  0.37779211677E+03  0.38542151108E+03  0.76307651711E+02 0.  0.
         66    2    3    3    0    0 -0.31648961913E+01  0.15869363030E+02  0.36339868508E+03  0.36376428848E+03  0.20000006531E+01 0.  0.
         13    1    3    3    0    0  0.31648961913E+01 -0.15869363030E+02  0.14393431681E+02  0.21657222594E+02  0.10566000000E+00 0. -1.
         13    1    4    4    0    0 -0.25075431982E+00  0.11641588267E+01  0.33097606868E+02  0.33119192139E+02  0.10566000000E+00 0. -1.
        -13    1    4    4    0    0 -0.12558196360E+01  0.96746494344E+01  0.22314615408E+03  0.22335933643E+03  0.10566000000E+00 0.  1.
         14    1    4    4    0    0 -0.16583222355E+01  0.50305547692E+01  0.10715492414E+03  0.10728575991E+03  0.00000000000E+00 0. -1.
<mgrwt>
<rscale>  0 0.76307652E+02</rscale>
<asrwt>0</asrwt>
<pdfrwt beam="1">  1        1 0.58687653E-03 0.76307652E+02</pdfrwt>
<pdfrwt beam="2">  1       -2 0.58708736E-01 0.76307652E+02</pdfrwt>
<totfact> 0.68835073E+04</totfact>
</mgrwt>
</event>
<event>
 8    1  0.1241100E-024  0.7922397E+02  0.7818608E-02  0.1331268E+00
         -2   -1    0    0    0  501 -0.00000000000E+00  0.00000000000E+00  0.74420645783E+03  0.74420645783E+03  0.25500000000E-02 0.  1.
          1   -1    0    0  501    0  0.00000000000E+00 -0.00000000000E+00 -0.21084299097E+01  0.21084359335E+01  0.50400000000E-02 0. -1.
        -24    2    1    2    0    0 -0.88817841970E-15  0.00000000000E+00  0.74209802792E+03  0.74631489377E+03  0.79223971224E+02 0.  0.
         66    2    3    3    0    0  0.50840979549E+01  0.20422176927E+02  0.68713823544E+03  0.68746335754E+03  0.19999997148E+01 0.  0.
         13    1    3    3    0    0 -0.50840979549E+01 -0.20422176927E+02  0.54959792481E+02  0.58851536225E+02  0.10566000000E+00 0. -1.
         13    1    4    4    0    0  0.41268066971E+01  0.15388859377E+02  0.53706411601E+03  0.53730040331E+03  0.10566000000E+00 0. -1.
        -13    1    4    4    0    0  0.94907712876E+00  0.35084795194E+01  0.10318073144E+03  0.10324478041E+03  0.10566000000E+00 0.  1.
         14    1    4    4    0    0  0.82141289801E-02  0.15248380311E+01  0.46893387982E+02  0.46918173823E+02  0.00000000000E+00 0. -1.
<mgrwt>
<rscale>  0 0.79223971E+02</rscale>
<asrwt>0</asrwt>
<pdfrwt beam="1">  1        1 0.32437414E-03 0.79223971E+02</pdfrwt>
<pdfrwt beam="2">  1       -2 0.11449336E+00 0.79223971E+02</pdfrwt>
<totfact> 0.36606518E+04</totfact>
</mgrwt>
</event>
<event>
 8    1  0.1241100E-024  0.7868933E+02  0.7818608E-02  0.1332813E+00
         -2   -1    0    0    0  501 -0.00000000000E+00  0.00000000000E+00  0.53511161134E+01  0.53511167210E+01  0.25500000000E-02 0.  1.
          1   -1    0    0  501    0  0.00000000000E+00 -0.00000000000E+00 -0.28928593214E+03  0.28928593218E+03  0.50400000000E-02 0. -1.
        -24    2    1    2    0    0  0.00000000000E+00  0.00000000000E+00 -0.28393481602E+03  0.29463704890E+03  0.78689331140E+02 0.  0.
         66    2    3    3    0    0 -0.13219701061E+02 -0.34560479175E+02 -0.92270757217E+02  0.99433796319E+02  0.19999989850E+01 0.  0.
         13    1    3    3    0    0  0.13219701061E+02  0.34560479175E+02 -0.19166405881E+03  0.19520325258E+03  0.10566000000E+00 0. -1.
         13    1    4    4    0    0 -0.45570472664E+00 -0.20787972952E+01 -0.54906820891E+01  0.58896365619E+01  0.10566000000E+00 0. -1.
        -13    1    4    4    0    0 -0.26689092354E+01 -0.82193799770E+01 -0.22046939242E+02  0.23680371148E+02  0.10566000000E+00 0.  1.
         14    1    4    4    0    0 -0.10095087099E+02 -0.24262301903E+02 -0.64733135886E+02  0.69863788609E+02  0.00000000000E+00 0. -1.
<mgrwt>
<rscale>  0 0.78689331E+02</rscale>
<asrwt>0</asrwt>
<pdfrwt beam="1">  1        1 0.44505516E-01 0.78689331E+02</pdfrwt>
<pdfrwt beam="2">  1       -2 0.82324891E-03 0.78689331E+02</pdfrwt>
<totfact> 0.18713757E+05</totfact>
</mgrwt>
</event>
<event>
 8    1  0.1241100E-024  0.8044485E+02  0.7818608E-02  0.1327794E+00
          1   -1    0    0  501    0  0.00000000000E+00  0.00000000000E+00  0.96347617122E+02  0.96347617253E+02  0.50400000000E-02 0. -1.
         -2   -1    0    0    0  501 -0.00000000000E+00 -0.00000000000E+00 -0.16791732271E+02  0.16791732465E+02  0.25500000000E-02 0.  1.
        -24    2    1    2    0    0  0.35527136788E-14  0.00000000000E+00  0.79555884850E+02  0.11313934972E+03  0.80444848439E+02 0.  0.
         66    2    3    3    0    0  0.27871817973E+02 -0.42904675002E+01 -0.48585425768E+00  0.28275119845E+02  0.19999998510E+01 0.  0.
         13    1    3    3    0    0 -0.27871817973E+02  0.42904675002E+01  0.80041739108E+02  0.84864229873E+02  0.10566000000E+00 0. -1.
         13    1    4    4    0    0  0.10644058855E+02 -0.17149691250E+01  0.20206683874E+00  0.10783742534E+02  0.10566000000E+00 0.  1.
        -13    1    4    4    0    0  0.94918097280E+01 -0.21327931926E+01 -0.34267890739E+00  0.97350835427E+01  0.10566000000E+00 0. -1.
         14    1    4    4    0    0  0.77359493905E+01 -0.44270518262E+00 -0.34524218903E+00  0.77562937683E+01  0.00000000000E+00 0. -1.
<mgrwt>
<rscale>  0 0.80444848E+02</rscale>
<asrwt>0</asrwt>
<pdfrwt beam="1">  1        1 0.14822710E-01 0.80444848E+02</pdfrwt>
<pdfrwt beam="2">  1       -2 0.25833435E-02 0.80444848E+02</pdfrwt>
<totfact> 0.14390155E+05</totfact>
</mgrwt>
</event>
<event>
 8    1  0.1241100E-024  0.7867718E+02  0.7818608E-02  0.1332848E+00
          1   -1    0    0  501    0  0.00000000000E+00  0.00000000000E+00  0.29238065712E+01  0.29238109152E+01  0.50400000000E-02 0. -1.
         -2   -1    0    0    0  501 -0.00000000000E+00 -0.00000000000E+00 -0.52928381196E+03  0.52928381196E+03  0.25500000000E-02 0.  1.
        -24    2    1    2    0    0 -0.17763568394E-14  0.00000000000E+00 -0.52636000539E+03  0.53220762288E+03  0.78677179538E+02 0.  0.
         66    2    3    3    0    0 -0.10852141535E+02  0.34960461277E+02 -0.36032375989E+03  0.36218395155E+03  0.19999981882E+01 0.  0.
         13    1    3    3    0    0  0.10852141535E+02 -0.34960461277E+02 -0.16603624550E+03  0.17002367133E+03  0.10566000000E+00 0. -1.
         13    1    4    4    0    0 -0.93324911628E+00  0.29238435629E+01 -0.28168374027E+02  0.28335283208E+02  0.10566000000E+00 0.  1.
        -13    1    4    4    0    0 -0.63689888088E+01  0.17712748571E+02 -0.18476618966E+03  0.18572253898E+03  0.10566000000E+00 0.  1.
         14    1    4    4    0    0 -0.35499036096E+01  0.14323869143E+02 -0.14738919620E+03  0.14812612936E+03  0.00000000000E+00 0. -1.
<mgrwt>
<rscale>  0 0.78677180E+02</rscale>
<asrwt>0</asrwt>
<pdfrwt beam="1">  1        1 0.44981715E-03 0.78677180E+02</pdfrwt>
<pdfrwt beam="2">  1       -2 0.81428203E-01 0.78677180E+02</pdfrwt>
<totfact> 0.50317239E+04</totfact>
</mgrwt>
</event>
<event>
 8    1  0.1241100E-024  0.8122846E+02  0.7818608E-02  0.1325601E+00
          1   -1    0    0  501    0  0.00000000000E+00  0.00000000000E+00  0.17216114644E+03  0.17216114651E+03  0.50400000000E-02 0. -1.
         -2   -1    0    0    0  501 -0.00000000000E+00 -0.00000000000E+00 -0.95812295341E+01  0.95812298734E+01  0.25500000000E-02 0.  1.
        -24    2    1    2    0    0  0.00000000000E+00 -0.88817841970E-15  0.16257991690E+03  0.18174237638E+03  0.81228455566E+02 0.  0.
         66    2    3    3    0    0  0.33012976243E+02  0.46161142330E+01  0.13315586629E+03  0.13727945892E+03  0.20000005852E+01 0.  0.
         13    1    3    3    0    0 -0.33012976243E+02 -0.46161142330E+01  0.29424050612E+02  0.44462917465E+02  0.10566000000E+00 0. -1.
         13    1    4    4    0    0  0.15480555368E+02  0.23402837489E+01  0.60169683089E+02  0.62173358037E+02  0.10566000000E+00 0. -1.
        -13    1    4    4    0    0  0.13518027840E+02  0.12585654766E+01  0.56102426622E+02  0.57721871943E+02  0.10566000000E+00 0.  1.
        -14    1    4    4    0    0  0.40143930348E+01  0.10172650075E+01  0.16883756580E+02  0.17384228938E+02  0.00000000000E+00 0.  1.
<mgrwt>
<rscale>  0 0.81228456E+02</rscale>
<asrwt>0</asrwt>
<pdfrwt beam="1">  1        1 0.26486325E-01 0.81228456E+02</pdfrwt>
<pdfrwt beam="2">  1       -2 0.14740356E-02 0.81228456E+02</pdfrwt>
<totfact> 0.15555510E+05</totfact>
</mgrwt>
</event>
<event>
 8    1  0.1241100E-024  0.7966701E+02  0.7818608E-02  0.1329999E+00
         -2   -1    0    0    0  501 -0.00000000000E+00  0.00000000000E+00  0.30053426345E+02  0.30053426453E+02  0.25500000000E-02 0.  1.
          1   -1    0    0  501    0  0.00000000000E+00 -0.00000000000E+00 -0.52796248916E+02  0.52796249156E+02  0.50400000000E-02 0. -1.
        -24    2    1    2    0    0  0.00000000000E+00  0.00000000000E+00 -0.22742822571E+02  0.82849675609E+02  0.79667011806E+02 0.  0.
         66    2    3    3    0    0  0.31183957878E+02 -0.15691038463E+02  0.85183525545E+01  0.35989029527E+02  0.19999997728E+01 0.  0.
         13    1    3    3    0    0 -0.31183957878E+02  0.15691038463E+02 -0.31261175125E+02  0.46860646082E+02  0.10566000000E+00 0. -1.
         13    1    4    4    0    0  0.45553492515E+01 -0.24395434870E+01  0.85244024333E+00  0.52383582955E+01  0.10566000000E+00 0. -1.
        -13    1    4    4    0    0  0.19075920108E+02 -0.95725533121E+01  0.61725322274E+01  0.22217916712E+02  0.10566000000E+00 0.  1.
        -14    1    4    4    0    0  0.75526885182E+01 -0.36789416643E+01  0.14933800838E+01  0.85327545199E+01  0.00000000000E+00 0.  1.
<mgrwt>
<rscale>  0 0.79667012E+02</rscale>
<asrwt>0</asrwt>
<pdfrwt beam="1">  1        1 0.81224999E-02 0.79667012E+02</pdfrwt>
<pdfrwt beam="2">  1       -2 0.46236041E-02 0.79667012E+02</pdfrwt>
<totfact> 0.13424372E+05</totfact>
</mgrwt>
</event>
<event>
 8    1  0.1241100E-024  0.8017643E+02  0.7818608E-02  0.1328552E+00
         -2   -1    0    0    0  501 -0.00000000000E+00  0.00000000000E+00  0.11014239313E+02  0.11014239609E+02  0.25500000000E-02 0.  1.
          1   -1    0    0  501    0  0.00000000000E+00 -0.00000000000E+00 -0.14590793398E+03  0.14590793406E+03  0.50400000000E-02 0. -1.
        -24    2    1    2    0    0  0.00000000000E+00  0.00000000000E+00 -0.13489369466E+03  0.15692217367E+03  0.80176428769E+02 0.  0.
         66    2    3    3    0    0  0.31997859026E+02  0.19543240898E+02 -0.95116497587E+02  0.10225922627E+03  0.19999994411E+01 0.  0.
         13    1    3    3    0    0 -0.31997859026E+02 -0.19543240898E+02 -0.39777197076E+02  0.54662947399E+02  0.10566000000E+00 0. -1.
         13    1    4    4    0    0  0.14916757586E+02  0.85968567596E+01 -0.42016224608E+02  0.45406936666E+02  0.10566000000E+00 0. -1.
        -13    1    4    4    0    0  0.11246969780E+02  0.68026971037E+01 -0.33497389189E+02  0.35984125162E+02  0.10566000000E+00 0.  1.
         14    1    4    4    0    0  0.58341316595E+01  0.41436870343E+01 -0.19602883790E+02  0.20868164446E+02  0.00000000000E+00 0. -1.
<mgrwt>
<rscale>  0 0.80176429E+02</rscale>
<asrwt>0</asrwt>
<pdfrwt beam="1">  1        1 0.22447373E-01 0.80176429E+02</pdfrwt>
<pdfrwt beam="2">  1       -2 0.16944985E-02 0.80176429E+02</pdfrwt>
<totfact> 0.15616029E+05</totfact>
</mgrwt>
</event>
<event>
 8    1  0.1241100E-024  0.8079875E+02  0.7818608E-02  0.1326800E+00
         -2   -1    0    0    0  501 -0.00000000000E+00  0.00000000000E+00  0.35320172078E+02  0.35320172170E+02  0.25500000000E-02 0.  1.
          1   -1    0    0  501    0  0.00000000000E+00 -0.00000000000E+00 -0.46208989357E+02  0.46208989632E+02  0.50400000000E-02 0. -1.
        -24    2    1    2    0    0 -0.17763568394E-14 -0.11102230246E-15 -0.10888817279E+02  0.81529161802E+02  0.80798749263E+02 0.  0.
         66    2    3    3    0    0 -0.11693049067E+02  0.91616749473E+00  0.33534882642E+02  0.35583073416E+02  0.20000001415E+01 0.  0.
         13    1    3    3    0    0  0.11693049067E+02 -0.91616749473E+00 -0.44423699920E+02  0.45946088386E+02  0.10566000000E+00 0. -1.
         13    1    4    4    0    0 -0.20988035977E+00 -0.15968213089E+00  0.72456009858E+00  0.77826699815E+00  0.10566000000E+00 0. -1.
        -13    1    4    4    0    0 -0.32473079892E+01 -0.49825036668E-01  0.78184579793E+01  0.84668140950E+01  0.10566000000E+00 0.  1.
        -14    1    4    4    0    0 -0.82358607179E+01  0.11256746623E+01  0.24991864564E+02  0.26337992323E+02  0.00000000000E+00 0.  1.
<mgrwt>
<rscale>  0 0.80798749E+02</rscale>
<asrwt>0</asrwt>
<pdfrwt beam="1">  1        1 0.71090754E-02 0.80798749E+02</pdfrwt>
<pdfrwt beam="2">  1       -2 0.54338726E-02 0.80798749E+02</pdfrwt>
<totfact> 0.12638448E+05</totfact>
</mgrwt>
</event>
<event>
 8    1  0.1241100E-024  0.7784164E+02  0.7818608E-02  0.1335291E+00
         -2   -1    0    0    0  501 -0.00000000000E+00  0.00000000000E+00  0.27341474396E+02  0.27341474515E+02  0.25500000000E-02 0.  1.
          1   -1    0    0  501    0  0.00000000000E+00 -0.00000000000E+00 -0.55404122313E+02  0.55404122542E+02  0.50400000000E-02 0. -1.
        -24    2    1    2    0    0 -0.71054273576E-14  0.35527136788E-14 -0.28062647917E+02  0.82745597058E+02  0.77841644538E+02 0.  0.
         66    2    3    3    0    0  0.35058864905E+02 -0.16775681851E+02 -0.15644940553E+02  0.41944149410E+02  0.19999987023E+01 0.  0.
         13    1    3    3    0    0 -0.35058864905E+02  0.16775681851E+02 -0.12417707364E+02  0.40801447648E+02  0.10566000000E+00 0. -1.
         13    1    4    4    0    0  0.74536184178E+01 -0.37228368117E+01 -0.27401387791E+01  0.87712864512E+01  0.10566000000E+00 0. -1.
        -13    1    4    4    0    0  0.20067064275E+02 -0.92275842951E+01 -0.88004612375E+01  0.23775926114E+02  0.10566000000E+00 0.  1.
         14    1    4    4    0    0  0.75381822118E+01 -0.38252607441E+01 -0.41043405366E+01  0.93969368445E+01  0.00000000000E+00 0. -1.
<mgrwt>
<rscale>  0 0.77841645E+02</rscale>
<asrwt>0</asrwt>
<pdfrwt beam="1">  1        1 0.85237112E-02 0.77841645E+02</pdfrwt>
<pdfrwt beam="2">  1       -2 0.42063807E-02 0.77841645E+02</pdfrwt>
<totfact> 0.14419394E+05</totfact>
</mgrwt>
</event>
<event>
 8    1  0.1241100E-024  0.8035503E+02  0.7818608E-02  0.1328047E+00
          1   -1    0    0  501    0  0.00000000000E+00  0.00000000000E+00  0.14263910785E+03  0.14263910794E+03  0.50400000000E-02 0. -1.
         -2   -1    0    0    0  501 -0.00000000000E+00 -0.00000000000E+00 -0.11316900820E+02  0.11316901107E+02  0.25500000000E-02 0.  1.
        -24    2    1    2    0    0  0.00000000000E+00  0.00000000000E+00  0.13132220703E+03  0.15395600904E+03  0.80355028854E+02 0.  0.
         66    2    3    3    0    0  0.29094630664E+02 -0.24742793746E+02  0.41962133281E+02  0.56776086633E+02  0.20000019967E+01 0.  0.
         13    1    3    3    0    0 -0.29094630664E+02  0.24742793746E+02  0.89360073747E+02  0.97179922411E+02  0.10566000000E+00 0. -1.
         13    1    4    4    0    0  0.16731220516E+01 -0.10749467486E+01  0.19110840846E+01  0.27601185348E+01  0.10566000000E+00 0. -1.
        -13    1    4    4    0    0  0.24894107103E+02 -0.21892886303E+02  0.36404946313E+02  0.49237651439E+02  0.10566000000E+00 0.  1.
        -14    1    4    4    0    0  0.25274015099E+01 -0.17749606941E+01  0.36461028831E+01  0.47783166588E+01  0.00000000000E+00 0.  1.
<mgrwt>
<rscale>  0 0.80355029E+02</rscale>
<asrwt>0</asrwt>
<pdfrwt beam="1">  1        1 0.21944478E-01 0.80355029E+02</pdfrwt>
<pdfrwt beam="2">  1       -2 0.17410617E-02 0.80355029E+02</pdfrwt>
<totfact> 0.15459007E+05</totfact>
</mgrwt>
</event>
<event>
 8    1  0.1241100E-024  0.7925673E+02  0.7818608E-02  0.1331174E+00
         -2   -1    0    0    0  501 -0.00000000000E+00  0.00000000000E+00  0.36681151306E+02  0.36681151395E+02  0.25500000000E-02 0.  1.
          1   -1    0    0  501    0  0.00000000000E+00 -0.00000000000E+00 -0.42812376220E+02  0.42812376517E+02  0.50400000000E-02 0. -1.
        -24    2    1    2    0    0  0.35527136788E-14 -0.88817841970E-15 -0.61312249138E+01  0.79493527911E+02  0.79256728805E+02 0.  0.
         66    2    3    3    0    0  0.19739519532E+02 -0.67307414280E+01  0.30699789808E+02  0.37167574632E+02  0.19999995445E+01 0.  0.
         13    1    3    3    0    0 -0.19739519532E+02  0.67307414280E+01 -0.36831014722E+02  0.42325953280E+02  0.10566000000E+00 0. -1.
         13    1    4    4    0    0  0.83817975914E+01 -0.32493031859E+01  0.11893316274E+02  0.14908877828E+02  0.10566000000E+00 0. -1.
        -13    1    4    4    0    0  0.44919666243E+01 -0.15275816028E+01  0.81859886417E+01  0.94621796529E+01  0.10566000000E+00 0.  1.
        -14    1    4    4    0    0  0.68657553164E+01 -0.19538566394E+01  0.10620484892E+02  0.12796517150E+02  0.00000000000E+00 0.  1.
<mgrwt>
<rscale>  0 0.79256729E+02</rscale>
<asrwt>0</asrwt>
<pdfrwt beam="1">  1        1 0.65865195E-02 0.79256729E+02</pdfrwt>
<pdfrwt beam="2">  1       -2 0.56432540E-02 0.79256729E+02</pdfrwt>
<totfact> 0.13177736E+05</totfact>
</mgrwt>
</event>
<event>
 8    1  0.1241100E-024  0.8110332E+02  0.7818608E-02  0.1325949E+00
         -2   -1    0    0    0  501 -0.00000000000E+00  0.00000000000E+00  0.17571972695E+02  0.17571972880E+02  0.25500000000E-02 0.  1.
          1   -1    0    0  501    0  0.00000000000E+00 -0.00000000000E+00 -0.93582950596E+02  0.93582950731E+02  0.50400000000E-02 0. -1.
        -24    2    1    2    0    0  0.00000000000E+00  0.35527136788E-14 -0.76010977901E+02  0.11115492361E+03  0.81103318562E+02 0.  0.
         66    2    3    3    0    0 -0.97070889670E+01 -0.27918626130E+02 -0.28499357318E-01  0.29625631508E+02  0.19999922097E+01 0.  0.
         13    1    3    3    0    0  0.97070889670E+01  0.27918626130E+02 -0.75982478543E+02  0.81529292103E+02  0.10566000000E+00 0. -1.
         13    1    4    4    0    0 -0.27708593444E+01 -0.10186702097E+02  0.56563977443E+00  0.10572496087E+02  0.10566000000E+00 0. -1.
        -13    1    4    4    0    0 -0.30955659783E+01 -0.79874627237E+01 -0.10313913393E+00  0.85676070875E+01  0.10566000000E+00 0.  1.
         14    1    4    4    0    0 -0.38406636443E+01 -0.97444613093E+01 -0.49099999783E+00  0.10485528334E+02  0.00000000000E+00 0. -1.
<mgrwt>
<rscale>  0 0.81103319E+02</rscale>
<asrwt>0</asrwt>
<pdfrwt beam="1">  1        1 0.14397377E-01 0.81103319E+02</pdfrwt>
<pdfrwt beam="2">  1       -2 0.27033805E-02 0.81103319E+02</pdfrwt>
<totfact> 0.14007291E+05</totfact>
</mgrwt>
</event>
<event>
 8    1  0.1241100E-024  0.7851208E+02  0.7818608E-02  0.1333328E+00
         -2   -1    0    0    0  501 -0.00000000000E+00  0.00000000000E+00  0.67648564819E+01  0.67648569625E+01  0.25500000000E-02 0.  1.
          1   -1    0    0  501    0  0.00000000000E+00 -0.00000000000E+00 -0.22780032619E+03  0.22780032625E+03  0.50400000000E-02 0. -1.
        -24    2    1    2    0    0  0.00000000000E+00 -0.71054273576E-14 -0.22103546971E+03  0.23456518321E+03  0.78512077443E+02 0.  0.
         66    2    3    3    0    0 -0.16227368712E+02 -0.29398150649E+02 -0.49987226515E+02  0.60251983994E+02  0.20000009138E+01 0.  0.
         13    1    3    3    0    0  0.16227368712E+02  0.29398150649E+02 -0.17104824319E+03  0.17431319921E+03  0.10566000000E+00 0. -1.
         13    1    4    4    0    0 -0.22775795119E+01 -0.41015725751E+01 -0.69272710551E+01  0.83671090783E+01  0.10566000000E+00 0. -1.
        -13    1    4    4    0    0 -0.59799855518E+00 -0.15292184064E+01 -0.18696701585E+01  0.24905705659E+01  0.10566000000E+00 0. -1.
        -14    1    4    4    0    0 -0.13351790645E+02 -0.23767359667E+02 -0.41190285301E+02  0.49394304350E+02  0.00000000000E+00 0.  1.
<mgrwt>
<rscale>  0 0.78512077E+02</rscale>
<asrwt>0</asrwt>
<pdfrwt beam="1">  1        1 0.35046198E-01 0.78512077E+02</pdfrwt>
<pdfrwt beam="2">  1       -2 0.10407474E-02 0.78512077E+02</pdfrwt>
<totfact> 0.17973143E+05</totfact>
</mgrwt>
</event>
<event>
 8    1  0.1241100E-024  0.7953193E+02  0.7818608E-02  0.1330385E+00
          1   -1    0    0  501    0  0.00000000000E+00  0.00000000000E+00  0.35606411960E+03  0.35606411963E+03  0.50400000000E-02 0. -1.
         -2   -1    0    0    0  501 -0.00000000000E+00 -0.00000000000E+00 -0.44411430508E+01  0.44411437829E+01  0.25500000000E-02 0.  1.
        -24    2    1    2    0    0  0.00000000000E+00  0.00000000000E+00  0.35162297655E+03  0.36050526342E+03  0.79531926389E+02 0.  0.
         66    2    3    3    0    0  0.39571426501E+02  0.15484106298E+01  0.16086712430E+03  0.16568200582E+03  0.20000001149E+01 0.  0.
         13    1    3    3    0    0 -0.39571426501E+02 -0.15484106298E+01  0.19075585225E+03  0.19482325760E+03  0.10566000000E+00 0. -1.
         13    1    4    4    0    0  0.85270397893E+00  0.20848080347E-01  0.41395189356E+01  0.42278031851E+01  0.10566000000E+00 0. -1.
        -13    1    4    4    0    0  0.38664267689E+02  0.15803194117E+01  0.15624226334E+03  0.16096297407E+03  0.10566000000E+00 0.  1.
        -14    1    4    4    0    0  0.54454833140E-01 -0.52756862232E-01  0.48534202993E+00  0.49122856327E+00  0.00000000000E+00 0.  1.
<mgrwt>
<rscale>  0 0.79531926E+02</rscale>
<asrwt>0</asrwt>
<pdfrwt beam="1">  1        1 0.54779108E-01 0.79531926E+02</pdfrwt>
<pdfrwt beam="2">  1       -2 0.68325268E-03 0.79531926E+02</pdfrwt>
<totfact> 0.18909539E+05</totfact>
</mgrwt>
</event>
<event>
 8    1  0.1241100E-024  0.7783163E+02  0.7818608E-02  0.1335320E+00
         -2   -1    0    0    0  501 -0.00000000000E+00  0.00000000000E+00  0.22334485216E+02  0.22334485361E+02  0.25500000000E-02 0.  1.
          1   -1    0    0  501    0  0.00000000000E+00 -0.00000000000E+00 -0.67807284043E+02  0.67807284230E+02  0.50400000000E-02 0. -1.
        -24    2    1    2    0    0 -0.35527136788E-14  0.88817841970E-15 -0.45472798827E+02  0.90141769591E+02  0.77831633620E+02 0.  0.
         66    2    3    3    0    0  0.30558464776E+02  0.54362252421E+01  0.43868421395E+01  0.31410455323E+02  0.20000013324E+01 0.  0.
         13    1    3    3    0    0 -0.30558464776E+02 -0.54362252421E+01 -0.49859640966E+02  0.58731314268E+02  0.10566000000E+00 0. -1.
         13    1    4    4    0    0  0.18393133916E+01  0.47617746508E+00  0.55655080314E+00  0.19826072639E+01  0.10566000000E+00 0. -1.
        -13    1    4    4    0    0  0.37508878958E+01  0.10113219610E+01  0.21688496479E+00  0.38923174639E+01  0.10566000000E+00 0.  1.
        -14    1    4    4    0    0  0.24968263488E+02  0.39487258160E+01  0.36134063716E+01  0.25535530596E+02  0.00000000000E+00 0.  1.
<mgrwt>
<rscale>  0 0.77831634E+02</rscale>
<asrwt>0</asrwt>
<pdfrwt beam="1">  1        1 0.10431890E-01 0.77831634E+02</pdfrwt>
<pdfrwt beam="2">  1       -2 0.34360747E-02 0.77831634E+02</pdfrwt>
<totfact> 0.14878654E+05</totfact>
</mgrwt>
</event>
<event>
 8    1  0.1241100E-024  0.7270947E+02  0.7818608E-02  0.1351114E+00
         -2   -1    0    0    0  501 -0.00000000000E+00  0.00000000000E+00  0.19425585110E+03  0.19425585112E+03  0.25500000000E-02 0.  1.
          1   -1    0    0  501    0  0.00000000000E+00 -0.00000000000E+00 -0.68037412619E+01  0.68037431287E+01  0.50400000000E-02 0. -1.
        -24    2    1    2    0    0  0.00000000000E+00  0.00000000000E+00  0.18745210984E+03  0.20105959425E+03  0.72709469503E+02 0.  0.
         66    2    3    3    0    0 -0.84392407671E+01  0.26606906043E+02  0.15808584584E+03  0.16054371021E+03  0.19999998520E+01 0.  0.
         13    1    3    3    0    0  0.84392407671E+01 -0.26606906043E+02  0.29366264000E+02  0.40515884037E+02  0.10566000000E+00 0. -1.
         13    1    4    4    0    0 -0.23171556221E+01  0.10381134351E+02  0.59669939376E+02  0.60610642545E+02  0.10566000000E+00 0. -1.
        -13    1    4    4    0    0 -0.34149528837E+01  0.90765963421E+01  0.56145462784E+02  0.56976930942E+02  0.10566000000E+00 0.  1.
         14    1    4    4    0    0 -0.27071322613E+01  0.71491753504E+01  0.42270443681E+02  0.42956136724E+02  0.00000000000E+00 0. -1.
<mgrwt>
<rscale>  0 0.72709470E+02</rscale>
<asrwt>0</asrwt>
<pdfrwt beam="1">  1        1 0.10467294E-02 0.72709470E+02</pdfrwt>
<pdfrwt beam="2">  1       -2 0.29885520E-01 0.72709470E+02</pdfrwt>
<totfact> 0.11003033E+05</totfact>
</mgrwt>
</event>
<event>
 8    1  0.1241100E-024  0.7943027E+02  0.7818608E-02  0.1330676E+00
         -2   -1    0    0    0  501 -0.00000000000E+00  0.00000000000E+00  0.19179250324E+03  0.19179250325E+03  0.25500000000E-02 0.  1.
          1   -1    0    0  501    0  0.00000000000E+00 -0.00000000000E+00 -0.82239481270E+01  0.82239496714E+01  0.50400000000E-02 0. -1.
        -24    2    1    2    0    0  0.00000000000E+00  0.00000000000E+00  0.18356855511E+03  0.20001645292E+03  0.79430265111E+02 0.  0.
         66    2    3    3    0    0  0.36642238506E+02  0.11562943416E+02  0.11688880402E+03  0.12305831058E+03  0.19999988714E+01 0.  0.
         13    1    3    3    0    0 -0.36642238506E+02 -0.11562943416E+02  0.66679751092E+02  0.76958142343E+02  0.10566000000E+00 0. -1.
         13    1    4    4    0    0  0.90493078569E+01  0.32846986230E+01  0.28908211284E+02  0.30469247799E+02  0.10566000000E+00 0.  1.
        -13    1    4    4    0    0  0.10435655212E+02  0.37193726426E+01  0.32355635788E+02  0.34199926372E+02  0.10566000000E+00 0.  1.
        -14    1    4    4    0    0  0.17157275437E+02  0.45588721506E+01  0.55624956944E+02  0.58389136411E+02  0.00000000000E+00 0.  1.
<mgrwt>
<rscale>  0 0.79430265E+02</rscale>
<asrwt>0</asrwt>
<pdfrwt beam="1">  1        1 0.12652231E-02 0.79430265E+02</pdfrwt>
<pdfrwt beam="2">  1       -2 0.29506535E-01 0.79430265E+02</pdfrwt>
<totfact> 0.88121404E+04</totfact>
</mgrwt>
</event>
<event>
 8    1  0.1241100E-024  0.8393435E+02  0.7818608E-02  0.1318243E+00
          1   -1    0    0  501    0  0.00000000000E+00  0.00000000000E+00  0.31508168345E+02  0.31508168748E+02  0.50400000000E-02 0. -1.
         -2   -1    0    0    0  501 -0.00000000000E+00 -0.00000000000E+00 -0.55898004186E+02  0.55898004244E+02  0.25500000000E-02 0.  1.
        -24    2    1    2    0    0  0.00000000000E+00  0.35527136788E-14 -0.24389835841E+02  0.87406172992E+02  0.83934349255E+02 0.  0.
         66    2    3    3    0    0 -0.80865573303E+01  0.23292288464E+02 -0.47536373526E+02  0.53587591085E+02  0.19999997302E+01 0.  0.
         13    1    3    3    0    0  0.80865573303E+01 -0.23292288464E+02  0.23146537685E+02  0.33818581907E+02  0.10566000000E+00 0. -1.
         13    1    4    4    0    0 -0.31169971146E+01  0.63675278782E+01 -0.13667403294E+02  0.15397082812E+02  0.10566000000E+00 0. -1.
        -13    1    4    4    0    0 -0.33205055616E+01  0.10460579944E+02 -0.21007457335E+02  0.23701770349E+02  0.10566000000E+00 0.  1.
         14    1    4    4    0    0 -0.16490546541E+01  0.64641806418E+01 -0.12861512898E+02  0.14488737924E+02  0.00000000000E+00 0. -1.
<mgrwt>
<rscale>  0 0.83934349E+02</rscale>
<asrwt>0</asrwt>
<pdfrwt beam="1">  1        1 0.48474106E-02 0.83934349E+02</pdfrwt>
<pdfrwt beam="2">  1       -2 0.85996929E-02 0.83934349E+02</pdfrwt>
<totfact> 0.10624831E+05</totfact>
</mgrwt>
</event>
<event>
 8    1  0.1241100E-024  0.8027145E+02  0.7818608E-02  0.1328283E+00
          1   -1    0    0  501    0  0.00000000000E+00  0.00000000000E+00  0.12263885384E+02  0.12263886420E+02  0.50400000000E-02 0. -1.
         -2   -1    0    0    0  501 -0.00000000000E+00 -0.00000000000E+00 -0.13135123777E+03  0.13135123780E+03  0.25500000000E-02 0.  1.
        -24    2    1    2    0    0  0.88817841970E-15 -0.71054273576E-14 -0.11908735239E+03  0.14361512422E+03  0.80271454484E+02 0.  0.
         66    2    3    3    0    0 -0.68732870797E+01  0.36322151246E+02 -0.87431706023E+02  0.94946532114E+02  0.19999990141E+01 0.  0.
         13    1    3    3    0    0  0.68732870797E+01 -0.36322151246E+02 -0.31655646365E+02  0.48668592102E+02  0.10566000000E+00 0. -1.
         13    1    4    4    0    0 -0.13906846862E+01  0.64827888109E+01 -0.13962251417E+02  0.15456913771E+02  0.10566000000E+00 0. -1.
        -13    1    4    4    0    0 -0.41824984514E+01  0.21944980083E+02 -0.53497574123E+02  0.57974796638E+02  0.10566000000E+00 0.  1.
        -14    1    4    4    0    0 -0.13001039421E+01  0.78943823518E+01 -0.19971880483E+02  0.21514821705E+02  0.00000000000E+00 0.  1.
<mgrwt>
<rscale>  0 0.80271454E+02</rscale>
<asrwt>0</asrwt>
<pdfrwt beam="1">  1        1 0.18867518E-02 0.80271454E+02</pdfrwt>
<pdfrwt beam="2">  1       -2 0.20207882E-01 0.80271454E+02</pdfrwt>
<totfact> 0.97675184E+04</totfact>
</mgrwt>
</event>
<event>
 8    1  0.1241100E-024  0.8532723E+02  0.7818608E-02  0.1314579E+00
         -2   -1    0    0    0  501 -0.00000000000E+00  0.00000000000E+00  0.45441107351E+02  0.45441107422E+02  0.25500000000E-02 0.  1.
          1   -1    0    0  501    0  0.00000000000E+00 -0.00000000000E+00 -0.40055887654E+02  0.40055887971E+02  0.50400000000E-02 0. -1.
        -24    2    1    2    0    0  0.00000000000E+00 -0.71054273576E-14  0.53852196965E+01  0.85496995394E+02  0.85327226781E+02 0.  0.
         66    2    3    3    0    0  0.11685332816E+02 -0.38013665684E+02 -0.12718101257E+02  0.41801146903E+02  0.20000002508E+01 0.  0.
         13    1    3    3    0    0 -0.11685332816E+02  0.38013665684E+02  0.18103320953E+02  0.43695848491E+02  0.10566000000E+00 0. -1.
         13    1    4    4    0    0  0.20477863470E+01 -0.67761120120E+01 -0.29837562642E+01  0.76826485278E+01  0.10566000000E+00 0. -1.
        -13    1    4    4    0    0  0.47230358773E+01 -0.14728652784E+02 -0.49764730763E+01  0.16248591602E+02  0.10566000000E+00 0.  1.
         14    1    4    4    0    0  0.49145105919E+01 -0.16508900888E+02 -0.47578719164E+01  0.17869906773E+02  0.00000000000E+00 0. -1.
<mgrwt>
<rscale>  0 0.85327227E+02</rscale>
<asrwt>0</asrwt>
<pdfrwt beam="1">  1        1 0.61624443E-02 0.85327227E+02</pdfrwt>
<pdfrwt beam="2">  1       -2 0.69909396E-02 0.85327227E+02</pdfrwt>
<totfact> 0.10578927E+05</totfact>
</mgrwt>
</event>
<event>
 8    1  0.1241100E-024  0.7709936E+02  0.7818608E-02  0.1337491E+00
         -2   -1    0    0    0  501 -0.00000000000E+00  0.00000000000E+00  0.33127151818E+02  0.33127151916E+02  0.25500000000E-02 0.  1.
          1   -1    0    0  501    0  0.00000000000E+00 -0.00000000000E+00 -0.44859810269E+02  0.44859810552E+02  0.50400000000E-02 0. -1.
        -24    2    1    2    0    0  0.00000000000E+00  0.88817841970E-15 -0.11732658452E+02  0.77986962468E+02  0.77099358238E+02 0.  0.
         66    2    3    3    0    0  0.29725906339E+02  0.46333837199E+01  0.18468647824E+02  0.35358007318E+02  0.19999941676E+01 0.  0.
         13    1    3    3    0    0 -0.29725906339E+02 -0.46333837199E+01 -0.30201306276E+02  0.42628955150E+02  0.10566000000E+00 0. -1.
         13    1    4    4    0    0  0.13665106289E+02  0.29460570845E+01  0.81282556902E+01  0.16170778795E+02  0.10566000000E+00 0. -1.
        -13    1    4    4    0    0  0.23909870315E+01  0.34189596022E+00  0.13230387637E+01  0.27559585335E+01  0.10566000000E+00 0. -1.
        -14    1    4    4    0    0  0.13669813019E+02  0.13454306751E+01  0.90173533706E+01  0.16431269990E+02  0.00000000000E+00 0.  1.
<mgrwt>
<rscale>  0 0.77099358E+02</rscale>
<asrwt>0</asrwt>
<pdfrwt beam="1">  1        1 0.69015093E-02 0.77099358E+02</pdfrwt>
<pdfrwt beam="2">  1       -2 0.50964849E-02 0.77099358E+02</pdfrwt>
<totfact> 0.14336605E+05</totfact>
</mgrwt>
</event>
<event>
 8    1  0.1241100E-024  0.7919495E+02  0.7818608E-02  0.1331352E+00
         -2   -1    0    0    0  501 -0.00000000000E+00  0.00000000000E+00  0.10234542282E+03  0.10234542285E+03  0.25500000000E-02 0.  1.
          1   -1    0    0  501    0  0.00000000000E+00 -0.00000000000E+00 -0.15320273005E+02  0.15320273834E+02  0.50400000000E-02 0. -1.
        -24    2    1    2    0    0  0.35527136788E-14  0.00000000000E+00  0.87025149818E+02  0.11766569669E+03  0.79194946028E+02 0.  0.
         66    2    3    3    0    0  0.29064798442E+02  0.25491585800E+02  0.56092299907E+02  0.68153720131E+02  0.20000009466E+01 0.  0.
         13    1    3    3    0    0 -0.29064798442E+02 -0.25491585800E+02  0.30932849911E+02  0.49511976558E+02  0.10566000000E+00 0. -1.
         13    1    4    4    0    0  0.24111094443E+01  0.27482141488E+01  0.54204882615E+01  0.65390356161E+01  0.10566000000E+00 0. -1.
        -13    1    4    4    0    0  0.45487984420E+01  0.35155673983E+01  0.78955015051E+01  0.97673378897E+01  0.10566000000E+00 0.  1.
        -14    1    4    4    0    0  0.22104890555E+02  0.19227804253E+02  0.42776310140E+02  0.51847346625E+02  0.00000000000E+00 0.  1.
<mgrwt>
<rscale>  0 0.79194946E+02</rscale>
<asrwt>0</asrwt>
<pdfrwt beam="1">  1        1 0.23569651E-02 0.79194946E+02</pdfrwt>
<pdfrwt beam="2">  1       -2 0.15745450E-01 0.79194946E+02</pdfrwt>
<totfact> 0.10828174E+05</totfact>
</mgrwt>
</event>
<event>
 8    1  0.1241100E-024  0.7933430E+02  0.7818608E-02  0.1330951E+00
         -2   -1    0    0    0  501 -0.00000000000E+00  0.00000000000E+00  0.50811027765E+02  0.50811027829E+02  0.25500000000E-02 0.  1.
          1   -1    0    0  501    0  0.00000000000E+00 -0.00000000000E+00 -0.30967345718E+02  0.30967346128E+02  0.50400000000E-02 0. -1.
        -24    2    1    2    0    0 -0.35527136788E-14  0.00000000000E+00  0.19843682047E+02  0.81778373957E+02  0.79334297312E+02 0.  0.
         66    2    3    3    0    0 -0.20231027246E+02  0.56397075874E+00  0.45064375539E+02  0.49440979649E+02  0.19999998652E+01 0.  0.
         13    1    3    3    0    0  0.20231027246E+02 -0.56397075874E+00 -0.25220693492E+02  0.32337394309E+02  0.10566000000E+00 0. -1.
         13    1    4    4    0    0 -0.49024039612E+01 -0.31750104955E+00  0.12296339304E+02  0.13241808632E+02  0.10566000000E+00 0. -1.
        -13    1    4    4    0    0 -0.22227920540E+01 -0.17279426475E+00  0.45161530999E+01  0.50376051086E+01  0.10566000000E+00 0.  1.
        -14    1    4    4    0    0 -0.13105831231E+02  0.10542660730E+01  0.28251883134E+02  0.31161565908E+02  0.00000000000E+00 0.  1.
<mgrwt>
<rscale>  0 0.79334297E+02</rscale>
<asrwt>0</asrwt>
<pdfrwt beam="1">  1        1 0.47642071E-02 0.79334297E+02</pdfrwt>
<pdfrwt beam="2">  1       -2 0.78170811E-02 0.79334297E+02</pdfrwt>
<totfact> 0.12457225E+05</totfact>
</mgrwt>
</event>
<event>
 8    1  0.1241100E-024  0.8039072E+02  0.7818608E-02  0.1327946E+00
          1   -1    0    0  501    0  0.00000000000E+00  0.00000000000E+00  0.96385319180E+02  0.96385319312E+02  0.50400000000E-02 0. -1.
         -2   -1    0    0    0  501 -0.00000000000E+00 -0.00000000000E+00 -0.16762584304E+02  0.16762584498E+02  0.25500000000E-02 0.  1.
        -24    2    1    2    0    0  0.00000000000E+00 -0.17763568394E-14  0.79622734876E+02  0.11314790381E+03  0.80390722272E+02 0.  0.
         66    2    3    3    0    0  0.10031996804E+02  0.12508600459E+02 -0.12003399096E+02  0.20129273224E+02  0.20000013401E+01 0.  0.
         13    1    3    3    0    0 -0.10031996804E+02 -0.12508600459E+02  0.91626133972E+02  0.93018630585E+02  0.10566000000E+00 0. -1.
         13    1    4    4    0    0  0.51536349120E+01  0.53490878912E+01 -0.48012224629E+01  0.88450887643E+01  0.10566000000E+00 0. -1.
        -13    1    4    4    0    0  0.51337176769E+00  0.86891367557E+00 -0.63602442836E+00  0.11976028793E+01  0.10566000000E+00 0.  1.
         14    1    4    4    0    0  0.43649901246E+01  0.62905988920E+01 -0.65661522047E+01  0.10086581581E+02  0.00000000000E+00 0. -1.
<mgrwt>
<rscale>  0 0.80390722E+02</rscale>
<asrwt>0</asrwt>
<pdfrwt beam="1">  1        1 0.14828511E-01 0.80390722E+02</pdfrwt>
<pdfrwt beam="2">  1       -2 0.25788591E-02 0.80390722E+02</pdfrwt>
<totfact> 0.14417348E+05</totfact>
</mgrwt>
</event>
<event>
 8    1  0.1241100E-024  0.7986521E+02  0.7818608E-02  0.1329434E+00
         -2   -1    0    0    0  501 -0.00000000000E+00  0.00000000000E+00  0.22582535599E+02  0.22582535743E+02  0.25500000000E-02 0.  1.
          1   -1    0    0  501    0  0.00000000000E+00 -0.00000000000E+00 -0.70612667829E+02  0.70612668009E+02  0.50400000000E-02 0. -1.
        -24    2    1    2    0    0  0.00000000000E+00 -0.35527136788E-14 -0.48030132230E+02  0.93195203752E+02  0.79865213957E+02 0.  0.
         66    2    3    3    0    0  0.12979940277E+02  0.31700974260E+02 -0.47921115440E+02  0.58939493756E+02  0.20000001383E+01 0.  0.
         13    1    3    3    0    0 -0.12979940277E+02 -0.31700974260E+02 -0.10901678952E+00  0.34255709996E+02  0.10566000000E+00 0. -1.
         13    1    4    4    0    0  0.17231154942E+01  0.33273167681E+01 -0.53751814758E+01  0.65531598344E+01  0.10566000000E+00 0.  1.
        -13    1    4    4    0    0  0.21893050294E+01  0.67269493591E+01 -0.10670843180E+02  0.12803240308E+02  0.10566000000E+00 0. -1.
        -14    1    4    4    0    0  0.90675197536E+01  0.21646708133E+02 -0.31875090785E+02  0.39583093613E+02  0.00000000000E+00 0.  1.
<mgrwt>
<rscale>  0 0.79865214E+02</rscale>
<asrwt>0</asrwt>
<pdfrwt beam="1">  1        1 0.10863487E-01 0.79865214E+02</pdfrwt>
<pdfrwt beam="2">  1       -2 0.34742363E-02 0.79865214E+02</pdfrwt>
<totfact> 0.13954031E+05</totfact>
</mgrwt>
</event>
<event>
 8    1  0.1241100E-024  0.7939857E+02  0.7818608E-02  0.1330767E+00
          1   -1    0    0  501    0  0.00000000000E+00  0.00000000000E+00  0.20334438988E+02  0.20334439613E+02  0.50400000000E-02 0. -1.
         -2   -1    0    0    0  501 -0.00000000000E+00 -0.00000000000E+00 -0.77505606278E+02  0.77505606320E+02  0.25500000000E-02 0.  1.
        -24    2    1    2    0    0  0.00000000000E+00  0.00000000000E+00 -0.57171167289E+02  0.97840045933E+02  0.79398565597E+02 0.  0.
         66    2    3    3    0    0  0.25248339312E+02 -0.29165927445E+01 -0.66143131477E+02  0.70886521921E+02  0.19999992925E+01 0.  0.
         13    1    3    3    0    0 -0.25248339312E+02  0.29165927445E+01  0.89719641879E+01  0.26953524012E+02  0.10566000000E+00 0. -1.
         13    1    4    4    0    0  0.12957971836E+02 -0.15701984510E+01 -0.31921816082E+02  0.34487505901E+02  0.10566000000E+00 0. -1.
        -13    1    4    4    0    0  0.10275777779E+02 -0.97955188667E+00 -0.29451710413E+02  0.31208420998E+02  0.10566000000E+00 0.  1.
        -14    1    4    4    0    0  0.20145896969E+01 -0.36684240682E+00 -0.47696049813E+01  0.51905950214E+01  0.00000000000E+00 0.  1.
<mgrwt>
<rscale>  0 0.79398566E+02</rscale>
<asrwt>0</asrwt>
<pdfrwt beam="1">  1        1 0.31283753E-02 0.79398566E+02</pdfrwt>
<pdfrwt beam="2">  1       -2 0.11923939E-01 0.79398566E+02</pdfrwt>
<totfact> 0.11470360E+05</totfact>
</mgrwt>
</event>
<event>
 8    1  0.1241100E-024  0.8019299E+02  0.7818608E-02  0.1328505E+00
          1   -1    0    0  501    0  0.00000000000E+00  0.00000000000E+00  0.89300439943E+02  0.89300440085E+02  0.50400000000E-02 0. -1.
         -2   -1    0    0    0  501 -0.00000000000E+00 -0.00000000000E+00 -0.18003595088E+02  0.18003595269E+02  0.25500000000E-02 0.  1.
        -24    2    1    2    0    0  0.71054273576E-14  0.00000000000E+00  0.71296844855E+02  0.10730403535E+03  0.80192991695E+02 0.  0.
         66    2    3    3    0    0  0.32588538977E+02 -0.74892474552E+01  0.61229871514E+01  0.34052792415E+02  0.19999998846E+01 0.  0.
         13    1    3    3    0    0 -0.32588538977E+02  0.74892474552E+01  0.65173857703E+02  0.73251242939E+02  0.10566000000E+00 0. -1.
         13    1    4    4    0    0  0.28697921835E+01 -0.10334690323E+01  0.89363949244E+00  0.31801762522E+01  0.10566000000E+00 0. -1.
        -13    1    4    4    0    0  0.18590461505E+02 -0.38228978300E+01  0.36693627023E+01  0.19331197414E+02  0.10566000000E+00 0.  1.
        -14    1    4    4    0    0  0.11128285288E+02 -0.26328805929E+01  0.15599849566E+01  0.11541418749E+02  0.00000000000E+00 0.  1.
<mgrwt>
<rscale>  0 0.80192992E+02</rscale>
<asrwt>0</asrwt>
<pdfrwt beam="1">  1        1 0.13738529E-01 0.80192992E+02</pdfrwt>
<pdfrwt beam="2">  1       -2 0.27697838E-02 0.80192992E+02</pdfrwt>
<totfact> 0.14331210E+05</totfact>
</mgrwt>
</event>
<event>
 8    1  0.1241100E-024  0.7961882E+02  0.7818608E-02  0.1330137E+00
         -2   -1    0    0    0  501 -0.00000000000E+00  0.00000000000E+00  0.36598976027E+02  0.36598976116E+02  0.25500000000E-02 0.  1.
          1   -1    0    0  501    0  0.00000000000E+00 -0.00000000000E+00 -0.43301462351E+02  0.43301462645E+02  0.50400000000E-02 0. -1.
        -24    2    1    2    0    0  0.00000000000E+00  0.00000000000E+00 -0.67024863240E+01  0.79900438761E+02  0.79618821840E+02 0.  0.
         66    2    3    3    0    0  0.32790668228E+02  0.16296765673E+02  0.12257109437E+02  0.38665866741E+02  0.20000062107E+01 0.  0.
         13    1    3    3    0    0 -0.32790668228E+02 -0.16296765673E+02 -0.18959595761E+02  0.41234572020E+02  0.10566000000E+00 0. -1.
         13    1    4    4    0    0  0.51140527283E+00  0.10104947692E+00  0.70368007462E-01  0.53652776437E+00  0.10566000000E+00 0. -1.
        -13    1    4    4    0    0  0.43021663947E+01  0.19579541594E+01  0.18976377505E+01  0.50945474034E+01  0.10566000000E+00 0.  1.
        -14    1    4    4    0    0  0.27977096560E+02  0.14237762037E+02  0.10289103679E+02  0.33034791573E+02  0.00000000000E+00 0.  1.
<mgrwt>
<rscale>  0 0.79618822E+02</rscale>
<asrwt>0</asrwt>
<pdfrwt beam="1">  1        1 0.66617635E-02 0.79618822E+02</pdfrwt>
<pdfrwt beam="2">  1       -2 0.56306117E-02 0.79618822E+02</pdfrwt>
<totfact> 0.13034054E+05</totfact>
</mgrwt>
</event>
<event>
 8    1  0.1241100E-024  0.7847534E+02  0.7818608E-02  0.1333435E+00
         -2   -1    0    0    0  501 -0.00000000000E+00  0.00000000000E+00  0.19913182068E+02  0.19913182231E+02  0.25500000000E-02 0.  1.
          1   -1    0    0  501    0  0.00000000000E+00 -0.00000000000E+00 -0.77315358255E+02  0.77315358420E+02  0.50400000000E-02 0. -1.
        -24    2    1    2    0    0  0.00000000000E+00  0.00000000000E+00 -0.57402176187E+02  0.97228540651E+02  0.78475341898E+02 0.  0.
         66    2    3    3    0    0  0.17014575490E+02  0.26656879880E+02  0.47739075503E-02  0.31687300906E+02  0.19999979631E+01 0.  0.
         13    1    3    3    0    0 -0.17014575490E+02 -0.26656879880E+02 -0.57406950095E+02  0.65541239745E+02  0.10566000000E+00 0. -1.
         13    1    4    4    0    0  0.25722194738E+01  0.52174842558E+01 -0.38619512464E-01  0.58181707162E+01  0.10566000000E+00 0. -1.
        -13    1    4    4    0    0  0.72406789170E+01  0.98743618259E+01  0.21226814927E-01  0.12245083391E+02  0.10566000000E+00 0.  1.
         14    1    4    4    0    0  0.72016770995E+01  0.11565033798E+02  0.22166605088E-01  0.13624046798E+02  0.00000000000E+00 0. -1.
<mgrwt>
<rscale>  0 0.78475342E+02</rscale>
<asrwt>0</asrwt>
<pdfrwt beam="1">  1        1 0.11894670E-01 0.78475342E+02</pdfrwt>
<pdfrwt beam="2">  1       -2 0.30635665E-02 0.78475342E+02</pdfrwt>
<totfact> 0.14850107E+05</totfact>
</mgrwt>
</event>
<event>
 8    1  0.1241100E-024  0.7963989E+02  0.7818608E-02  0.1330076E+00
          1   -1    0    0  501    0  0.00000000000E+00  0.00000000000E+00  0.77115994683E+02  0.77115994848E+02  0.50400000000E-02 0. -1.
         -2   -1    0    0    0  501 -0.00000000000E+00 -0.00000000000E+00 -0.20561595151E+02  0.20561595309E+02  0.25500000000E-02 0.  1.
        -24    2    1    2    0    0  0.35527136788E-14 -0.35527136788E-14  0.56554399532E+02  0.97677590157E+02  0.79639886442E+02 0.  0.
         66    2    3    3    0    0  0.26775900043E+02 -0.28927221862E+02  0.35000415892E+02  0.52751891915E+02  0.20000000521E+01 0.  0.
         13    1    3    3    0    0 -0.26775900043E+02  0.28927221862E+02  0.21553983640E+02  0.44925698242E+02  0.10566000000E+00 0. -1.
         13    1    4    4    0    0  0.58051636488E+01 -0.66290186470E+01  0.68373165580E+01  0.11153648504E+02  0.10566000000E+00 0. -1.
        -13    1    4    4    0    0  0.12105183237E+02 -0.13229233275E+02  0.16545256500E+02  0.24398867821E+02  0.10566000000E+00 0.  1.
         14    1    4    4    0    0  0.88655531577E+01 -0.90689699393E+01  0.11617842834E+02  0.17199375589E+02  0.00000000000E+00 0. -1.
<mgrwt>
<rscale>  0 0.79639886E+02</rscale>
<asrwt>0</asrwt>
<pdfrwt beam="1">  1        1 0.11863999E-01 0.79639886E+02</pdfrwt>
<pdfrwt beam="2">  1       -2 0.31633224E-02 0.79639886E+02</pdfrwt>
<totfact> 0.14260415E+05</totfact>
</mgrwt>
</event>
<event>
 8    1  0.1417576E-024  0.7548288E+02  0.7818608E-02  0.1342382E+00
          1   -1    0    0  501    0  0.00000000000E+00  0.00000000000E+00  0.57522156230E+02  0.57522156451E+02  0.50400000000E-02 0. -1.
         -2   -1    0    0    0  501 -0.00000000000E+00 -0.00000000000E+00 -0.24762914465E+02  0.24762914596E+02  0.25500000000E-02 0.  1.
        -24    2    1    2    0    0  0.00000000000E+00 -0.88817841970E-15  0.32759241765E+02  0.82285071046E+02  0.75482878827E+02 0.  0.
         66    2    3    3    0    0 -0.95013421985E+01 -0.60231361247E+01 -0.22850922351E+02  0.25548352870E+02  0.20000024243E+01 0.  0.
         13    1    3    3    0    0  0.95013421985E+01  0.60231361247E+01  0.55610164117E+02  0.56736718177E+02  0.10566000000E+00 0. -1.
         13    1    4    4    0    0 -0.16876356998E+01 -0.44696441422E+00 -0.37239198514E+01  0.41141991369E+01  0.10566000000E+00 0. -1.
        -13    1    4    4    0    0 -0.49907032867E+01 -0.29780315608E+01 -0.12257278961E+02  0.13565686228E+02  0.10566000000E+00 0.  1.
         14    1    4    4    0    0 -0.28230032119E+01 -0.25981401496E+01 -0.68697235385E+01  0.78684675044E+01  0.00000000000E+00 0. -1.
<mgrwt>
<rscale>  0 0.75482879E+02</rscale>
<asrwt>0</asrwt>
<pdfrwt beam="1">  1        1 0.88495625E-02 0.75482879E+02</pdfrwt>
<pdfrwt beam="2">  1       -2 0.38096792E-02 0.75482879E+02</pdfrwt>
<totfact> 0.15779507E+05</totfact>
</mgrwt>
</event>
<event>
 8    1  0.1241100E-024  0.8134880E+02  0.7818608E-02  0.1325267E+00
          1   -1    0    0  501    0  0.00000000000E+00  0.00000000000E+00  0.17862259474E+02  0.17862260185E+02  0.50400000000E-02 0. -1.
         -2   -1    0    0    0  501 -0.00000000000E+00 -0.00000000000E+00 -0.92620246672E+02  0.92620246707E+02  0.25500000000E-02 0.  1.
        -24    2    1    2    0    0 -0.88817841970E-15  0.00000000000E+00 -0.74757987197E+02  0.11048250689E+03  0.81348802569E+02 0.  0.
         66    2    3    3    0    0 -0.70550119901E+01 -0.26646976206E+02 -0.77976929409E+02  0.82729898220E+02  0.20000011027E+01 0.  0.
         13    1    3    3    0    0  0.70550119901E+01  0.26646976206E+02  0.32189422117E+01  0.27752608672E+02  0.10566000000E+00 0. -1.
         13    1    4    4    0    0 -0.80204813951E+00 -0.34126871469E+01 -0.11725330757E+02  0.12238638004E+02  0.10566000000E+00 0.  1.
        -13    1    4    4    0    0 -0.17047156578E+01 -0.49505393403E+01 -0.14414247883E+02  0.15336088201E+02  0.10566000000E+00 0. -1.
        -14    1    4    4    0    0 -0.45482481928E+01 -0.18283749719E+02 -0.51837350769E+02  0.55155172016E+02  0.00000000000E+00 0.  1.
<mgrwt>
<rscale>  0 0.81348803E+02</rscale>
<asrwt>0</asrwt>
<pdfrwt beam="1">  1        1 0.27480400E-02 0.81348803E+02</pdfrwt>
<pdfrwt beam="2">  1       -2 0.14249269E-01 0.81348803E+02</pdfrwt>
<totfact> 0.10359414E+05</totfact>
</mgrwt>
</event>
<event>
 8    1  0.1241100E-024  0.7968775E+02  0.7818608E-02  0.1329940E+00
          1   -1    0    0  501    0  0.00000000000E+00  0.00000000000E+00  0.26514785767E+02  0.26514786246E+02  0.50400000000E-02 0. -1.
         -2   -1    0    0    0  501 -0.00000000000E+00 -0.00000000000E+00 -0.59873557103E+02  0.59873557157E+02  0.25500000000E-02 0.  1.
        -24    2    1    2    0    0  0.00000000000E+00 -0.17763568394E-14 -0.33358771335E+02  0.86388343403E+02  0.79687754712E+02 0.  0.
         66    2    3    3    0    0  0.98838222039E+01  0.14390367376E+02 -0.55486753798E+02  0.58202684169E+02  0.19999957274E+01 0.  0.
         13    1    3    3    0    0 -0.98838222039E+01 -0.14390367376E+02  0.22127982463E+02  0.28185659234E+02  0.10566000000E+00 0. -1.
         13    1    4    4    0    0  0.32570582032E+01  0.58536546511E+01 -0.20332417406E+02  0.21407757064E+02  0.10566000000E+00 0. -1.
        -13    1    4    4    0    0  0.32969620063E+01  0.48654942909E+01 -0.20424955161E+02  0.21254010222E+02  0.10566000000E+00 0.  1.
        -14    1    4    4    0    0  0.33298019944E+01  0.36712184337E+01 -0.14729381231E+02  0.15540916883E+02  0.00000000000E+00 0.  1.
<mgrwt>
<rscale>  0 0.79687755E+02</rscale>
<asrwt>0</asrwt>
<pdfrwt beam="1">  1        1 0.40791979E-02 0.79687755E+02</pdfrwt>
<pdfrwt beam="2">  1       -2 0.92113165E-02 0.79687755E+02</pdfrwt>
<totfact> 0.11961315E+05</totfact>
</mgrwt>
</event>
<event>
 8    1  0.1241100E-024  0.8128555E+02  0.7818608E-02  0.1325442E+00
         -2   -1    0    0    0  501 -0.00000000000E+00  0.00000000000E+00  0.10634634822E+02  0.10634635128E+02  0.25500000000E-02 0.  1.
          1   -1    0    0  501    0  0.00000000000E+00 -0.00000000000E+00 -0.15532600262E+03  0.15532600271E+03  0.50400000000E-02 0. -1.
        -24    2    1    2    0    0  0.00000000000E+00  0.00000000000E+00 -0.14469136780E+03  0.16596063783E+03  0.81285554643E+02 0.  0.
         66    2    3    3    0    0  0.28099307154E+02  0.42850058236E+01 -0.13148483372E+02  0.31381761535E+02  0.20000011584E+01 0.  0.
         13    1    3    3    0    0 -0.28099307154E+02 -0.42850058236E+01 -0.13154288443E+03  0.13457887630E+03  0.10566000000E+00 0. -1.
         13    1    4    4    0    0  0.14337024434E+02  0.22539190940E+01 -0.76247114177E+01  0.16394444460E+02  0.10566000000E+00 0. -1.
        -13    1    4    4    0    0  0.67788908614E+01  0.12373936646E+01 -0.24214288030E+01  0.73047235318E+01  0.10566000000E+00 0.  1.
         14    1    4    4    0    0  0.69833918582E+01  0.79369306508E+00 -0.31023431516E+01  0.76825935436E+01  0.00000000000E+00 0. -1.
<mgrwt>
<rscale>  0 0.81285555E+02</rscale>
<asrwt>0</asrwt>
<pdfrwt beam="1">  1        1 0.23896307E-01 0.81285555E+02</pdfrwt>
<pdfrwt beam="2">  1       -2 0.16360978E-02 0.81285555E+02</pdfrwt>
<totfact> 0.15228016E+05</totfact>
</mgrwt>
</event>
<event>
 8    1  0.1241100E-024  0.8018481E+02  0.7818608E-02  0.1328528E+00
         -2   -1    0    0    0  501 -0.00000000000E+00  0.00000000000E+00  0.93308077745E+02  0.93308077780E+02  0.25500000000E-02 0.  1.
          1   -1    0    0  501    0  0.00000000000E+00 -0.00000000000E+00 -0.17226816100E+02  0.17226816837E+02  0.50400000000E-02 0. -1.
        -24    2    1    2    0    0  0.00000000000E+00  0.00000000000E+00  0.76081261645E+02  0.11053489462E+03  0.80184814987E+02 0.  0.
         66    2    3    3    0    0 -0.25953638764E+02  0.84082132650E+01  0.78515836792E+02  0.83144609193E+02  0.19999988102E+01 0.  0.
         13    1    3    3    0    0  0.25953638764E+02 -0.84082132650E+01 -0.24345751476E+01  0.27390285424E+02  0.10566000000E+00 0. -1.
         13    1    4    4    0    0 -0.21520297730E+02  0.68656382296E+01  0.67105840913E+02  0.70805827806E+02  0.10566000000E+00 0. -1.
        -13    1    4    4    0    0 -0.25469889566E+01  0.90375468188E+00  0.66417340285E+01  0.71713123075E+01  0.10566000000E+00 0.  1.
         14    1    4    4    0    0 -0.18863520776E+01  0.63882035346E+00  0.47682618512E+01  0.51674690794E+01  0.00000000000E+00 0. -1.
<mgrwt>
<rscale>  0 0.80184815E+02</rscale>
<asrwt>0</asrwt>
<pdfrwt beam="1">  1        1 0.26502794E-02 0.80184815E+02</pdfrwt>
<pdfrwt beam="2">  1       -2 0.14355089E-01 0.80184815E+02</pdfrwt>
<totfact> 0.10729397E+05</totfact>
</mgrwt>
</event>
<event>
 8    1  0.1241100E-024  0.7655904E+02  0.7818608E-02  0.1339110E+00
         -2   -1    0    0    0  501 -0.00000000000E+00  0.00000000000E+00  0.96213794995E+01  0.96213798374E+01  0.25500000000E-02 0.  1.
          1   -1    0    0  501    0  0.00000000000E+00 -0.00000000000E+00 -0.15229847538E+03  0.15229847547E+03  0.50400000000E-02 0. -1.
        -24    2    1    2    0    0  0.00000000000E+00  0.00000000000E+00 -0.14267709588E+03  0.16191985530E+03  0.76559035076E+02 0.  0.
         66    2    3    3    0    0  0.19543377468E+02 -0.16066159712E+02 -0.10703695295E+02  0.27543314502E+02  0.19999975122E+01 0.  0.
         13    1    3    3    0    0 -0.19543377468E+02  0.16066159712E+02 -0.13197340059E+03  0.13437654080E+03  0.10566000000E+00 0. -1.
         13    1    4    4    0    0  0.10503149996E+02 -0.98579774636E+01 -0.60039236697E+01  0.15606221291E+02  0.10566000000E+00 0. -1.
        -13    1    4    4    0    0  0.41868342470E+01 -0.30808114532E+01 -0.22169954797E+01  0.56521865870E+01  0.10566000000E+00 0.  1.
        -14    1    4    4    0    0  0.48533932250E+01 -0.31273707952E+01 -0.24827761453E+01  0.62849066243E+01  0.00000000000E+00 0.  1.
<mgrwt>
<rscale>  0 0.76559035E+02</rscale>
<asrwt>0</asrwt>
<pdfrwt beam="1">  1        1 0.23430533E-01 0.76559035E+02</pdfrwt>
<pdfrwt beam="2">  1       -2 0.14802124E-02 0.76559035E+02</pdfrwt>
<totfact> 0.17800378E+05</totfact>
</mgrwt>
</event>
<event>
 8    1  0.1530063E-024  0.8136647E+02  0.7818608E-02  0.1325218E+00
          1   -1    0    0  501    0  0.00000000000E+00  0.00000000000E+00  0.39806596110E+02  0.39806596429E+02  0.50400000000E-02 0. -1.
         -2   -1    0    0    0  501 -0.00000000000E+00 -0.00000000000E+00 -0.41579181177E+02  0.41579181255E+02  0.25500000000E-02 0.  1.
        -24    2    1    2    0    0  0.00000000000E+00  0.00000000000E+00 -0.17725850671E+01  0.81385777684E+02  0.81366471912E+02 0.  0.
         66    2    3    3    0    0 -0.90364120783E+01 -0.27619747926E+02 -0.29329703542E+02  0.41336893038E+02  0.19999993545E+01 0.  0.
         13    1    3    3    0    0  0.90364120783E+01  0.27619747926E+02  0.27557118475E+02  0.40048884646E+02  0.10566000000E+00 0. -1.
         13    1    4    4    0    0 -0.34916719460E+01 -0.10762962225E+02 -0.10615835359E+02  0.15515806561E+02  0.10566000000E+00 0.  1.
        -13    1    4    4    0    0 -0.49242391418E+01 -0.13557551487E+02 -0.14845871759E+02  0.20699430083E+02  0.10566000000E+00 0. -1.
         14    1    4    4    0    0 -0.62050099048E+00 -0.32992342133E+01 -0.38679964240E+01  0.51216563932E+01  0.00000000000E+00 0. -1.
<mgrwt>
<rscale>  0 0.81366472E+02</rscale>
<asrwt>0</asrwt>
<pdfrwt beam="1">  1        1 0.61240917E-02 0.81366472E+02</pdfrwt>
<pdfrwt beam="2">  1       -2 0.63967971E-02 0.81366472E+02</pdfrwt>
<totfact> 0.12095182E+05</totfact>
</mgrwt>
</event>
<event>
 8    1  0.1241100E-024  0.7954290E+02  0.7818608E-02  0.1330354E+00
         -2   -1    0    0    0  501 -0.00000000000E+00  0.00000000000E+00  0.64529785233E+01  0.64529790272E+01  0.25500000000E-02 0.  1.
          1   -1    0    0  501    0  0.00000000000E+00 -0.00000000000E+00 -0.24512216537E+03  0.24512216542E+03  0.50400000000E-02 0. -1.
        -24    2    1    2    0    0  0.00000000000E+00  0.71054273576E-14 -0.23866918685E+03  0.25157514445E+03  0.79542897574E+02 0.  0.
         66    2    3    3    0    0  0.19609348710E+01  0.38237265570E+02 -0.15315359867E+03  0.15787956969E+03  0.19999992068E+01 0.  0.
         13    1    3    3    0    0 -0.19609348710E+01 -0.38237265570E+02 -0.85515588181E+02  0.93695574761E+02  0.10566000000E+00 0. -1.
         13    1    4    4    0    0  0.10918763088E+01  0.22968767042E+02 -0.89764183653E+02  0.92662701689E+02  0.10566000000E+00 0. -1.
        -13    1    4    4    0    0 -0.82462331638E-01  0.71898489822E+01 -0.28927613989E+02  0.29808031527E+02  0.10566000000E+00 0.  1.
         14    1    4    4    0    0  0.95152089383E+00  0.80786495450E+01 -0.34461801024E+02  0.35408836472E+02  0.00000000000E+00 0. -1.
<mgrwt>
<rscale>  0 0.79542898E+02</rscale>
<asrwt>0</asrwt>
<pdfrwt beam="1">  1        1 0.37711095E-01 0.79542898E+02</pdfrwt>
<pdfrwt beam="2">  1       -2 0.99276616E-03 0.79542898E+02</pdfrwt>
<totfact> 0.17613418E+05</totfact>
</mgrwt>
</event>
<event>
 8    1  0.1241100E-024  0.7872452E+02  0.7818608E-02  0.1332711E+00
          1   -1    0    0  501    0  0.00000000000E+00  0.00000000000E+00  0.22909618794E+02  0.22909619349E+02  0.50400000000E-02 0. -1.
         -2   -1    0    0    0  501 -0.00000000000E+00 -0.00000000000E+00 -0.67630439068E+02  0.67630439116E+02  0.25500000000E-02 0.  1.
        -24    2    1    2    0    0 -0.35527136788E-14 -0.22204460493E-15 -0.44720820274E+02  0.90540058465E+02  0.78724522360E+02 0.  0.
         66    2    3    3    0    0 -0.14875214517E+02 -0.19700958787E+01 -0.64194812165E+02  0.65955494020E+02  0.19999994414E+01 0.  0.
         13    1    3    3    0    0  0.14875214517E+02  0.19700958787E+01  0.19473991892E+02  0.24584564445E+02  0.10566000000E+00 0. -1.
         13    1    4    4    0    0 -0.25317745038E+01  0.28606984077E+00 -0.11838692593E+02  0.12110223963E+02  0.10566000000E+00 0. -1.
        -13    1    4    4    0    0 -0.37030384640E+01 -0.36827517799E+00 -0.16439697287E+02  0.16855946469E+02  0.10566000000E+00 0.  1.
         14    1    4    4    0    0 -0.86404015495E+01 -0.18878905414E+01 -0.35916422286E+02  0.36989323588E+02  0.00000000000E+00 0. -1.
<mgrwt>
<rscale>  0 0.78724522E+02</rscale>
<asrwt>0</asrwt>
<pdfrwt beam="1">  1        1 0.35245568E-02 0.78724522E+02</pdfrwt>
<pdfrwt beam="2">  1       -2 0.10404683E-01 0.78724522E+02</pdfrwt>
<totfact> 0.12051790E+05</totfact>
</mgrwt>
</event>
<event>
 8    1  0.1241100E-024  0.7906857E+02  0.7818608E-02  0.1331716E+00
         -2   -1    0    0    0  501 -0.00000000000E+00  0.00000000000E+00  0.10519442625E+02  0.10519442935E+02  0.25500000000E-02 0.  1.
          1   -1    0    0  501    0  0.00000000000E+00 -0.00000000000E+00 -0.14857818513E+03  0.14857818521E+03  0.50400000000E-02 0. -1.
        -24    2    1    2    0    0  0.00000000000E+00  0.00000000000E+00 -0.13805874250E+03  0.15909762815E+03  0.79068570880E+02 0.  0.
         66    2    3    3    0    0  0.33797031888E+02 -0.18301525636E+02 -0.50657089253E+02  0.63618597153E+02  0.20000017689E+01 0.  0.
         13    1    3    3    0    0 -0.33797031888E+02  0.18301525636E+02 -0.87401653251E+02  0.95479030997E+02  0.10566000000E+00 0. -1.
         13    1    4    4    0    0  0.11549719159E+02 -0.56680326887E+01 -0.15706369445E+02  0.20303295604E+02  0.10566000000E+00 0. -1.
        -13    1    4    4    0    0  0.11780205882E+02 -0.66363581184E+01 -0.18225015041E+02  0.22693101088E+02  0.10566000000E+00 0.  1.
         14    1    4    4    0    0  0.10467106847E+02 -0.59971348287E+01 -0.16725704766E+02  0.20622200460E+02  0.00000000000E+00 0. -1.
<mgrwt>
<rscale>  0 0.79068571E+02</rscale>
<asrwt>0</asrwt>
<pdfrwt beam="1">  1        1 0.22858181E-01 0.79068571E+02</pdfrwt>
<pdfrwt beam="2">  1       -2 0.16183759E-02 0.79068571E+02</pdfrwt>
<totfact> 0.16261515E+05</totfact>
</mgrwt>
</event>
<event>
 8    1  0.1241100E-024  0.7880685E+02  0.7818608E-02  0.1332472E+00
          1   -1    0    0  501    0  0.00000000000E+00  0.00000000000E+00  0.70129939972E+02  0.70129940153E+02  0.50400000000E-02 0. -1.
         -2   -1    0    0    0  501 -0.00000000000E+00 -0.00000000000E+00 -0.22139331392E+02  0.22139331539E+02  0.25500000000E-02 0.  1.
        -24    2    1    2    0    0  0.00000000000E+00  0.00000000000E+00  0.47990608580E+02  0.92269271692E+02  0.78806852409E+02 0.  0.
         66    2    3    3    0    0  0.21883787020E+02  0.31005222988E+02  0.11708601866E+02  0.39765755980E+02  0.20000010391E+01 0.  0.
         13    1    3    3    0    0 -0.21883787020E+02 -0.31005222988E+02  0.36282006714E+02  0.52503515711E+02  0.10566000000E+00 0. -1.
         13    1    4    4    0    0  0.18713563633E+01  0.22116631177E+01  0.10671346518E+01  0.30892343364E+01  0.10566000000E+00 0.  1.
        -13    1    4    4    0    0  0.17832216785E+02  0.26370652849E+02  0.98365467682E+01  0.33319185216E+02  0.10566000000E+00 0.  1.
        -14    1    4    4    0    0  0.21802138720E+01  0.24229070212E+01  0.80492044588E+00  0.33573364272E+01  0.00000000000E+00 0.  1.
<mgrwt>
<rscale>  0 0.78806852E+02</rscale>
<asrwt>0</asrwt>
<pdfrwt beam="1">  1        1 0.10789221E-01 0.78806852E+02</pdfrwt>
<pdfrwt beam="2">  1       -2 0.34060511E-02 0.78806852E+02</pdfrwt>
<totfact> 0.14456764E+05</totfact>
</mgrwt>
</event>
<event>
 8    1  0.1241100E-024  0.8136218E+02  0.7818608E-02  0.1325230E+00
         -2   -1    0    0    0  501 -0.00000000000E+00  0.00000000000E+00  0.93544809613E+02  0.93544809647E+02  0.25500000000E-02 0.  1.
          1   -1    0    0  501    0  0.00000000000E+00 -0.00000000000E+00 -0.17691531546E+02  0.17691532264E+02  0.50400000000E-02 0. -1.
        -24    2    1    2    0    0 -0.35527136788E-14  0.00000000000E+00  0.75853278067E+02  0.11123634191E+03  0.81362177751E+02 0.  0.
         66    2    3    3    0    0  0.26641975604E+02 -0.17260049501E+02  0.72677941598E+02  0.79333393794E+02  0.20000007712E+01 0.  0.
         13    1    3    3    0    0 -0.26641975604E+02  0.17260049501E+02  0.31753364689E+01  0.31902948118E+02  0.10566000000E+00 0. -1.
         13    1    4    4    0    0  0.13015657989E+02 -0.80592201252E+01  0.34835365894E+02  0.38050916716E+02  0.10566000000E+00 0. -1.
        -13    1    4    4    0    0  0.12536111090E+02 -0.85733368771E+01  0.33966471852E+02  0.37207372395E+02  0.10566000000E+00 0.  1.
         14    1    4    4    0    0  0.10902065254E+01 -0.62749249895E+00  0.38761038518E+01  0.40751046826E+01  0.00000000000E+00 0. -1.
<mgrwt>
<rscale>  0 0.81362178E+02</rscale>
<asrwt>0</asrwt>
<pdfrwt beam="1">  1        1 0.27217742E-02 0.81362178E+02</pdfrwt>
<pdfrwt beam="2">  1       -2 0.14391509E-01 0.81362178E+02</pdfrwt>
<totfact> 0.10330590E+05</totfact>
</mgrwt>
</event>
<event>
 8    1  0.1241100E-024  0.7746695E+02  0.7818608E-02  0.1336398E+00
         -2   -1    0    0    0  501 -0.00000000000E+00  0.00000000000E+00  0.15359326775E+03  0.15359326777E+03  0.25500000000E-02 0.  1.
          1   -1    0    0  501    0  0.00000000000E+00 -0.00000000000E+00 -0.97678882077E+01  0.97678895080E+01  0.50400000000E-02 0. -1.
        -24    2    1    2    0    0  0.17763568394E-14 -0.35527136788E-14  0.14382537954E+03  0.16336115728E+03  0.77466947191E+02 0.  0.
         66    2    3    3    0    0 -0.90836042298E+01  0.29809575516E+02  0.12037786790E+03  0.12436218775E+03  0.20000009384E+01 0.  0.
         13    1    3    3    0    0  0.90836042298E+01 -0.29809575516E+02  0.23447511649E+02  0.38998969535E+02  0.10566000000E+00 0. -1.
         13    1    4    4    0    0 -0.67839558001E+01  0.22694642302E+02  0.93878553324E+02  0.96820776612E+02  0.10566000000E+00 0. -1.
        -13    1    4    4    0    0 -0.54215380188E+00  0.10788495854E+01  0.46886275514E+01  0.48427512350E+01  0.10566000000E+00 0.  1.
        -14    1    4    4    0    0 -0.17574946278E+01  0.60360836282E+01  0.21810687020E+02  0.22698659899E+02  0.00000000000E+00 0.  1.
<mgrwt>
<rscale>  0 0.77466947E+02</rscale>
<asrwt>0</asrwt>
<pdfrwt beam="1">  1        1 0.15027521E-02 0.77466947E+02</pdfrwt>
<pdfrwt beam="2">  1       -2 0.23629734E-01 0.77466947E+02</pdfrwt>
<totfact> 0.10186176E+05</totfact>
</mgrwt>
</event>
<event>
 8    1  0.1241100E-024  0.8710900E+02  0.7818608E-02  0.1310008E+00
          1   -1    0    0  501    0  0.00000000000E+00  0.00000000000E+00  0.19125649641E+02  0.19125650305E+02  0.50400000000E-02 0. -1.
         -2   -1    0    0    0  501 -0.00000000000E+00 -0.00000000000E+00 -0.99185879830E+02  0.99185879863E+02  0.25500000000E-02 0.  1.
        -24    2    1    2    0    0  0.17763568394E-14 -0.35527136788E-14 -0.80060230189E+02  0.11831153017E+03  0.87108999034E+02 0.  0.
         66    2    3    3    0    0 -0.14456745433E+02  0.26182920088E+02 -0.83010834258E+02  0.88257245594E+02  0.20000006889E+01 0.  0.
         13    1    3    3    0    0  0.14456745433E+02 -0.26182920088E+02  0.29506040690E+01  0.30054284574E+02  0.10566000000E+00 0. -1.
         13    1    4    4    0    0 -0.69096157679E+00  0.15414478020E+01 -0.36352073098E+01  0.40099109027E+01  0.10566000000E+00 0. -1.
        -13    1    4    4    0    0 -0.82601156857E+01  0.15309981145E+02 -0.49434403078E+02  0.52406072220E+02  0.10566000000E+00 0.  1.
         14    1    4    4    0    0 -0.55056681706E+01  0.93314911414E+01 -0.29941223870E+02  0.31841262471E+02  0.00000000000E+00 0. -1.
<mgrwt>
<rscale>  0 0.87108999E+02</rscale>
<asrwt>0</asrwt>
<pdfrwt beam="1">  1        1 0.29424077E-02 0.87108999E+02</pdfrwt>
<pdfrwt beam="2">  1       -2 0.15259366E-01 0.87108999E+02</pdfrwt>
<totfact> 0.85496129E+04</totfact>
</mgrwt>
</event>
<event>
 8    1  0.1241100E-024  0.7884479E+02  0.7818608E-02  0.1332362E+00
          1   -1    0    0  501    0  0.00000000000E+00  0.00000000000E+00  0.81585327512E+01  0.81585343080E+01  0.50400000000E-02 0. -1.
         -2   -1    0    0    0  501 -0.00000000000E+00 -0.00000000000E+00 -0.19049076039E+03  0.19049076041E+03  0.25500000000E-02 0.  1.
        -24    2    1    2    0    0  0.17763568394E-14  0.00000000000E+00 -0.18233222764E+03  0.19864929472E+03  0.78844790920E+02 0.  0.
         66    2    3    3    0    0 -0.11352432364E+02 -0.37112513197E+02 -0.10829483116E+03  0.11505645054E+03  0.19999995034E+01 0.  0.
         13    1    3    3    0    0  0.11352432364E+02  0.37112513197E+02 -0.74037396483E+02  0.83592844182E+02  0.10566000000E+00 0. -1.
         13    1    4    4    0    0 -0.11880797147E+01 -0.44704735019E+01 -0.12663870664E+02  0.13482635164E+02  0.10566000000E+00 0. -1.
        -13    1    4    4    0    0 -0.92193218467E+01 -0.30868411180E+02 -0.89469607820E+02  0.95092989182E+02  0.10566000000E+00 0.  1.
         14    1    4    4    0    0 -0.94503080226E+00 -0.17736285154E+01 -0.61613526755E+01  0.64808261911E+01  0.00000000000E+00 0. -1.
<mgrwt>
<rscale>  0 0.78844791E+02</rscale>
<asrwt>0</asrwt>
<pdfrwt beam="1">  1        1 0.12551592E-02 0.78844791E+02</pdfrwt>
<pdfrwt beam="2">  1       -2 0.29306267E-01 0.78844791E+02</pdfrwt>
<totfact> 0.90057889E+04</totfact>
</mgrwt>
</event>
<event>
 8    1  0.1241100E-024  0.8074322E+02  0.7818608E-02  0.1326955E+00
         -2   -1    0    0    0  501 -0.00000000000E+00  0.00000000000E+00  0.50651804089E+01  0.50651810508E+01  0.25500000000E-02 0.  1.
          1   -1    0    0  501    0  0.00000000000E+00 -0.00000000000E+00 -0.32177863243E+03  0.32177863247E+03  0.50400000000E-02 0. -1.
        -24    2    1    2    0    0  0.00000000000E+00  0.17763568394E-14 -0.31671345202E+03  0.32684381352E+03  0.80743221049E+02 0.  0.
         66    2    3    3    0    0 -0.35435042814E+02  0.14619934606E+02 -0.10749499861E+03  0.11414271536E+03  0.19999990707E+01 0.  0.
         13    1    3    3    0    0  0.35435042814E+02 -0.14619934606E+02 -0.20921845341E+03  0.21270109816E+03  0.10566000000E+00 0. -1.
         13    1    4    4    0    0 -0.29356066588E+01  0.15489589826E+01 -0.96869037542E+01  0.10240328548E+02  0.10566000000E+00 0. -1.
        -13    1    4    4    0    0 -0.24346650768E+02  0.98280776349E+01 -0.75170205969E+02  0.79623624277E+02  0.10566000000E+00 0.  1.
        -14    1    4    4    0    0 -0.81527853870E+01  0.32428979887E+01 -0.22637888884E+02  0.24278762531E+02  0.00000000000E+00 0.  1.
<mgrwt>
<rscale>  0 0.80743221E+02</rscale>
<asrwt>0</asrwt>
<pdfrwt beam="1">  1        1 0.49504389E-01 0.80743221E+02</pdfrwt>
<pdfrwt beam="2">  1       -2 0.77925883E-03 0.80743221E+02</pdfrwt>
<totfact> 0.17841044E+05</totfact>
</mgrwt>
</event>
<event>
 8    1  0.1241100E-024  0.8207611E+02  0.7818608E-02  0.1323261E+00
         -2   -1    0    0    0  501 -0.00000000000E+00  0.00000000000E+00  0.13198672049E+03  0.13198672051E+03  0.25500000000E-02 0.  1.
          1   -1    0    0  501    0  0.00000000000E+00 -0.00000000000E+00 -0.12759781305E+02  0.12759782301E+02  0.50400000000E-02 0. -1.
        -24    2    1    2    0    0  0.35527136788E-14 -0.88817841970E-15  0.11922693918E+03  0.14474650282E+03  0.82076105231E+02 0.  0.
         66    2    3    3    0    0  0.29534229880E+02  0.40037624579E+01  0.10933673694E+03  0.11334382597E+03  0.19999982335E+01 0.  0.
         13    1    3    3    0    0 -0.29534229880E+02 -0.40037624579E+01  0.98902022445E+01  0.31402676843E+02  0.10566000000E+00 0. -1.
         13    1    4    4    0    0  0.95216684245E+00  0.32524295028E+00  0.45679409438E+01  0.46786379614E+01  0.10566000000E+00 0. -1.
        -13    1    4    4    0    0  0.16488771228E+02  0.23509505208E+01  0.62326898498E+02  0.64514029369E+02  0.10566000000E+00 0.  1.
         14    1    4    4    0    0  0.12093291810E+02  0.13275689868E+01  0.42441897498E+02  0.44151158642E+02  0.00000000000E+00 0. -1.
<mgrwt>
<rscale>  0 0.82076105E+02</rscale>
<asrwt>0</asrwt>
<pdfrwt beam="1">  1        1 0.19630434E-02 0.82076105E+02</pdfrwt>
<pdfrwt beam="2">  1       -2 0.20305649E-01 0.82076105E+02</pdfrwt>
<totfact> 0.92113833E+04</totfact>
</mgrwt>
</event>
<event>
 8    1  0.1241100E-024  0.7767704E+02  0.7818608E-02  0.1335776E+00
         -2   -1    0    0    0  501 -0.00000000000E+00  0.00000000000E+00  0.16897869464E+01  0.16897888705E+01  0.25500000000E-02 0.  1.
          1   -1    0    0  501    0  0.00000000000E+00 -0.00000000000E+00 -0.89267463213E+03  0.89267463215E+03  0.50400000000E-02 0. -1.
        -24    2    1    2    0    0  0.00000000000E+00  0.00000000000E+00 -0.89098484519E+03  0.89436442102E+03  0.77677044422E+02 0.  0.
         66    2    3    3    0    0 -0.22693772662E+02  0.19142123319E+02 -0.73363348090E+03  0.73423668697E+03  0.19999999084E+01 0.  0.
         13    1    3    3    0    0  0.22693772662E+02 -0.19142123319E+02 -0.15735136429E+03  0.16012773405E+03  0.10566000000E+00 0. -1.
         13    1    4    4    0    0 -0.93433599189E+01  0.74359340777E+01 -0.27910142169E+03  0.27935677233E+03  0.10566000000E+00 0. -1.
        -13    1    4    4    0    0 -0.70403452033E+01  0.67259926228E+01 -0.25657524222E+03  0.25675994921E+03  0.10566000000E+00 0.  1.
        -14    1    4    4    0    0 -0.63100675401E+01  0.49801966185E+01 -0.19795681699E+03  0.19811996543E+03  0.00000000000E+00 0.  1.
<mgrwt>
<rscale>  0 0.77677044E+02</rscale>
<asrwt>0</asrwt>
<pdfrwt beam="1">  1        1 0.13733418E+00 0.77677044E+02</pdfrwt>
<pdfrwt beam="2">  1       -2 0.25996808E-03 0.77677044E+02</pdfrwt>
<totfact> 0.21196389E+05</totfact>
</mgrwt>
</event>
<event>
 8    1  0.1241100E-024  0.8368056E+02  0.7818608E-02  0.1318920E+00
         -2   -1    0    0    0  501 -0.00000000000E+00  0.00000000000E+00  0.59647120063E+02  0.59647120117E+02  0.25500000000E-02 0.  1.
          1   -1    0    0  501    0  0.00000000000E+00 -0.00000000000E+00 -0.29349433063E+02  0.29349433496E+02  0.50400000000E-02 0. -1.
        -24    2    1    2    0    0  0.00000000000E+00  0.00000000000E+00  0.30297686999E+02  0.88996553613E+02  0.83680563559E+02 0.  0.
         66    2    3    3    0    0  0.36233765642E+02 -0.17007963225E+02  0.28027802930E+02  0.48905156489E+02  0.20000021190E+01 0.  0.
         13    1    3    3    0    0 -0.36233765642E+02  0.17007963225E+02  0.22698840695E+01  0.40091397124E+02  0.10566000000E+00 0. -1.
         13    1    4    4    0    0  0.11742804623E+02 -0.51007256086E+01  0.93868415783E+01  0.15875604587E+02  0.10566000000E+00 0. -1.
        -13    1    4    4    0    0  0.94976715757E+01 -0.53334126371E+01  0.76546247413E+01  0.13313733499E+02  0.10566000000E+00 0.  1.
        -14    1    4    4    0    0  0.14993289443E+02 -0.65738249796E+01  0.10986336610E+02  0.19715818403E+02  0.00000000000E+00 0.  1.
<mgrwt>
<rscale>  0 0.83680564E+02</rscale>
<asrwt>0</asrwt>
<pdfrwt beam="1">  1        1 0.45152975E-02 0.83680564E+02</pdfrwt>
<pdfrwt beam="2">  1       -2 0.91764800E-02 0.83680564E+02</pdfrwt>
<totfact> 0.10577334E+05</totfact>
</mgrwt>
</event>
<event>
 8    1  0.1241100E-024  0.7934058E+02  0.7818608E-02  0.1330933E+00
          1   -1    0    0  501    0  0.00000000000E+00  0.00000000000E+00  0.52794823677E+02  0.52794823918E+02  0.50400000000E-02 0. -1.
         -2   -1    0    0    0  501 -0.00000000000E+00 -0.00000000000E+00 -0.29808451970E+02  0.29808452079E+02  0.25500000000E-02 0.  1.
        -24    2    1    2    0    0  0.00000000000E+00  0.00000000000E+00  0.22986371707E+02  0.82603275997E+02  0.79340581805E+02 0.  0.
         66    2    3    3    0    0 -0.15909960657E+02  0.12940012624E+02 -0.23823462498E+02  0.31498065723E+02  0.20000010220E+01 0.  0.
         13    1    3    3    0    0  0.15909960657E+02 -0.12940012624E+02  0.46809834205E+02  0.51105210274E+02  0.10566000000E+00 0. -1.
         13    1    4    4    0    0 -0.95542160748E+01  0.76568112427E+01 -0.13662118163E+02  0.18345965223E+02  0.10566000000E+00 0. -1.
        -13    1    4    4    0    0 -0.18742202423E+01  0.19152158218E+01 -0.25633640487E+01  0.37098183841E+01  0.10566000000E+00 0.  1.
         14    1    4    4    0    0 -0.44815243400E+01  0.33679855593E+01 -0.75979802863E+01  0.94422821165E+01  0.00000000000E+00 0. -1.
<mgrwt>
<rscale>  0 0.79340582E+02</rscale>
<asrwt>0</asrwt>
<pdfrwt beam="1">  1        1 0.81222805E-02 0.79340582E+02</pdfrwt>
<pdfrwt beam="2">  1       -2 0.45859158E-02 0.79340582E+02</pdfrwt>
<totfact> 0.13577919E+05</totfact>
</mgrwt>
</event>
<event>
 8    1  0.1241100E-024  0.7970575E+02  0.7818608E-02  0.1329889E+00
          1   -1    0    0  501    0  0.00000000000E+00  0.00000000000E+00  0.62829135856E+02  0.62829136058E+02  0.50400000000E-02 0. -1.
         -2   -1    0    0    0  501 -0.00000000000E+00 -0.00000000000E+00 -0.25278901975E+02  0.25278902104E+02  0.25500000000E-02 0.  1.
        -24    2    1    2    0    0  0.88817841970E-15  0.00000000000E+00  0.37550233881E+02  0.88108038162E+02  0.79705748376E+02 0.  0.
         66    2    3    3    0    0  0.50784947281E+01 -0.24520410331E+02 -0.15448983077E+02  0.29490892259E+02  0.20000041557E+01 0.  0.
         13    1    3    3    0    0 -0.50784947281E+01  0.24520410331E+02  0.52999216958E+02  0.58617145903E+02  0.10566000000E+00 0. -1.
         13    1    4    4    0    0  0.23090094307E+01 -0.76330170777E+01 -0.45487174832E+01  0.91813108561E+01  0.10566000000E+00 0. -1.
        -13    1    4    4    0    0  0.19322632709E+01 -0.93023680141E+01 -0.62628871396E+01  0.11379921413E+02  0.10566000000E+00 0.  1.
         14    1    4    4    0    0  0.83722202649E+00 -0.75850252396E+01 -0.46373784542E+01  0.89296599899E+01  0.00000000000E+00 0. -1.
<mgrwt>
<rscale>  0 0.79705748E+02</rscale>
<asrwt>0</asrwt>
<pdfrwt beam="1">  1        1 0.96660208E-02 0.79705748E+02</pdfrwt>
<pdfrwt beam="2">  1       -2 0.38890619E-02 0.79705748E+02</pdfrwt>
<totfact> 0.13775434E+05</totfact>
</mgrwt>
</event>
<event>
 8    1  0.1241100E-024  0.7963836E+02  0.7818608E-02  0.1330081E+00
          1   -1    0    0  501    0  0.00000000000E+00  0.00000000000E+00  0.53568069414E+02  0.53568069651E+02  0.50400000000E-02 0. -1.
         -2   -1    0    0    0  501 -0.00000000000E+00 -0.00000000000E+00 -0.29599111610E+02  0.29599111720E+02  0.25500000000E-02 0.  1.
        -24    2    1    2    0    0  0.00000000000E+00  0.00000000000E+00  0.23968957804E+02  0.83167181370E+02  0.79638364617E+02 0.  0.
         66    2    3    3    0    0  0.33318241424E+02  0.14267535062E+01 -0.10682307175E+02  0.35074955743E+02  0.19999991602E+01 0.  0.
         13    1    3    3    0    0 -0.33318241424E+02 -0.14267535062E+01  0.34651264979E+02  0.48092225628E+02  0.10566000000E+00 0. -1.
         13    1    4    4    0    0  0.55871066290E+01  0.49672562606E+00 -0.17552610393E+01  0.58783162711E+01  0.10566000000E+00 0.  1.
        -13    1    4    4    0    0  0.55351915795E+01  0.76618198848E+00 -0.14415765941E+01  0.57718877132E+01  0.10566000000E+00 0. -1.
        -14    1    4    4    0    0  0.22195943215E+02  0.16384589166E+00 -0.74854695417E+01  0.23424751759E+02  0.00000000000E+00 0.  1.
<mgrwt>
<rscale>  0 0.79638365E+02</rscale>
<asrwt>0</asrwt>
<pdfrwt beam="1">  1        1 0.82412415E-02 0.79638365E+02</pdfrwt>
<pdfrwt beam="2">  1       -2 0.45537095E-02 0.79638365E+02</pdfrwt>
<totfact> 0.13468243E+05</totfact>
</mgrwt>
</event>
<event>
 8    1  0.1241100E-024  0.7931336E+02  0.7818608E-02  0.1331011E+00
          1   -1    0    0  501    0  0.00000000000E+00  0.00000000000E+00  0.41883294037E+01  0.41883324362E+01  0.50400000000E-02 0. -1.
         -2   -1    0    0    0  501 -0.00000000000E+00 -0.00000000000E+00 -0.37548420397E+03  0.37548420398E+03  0.25500000000E-02 0.  1.
        -24    2    1    2    0    0  0.35527136788E-14  0.11102230246E-15 -0.37129587457E+03  0.37967253641E+03  0.79313355986E+02 0.  0.
         66    2    3    3    0    0  0.10950769134E+02  0.84477398237E+00 -0.36804983616E+03  0.36821911260E+03  0.19999991341E+01 0.  0.
         13    1    3    3    0    0 -0.10950769134E+02 -0.84477398237E+00 -0.32460384022E+01  0.11453423814E+02  0.10566000000E+00 0. -1.
         13    1    4    4    0    0  0.82888487153E+01  0.77111471670E+00 -0.25856594837E+03  0.25869994289E+03  0.10566000000E+00 0. -1.
        -13    1    4    4    0    0  0.20804490630E+01 -0.21504658161E+00 -0.90364363306E+02  0.90388626680E+02  0.10566000000E+00 0.  1.
        -14    1    4    4    0    0  0.58147135607E+00  0.28870584727E+00 -0.19119524485E+02  0.19130543028E+02  0.00000000000E+00 0.  1.
<mgrwt>
<rscale>  0 0.79313356E+02</rscale>
<asrwt>0</asrwt>
<pdfrwt beam="1">  1        1 0.64435890E-03 0.79313356E+02</pdfrwt>
<pdfrwt beam="2">  1       -2 0.57766774E-01 0.79313356E+02</pdfrwt>
<totfact> 0.62955287E+04</totfact>
</mgrwt>
</event>
<event>
 8    1  0.1241100E-024  0.8324739E+02  0.7818608E-02  0.1320080E+00
          1   -1    0    0  501    0  0.00000000000E+00  0.00000000000E+00  0.90697786169E+02  0.90697786309E+02  0.50400000000E-02 0. -1.
         -2   -1    0    0    0  501 -0.00000000000E+00 -0.00000000000E+00 -0.19102252183E+02  0.19102252353E+02  0.25500000000E-02 0.  1.
        -24    2    1    2    0    0  0.35527136788E-14  0.71054273576E-14  0.71595533986E+02  0.10980003866E+03  0.83247390369E+02 0.  0.
         66    2    3    3    0    0  0.24459304110E+02  0.27435677315E+02  0.10122218736E+02  0.38176344264E+02  0.20000004950E+01 0.  0.
         13    1    3    3    0    0 -0.24459304110E+02 -0.27435677315E+02  0.61473315250E+02  0.71623694397E+02  0.10566000000E+00 0. -1.
         13    1    4    4    0    0  0.15761220478E+01  0.20490765636E+01  0.52172461726E+00  0.26393628180E+01  0.10566000000E+00 0. -1.
        -13    1    4    4    0    0  0.16120049860E+02  0.18551274886E+02  0.63100465803E+01  0.25373877497E+02  0.10566000000E+00 0.  1.
         14    1    4    4    0    0  0.67631322026E+01  0.68353258655E+01  0.32904475389E+01  0.10163103949E+02  0.00000000000E+00 0. -1.
<mgrwt>
<rscale>  0 0.83247390E+02</rscale>
<asrwt>0</asrwt>
<pdfrwt beam="1">  1        1 0.13953506E-01 0.83247390E+02</pdfrwt>
<pdfrwt beam="2">  1       -2 0.29388080E-02 0.83247390E+02</pdfrwt>
<totfact> 0.12979263E+05</totfact>
</mgrwt>
</event>
<event>
 8    1  0.1241100E-024  0.7813064E+02  0.7818608E-02  0.1334442E+00
         -2   -1    0    0    0  501 -0.00000000000E+00  0.00000000000E+00  0.14304168808E+02  0.14304169035E+02  0.25500000000E-02 0.  1.
          1   -1    0    0  501    0  0.00000000000E+00 -0.00000000000E+00 -0.10668912218E+03  0.10668912230E+03  0.50400000000E-02 0. -1.
        -24    2    1    2    0    0  0.00000000000E+00  0.00000000000E+00 -0.92384953371E+02  0.12099329133E+03  0.78130640200E+02 0.  0.
         66    2    3    3    0    0 -0.38658336527E+02  0.24886968181E+01 -0.38726127832E+02  0.54812166251E+02  0.19999993355E+01 0.  0.
         13    1    3    3    0    0  0.38658336527E+02 -0.24886968181E+01 -0.53658825538E+02  0.66181125081E+02  0.10566000000E+00 0. -1.
         13    1    4    4    0    0 -0.78325776353E+01  0.43154257326E+00 -0.68420291936E+01  0.10409612333E+02  0.10566000000E+00 0. -1.
        -13    1    4    4    0    0 -0.11523789215E+02  0.11098787632E+01 -0.11881998726E+02  0.16589834433E+02  0.10566000000E+00 0.  1.
        -14    1    4    4    0    0 -0.19301969676E+02  0.94727548167E+00 -0.20002099912E+02  0.27812719484E+02  0.00000000000E+00 0.  1.
<mgrwt>
<rscale>  0 0.78130640E+02</rscale>
<asrwt>0</asrwt>
<pdfrwt beam="1">  1        1 0.16413711E-01 0.78130640E+02</pdfrwt>
<pdfrwt beam="2">  1       -2 0.22006414E-02 0.78130640E+02</pdfrwt>
<totfact> 0.15838303E+05</totfact>
</mgrwt>
</event>
<event>
 8    1  0.1241100E-024  0.8143865E+02  0.7818608E-02  0.1325018E+00
          1   -1    0    0  501    0  0.00000000000E+00  0.00000000000E+00  0.37270189698E+02  0.37270190038E+02  0.50400000000E-02 0. -1.
         -2   -1    0    0    0  501 -0.00000000000E+00 -0.00000000000E+00 -0.44487661407E+02  0.44487661480E+02  0.25500000000E-02 0.  1.
        -24    2    1    2    0    0  0.00000000000E+00  0.00000000000E+00 -0.72174717095E+01  0.81757851519E+02  0.81438654134E+02 0.  0.
         66    2    3    3    0    0  0.21154823953E+02 -0.33007748679E+02 -0.14563321046E+02  0.41870375842E+02  0.20000009856E+01 0.  0.
         13    1    3    3    0    0 -0.21154823953E+02  0.33007748679E+02  0.73458493367E+01  0.39887475677E+02  0.10566000000E+00 0. -1.
         13    1    4    4    0    0  0.84970098897E+01 -0.14713610215E+02 -0.67275935398E+01  0.18274604824E+02  0.10566000000E+00 0. -1.
        -13    1    4    4    0    0  0.11990302889E+02 -0.17312863401E+02 -0.72539684782E+01  0.22274061713E+02  0.10566000000E+00 0.  1.
        -14    1    4    4    0    0  0.66751117432E+00 -0.98127506360E+00 -0.58175902823E+00  0.13217093043E+01  0.00000000000E+00 0.  1.
<mgrwt>
<rscale>  0 0.81438654E+02</rscale>
<asrwt>0</asrwt>
<pdfrwt beam="1">  1        1 0.57338754E-02 0.81438654E+02</pdfrwt>
<pdfrwt beam="2">  1       -2 0.68442556E-02 0.81438654E+02</pdfrwt>
<totfact> 0.11932760E+05</totfact>
</mgrwt>
</event>
<event>
 8    1  0.1241100E-024  0.8010106E+02  0.7818608E-02  0.1328765E+00
         -2   -1    0    0    0  501 -0.00000000000E+00  0.00000000000E+00  0.17554250177E+02  0.17554250362E+02  0.25500000000E-02 0.  1.
          1   -1    0    0  501    0  0.00000000000E+00 -0.00000000000E+00 -0.91376445489E+02  0.91376445628E+02  0.50400000000E-02 0. -1.
        -24    2    1    2    0    0  0.00000000000E+00 -0.17763568394E-14 -0.73822195312E+02  0.10893069599E+03  0.80101061217E+02 0.  0.
         66    2    3    3    0    0 -0.70283703638E+01 -0.14001315141E+02  0.13154538680E+02  0.20554238516E+02  0.20000043572E+01 0.  0.
         13    1    3    3    0    0  0.70283703638E+01  0.14001315141E+02 -0.86976733992E+02  0.88376457474E+02  0.10566000000E+00 0. -1.
         13    1    4    4    0    0 -0.31053197313E+01 -0.50703725088E+01  0.56487889582E+01  0.82019307935E+01  0.10566000000E+00 0. -1.
        -13    1    4    4    0    0 -0.29490213559E+01 -0.56999281773E+01  0.52630569455E+01  0.83004120760E+01  0.10566000000E+00 0.  1.
        -14    1    4    4    0    0 -0.97402927659E+00 -0.32310144545E+01  0.22426927765E+01  0.40518956461E+01  0.00000000000E+00 0.  1.
<mgrwt>
<rscale>  0 0.80101061E+02</rscale>
<asrwt>0</asrwt>
<pdfrwt beam="1">  1        1 0.14057914E-01 0.80101061E+02</pdfrwt>
<pdfrwt beam="2">  1       -2 0.27006539E-02 0.80101061E+02</pdfrwt>
<totfact> 0.14430441E+05</totfact>
</mgrwt>
</event>
<event>
 8    1  0.1241100E-024  0.8026088E+02  0.7818608E-02  0.1328313E+00
         -2   -1    0    0    0  501 -0.00000000000E+00  0.00000000000E+00  0.16892563138E+02  0.16892563330E+02  0.25500000000E-02 0.  1.
          1   -1    0    0  501    0  0.00000000000E+00 -0.00000000000E+00 -0.95334980072E+02  0.95334980205E+02  0.50400000000E-02 0. -1.
        -24    2    1    2    0    0  0.00000000000E+00 -0.17763568394E-14 -0.78442416934E+02  0.11222754354E+03  0.80260879347E+02 0.  0.
         66    2    3    3    0    0  0.30617255910E+02 -0.10449620699E+02 -0.61018359961E+01  0.32982469577E+02  0.19999911761E+01 0.  0.
         13    1    3    3    0    0 -0.30617255910E+02  0.10449620699E+02 -0.72340580938E+02  0.79245073959E+02  0.10566000000E+00 0. -1.
         13    1    4    4    0    0  0.12565752357E+02 -0.40391227397E+01 -0.18150877607E+01  0.13323601331E+02  0.10566000000E+00 0. -1.
        -13    1    4    4    0    0  0.17760009523E+02 -0.61604351701E+01 -0.42516587396E+01  0.19273211093E+02  0.10566000000E+00 0.  1.
         14    1    4    4    0    0  0.29149402935E+00 -0.25006278890E+00 -0.35089495735E-01  0.38565715377E+00  0.00000000000E+00 0. -1.
<mgrwt>
<rscale>  0 0.80260879E+02</rscale>
<asrwt>0</asrwt>
<pdfrwt beam="1">  1        1 0.14666920E-01 0.80260879E+02</pdfrwt>
<pdfrwt beam="2">  1       -2 0.25988559E-02 0.80260879E+02</pdfrwt>
<totfact> 0.14454109E+05</totfact>
</mgrwt>
</event>
<event>
 8    1  0.1241100E-024  0.7947899E+02  0.7818608E-02  0.1330537E+00
          1   -1    0    0  501    0  0.00000000000E+00  0.00000000000E+00  0.59924070757E+02  0.59924070969E+02  0.50400000000E-02 0. -1.
         -2   -1    0    0    0  501 -0.00000000000E+00 -0.00000000000E+00 -0.26353810668E+02  0.26353810791E+02  0.25500000000E-02 0.  1.
        -24    2    1    2    0    0  0.00000000000E+00  0.00000000000E+00  0.33570260089E+02  0.86277881760E+02  0.79478994197E+02 0.  0.
         66    2    3    3    0    0  0.23126440835E+02  0.15951593677E+02 -0.13675703936E+02  0.31309910292E+02  0.19999994549E+01 0.  0.
         13    1    3    3    0    0 -0.23126440835E+02 -0.15951593677E+02  0.47245964025E+02  0.54967971467E+02  0.10566000000E+00 0. -1.
         13    1    4    4    0    0  0.49871324162E+01  0.31890006878E+01 -0.37424155106E+01  0.70041454163E+01  0.10566000000E+00 0. -1.
        -13    1    4    4    0    0  0.16377578603E+02  0.11615956468E+02 -0.90936561438E+01  0.22042261038E+02  0.10566000000E+00 0.  1.
         14    1    4    4    0    0  0.17617298163E+01  0.11466365204E+01 -0.83963228197E+00  0.22635038379E+01  0.00000000000E+00 0. -1.
<mgrwt>
<rscale>  0 0.79478994E+02</rscale>
<asrwt>0</asrwt>
<pdfrwt beam="1">  1        1 0.92190878E-02 0.79478994E+02</pdfrwt>
<pdfrwt beam="2">  1       -2 0.40544324E-02 0.79478994E+02</pdfrwt>
<totfact> 0.13781652E+05</totfact>
</mgrwt>
</event>
<event>
 8    1  0.1241100E-024  0.7947525E+02  0.7818608E-02  0.1330547E+00
         -2   -1    0    0    0  501 -0.00000000000E+00  0.00000000000E+00  0.68283317123E+01  0.68283321885E+01  0.25500000000E-02 0.  1.
          1   -1    0    0  501    0  0.00000000000E+00 -0.00000000000E+00 -0.23125398736E+03  0.23125398741E+03  0.50400000000E-02 0. -1.
        -24    2    1    2    0    0  0.00000000000E+00  0.00000000000E+00 -0.22442565564E+03  0.23808231960E+03  0.79475253977E+02 0.  0.
         66    2    3    3    0    0  0.73898928319E+00 -0.36157617952E+02 -0.16143059156E+03  0.16544411544E+03  0.19999999711E+01 0.  0.
         13    1    3    3    0    0 -0.73898928319E+00  0.36157617952E+02 -0.62995064084E+02  0.72638204164E+02  0.10566000000E+00 0. -1.
         13    1    4    4    0    0  0.19282080919E+00 -0.10421630834E+02 -0.47258145498E+02  0.48394122051E+02  0.10566000000E+00 0.  1.
        -13    1    4    4    0    0  0.53158959657E+00 -0.11490387273E+02 -0.54489256902E+02  0.55690231360E+02  0.10566000000E+00 0. -1.
        -14    1    4    4    0    0  0.14578877421E-01 -0.14245599845E+02 -0.59683189161E+02  0.61359762026E+02  0.00000000000E+00 0.  1.
<mgrwt>
<rscale>  0 0.79475254E+02</rscale>
<asrwt>0</asrwt>
<pdfrwt beam="1">  1        1 0.35577531E-01 0.79475254E+02</pdfrwt>
<pdfrwt beam="2">  1       -2 0.10505128E-02 0.79475254E+02</pdfrwt>
<totfact> 0.17453895E+05</totfact>
</mgrwt>
</event>
<event>
 8    1  0.1241100E-024  0.7922818E+02  0.7818608E-02  0.1331256E+00
          1   -1    0    0  501    0  0.00000000000E+00  0.00000000000E+00  0.34447332817E+02  0.34447333186E+02  0.50400000000E-02 0. -1.
         -2   -1    0    0    0  501 -0.00000000000E+00 -0.00000000000E+00 -0.45555804805E+02  0.45555804876E+02  0.25500000000E-02 0.  1.
        -24    2    1    2    0    0 -0.88817841970E-15 -0.35527136788E-14 -0.11108471987E+02  0.80003138062E+02  0.79228176490E+02 0.  0.
         66    2    3    3    0    0 -0.75983731290E+01  0.31613463651E+02 -0.28364627123E+02  0.43193731488E+02  0.20000024538E+01 0.  0.
         13    1    3    3    0    0  0.75983731290E+01 -0.31613463651E+02  0.17256155136E+02  0.36809406574E+02  0.10566000000E+00 0. -1.
         13    1    4    4    0    0 -0.26894408398E+01  0.85798002204E+01 -0.78683304879E+01  0.11948550228E+02  0.10566000000E+00 0. -1.
        -13    1    4    4    0    0 -0.16548209585E+01  0.53823633104E+01 -0.47078644894E+01  0.73405326303E+01  0.10566000000E+00 0.  1.
        -14    1    4    4    0    0 -0.32541113306E+01  0.17651300120E+02 -0.15788432146E+02  0.23904648630E+02  0.00000000000E+00 0.  1.
<mgrwt>
<rscale>  0 0.79228176E+02</rscale>
<asrwt>0</asrwt>
<pdfrwt beam="1">  1        1 0.52995897E-02 0.79228176E+02</pdfrwt>
<pdfrwt beam="2">  1       -2 0.70085854E-02 0.79228176E+02</pdfrwt>
<totfact> 0.12733354E+05</totfact>
</mgrwt>
</event>
<event>
 8    1  0.1241100E-024  0.7972857E+02  0.7818608E-02  0.1329823E+00
         -2   -1    0    0    0  501 -0.00000000000E+00  0.00000000000E+00  0.76991564006E+02  0.76991564049E+02  0.25500000000E-02 0.  1.
          1   -1    0    0  501    0  0.00000000000E+00 -0.00000000000E+00 -0.20640716850E+02  0.20640717465E+02  0.50400000000E-02 0. -1.
        -24    2    1    2    0    0 -0.35527136788E-14  0.00000000000E+00  0.56350847156E+02  0.97632281514E+02  0.79728567141E+02 0.  0.
         66    2    3    3    0    0 -0.18717721781E+02 -0.10946681513E+02  0.69119250527E+02  0.72468294677E+02  0.19999987874E+01 0.  0.
         13    1    3    3    0    0  0.18717721781E+02  0.10946681513E+02 -0.12768403371E+02  0.25163986837E+02  0.10566000000E+00 0. -1.
         13    1    4    4    0    0 -0.68413666456E+01 -0.44289451007E+01  0.25025302408E+02  0.26319133286E+02  0.10566000000E+00 0. -1.
        -13    1    4    4    0    0 -0.11264123236E+02 -0.65008149670E+01  0.42180755553E+02  0.44140325900E+02  0.10566000000E+00 0.  1.
        -14    1    4    4    0    0 -0.61223189996E+00 -0.16921445231E-01  0.19131925663E+01  0.20088354911E+01  0.00000000000E+00 0.  1.
<mgrwt>
<rscale>  0 0.79728567E+02</rscale>
<asrwt>0</asrwt>
<pdfrwt beam="1">  1        1 0.31754950E-02 0.79728567E+02</pdfrwt>
<pdfrwt beam="2">  1       -2 0.11844856E-01 0.79728567E+02</pdfrwt>
<totfact> 0.11365858E+05</totfact>
</mgrwt>
</event>
<event>
 8    1  0.1241100E-024  0.8969917E+02  0.7818608E-02  0.1303582E+00
          1   -1    0    0  501    0  0.00000000000E+00  0.00000000000E+00  0.24133155765E+02  0.24133156291E+02  0.50400000000E-02 0. -1.
         -2   -1    0    0    0  501 -0.00000000000E+00 -0.00000000000E+00 -0.83349440915E+02  0.83349440954E+02  0.25500000000E-02 0.  1.
        -24    2    1    2    0    0  0.00000000000E+00  0.00000000000E+00 -0.59216285150E+02  0.10748259724E+03  0.89699165456E+02 0.  0.
         66    2    3    3    0    0 -0.12203250370E+01  0.24432917018E+02 -0.74633633381E+02  0.78566124124E+02  0.20000002604E+01 0.  0.
         13    1    3    3    0    0  0.12203250370E+01 -0.24432917018E+02  0.15417348231E+02  0.28916473120E+02  0.10566000000E+00 0. -1.
         13    1    4    4    0    0 -0.73986392235E-01  0.27521648749E+01 -0.99740733451E+01  0.10347617533E+02  0.10566000000E+00 0. -1.
        -13    1    4    4    0    0 -0.38704273270E+00  0.11223699900E+02 -0.35255752459E+02  0.37001357907E+02  0.10566000000E+00 0.  1.
         14    1    4    4    0    0 -0.75929591205E+00  0.10457052244E+02 -0.29403807578E+02  0.31217148684E+02  0.00000000000E+00 0. -1.
<mgrwt>
<rscale>  0 0.89699165E+02</rscale>
<asrwt>0</asrwt>
<pdfrwt beam="1">  1        1 0.37127933E-02 0.89699165E+02</pdfrwt>
<pdfrwt beam="2">  1       -2 0.12822991E-01 0.89699165E+02</pdfrwt>
<totfact> 0.82686935E+04</totfact>
</mgrwt>
</event>
<event>
 8    1  0.1241100E-024  0.8144510E+02  0.7818608E-02  0.1325000E+00
          1   -1    0    0  501    0  0.00000000000E+00  0.00000000000E+00  0.86215994470E+01  0.86216009202E+01  0.50400000000E-02 0. -1.
         -2   -1    0    0    0  501 -0.00000000000E+00 -0.00000000000E+00 -0.19234549677E+03  0.19234549679E+03  0.25500000000E-02 0.  1.
        -24    2    1    2    0    0  0.00000000000E+00  0.00000000000E+00 -0.18372389733E+03  0.20096709771E+03  0.81445097540E+02 0.  0.
         66    2    3    3    0    0  0.19004297925E+02  0.35956836167E+02 -0.88204754315E+02  0.97150069953E+02  0.20000003341E+01 0.  0.
         13    1    3    3    0    0 -0.19004297925E+02 -0.35956836167E+02 -0.95519143011E+02  0.10381702776E+03  0.10566000000E+00 0. -1.
         13    1    4    4    0    0  0.55025123234E+01  0.90687990201E+01 -0.22060944048E+02  0.24478912840E+02  0.10566000000E+00 0. -1.
        -13    1    4    4    0    0  0.35565484942E+01  0.65901396108E+01 -0.15716585326E+02  0.17409801712E+02  0.10566000000E+00 0.  1.
         14    1    4    4    0    0  0.99452371077E+01  0.20297897536E+02 -0.50427224941E+02  0.55261355401E+02  0.00000000000E+00 0. -1.
<mgrwt>
<rscale>  0 0.81445098E+02</rscale>
<asrwt>0</asrwt>
<pdfrwt beam="1">  1        1 0.13264002E-02 0.81445098E+02</pdfrwt>
<pdfrwt beam="2">  1       -2 0.29591612E-01 0.81445098E+02</pdfrwt>
<totfact> 0.82513481E+04</totfact>
</mgrwt>
</event>
<event>
 8    1  0.1241100E-024  0.7656377E+02  0.7818608E-02  0.1339096E+00
         -2   -1    0    0    0  501 -0.00000000000E+00  0.00000000000E+00  0.71098941573E+01  0.71098946146E+01  0.25500000000E-02 0.  1.
          1   -1    0    0  501    0  0.00000000000E+00 -0.00000000000E+00 -0.20612158798E+03  0.20612158804E+03  0.50400000000E-02 0. -1.
        -24    2    1    2    0    0  0.00000000000E+00 -0.35527136788E-14 -0.19901169382E+03  0.21323148265E+03  0.76563770267E+02 0.  0.
         66    2    3    3    0    0  0.19267906503E+02  0.29700246280E+02 -0.59201266022E+02  0.69008309289E+02  0.20000005574E+01 0.  0.
         13    1    3    3    0    0 -0.19267906503E+02 -0.29700246280E+02 -0.13981042780E+03  0.14422317337E+03  0.10566000000E+00 0. -1.
         13    1    4    4    0    0  0.11781166633E+02  0.19003970920E+02 -0.37660743251E+02  0.43798282435E+02  0.10566000000E+00 0. -1.
        -13    1    4    4    0    0  0.62387577043E+01  0.90929824913E+01 -0.17448372786E+02  0.20641252510E+02  0.10566000000E+00 0.  1.
         14    1    4    4    0    0  0.12479821657E+01  0.16032928687E+01 -0.40921499848E+01  0.45687743441E+01  0.00000000000E+00 0. -1.
<mgrwt>
<rscale>  0 0.76563770E+02</rscale>
<asrwt>0</asrwt>
<pdfrwt beam="1">  1        1 0.31711009E-01 0.76563770E+02</pdfrwt>
<pdfrwt beam="2">  1       -2 0.10938301E-02 0.76563770E+02</pdfrwt>
<totfact> 0.18838748E+05</totfact>
</mgrwt>
</event>
<event>
 8    1  0.1241100E-024  0.7925628E+02  0.7818608E-02  0.1331175E+00
         -2   -1    0    0    0  501 -0.00000000000E+00  0.00000000000E+00  0.27181723634E+02  0.27181723753E+02  0.25500000000E-02 0.  1.
          1   -1    0    0  501    0  0.00000000000E+00 -0.00000000000E+00 -0.57773731412E+02  0.57773731632E+02  0.50400000000E-02 0. -1.
        -24    2    1    2    0    0 -0.17763568394E-14  0.00000000000E+00 -0.30592007779E+02  0.84955455385E+02  0.79256283409E+02 0.  0.
         66    2    3    3    0    0 -0.14731534674E+02  0.15647011877E+02  0.20350942320E+02  0.29664927957E+02  0.20000007101E+01 0.  0.
         13    1    3    3    0    0  0.14731534674E+02 -0.15647011877E+02 -0.50942950099E+02  0.55290527429E+02  0.10566000000E+00 0. -1.
         13    1    4    4    0    0 -0.42889536782E+00  0.92630524504E+00  0.82879966246E+00  0.13191154459E+01  0.10566000000E+00 0. -1.
        -13    1    4    4    0    0 -0.10458182778E+02  0.10283626862E+02  0.14395203233E+02  0.20551389457E+02  0.10566000000E+00 0.  1.
        -14    1    4    4    0    0 -0.38444565282E+01  0.44370797698E+01  0.51269394251E+01  0.77944230543E+01  0.00000000000E+00 0.  1.
<mgrwt>
<rscale>  0 0.79256283E+02</rscale>
<asrwt>0</asrwt>
<pdfrwt beam="1">  1        1 0.88882664E-02 0.79256283E+02</pdfrwt>
<pdfrwt beam="2">  1       -2 0.41818037E-02 0.79256283E+02</pdfrwt>
<totfact> 0.13809951E+05</totfact>
</mgrwt>
</event>
<event>
 8    1  0.1241100E-024  0.7954188E+02  0.7818608E-02  0.1330357E+00
          1   -1    0    0  501    0  0.00000000000E+00  0.00000000000E+00  0.20805513966E+02  0.20805514576E+02  0.50400000000E-02 0. -1.
         -2   -1    0    0    0  501 -0.00000000000E+00 -0.00000000000E+00 -0.76024444373E+02  0.76024444416E+02  0.25500000000E-02 0.  1.
        -24    2    1    2    0    0  0.00000000000E+00  0.00000000000E+00 -0.55218930407E+02  0.96829958992E+02  0.79541880058E+02 0.  0.
         66    2    3    3    0    0 -0.11853744318E+02 -0.16804353658E+02 -0.69031392166E+02  0.72057134767E+02  0.20000025421E+01 0.  0.
         13    1    3    3    0    0  0.11853744318E+02  0.16804353658E+02  0.13812461760E+02  0.24772824225E+02  0.10566000000E+00 0. -1.
         13    1    4    4    0    0 -0.46472847591E+01 -0.61231823954E+01 -0.23090648022E+02  0.24336799469E+02  0.10566000000E+00 0. -1.
        -13    1    4    4    0    0 -0.69582272429E+01 -0.10406483389E+02 -0.44086657674E+02  0.45829645119E+02  0.10566000000E+00 0.  1.
         14    1    4    4    0    0 -0.24823231558E+00 -0.27468787283E+00 -0.18540864708E+01  0.18906901785E+01  0.00000000000E+00 0. -1.
<mgrwt>
<rscale>  0 0.79541880E+02</rscale>
<asrwt>0</asrwt>
<pdfrwt beam="1">  1        1 0.32008484E-02 0.79541880E+02</pdfrwt>
<pdfrwt beam="2">  1       -2 0.11696068E-01 0.79541880E+02</pdfrwt>
<totfact> 0.11464331E+05</totfact>
</mgrwt>
</event>
<event>
 8    1  0.1241100E-024  0.8184349E+02  0.7818608E-02  0.1323900E+00
          1   -1    0    0  501    0  0.00000000000E+00  0.00000000000E+00  0.43082890874E+03  0.43082890877E+03  0.50400000000E-02 0. -1.
         -2   -1    0    0    0  501 -0.00000000000E+00 -0.00000000000E+00 -0.38869002304E+01  0.38869010669E+01  0.25500000000E-02 0.  1.
        -24    2    1    2    0    0 -0.71054273576E-14  0.00000000000E+00  0.42694200851E+03  0.43471580984E+03  0.81843488999E+02 0.  0.
         66    2    3    3    0    0  0.40407971507E+02  0.48545246282E+01  0.19221056297E+03  0.19648224113E+03  0.19999976162E+01 0.  0.
         13    1    3    3    0    0 -0.40407971507E+02 -0.48545246282E+01  0.23473144554E+03  0.23823356871E+03  0.10566000000E+00 0. -1.
         13    1    4    4    0    0  0.29851830925E+00 -0.82719699772E-01  0.14341955243E+01  0.14710664727E+01  0.10566000000E+00 0.  1.
        -13    1    4    4    0    0  0.30616877265E+01  0.51925856619E+00  0.15195677037E+02  0.15510103992E+02  0.10566000000E+00 0. -1.
        -14    1    4    4    0    0  0.37047765472E+02  0.44179857618E+01  0.17558069041E+03  0.17950107067E+03  0.00000000000E+00 0.  1.
<mgrwt>
<rscale>  0 0.81843489E+02</rscale>
<asrwt>0</asrwt>
<pdfrwt beam="1">  1        1 0.66281336E-01 0.81843489E+02</pdfrwt>
<pdfrwt beam="2">  1       -2 0.59798503E-03 0.81843489E+02</pdfrwt>
<totfact> 0.18100450E+05</totfact>
</mgrwt>
</event>
<event>
 8    1  0.1241100E-024  0.7881933E+02  0.7818608E-02  0.1332436E+00
          1   -1    0    0  501    0  0.00000000000E+00  0.00000000000E+00  0.15033893515E+03  0.15033893523E+03  0.50400000000E-02 0. -1.
         -2   -1    0    0    0  501 -0.00000000000E+00 -0.00000000000E+00 -0.10330801972E+02  0.10330802287E+02  0.25500000000E-02 0.  1.
        -24    2    1    2    0    0  0.00000000000E+00  0.35527136788E-14  0.14000813317E+03  0.16066973752E+03  0.78819332649E+02 0.  0.
         66    2    3    3    0    0  0.28412335936E+02 -0.23076606236E+02  0.40415846591E+02  0.54564010530E+02  0.20000001947E+01 0.  0.
         13    1    3    3    0    0 -0.28412335936E+02  0.23076606236E+02  0.99592286584E+02  0.10610572699E+03  0.10566000000E+00 0. -1.
         13    1    4    4    0    0  0.33385065569E+01 -0.32968978577E+01  0.54859959788E+01  0.72195898381E+01  0.10566000000E+00 0. -1.
        -13    1    4    4    0    0  0.10288210912E+02 -0.82441030946E+01  0.13561571283E+02  0.18914013306E+02  0.10566000000E+00 0.  1.
        -14    1    4    4    0    0  0.14785618466E+02 -0.11535605284E+02  0.21368279328E+02  0.28430407386E+02  0.00000000000E+00 0.  1.
<mgrwt>
<rscale>  0 0.78819333E+02</rscale>
<asrwt>0</asrwt>
<pdfrwt beam="1">  1        1 0.23129068E-01 0.78819333E+02</pdfrwt>
<pdfrwt beam="2">  1       -2 0.15893541E-02 0.78819333E+02</pdfrwt>
<totfact> 0.16434573E+05</totfact>
</mgrwt>
</event>
<event>
 8    1  0.1241100E-024  0.8036810E+02  0.7818608E-02  0.1328010E+00
         -2   -1    0    0    0  501 -0.00000000000E+00  0.00000000000E+00  0.12535308124E+03  0.12535308127E+03  0.25500000000E-02 0.  1.
          1   -1    0    0  501    0  0.00000000000E+00 -0.00000000000E+00 -0.12881676372E+02  0.12881677358E+02  0.50400000000E-02 0. -1.
        -24    2    1    2    0    0  0.00000000000E+00  0.35527136788E-14  0.11247140487E+03  0.13823475863E+03  0.80368100506E+02 0.  0.
         66    2    3    3    0    0 -0.26773100078E+02 -0.16008292098E+02  0.99773297247E+02  0.10455512969E+03  0.19999995852E+01 0.  0.
         13    1    3    3    0    0  0.26773100078E+02  0.16008292098E+02  0.12698107623E+02  0.33679628931E+02  0.10566000000E+00 0. -1.
         13    1    4    4    0    0 -0.74746854992E+01 -0.47775245473E+01  0.30688954023E+02  0.31945558802E+02  0.10566000000E+00 0. -1.
        -13    1    4    4    0    0 -0.12055487418E+02 -0.65149335207E+01  0.41778845467E+02  0.43968877951E+02  0.10566000000E+00 0.  1.
         14    1    4    4    0    0 -0.72429271613E+01 -0.47158340300E+01  0.27305497757E+02  0.28640692942E+02  0.00000000000E+00 0. -1.
<mgrwt>
<rscale>  0 0.80368101E+02</rscale>
<asrwt>0</asrwt>
<pdfrwt beam="1">  1        1 0.19817964E-02 0.80368101E+02</pdfrwt>
<pdfrwt beam="2">  1       -2 0.19285090E-01 0.80368101E+02</pdfrwt>
<totfact> 0.98723888E+04</totfact>
</mgrwt>
</event>
<event>
 8    1  0.1241100E-024  0.8004249E+02  0.7818608E-02  0.1328931E+00
          1   -1    0    0  501    0  0.00000000000E+00  0.00000000000E+00  0.23672874434E+02  0.23672874970E+02  0.50400000000E-02 0. -1.
         -2   -1    0    0    0  501 -0.00000000000E+00 -0.00000000000E+00 -0.67659723827E+02  0.67659723875E+02  0.25500000000E-02 0.  1.
        -24    2    1    2    0    0  0.35527136788E-14  0.00000000000E+00 -0.43986849393E+02  0.91332598845E+02  0.80042493042E+02 0.  0.
         66    2    3    3    0    0 -0.23544560135E+02  0.23387509181E+02 -0.47480264556E+02  0.57962896851E+02  0.19999978479E+01 0.  0.
         13    1    3    3    0    0  0.23544560135E+02 -0.23387509181E+02  0.34934151631E+01  0.33369701994E+02  0.10566000000E+00 0. -1.
         13    1    4    4    0    0 -0.25881082346E+01  0.29082739909E+01 -0.54681936265E+01  0.67133201482E+01  0.10566000000E+00 0. -1.
        -13    1    4    4    0    0 -0.57503325004E+01  0.60073028070E+01 -0.13196573066E+02  0.15598548509E+02  0.10566000000E+00 0.  1.
        -14    1    4    4    0    0 -0.15206119400E+02  0.14471932383E+02 -0.28815497864E+02  0.35651028194E+02  0.00000000000E+00 0.  1.
<mgrwt>
<rscale>  0 0.80042493E+02</rscale>
<asrwt>0</asrwt>
<pdfrwt beam="1">  1        1 0.36419808E-02 0.80042493E+02</pdfrwt>
<pdfrwt beam="2">  1       -2 0.10409188E-01 0.80042493E+02</pdfrwt>
<totfact> 0.11553627E+05</totfact>
</mgrwt>
</event>
<event>
 8    1  0.1241100E-024  0.7960323E+02  0.7818608E-02  0.1330181E+00
         -2   -1    0    0    0  501 -0.00000000000E+00  0.00000000000E+00  0.12275970493E+03  0.12275970496E+03  0.25500000000E-02 0.  1.
          1   -1    0    0  501    0  0.00000000000E+00 -0.00000000000E+00 -0.12904628661E+02  0.12904629645E+02  0.50400000000E-02 0. -1.
        -24    2    1    2    0    0  0.00000000000E+00  0.00000000000E+00  0.10985507627E+03  0.13566433461E+03  0.79603227957E+02 0.  0.
         66    2    3    3    0    0  0.22922221773E+02 -0.30277219668E+02  0.75128969370E+02  0.84205108548E+02  0.19999962806E+01 0.  0.
         13    1    3    3    0    0 -0.22922221773E+02  0.30277219668E+02  0.34726106904E+02  0.51459226059E+02  0.10566000000E+00 0. -1.
         13    1    4    4    0    0  0.91068627239E+01 -0.11294132311E+02  0.27401163366E+02  0.31005278441E+02  0.10566000000E+00 0. -1.
        -13    1    4    4    0    0  0.49689988663E+01 -0.62923851546E+01  0.15482070537E+02  0.17435330017E+02  0.10566000000E+00 0.  1.
         14    1    4    4    0    0  0.88463601828E+01 -0.12690702202E+02  0.32245735466E+02  0.35764500089E+02  0.00000000000E+00 0. -1.
<mgrwt>
<rscale>  0 0.79603228E+02</rscale>
<asrwt>0</asrwt>
<pdfrwt beam="1">  1        1 0.19853277E-02 0.79603228E+02</pdfrwt>
<pdfrwt beam="2">  1       -2 0.18886108E-01 0.79603228E+02</pdfrwt>
<totfact> 0.10178828E+05</totfact>
</mgrwt>
</event>
<event>
 8    1  0.1241100E-024  0.8206152E+02  0.7818608E-02  0.1323301E+00
         -2   -1    0    0    0  501 -0.00000000000E+00  0.00000000000E+00  0.87596521998E+01  0.87596525710E+01  0.25500000000E-02 0.  1.
          1   -1    0    0  501    0  0.00000000000E+00 -0.00000000000E+00 -0.19219064324E+03  0.19219064331E+03  0.50400000000E-02 0. -1.
        -24    2    1    2    0    0  0.88817841970E-15 -0.35527136788E-14 -0.18343099104E+03  0.20095029588E+03  0.82061519234E+02 0.  0.
         66    2    3    3    0    0  0.52073473304E+01 -0.28005267167E+02 -0.19536867828E+02  0.34599142461E+02  0.19999998031E+01 0.  0.
         13    1    3    3    0    0 -0.52073473304E+01  0.28005267167E+02 -0.16389412321E+03  0.16635115341E+03  0.10566000000E+00 0. -1.
         13    1    4    4    0    0  0.91974806734E+00 -0.65733973976E+01 -0.40395349076E+01  0.77707461778E+01  0.10566000000E+00 0. -1.
        -13    1    4    4    0    0  0.35768428716E+01 -0.19716025377E+02 -0.14328659596E+02  0.24634064047E+02  0.10566000000E+00 0.  1.
        -14    1    4    4    0    0  0.71075639148E+00 -0.17158443922E+01 -0.11686733241E+01  0.21943322366E+01  0.00000000000E+00 0.  1.
<mgrwt>
<rscale>  0 0.82061519E+02</rscale>
<asrwt>0</asrwt>
<pdfrwt beam="1">  1        1 0.29567788E-01 0.82061519E+02</pdfrwt>
<pdfrwt beam="2">  1       -2 0.13476390E-02 0.82061519E+02</pdfrwt>
<totfact> 0.15462702E+05</totfact>
</mgrwt>
</event>
<event>
 8    1  0.1241100E-024  0.8208429E+02  0.7818608E-02  0.1323238E+00
         -2   -1    0    0    0  501 -0.00000000000E+00  0.00000000000E+00  0.35377208095E+02  0.35377208187E+02  0.25500000000E-02 0.  1.
          1   -1    0    0  501    0  0.00000000000E+00 -0.00000000000E+00 -0.47614201576E+02  0.47614201842E+02  0.50400000000E-02 0. -1.
        -24    2    1    2    0    0 -0.71054273576E-14  0.00000000000E+00 -0.12236993481E+02  0.82991410029E+02  0.82084286737E+02 0.  0.
         66    2    3    3    0    0  0.37564132605E+02 -0.11402512564E+02  0.58992402632E+01  0.39747734312E+02  0.19999990326E+01 0.  0.
         13    1    3    3    0    0 -0.37564132605E+02  0.11402512564E+02 -0.18136233744E+02  0.43243675717E+02  0.10566000000E+00 0. -1.
         13    1    4    4    0    0  0.21787694060E+02 -0.66688624241E+01  0.32083168218E+01  0.23010471515E+02  0.10566000000E+00 0. -1.
        -13    1    4    4    0    0  0.11175985279E+02 -0.27517042863E+01  0.18971166278E+01  0.11665536378E+02  0.10566000000E+00 0.  1.
         14    1    4    4    0    0  0.46004532656E+01 -0.19819458534E+01  0.79380681357E+00  0.50717264193E+01  0.00000000000E+00 0. -1.
<mgrwt>
<rscale>  0 0.82084287E+02</rscale>
<asrwt>0</asrwt>
<pdfrwt beam="1">  1        1 0.73252619E-02 0.82084287E+02</pdfrwt>
<pdfrwt beam="2">  1       -2 0.54426474E-02 0.82084287E+02</pdfrwt>
<totfact> 0.12150452E+05</totfact>
</mgrwt>
</event>
<event>
 8    1  0.1241100E-024  0.8001032E+02  0.7818608E-02  0.1329022E+00
          1   -1    0    0  501    0  0.00000000000E+00  0.00000000000E+00  0.30830542224E+02  0.30830542635E+02  0.50400000000E-02 0. -1.
         -2   -1    0    0    0  501 -0.00000000000E+00 -0.00000000000E+00 -0.51909981579E+02  0.51909981642E+02  0.25500000000E-02 0.  1.
        -24    2    1    2    0    0  0.00000000000E+00  0.00000000000E+00 -0.21079439356E+02  0.82740524278E+02  0.80010321798E+02 0.  0.
         66    2    3    3    0    0 -0.20333132092E+02 -0.24431442942E+02 -0.35624066484E+02  0.47784995284E+02  0.19999991232E+01 0.  0.
         13    1    3    3    0    0  0.20333132092E+02  0.24431442942E+02  0.14544627128E+02  0.34955528994E+02  0.10566000000E+00 0. -1.
         13    1    4    4    0    0 -0.17781398051E+01 -0.26935947503E+01 -0.33222979907E+01  0.46331481543E+01  0.10566000000E+00 0. -1.
        -13    1    4    4    0    0 -0.13546218874E+02 -0.16339821942E+02 -0.23200978689E+02  0.31444974210E+02  0.10566000000E+00 0.  1.
         14    1    4    4    0    0 -0.50087734126E+01 -0.53980262496E+01 -0.91007898043E+01  0.11706872919E+02  0.00000000000E+00 0. -1.
<mgrwt>
<rscale>  0 0.80010322E+02</rscale>
<asrwt>0</asrwt>
<pdfrwt beam="1">  1        1 0.47431604E-02 0.80010322E+02</pdfrwt>
<pdfrwt beam="2">  1       -2 0.79861510E-02 0.80010322E+02</pdfrwt>
<totfact> 0.12148643E+05</totfact>
</mgrwt>
</event>
<event>
 8    1  0.1241100E-024  0.8039076E+02  0.7818608E-02  0.1327946E+00
          1   -1    0    0  501    0  0.00000000000E+00  0.00000000000E+00  0.31980161689E+01  0.31980201404E+01  0.50400000000E-02 0. -1.
         -2   -1    0    0    0  501 -0.00000000000E+00 -0.00000000000E+00 -0.50520929119E+03  0.50520929119E+03  0.25500000000E-02 0.  1.
        -24    2    1    2    0    0 -0.35527136788E-14  0.17763568394E-14 -0.50201127502E+03  0.50840731134E+03  0.80390758004E+02 0.  0.
         66    2    3    3    0    0 -0.18131268982E+02  0.64758665094E+01 -0.47412643227E+03  0.47452139418E+03  0.20000000499E+01 0.  0.
         13    1    3    3    0    0  0.18131268982E+02 -0.64758665094E+01 -0.27884842751E+02  0.33885917152E+02  0.10566000000E+00 0. -1.
         13    1    4    4    0    0 -0.26280785773E+01  0.41967789089E+00 -0.55472972672E+02  0.55536877726E+02  0.10566000000E+00 0. -1.
        -13    1    4    4    0    0 -0.11106499022E+02  0.40894600605E+01 -0.29710191755E+03  0.29733758353E+03  0.10566000000E+00 0.  1.
         14    1    4    4    0    0 -0.43966913824E+01  0.19667285580E+01 -0.12155154205E+03  0.12164693293E+03  0.00000000000E+00 0. -1.
<mgrwt>
<rscale>  0 0.80390758E+02</rscale>
<asrwt>0</asrwt>
<pdfrwt beam="1">  1        1 0.49200319E-03 0.80390758E+02</pdfrwt>
<pdfrwt beam="2">  1       -2 0.77724443E-01 0.80390758E+02</pdfrwt>
<totfact> 0.49362249E+04</totfact>
</mgrwt>
</event>
<event>
 8    1  0.1241100E-024  0.8059004E+02  0.7818608E-02  0.1327385E+00
          1   -1    0    0  501    0  0.00000000000E+00  0.00000000000E+00  0.76646539839E+02  0.76646540004E+02  0.50400000000E-02 0. -1.
         -2   -1    0    0    0  501 -0.00000000000E+00 -0.00000000000E+00 -0.21184106809E+02  0.21184106962E+02  0.25500000000E-02 0.  1.
        -24    2    1    2    0    0  0.00000000000E+00  0.00000000000E+00  0.55462433030E+02  0.97830646967E+02  0.80590036657E+02 0.  0.
         66    2    3    3    0    0 -0.17358482362E+02 -0.18291002454E+02 -0.10366167856E+02  0.27337430703E+02  0.20000001828E+01 0.  0.
         13    1    3    3    0    0  0.17358482362E+02  0.18291002454E+02  0.65828600886E+02  0.70493216264E+02  0.10566000000E+00 0. -1.
         13    1    4    4    0    0 -0.34205680292E+01 -0.28843103872E+01 -0.13133979301E+01  0.46643016852E+01  0.10566000000E+00 0. -1.
        -13    1    4    4    0    0 -0.91706992703E+01 -0.96479886660E+01 -0.57767719697E+01  0.14510949963E+02  0.10566000000E+00 0.  1.
         14    1    4    4    0    0 -0.47672150626E+01 -0.57587034005E+01 -0.32759979560E+01  0.81621790544E+01  0.00000000000E+00 0. -1.
<mgrwt>
<rscale>  0 0.80590037E+02</rscale>
<asrwt>0</asrwt>
<pdfrwt beam="1">  1        1 0.11791776E-01 0.80590037E+02</pdfrwt>
<pdfrwt beam="2">  1       -2 0.32590933E-02 0.80590037E+02</pdfrwt>
<totfact> 0.13792827E+05</totfact>
</mgrwt>
</event>
<event>
 8    1  0.1241100E-024  0.7876742E+02  0.7818608E-02  0.1332586E+00
          1   -1    0    0  501    0  0.00000000000E+00  0.00000000000E+00  0.24387315115E+03  0.24387315121E+03  0.50400000000E-02 0. -1.
         -2   -1    0    0    0  501 -0.00000000000E+00 -0.00000000000E+00 -0.63601778325E+01  0.63601783437E+01  0.25500000000E-02 0.  1.
        -24    2    1    2    0    0  0.00000000000E+00 -0.35527136788E-14  0.23751297332E+03  0.25023332955E+03  0.78767421702E+02 0.  0.
         66    2    3    3    0    0 -0.22334516284E+02  0.29279269530E+02  0.74702386639E+02  0.83309980249E+02  0.19999994142E+01 0.  0.
         13    1    3    3    0    0  0.22334516284E+02 -0.29279269530E+02  0.16281058668E+03  0.16692334930E+03  0.10566000000E+00 0. -1.
         13    1    4    4    0    0 -0.19884864630E+01  0.21656377700E+01  0.58568603229E+01  0.65542384945E+01  0.10566000000E+00 0. -1.
        -13    1    4    4    0    0 -0.98488348293E+01  0.14460234968E+02  0.35699886602E+02  0.39756647372E+02  0.10566000000E+00 0.  1.
        -14    1    4    4    0    0 -0.10497194992E+02  0.12653396792E+02  0.33145639714E+02  0.36999094382E+02  0.00000000000E+00 0.  1.
<mgrwt>
<rscale>  0 0.78767422E+02</rscale>
<asrwt>0</asrwt>
<pdfrwt beam="1">  1        1 0.37518944E-01 0.78767422E+02</pdfrwt>
<pdfrwt beam="2">  1       -2 0.97848899E-03 0.78767422E+02</pdfrwt>
<totfact> 0.18057349E+05</totfact>
</mgrwt>
</event>
<event>
 8    1  0.1241100E-024  0.8066595E+02  0.7818608E-02  0.1327172E+00
          1   -1    0    0  501    0  0.00000000000E+00  0.00000000000E+00  0.26055345853E+02  0.26055346341E+02  0.50400000000E-02 0. -1.
         -2   -1    0    0    0  501 -0.00000000000E+00 -0.00000000000E+00 -0.62434363015E+02  0.62434363068E+02  0.25500000000E-02 0.  1.
        -24    2    1    2    0    0  0.00000000000E+00  0.71054273576E-14 -0.36379017162E+02  0.88489709408E+02  0.80665951810E+02 0.  0.
         66    2    3    3    0    0 -0.21454817276E+02  0.34123751124E+02 -0.18273412017E+02  0.44301886687E+02  0.20000005366E+01 0.  0.
         13    1    3    3    0    0  0.21454817276E+02 -0.34123751124E+02 -0.18105605146E+02  0.44187822721E+02  0.10566000000E+00 0. -1.
         13    1    4    4    0    0 -0.19500264850E+01  0.33337948575E+01 -0.12733590424E+01  0.40680952214E+01  0.10566000000E+00 0. -1.
        -13    1    4    4    0    0 -0.17859103525E+02  0.27830577819E+02 -0.15122661211E+02  0.36361995085E+02  0.10566000000E+00 0.  1.
        -14    1    4    4    0    0 -0.16456872652E+01  0.29593784480E+01 -0.18773917637E+01  0.38717963799E+01  0.00000000000E+00 0.  1.
<mgrwt>
<rscale>  0 0.80665952E+02</rscale>
<asrwt>0</asrwt>
<pdfrwt beam="1">  1        1 0.40085148E-02 0.80665952E+02</pdfrwt>
<pdfrwt beam="2">  1       -2 0.96052866E-02 0.80665952E+02</pdfrwt>
<totfact> 0.11506549E+05</totfact>
</mgrwt>
</event>
<event>
 8    1  0.1241100E-024  0.8069770E+02  0.7818608E-02  0.1327083E+00
          1   -1    0    0  501    0  0.00000000000E+00  0.00000000000E+00  0.78134865522E+02  0.78134865684E+02  0.50400000000E-02 0. -1.
         -2   -1    0    0    0  501 -0.00000000000E+00 -0.00000000000E+00 -0.20836150350E+02  0.20836150506E+02  0.25500000000E-02 0.  1.
        -24    2    1    2    0    0  0.00000000000E+00  0.88817841970E-15  0.57298715171E+02  0.98971016190E+02  0.80697703099E+02 0.  0.
         66    2    3    3    0    0 -0.28003600639E+02  0.52728070037E+01 -0.63247568554E+01  0.29257592094E+02  0.20000008584E+01 0.  0.
         13    1    3    3    0    0  0.28003600639E+02 -0.52728070037E+01  0.63623472027E+02  0.69713424096E+02  0.10566000000E+00 0. -1.
         13    1    4    4    0    0 -0.89866174114E+01  0.24282275221E+01 -0.19044085700E+01  0.95022901153E+01  0.10566000000E+00 0. -1.
        -13    1    4    4    0    0 -0.79971477447E+01  0.15542912744E+01 -0.22140351611E+01  0.84429443410E+01  0.10566000000E+00 0.  1.
         14    1    4    4    0    0 -0.11019835483E+02  0.12902882071E+01 -0.22063131243E+01  0.11312357638E+02  0.00000000000E+00 0. -1.
<mgrwt>
<rscale>  0 0.80697703E+02</rscale>
<asrwt>0</asrwt>
<pdfrwt beam="1">  1        1 0.12020748E-01 0.80697703E+02</pdfrwt>
<pdfrwt beam="2">  1       -2 0.32055617E-02 0.80697703E+02</pdfrwt>
<totfact> 0.13785295E+05</totfact>
</mgrwt>
</event>
<event>
 8    1  0.1241100E-024  0.8043320E+02  0.7818608E-02  0.1327827E+00
         -2   -1    0    0    0  501 -0.00000000000E+00  0.00000000000E+00  0.28740023651E+02  0.28740023764E+02  0.25500000000E-02 0.  1.
          1   -1    0    0  501    0  0.00000000000E+00 -0.00000000000E+00 -0.56276045048E+02  0.56276045273E+02  0.50400000000E-02 0. -1.
        -24    2    1    2    0    0  0.00000000000E+00  0.00000000000E+00 -0.27536021397E+02  0.85016069037E+02  0.80433199117E+02 0.  0.
         66    2    3    3    0    0 -0.32455352424E+02 -0.68204196638E+01  0.10221818623E+02  0.34761380974E+02  0.20000014675E+01 0.  0.
         13    1    3    3    0    0  0.32455352424E+02  0.68204196638E+01 -0.37757840020E+02  0.50254688064E+02  0.10566000000E+00 0. -1.
         13    1    4    4    0    0 -0.10273623205E+02 -0.17846549555E+01  0.38809399634E+01  0.11126777885E+02  0.10566000000E+00 0. -1.
        -13    1    4    4    0    0 -0.10071618991E+02 -0.27785441300E+01  0.30234439087E+01  0.10877048942E+02  0.10566000000E+00 0.  1.
        -14    1    4    4    0    0 -0.12110110228E+02 -0.22572205783E+01  0.33174347509E+01  0.12757554147E+02  0.00000000000E+00 0.  1.
<mgrwt>
<rscale>  0 0.80433199E+02</rscale>
<asrwt>0</asrwt>
<pdfrwt beam="1">  1        1 0.86578531E-02 0.80433199E+02</pdfrwt>
<pdfrwt beam="2">  1       -2 0.44215421E-02 0.80433199E+02</pdfrwt>
<totfact> 0.13204601E+05</totfact>
</mgrwt>
</event>
<event>
 8    1  0.1241100E-024  0.8019816E+02  0.7818608E-02  0.1328490E+00
          1   -1    0    0  501    0  0.00000000000E+00  0.00000000000E+00  0.26535539383E+03  0.26535539388E+03  0.50400000000E-02 0. -1.
         -2   -1    0    0    0  501 -0.00000000000E+00 -0.00000000000E+00 -0.60595567962E+01  0.60595573328E+01  0.25500000000E-02 0.  1.
        -24    2    1    2    0    0  0.71054273576E-14  0.71054273576E-14  0.25929583703E+03  0.27141495121E+03  0.80198158567E+02 0.  0.
         66    2    3    3    0    0 -0.23774902194E+02 -0.32214132816E+02  0.13552612888E+03  0.14133056265E+03  0.20000003726E+01 0.  0.
         13    1    3    3    0    0  0.23774902194E+02  0.32214132816E+02  0.12376970815E+03  0.13008438856E+03  0.10566000000E+00 0. -1.
         13    1    4    4    0    0 -0.59606572001E+01 -0.73979179983E+01  0.32852110639E+02  0.34198405847E+02  0.10566000000E+00 0. -1.
        -13    1    4    4    0    0 -0.48178500022E+01 -0.68922354112E+01  0.30559853334E+02  0.31695904900E+02  0.10566000000E+00 0.  1.
         14    1    4    4    0    0 -0.12996394992E+02 -0.17923979407E+02  0.72114164911E+02  0.75436251904E+02  0.00000000000E+00 0. -1.
<mgrwt>
<rscale>  0 0.80198159E+02</rscale>
<asrwt>0</asrwt>
<pdfrwt beam="1">  1        1 0.40823903E-01 0.80198159E+02</pdfrwt>
<pdfrwt beam="2">  1       -2 0.93223963E-03 0.80198159E+02</pdfrwt>
<totfact> 0.17504294E+05</totfact>
</mgrwt>
</event>
<event>
 8    1  0.1241100E-024  0.7761009E+02  0.7818608E-02  0.1335974E+00
          1   -1    0    0  501    0  0.00000000000E+00  0.00000000000E+00  0.10136044104E+02  0.10136045357E+02  0.50400000000E-02 0. -1.
         -2   -1    0    0    0  501 -0.00000000000E+00 -0.00000000000E+00 -0.14856204396E+03  0.14856204398E+03  0.25500000000E-02 0.  1.
        -24    2    1    2    0    0  0.00000000000E+00  0.35527136788E-14 -0.13842599986E+03  0.15869808934E+03  0.77610090346E+02 0.  0.
         66    2    3    3    0    0  0.25040229632E+02 -0.29124418646E+02 -0.58326875969E+02  0.69866081183E+02  0.19999945045E+01 0.  0.
         13    1    3    3    0    0 -0.25040229632E+02  0.29124418646E+02 -0.80099123886E+02  0.88832008155E+02  0.10566000000E+00 0. -1.
         13    1    4    4    0    0  0.84081168814E+01 -0.10107483627E+02 -0.20525347706E+02  0.24375371120E+02  0.10566000000E+00 0. -1.
        -13    1    4    4    0    0  0.47829386255E+00 -0.27015808140E+00 -0.90375700467E+00  0.10628693085E+01  0.10566000000E+00 0.  1.
        -14    1    4    4    0    0  0.16153818888E+02 -0.18746776938E+02 -0.36897771258E+02  0.44427840754E+02  0.00000000000E+00 0.  1.
<mgrwt>
<rscale>  0 0.77610090E+02</rscale>
<asrwt>0</asrwt>
<pdfrwt beam="1">  1        1 0.15593916E-02 0.77610090E+02</pdfrwt>
<pdfrwt beam="2">  1       -2 0.22855698E-01 0.77610090E+02</pdfrwt>
<totfact> 0.10249830E+05</totfact>
</mgrwt>
</event>
<event>
 8    1  0.1241100E-024  0.7994040E+02  0.7818608E-02  0.1329221E+00
         -2   -1    0    0    0  501 -0.00000000000E+00  0.00000000000E+00  0.28108721134E+02  0.28108721250E+02  0.25500000000E-02 0.  1.
          1   -1    0    0  501    0  0.00000000000E+00 -0.00000000000E+00 -0.56837059171E+02  0.56837059395E+02  0.50400000000E-02 0. -1.
        -24    2    1    2    0    0  0.35527136788E-14  0.35527136788E-14 -0.28728338037E+02  0.84945780645E+02  0.79940404321E+02 0.  0.
         66    2    3    3    0    0 -0.29526811657E+02 -0.23088647165E+02  0.30070716941E+00  0.37536763948E+02  0.19999970874E+01 0.  0.
         13    1    3    3    0    0  0.29526811657E+02  0.23088647165E+02 -0.29029045207E+02  0.47409016697E+02  0.10566000000E+00 0. -1.
         13    1    4    4    0    0 -0.14653487777E+02 -0.10967881605E+02 -0.49216321037E+00  0.18310448372E+02  0.10566000000E+00 0.  1.
        -13    1    4    4    0    0 -0.76112642115E+01 -0.59003462626E+01  0.80190085767E+00  0.96643488108E+01  0.10566000000E+00 0.  1.
        -14    1    4    4    0    0 -0.72620596687E+01 -0.62204192976E+01 -0.90304778966E-02  0.95619667652E+01  0.00000000000E+00 0.  1.
<mgrwt>
<rscale>  0 0.79940404E+02</rscale>
<asrwt>0</asrwt>
<pdfrwt beam="1">  1        1 0.87441630E-02 0.79940404E+02</pdfrwt>
<pdfrwt beam="2">  1       -2 0.43244187E-02 0.79940404E+02</pdfrwt>
<totfact> 0.13451862E+05</totfact>
</mgrwt>
</event>
<event>
 8    1  0.1241100E-024  0.8284431E+02  0.7818608E-02  0.1321168E+00
         -2   -1    0    0    0  501 -0.00000000000E+00  0.00000000000E+00  0.28875516728E+03  0.28875516729E+03  0.25500000000E-02 0.  1.
          1   -1    0    0  501    0  0.00000000000E+00 -0.00000000000E+00 -0.59420393248E+01  0.59420414623E+01  0.50400000000E-02 0. -1.
        -24    2    1    2    0    0  0.00000000000E+00  0.00000000000E+00  0.28281312796E+03  0.29469720876E+03  0.82844308817E+02 0.  0.
         66    2    3    3    0    0 -0.31074346525E+02 -0.26829250620E+02  0.16043458204E+03  0.16561605845E+03  0.19999998944E+01 0.  0.
         13    1    3    3    0    0  0.31074346525E+02  0.26829250620E+02  0.12237854592E+03  0.12908115031E+03  0.10566000000E+00 0. -1.
         13    1    4    4    0    0 -0.94242415309E+01 -0.89060277924E+01  0.51673668144E+02  0.53275818182E+02  0.10566000000E+00 0. -1.
        -13    1    4    4    0    0 -0.10278452684E+02 -0.87197967589E+01  0.54429904324E+02  0.56074121428E+02  0.10566000000E+00 0.  1.
         14    1    4    4    0    0 -0.11371652310E+02 -0.92034260684E+01  0.54331009573E+02  0.56266118837E+02  0.00000000000E+00 0. -1.
<mgrwt>
<rscale>  0 0.82844309E+02</rscale>
<asrwt>0</asrwt>
<pdfrwt beam="1">  1        1 0.91416038E-03 0.82844309E+02</pdfrwt>
<pdfrwt beam="2">  1       -2 0.44423856E-01 0.82844309E+02</pdfrwt>
<totfact> 0.65527733E+04</totfact>
</mgrwt>
</event>
<event>
 8    1  0.1241100E-024  0.8006043E+02  0.7818608E-02  0.1328880E+00
          1   -1    0    0  501    0  0.00000000000E+00  0.00000000000E+00  0.18133794434E+02  0.18133795134E+02  0.50400000000E-02 0. -1.
         -2   -1    0    0    0  501 -0.00000000000E+00 -0.00000000000E+00 -0.88366400688E+02  0.88366400725E+02  0.25500000000E-02 0.  1.
        -24    2    1    2    0    0  0.00000000000E+00  0.00000000000E+00 -0.70232606254E+02  0.10650019586E+03  0.80060431779E+02 0.  0.
         66    2    3    3    0    0 -0.41969934447E+01  0.37204439913E+02 -0.53886066170E+02  0.65646730400E+02  0.19999954255E+01 0.  0.
         13    1    3    3    0    0  0.41969934447E+01 -0.37204439913E+02 -0.16346540084E+02  0.40853465459E+02  0.10566000000E+00 0. -1.
         13    1    4    4    0    0 -0.31276033754E+01  0.24214856906E+02 -0.33688875787E+02  0.41606402316E+02  0.10566000000E+00 0. -1.
        -13    1    4    4    0    0 -0.56509504482E+00  0.68109483163E+01 -0.10276520115E+02  0.12342057328E+02  0.10566000000E+00 0.  1.
         14    1    4    4    0    0 -0.50429502452E+00  0.61786346905E+01 -0.99206702675E+01  0.11698270755E+02  0.00000000000E+00 0. -1.
<mgrwt>
<rscale>  0 0.80060432E+02</rscale>
<asrwt>0</asrwt>
<pdfrwt beam="1">  1        1 0.27898146E-02 0.80060432E+02</pdfrwt>
<pdfrwt beam="2">  1       -2 0.13594831E-01 0.80060432E+02</pdfrwt>
<totfact> 0.10909982E+05</totfact>
</mgrwt>
</event>
<event>
 8    1  0.1241100E-024  0.8510455E+02  0.7818608E-02  0.1315159E+00
          1   -1    0    0  501    0  0.00000000000E+00  0.00000000000E+00  0.53357714744E+02  0.53357714982E+02  0.50400000000E-02 0. -1.
         -2   -1    0    0    0  501 -0.00000000000E+00 -0.00000000000E+00 -0.33935037860E+02  0.33935037955E+02  0.25500000000E-02 0.  1.
        -24    2    1    2    0    0  0.35527136788E-14  0.00000000000E+00  0.19422676884E+02  0.87292752937E+02  0.85104549456E+02 0.  0.
         66    2    3    3    0    0  0.28868523115E+02  0.19921525639E+01 -0.22250835958E+02  0.36557625705E+02  0.19999994316E+01 0.  0.
         13    1    3    3    0    0 -0.28868523115E+02 -0.19921525639E+01  0.41673512842E+02  0.50735127232E+02  0.10566000000E+00 0. -1.
         13    1    4    4    0    0  0.58664883384E+01  0.11329782111E+01 -0.48093328468E+01  0.76707347443E+01  0.10566000000E+00 0. -1.
        -13    1    4    4    0    0  0.13319717589E+02  0.78218063021E+00 -0.99511242828E+01  0.16645201162E+02  0.10566000000E+00 0.  1.
         14    1    4    4    0    0  0.96823171875E+01  0.76993722516E-01 -0.74903788280E+01  0.12241689799E+02  0.00000000000E+00 0. -1.
<mgrwt>
<rscale>  0 0.85104549E+02</rscale>
<asrwt>0</asrwt>
<pdfrwt beam="1">  1        1 0.82088793E-02 0.85104549E+02</pdfrwt>
<pdfrwt beam="2">  1       -2 0.52207750E-02 0.85104549E+02</pdfrwt>
<totfact> 0.11187311E+05</totfact>
</mgrwt>
</event>
<event>
 8    1  0.1241100E-024  0.7884027E+02  0.7818608E-02  0.1332375E+00
          1   -1    0    0  501    0  0.00000000000E+00  0.00000000000E+00  0.17170176394E+01  0.17170250364E+01  0.50400000000E-02 0. -1.
         -2   -1    0    0    0  501 -0.00000000000E+00 -0.00000000000E+00 -0.90502487522E+03  0.90502487522E+03  0.25500000000E-02 0.  1.
        -24    2    1    2    0    0  0.35527136788E-14 -0.17763568394E-14 -0.90330785758E+03  0.90674190026E+03  0.78840269661E+02 0.  0.
         66    2    3    3    0    0 -0.28207893736E+02  0.15340639005E+02 -0.71443921210E+03  0.71516320394E+03  0.20000022148E+01 0.  0.
         13    1    3    3    0    0  0.28207893736E+02 -0.15340639005E+02 -0.18886864547E+03  0.19157869631E+03  0.10566000000E+00 0. -1.
         13    1    4    4    0    0 -0.64735710018E+01  0.38087862437E+01 -0.15182538056E+03  0.15201108946E+03  0.10566000000E+00 0. -1.
        -13    1    4    4    0    0 -0.19005851664E+02  0.10312465819E+02 -0.49069889013E+03  0.49117510247E+03  0.10566000000E+00 0.  1.
        -14    1    4    4    0    0 -0.27284710705E+01  0.12193869421E+01 -0.71914941421E+02  0.71977012014E+02  0.00000000000E+00 0.  1.
<mgrwt>
<rscale>  0 0.78840270E+02</rscale>
<asrwt>0</asrwt>
<pdfrwt beam="1">  1        1 0.26415785E-03 0.78840270E+02</pdfrwt>
<pdfrwt beam="2">  1       -2 0.13923422E+00 0.78840270E+02</pdfrwt>
<totfact> 0.30306204E+04</totfact>
</mgrwt>
</event>
<event>
 8    1  0.1241100E-024  0.7982835E+02  0.7818608E-02  0.1329539E+00
         -2   -1    0    0    0  501 -0.00000000000E+00  0.00000000000E+00  0.43340169389E+03  0.43340169390E+03  0.25500000000E-02 0.  1.
          1   -1    0    0  501    0  0.00000000000E+00 -0.00000000000E+00 -0.36758984708E+01  0.36759019259E+01  0.50400000000E-02 0. -1.
        -24    2    1    2    0    0  0.35527136788E-14 -0.17763568394E-14  0.42972579542E+03  0.43707759582E+03  0.79828350365E+02 0.  0.
         66    2    3    3    0    0  0.25397887346E+02 -0.14848485881E+02  0.36248375794E+03  0.36368118594E+03  0.20000064682E+01 0.  0.
         13    1    3    3    0    0 -0.25397887346E+02  0.14848485881E+02  0.67242037482E+02  0.73396409881E+02  0.10566000000E+00 0. -1.
         13    1    4    4    0    0  0.10290121161E+02 -0.63953437986E+01  0.14340520881E+03  0.14391612868E+03  0.10566000000E+00 0. -1.
        -13    1    4    4    0    0  0.10476956818E+02 -0.54354153546E+01  0.14344268965E+03  0.14392750516E+03  0.10566000000E+00 0.  1.
        -14    1    4    4    0    0  0.46308093667E+01 -0.30177267274E+01  0.75635859470E+02  0.75837552095E+02  0.00000000000E+00 0.  1.
<mgrwt>
<rscale>  0 0.79828350E+02</rscale>
<asrwt>0</asrwt>
<pdfrwt beam="1">  1        1 0.56552333E-03 0.79828350E+02</pdfrwt>
<pdfrwt beam="2">  1       -2 0.66677157E-01 0.79828350E+02</pdfrwt>
<totfact> 0.56264427E+04</totfact>
</mgrwt>
</event>
<event>
 8    1  0.1241100E-024  0.7959279E+02  0.7818608E-02  0.1330211E+00
         -2   -1    0    0    0  501 -0.00000000000E+00  0.00000000000E+00  0.89070162875E+01  0.89070166525E+01  0.25500000000E-02 0.  1.
          1   -1    0    0  501    0  0.00000000000E+00 -0.00000000000E+00 -0.17780961398E+03  0.17780961405E+03  0.50400000000E-02 0. -1.
        -24    2    1    2    0    0 -0.71054273576E-14  0.00000000000E+00 -0.16890259769E+03  0.18671663070E+03  0.79592792852E+02 0.  0.
         66    2    3    3    0    0  0.37782566480E+02 -0.97551027554E+01 -0.66475535367E+02  0.77108243158E+02  0.20000002744E+01 0.  0.
         13    1    3    3    0    0 -0.37782566480E+02  0.97551027554E+01 -0.10242706232E+03  0.10960838754E+03  0.10566000000E+00 0. -1.
         13    1    4    4    0    0  0.12320763829E+02 -0.40301911999E+01 -0.21600576117E+02  0.25192056587E+02  0.10566000000E+00 0. -1.
        -13    1    4    4    0    0  0.93015577032E+01 -0.23015740876E+01 -0.16945736315E+02  0.19467546386E+02  0.10566000000E+00 0.  1.
         14    1    4    4    0    0  0.16160244947E+02 -0.34233374679E+01 -0.27929222935E+02  0.32448640186E+02  0.00000000000E+00 0. -1.
<mgrwt>
<rscale>  0 0.79592793E+02</rscale>
<asrwt>0</asrwt>
<pdfrwt beam="1">  1        1 0.27355323E-01 0.79592793E+02</pdfrwt>
<pdfrwt beam="2">  1       -2 0.13703104E-02 0.79592793E+02</pdfrwt>
<totfact> 0.16522981E+05</totfact>
</mgrwt>
</event>
<event>
 8    1  0.1241100E-024  0.7939658E+02  0.7818608E-02  0.1330773E+00
          1   -1    0    0  501    0  0.00000000000E+00  0.00000000000E+00  0.12269260553E+03  0.12269260564E+03  0.50400000000E-02 0. -1.
         -2   -1    0    0    0  501 -0.00000000000E+00 -0.00000000000E+00 -0.12844736223E+02  0.12844736476E+02  0.25500000000E-02 0.  1.
        -24    2    1    2    0    0  0.00000000000E+00  0.00000000000E+00  0.10984786931E+03  0.13553734211E+03  0.79396578738E+02 0.  0.
         66    2    3    3    0    0 -0.21344254983E+01 -0.31837249086E+02  0.14713884226E+02  0.35194666827E+02  0.19999956212E+01 0.  0.
         13    1    3    3    0    0  0.21344254983E+01  0.31837249086E+02  0.95133985086E+02  0.10034267529E+03  0.10566000000E+00 0. -1.
         13    1    4    4    0    0 -0.13347694786E+01 -0.16883110152E+02  0.82730388560E+01  0.18848749399E+02  0.10566000000E+00 0.  1.
        -13    1    4    4    0    0  0.69156199222E-01 -0.66638369014E+01  0.33094623695E+01  0.74414521458E+01  0.10566000000E+00 0. -1.
         14    1    4    4    0    0 -0.86881221889E+00 -0.82903020324E+01  0.31313830002E+01  0.89044652817E+01  0.00000000000E+00 0. -1.
<mgrwt>
<rscale>  0 0.79396579E+02</rscale>
<asrwt>0</asrwt>
<pdfrwt beam="1">  1        1 0.18875787E-01 0.79396579E+02</pdfrwt>
<pdfrwt beam="2">  1       -2 0.19761132E-02 0.79396579E+02</pdfrwt>
<totfact> 0.15538361E+05</totfact>
</mgrwt>
</event>
<event>
 8    1  0.1241100E-024  0.7989956E+02  0.7818608E-02  0.1329337E+00
         -2   -1    0    0    0  501 -0.00000000000E+00  0.00000000000E+00  0.12198521918E+02  0.12198522185E+02  0.25500000000E-02 0.  1.
          1   -1    0    0  501    0  0.00000000000E+00 -0.00000000000E+00 -0.13083428191E+03  0.13083428201E+03  0.50400000000E-02 0. -1.
        -24    2    1    2    0    0 -0.35527136788E-14 -0.35527136788E-14 -0.11863576000E+03  0.14303280420E+03  0.79899558987E+02 0.  0.
         66    2    3    3    0    0 -0.26915592551E+02  0.29454328331E+02 -0.56840206097E+02  0.69475287751E+02  0.19999997757E+01 0.  0.
         13    1    3    3    0    0  0.26915592551E+02 -0.29454328331E+02 -0.61795553899E+02  0.73557516445E+02  0.10566000000E+00 0. -1.
         13    1    4    4    0    0 -0.12180666636E+02  0.13323858629E+02 -0.24656156299E+02  0.30558649446E+02  0.10566000000E+00 0. -1.
        -13    1    4    4    0    0 -0.12302436001E+02  0.12794327308E+02 -0.26205108026E+02  0.31650649180E+02  0.10566000000E+00 0.  1.
        -14    1    4    4    0    0 -0.24324899142E+01  0.33361423944E+01 -0.59789417719E+01  0.72659891254E+01  0.00000000000E+00 0.  1.
<mgrwt>
<rscale>  0 0.79899559E+02</rscale>
<asrwt>0</asrwt>
<pdfrwt beam="1">  1        1 0.20128350E-01 0.79899559E+02</pdfrwt>
<pdfrwt beam="2">  1       -2 0.18766958E-02 0.79899559E+02</pdfrwt>
<totfact> 0.15452670E+05</totfact>
</mgrwt>
</event>
<event>
 8    1  0.1241100E-024  0.7776895E+02  0.7818608E-02  0.1335505E+00
         -2   -1    0    0    0  501 -0.00000000000E+00  0.00000000000E+00  0.11551809038E+03  0.11551809041E+03  0.25500000000E-02 0.  1.
          1   -1    0    0  501    0  0.00000000000E+00 -0.00000000000E+00 -0.13088878478E+02  0.13088879448E+02  0.50400000000E-02 0. -1.
        -24    2    1    2    0    0  0.35527136788E-14  0.35527136788E-14  0.10242921191E+03  0.12860696986E+03  0.77768947819E+02 0.  0.
         66    2    3    3    0    0  0.23051862366E+02 -0.26995014001E+02  0.77389401907E+02  0.85165947907E+02  0.20000039798E+01 0.  0.
         13    1    3    3    0    0 -0.23051862366E+02  0.26995014001E+02  0.25039809998E+02  0.43441021952E+02  0.10566000000E+00 0. -1.
         13    1    4    4    0    0  0.10045120692E+02 -0.11788905513E+02  0.32245232630E+02  0.35772181011E+02  0.10566000000E+00 0. -1.
        -13    1    4    4    0    0  0.32405337677E+01 -0.31342829497E+01  0.96439033965E+01  0.10646164824E+02  0.10566000000E+00 0.  1.
        -14    1    4    4    0    0  0.97662079063E+01 -0.12071825539E+02  0.35500265881E+02  0.38747602072E+02  0.00000000000E+00 0.  1.
<mgrwt>
<rscale>  0 0.77768948E+02</rscale>
<asrwt>0</asrwt>
<pdfrwt beam="1">  1        1 0.20136737E-02 0.77768948E+02</pdfrwt>
<pdfrwt beam="2">  1       -2 0.17772014E-01 0.77768948E+02</pdfrwt>
<totfact> 0.10990345E+05</totfact>
</mgrwt>
</event>
<event>
 8    1  0.1241100E-024  0.7938771E+02  0.7818608E-02  0.1330798E+00
         -2   -1    0    0    0  501 -0.00000000000E+00  0.00000000000E+00  0.77000944782E+02  0.77000944824E+02  0.25500000000E-02 0.  1.
          1   -1    0    0  501    0  0.00000000000E+00 -0.00000000000E+00 -0.20462111311E+02  0.20462111931E+02  0.50400000000E-02 0. -1.
        -24    2    1    2    0    0  0.00000000000E+00  0.44408920985E-15  0.56538833471E+02  0.97463056756E+02  0.79387705231E+02 0.  0.
         66    2    3    3    0    0  0.20211872381E+02  0.36681521166E+01  0.69949463601E+02  0.72930806765E+02  0.19999980376E+01 0.  0.
         13    1    3    3    0    0 -0.20211872381E+02 -0.36681521166E+01 -0.13410630130E+02  0.24532249991E+02  0.10566000000E+00 0. -1.
         13    1    4    4    0    0  0.26597233622E+00  0.81885571965E-01  0.13611814084E+01  0.13933504199E+01  0.10566000000E+00 0. -1.
        -13    1    4    4    0    0  0.64379045782E+01  0.10360367107E+01  0.24718652505E+02  0.25564485779E+02  0.10566000000E+00 0.  1.
        -14    1    4    4    0    0  0.13507995467E+02  0.25502298340E+01  0.43869629687E+02  0.45972970566E+02  0.00000000000E+00 0.  1.
<mgrwt>
<rscale>  0 0.79387705E+02</rscale>
<asrwt>0</asrwt>
<pdfrwt beam="1">  1        1 0.31480172E-02 0.79387705E+02</pdfrwt>
<pdfrwt beam="2">  1       -2 0.11846299E-01 0.79387705E+02</pdfrwt>
<totfact> 0.11490209E+05</totfact>
</mgrwt>
</event>
<event>
 8    1  0.1241100E-024  0.8561637E+02  0.7818608E-02  0.1313828E+00
          1   -1    0    0  501    0  0.00000000000E+00  0.00000000000E+00  0.37476651924E+02  0.37476652263E+02  0.50400000000E-02 0. -1.
         -2   -1    0    0    0  501 -0.00000000000E+00 -0.00000000000E+00 -0.48898199872E+02  0.48898199938E+02  0.25500000000E-02 0.  1.
        -24    2    1    2    0    0  0.00000000000E+00  0.00000000000E+00 -0.11421547948E+02  0.86374852201E+02  0.85616373055E+02 0.  0.
         66    2    3    3    0    0  0.26112873796E+02 -0.29420988917E+01 -0.39776848526E+02  0.47715152788E+02  0.20000007998E+01 0.  0.
         13    1    3    3    0    0 -0.26112873796E+02  0.29420988917E+01  0.28355300578E+02  0.38659699412E+02  0.10566000000E+00 0. -1.
         13    1    4    4    0    0  0.52285087649E+00 -0.96610422913E-01 -0.11449569091E+01  0.12668058147E+01  0.10566000000E+00 0. -1.
        -13    1    4    4    0    0  0.18972890708E+02 -0.18741723441E+01 -0.27520602559E+02  0.33479513632E+02  0.10566000000E+00 0.  1.
        -14    1    4    4    0    0  0.66171322115E+01 -0.97131612470E+00 -0.11111289058E+02  0.12968833342E+02  0.00000000000E+00 0.  1.
<mgrwt>
<rscale>  0 0.85616373E+02</rscale>
<asrwt>0</asrwt>
<pdfrwt beam="1">  1        1 0.57656388E-02 0.85616373E+02</pdfrwt>
<pdfrwt beam="2">  1       -2 0.75228000E-02 0.85616373E+02</pdfrwt>
<totfact> 0.10354849E+05</totfact>
</mgrwt>
</event>
<event>
 8    1  0.1241100E-024  0.7983777E+02  0.7818608E-02  0.1329512E+00
          1   -1    0    0  501    0  0.00000000000E+00  0.00000000000E+00  0.96126127738E+02  0.96126127870E+02  0.50400000000E-02 0. -1.
         -2   -1    0    0    0  501 -0.00000000000E+00 -0.00000000000E+00 -0.16577359535E+02  0.16577359731E+02  0.25500000000E-02 0.  1.
        -24    2    1    2    0    0 -0.35527136788E-14  0.00000000000E+00  0.79548768203E+02  0.11270348760E+03  0.79837770478E+02 0.  0.
         66    2    3    3    0    0  0.23309033792E+02  0.46084714485E+01 -0.54390417791E+01  0.24456742194E+02  0.19999994623E+01 0.  0.
         13    1    3    3    0    0 -0.23309033792E+02 -0.46084714485E+01  0.84987809982E+02  0.88246745407E+02  0.10566000000E+00 0. -1.
         13    1    4    4    0    0  0.65888256538E+01  0.18647904893E+01 -0.13662024975E+01  0.69833903203E+01  0.10566000000E+00 0. -1.
        -13    1    4    4    0    0  0.48527811668E+01  0.13776027425E+01 -0.12781187560E+01  0.52050000921E+01  0.10566000000E+00 0.  1.
         14    1    4    4    0    0  0.11867426972E+02  0.13660782167E+01 -0.27947205256E+01  0.12268351782E+02  0.00000000000E+00 0. -1.
<mgrwt>
<rscale>  0 0.79837770E+02</rscale>
<asrwt>0</asrwt>
<pdfrwt beam="1">  1        1 0.14788635E-01 0.79837770E+02</pdfrwt>
<pdfrwt beam="2">  1       -2 0.25503630E-02 0.79837770E+02</pdfrwt>
<totfact> 0.14682594E+05</totfact>
</mgrwt>
</event>
<event>
 8    1  0.1241100E-024  0.8134343E+02  0.7818608E-02  0.1325282E+00
         -2   -1    0    0    0  501 -0.00000000000E+00  0.00000000000E+00  0.18142531507E+02  0.18142531686E+02  0.25500000000E-02 0.  1.
          1   -1    0    0  501    0  0.00000000000E+00 -0.00000000000E+00 -0.91177364927E+02  0.91177365067E+02  0.50400000000E-02 0. -1.
        -24    2    1    2    0    0  0.17763568394E-14  0.00000000000E+00 -0.73034833420E+02  0.10931989675E+03  0.81343425877E+02 0.  0.
         66    2    3    3    0    0 -0.12585080746E+02  0.25652882228E+02  0.23122127499E+01  0.28736752395E+02  0.19999966121E+01 0.  0.
         13    1    3    3    0    0  0.12585080746E+02 -0.25652882228E+02 -0.75347046170E+02  0.80583144358E+02  0.10566000000E+00 0. -1.
         13    1    4    4    0    0 -0.52843196524E+01  0.90964173580E+01  0.53889067099E+00  0.10534249386E+02  0.10566000000E+00 0. -1.
        -13    1    4    4    0    0 -0.11949270560E+01  0.30683318317E+01  0.61580582311E+00  0.33515506479E+01  0.10566000000E+00 0.  1.
         14    1    4    4    0    0 -0.61058340375E+01  0.13488133038E+02  0.11575162558E+01  0.14850952361E+02  0.00000000000E+00 0. -1.
<mgrwt>
<rscale>  0 0.81343426E+02</rscale>
<asrwt>0</asrwt>
<pdfrwt beam="1">  1        1 0.14027287E-01 0.81343426E+02</pdfrwt>
<pdfrwt beam="2">  1       -2 0.27911588E-02 0.81343426E+02</pdfrwt>
<totfact> 0.13835072E+05</totfact>
</mgrwt>
</event>
<event>
 8    1  0.1241100E-024  0.7475794E+02  0.7818608E-02  0.1344622E+00
         -2   -1    0    0    0  501 -0.00000000000E+00  0.00000000000E+00  0.64159045967E+02  0.64159046018E+02  0.25500000000E-02 0.  1.
          1   -1    0    0  501    0  0.00000000000E+00 -0.00000000000E+00 -0.21776932677E+02  0.21776933260E+02  0.50400000000E-02 0. -1.
        -24    2    1    2    0    0 -0.44408920985E-15  0.35527136788E-14  0.42382113290E+02  0.85935979278E+02  0.74757936084E+02 0.  0.
         66    2    3    3    0    0 -0.31298742683E+01  0.25318541287E+02  0.52568530076E+02  0.58466015740E+02  0.19999990761E+01 0.  0.
         13    1    3    3    0    0  0.31298742683E+01 -0.25318541287E+02 -0.10186416786E+02  0.27469963538E+02  0.10566000000E+00 0. -1.
         13    1    4    4    0    0 -0.88882816853E+00  0.63140993862E+01  0.14214024240E+02  0.15579073005E+02  0.10566000000E+00 0. -1.
        -13    1    4    4    0    0 -0.12250165871E+01  0.96153942911E+01  0.17855615203E+02  0.20317249601E+02  0.10566000000E+00 0.  1.
        -14    1    4    4    0    0 -0.10160295126E+01  0.93890476093E+01  0.20498890633E+02  0.22569693134E+02  0.00000000000E+00 0.  1.
<mgrwt>
<rscale>  0 0.74757936E+02</rscale>
<asrwt>0</asrwt>
<pdfrwt beam="1">  1        1 0.33502974E-02 0.74757936E+02</pdfrwt>
<pdfrwt beam="2">  1       -2 0.98706224E-02 0.74757936E+02</pdfrwt>
<totfact> 0.13877461E+05</totfact>
</mgrwt>
</event>
<event>
 8    1  0.1241100E-024  0.7913831E+02  0.7818608E-02  0.1331515E+00
         -2   -1    0    0    0  501 -0.00000000000E+00  0.00000000000E+00  0.35475867523E+03  0.35475867524E+03  0.25500000000E-02 0.  1.
          1   -1    0    0  501    0  0.00000000000E+00 -0.00000000000E+00 -0.44134721484E+01  0.44134750261E+01  0.50400000000E-02 0. -1.
        -24    2    1    2    0    0  0.71054273576E-14  0.00000000000E+00  0.35034520308E+03  0.35917215026E+03  0.79138310595E+02 0.  0.
         66    2    3    3    0    0 -0.27126848787E+02 -0.21316603781E+02  0.26299068707E+03  0.26525151274E+03  0.20000005595E+01 0.  0.
         13    1    3    3    0    0  0.27126848787E+02  0.21316603781E+02  0.87354516008E+02  0.93920637524E+02  0.10566000000E+00 0. -1.
         13    1    4    4    0    0 -0.34725686674E+01 -0.23256316527E+01  0.35426966832E+02  0.35672796900E+02  0.10566000000E+00 0. -1.
        -13    1    4    4    0    0 -0.20514113136E+02 -0.16522969400E+02  0.19504942311E+03  0.19682003448E+03  0.10566000000E+00 0.  1.
         14    1    4    4    0    0 -0.31401669836E+01 -0.24680027291E+01  0.32514297132E+02  0.32758681356E+02  0.00000000000E+00 0. -1.
<mgrwt>
<rscale>  0 0.79138311E+02</rscale>
<asrwt>0</asrwt>
<pdfrwt beam="1">  1        1 0.67899593E-03 0.79138311E+02</pdfrwt>
<pdfrwt beam="2">  1       -2 0.54578259E-01 0.79138311E+02</pdfrwt>
<totfact> 0.65597508E+04</totfact>
</mgrwt>
</event>
<event>
 8    1  0.1241100E-024  0.7935325E+02  0.7818608E-02  0.1330897E+00
          1   -1    0    0  501    0  0.00000000000E+00  0.00000000000E+00  0.51092315460E+02  0.51092315709E+02  0.50400000000E-02 0. -1.
         -2   -1    0    0    0  501 -0.00000000000E+00 -0.00000000000E+00 -0.30811570895E+02  0.30811571001E+02  0.25500000000E-02 0.  1.
        -24    2    1    2    0    0  0.00000000000E+00 -0.17763568394E-14  0.20280744565E+02  0.81903886709E+02  0.79353248566E+02 0.  0.
         66    2    3    3    0    0 -0.30110612894E+02  0.15714102105E+02 -0.10971753162E+02  0.35748585909E+02  0.20000033016E+01 0.  0.
         13    1    3    3    0    0  0.30110612894E+02 -0.15714102105E+02  0.31252497727E+02  0.46155300801E+02  0.10566000000E+00 0. -1.
         13    1    4    4    0    0 -0.19465353558E+02  0.96545773259E+01 -0.66750534707E+01  0.22730559944E+02  0.10566000000E+00 0. -1.
        -13    1    4    4    0    0 -0.51827213212E+01  0.28957969420E+01 -0.15708115593E+01  0.61420561063E+01  0.10566000000E+00 0.  1.
         14    1    4    4    0    0 -0.54625380148E+01  0.31637278368E+01 -0.27258881322E+01  0.68759698587E+01  0.00000000000E+00 0. -1.
<mgrwt>
<rscale>  0 0.79353249E+02</rscale>
<asrwt>0</asrwt>
<pdfrwt beam="1">  1        1 0.78603563E-02 0.79353249E+02</pdfrwt>
<pdfrwt beam="2">  1       -2 0.47402417E-02 0.79353249E+02</pdfrwt>
<totfact> 0.13502797E+05</totfact>
</mgrwt>
</event>
<event>
 8    1  0.1241100E-024  0.7814517E+02  0.7818608E-02  0.1334399E+00
         -2   -1    0    0    0  501 -0.00000000000E+00  0.00000000000E+00  0.11694300641E+03  0.11694300644E+03  0.25500000000E-02 0.  1.
          1   -1    0    0  501    0  0.00000000000E+00 -0.00000000000E+00 -0.13054792768E+02  0.13054793741E+02  0.50400000000E-02 0. -1.
        -24    2    1    2    0    0 -0.88817841970E-15  0.00000000000E+00  0.10388821364E+03  0.12999780018E+03  0.78145166950E+02 0.  0.
         66    2    3    3    0    0  0.47789559424E+01  0.37730185495E+02  0.66694186866E+02  0.76801821861E+02  0.19999905220E+01 0.  0.
         13    1    3    3    0    0 -0.47789559424E+01 -0.37730185495E+02  0.37194026774E+02  0.53195978317E+02  0.10566000000E+00 0. -1.
         13    1    4    4    0    0  0.18573202408E+01  0.18961508777E+02  0.33209587049E+02  0.38286763895E+02  0.10566000000E+00 0. -1.
        -13    1    4    4    0    0  0.61901147073E+00  0.57135512935E+01  0.11083569826E+02  0.12485372550E+02  0.10566000000E+00 0.  1.
        -14    1    4    4    0    0  0.23026242309E+01  0.13055125424E+02  0.22401029991E+02  0.26029685416E+02  0.00000000000E+00 0.  1.
<mgrwt>
<rscale>  0 0.78145167E+02</rscale>
<asrwt>0</asrwt>
<pdfrwt beam="1">  1        1 0.20084297E-02 0.78145167E+02</pdfrwt>
<pdfrwt beam="2">  1       -2 0.17991232E-01 0.78145167E+02</pdfrwt>
<totfact> 0.10818962E+05</totfact>
</mgrwt>
</event>
<event>
 8    1  0.1241100E-024  0.7973384E+02  0.7818608E-02  0.1329808E+00
         -2   -1    0    0    0  501 -0.00000000000E+00  0.00000000000E+00  0.13898098519E+03  0.13898098522E+03  0.25500000000E-02 0.  1.
          1   -1    0    0  501    0  0.00000000000E+00 -0.00000000000E+00 -0.11435889277E+02  0.11435890387E+02  0.50400000000E-02 0. -1.
        -24    2    1    2    0    0  0.17763568394E-14 -0.88817841970E-15  0.12754509591E+03  0.15041687560E+03  0.79733838325E+02 0.  0.
         66    2    3    3    0    0  0.14201573372E+02 -0.45735974581E+01  0.13350451424E+03  0.13435050355E+03  0.20000003546E+01 0.  0.
         13    1    3    3    0    0 -0.14201573372E+02  0.45735974581E+01 -0.59594183296E+01  0.16066372049E+02  0.10566000000E+00 0. -1.
         13    1    4    4    0    0  0.22833522753E+01 -0.37473376664E+00  0.22359335814E+02  0.22478994308E+02  0.10566000000E+00 0. -1.
        -13    1    4    4    0    0  0.11417958591E+02 -0.36632388500E+01  0.10526029662E+03  0.10594116436E+03  0.10566000000E+00 0.  1.
        -14    1    4    4    0    0  0.50026250585E+00 -0.53562484140E+00  0.58848818108E+01  0.59303448864E+01  0.00000000000E+00 0.  1.
<mgrwt>
<rscale>  0 0.79733838E+02</rscale>
<asrwt>0</asrwt>
<pdfrwt beam="1">  1        1 0.17593677E-02 0.79733838E+02</pdfrwt>
<pdfrwt beam="2">  1       -2 0.21381690E-01 0.79733838E+02</pdfrwt>
<totfact> 0.97678771E+04</totfact>
</mgrwt>
</event>
<event>
 8    1  0.1241100E-024  0.7775759E+02  0.7818608E-02  0.1335538E+00
         -2   -1    0    0    0  501 -0.00000000000E+00  0.00000000000E+00  0.36376967926E+02  0.36376968015E+02  0.25500000000E-02 0.  1.
          1   -1    0    0  501    0  0.00000000000E+00 -0.00000000000E+00 -0.41552687421E+02  0.41552687726E+02  0.50400000000E-02 0. -1.
        -24    2    1    2    0    0  0.00000000000E+00  0.00000000000E+00 -0.51757194951E+01  0.77929655741E+02  0.77757592373E+02 0.  0.
         66    2    3    3    0    0  0.12526691320E+02 -0.12224165356E+02  0.32174473339E+02  0.36681670544E+02  0.20000012839E+01 0.  0.
         13    1    3    3    0    0 -0.12526691320E+02  0.12224165356E+02 -0.37350192834E+02  0.41247985198E+02  0.10566000000E+00 0. -1.
         13    1    4    4    0    0  0.29453467492E+01 -0.21253373726E+01  0.70174780009E+01  0.79024229163E+01  0.10566000000E+00 0. -1.
        -13    1    4    4    0    0  0.24389690509E+01 -0.33965628100E+01  0.75654638932E+01  0.86448028843E+01  0.10566000000E+00 0.  1.
        -14    1    4    4    0    0  0.71423755195E+01 -0.67022651734E+01  0.17591531445E+02  0.20134444743E+02  0.00000000000E+00 0.  1.
<mgrwt>
<rscale>  0 0.77757592E+02</rscale>
<asrwt>0</asrwt>
<pdfrwt beam="1">  1        1 0.63927211E-02 0.77757592E+02</pdfrwt>
<pdfrwt beam="2">  1       -2 0.55964567E-02 0.77757592E+02</pdfrwt>
<totfact> 0.13835861E+05</totfact>
</mgrwt>
</event>
<event>
 8    1  0.1241100E-024  0.7844169E+02  0.7818608E-02  0.1333533E+00
         -2   -1    0    0    0  501 -0.00000000000E+00  0.00000000000E+00  0.14855118971E+03  0.14855118973E+03  0.25500000000E-02 0.  1.
          1   -1    0    0  501    0  0.00000000000E+00 -0.00000000000E+00 -0.10355180875E+02  0.10355182101E+02  0.50400000000E-02 0. -1.
        -24    2    1    2    0    0  0.35527136788E-14  0.00000000000E+00  0.13819600883E+03  0.15890637183E+03  0.78441686311E+02 0.  0.
         66    2    3    3    0    0 -0.26540763288E+02  0.16866913954E+02  0.11653782629E+03  0.12072269813E+03  0.19999963453E+01 0.  0.
         13    1    3    3    0    0  0.26540763288E+02 -0.16866913954E+02  0.21658182546E+02  0.38183673704E+02  0.10566000000E+00 0. -1.
         13    1    4    4    0    0 -0.12709507097E+02  0.85414391434E+01  0.59694644555E+02  0.61627506082E+02  0.10566000000E+00 0. -1.
        -13    1    4    4    0    0 -0.17720553868E+01  0.13031369025E+01  0.80196652771E+01  0.83165221862E+01  0.10566000000E+00 0.  1.
         14    1    4    4    0    0 -0.12059200805E+02  0.70223379078E+01  0.48823516457E+02  0.50778669862E+02  0.00000000000E+00 0. -1.
<mgrwt>
<rscale>  0 0.78441686E+02</rscale>
<asrwt>0</asrwt>
<pdfrwt beam="1">  1        1 0.15931049E-02 0.78441686E+02</pdfrwt>
<pdfrwt beam="2">  1       -2 0.22854028E-01 0.78441686E+02</pdfrwt>
<totfact> 0.99731389E+04</totfact>
</mgrwt>
</event>
<event>
 8    1  0.1241100E-024  0.7773904E+02  0.7818608E-02  0.1335593E+00
          1   -1    0    0  501    0  0.00000000000E+00  0.00000000000E+00  0.51025645400E+01  0.51025670291E+01  0.50400000000E-02 0. -1.
         -2   -1    0    0    0  501 -0.00000000000E+00 -0.00000000000E+00 -0.29609406933E+03  0.29609406934E+03  0.25500000000E-02 0.  1.
        -24    2    1    2    0    0 -0.22204460493E-15  0.00000000000E+00 -0.29099150479E+03  0.30119663637E+03  0.77739037174E+02 0.  0.
         66    2    3    3    0    0  0.19780536038E+01 -0.31149083050E+02 -0.23517948275E+03  0.23725000988E+03  0.20000028721E+01 0.  0.
         13    1    3    3    0    0 -0.19780536038E+01  0.31149083050E+02 -0.55812022037E+02  0.63946626485E+02  0.10566000000E+00 0. -1.
         13    1    4    4    0    0  0.93513940201E+00 -0.18770629696E+02 -0.14753350443E+03  0.14872577826E+03  0.10566000000E+00 0. -1.
        -13    1    4    4    0    0  0.17679875735E+00 -0.50056336285E+01 -0.34050335077E+02  0.34416916025E+02  0.10566000000E+00 0.  1.
         14    1    4    4    0    0  0.86611544444E+00 -0.73728197254E+01 -0.53595643245E+02  0.54107315600E+02  0.00000000000E+00 0. -1.
<mgrwt>
<rscale>  0 0.77739037E+02</rscale>
<asrwt>0</asrwt>
<pdfrwt beam="1">  1        1 0.78501035E-03 0.77739037E+02</pdfrwt>
<pdfrwt beam="2">  1       -2 0.45552920E-01 0.77739037E+02</pdfrwt>
<totfact> 0.76205092E+04</totfact>
</mgrwt>
</event>
<event>
 8    1  0.1241100E-024  0.8084149E+02  0.7818608E-02  0.1326680E+00
         -2   -1    0    0    0  501 -0.00000000000E+00  0.00000000000E+00  0.10606548528E+02  0.10606548835E+02  0.25500000000E-02 0.  1.
          1   -1    0    0  501    0  0.00000000000E+00 -0.00000000000E+00 -0.15404036221E+03  0.15404036229E+03  0.50400000000E-02 0. -1.
        -24    2    1    2    0    0  0.00000000000E+00 -0.35527136788E-14 -0.14343381368E+03  0.16464691112E+03  0.80841489573E+02 0.  0.
         66    2    3    3    0    0 -0.26254878670E+02  0.30586553656E+02 -0.77139824636E+02  0.87059798368E+02  0.20000071339E+01 0.  0.
         13    1    3    3    0    0  0.26254878670E+02 -0.30586553656E+02 -0.66293989043E+02  0.77587112756E+02  0.10566000000E+00 0. -1.
         13    1    4    4    0    0 -0.20064016907E+01  0.25681620433E+01 -0.58099391754E+01  0.66624065684E+01  0.10566000000E+00 0. -1.
        -13    1    4    4    0    0 -0.23719587404E+02  0.27714121271E+02 -0.70273931813E+02  0.79177825185E+02  0.10566000000E+00 0.  1.
         14    1    4    4    0    0 -0.52888957568E+00  0.30427034164E+00 -0.10559536472E+01  0.12195666153E+01  0.00000000000E+00 0. -1.
<mgrwt>
<rscale>  0 0.80841490E+02</rscale>
<asrwt>0</asrwt>
<pdfrwt beam="1">  1        1 0.23698516E-01 0.80841490E+02</pdfrwt>
<pdfrwt beam="2">  1       -2 0.16317768E-02 0.80841490E+02</pdfrwt>
<totfact> 0.15428811E+05</totfact>
</mgrwt>
</event>
<event>
 8    1  0.1241100E-024  0.8133160E+02  0.7818608E-02  0.1325314E+00
         -2   -1    0    0    0  501 -0.00000000000E+00  0.00000000000E+00  0.12283527850E+03  0.12283527852E+03  0.25500000000E-02 0.  1.
          1   -1    0    0  501    0  0.00000000000E+00 -0.00000000000E+00 -0.13462802792E+02  0.13462803736E+02  0.50400000000E-02 0. -1.
        -24    2    1    2    0    0  0.13877787808E-16 -0.71054273576E-14  0.10937247570E+03  0.13629808226E+03  0.81331597708E+02 0.  0.
         66    2    3    3    0    0  0.76651741632E-01 -0.37767259786E+02  0.79875143414E+02  0.88376525904E+02  0.20000020307E+01 0.  0.
         13    1    3    3    0    0 -0.76651741632E-01  0.37767259786E+02  0.29497332289E+02  0.47921556354E+02  0.10566000000E+00 0. -1.
         13    1    4    4    0    0 -0.22675668702E+00 -0.15813075219E+02  0.34193864590E+02  0.37674080030E+02  0.10566000000E+00 0. -1.
        -13    1    4    4    0    0  0.45410448124E+00 -0.20906481829E+02  0.43985823590E+02  0.48703706576E+02  0.10566000000E+00 0.  1.
         14    1    4    4    0    0 -0.15069605259E+00 -0.10477027375E+01  0.16954552347E+01  0.19987392975E+01  0.00000000000E+00 0. -1.
<mgrwt>
<rscale>  0 0.81331598E+02</rscale>
<asrwt>0</asrwt>
<pdfrwt beam="1">  1        1 0.20712005E-02 0.81331598E+02</pdfrwt>
<pdfrwt beam="2">  1       -2 0.18897735E-01 0.81331598E+02</pdfrwt>
<totfact> 0.96308059E+04</totfact>
</mgrwt>
</event>
<event>
 8    1  0.1241100E-024  0.7823241E+02  0.7818608E-02  0.1334144E+00
         -2   -1    0    0    0  501 -0.00000000000E+00  0.00000000000E+00  0.89571336823E+03  0.89571336824E+03  0.25500000000E-02 0.  1.
          1   -1    0    0  501    0  0.00000000000E+00 -0.00000000000E+00 -0.17082185785E+01  0.17082260136E+01  0.50400000000E-02 0. -1.
        -24    2    1    2    0    0  0.00000000000E+00  0.00000000000E+00  0.89400514965E+03  0.89742159425E+03  0.78232411557E+02 0.  0.
         66    2    3    3    0    0  0.20334074486E+02  0.11375085359E+02  0.80735251699E+03  0.80769112527E+03  0.19999983878E+01 0.  0.
         13    1    3    3    0    0 -0.20334074486E+02 -0.11375085359E+02  0.86652632660E+02  0.89730468978E+02  0.10566000000E+00 0. -1.
         13    1    4    4    0    0  0.11830051535E+02  0.66827951293E+01  0.45417727600E+03  0.45438047831E+03  0.10566000000E+00 0. -1.
        -13    1    4    4    0    0  0.68646799499E+01  0.38317809279E+01  0.30063564000E+03  0.30073843382E+03  0.10566000000E+00 0.  1.
         14    1    4    4    0    0  0.16393430010E+01  0.86050930180E+00  0.52539600989E+02  0.52572213134E+02  0.00000000000E+00 0. -1.
<mgrwt>
<rscale>  0 0.78232412E+02</rscale>
<asrwt>0</asrwt>
<pdfrwt beam="1">  1        1 0.26280263E-03 0.78232412E+02</pdfrwt>
<pdfrwt beam="2">  1       -2 0.13780247E+00 0.78232412E+02</pdfrwt>
<totfact> 0.31267885E+04</totfact>
</mgrwt>
</event>
<event>
 8    1  0.1241100E-024  0.7973507E+02  0.7818608E-02  0.1329805E+00
         -2   -1    0    0    0  501 -0.00000000000E+00  0.00000000000E+00  0.36627084706E+02  0.36627084795E+02  0.25500000000E-02 0.  1.
          1   -1    0    0  501    0  0.00000000000E+00 -0.00000000000E+00 -0.43394667990E+02  0.43394668283E+02  0.50400000000E-02 0. -1.
        -24    2    1    2    0    0  0.00000000000E+00  0.00000000000E+00 -0.67675832838E+01  0.80021753078E+02  0.79735066202E+02 0.  0.
         66    2    3    3    0    0  0.78914436201E+01  0.22787236055E+02  0.28443765183E+02  0.37344086385E+02  0.20000001814E+01 0.  0.
         13    1    3    3    0    0 -0.78914436201E+01 -0.22787236055E+02 -0.35211348467E+02  0.42677666693E+02  0.10566000000E+00 0. -1.
         13    1    4    4    0    0  0.30115495589E+01  0.69449130239E+01  0.97242765457E+01  0.12323715593E+02  0.10566000000E+00 0.  1.
        -13    1    4    4    0    0  0.24093713716E+01  0.63753255190E+01  0.78161678038E+01  0.10370799827E+02  0.10566000000E+00 0. -1.
        -14    1    4    4    0    0  0.24705226897E+01  0.94669975116E+01  0.10903320834E+02  0.14649570965E+02  0.00000000000E+00 0.  1.
<mgrwt>
<rscale>  0 0.79735066E+02</rscale>
<asrwt>0</asrwt>
<pdfrwt beam="1">  1        1 0.66761029E-02 0.79735066E+02</pdfrwt>
<pdfrwt beam="2">  1       -2 0.56349361E-02 0.79735066E+02</pdfrwt>
<totfact> 0.12985332E+05</totfact>
</mgrwt>
</event>
<event>
 8    1  0.1241100E-024  0.7937120E+02  0.7818608E-02  0.1330845E+00
          1   -1    0    0  501    0  0.00000000000E+00  0.00000000000E+00  0.65107505238E+02  0.65107505433E+02  0.50400000000E-02 0. -1.
         -2   -1    0    0    0  501 -0.00000000000E+00 -0.00000000000E+00 -0.24189942149E+02  0.24189942283E+02  0.25500000000E-02 0.  1.
        -24    2    1    2    0    0  0.00000000000E+00 -0.88817841970E-15  0.40917563089E+02  0.89297447716E+02  0.79371198803E+02 0.  0.
         66    2    3    3    0    0  0.19939190118E+02  0.48562511668E+01 -0.17710580132E+02  0.27181227454E+02  0.19999998420E+01 0.  0.
         13    1    3    3    0    0 -0.19939190118E+02 -0.48562511668E+01  0.58628143222E+02  0.62116220262E+02  0.10566000000E+00 0. -1.
         13    1    4    4    0    0  0.45784935391E+01  0.84923631429E+00 -0.33226649126E+01  0.57214571188E+01  0.10566000000E+00 0. -1.
        -13    1    4    4    0    0  0.98826222550E+01  0.31644111910E+01 -0.95429236311E+01  0.14098165706E+02  0.10566000000E+00 0.  1.
        -14    1    4    4    0    0  0.54780743236E+01  0.84260366155E+00 -0.48449915885E+01  0.73616046293E+01  0.00000000000E+00 0.  1.
<mgrwt>
<rscale>  0 0.79371199E+02</rscale>
<asrwt>0</asrwt>
<pdfrwt beam="1">  1        1 0.10016539E-01 0.79371199E+02</pdfrwt>
<pdfrwt beam="2">  1       -2 0.37215296E-02 0.79371199E+02</pdfrwt>
<totfact> 0.14013290E+05</totfact>
</mgrwt>
</event>
<event>
 8    1  0.1241100E-024  0.8055996E+02  0.7818608E-02  0.1327470E+00
         -2   -1    0    0    0  501 -0.00000000000E+00  0.00000000000E+00  0.49397392747E+02  0.49397392812E+02  0.25500000000E-02 0.  1.
          1   -1    0    0  501    0  0.00000000000E+00 -0.00000000000E+00 -0.32845396843E+02  0.32845397229E+02  0.50400000000E-02 0. -1.
        -24    2    1    2    0    0  0.00000000000E+00 -0.17763568394E-14  0.16551995904E+02  0.82242790042E+02  0.80559964905E+02 0.  0.
         66    2    3    3    0    0  0.19194567469E+02  0.93078556584E+01  0.43132217206E+02  0.48160728400E+02  0.20000004094E+01 0.  0.
         13    1    3    3    0    0 -0.19194567469E+02 -0.93078556584E+01 -0.26580221302E+02  0.34082061642E+02  0.10566000000E+00 0. -1.
         13    1    4    4    0    0  0.85033932322E+00  0.18937898847E+00  0.13941128571E+01  0.16473178381E+01  0.10566000000E+00 0. -1.
        -13    1    4    4    0    0  0.35615150626E+01  0.15426604946E+01  0.68850396113E+01  0.79043738163E+01  0.10566000000E+00 0. -1.
        -14    1    4    4    0    0  0.14782713083E+02  0.75758161754E+01  0.34853064738E+02  0.38609036745E+02  0.00000000000E+00 0.  1.
<mgrwt>
<rscale>  0 0.80559965E+02</rscale>
<asrwt>0</asrwt>
<pdfrwt beam="1">  1        1 0.50531380E-02 0.80559965E+02</pdfrwt>
<pdfrwt beam="2">  1       -2 0.75995989E-02 0.80559965E+02</pdfrwt>
<totfact> 0.12044801E+05</totfact>
</mgrwt>
</event>
<event>
 8    1  0.1241100E-024  0.7982883E+02  0.7818608E-02  0.1329538E+00
          1   -1    0    0  501    0  0.00000000000E+00  0.00000000000E+00  0.15358960257E+03  0.15358960265E+03  0.50400000000E-02 0. -1.
         -2   -1    0    0    0  501 -0.00000000000E+00 -0.00000000000E+00 -0.10372839662E+02  0.10372839975E+02  0.25500000000E-02 0.  1.
        -24    2    1    2    0    0 -0.35527136788E-14  0.00000000000E+00  0.14321676290E+03  0.16396244263E+03  0.79828825712E+02 0.  0.
         66    2    3    3    0    0 -0.27438836842E+02 -0.76265138574E+01  0.14286445646E+02  0.31924223335E+02  0.20000063738E+01 0.  0.
         13    1    3    3    0    0  0.27438836842E+02  0.76265138574E+01  0.12893031726E+03  0.13203821929E+03  0.10566000000E+00 0. -1.
         13    1    4    4    0    0 -0.16260874647E+02 -0.54868259559E+01  0.87613525091E+01  0.19268984540E+02  0.10566000000E+00 0. -1.
        -13    1    4    4    0    0 -0.56103499140E+01 -0.96747911646E+00  0.26563475006E+01  0.62832625346E+01  0.10566000000E+00 0.  1.
         14    1    4    4    0    0 -0.55676122804E+01 -0.11722087850E+01  0.28687456367E+01  0.63719762608E+01  0.00000000000E+00 0. -1.
<mgrwt>
<rscale>  0 0.79828826E+02</rscale>
<asrwt>0</asrwt>
<pdfrwt beam="1">  1        1 0.23629172E-01 0.79828826E+02</pdfrwt>
<pdfrwt beam="2">  1       -2 0.15958214E-02 0.79828826E+02</pdfrwt>
<totfact> 0.15948614E+05</totfact>
</mgrwt>
</event>
<event>
 8    1  0.1241100E-024  0.8035354E+02  0.7818608E-02  0.1328051E+00
         -2   -1    0    0    0  501 -0.00000000000E+00  0.00000000000E+00  0.11441358790E+02  0.11441359074E+02  0.25500000000E-02 0.  1.
          1   -1    0    0  501    0  0.00000000000E+00 -0.00000000000E+00 -0.14108225504E+03  0.14108225513E+03  0.50400000000E-02 0. -1.
        -24    2    1    2    0    0  0.71054273576E-14  0.00000000000E+00 -0.12964089625E+03  0.15252361421E+03  0.80353537005E+02 0.  0.
         66    2    3    3    0    0  0.40141612765E+02 -0.42340441509E+00 -0.63342660281E+02  0.75018804009E+02  0.19999992173E+01 0.  0.
         13    1    3    3    0    0 -0.40141612765E+02  0.42340441509E+00 -0.66298235972E+02  0.77504810197E+02  0.10566000000E+00 0. -1.
         13    1    4    4    0    0  0.35340167145E+01 -0.45795229861E+00 -0.56747078541E+01  0.67016764851E+01  0.10566000000E+00 0. -1.
        -13    1    4    4    0    0  0.21753910779E+02 -0.54745867034E+00 -0.34632168304E+02  0.40901474187E+02  0.10566000000E+00 0.  1.
        -14    1    4    4    0    0  0.14853685271E+02  0.58200655387E+00 -0.23035784123E+02  0.27415653337E+02  0.00000000000E+00 0.  1.
<mgrwt>
<rscale>  0 0.80353537E+02</rscale>
<asrwt>0</asrwt>
<pdfrwt beam="1">  1        1 0.21704961E-01 0.80353537E+02</pdfrwt>
<pdfrwt beam="2">  1       -2 0.17602092E-02 0.80353537E+02</pdfrwt>
<totfact> 0.15428810E+05</totfact>
</mgrwt>
</event>
<event>
 8    1  0.1241100E-024  0.7968029E+02  0.7818608E-02  0.1329961E+00
          1   -1    0    0  501    0  0.00000000000E+00  0.00000000000E+00  0.26661557232E+03  0.26661557236E+03  0.50400000000E-02 0. -1.
         -2   -1    0    0    0  501 -0.00000000000E+00 -0.00000000000E+00 -0.59532795112E+01  0.59532800573E+01  0.25500000000E-02 0.  1.
        -24    2    1    2    0    0  0.00000000000E+00  0.71054273576E-14  0.26066229281E+03  0.27256885242E+03  0.79680288779E+02 0.  0.
         66    2    3    3    0    0 -0.19312883797E+02 -0.34694620382E+02  0.12042341973E+03  0.12681681350E+03  0.20000007818E+01 0.  0.
         13    1    3    3    0    0  0.19312883797E+02  0.34694620382E+02  0.14023887308E+03  0.14575203892E+03  0.10566000000E+00 0. -1.
         13    1    4    4    0    0 -0.64564584084E+01 -0.11693170704E+02  0.40947390537E+02  0.43071058173E+02  0.10566000000E+00 0. -1.
        -13    1    4    4    0    0 -0.58829179322E+01 -0.12126462552E+02  0.40095969526E+02  0.42300800864E+02  0.10566000000E+00 0.  1.
         14    1    4    4    0    0 -0.69735074560E+01 -0.10874987125E+02  0.39380059665E+02  0.41444954463E+02  0.00000000000E+00 0. -1.
<mgrwt>
<rscale>  0 0.79680289E+02</rscale>
<asrwt>0</asrwt>
<pdfrwt beam="1">  1        1 0.41017785E-01 0.79680289E+02</pdfrwt>
<pdfrwt beam="2">  1       -2 0.91588909E-03 0.79680289E+02</pdfrwt>
<totfact> 0.17822831E+05</totfact>
</mgrwt>
</event>
<event>
 8    1  0.1241100E-024  0.8071013E+02  0.7818608E-02  0.1327048E+00
          1   -1    0    0  501    0  0.00000000000E+00  0.00000000000E+00  0.49505023551E+02  0.49505023808E+02  0.50400000000E-02 0. -1.
         -2   -1    0    0    0  501 -0.00000000000E+00 -0.00000000000E+00 -0.32896285798E+02  0.32896285897E+02  0.25500000000E-02 0.  1.
        -24    2    1    2    0    0 -0.35527136788E-14 -0.35527136788E-14  0.16608737753E+02  0.82401309704E+02  0.80710133634E+02 0.  0.
         66    2    3    3    0    0  0.16479762039E+02  0.23625116767E+02 -0.20509624997E+02  0.35417134534E+02  0.20000004932E+01 0.  0.
         13    1    3    3    0    0 -0.16479762039E+02 -0.23625116767E+02  0.37118362751E+02  0.46984175170E+02  0.10566000000E+00 0. -1.
         13    1    4    4    0    0  0.27324583159E+01  0.40090730002E+01 -0.28023750434E+01  0.56038794320E+01  0.10566000000E+00 0.  1.
        -13    1    4    4    0    0  0.60434633105E+01  0.93461203764E+01 -0.87747102279E+01  0.14173218353E+02  0.10566000000E+00 0.  1.
         14    1    4    4    0    0  0.77038404125E+01  0.10269923390E+02 -0.89325397257E+01  0.15640036749E+02  0.00000000000E+00 0. -1.
<mgrwt>
<rscale>  0 0.80710134E+02</rscale>
<asrwt>0</asrwt>
<pdfrwt beam="1">  1        1 0.76161575E-02 0.80710134E+02</pdfrwt>
<pdfrwt beam="2">  1       -2 0.50609670E-02 0.80710134E+02</pdfrwt>
<totfact> 0.12817139E+05</totfact>
</mgrwt>
</event>
<event>
 8    1  0.1241100E-024  0.8013887E+02  0.7818608E-02  0.1328658E+00
          1   -1    0    0  501    0  0.00000000000E+00  0.00000000000E+00  0.65473944379E+02  0.65473944573E+02  0.50400000000E-02 0. -1.
         -2   -1    0    0    0  501 -0.00000000000E+00 -0.00000000000E+00 -0.24522115403E+02  0.24522115535E+02  0.25500000000E-02 0.  1.
        -24    2    1    2    0    0  0.71054273576E-14  0.00000000000E+00  0.40951828976E+02  0.89996060108E+02  0.80138870334E+02 0.  0.
         66    2    3    3    0    0 -0.32516093074E+02  0.18066940482E+02  0.38377354143E+01  0.37449150093E+02  0.19999955946E+01 0.  0.
         13    1    3    3    0    0  0.32516093074E+02 -0.18066940482E+02  0.37114093562E+02  0.52546910015E+02  0.10566000000E+00 0. -1.
         13    1    4    4    0    0 -0.92321121388E+01  0.46616593379E+01  0.15411673805E+01  0.10457022676E+02  0.10566000000E+00 0. -1.
        -13    1    4    4    0    0 -0.14897964381E+02  0.80318549760E+01  0.11098468866E+01  0.16961808901E+02  0.10566000000E+00 0.  1.
         14    1    4    4    0    0 -0.83860165541E+01  0.53734261685E+01  0.11867211472E+01  0.10030318515E+02  0.00000000000E+00 0. -1.
<mgrwt>
<rscale>  0 0.80138870E+02</rscale>
<asrwt>0</asrwt>
<pdfrwt beam="1">  1        1 0.10072914E-01 0.80138870E+02</pdfrwt>
<pdfrwt beam="2">  1       -2 0.37726332E-02 0.80138870E+02</pdfrwt>
<totfact> 0.13659933E+05</totfact>
</mgrwt>
</event>
<event>
 8    1  0.1241100E-024  0.7918923E+02  0.7818608E-02  0.1331368E+00
          1   -1    0    0  501    0  0.00000000000E+00  0.00000000000E+00  0.78650254118E+01  0.78650270267E+01  0.50400000000E-02 0. -1.
         -2   -1    0    0    0  501 -0.00000000000E+00 -0.00000000000E+00 -0.19932974615E+03  0.19932974617E+03  0.25500000000E-02 0.  1.
        -24    2    1    2    0    0  0.17763568394E-14 -0.71054273576E-14 -0.19146472074E+03  0.20719477319E+03  0.79189233808E+02 0.  0.
         66    2    3    3    0    0  0.13548209722E+02 -0.37177502687E+02 -0.95558626369E+02  0.10344646818E+03  0.20000029588E+01 0.  0.
         13    1    3    3    0    0 -0.13548209722E+02  0.37177502687E+02 -0.95906094369E+02  0.10374830502E+03  0.10566000000E+00 0. -1.
         13    1    4    4    0    0  0.73748098246E+01 -0.18113696508E+02 -0.46137299521E+02  0.50111429757E+02  0.10566000000E+00 0. -1.
        -13    1    4    4    0    0  0.54399201539E+01 -0.16312380510E+02 -0.41778182086E+02  0.45178691345E+02  0.10566000000E+00 0.  1.
         14    1    4    4    0    0  0.73347974368E+00 -0.27514256689E+01 -0.76431447616E+01  0.81563470740E+01  0.00000000000E+00 0. -1.
<mgrwt>
<rscale>  0 0.79189234E+02</rscale>
<asrwt>0</asrwt>
<pdfrwt beam="1">  1        1 0.12100042E-02 0.79189234E+02</pdfrwt>
<pdfrwt beam="2">  1       -2 0.30666111E-01 0.79189234E+02</pdfrwt>
<totfact> 0.87459274E+04</totfact>
</mgrwt>
</event>
<event>
 8    1  0.1241100E-024  0.7951493E+02  0.7818608E-02  0.1330434E+00
         -2   -1    0    0    0  501 -0.00000000000E+00  0.00000000000E+00  0.14814844921E+03  0.14814844924E+03  0.25500000000E-02 0.  1.
          1   -1    0    0  501    0  0.00000000000E+00 -0.00000000000E+00 -0.10669405782E+02  0.10669406973E+02  0.50400000000E-02 0. -1.
        -24    2    1    2    0    0  0.35527136788E-14  0.00000000000E+00  0.13747904343E+03  0.15881785621E+03  0.79514929843E+02 0.  0.
         66    2    3    3    0    0 -0.22411038792E+02 -0.30041785352E+01  0.13403707981E+03  0.13594564543E+03  0.19999996669E+01 0.  0.
         13    1    3    3    0    0  0.22411038792E+02  0.30041785352E+01  0.34419636231E+01  0.22872210781E+02  0.10566000000E+00 0. -1.
         13    1    4    4    0    0 -0.91613741276E+01 -0.10320624647E+01  0.57412188890E+02  0.58147798979E+02  0.10566000000E+00 0. -1.
        -13    1    4    4    0    0 -0.64702496147E+01 -0.93112329836E+00  0.41126778489E+02  0.41643177035E+02  0.10566000000E+00 0.  1.
        -14    1    4    4    0    0 -0.67794150497E+01 -0.10409927722E+01  0.35498112430E+02  0.36154669415E+02  0.00000000000E+00 0.  1.
<mgrwt>
<rscale>  0 0.79514930E+02</rscale>
<asrwt>0</asrwt>
<pdfrwt beam="1">  1        1 0.16414471E-02 0.79514930E+02</pdfrwt>
<pdfrwt beam="2">  1       -2 0.22792070E-01 0.79514930E+02</pdfrwt>
<totfact> 0.96391638E+04</totfact>
</mgrwt>
</event>
<event>
 8    1  0.1241100E-024  0.8090700E+02  0.7818608E-02  0.1326497E+00
          1   -1    0    0  501    0  0.00000000000E+00  0.00000000000E+00  0.35282536933E+01  0.35282572930E+01  0.50400000000E-02 0. -1.
         -2   -1    0    0    0  501 -0.00000000000E+00 -0.00000000000E+00 -0.46382287165E+03  0.46382287166E+03  0.25500000000E-02 0.  1.
        -24    2    1    2    0    0  0.00000000000E+00 -0.35527136788E-14 -0.46029461796E+03  0.46735112895E+03  0.80906998529E+02 0.  0.
         66    2    3    3    0    0 -0.10129995949E+02 -0.17288342726E+02 -0.43311872193E+03  0.43358658984E+03  0.19999988861E+01 0.  0.
         13    1    3    3    0    0  0.10129995949E+02  0.17288342726E+02 -0.27175896034E+02  0.33764539112E+02  0.10566000000E+00 0. -1.
         13    1    4    4    0    0 -0.48219120093E+01 -0.84032220552E+01 -0.22585836690E+03  0.22606609219E+03  0.10566000000E+00 0. -1.
        -13    1    4    4    0    0 -0.21418237962E+01 -0.30504085071E+01 -0.68420273196E+02  0.68521802001E+02  0.10566000000E+00 0.  1.
        -14    1    4    4    0    0 -0.31662601440E+01 -0.58347121634E+01 -0.13884008183E+03  0.13899869565E+03  0.00000000000E+00 0.  1.
<mgrwt>
<rscale>  0 0.80906999E+02</rscale>
<asrwt>0</asrwt>
<pdfrwt beam="1">  1        1 0.54280891E-03 0.80906999E+02</pdfrwt>
<pdfrwt beam="2">  1       -2 0.71357316E-01 0.80906999E+02</pdfrwt>
<totfact> 0.51772726E+04</totfact>
</mgrwt>
</event>
<event>
 8    1  0.1241100E-024  0.7934243E+02  0.7818608E-02  0.1330928E+00
         -2   -1    0    0    0  501 -0.00000000000E+00  0.00000000000E+00  0.12909244715E+02  0.12909244967E+02  0.25500000000E-02 0.  1.
          1   -1    0    0  501    0  0.00000000000E+00 -0.00000000000E+00 -0.12191304300E+03  0.12191304310E+03  0.50400000000E-02 0. -1.
        -24    2    1    2    0    0  0.00000000000E+00  0.17763568394E-14 -0.10900379828E+03  0.13482228807E+03  0.79342430768E+02 0.  0.
         66    2    3    3    0    0 -0.36843633993E+02  0.11273767780E+02 -0.38664243219E+02  0.54621194707E+02  0.20000004535E+01 0.  0.
         13    1    3    3    0    0  0.36843633993E+02 -0.11273767780E+02 -0.70339555064E+02  0.80201093361E+02  0.10566000000E+00 0. -1.
         13    1    4    4    0    0 -0.15345462851E+02  0.44130657919E+01 -0.17103885939E+02  0.23398984124E+02  0.10566000000E+00 0. -1.
        -13    1    4    4    0    0 -0.19875802525E+02  0.63653655018E+01 -0.19617312062E+02  0.28642896162E+02  0.10566000000E+00 0.  1.
         14    1    4    4    0    0 -0.16223686172E+01  0.49533648677E+00 -0.19430452183E+01  0.25793144216E+01  0.00000000000E+00 0. -1.
<mgrwt>
<rscale>  0 0.79342431E+02</rscale>
<asrwt>0</asrwt>
<pdfrwt beam="1">  1        1 0.18755852E-01 0.79342431E+02</pdfrwt>
<pdfrwt beam="2">  1       -2 0.19860378E-02 0.79342431E+02</pdfrwt>
<totfact> 0.15549396E+05</totfact>
</mgrwt>
</event>
<event>
 8    1  0.1241100E-024  0.8020685E+02  0.7818608E-02  0.1328465E+00
          1   -1    0    0  501    0  0.00000000000E+00  0.00000000000E+00  0.25434296896E+03  0.25434296901E+03  0.50400000000E-02 0. -1.
         -2   -1    0    0    0  501 -0.00000000000E+00 -0.00000000000E+00 -0.63232909828E+01  0.63232914970E+01  0.25500000000E-02 0.  1.
        -24    2    1    2    0    0  0.00000000000E+00  0.00000000000E+00  0.24801967798E+03  0.26066626050E+03  0.80206849475E+02 0.  0.
         66    2    3    3    0    0 -0.25694196449E+02  0.21620193149E+02  0.52984247619E+02  0.62761094475E+02  0.20000002481E+01 0.  0.
         13    1    3    3    0    0  0.25694196449E+02 -0.21620193149E+02  0.19503543036E+03  0.19790516603E+03  0.10566000000E+00 0. -1.
         13    1    4    4    0    0 -0.33615629064E+01  0.21779940865E+01  0.67844511466E+01  0.78793213420E+01  0.10566000000E+00 0. -1.
        -13    1    4    4    0    0 -0.22567592311E+01  0.19857787855E+01  0.42298188636E+01  0.51902611945E+01  0.10566000000E+00 0.  1.
         14    1    4    4    0    0 -0.20075874312E+02  0.17456420277E+02  0.41969977609E+02  0.49691511939E+02  0.00000000000E+00 0. -1.
<mgrwt>
<rscale>  0 0.80206849E+02</rscale>
<asrwt>0</asrwt>
<pdfrwt beam="1">  1        1 0.39129693E-01 0.80206849E+02</pdfrwt>
<pdfrwt beam="2">  1       -2 0.97281392E-03 0.80206849E+02</pdfrwt>
<totfact> 0.17354849E+05</totfact>
</mgrwt>
</event>
<event>
 8    1  0.1241100E-024  0.7643288E+02  0.7818608E-02  0.1339490E+00
         -2   -1    0    0    0  501 -0.00000000000E+00  0.00000000000E+00  0.52522819137E+02  0.52522819199E+02  0.25500000000E-02 0.  1.
          1   -1    0    0  501    0  0.00000000000E+00 -0.00000000000E+00 -0.27806891247E+02  0.27806891704E+02  0.50400000000E-02 0. -1.
        -24    2    1    2    0    0  0.35527136788E-14 -0.35527136788E-14  0.24715927890E+02  0.80329710903E+02  0.76432881421E+02 0.  0.
         66    2    3    3    0    0 -0.18176599509E+02  0.29681777369E+02  0.28887075028E+02  0.45275377219E+02  0.20000002950E+01 0.  0.
         13    1    3    3    0    0  0.18176599509E+02 -0.29681777369E+02 -0.41711471382E+01  0.35054333684E+02  0.10566000000E+00 0. -1.
         13    1    4    4    0    0 -0.85425271825E+01  0.14495002139E+02  0.14749862547E+02  0.22375197583E+02  0.10566000000E+00 0. -1.
        -13    1    4    4    0    0 -0.68847209267E+01  0.11654807096E+02  0.10796694386E+02  0.17315128772E+02  0.10566000000E+00 0.  1.
         14    1    4    4    0    0 -0.27493513996E+01  0.35319681343E+01  0.33405180945E+01  0.55850508646E+01  0.00000000000E+00 0. -1.
<mgrwt>
<rscale>  0 0.76432881E+02</rscale>
<asrwt>0</asrwt>
<pdfrwt beam="1">  1        1 0.42779834E-02 0.76432881E+02</pdfrwt>
<pdfrwt beam="2">  1       -2 0.80804336E-02 0.76432881E+02</pdfrwt>
<totfact> 0.13603712E+05</totfact>
</mgrwt>
</event>
<event>
 8    1  0.1241100E-024  0.7919796E+02  0.7818608E-02  0.1331343E+00
         -2   -1    0    0    0  501 -0.00000000000E+00  0.00000000000E+00  0.14035750560E+03  0.14035750563E+03  0.25500000000E-02 0.  1.
          1   -1    0    0  501    0  0.00000000000E+00 -0.00000000000E+00 -0.11172035147E+02  0.11172036284E+02  0.50400000000E-02 0. -1.
        -24    2    1    2    0    0 -0.71054273576E-14  0.00000000000E+00  0.12918547046E+03  0.15152954191E+03  0.79197956379E+02 0.  0.
         66    2    3    3    0    0  0.37846836321E+02  0.96822752275E+01  0.52541408807E+02  0.65503657299E+02  0.20000017602E+01 0.  0.
         13    1    3    3    0    0 -0.37846836321E+02 -0.96822752275E+01  0.76644061648E+02  0.86025884611E+02  0.10566000000E+00 0. -1.
         13    1    4    4    0    0  0.82382802546E+01  0.26002055110E+01  0.10929304342E+02  0.13931661340E+02  0.10566000000E+00 0.  1.
        -13    1    4    4    0    0  0.90487190911E+01  0.18429963332E+01  0.11938327187E+02  0.15093401629E+02  0.10566000000E+00 0. -1.
        -14    1    4    4    0    0  0.20559836975E+02  0.52390733834E+01  0.29673777278E+02  0.36478594330E+02  0.00000000000E+00 0.  1.
<mgrwt>
<rscale>  0 0.79197956E+02</rscale>
<asrwt>0</asrwt>
<pdfrwt beam="1">  1        1 0.17187747E-02 0.79197956E+02</pdfrwt>
<pdfrwt beam="2">  1       -2 0.21593463E-01 0.79197956E+02</pdfrwt>
<totfact> 0.99081468E+04</totfact>
</mgrwt>
</event>
<event>
 8    1  0.1241100E-024  0.7712155E+02  0.7818608E-02  0.1337424E+00
         -2   -1    0    0    0  501 -0.00000000000E+00  0.00000000000E+00  0.50163953484E+03  0.50163953485E+03  0.25500000000E-02 0.  1.
          1   -1    0    0  501    0  0.00000000000E+00 -0.00000000000E+00 -0.29641445595E+01  0.29641488443E+01  0.50400000000E-02 0. -1.
        -24    2    1    2    0    0  0.35527136788E-14  0.00000000000E+00  0.49867539028E+03  0.50460368369E+03  0.77121545127E+02 0.  0.
         66    2    3    3    0    0  0.21458468429E+02  0.10868153557E+02  0.44648467985E+03  0.44713661444E+03  0.20000005865E+01 0.  0.
         13    1    3    3    0    0 -0.21458468429E+02 -0.10868153557E+02  0.52190710427E+02  0.57467069248E+02  0.10566000000E+00 0. -1.
         13    1    4    4    0    0  0.84473254366E+01  0.45216419223E+01  0.17697143874E+03  0.17723065154E+03  0.10566000000E+00 0. -1.
        -13    1    4    4    0    0  0.99523713457E+01  0.55351448040E+01  0.20919091620E+03  0.20950068761E+03  0.10566000000E+00 0.  1.
         14    1    4    4    0    0  0.30587716466E+01  0.81136683039E+00  0.60322324908E+02  0.60405275286E+02  0.00000000000E+00 0. -1.
<mgrwt>
<rscale>  0 0.77121545E+02</rscale>
<asrwt>0</asrwt>
<pdfrwt beam="1">  1        1 0.45602259E-03 0.77121545E+02</pdfrwt>
<pdfrwt beam="2">  1       -2 0.77175310E-01 0.77121545E+02</pdfrwt>
<totfact> 0.55243986E+04</totfact>
</mgrwt>
</event>
<event>
 8    1  0.1241100E-024  0.7869170E+02  0.7818608E-02  0.1332806E+00
          1   -1    0    0  501    0  0.00000000000E+00  0.00000000000E+00  0.10413269346E+02  0.10413270566E+02  0.50400000000E-02 0. -1.
         -2   -1    0    0    0  501 -0.00000000000E+00 -0.00000000000E+00 -0.14866566951E+03  0.14866566953E+03  0.25500000000E-02 0.  1.
        -24    2    1    2    0    0  0.00000000000E+00  0.00000000000E+00 -0.13825240016E+03  0.15907894010E+03  0.78691696077E+02 0.  0.
         66    2    3    3    0    0  0.59406698771E+01 -0.13123364239E+02 -0.14313217370E+03  0.14386915373E+03  0.20000001321E+01 0.  0.
         13    1    3    3    0    0 -0.59406698771E+01  0.13123364239E+02  0.48797735332E+01  0.15209786367E+02  0.10566000000E+00 0. -1.
         13    1    4    4    0    0  0.27559131968E+00 -0.19238985485E+01 -0.22036544147E+02  0.22122336634E+02  0.10566000000E+00 0. -1.
        -13    1    4    4    0    0  0.41341785117E+01 -0.79449093164E+01 -0.89551153936E+02  0.89997963040E+02  0.10566000000E+00 0.  1.
         14    1    4    4    0    0  0.15309000458E+01 -0.32545563742E+01 -0.31544475613E+02  0.31748854056E+02  0.00000000000E+00 0. -1.
<mgrwt>
<rscale>  0 0.78691696E+02</rscale>
<asrwt>0</asrwt>
<pdfrwt beam="1">  1        1 0.16020417E-02 0.78691696E+02</pdfrwt>
<pdfrwt beam="2">  1       -2 0.22871640E-01 0.78691696E+02</pdfrwt>
<totfact> 0.98894005E+04</totfact>
</mgrwt>
</event>
<event>
 8    1  0.1241100E-024  0.7626155E+02  0.7818608E-02  0.1340008E+00
          1   -1    0    0  501    0  0.00000000000E+00  0.00000000000E+00  0.71349005530E+02  0.71349005708E+02  0.50400000000E-02 0. -1.
         -2   -1    0    0    0  501 -0.00000000000E+00 -0.00000000000E+00 -0.20378084929E+02  0.20378085088E+02  0.25500000000E-02 0.  1.
        -24    2    1    2    0    0  0.35527136788E-14  0.00000000000E+00  0.50970920602E+02  0.91727090797E+02  0.76261552823E+02 0.  0.
         66    2    3    3    0    0  0.31240521578E+02 -0.44530094189E+00 -0.73298143580E+00  0.31316221482E+02  0.19999961883E+01 0.  0.
         13    1    3    3    0    0 -0.31240521578E+02  0.44530094189E+00  0.51703902038E+02  0.60410869314E+02  0.10566000000E+00 0. -1.
         13    1    4    4    0    0  0.12860781793E+02  0.36040172816E+00  0.11616893947E+00  0.12866788916E+02  0.10566000000E+00 0. -1.
        -13    1    4    4    0    0  0.56348715630E+01 -0.39542313932E+00 -0.73604094268E+00  0.56974606006E+01  0.10566000000E+00 0.  1.
        -14    1    4    4    0    0  0.12744868221E+02 -0.41027953072E+00 -0.11310943259E+00  0.12751971966E+02  0.00000000000E+00 0.  1.
<mgrwt>
<rscale>  0 0.76261553E+02</rscale>
<asrwt>0</asrwt>
<pdfrwt beam="1">  1        1 0.10976770E-01 0.76261553E+02</pdfrwt>
<pdfrwt beam="2">  1       -2 0.31350900E-02 0.76261553E+02</pdfrwt>
<totfact> 0.15851664E+05</totfact>
</mgrwt>
</event>
<event>
 8    1  0.1241100E-024  0.8284998E+02  0.7818608E-02  0.1321153E+00
          1   -1    0    0  501    0  0.00000000000E+00  0.00000000000E+00  0.12602185054E+02  0.12602186062E+02  0.50400000000E-02 0. -1.
         -2   -1    0    0    0  501 -0.00000000000E+00 -0.00000000000E+00 -0.13616923177E+03  0.13616923179E+03  0.25500000000E-02 0.  1.
        -24    2    1    2    0    0  0.00000000000E+00  0.71054273576E-14 -0.12356704671E+03  0.14877141785E+03  0.82849983322E+02 0.  0.
         66    2    3    3    0    0 -0.12828927907E+02 -0.37588786750E+02 -0.40837962286E+02  0.57002082806E+02  0.20000000030E+01 0.  0.
         13    1    3    3    0    0  0.12828927907E+02  0.37588786750E+02 -0.82729084426E+02  0.91769335045E+02  0.10566000000E+00 0. -1.
         13    1    4    4    0    0 -0.23217535741E+01 -0.50083258021E+01 -0.61346541960E+01  0.82534243280E+01  0.10566000000E+00 0. -1.
        -13    1    4    4    0    0 -0.36248572216E+01 -0.11182567182E+02 -0.12213708047E+02  0.16952145202E+02  0.10566000000E+00 0.  1.
         14    1    4    4    0    0 -0.68823171116E+01 -0.21397893766E+02 -0.22489600043E+02  0.31796513276E+02  0.00000000000E+00 0. -1.
<mgrwt>
<rscale>  0 0.82849983E+02</rscale>
<asrwt>0</asrwt>
<pdfrwt beam="1">  1        1 0.19387979E-02 0.82849983E+02</pdfrwt>
<pdfrwt beam="2">  1       -2 0.20949112E-01 0.82849983E+02</pdfrwt>
<totfact> 0.89064905E+04</totfact>
</mgrwt>
</event>
<event>
 8    1  0.1241100E-024  0.7794850E+02  0.7818608E-02  0.1334976E+00
          1   -1    0    0  501    0  0.00000000000E+00  0.00000000000E+00  0.73923397123E+02  0.73923397295E+02  0.50400000000E-02 0. -1.
         -2   -1    0    0    0  501 -0.00000000000E+00 -0.00000000000E+00 -0.20548194177E+02  0.20548194335E+02  0.25500000000E-02 0.  1.
        -24    2    1    2    0    0  0.00000000000E+00  0.35527136788E-14  0.53375202947E+02  0.94471591630E+02  0.77948504383E+02 0.  0.
         66    2    3    3    0    0 -0.13844720603E+02 -0.24538665506E+02 -0.58869636177E+01  0.28852707585E+02  0.20000002339E+01 0.  0.
         13    1    3    3    0    0  0.13844720603E+02  0.24538665506E+02  0.59262166565E+02  0.65618884045E+02  0.10566000000E+00 0. -1.
         13    1    4    4    0    0 -0.69384620883E+01 -0.13512110884E+02 -0.31731315673E+01  0.15517710033E+02  0.10566000000E+00 0.  1.
        -13    1    4    4    0    0 -0.18868772156E+00 -0.12229345241E+00 -0.43844456087E-01  0.25227983808E+00  0.10566000000E+00 0.  1.
        -14    1    4    4    0    0 -0.67175707933E+01 -0.10904261170E+02 -0.26699875943E+01  0.13082717714E+02  0.00000000000E+00 0.  1.
<mgrwt>
<rscale>  0 0.77948504E+02</rscale>
<asrwt>0</asrwt>
<pdfrwt beam="1">  1        1 0.11372831E-01 0.77948504E+02</pdfrwt>
<pdfrwt beam="2">  1       -2 0.31612606E-02 0.77948504E+02</pdfrwt>
<totfact> 0.15018341E+05</totfact>
</mgrwt>
</event>
<event>
 8    1  0.1241100E-024  0.7834377E+02  0.7818608E-02  0.1333818E+00
          1   -1    0    0  501    0  0.00000000000E+00  0.00000000000E+00  0.99360506224E+01  0.99360519007E+01  0.50400000000E-02 0. -1.
         -2   -1    0    0    0  501 -0.00000000000E+00 -0.00000000000E+00 -0.15443122202E+03  0.15443122205E+03  0.25500000000E-02 0.  1.
        -24    2    1    2    0    0 -0.35527136788E-14  0.00000000000E+00 -0.14449517140E+03  0.16436727395E+03  0.78343769286E+02 0.  0.
         66    2    3    3    0    0  0.26901260306E+02 -0.18820826406E+02 -0.11702385974E+03  0.12155856641E+03  0.20000015133E+01 0.  0.
         13    1    3    3    0    0 -0.26901260306E+02  0.18820826406E+02 -0.27471311664E+02  0.42808707540E+02  0.10566000000E+00 0. -1.
         13    1    4    4    0    0  0.27583915764E+01 -0.24167140919E+01 -0.14411338916E+02  0.14871014911E+02  0.10566000000E+00 0. -1.
        -13    1    4    4    0    0  0.61348485360E+01 -0.45986171435E+01 -0.26173265745E+02  0.27273332213E+02  0.10566000000E+00 0.  1.
        -14    1    4    4    0    0  0.18008020194E+02 -0.11805495171E+02 -0.76439255077E+02  0.79414219282E+02  0.00000000000E+00 0.  1.
<mgrwt>
<rscale>  0 0.78343769E+02</rscale>
<asrwt>0</asrwt>
<pdfrwt beam="1">  1        1 0.15286234E-02 0.78343769E+02</pdfrwt>
<pdfrwt beam="2">  1       -2 0.23758648E-01 0.78343769E+02</pdfrwt>
<totfact> 0.98777246E+04</totfact>
</mgrwt>
</event>
<event>
 8    1  0.1241100E-024  0.7955895E+02  0.7818608E-02  0.1330308E+00
         -2   -1    0    0    0  501 -0.00000000000E+00  0.00000000000E+00  0.12019590484E+03  0.12019590487E+03  0.25500000000E-02 0.  1.
          1   -1    0    0  501    0  0.00000000000E+00 -0.00000000000E+00 -0.13165228654E+02  0.13165229618E+02  0.50400000000E-02 0. -1.
        -24    2    1    2    0    0  0.00000000000E+00  0.00000000000E+00  0.10703067619E+03  0.13336113449E+03  0.79558950134E+02 0.  0.
         66    2    3    3    0    0  0.27095380010E+02 -0.87880083206E+01  0.10003344570E+03  0.10402922172E+03  0.20000010234E+01 0.  0.
         13    1    3    3    0    0 -0.27095380010E+02  0.87880083206E+01  0.69972304854E+01  0.29331912768E+02  0.10566000000E+00 0. -1.
         13    1    4    4    0    0  0.10647338118E+02 -0.38424970111E+01  0.38961824008E+02  0.40572964969E+02  0.10566000000E+00 0. -1.
        -13    1    4    4    0    0  0.13713108310E+02 -0.35961779505E+01  0.49637910267E+02  0.51622816032E+02  0.10566000000E+00 0.  1.
         14    1    4    4    0    0  0.27349335821E+01 -0.13493333589E+01  0.11433711428E+02  0.11833440719E+02  0.00000000000E+00 0. -1.
<mgrwt>
<rscale>  0 0.79558950E+02</rscale>
<asrwt>0</asrwt>
<pdfrwt beam="1">  1        1 0.20254198E-02 0.79558950E+02</pdfrwt>
<pdfrwt beam="2">  1       -2 0.18491679E-01 0.79558950E+02</pdfrwt>
<totfact> 0.10254386E+05</totfact>
</mgrwt>
</event>
<event>
 8    1  0.1241100E-024  0.7963625E+02  0.7818608E-02  0.1330087E+00
          1   -1    0    0  501    0  0.00000000000E+00  0.00000000000E+00  0.53311803188E+02  0.53311803426E+02  0.50400000000E-02 0. -1.
         -2   -1    0    0    0  501 -0.00000000000E+00 -0.00000000000E+00 -0.29739813534E+02  0.29739813643E+02  0.25500000000E-02 0.  1.
        -24    2    1    2    0    0  0.17763568394E-14  0.00000000000E+00  0.23571989654E+02  0.83051617070E+02  0.79636250550E+02 0.  0.
         66    2    3    3    0    0  0.11674890416E+02 -0.16676368717E+02 -0.23864696757E+02  0.31431323371E+02  0.19999994288E+01 0.  0.
         13    1    3    3    0    0 -0.11674890416E+02  0.16676368717E+02  0.47436686412E+02  0.51620293699E+02  0.10566000000E+00 0. -1.
         13    1    4    4    0    0  0.55861099074E+01 -0.69408875301E+01 -0.95642456992E+01  0.13071591465E+02  0.10566000000E+00 0. -1.
        -13    1    4    4    0    0  0.12248056117E+01 -0.16254729201E+01 -0.29586335006E+01  0.35926295699E+01  0.10566000000E+00 0.  1.
        -14    1    4    4    0    0  0.48639748968E+01 -0.81100082669E+01 -0.11341817558E+02  0.14767102336E+02  0.00000000000E+00 0.  1.
<mgrwt>
<rscale>  0 0.79636251E+02</rscale>
<asrwt>0</asrwt>
<pdfrwt beam="1">  1        1 0.82018158E-02 0.79636251E+02</pdfrwt>
<pdfrwt beam="2">  1       -2 0.45753560E-02 0.79636251E+02</pdfrwt>
<totfact> 0.13459155E+05</totfact>
</mgrwt>
</event>
<event>
 8    1  0.1241100E-024  0.8150900E+02  0.7818608E-02  0.1324823E+00
          1   -1    0    0  501    0  0.00000000000E+00  0.00000000000E+00  0.17708296686E+03  0.17708296693E+03  0.50400000000E-02 0. -1.
         -2   -1    0    0    0  501 -0.00000000000E+00 -0.00000000000E+00 -0.93793841430E+01  0.93793844896E+01  0.25500000000E-02 0.  1.
        -24    2    1    2    0    0 -0.35527136788E-14  0.00000000000E+00  0.16770358272E+03  0.18646235142E+03  0.81508998531E+02 0.  0.
         66    2    3    3    0    0  0.19047727206E+02 -0.32567121512E+02  0.48796835695E+02  0.61713567994E+02  0.19999963305E+01 0.  0.
         13    1    3    3    0    0 -0.19047727206E+02  0.32567121512E+02  0.11890674702E+03  0.12474878343E+03  0.10566000000E+00 0. -1.
         13    1    4    4    0    0  0.26807633828E+01 -0.52713871906E+01  0.84347185766E+01  0.10301924904E+02  0.10566000000E+00 0. -1.
        -13    1    4    4    0    0  0.48810653856E+01 -0.90329737535E+01  0.13280383289E+02  0.16786874589E+02  0.10566000000E+00 0.  1.
        -14    1    4    4    0    0  0.11485898438E+02 -0.18262760568E+02  0.27081733829E+02  0.34624768500E+02  0.00000000000E+00 0.  1.
<mgrwt>
<rscale>  0 0.81508999E+02</rscale>
<asrwt>0</asrwt>
<pdfrwt beam="1">  1        1 0.27243531E-01 0.81508999E+02</pdfrwt>
<pdfrwt beam="2">  1       -2 0.14429823E-02 0.81508999E+02</pdfrwt>
<totfact> 0.15496192E+05</totfact>
</mgrwt>
</event>
<event>
 8    1  0.1241100E-024  0.8099922E+02  0.7818608E-02  0.1326239E+00
         -2   -1    0    0    0  501 -0.00000000000E+00  0.00000000000E+00  0.93060797922E+02  0.93060797957E+02  0.25500000000E-02 0.  1.
          1   -1    0    0  501    0  0.00000000000E+00 -0.00000000000E+00 -0.17625232366E+02  0.17625233086E+02  0.50400000000E-02 0. -1.
        -24    2    1    2    0    0  0.00000000000E+00  0.00000000000E+00  0.75435565556E+02  0.11068603104E+03  0.80999215535E+02 0.  0.
         66    2    3    3    0    0 -0.29998971694E+02  0.19246420965E+02  0.63949537243E+02  0.73238694247E+02  0.19999996976E+01 0.  0.
         13    1    3    3    0    0  0.29998971694E+02 -0.19246420965E+02  0.11486028314E+02  0.37447336796E+02  0.10566000000E+00 0. -1.
         13    1    4    4    0    0 -0.36083475407E+01  0.28974628799E+01  0.90654144209E+01  0.10178819469E+02  0.10566000000E+00 0. -1.
        -13    1    4    4    0    0 -0.76114444755E+01  0.49724700259E+01  0.15605592021E+02  0.18061151999E+02  0.10566000000E+00 0.  1.
         14    1    4    4    0    0 -0.18779179677E+02  0.11376488060E+02  0.39278530801E+02  0.44998722780E+02  0.00000000000E+00 0. -1.
<mgrwt>
<rscale>  0 0.80999216E+02</rscale>
<asrwt>0</asrwt>
<pdfrwt beam="1">  1        1 0.27115743E-02 0.80999216E+02</pdfrwt>
<pdfrwt beam="2">  1       -2 0.14317046E-01 0.80999216E+02</pdfrwt>
<totfact> 0.10462329E+05</totfact>
</mgrwt>
</event>
<event>
 8    1  0.1241100E-024  0.8505958E+02  0.7818608E-02  0.1315277E+00
         -2   -1    0    0    0  501 -0.00000000000E+00  0.00000000000E+00  0.20053253403E+03  0.20053253405E+03  0.25500000000E-02 0.  1.
          1   -1    0    0  501    0  0.00000000000E+00 -0.00000000000E+00 -0.90198964331E+01  0.90198978412E+01  0.50400000000E-02 0. -1.
        -24    2    1    2    0    0  0.35527136788E-14  0.00000000000E+00  0.19151263760E+03  0.20955243189E+03  0.85059575302E+02 0.  0.
         66    2    3    3    0    0  0.27680241469E+02 -0.19365003796E+02  0.15936695987E+03  0.16292030883E+03  0.19999982462E+01 0.  0.
         13    1    3    3    0    0 -0.27680241469E+02  0.19365003796E+02  0.32145677727E+02  0.46632123052E+02  0.10566000000E+00 0. -1.
         13    1    4    4    0    0  0.51838481566E+01 -0.27982128404E+01  0.27027039334E+02  0.27661784036E+02  0.10566000000E+00 0. -1.
        -13    1    4    4    0    0  0.56878104563E+01 -0.45180434002E+01  0.34920362630E+02  0.35668007993E+02  0.10566000000E+00 0.  1.
         14    1    4    4    0    0  0.16808582856E+02 -0.12048747556E+02  0.97419557904E+02  0.99590516805E+02  0.00000000000E+00 0. -1.
<mgrwt>
<rscale>  0 0.85059575E+02</rscale>
<asrwt>0</asrwt>
<pdfrwt beam="1">  1        1 0.13876764E-02 0.85059575E+02</pdfrwt>
<pdfrwt beam="2">  1       -2 0.30851160E-01 0.85059575E+02</pdfrwt>
<totfact> 0.72528600E+04</totfact>
</mgrwt>
</event>
<event>
 8    1  0.1241100E-024  0.7901030E+02  0.7818608E-02  0.1331884E+00
         -2   -1    0    0    0  501 -0.00000000000E+00  0.00000000000E+00  0.83944458491E+01  0.83944462364E+01  0.25500000000E-02 0.  1.
          1   -1    0    0  501    0  0.00000000000E+00 -0.00000000000E+00 -0.18591540083E+03  0.18591540089E+03  0.50400000000E-02 0. -1.
        -24    2    1    2    0    0  0.00000000000E+00  0.11102230246E-15 -0.17752095498E+03  0.19430984713E+03  0.79010298291E+02 0.  0.
         66    2    3    3    0    0 -0.38823937841E+02  0.96073473335E+00 -0.10628179164E+03  0.11317261328E+03  0.20000001562E+01 0.  0.
         13    1    3    3    0    0  0.38823937841E+02 -0.96073473335E+00 -0.71239163335E+02  0.81137233854E+02  0.10566000000E+00 0. -1.
         13    1    4    4    0    0 -0.66605359237E+00  0.57097487479E-01 -0.21304364557E+01  0.22353547902E+01  0.10566000000E+00 0.  1.
        -13    1    4    4    0    0 -0.23961634196E+02 -0.14301464929E+00 -0.64287540215E+02  0.68608158097E+02  0.10566000000E+00 0.  1.
        -14    1    4    4    0    0 -0.14196250052E+02  0.10466518952E+01 -0.39863814970E+02  0.42329100389E+02  0.00000000000E+00 0.  1.
<mgrwt>
<rscale>  0 0.79010298E+02</rscale>
<asrwt>0</asrwt>
<pdfrwt beam="1">  1        1 0.28602366E-01 0.79010298E+02</pdfrwt>
<pdfrwt beam="2">  1       -2 0.12914534E-02 0.79010298E+02</pdfrwt>
<totfact> 0.16993056E+05</totfact>
</mgrwt>
</event>
<event>
 8    1  0.1241100E-024  0.8041938E+02  0.7818608E-02  0.1327865E+00
         -2   -1    0    0    0  501 -0.00000000000E+00  0.00000000000E+00  0.13407914795E+02  0.13407915038E+02  0.25500000000E-02 0.  1.
          1   -1    0    0  501    0  0.00000000000E+00 -0.00000000000E+00 -0.12058691317E+03  0.12058691328E+03  0.50400000000E-02 0. -1.
        -24    2    1    2    0    0  0.35527136788E-14  0.35527136788E-14 -0.10717899838E+03  0.13399482831E+03  0.80419377777E+02 0.  0.
         66    2    3    3    0    0  0.29426976323E+02 -0.23597553252E+02 -0.30533634517E+02  0.48570508474E+02  0.20000003988E+01 0.  0.
         13    1    3    3    0    0 -0.29426976323E+02  0.23597553252E+02 -0.76645363858E+02  0.85424319839E+02  0.10566000000E+00 0. -1.
         13    1    4    4    0    0  0.11900015119E+02 -0.93531489819E+01 -0.12809984962E+02  0.19829236861E+02  0.10566000000E+00 0. -1.
        -13    1    4    4    0    0  0.15480590616E+02 -0.12386320751E+02 -0.16063205983E+02  0.25516805797E+02  0.10566000000E+00 0.  1.
         14    1    4    4    0    0  0.20463705878E+01 -0.18580835197E+01 -0.16604435715E+01  0.32244658167E+01  0.00000000000E+00 0. -1.
<mgrwt>
<rscale>  0 0.80419378E+02</rscale>
<asrwt>0</asrwt>
<pdfrwt beam="1">  1        1 0.18551832E-01 0.80419378E+02</pdfrwt>
<pdfrwt beam="2">  1       -2 0.20627562E-02 0.80419378E+02</pdfrwt>
<totfact> 0.14967504E+05</totfact>
</mgrwt>
</event>
<event>
 8    1  0.1241100E-024  0.7621608E+02  0.7818608E-02  0.1340146E+00
         -2   -1    0    0    0  501 -0.00000000000E+00  0.00000000000E+00  0.79681521884E+01  0.79681525965E+01  0.25500000000E-02 0.  1.
          1   -1    0    0  501    0  0.00000000000E+00 -0.00000000000E+00 -0.18225337436E+03  0.18225337443E+03  0.50400000000E-02 0. -1.
        -24    2    1    2    0    0  0.71054273576E-14  0.00000000000E+00 -0.17428522217E+03  0.19022152702E+03  0.76216078859E+02 0.  0.
         66    2    3    3    0    0 -0.37404753836E+02  0.42978390474E+01 -0.72945502803E+02  0.82113539737E+02  0.19999997265E+01 0.  0.
         13    1    3    3    0    0  0.37404753836E+02 -0.42978390474E+01 -0.10133971937E+03  0.10810798729E+03  0.10566000000E+00 0. -1.
         13    1    4    4    0    0 -0.10445413594E+02  0.16070915029E+01 -0.19910587538E+02  0.22541784942E+02  0.10566000000E+00 0. -1.
        -13    1    4    4    0    0 -0.80420320068E+01  0.35903531818E+00 -0.14724524421E+02  0.16781715307E+02  0.10566000000E+00 0.  1.
        -14    1    4    4    0    0 -0.18917308235E+02  0.23317122263E+01 -0.38310390844E+02  0.42790039488E+02  0.00000000000E+00 0.  1.
<mgrwt>
<rscale>  0 0.76216079E+02</rscale>
<asrwt>0</asrwt>
<pdfrwt beam="1">  1        1 0.28038978E-01 0.76216079E+02</pdfrwt>
<pdfrwt beam="2">  1       -2 0.12258697E-02 0.76216079E+02</pdfrwt>
<totfact> 0.18623845E+05</totfact>
</mgrwt>
</event>
<event>
 8    1  0.1241100E-024  0.7962628E+02  0.7818608E-02  0.1330115E+00
         -2   -1    0    0    0  501 -0.00000000000E+00  0.00000000000E+00  0.33910891910E+01  0.33910901498E+01  0.25500000000E-02 0.  1.
          1   -1    0    0  501    0  0.00000000000E+00 -0.00000000000E+00 -0.46742682066E+03  0.46742682069E+03  0.50400000000E-02 0. -1.
        -24    2    1    2    0    0  0.00000000000E+00 -0.71054273576E-14 -0.46403573147E+03  0.47081791084E+03  0.79626283882E+02 0.  0.
         66    2    3    3    0    0  0.19833976877E+02  0.34406993289E+02 -0.24646938577E+03  0.24965653588E+03  0.19999905447E+01 0.  0.
         13    1    3    3    0    0 -0.19833976877E+02 -0.34406993289E+02 -0.21756634570E+03  0.22116137495E+03  0.10566000000E+00 0. -1.
         13    1    4    4    0    0  0.66069468506E+00  0.14030925664E+01 -0.89999385565E+01  0.91331946368E+01  0.10566000000E+00 0.  1.
        -13    1    4    4    0    0  0.17769463039E+02  0.29786334888E+02 -0.21731866553E+03  0.22006906442E+03  0.10566000000E+00 0. -1.
         14    1    4    4    0    0  0.14038191533E+01  0.32175658346E+01 -0.20150781682E+02  0.20454276827E+02  0.00000000000E+00 0. -1.
<mgrwt>
<rscale>  0 0.79626284E+02</rscale>
<asrwt>0</asrwt>
<pdfrwt beam="1">  1        1 0.71911768E-01 0.79626284E+02</pdfrwt>
<pdfrwt beam="2">  1       -2 0.52170647E-03 0.79626284E+02</pdfrwt>
<totfact> 0.19682361E+05</totfact>
</mgrwt>
</event>
<event>
 8    1  0.1241100E-024  0.7964887E+02  0.7818608E-02  0.1330051E+00
          1   -1    0    0  501    0  0.00000000000E+00  0.00000000000E+00  0.17354337024E+02  0.17354337755E+02  0.50400000000E-02 0. -1.
         -2   -1    0    0    0  501 -0.00000000000E+00 -0.00000000000E+00 -0.91388432497E+02  0.91388432532E+02  0.25500000000E-02 0.  1.
        -24    2    1    2    0    0  0.00000000000E+00  0.00000000000E+00 -0.74034095473E+02  0.10874277029E+03  0.79648871915E+02 0.  0.
         66    2    3    3    0    0  0.11878722914E+02 -0.74052672031E+01 -0.87905615994E+02  0.89035606971E+02  0.19999862803E+01 0.  0.
         13    1    3    3    0    0 -0.11878722914E+02  0.74052672031E+01  0.13871520520E+02  0.19707163317E+02  0.10566000000E+00 0. -1.
         13    1    4    4    0    0  0.61362308463E+00 -0.10563189955E+00 -0.49297101998E+01  0.49699998066E+01  0.10566000000E+00 0. -1.
        -13    1    4    4    0    0  0.68776040775E+01 -0.45268198513E+01 -0.54880428301E+02  0.55494739483E+02  0.10566000000E+00 0.  1.
        -14    1    4    4    0    0  0.43874957514E+01 -0.27728154522E+01 -0.28095477493E+02  0.28570867681E+02  0.00000000000E+00 0.  1.
<mgrwt>
<rscale>  0 0.79648872E+02</rscale>
<asrwt>0</asrwt>
<pdfrwt beam="1">  1        1 0.26698981E-02 0.79648872E+02</pdfrwt>
<pdfrwt beam="2">  1       -2 0.14059759E-01 0.79648872E+02</pdfrwt>
<totfact> 0.10968579E+05</totfact>
</mgrwt>
</event>
<event>
 8    1  0.1241100E-024  0.7922894E+02  0.7818608E-02  0.1331254E+00
          1   -1    0    0  501    0  0.00000000000E+00  0.00000000000E+00  0.19135112755E+02  0.19135113419E+02  0.50400000000E-02 0. -1.
         -2   -1    0    0    0  501 -0.00000000000E+00 -0.00000000000E+00 -0.82011858238E+02  0.82011858277E+02  0.25500000000E-02 0.  1.
        -24    2    1    2    0    0 -0.35527136788E-14 -0.17763568394E-14 -0.62876745483E+02  0.10114697170E+03  0.79228938910E+02 0.  0.
         66    2    3    3    0    0  0.16417332736E+02  0.13553484505E+02 -0.74069804691E+02  0.77094497918E+02  0.19999714575E+01 0.  0.
         13    1    3    3    0    0 -0.16417332736E+02 -0.13553484505E+02  0.11193059208E+02  0.24052473778E+02  0.10566000000E+00 0. -1.
         13    1    4    4    0    0  0.25327759432E+01  0.26586318262E+01 -0.13195508866E+02  0.13697295187E+02  0.10566000000E+00 0. -1.
        -13    1    4    4    0    0  0.31616057789E+01  0.32165712991E+01 -0.14770001585E+02  0.15443645712E+02  0.10566000000E+00 0.  1.
        -14    1    4    4    0    0  0.10722951014E+02  0.76782813794E+01 -0.46104294239E+02  0.47953557018E+02  0.00000000000E+00 0.  1.
<mgrwt>
<rscale>  0 0.79228939E+02</rscale>
<asrwt>0</asrwt>
<pdfrwt beam="1">  1        1 0.29438636E-02 0.79228939E+02</pdfrwt>
<pdfrwt beam="2">  1       -2 0.12617209E-01 0.79228939E+02</pdfrwt>
<totfact> 0.11393656E+05</totfact>
</mgrwt>
</event>
<event>
 8    1  0.1241100E-024  0.8794921E+02  0.7818608E-02  0.1307895E+00
          1   -1    0    0  501    0  0.00000000000E+00  0.00000000000E+00  0.18634409295E+02  0.18634409977E+02  0.50400000000E-02 0. -1.
         -2   -1    0    0    0  501 -0.00000000000E+00 -0.00000000000E+00 -0.10377392360E+03  0.10377392363E+03  0.25500000000E-02 0.  1.
        -24    2    1    2    0    0  0.00000000000E+00  0.00000000000E+00 -0.85139514307E+02  0.12240833361E+03  0.87949208302E+02 0.  0.
         66    2    3    3    0    0  0.32790578648E+02  0.25082520631E+02 -0.63580135674E+02  0.75833953740E+02  0.19999995546E+01 0.  0.
         13    1    3    3    0    0 -0.32790578648E+02 -0.25082520631E+02 -0.21559378633E+02  0.46574379871E+02  0.10566000000E+00 0. -1.
         13    1    4    4    0    0  0.17784232598E+01  0.14271759229E+01 -0.42565644752E+01  0.48300233512E+01  0.10566000000E+00 0.  1.
        -13    1    4    4    0    0  0.14730182778E+02  0.10856523617E+02 -0.28504935680E+02  0.33873070600E+02  0.10566000000E+00 0.  1.
         14    1    4    4    0    0  0.16281972610E+02  0.12798821091E+02 -0.30818635519E+02  0.37130859788E+02  0.00000000000E+00 0. -1.
<mgrwt>
<rscale>  0 0.87949208E+02</rscale>
<asrwt>0</asrwt>
<pdfrwt beam="1">  1        1 0.28668323E-02 0.87949208E+02</pdfrwt>
<pdfrwt beam="2">  1       -2 0.15965219E-01 0.87949208E+02</pdfrwt>
<totfact> 0.82457723E+04</totfact>
</mgrwt>
</event>
<event>
 8    1  0.1241100E-024  0.7926636E+02  0.7818608E-02  0.1331146E+00
         -2   -1    0    0    0  501 -0.00000000000E+00  0.00000000000E+00  0.29285746156E+03  0.29285746157E+03  0.25500000000E-02 0.  1.
          1   -1    0    0  501    0  0.00000000000E+00 -0.00000000000E+00 -0.53636624436E+01  0.53636648115E+01  0.50400000000E-02 0. -1.
        -24    2    1    2    0    0  0.17763568394E-14  0.00000000000E+00  0.28749379912E+03  0.29822112638E+03  0.79266359135E+02 0.  0.
         66    2    3    3    0    0 -0.13660256004E+02  0.16367627282E+02  0.26942585002E+03  0.27027539745E+03  0.19999979881E+01 0.  0.
         13    1    3    3    0    0  0.13660256004E+02 -0.16367627282E+02  0.18067949101E+02  0.27945728935E+02  0.10566000000E+00 0. -1.
         13    1    4    4    0    0 -0.38531677990E+01  0.50262904953E+01  0.71500302500E+02  0.71780324044E+02  0.10566000000E+00 0. -1.
        -13    1    4    4    0    0 -0.59702413550E+01  0.64801240241E+01  0.12135066878E+03  0.12167017616E+03  0.10566000000E+00 0.  1.
        -14    1    4    4    0    0 -0.38368468505E+01  0.48612127626E+01  0.76574878739E+02  0.76824897248E+02  0.00000000000E+00 0.  1.
<mgrwt>
<rscale>  0 0.79266359E+02</rscale>
<asrwt>0</asrwt>
<pdfrwt beam="1">  1        1 0.82517921E-03 0.79266359E+02</pdfrwt>
<pdfrwt beam="2">  1       -2 0.45054984E-01 0.79266359E+02</pdfrwt>
<totfact> 0.72902899E+04</totfact>
</mgrwt>
</event>
<event>
 8    1  0.1241100E-024  0.7983263E+02  0.7818608E-02  0.1329527E+00
          1   -1    0    0  501    0  0.00000000000E+00  0.00000000000E+00  0.21192787451E+02  0.21192788050E+02  0.50400000000E-02 0. -1.
         -2   -1    0    0    0  501 -0.00000000000E+00 -0.00000000000E+00 -0.75181806197E+02  0.75181806240E+02  0.25500000000E-02 0.  1.
        -24    2    1    2    0    0  0.35527136788E-14 -0.35527136788E-14 -0.53989018746E+02  0.96374594291E+02  0.79832626661E+02 0.  0.
         66    2    3    3    0    0 -0.30267134346E+02  0.91672952525E+01 -0.56363407694E+02  0.64660439554E+02  0.19999981444E+01 0.  0.
         13    1    3    3    0    0  0.30267134346E+02 -0.91672952525E+01  0.23743889480E+01  0.31714154737E+02  0.10566000000E+00 0. -1.
         13    1    4    4    0    0 -0.92164674881E+01  0.21138265983E+01 -0.17880291342E+02  0.20226900859E+02  0.10566000000E+00 0. -1.
        -13    1    4    4    0    0 -0.10648391684E+02  0.37328420886E+01 -0.20179862850E+02  0.23120561935E+02  0.10566000000E+00 0.  1.
         14    1    4    4    0    0 -0.10402275174E+02  0.33206265656E+01 -0.18303253503E+02  0.21312976760E+02  0.00000000000E+00 0. -1.
<mgrwt>
<rscale>  0 0.79832627E+02</rscale>
<asrwt>0</asrwt>
<pdfrwt beam="1">  1        1 0.32604289E-02 0.79832627E+02</pdfrwt>
<pdfrwt beam="2">  1       -2 0.11566432E-01 0.79832627E+02</pdfrwt>
<totfact> 0.11384876E+05</totfact>
</mgrwt>
</event>
<event>
 8    1  0.1241100E-024  0.7767599E+02  0.7818608E-02  0.1335779E+00
          1   -1    0    0  501    0  0.00000000000E+00  0.00000000000E+00  0.17842720883E+01  0.17842792065E+01  0.50400000000E-02 0. -1.
         -2   -1    0    0    0  501 -0.00000000000E+00 -0.00000000000E+00 -0.84537948629E+03  0.84537948629E+03  0.25500000000E-02 0.  1.
        -24    2    1    2    0    0  0.00000000000E+00  0.00000000000E+00 -0.84359521420E+03  0.84716376550E+03  0.77675994701E+02 0.  0.
         66    2    3    3    0    0 -0.14908049358E+01 -0.17943912351E+02 -0.79706854499E+03  0.79727440188E+03  0.20000004066E+01 0.  0.
         13    1    3    3    0    0  0.14908049358E+01  0.17943912351E+02 -0.46526669215E+02  0.49889363617E+02  0.10566000000E+00 0. -1.
         13    1    4    4    0    0  0.20130973647E+00 -0.70468250397E+01 -0.33532991172E+03  0.33540402372E+03  0.10566000000E+00 0. -1.
        -13    1    4    4    0    0 -0.13008416941E+01 -0.77529387536E+01 -0.32715694592E+03  0.32725139981E+03  0.10566000000E+00 0.  1.
        -14    1    4    4    0    0 -0.39127297810E+00 -0.31441485579E+01 -0.13458168734E+03  0.13461897835E+03  0.00000000000E+00 0.  1.
<mgrwt>
<rscale>  0 0.77675995E+02</rscale>
<asrwt>0</asrwt>
<pdfrwt beam="1">  1        1 0.27450462E-03 0.77675995E+02</pdfrwt>
<pdfrwt beam="2">  1       -2 0.13005806E+00 0.77675995E+02</pdfrwt>
<totfact> 0.33866238E+04</totfact>
</mgrwt>
</event>
<event>
 8    1  0.1241100E-024  0.7957968E+02  0.7818608E-02  0.1330248E+00
          1   -1    0    0  501    0  0.00000000000E+00  0.00000000000E+00  0.29380359697E+02  0.29380360129E+02  0.50400000000E-02 0. -1.
         -2   -1    0    0    0  501 -0.00000000000E+00 -0.00000000000E+00 -0.53887400394E+02  0.53887400454E+02  0.25500000000E-02 0.  1.
        -24    2    1    2    0    0  0.00000000000E+00 -0.71054273576E-14 -0.24507040697E+02  0.83267760583E+02  0.79579676481E+02 0.  0.
         66    2    3    3    0    0 -0.32226432731E+01  0.37165000630E+02  0.21465717051E+01  0.37419653538E+02  0.19999998156E+01 0.  0.
         13    1    3    3    0    0  0.32226432731E+01 -0.37165000630E+02 -0.26653612402E+02  0.45848107046E+02  0.10566000000E+00 0. -1.
         13    1    4    4    0    0 -0.34096699470E+00  0.85019150962E+01  0.88637924685E+00  0.85554456927E+01  0.10566000000E+00 0. -1.
        -13    1    4    4    0    0 -0.24750408410E+01  0.26504338061E+02  0.14499249160E+01  0.26659317499E+02  0.10566000000E+00 0.  1.
         14    1    4    4    0    0 -0.40663543737E+00  0.21587474729E+01 -0.18973245771E+00  0.22048903456E+01  0.00000000000E+00 0. -1.
<mgrwt>
<rscale>  0 0.79579676E+02</rscale>
<asrwt>0</asrwt>
<pdfrwt beam="1">  1        1 0.45200554E-02 0.79579676E+02</pdfrwt>
<pdfrwt beam="2">  1       -2 0.82903693E-02 0.79579676E+02</pdfrwt>
<totfact> 0.12234032E+05</totfact>
</mgrwt>
</event>
<event>
 8    1  0.1241100E-024  0.7966965E+02  0.7818608E-02  0.1329992E+00
         -2   -1    0    0    0  501 -0.00000000000E+00  0.00000000000E+00  0.16581713872E+03  0.16581713874E+03  0.25500000000E-02 0.  1.
          1   -1    0    0  501    0  0.00000000000E+00 -0.00000000000E+00 -0.95696564214E+01  0.95696577486E+01  0.50400000000E-02 0. -1.
        -24    2    1    2    0    0  0.00000000000E+00 -0.11102230246E-15  0.15624748230E+03  0.17538679649E+03  0.79669647030E+02 0.  0.
         66    2    3    3    0    0  0.12104795080E+02  0.55037434351E+00  0.16165242728E+03  0.16211827848E+03  0.19999997794E+01 0.  0.
         13    1    3    3    0    0 -0.12104795080E+02 -0.55037434351E+00 -0.54049449747E+01  0.13268518005E+02  0.10566000000E+00 0. -1.
         13    1    4    4    0    0  0.22865930813E+01  0.64574358836E+00  0.30646638406E+02  0.30738788238E+02  0.10566000000E+00 0. -1.
        -13    1    4    4    0    0  0.19215198693E+01  0.44075884875E+00  0.28959910469E+02  0.29027126716E+02  0.10566000000E+00 0.  1.
         14    1    4    4    0    0  0.78966821289E+01 -0.53612809359E+00  0.10204587840E+03  0.10235236353E+03  0.00000000000E+00 0. -1.
<mgrwt>
<rscale>  0 0.79669647E+02</rscale>
<asrwt>0</asrwt>
<pdfrwt beam="1">  1        1 0.14722549E-02 0.79669647E+02</pdfrwt>
<pdfrwt beam="2">  1       -2 0.25510329E-01 0.79669647E+02</pdfrwt>
<totfact> 0.92316072E+04</totfact>
</mgrwt>
</event>
<event>
 8    1  0.1241100E-024  0.7976046E+02  0.7818608E-02  0.1329733E+00
          1   -1    0    0  501    0  0.00000000000E+00  0.00000000000E+00  0.20722392797E+03  0.20722392804E+03  0.50400000000E-02 0. -1.
         -2   -1    0    0    0  501 -0.00000000000E+00 -0.00000000000E+00 -0.76749475541E+01  0.76749479778E+01  0.25500000000E-02 0.  1.
        -24    2    1    2    0    0  0.71054273576E-14 -0.35527136788E-14  0.19954898042E+03  0.21489887601E+03  0.79760462167E+02 0.  0.
         66    2    3    3    0    0  0.31521271681E+02 -0.21449428291E+02  0.68559988607E+02  0.78473820827E+02  0.19999937333E+01 0.  0.
         13    1    3    3    0    0 -0.31521271681E+02  0.21449428291E+02  0.13098899181E+03  0.13642505519E+03  0.10566000000E+00 0. -1.
         13    1    4    4    0    0  0.66170309950E+01 -0.46695109248E+01  0.13850269706E+02  0.16044642920E+02  0.10566000000E+00 0. -1.
        -13    1    4    4    0    0  0.16874920344E+02 -0.10830251763E+02  0.35281769403E+02  0.40581667118E+02  0.10566000000E+00 0.  1.
         14    1    4    4    0    0  0.80293203425E+01 -0.59496656038E+01  0.19427949498E+02  0.21847510789E+02  0.00000000000E+00 0. -1.
<mgrwt>
<rscale>  0 0.79760462E+02</rscale>
<asrwt>0</asrwt>
<pdfrwt beam="1">  1        1 0.31880604E-01 0.79760462E+02</pdfrwt>
<pdfrwt beam="2">  1       -2 0.11807612E-02 0.79760462E+02</pdfrwt>
<totfact> 0.16923392E+05</totfact>
</mgrwt>
</event>
<event>
 8    1  0.1241100E-024  0.7680800E+02  0.7818608E-02  0.1338362E+00
         -2   -1    0    0    0  501 -0.00000000000E+00  0.00000000000E+00  0.56047936547E+01  0.56047942348E+01  0.25500000000E-02 0.  1.
          1   -1    0    0  501    0  0.00000000000E+00 -0.00000000000E+00 -0.26314387306E+03  0.26314387310E+03  0.50400000000E-02 0. -1.
        -24    2    1    2    0    0 -0.17763568394E-14 -0.35527136788E-14 -0.25753907940E+03  0.26874866734E+03  0.76807999438E+02 0.  0.
         66    2    3    3    0    0  0.14177079963E+02  0.30812948640E+02 -0.66027499758E+02  0.74256704262E+02  0.20000008372E+01 0.  0.
         13    1    3    3    0    0 -0.14177079963E+02 -0.30812948640E+02 -0.19151157964E+03  0.19449196308E+03  0.10566000000E+00 0. -1.
         13    1    4    4    0    0  0.10495054927E+02  0.24258464405E+02 -0.51879978348E+02  0.58225102753E+02  0.10566000000E+00 0. -1.
        -13    1    4    4    0    0  0.32400851667E+01  0.60349317904E+01 -0.13065692655E+02  0.14752696099E+02  0.10566000000E+00 0.  1.
         14    1    4    4    0    0  0.44193986933E+00  0.51955244516E+00 -0.10818287554E+01  0.12789054099E+01  0.00000000000E+00 0. -1.
<mgrwt>
<rscale>  0 0.76807999E+02</rscale>
<asrwt>0</asrwt>
<pdfrwt beam="1">  1        1 0.40483663E-01 0.76807999E+02</pdfrwt>
<pdfrwt beam="2">  1       -2 0.86227620E-03 0.76807999E+02</pdfrwt>
<totfact> 0.19583311E+05</totfact>
</mgrwt>
</event>
<event>
 8    1  0.1241100E-024  0.7539532E+02  0.7818608E-02  0.1342651E+00
         -2   -1    0    0    0  501 -0.00000000000E+00  0.00000000000E+00  0.64660352382E+01  0.64660357410E+01  0.25500000000E-02 0.  1.
          1   -1    0    0  501    0  0.00000000000E+00 -0.00000000000E+00 -0.21978130867E+03  0.21978130873E+03  0.50400000000E-02 0. -1.
        -24    2    1    2    0    0  0.71054273576E-14  0.00000000000E+00 -0.21331527343E+03  0.22624734447E+03  0.75395324788E+02 0.  0.
         66    2    3    3    0    0  0.35149769869E+02 -0.11757773243E+02 -0.86522644943E+02  0.94148391571E+02  0.19999984995E+01 0.  0.
         13    1    3    3    0    0 -0.35149769869E+02  0.11757773243E+02 -0.12679262849E+03  0.13209895290E+03  0.10566000000E+00 0. -1.
         13    1    4    4    0    0  0.17181425002E+02 -0.56680642322E+01 -0.42167691775E+02  0.45885223231E+02  0.10566000000E+00 0.  1.
        -13    1    4    4    0    0  0.10732249198E+02 -0.31047381088E+01 -0.24850687596E+02  0.27246805493E+02  0.10566000000E+00 0. -1.
         14    1    4    4    0    0  0.72360956694E+01 -0.29849709017E+01 -0.19504265572E+02  0.21016362848E+02  0.00000000000E+00 0. -1.
<mgrwt>
<rscale>  0 0.75395325E+02</rscale>
<asrwt>0</asrwt>
<pdfrwt beam="1">  1        1 0.33812504E-01 0.75395325E+02</pdfrwt>
<pdfrwt beam="2">  1       -2 0.99477486E-03 0.75395325E+02</pdfrwt>
<totfact> 0.19862015E+05</totfact>
</mgrwt>
</event>
<event>
 8    1  0.1241100E-024  0.8039614E+02  0.7818608E-02  0.1327931E+00
          1   -1    0    0  501    0  0.00000000000E+00  0.00000000000E+00  0.21774242318E+03  0.21774242324E+03  0.50400000000E-02 0. -1.
         -2   -1    0    0    0  501 -0.00000000000E+00 -0.00000000000E+00 -0.74210836984E+01  0.74210841366E+01  0.25500000000E-02 0.  1.
        -24    2    1    2    0    0 -0.44408920985E-15  0.00000000000E+00  0.21032133948E+03  0.22516350738E+03  0.80396139286E+02 0.  0.
         66    2    3    3    0    0 -0.18610441984E+01  0.40005267487E+02  0.96371301074E+02  0.10438061401E+03  0.19999996081E+01 0.  0.
         13    1    3    3    0    0  0.18610441984E+01 -0.40005267487E+02  0.11395003841E+03  0.12078289336E+03  0.10566000000E+00 0. -1.
         13    1    4    4    0    0 -0.90033752400E+00  0.24224707234E+02  0.58275775902E+02  0.63116751099E+02  0.10566000000E+00 0.  1.
        -13    1    4    4    0    0  0.20664127281E-01  0.47394711671E+01  0.12632932737E+02  0.13493152616E+02  0.10566000000E+00 0. -1.
        -14    1    4    4    0    0 -0.98137080173E+00  0.11041089086E+02  0.25462592435E+02  0.27770710296E+02  0.00000000000E+00 0.  1.
<mgrwt>
<rscale>  0 0.80396139E+02</rscale>
<asrwt>0</asrwt>
<pdfrwt beam="1">  1        1 0.33498833E-01 0.80396139E+02</pdfrwt>
<pdfrwt beam="2">  1       -2 0.11417053E-02 0.80396139E+02</pdfrwt>
<totfact> 0.16731520E+05</totfact>
</mgrwt>
</event>
<event>
 8    1  0.1241100E-024  0.8047290E+02  0.7818608E-02  0.1327715E+00
         -2   -1    0    0    0  501 -0.00000000000E+00  0.00000000000E+00  0.69165328359E+01  0.69165333060E+01  0.25500000000E-02 0.  1.
          1   -1    0    0  501    0  0.00000000000E+00 -0.00000000000E+00 -0.23407271932E+03  0.23407271937E+03  0.50400000000E-02 0. -1.
        -24    2    1    2    0    0  0.00000000000E+00  0.00000000000E+00 -0.22715618648E+03  0.24098925268E+03  0.80472895122E+02 0.  0.
         66    2    3    3    0    0  0.15093847502E+02  0.29045636813E+02 -0.43705280556E+02  0.54640871147E+02  0.20000002218E+01 0.  0.
         13    1    3    3    0    0 -0.15093847502E+02 -0.29045636813E+02 -0.18345090592E+03  0.18634838153E+03  0.10566000000E+00 0. -1.
         13    1    4    4    0    0  0.14740669170E+01  0.25660556026E+01 -0.33011650005E+01  0.44346780072E+01  0.10566000000E+00 0. -1.
        -13    1    4    4    0    0  0.63821631547E+01  0.11154914003E+02 -0.17117112662E+02  0.21404925201E+02  0.10566000000E+00 0.  1.
         14    1    4    4    0    0  0.72376174302E+01  0.15324667208E+02 -0.23287002893E+02  0.28801267938E+02  0.00000000000E+00 0. -1.
<mgrwt>
<rscale>  0 0.80472895E+02</rscale>
<asrwt>0</asrwt>
<pdfrwt beam="1">  1        1 0.36011182E-01 0.80472895E+02</pdfrwt>
<pdfrwt beam="2">  1       -2 0.10640822E-02 0.80472895E+02</pdfrwt>
<totfact> 0.16926876E+05</totfact>
</mgrwt>
</event>
<event>
 8    1  0.1241100E-024  0.7852101E+02  0.7818608E-02  0.1333302E+00
         -2   -1    0    0    0  501 -0.00000000000E+00  0.00000000000E+00  0.29524977835E+02  0.29524977945E+02  0.25500000000E-02 0.  1.
          1   -1    0    0  501    0  0.00000000000E+00 -0.00000000000E+00 -0.52206205104E+02  0.52206205347E+02  0.50400000000E-02 0. -1.
        -24    2    1    2    0    0  0.00000000000E+00 -0.44408920985E-15 -0.22681227269E+02  0.81731183292E+02  0.78521005163E+02 0.  0.
         66    2    3    3    0    0 -0.19966557952E+02  0.24398423775E+01  0.23715533419E+02  0.31161559666E+02  0.20000020546E+01 0.  0.
         13    1    3    3    0    0  0.19966557952E+02 -0.24398423775E+01 -0.46396760688E+02  0.50569623626E+02  0.10566000000E+00 0. -1.
         13    1    4    4    0    0 -0.10522794994E+01 -0.84423624710E-01  0.10275041055E+01  0.14769387989E+01  0.10566000000E+00 0.  1.
        -13    1    4    4    0    0 -0.16172283949E+02  0.26922620592E+01  0.19411303935E+02  0.25408678195E+02  0.10566000000E+00 0.  1.
        -14    1    4    4    0    0 -0.27419945034E+01 -0.16799605700E+00  0.32767253786E+01  0.42759426725E+01  0.00000000000E+00 0.  1.
<mgrwt>
<rscale>  0 0.78521005E+02</rscale>
<asrwt>0</asrwt>
<pdfrwt beam="1">  1        1 0.80317239E-02 0.78521005E+02</pdfrwt>
<pdfrwt beam="2">  1       -2 0.45423043E-02 0.78521005E+02</pdfrwt>
<totfact> 0.13949638E+05</totfact>
</mgrwt>
</event>
<event>
 8    1  0.1241100E-024  0.7828474E+02  0.7818608E-02  0.1333991E+00
          1   -1    0    0  501    0  0.00000000000E+00  0.00000000000E+00  0.31935564634E+02  0.31935565032E+02  0.50400000000E-02 0. -1.
         -2   -1    0    0    0  501 -0.00000000000E+00 -0.00000000000E+00 -0.47975507800E+02  0.47975507868E+02  0.25500000000E-02 0.  1.
        -24    2    1    2    0    0 -0.71054273576E-14  0.88817841970E-15 -0.16039943166E+02  0.79911072900E+02  0.78284735391E+02 0.  0.
         66    2    3    3    0    0  0.37677770159E+02 -0.29766834667E+01 -0.18316554570E+02  0.42047249372E+02  0.19999999750E+01 0.  0.
         13    1    3    3    0    0 -0.37677770159E+02  0.29766834667E+01  0.22766114036E+01  0.37863823527E+02  0.10566000000E+00 0. -1.
         13    1    4    4    0    0  0.27662946295E+02 -0.23035490973E+01 -0.13629487447E+02  0.30924408293E+02  0.10566000000E+00 0.  1.
        -13    1    4    4    0    0  0.82498701790E+01 -0.80037197649E+00 -0.41714522806E+01  0.92797161291E+01  0.10566000000E+00 0. -1.
         14    1    4    4    0    0  0.17649536847E+01  0.12723760707E+00 -0.51561484176E+00  0.18431249504E+01  0.00000000000E+00 0. -1.
<mgrwt>
<rscale>  0 0.78284735E+02</rscale>
<asrwt>0</asrwt>
<pdfrwt beam="1">  1        1 0.49131638E-02 0.78284735E+02</pdfrwt>
<pdfrwt beam="2">  1       -2 0.73808474E-02 0.78284735E+02</pdfrwt>
<totfact> 0.13008266E+05</totfact>
</mgrwt>
</event>
<event>
 8    1  0.1241100E-024  0.8899648E+02  0.7818608E-02  0.1305300E+00
         -2   -1    0    0    0  501 -0.00000000000E+00  0.00000000000E+00  0.27976293541E+02  0.27976293657E+02  0.25500000000E-02 0.  1.
          1   -1    0    0  501    0  0.00000000000E+00 -0.00000000000E+00 -0.70777541770E+02  0.70777541950E+02  0.50400000000E-02 0. -1.
        -24    2    1    2    0    0  0.00000000000E+00  0.00000000000E+00 -0.42801248230E+02  0.98753835607E+02  0.88996478566E+02 0.  0.
         66    2    3    3    0    0 -0.10805428895E+02 -0.79027360321E+01  0.25651854007E+02  0.29003933097E+02  0.19999976747E+01 0.  0.
         13    1    3    3    0    0  0.10805428895E+02  0.79027360321E+01 -0.68453102236E+02  0.69749902510E+02  0.10566000000E+00 0. -1.
         13    1    4    4    0    0 -0.70719782888E+01 -0.42175945865E+01  0.15740204419E+02  0.17764182509E+02  0.10566000000E+00 0. -1.
        -13    1    4    4    0    0 -0.11641379633E+01 -0.70509261876E+00  0.26032248378E+01  0.29394415099E+01  0.10566000000E+00 0.  1.
        -14    1    4    4    0    0 -0.25693126431E+01 -0.29800488268E+01  0.73084247498E+01  0.83003090781E+01  0.00000000000E+00 0.  1.
<mgrwt>
<rscale>  0 0.88996479E+02</rscale>
<asrwt>0</asrwt>
<pdfrwt beam="1">  1        1 0.10888853E-01 0.88996479E+02</pdfrwt>
<pdfrwt beam="2">  1       -2 0.43040452E-02 0.88996479E+02</pdfrwt>
<totfact> 0.10355080E+05</totfact>
</mgrwt>
</event>
<event>
 8    1  0.1241100E-024  0.7888377E+02  0.7818608E-02  0.1332249E+00
          1   -1    0    0  501    0  0.00000000000E+00  0.00000000000E+00  0.19774314484E+03  0.19774314491E+03  0.50400000000E-02 0. -1.
         -2   -1    0    0    0  501 -0.00000000000E+00 -0.00000000000E+00 -0.78670850409E+01  0.78670854542E+01  0.25500000000E-02 0.  1.
        -24    2    1    2    0    0  0.00000000000E+00  0.00000000000E+00  0.18987605980E+03  0.20561023036E+03  0.78883767299E+02 0.  0.
         66    2    3    3    0    0 -0.42074104898E+01  0.30132095611E+02  0.29679671205E+02  0.42550304039E+02  0.20000005030E+01 0.  0.
         13    1    3    3    0    0  0.42074104898E+01 -0.30132095611E+02  0.16019638860E+03  0.16305992632E+03  0.10566000000E+00 0. -1.
         13    1    4    4    0    0 -0.38202941029E+00  0.36092353084E+01  0.40819981358E+01  0.54631857737E+01  0.10566000000E+00 0. -1.
        -13    1    4    4    0    0 -0.31028170010E+01  0.19705697861E+02  0.19834258485E+02  0.28130961150E+02  0.10566000000E+00 0.  1.
         14    1    4    4    0    0 -0.72256407854E+00  0.68171624408E+01  0.57634145841E+01  0.89561571145E+01  0.00000000000E+00 0. -1.
<mgrwt>
<rscale>  0 0.78883767E+02</rscale>
<asrwt>0</asrwt>
<pdfrwt beam="1">  1        1 0.30422021E-01 0.78883767E+02</pdfrwt>
<pdfrwt beam="2">  1       -2 0.12103209E-02 0.78883767E+02</pdfrwt>
<totfact> 0.17269296E+05</totfact>
</mgrwt>
</event>
<event>
 8    1  0.1436144E-024  0.8075762E+02  0.7818608E-02  0.1326915E+00
         -2   -1    0    0    0  501 -0.00000000000E+00  0.00000000000E+00  0.25655238808E+02  0.25655238935E+02  0.25500000000E-02 0.  1.
          1   -1    0    0  501    0  0.00000000000E+00 -0.00000000000E+00 -0.63552249149E+02  0.63552249349E+02  0.50400000000E-02 0. -1.
        -24    2    1    2    0    0 -0.35527136788E-14  0.00000000000E+00 -0.37897010341E+02  0.89207488284E+02  0.80757616193E+02 0.  0.
         66    2    3    3    0    0  0.26153327734E+02  0.20936273845E+02  0.58909226114E+01  0.34073847461E+02  0.19999993931E+01 0.  0.
         13    1    3    3    0    0 -0.26153327734E+02 -0.20936273845E+02 -0.43787932953E+02  0.55133640823E+02  0.10566000000E+00 0. -1.
         13    1    4    4    0    0  0.57024694810E+01  0.46186094554E+01  0.18764476717E+01  0.75750862294E+01  0.10566000000E+00 0. -1.
        -13    1    4    4    0    0  0.14048924096E+02  0.11567529146E+02  0.32959124233E+01  0.18494707392E+02  0.10566000000E+00 0.  1.
         14    1    4    4    0    0  0.64019341567E+01  0.47501352431E+01  0.71856251646E+00  0.80040538394E+01  0.00000000000E+00 0. -1.
<mgrwt>
<rscale>  0 0.80757616E+02</rscale>
<asrwt>0</asrwt>
<pdfrwt beam="1">  1        1 0.97772691E-02 0.80757616E+02</pdfrwt>
<pdfrwt beam="2">  1       -2 0.39469598E-02 0.80757616E+02</pdfrwt>
<totfact> 0.13311341E+05</totfact>
</mgrwt>
</event>
<event>
 8    1  0.1241100E-024  0.7829593E+02  0.7818608E-02  0.1333958E+00
          1   -1    0    0  501    0  0.00000000000E+00  0.00000000000E+00  0.43499617496E+01  0.43499646694E+01  0.50400000000E-02 0. -1.
         -2   -1    0    0    0  501 -0.00000000000E+00 -0.00000000000E+00 -0.35231635491E+03  0.35231635492E+03  0.25500000000E-02 0.  1.
        -24    2    1    2    0    0  0.17763568394E-14  0.35527136788E-14 -0.34796639316E+03  0.35666631959E+03  0.78295930673E+02 0.  0.
         66    2    3    3    0    0 -0.13143446366E+02 -0.30734789327E+02 -0.26669256368E+03  0.26878672025E+03  0.20000009281E+01 0.  0.
         13    1    3    3    0    0  0.13143446366E+02  0.30734789327E+02 -0.81273829483E+02  0.87879599340E+02  0.10566000000E+00 0. -1.
         13    1    4    4    0    0 -0.10859113640E+01 -0.27172342502E+01 -0.24115699397E+02  0.24292811425E+02  0.10566000000E+00 0. -1.
        -13    1    4    4    0    0 -0.11949042930E+02 -0.27631935328E+02 -0.23733067169E+03  0.23923244421E+03  0.10566000000E+00 0.  1.
         14    1    4    4    0    0 -0.10849207220E+00 -0.38561974880E+00 -0.52461925952E+01  0.52614646123E+01  0.00000000000E+00 0. -1.
<mgrwt>
<rscale>  0 0.78295931E+02</rscale>
<asrwt>0</asrwt>
<pdfrwt beam="1">  1        1 0.66922539E-03 0.78295931E+02</pdfrwt>
<pdfrwt beam="2">  1       -2 0.54202494E-01 0.78295931E+02</pdfrwt>
<totfact> 0.67719513E+04</totfact>
</mgrwt>
</event>
<event>
 8    1  0.1241100E-024  0.8029902E+02  0.7818608E-02  0.1328205E+00
          1   -1    0    0  501    0  0.00000000000E+00  0.00000000000E+00  0.13017862124E+01  0.13017959688E+01  0.50400000000E-02 0. -1.
         -2   -1    0    0    0  501 -0.00000000000E+00 -0.00000000000E+00 -0.12382808888E+04  0.12382808888E+04  0.25500000000E-02 0.  1.
        -24    2    1    2    0    0  0.35527136788E-14  0.00000000000E+00 -0.12369791026E+04  0.12395826848E+04  0.80299017097E+02 0.  0.
         66    2    3    3    0    0 -0.20547194409E+02  0.10035244326E+01 -0.11506755250E+04  0.11508611377E+04  0.20000006846E+01 0.  0.
         13    1    3    3    0    0  0.20547194409E+02 -0.10035244326E+01 -0.86303577549E+02  0.88721547107E+02  0.10566000000E+00 0. -1.
         13    1    4    4    0    0 -0.53117650066E+01 -0.26964990013E+00 -0.26737791054E+03  0.26743082426E+03  0.10566000000E+00 0. -1.
        -13    1    4    4    0    0 -0.11439150124E+02  0.13109320580E+01 -0.66750412821E+03  0.66760343397E+03  0.10566000000E+00 0.  1.
        -14    1    4    4    0    0 -0.37962792784E+01 -0.37757725345E-01 -0.21579348628E+03  0.21582687943E+03  0.00000000000E+00 0.  1.
<mgrwt>
<rscale>  0 0.80299017E+02</rscale>
<asrwt>0</asrwt>
<pdfrwt beam="1">  1        1 0.20027654E-03 0.80299017E+02</pdfrwt>
<pdfrwt beam="2">  1       -2 0.19050381E+00 0.80299017E+02</pdfrwt>
<totfact> 0.19703944E+04</totfact>
</mgrwt>
</event>
<event>
 8    1  0.1241100E-024  0.7811872E+02  0.7818608E-02  0.1334477E+00
          1   -1    0    0  501    0  0.00000000000E+00  0.00000000000E+00  0.22045068511E+02  0.22045069087E+02  0.50400000000E-02 0. -1.
         -2   -1    0    0    0  501 -0.00000000000E+00 -0.00000000000E+00 -0.69205215750E+02  0.69205215797E+02  0.25500000000E-02 0.  1.
        -24    2    1    2    0    0  0.00000000000E+00 -0.88817841970E-15 -0.47160147238E+02  0.91250284884E+02  0.78118723773E+02 0.  0.
         66    2    3    3    0    0  0.33136268526E+02  0.52565304323E+01 -0.46898531030E+02  0.57698488939E+02  0.20000022526E+01 0.  0.
         13    1    3    3    0    0 -0.33136268526E+02 -0.52565304323E+01 -0.26161620777E+00  0.33551795945E+02  0.10566000000E+00 0. -1.
         13    1    4    4    0    0  0.89638061015E+00  0.22127402813E+00 -0.16809356112E+01  0.19207209476E+01  0.10566000000E+00 0.  1.
        -13    1    4    4    0    0  0.87144886893E+01  0.12877650913E+01 -0.11236390610E+02  0.14278245341E+02  0.10566000000E+00 0.  1.
        -14    1    4    4    0    0  0.23525399227E+02  0.37474913129E+01 -0.33981204809E+02  0.41499522651E+02  0.00000000000E+00 0.  1.
<mgrwt>
<rscale>  0 0.78118724E+02</rscale>
<asrwt>0</asrwt>
<pdfrwt beam="1">  1        1 0.33915491E-02 0.78118724E+02</pdfrwt>
<pdfrwt beam="2">  1       -2 0.10646956E-01 0.78118724E+02</pdfrwt>
<totfact> 0.12234686E+05</totfact>
</mgrwt>
</event>
<event>
 8    1  0.1241100E-024  0.7961086E+02  0.7818608E-02  0.1330159E+00
          1   -1    0    0  501    0  0.00000000000E+00  0.00000000000E+00  0.27723369036E+02  0.27723369494E+02  0.50400000000E-02 0. -1.
         -2   -1    0    0    0  501 -0.00000000000E+00 -0.00000000000E+00 -0.57152943678E+02  0.57152943735E+02  0.25500000000E-02 0.  1.
        -24    2    1    2    0    0  0.44408920985E-15  0.00000000000E+00 -0.29429574643E+02  0.84876313229E+02  0.79610857825E+02 0.  0.
         66    2    3    3    0    0 -0.38878352886E+01  0.39552345016E+02 -0.12888565669E+02  0.41828439862E+02  0.19999991867E+01 0.  0.
         13    1    3    3    0    0  0.38878352886E+01 -0.39552345016E+02 -0.16541008974E+02  0.43047873367E+02  0.10566000000E+00 0. -1.
         13    1    4    4    0    0 -0.31236829630E-01  0.80121136032E+00 -0.47936082327E+00  0.94014159461E+00  0.10566000000E+00 0. -1.
        -13    1    4    4    0    0 -0.39379271849E+01  0.38094684896E+02 -0.12171916749E+02  0.40185557221E+02  0.10566000000E+00 0.  1.
        -14    1    4    4    0    0  0.81328725989E-01  0.65644876047E+00 -0.23728809621E+00  0.70274104576E+00  0.00000000000E+00 0.  1.
<mgrwt>
<rscale>  0 0.79610858E+02</rscale>
<asrwt>0</asrwt>
<pdfrwt beam="1">  1        1 0.42651338E-02 0.79610858E+02</pdfrwt>
<pdfrwt beam="2">  1       -2 0.87927606E-02 0.79610858E+02</pdfrwt>
<totfact> 0.12093563E+05</totfact>
</mgrwt>
</event>
<event>
 8    1  0.1241100E-024  0.8482272E+02  0.7818608E-02  0.1315897E+00
         -2   -1    0    0    0  501 -0.00000000000E+00  0.00000000000E+00  0.43843033987E+03  0.43843033988E+03  0.25500000000E-02 0.  1.
          1   -1    0    0  501    0  0.00000000000E+00 -0.00000000000E+00 -0.41026419759E+01  0.41026450717E+01  0.50400000000E-02 0. -1.
        -24    2    1    2    0    0  0.00000000000E+00  0.00000000000E+00  0.43432769789E+03  0.44253298495E+03  0.84822718714E+02 0.  0.
         66    2    3    3    0    0  0.26395622714E+02  0.63238540206E+01  0.38714226226E+03  0.38809773417E+03  0.20000014470E+01 0.  0.
         13    1    3    3    0    0 -0.26395622714E+02 -0.63238540206E+01  0.47185435628E+02  0.54435250781E+02  0.10566000000E+00 0. -1.
         13    1    4    4    0    0  0.65266375145E+01  0.14559376228E+01  0.88221936369E+02  0.88475069779E+02  0.10566000000E+00 0. -1.
        -13    1    4    4    0    0  0.11438322119E+02  0.23025965060E+01  0.17721728603E+03  0.17760099886E+03  0.10566000000E+00 0.  1.
         14    1    4    4    0    0  0.84306630809E+01  0.25653198918E+01  0.12170303987E+03  0.12202166553E+03  0.00000000000E+00 0. -1.
<mgrwt>
<rscale>  0 0.84822719E+02</rscale>
<asrwt>0</asrwt>
<pdfrwt beam="1">  1        1 0.63117585E-03 0.84822719E+02</pdfrwt>
<pdfrwt beam="2">  1       -2 0.67450830E-01 0.84822719E+02</pdfrwt>
<totfact> 0.47694666E+04</totfact>
</mgrwt>
</event>
<event>
 8    1  0.1241100E-024  0.8044219E+02  0.7818608E-02  0.1327801E+00
         -2   -1    0    0    0  501 -0.00000000000E+00  0.00000000000E+00  0.25264402984E+02  0.25264403113E+02  0.25500000000E-02 0.  1.
          1   -1    0    0  501    0  0.00000000000E+00 -0.00000000000E+00 -0.64032251320E+02  0.64032251519E+02  0.50400000000E-02 0. -1.
        -24    2    1    2    0    0 -0.35527136788E-14  0.00000000000E+00 -0.38767848336E+02  0.89296654632E+02  0.80442193305E+02 0.  0.
         66    2    3    3    0    0  0.29478552327E+02  0.20338214387E+02  0.86419874276E+00  0.35880006183E+02  0.19999981252E+01 0.  0.
         13    1    3    3    0    0 -0.29478552327E+02 -0.20338214387E+02 -0.39632047079E+02  0.53416648448E+02  0.10566000000E+00 0. -1.
         13    1    4    4    0    0  0.51524741655E+01  0.43101515410E+01 -0.28567657654E+00  0.67244458117E+01  0.10566000000E+00 0. -1.
        -13    1    4    4    0    0  0.14906194341E+02  0.98892335020E+01  0.61374778953E+00  0.17899145772E+02  0.10566000000E+00 0.  1.
         14    1    4    4    0    0  0.94198838204E+01  0.61388293441E+01  0.53612752977E+00  0.11256414599E+02  0.00000000000E+00 0. -1.
<mgrwt>
<rscale>  0 0.80442193E+02</rscale>
<asrwt>0</asrwt>
<pdfrwt beam="1">  1        1 0.98511156E-02 0.80442193E+02</pdfrwt>
<pdfrwt beam="2">  1       -2 0.38868313E-02 0.80442193E+02</pdfrwt>
<totfact> 0.13471474E+05</totfact>
</mgrwt>
</event>
<event>
 8    1  0.1241100E-024  0.7935920E+02  0.7818608E-02  0.1330880E+00
          1   -1    0    0  501    0  0.00000000000E+00  0.00000000000E+00  0.58197573284E+01  0.58197595107E+01  0.50400000000E-02 0. -1.
         -2   -1    0    0    0  501 -0.00000000000E+00 -0.00000000000E+00 -0.27053881418E+03  0.27053881419E+03  0.25500000000E-02 0.  1.
        -24    2    1    2    0    0  0.71054273576E-14  0.00000000000E+00 -0.26471905685E+03  0.27635857370E+03  0.79359197315E+02 0.  0.
         66    2    3    3    0    0 -0.33269000555E+02  0.18764397485E+02 -0.16954931249E+03  0.17380994905E+03  0.20000036025E+01 0.  0.
         13    1    3    3    0    0  0.33269000555E+02 -0.18764397485E+02 -0.95169744362E+02  0.10254862465E+03  0.10566000000E+00 0. -1.
         13    1    4    4    0    0 -0.38419996245E+01  0.27686891787E+01 -0.20175555846E+02  0.20724160263E+02  0.10566000000E+00 0. -1.
        -13    1    4    4    0    0 -0.45505834467E+01  0.21411961745E+01 -0.23137750710E+02  0.23678243236E+02  0.10566000000E+00 0.  1.
        -14    1    4    4    0    0 -0.24876417483E+02  0.13854512132E+02 -0.12623600593E+03  0.12940754555E+03  0.00000000000E+00 0.  1.
<mgrwt>
<rscale>  0 0.79359197E+02</rscale>
<asrwt>0</asrwt>
<pdfrwt beam="1">  1        1 0.89534766E-03 0.79359197E+02</pdfrwt>
<pdfrwt beam="2">  1       -2 0.41621346E-01 0.79359197E+02</pdfrwt>
<totfact> 0.75739945E+04</totfact>
</mgrwt>
</event>
<event>
 8    1  0.1241100E-024  0.7927846E+02  0.7818608E-02  0.1331112E+00
          1   -1    0    0  501    0  0.00000000000E+00  0.00000000000E+00  0.15842144444E+03  0.15842144452E+03  0.50400000000E-02 0. -1.
         -2   -1    0    0    0  501 -0.00000000000E+00 -0.00000000000E+00 -0.99182811566E+01  0.99182814844E+01  0.25500000000E-02 0.  1.
        -24    2    1    2    0    0  0.35527136788E-14  0.00000000000E+00  0.14850316329E+03  0.16833972601E+03  0.79278457643E+02 0.  0.
         66    2    3    3    0    0 -0.28825437931E+02  0.12008817269E+02  0.22540646642E+02  0.38564210876E+02  0.20000113423E+01 0.  0.
         13    1    3    3    0    0  0.28825437931E+02 -0.12008817269E+02  0.12596251665E+03  0.12977551513E+03  0.10566000000E+00 0. -1.
         13    1    4    4    0    0 -0.82620582517E+01  0.30549293964E+01  0.58092187864E+01  0.10552364053E+02  0.10566000000E+00 0.  1.
        -13    1    4    4    0    0 -0.70001699796E+01  0.23870492837E+01  0.54994184594E+01  0.92171118825E+01  0.10566000000E+00 0.  1.
        -14    1    4    4    0    0 -0.13563209699E+02  0.65668385894E+01  0.11232009396E+02  0.18794734940E+02  0.00000000000E+00 0.  1.
<mgrwt>
<rscale>  0 0.79278458E+02</rscale>
<asrwt>0</asrwt>
<pdfrwt beam="1">  1        1 0.24372527E-01 0.79278458E+02</pdfrwt>
<pdfrwt beam="2">  1       -2 0.15258896E-02 0.79278458E+02</pdfrwt>
<totfact> 0.16339369E+05</totfact>
</mgrwt>
</event>
<event>
 8    1  0.1701201E-024  0.7523481E+02  0.7818608E-02  0.1343145E+00
          1   -1    0    0  501    0  0.00000000000E+00  0.00000000000E+00  0.13094482248E+03  0.13094482258E+03  0.50400000000E-02 0. -1.
         -2   -1    0    0    0  501 -0.00000000000E+00 -0.00000000000E+00 -0.10806605162E+02  0.10806605463E+02  0.25500000000E-02 0.  1.
        -24    2    1    2    0    0  0.00000000000E+00  0.00000000000E+00  0.12013821732E+03  0.14175142804E+03  0.75234806381E+02 0.  0.
         66    2    3    3    0    0  0.18023788954E+01 -0.24326966888E+02  0.62238112765E+01  0.25254419687E+02  0.19999998170E+01 0.  0.
         13    1    3    3    0    0 -0.18023788954E+01  0.24326966888E+02  0.11391440604E+03  0.11649700835E+03  0.10566000000E+00 0. -1.
         13    1    4    4    0    0  0.88089671639E+00 -0.11870373211E+02  0.30997722877E+01  0.12300467124E+02  0.10566000000E+00 0. -1.
        -13    1    4    4    0    0  0.45765459036E+00 -0.10381995848E+02  0.21364872730E+01  0.10609949454E+02  0.10566000000E+00 0.  1.
         14    1    4    4    0    0  0.46382758870E+00 -0.20745978279E+01  0.98755171582E+00  0.23440031082E+01  0.00000000000E+00 0. -1.
<mgrwt>
<rscale>  0 0.75234806E+02</rscale>
<asrwt>0</asrwt>
<pdfrwt beam="1">  1        1 0.20145359E-01 0.75234806E+02</pdfrwt>
<pdfrwt beam="2">  1       -2 0.16625546E-02 0.75234806E+02</pdfrwt>
<totfact> 0.18148713E+05</totfact>
</mgrwt>
</event>
<event>
 8    1  0.1241100E-024  0.8130632E+02  0.7818608E-02  0.1325385E+00
         -2   -1    0    0    0  501 -0.00000000000E+00  0.00000000000E+00  0.26143639131E+03  0.26143639132E+03  0.25500000000E-02 0.  1.
          1   -1    0    0  501    0  0.00000000000E+00 -0.00000000000E+00 -0.63215339793E+01  0.63215359884E+01  0.50400000000E-02 0. -1.
        -24    2    1    2    0    0 -0.35527136788E-14  0.00000000000E+00  0.25511485733E+03  0.26775792731E+03  0.81306317141E+02 0.  0.
         66    2    3    3    0    0 -0.25547049079E+02 -0.15781289715E+02  0.21776063979E+03  0.21983038248E+03  0.19999992571E+01 0.  0.
         13    1    3    3    0    0  0.25547049079E+02  0.15781289715E+02  0.37354217546E+02  0.47927544838E+02  0.10566000000E+00 0. -1.
         13    1    4    4    0    0 -0.18595879926E+02 -0.11366522187E+02  0.15232432927E+03  0.15387565444E+03  0.10566000000E+00 0.  1.
        -13    1    4    4    0    0 -0.41330291881E+01 -0.28703265888E+01  0.41204815675E+02  0.41511067246E+02  0.10566000000E+00 0. -1.
        -14    1    4    4    0    0 -0.28181399641E+01 -0.15444409394E+01  0.24231494841E+02  0.24443660791E+02  0.00000000000E+00 0.  1.
<mgrwt>
<rscale>  0 0.81306317E+02</rscale>
<asrwt>0</asrwt>
<pdfrwt beam="1">  1        1 0.97254382E-03 0.81306317E+02</pdfrwt>
<pdfrwt beam="2">  1       -2 0.40220984E-01 0.81306317E+02</pdfrwt>
<totfact> 0.72367703E+04</totfact>
</mgrwt>
</event>
<event>
 8    1  0.1241100E-024  0.7339695E+02  0.7818608E-02  0.1348908E+00
          1   -1    0    0  501    0  0.00000000000E+00  0.00000000000E+00  0.38768462505E+01  0.38768495266E+01  0.50400000000E-02 0. -1.
         -2   -1    0    0    0  501 -0.00000000000E+00 -0.00000000000E+00 -0.34738997233E+03  0.34738997234E+03  0.25500000000E-02 0.  1.
        -24    2    1    2    0    0  0.00000000000E+00 -0.17763568394E-14 -0.34351312608E+03  0.35126682187E+03  0.73396950583E+02 0.  0.
         66    2    3    3    0    0  0.86830596520E+01 -0.13863822274E+02 -0.32895678724E+03  0.32936935038E+03  0.20000013585E+01 0.  0.
         13    1    3    3    0    0 -0.86830596520E+01  0.13863822274E+02 -0.14556338835E+02  0.21897471482E+02  0.10566000000E+00 0. -1.
         13    1    4    4    0    0  0.16099068552E+01 -0.15247056930E+01 -0.38881536413E+02  0.38944852875E+02  0.10566000000E+00 0. -1.
        -13    1    4    4    0    0  0.57392561141E+01 -0.94709647925E+01 -0.22683483078E+03  0.22710501944E+03  0.10566000000E+00 0.  1.
        -14    1    4    4    0    0  0.13338966826E+01 -0.28681517890E+01 -0.63240420047E+02  0.63319478067E+02  0.00000000000E+00 0.  1.
<mgrwt>
<rscale>  0 0.73396951E+02</rscale>
<asrwt>0</asrwt>
<pdfrwt beam="1">  1        1 0.59643841E-03 0.73396951E+02</pdfrwt>
<pdfrwt beam="2">  1       -2 0.53444587E-01 0.73396951E+02</pdfrwt>
<totfact> 0.80647114E+04</totfact>
</mgrwt>
</event>
<event>
 8    1  0.1241100E-024  0.7880563E+02  0.7818608E-02  0.1332475E+00
         -2   -1    0    0    0  501 -0.00000000000E+00  0.00000000000E+00  0.49626141769E+02  0.49626141834E+02  0.25500000000E-02 0.  1.
          1   -1    0    0  501    0  0.00000000000E+00 -0.00000000000E+00 -0.31285565992E+02  0.31285566398E+02  0.50400000000E-02 0. -1.
        -24    2    1    2    0    0 -0.22204460493E-15 -0.35527136788E-14  0.18340575777E+02  0.80911708232E+02  0.78805633106E+02 0.  0.
         66    2    3    3    0    0  0.13270099475E+01 -0.23528345281E+02  0.41566591774E+02  0.47823901260E+02  0.19999982331E+01 0.  0.
         13    1    3    3    0    0 -0.13270099475E+01  0.23528345281E+02 -0.23226015998E+02  0.33087806972E+02  0.10566000000E+00 0. -1.
         13    1    4    4    0    0 -0.18298701203E+00 -0.58066189538E+01  0.10197646925E+02  0.11736842623E+02  0.10566000000E+00 0. -1.
        -13    1    4    4    0    0  0.59597674483E-01 -0.85594557757E+01  0.14707758726E+02  0.17017554638E+02  0.10566000000E+00 0.  1.
         14    1    4    4    0    0  0.14503992851E+01 -0.91622705515E+01  0.16661186123E+02  0.19069503999E+02  0.00000000000E+00 0. -1.
<mgrwt>
<rscale>  0 0.78805633E+02</rscale>
<asrwt>0</asrwt>
<pdfrwt beam="1">  1        1 0.48131641E-02 0.78805633E+02</pdfrwt>
<pdfrwt beam="2">  1       -2 0.76347910E-02 0.78805633E+02</pdfrwt>
<totfact> 0.12720022E+05</totfact>
</mgrwt>
</event>
<event>
 8    1  0.1241100E-024  0.7859205E+02  0.7818608E-02  0.1333095E+00
          1   -1    0    0  501    0  0.00000000000E+00  0.00000000000E+00  0.50447494709E+02  0.50447494961E+02  0.50400000000E-02 0. -1.
         -2   -1    0    0    0  501 -0.00000000000E+00 -0.00000000000E+00 -0.30609597374E+02  0.30609597480E+02  0.25500000000E-02 0.  1.
        -24    2    1    2    0    0 -0.35527136788E-14  0.00000000000E+00  0.19837897335E+02  0.81057092441E+02  0.78592048353E+02 0.  0.
         66    2    3    3    0    0  0.19939586420E+02  0.44236201364E+01 -0.24667943740E+02  0.32088361852E+02  0.19999990588E+01 0.  0.
         13    1    3    3    0    0 -0.19939586420E+02 -0.44236201364E+01  0.44505841075E+02  0.48968730590E+02  0.10566000000E+00 0. -1.
         13    1    4    4    0    0  0.23730342816E+01  0.22283029788E+00 -0.36372280751E+01  0.43498893261E+01  0.10566000000E+00 0. -1.
        -13    1    4    4    0    0  0.88474249220E+01  0.24280888728E+01 -0.10128978007E+02  0.13666744412E+02  0.10566000000E+00 0.  1.
        -14    1    4    4    0    0  0.87191272165E+01  0.17727009657E+01 -0.10901737658E+02  0.14071728114E+02  0.00000000000E+00 0.  1.
<mgrwt>
<rscale>  0 0.78592048E+02</rscale>
<asrwt>0</asrwt>
<pdfrwt beam="1">  1        1 0.77611530E-02 0.78592048E+02</pdfrwt>
<pdfrwt beam="2">  1       -2 0.47091689E-02 0.78592048E+02</pdfrwt>
<totfact> 0.13841296E+05</totfact>
</mgrwt>
</event>
<event>
 8    1  0.1241100E-024  0.8019744E+02  0.7818608E-02  0.1328492E+00
          1   -1    0    0  501    0  0.00000000000E+00  0.00000000000E+00  0.94248539876E+02  0.94248540010E+02  0.50400000000E-02 0. -1.
         -2   -1    0    0    0  501 -0.00000000000E+00 -0.00000000000E+00 -0.17060287275E+02  0.17060287465E+02  0.25500000000E-02 0.  1.
        -24    2    1    2    0    0  0.00000000000E+00  0.00000000000E+00  0.77188252601E+02  0.11130882748E+03  0.80197435959E+02 0.  0.
         66    2    3    3    0    0 -0.27603559009E+01  0.37428001057E+02  0.19116349605E+02  0.42165267331E+02  0.20000297632E+01 0.  0.
         13    1    3    3    0    0  0.27603559009E+01 -0.37428001057E+02  0.58071902996E+02  0.69143560144E+02  0.10566000000E+00 0. -1.
         13    1    4    4    0    0 -0.21264418015E+01  0.29493237235E+02  0.14292029120E+02  0.32842747414E+02  0.10566000000E+00 0. -1.
        -13    1    4    4    0    0 -0.63835343641E+00  0.78663629957E+01  0.48303988061E+01  0.92537062062E+01  0.10566000000E+00 0.  1.
        -14    1    4    4    0    0  0.44393369988E-02  0.68400826591E-01 -0.60783206769E-02  0.68813710651E-01  0.00000000000E+00 0.  1.
<mgrwt>
<rscale>  0 0.80197436E+02</rscale>
<asrwt>0</asrwt>
<pdfrwt beam="1">  1        1 0.14499775E-01 0.80197436E+02</pdfrwt>
<pdfrwt beam="2">  1       -2 0.26246596E-02 0.80197436E+02</pdfrwt>
<totfact> 0.14457472E+05</totfact>
</mgrwt>
</event>
<event>
 8    1  0.1241100E-024  0.7931172E+02  0.7818608E-02  0.1331016E+00
          1   -1    0    0  501    0  0.00000000000E+00  0.00000000000E+00  0.27557995871E+02  0.27557996332E+02  0.50400000000E-02 0. -1.
         -2   -1    0    0    0  501 -0.00000000000E+00 -0.00000000000E+00 -0.57064638507E+02  0.57064638564E+02  0.25500000000E-02 0.  1.
        -24    2    1    2    0    0 -0.17763568394E-14  0.00000000000E+00 -0.29506642636E+02  0.84622634896E+02  0.79311716518E+02 0.  0.
         66    2    3    3    0    0 -0.79972371725E+01  0.18681937713E+02 -0.51064682303E+02  0.54996112363E+02  0.19999993291E+01 0.  0.
         13    1    3    3    0    0  0.79972371725E+01 -0.18681937713E+02  0.21558039666E+02  0.29626522532E+02  0.10566000000E+00 0. -1.
         13    1    4    4    0    0 -0.52632890335E+01  0.10696788210E+02 -0.29569015957E+02  0.31881991126E+02  0.10566000000E+00 0. -1.
        -13    1    4    4    0    0 -0.11360562157E+01  0.29820733864E+01 -0.69199339901E+01  0.76210259067E+01  0.10566000000E+00 0.  1.
         14    1    4    4    0    0 -0.15978919233E+01  0.50030761163E+01 -0.14575732355E+02  0.15493095330E+02  0.00000000000E+00 0. -1.
<mgrwt>
<rscale>  0 0.79311717E+02</rscale>
<asrwt>0</asrwt>
<pdfrwt beam="1">  1        1 0.42396917E-02 0.79311717E+02</pdfrwt>
<pdfrwt beam="2">  1       -2 0.87791752E-02 0.79311717E+02</pdfrwt>
<totfact> 0.12212511E+05</totfact>
</mgrwt>
</event>
<event>
 8    1  0.1241100E-024  0.7804523E+02  0.7818608E-02  0.1334692E+00
         -2   -1    0    0    0  501 -0.00000000000E+00  0.00000000000E+00  0.21269309716E+02  0.21269309869E+02  0.25500000000E-02 0.  1.
          1   -1    0    0  501    0  0.00000000000E+00 -0.00000000000E+00 -0.71594450409E+02  0.71594450586E+02  0.50400000000E-02 0. -1.
        -24    2    1    2    0    0  0.00000000000E+00 -0.44408920985E-15 -0.50325140693E+02  0.92863760455E+02  0.78045231886E+02 0.  0.
         66    2    3    3    0    0  0.18930570614E+02  0.39292596967E+01  0.15117967865E+02  0.24624349502E+02  0.20000126291E+01 0.  0.
         13    1    3    3    0    0 -0.18930570614E+02 -0.39292596967E+01 -0.65443108557E+02  0.68239410953E+02  0.10566000000E+00 0. -1.
         13    1    4    4    0    0  0.14939628143E+02  0.24664380088E+01  0.12071287290E+02  0.19364992806E+02  0.10566000000E+00 0.  1.
        -13    1    4    4    0    0  0.96346443266E+00  0.37954431933E+00  0.48557049114E+00  0.11485905889E+01  0.10566000000E+00 0. -1.
        -14    1    4    4    0    0  0.30274780379E+01  0.10832773686E+01  0.25611100836E+01  0.41107661071E+01  0.00000000000E+00 0.  1.
<mgrwt>
<rscale>  0 0.78045232E+02</rscale>
<asrwt>0</asrwt>
<pdfrwt beam="1">  1        1 0.11014531E-01 0.78045232E+02</pdfrwt>
<pdfrwt beam="2">  1       -2 0.32722015E-02 0.78045232E+02</pdfrwt>
<totfact> 0.14893013E+05</totfact>
</mgrwt>
</event>
<event>
 8    1  0.1241100E-024  0.8225000E+02  0.7818608E-02  0.1322785E+00
          1   -1    0    0  501    0  0.00000000000E+00  0.00000000000E+00  0.27174618154E+02  0.27174618621E+02  0.50400000000E-02 0. -1.
         -2   -1    0    0    0  501 -0.00000000000E+00 -0.00000000000E+00 -0.62236963385E+02  0.62236963437E+02  0.25500000000E-02 0.  1.
        -24    2    1    2    0    0  0.00000000000E+00 -0.71054273576E-14 -0.35062345231E+02  0.89411582058E+02  0.82250002754E+02 0.  0.
         66    2    3    3    0    0 -0.50343505336E+01  0.37233375967E+02 -0.35653290326E+02  0.51834603051E+02  0.19999978018E+01 0.  0.
         13    1    3    3    0    0  0.50343505336E+01 -0.37233375967E+02  0.59094509448E+00  0.37576979008E+02  0.10566000000E+00 0. -1.
         13    1    4    4    0    0 -0.47867505700E-01  0.28299449717E+01 -0.27149938274E+01  0.39234213843E+01  0.10566000000E+00 0.  1.
        -13    1    4    4    0    0 -0.19237551218E+01  0.94251527451E+01 -0.86658541736E+01  0.12947684373E+02  0.10566000000E+00 0. -1.
        -14    1    4    4    0    0 -0.30627279061E+01  0.24978278250E+02 -0.24272442325E+02  0.34963497293E+02  0.00000000000E+00 0.  1.
<mgrwt>
<rscale>  0 0.82250003E+02</rscale>
<asrwt>0</asrwt>
<pdfrwt beam="1">  1        1 0.41807105E-02 0.82250003E+02</pdfrwt>
<pdfrwt beam="2">  1       -2 0.95749174E-02 0.82250003E+02</pdfrwt>
<totfact> 0.10960178E+05</totfact>
</mgrwt>
</event>
<event>
 8    1  0.1241100E-024  0.7984973E+02  0.7818608E-02  0.1329478E+00
         -2   -1    0    0    0  501 -0.00000000000E+00  0.00000000000E+00  0.35380276486E+02  0.35380276578E+02  0.25500000000E-02 0.  1.
          1   -1    0    0  501    0  0.00000000000E+00 -0.00000000000E+00 -0.45053203051E+02  0.45053203333E+02  0.50400000000E-02 0. -1.
        -24    2    1    2    0    0  0.17763568394E-14 -0.71054273576E-14 -0.96729265653E+01  0.80433479911E+02  0.79849728755E+02 0.  0.
         66    2    3    3    0    0 -0.87915999916E+01  0.27478911392E+02  0.22922968191E+02  0.36903187921E+02  0.20000015890E+01 0.  0.
         13    1    3    3    0    0  0.87915999916E+01 -0.27478911392E+02 -0.32595894756E+02  0.43530291990E+02  0.10566000000E+00 0. -1.
         13    1    4    4    0    0 -0.32700187903E+01  0.12827570532E+02  0.10275683174E+02  0.16758293988E+02  0.10566000000E+00 0. -1.
        -13    1    4    4    0    0 -0.45496593945E+01  0.12830967755E+02  0.11098103651E+02  0.17564515445E+02  0.10566000000E+00 0.  1.
         14    1    4    4    0    0 -0.97192180673E+00  0.18203731055E+01  0.15491813660E+01  0.25803784890E+01  0.00000000000E+00 0. -1.
<mgrwt>
<rscale>  0 0.79849729E+02</rscale>
<asrwt>0</asrwt>
<pdfrwt beam="1">  1        1 0.69312621E-02 0.79849729E+02</pdfrwt>
<pdfrwt beam="2">  1       -2 0.54431195E-02 0.79849729E+02</pdfrwt>
<totfact> 0.13010541E+05</totfact>
</mgrwt>
</event>
<event>
 8    1  0.1241100E-024  0.8121555E+02  0.7818608E-02  0.1325637E+00
         -2   -1    0    0    0  501 -0.00000000000E+00  0.00000000000E+00  0.29281952229E+02  0.29281952340E+02  0.25500000000E-02 0.  1.
          1   -1    0    0  501    0  0.00000000000E+00 -0.00000000000E+00 -0.56314262723E+02  0.56314262948E+02  0.50400000000E-02 0. -1.
        -24    2    1    2    0    0  0.00000000000E+00  0.00000000000E+00 -0.27032310494E+02  0.85596215288E+02  0.81215554304E+02 0.  0.
         66    2    3    3    0    0 -0.63509232405E+01 -0.31440773081E+02  0.12678930249E+02  0.34548686030E+02  0.19999990523E+01 0.  0.
         13    1    3    3    0    0  0.63509232405E+01  0.31440773081E+02 -0.39711240742E+02  0.51047529258E+02  0.10566000000E+00 0. -1.
         13    1    4    4    0    0 -0.76895160585E+00 -0.24542314164E+01  0.11396483042E+01  0.28150489712E+01  0.10566000000E+00 0. -1.
        -13    1    4    4    0    0 -0.99172695749E+00 -0.58814166642E+01  0.16842292663E+01  0.61985785946E+01  0.10566000000E+00 0.  1.
        -14    1    4    4    0    0 -0.45902446772E+01 -0.23105125001E+02  0.98550526780E+01  0.25535058464E+02  0.00000000000E+00 0.  1.
<mgrwt>
<rscale>  0 0.81215554E+02</rscale>
<asrwt>0</asrwt>
<pdfrwt beam="1">  1        1 0.86637328E-02 0.81215554E+02</pdfrwt>
<pdfrwt beam="2">  1       -2 0.45049157E-02 0.81215554E+02</pdfrwt>
<totfact> 0.12856659E+05</totfact>
</mgrwt>
</event>
<event>
 8    1  0.1241100E-024  0.7979026E+02  0.7818608E-02  0.1329648E+00
         -2   -1    0    0    0  501 -0.00000000000E+00  0.00000000000E+00  0.92968483761E+01  0.92968487258E+01  0.25500000000E-02 0.  1.
          1   -1    0    0  501    0  0.00000000000E+00 -0.00000000000E+00 -0.17120010861E+03  0.17120010869E+03  0.50400000000E-02 0. -1.
        -24    2    1    2    0    0  0.00000000000E+00  0.00000000000E+00 -0.16190326024E+03  0.18049695741E+03  0.79790262314E+02 0.  0.
         66    2    3    3    0    0 -0.32938810414E+02 -0.92157607615E+01 -0.34657617593E+02  0.48734442964E+02  0.19999989820E+01 0.  0.
         13    1    3    3    0    0  0.32938810414E+02  0.92157607615E+01 -0.12724564265E+03  0.13176251445E+03  0.10566000000E+00 0. -1.
         13    1    4    4    0    0 -0.11873217056E+02 -0.33389338505E+01 -0.12463610782E+02  0.17534951391E+02  0.10566000000E+00 0.  1.
        -13    1    4    4    0    0 -0.41294030392E+01 -0.14912664005E+01 -0.37097932318E+01  0.57488759593E+01  0.10566000000E+00 0. -1.
         14    1    4    4    0    0 -0.16936190319E+02 -0.43855605106E+01 -0.18484213579E+02  0.25450615614E+02  0.00000000000E+00 0. -1.
<mgrwt>
<rscale>  0 0.79790262E+02</rscale>
<asrwt>0</asrwt>
<pdfrwt beam="1">  1        1 0.26338476E-01 0.79790262E+02</pdfrwt>
<pdfrwt beam="2">  1       -2 0.14302845E-02 0.79790262E+02</pdfrwt>
<totfact> 0.16296891E+05</totfact>
</mgrwt>
</event>
<event>
 8    1  0.1241100E-024  0.8193388E+02  0.7818608E-02  0.1323651E+00
         -2   -1    0    0    0  501 -0.00000000000E+00  0.00000000000E+00  0.57022931787E+03  0.57022931788E+03  0.25500000000E-02 0.  1.
          1   -1    0    0  501    0  0.00000000000E+00 -0.00000000000E+00 -0.29431826868E+01  0.29431870021E+01  0.50400000000E-02 0. -1.
        -24    2    1    2    0    0  0.00000000000E+00  0.17763568394E-14  0.56728613519E+03  0.57317250488E+03  0.81933882960E+02 0.  0.
         66    2    3    3    0    0  0.48759854608E+01  0.13737268773E+02  0.55145856310E+03  0.55165481472E+03  0.20000006024E+01 0.  0.
         13    1    3    3    0    0 -0.48759854608E+01 -0.13737268773E+02  0.15827572085E+02  0.21517690157E+02  0.10566000000E+00 0. -1.
         13    1    4    4    0    0  0.18236567002E+01  0.38591276144E+01  0.14638854326E+03  0.14645079499E+03  0.10566000000E+00 0. -1.
        -13    1    4    4    0    0  0.13241515061E+01  0.61176485052E+01  0.23103659514E+03  0.23112139334E+03  0.10566000000E+00 0.  1.
         14    1    4    4    0    0  0.17281772544E+01  0.37604926538E+01  0.17403342470E+03  0.17408262640E+03  0.00000000000E+00 0. -1.
<mgrwt>
<rscale>  0 0.81933883E+02</rscale>
<asrwt>0</asrwt>
<pdfrwt beam="1">  1        1 0.45279823E-03 0.81933883E+02</pdfrwt>
<pdfrwt beam="2">  1       -2 0.87727480E-01 0.81933883E+02</pdfrwt>
<totfact> 0.42654054E+04</totfact>
</mgrwt>
</event>
<event>
 8    1  0.1241100E-024  0.7902233E+02  0.7818608E-02  0.1331849E+00
         -2   -1    0    0    0  501 -0.00000000000E+00  0.00000000000E+00  0.44741737045E+03  0.44741737046E+03  0.25500000000E-02 0.  1.
          1   -1    0    0  501    0  0.00000000000E+00 -0.00000000000E+00 -0.34892057467E+01  0.34892093867E+01  0.50400000000E-02 0. -1.
        -24    2    1    2    0    0  0.00000000000E+00  0.00000000000E+00  0.44392816471E+03  0.45090657985E+03  0.79022328045E+02 0.  0.
         66    2    3    3    0    0  0.45957179904E+01 -0.18013338595E+02  0.42088066544E+03  0.42129578152E+03  0.19999983055E+01 0.  0.
         13    1    3    3    0    0 -0.45957179904E+01  0.18013338595E+02  0.23047499268E+02  0.29610798330E+02  0.10566000000E+00 0. -1.
         13    1    4    4    0    0  0.71604306161E+00 -0.29829316405E+01  0.58455459262E+02  0.58535993033E+02  0.10566000000E+00 0. -1.
        -13    1    4    4    0    0  0.28282231823E+01 -0.10027108166E+02  0.22977446260E+03  0.23001055752E+03  0.10566000000E+00 0.  1.
         14    1    4    4    0    0  0.10514517465E+01 -0.50032987884E+01  0.13265074358E+03  0.13274923096E+03  0.00000000000E+00 0. -1.
<mgrwt>
<rscale>  0 0.79022328E+02</rscale>
<asrwt>0</asrwt>
<pdfrwt beam="1">  1        1 0.53680141E-03 0.79022328E+02</pdfrwt>
<pdfrwt beam="2">  1       -2 0.68833410E-01 0.79022328E+02</pdfrwt>
<totfact> 0.56473906E+04</totfact>
</mgrwt>
</event>
<event>
 8    1  0.1241100E-024  0.8001001E+02  0.7818608E-02  0.1329023E+00
         -2   -1    0    0    0  501 -0.00000000000E+00  0.00000000000E+00  0.31812256921E+03  0.31812256922E+03  0.25500000000E-02 0.  1.
          1   -1    0    0  501    0  0.00000000000E+00 -0.00000000000E+00 -0.50307651647E+01  0.50307676894E+01  0.50400000000E-02 0. -1.
        -24    2    1    2    0    0 -0.35527136788E-14  0.00000000000E+00  0.31309180404E+03  0.32315333691E+03  0.80010008096E+02 0.  0.
         66    2    3    3    0    0  0.23941670821E+02 -0.28551653695E+02  0.21517211628E+03  0.21838369939E+03  0.20000008099E+01 0.  0.
         13    1    3    3    0    0 -0.23941670821E+02  0.28551653695E+02  0.97919687760E+02  0.10476963752E+03  0.10566000000E+00 0. -1.
         13    1    4    4    0    0  0.40669666074E+01 -0.49848794477E+01  0.39751422451E+02  0.40268796747E+02  0.10566000000E+00 0. -1.
        -13    1    4    4    0    0  0.15193161125E+01 -0.24193436262E+01  0.16746219885E+02  0.16988484026E+02  0.10566000000E+00 0.  1.
        -14    1    4    4    0    0  0.18355388101E+02 -0.21147430621E+02  0.15867447395E+03  0.16112641862E+03  0.00000000000E+00 0.  1.
<mgrwt>
<rscale>  0 0.80010008E+02</rscale>
<asrwt>0</asrwt>
<pdfrwt beam="1">  1        1 0.77396417E-03 0.80010008E+02</pdfrwt>
<pdfrwt beam="2">  1       -2 0.48941927E-01 0.80010008E+02</pdfrwt>
<totfact> 0.67995876E+04</totfact>
</mgrwt>
</event>
<event>
 8    1  0.1241100E-024  0.7948383E+02  0.7818608E-02  0.1330523E+00
         -2   -1    0    0    0  501 -0.00000000000E+00  0.00000000000E+00  0.52315804306E+01  0.52315810520E+01  0.25500000000E-02 0.  1.
          1   -1    0    0  501    0  0.00000000000E+00 -0.00000000000E+00 -0.30190108347E+03  0.30190108351E+03  0.50400000000E-02 0. -1.
        -24    2    1    2    0    0  0.00000000000E+00 -0.71054273576E-14 -0.29666950303E+03  0.30713266456E+03  0.79483832372E+02 0.  0.
         66    2    3    3    0    0 -0.10644509666E+02 -0.35497747047E+02 -0.93235552295E+02  0.10035070425E+03  0.20000001082E+01 0.  0.
         13    1    3    3    0    0  0.10644509666E+02  0.35497747047E+02 -0.20343395074E+03  0.20678196031E+03  0.10566000000E+00 0. -1.
         13    1    4    4    0    0 -0.47674546679E+01 -0.13668934131E+02 -0.35757822291E+02  0.38577213525E+02  0.10566000000E+00 0. -1.
        -13    1    4    4    0    0 -0.44922445571E+01 -0.15847748441E+02 -0.43050488103E+02  0.46094328086E+02  0.10566000000E+00 0.  1.
         14    1    4    4    0    0 -0.13848104410E+01 -0.59810644749E+01 -0.14427241901E+02  0.15679162640E+02  0.00000000000E+00 0. -1.
<mgrwt>
<rscale>  0 0.79483832E+02</rscale>
<asrwt>0</asrwt>
<pdfrwt beam="1">  1        1 0.46446307E-01 0.79483832E+02</pdfrwt>
<pdfrwt beam="2">  1       -2 0.80485881E-03 0.79483832E+02</pdfrwt>
<totfact> 0.18374059E+05</totfact>
</mgrwt>
</event>
<event>
 8    1  0.1241100E-024  0.8411799E+02  0.7818608E-02  0.1317755E+00
         -2   -1    0    0    0  501 -0.00000000000E+00  0.00000000000E+00  0.69038975258E+02  0.69038975305E+02  0.25500000000E-02 0.  1.
          1   -1    0    0  501    0  0.00000000000E+00 -0.00000000000E+00 -0.25622611896E+02  0.25622612392E+02  0.50400000000E-02 0. -1.
        -24    2    1    2    0    0  0.00000000000E+00  0.00000000000E+00  0.43416363362E+02  0.94661587697E+02  0.84117986054E+02 0.  0.
         66    2    3    3    0    0  0.21938751783E+02 -0.17686809171E+02  0.56819970972E+02  0.63455820449E+02  0.19999997770E+01 0.  0.
         13    1    3    3    0    0 -0.21938751783E+02  0.17686809171E+02 -0.13403607611E+02  0.31205767247E+02  0.10566000000E+00 0. -1.
         13    1    4    4    0    0  0.64381898851E+01 -0.47544502934E+01  0.14686662777E+02  0.16726156586E+02  0.10566000000E+00 0. -1.
        -13    1    4    4    0    0  0.13755398584E+02 -0.11852189104E+02  0.37811980723E+02  0.41945708088E+02  0.10566000000E+00 0.  1.
        -14    1    4    4    0    0  0.17451633139E+01 -0.10801697738E+01  0.43213274724E+01  0.47839557749E+01  0.00000000000E+00 0.  1.
<mgrwt>
<rscale>  0 0.84117986E+02</rscale>
<asrwt>0</asrwt>
<pdfrwt beam="1">  1        1 0.39419404E-02 0.84117986E+02</pdfrwt>
<pdfrwt beam="2">  1       -2 0.10621381E-01 0.84117986E+02</pdfrwt>
<totfact> 0.10143447E+05</totfact>
</mgrwt>
</event>
<event>
 8    1  0.1292667E-024  0.7958973E+02  0.7818608E-02  0.1330220E+00
         -2   -1    0    0    0  501 -0.00000000000E+00  0.00000000000E+00  0.10201320653E+02  0.10201320971E+02  0.25500000000E-02 0.  1.
          1   -1    0    0  501    0  0.00000000000E+00 -0.00000000000E+00 -0.15523787071E+03  0.15523787079E+03  0.50400000000E-02 0. -1.
        -24    2    1    2    0    0  0.00000000000E+00  0.00000000000E+00 -0.14503655005E+03  0.16543919176E+03  0.79589731238E+02 0.  0.
         66    2    3    3    0    0  0.19008383424E+02 -0.19895632594E+02 -0.12878390198E+02  0.30446802281E+02  0.19999995693E+01 0.  0.
         13    1    3    3    0    0 -0.19008383424E+02  0.19895632594E+02 -0.13215815986E+03  0.13499238948E+03  0.10566000000E+00 0. -1.
         13    1    4    4    0    0  0.52669486664E+00 -0.91784853455E+00 -0.45248614213E+00  0.11557513398E+01  0.10566000000E+00 0. -1.
        -13    1    4    4    0    0  0.13594711868E+02 -0.14408500021E+02 -0.87362541721E+01  0.21650735891E+02  0.10566000000E+00 0.  1.
         14    1    4    4    0    0  0.48869766902E+01 -0.45692840390E+01 -0.36896498841E+01  0.76403150502E+01  0.00000000000E+00 0. -1.
<mgrwt>
<rscale>  0 0.79589731E+02</rscale>
<asrwt>0</asrwt>
<pdfrwt beam="1">  1        1 0.23882748E-01 0.79589731E+02</pdfrwt>
<pdfrwt beam="2">  1       -2 0.15694341E-02 0.79589731E+02</pdfrwt>
<totfact> 0.16108653E+05</totfact>
</mgrwt>
</event>
<event>
 8    1  0.1241100E-024  0.7946689E+02  0.7818608E-02  0.1330571E+00
          1   -1    0    0  501    0  0.00000000000E+00  0.00000000000E+00  0.22724559084E+02  0.22724559643E+02  0.50400000000E-02 0. -1.
         -2   -1    0    0    0  501 -0.00000000000E+00 -0.00000000000E+00 -0.69473148032E+02  0.69473148079E+02  0.25500000000E-02 0.  1.
        -24    2    1    2    0    0 -0.71054273576E-14 -0.44408920985E-15 -0.46748588949E+02  0.92197707722E+02  0.79466890844E+02 0.  0.
         66    2    3    3    0    0  0.36155294715E+02  0.37725333766E+01 -0.41927065735E+02  0.55527616446E+02  0.20000007423E+01 0.  0.
         13    1    3    3    0    0 -0.36155294715E+02 -0.37725333766E+01 -0.48215232134E+01  0.36670091276E+02  0.10566000000E+00 0. -1.
         13    1    4    4    0    0  0.39205865502E+01  0.12970138124E+00 -0.52028833978E+01  0.65168229248E+01  0.10566000000E+00 0. -1.
        -13    1    4    4    0    0  0.29519413288E+02  0.33793824145E+01 -0.34042757957E+02  0.45185578670E+02  0.10566000000E+00 0.  1.
        -14    1    4    4    0    0  0.27152948768E+01  0.26344958082E+00 -0.26814243809E+01  0.38252148514E+01  0.00000000000E+00 0.  1.
<mgrwt>
<rscale>  0 0.79466891E+02</rscale>
<asrwt>0</asrwt>
<pdfrwt beam="1">  1        1 0.34960861E-02 0.79466891E+02</pdfrwt>
<pdfrwt beam="2">  1       -2 0.10688177E-01 0.79466891E+02</pdfrwt>
<totfact> 0.11705619E+05</totfact>
</mgrwt>
</event>
<event>
 8    1  0.1241100E-024  0.7837935E+02  0.7818608E-02  0.1333715E+00
         -2   -1    0    0    0  501 -0.00000000000E+00  0.00000000000E+00  0.19214173401E+03  0.19214173403E+03  0.25500000000E-02 0.  1.
          1   -1    0    0  501    0  0.00000000000E+00 -0.00000000000E+00 -0.79932172184E+01  0.79932188073E+01  0.50400000000E-02 0. -1.
        -24    2    1    2    0    0  0.00000000000E+00 -0.17763568394E-14  0.18414851680E+03  0.20013495284E+03  0.78379353847E+02 0.  0.
         66    2    3    3    0    0 -0.55741172292E+01  0.14383519150E+02  0.18405232162E+03  0.18470845539E+03  0.19999978950E+01 0.  0.
         13    1    3    3    0    0  0.55741172292E+01 -0.14383519150E+02  0.96195174160E-01  0.15426497450E+02  0.10566000000E+00 0. -1.
         13    1    4    4    0    0 -0.19388719786E+01  0.54643863265E+01  0.77039883726E+02  0.77257838379E+02  0.10566000000E+00 0. -1.
        -13    1    4    4    0    0 -0.90572733531E+00  0.35191541613E+01  0.42297067772E+02  0.42453008070E+02  0.10566000000E+00 0.  1.
         14    1    4    4    0    0 -0.27295179153E+01  0.53999786625E+01  0.64715370124E+02  0.64997608939E+02  0.00000000000E+00 0. -1.
<mgrwt>
<rscale>  0 0.78379354E+02</rscale>
<asrwt>0</asrwt>
<pdfrwt beam="1">  1        1 0.12297258E-02 0.78379354E+02</pdfrwt>
<pdfrwt beam="2">  1       -2 0.29560267E-01 0.78379354E+02</pdfrwt>
<totfact> 0.91132756E+04</totfact>
</mgrwt>
</event>
<event>
 8    1  0.1241100E-024  0.8137487E+02  0.7818608E-02  0.1325194E+00
         -2   -1    0    0    0  501 -0.00000000000E+00  0.00000000000E+00  0.27284796239E+01  0.27284808154E+01  0.25500000000E-02 0.  1.
          1   -1    0    0  501    0  0.00000000000E+00 -0.00000000000E+00 -0.60673599627E+03  0.60673599630E+03  0.50400000000E-02 0. -1.
        -24    2    1    2    0    0  0.00000000000E+00  0.00000000000E+00 -0.60400751665E+03  0.60946447711E+03  0.81374865220E+02 0.  0.
         66    2    3    3    0    0 -0.28158795203E+02 -0.26854913742E+02 -0.39060030693E+03  0.39253879292E+03  0.20000073671E+01 0.  0.
         13    1    3    3    0    0  0.28158795203E+02  0.26854913742E+02 -0.21340720972E+03  0.21692568419E+03  0.10566000000E+00 0. -1.
         13    1    4    4    0    0 -0.11083501469E+02 -0.10796662427E+02 -0.15871580729E+03  0.15946827450E+03  0.10566000000E+00 0. -1.
        -13    1    4    4    0    0 -0.78056176068E+01 -0.81880056206E+01 -0.10838604259E+03  0.10897484340E+03  0.10566000000E+00 0.  1.
        -14    1    4    4    0    0 -0.92696761266E+01 -0.78702456937E+01 -0.12349845706E+03  0.12409567502E+03  0.00000000000E+00 0.  1.
<mgrwt>
<rscale>  0 0.81374865E+02</rscale>
<asrwt>0</asrwt>
<pdfrwt beam="1">  1        1 0.93343892E-01 0.81374865E+02</pdfrwt>
<pdfrwt beam="2">  1       -2 0.41976667E-03 0.81374865E+02</pdfrwt>
<totfact> 0.19078091E+05</totfact>
</mgrwt>
</event>
<event>
 8    1  0.1241100E-024  0.7769975E+02  0.7818608E-02  0.1335709E+00
          1   -1    0    0  501    0  0.00000000000E+00  0.00000000000E+00  0.25309730675E+03  0.25309730680E+03  0.50400000000E-02 0. -1.
         -2   -1    0    0    0  501 -0.00000000000E+00 -0.00000000000E+00 -0.59633700494E+01  0.59633705946E+01  0.25500000000E-02 0.  1.
        -24    2    1    2    0    0  0.00000000000E+00 -0.71054273576E-14  0.24713393670E+03  0.25906067739E+03  0.77699754846E+02 0.  0.
         66    2    3    3    0    0 -0.15925435747E+02  0.32978157451E+02  0.16662257818E+03  0.17061143552E+03  0.19999999411E+01 0.  0.
         13    1    3    3    0    0  0.15925435747E+02 -0.32978157451E+02  0.80511358520E+02  0.88449241870E+02  0.10566000000E+00 0. -1.
         13    1    4    4    0    0 -0.70443160518E+01  0.14851473126E+02  0.78555389273E+02  0.80256769126E+02  0.10566000000E+00 0. -1.
        -13    1    4    4    0    0 -0.11606440369E+01  0.29620423386E+01  0.13368634590E+02  0.13742355848E+02  0.10566000000E+00 0.  1.
         14    1    4    4    0    0 -0.77204756586E+01  0.15164641986E+02  0.74698554315E+02  0.76612310549E+02  0.00000000000E+00 0. -1.
<mgrwt>
<rscale>  0 0.77699755E+02</rscale>
<asrwt>0</asrwt>
<pdfrwt beam="1">  1        1 0.38938047E-01 0.77699755E+02</pdfrwt>
<pdfrwt beam="2">  1       -2 0.91744159E-03 0.77699755E+02</pdfrwt>
<totfact> 0.18854386E+05</totfact>
</mgrwt>
</event>
<event>
 8    1  0.1241100E-024  0.7817698E+02  0.7818608E-02  0.1334306E+00
         -2   -1    0    0    0  501 -0.00000000000E+00  0.00000000000E+00  0.33901146752E+02  0.33901146848E+02  0.25500000000E-02 0.  1.
          1   -1    0    0  501    0  0.00000000000E+00 -0.00000000000E+00 -0.45069563818E+02  0.45069564099E+02  0.50400000000E-02 0. -1.
        -24    2    1    2    0    0  0.00000000000E+00  0.35527136788E-14 -0.11168417066E+02  0.78970710947E+02  0.78176976456E+02 0.  0.
         66    2    3    3    0    0  0.23560624217E+01 -0.27261638820E+02  0.22572724533E+02  0.35528521986E+02  0.20000001019E+01 0.  0.
         13    1    3    3    0    0 -0.23560624217E+01  0.27261638820E+02 -0.33741141599E+02  0.43442188961E+02  0.10566000000E+00 0. -1.
         13    1    4    4    0    0 -0.27134476097E+00 -0.62067747125E+01  0.52722912008E+01  0.81489814611E+01  0.10566000000E+00 0. -1.
        -13    1    4    4    0    0  0.36510752378E+00 -0.36672865344E+01  0.29932104022E+01  0.47489753186E+01  0.10566000000E+00 0.  1.
        -14    1    4    4    0    0  0.22622996589E+01 -0.17387577573E+02  0.14307222930E+02  0.22630565207E+02  0.00000000000E+00 0.  1.
<mgrwt>
<rscale>  0 0.78176976E+02</rscale>
<asrwt>0</asrwt>
<pdfrwt beam="1">  1        1 0.69337791E-02 0.78176976E+02</pdfrwt>
<pdfrwt beam="2">  1       -2 0.52155610E-02 0.78176976E+02</pdfrwt>
<totfact> 0.13803324E+05</totfact>
</mgrwt>
</event>
<event>
 8    1  0.1241100E-024  0.7807856E+02  0.7818608E-02  0.1334594E+00
         -2   -1    0    0    0  501 -0.00000000000E+00  0.00000000000E+00  0.61879367771E+01  0.61879373026E+01  0.25500000000E-02 0.  1.
          1   -1    0    0  501    0  0.00000000000E+00 -0.00000000000E+00 -0.24629618033E+03  0.24629618039E+03  0.50400000000E-02 0. -1.
        -24    2    1    2    0    0  0.00000000000E+00  0.00000000000E+00 -0.24010824356E+03  0.25248411769E+03  0.78078556985E+02 0.  0.
         66    2    3    3    0    0  0.35339281979E+02  0.13824147322E+02 -0.14943103169E+03  0.15418691622E+03  0.20000005928E+01 0.  0.
         13    1    3    3    0    0 -0.35339281979E+02 -0.13824147322E+02 -0.90677211868E+02  0.98297201467E+02  0.10566000000E+00 0. -1.
         13    1    4    4    0    0  0.37571333539E+01  0.18058724727E+01 -0.17348834041E+02  0.17842937904E+02  0.10566000000E+00 0. -1.
        -13    1    4    4    0    0  0.61973932849E+01  0.17627735048E+01 -0.25451648439E+02  0.26254763877E+02  0.10566000000E+00 0.  1.
        -14    1    4    4    0    0  0.25384755340E+02  0.10255501344E+02 -0.10663054921E+03  0.11008921444E+03  0.00000000000E+00 0.  1.
<mgrwt>
<rscale>  0 0.78078557E+02</rscale>
<asrwt>0</asrwt>
<pdfrwt beam="1">  1        1 0.37891713E-01 0.78078557E+02</pdfrwt>
<pdfrwt beam="2">  1       -2 0.95199050E-03 0.78078557E+02</pdfrwt>
<totfact> 0.18516371E+05</totfact>
</mgrwt>
</event>
<event>
 8    1  0.1241100E-024  0.7901423E+02  0.7818608E-02  0.1331872E+00
         -2   -1    0    0    0  501 -0.00000000000E+00  0.00000000000E+00  0.37828638468E+03  0.37828638469E+03  0.25500000000E-02 0.  1.
          1   -1    0    0  501    0  0.00000000000E+00 -0.00000000000E+00 -0.41260046804E+01  0.41260077586E+01  0.50400000000E-02 0. -1.
        -24    2    1    2    0    0  0.00000000000E+00  0.00000000000E+00  0.37416038000E+03  0.38241239245E+03  0.79014226161E+02 0.  0.
         66    2    3    3    0    0 -0.29807289024E+02 -0.18322974501E+02  0.27572970082E+03  0.27794796960E+03  0.20000038555E+01 0.  0.
         13    1    3    3    0    0  0.29807289024E+02  0.18322974501E+02  0.98430679180E+02  0.10446442285E+03  0.10566000000E+00 0. -1.
         13    1    4    4    0    0 -0.22991877828E+02 -0.13769839729E+02  0.20849566992E+03  0.21021106173E+03  0.10566000000E+00 0.  1.
        -13    1    4    4    0    0 -0.55966515379E+01 -0.33424977790E+01  0.52770367723E+02  0.53171587088E+02  0.10566000000E+00 0.  1.
        -14    1    4    4    0    0 -0.12187596585E+01 -0.12106369938E+01  0.14463663179E+02  0.14565320786E+02  0.00000000000E+00 0.  1.
<mgrwt>
<rscale>  0 0.79014226E+02</rscale>
<asrwt>0</asrwt>
<pdfrwt beam="1">  1        1 0.63477020E-03 0.79014226E+02</pdfrwt>
<pdfrwt beam="2">  1       -2 0.58197904E-01 0.79014226E+02</pdfrwt>
<totfact> 0.63272303E+04</totfact>
</mgrwt>
</event>
<event>
 8    1  0.1241100E-024  0.8021315E+02  0.7818608E-02  0.1328448E+00
         -2   -1    0    0    0  501 -0.00000000000E+00  0.00000000000E+00  0.16500240987E+03  0.16500240989E+03  0.25500000000E-02 0.  1.
          1   -1    0    0  501    0  0.00000000000E+00 -0.00000000000E+00 -0.97485693452E+01  0.97485706480E+01  0.50400000000E-02 0. -1.
        -24    2    1    2    0    0  0.00000000000E+00 -0.11102230246E-15  0.15525384053E+03  0.17475098054E+03  0.80213154789E+02 0.  0.
         66    2    3    3    0    0 -0.36270013608E+02  0.86232212380E+00  0.11479256183E+03  0.12040593730E+03  0.19999999015E+01 0.  0.
         13    1    3    3    0    0  0.36270013608E+02 -0.86232212380E+00  0.40461278695E+02  0.54345043236E+02  0.10566000000E+00 0. -1.
         13    1    4    4    0    0 -0.19522584016E+02 -0.20265409392E+00  0.59727564245E+02  0.62837611747E+02  0.10566000000E+00 0. -1.
        -13    1    4    4    0    0 -0.15784306334E+02  0.11296235464E+01  0.52061673826E+02  0.54413687813E+02  0.10566000000E+00 0.  1.
         14    1    4    4    0    0 -0.96312325874E+00 -0.64647328696E-01  0.30033237602E+01  0.31546377442E+01  0.00000000000E+00 0. -1.
<mgrwt>
<rscale>  0 0.80213155E+02</rscale>
<asrwt>0</asrwt>
<pdfrwt beam="1">  1        1 0.14997799E-02 0.80213155E+02</pdfrwt>
<pdfrwt beam="2">  1       -2 0.25384988E-01 0.80213155E+02</pdfrwt>
<totfact> 0.90870954E+04</totfact>
</mgrwt>
</event>
<event>
 8    1  0.1241100E-024  0.8129092E+02  0.7818608E-02  0.1325427E+00
          1   -1    0    0  501    0  0.00000000000E+00  0.00000000000E+00  0.39947971612E+01  0.39948003405E+01  0.50400000000E-02 0. -1.
         -2   -1    0    0    0  501 -0.00000000000E+00 -0.00000000000E+00 -0.41355107520E+03  0.41355107521E+03  0.25500000000E-02 0.  1.
        -24    2    1    2    0    0 -0.35527136788E-14 -0.35527136788E-14 -0.40955627804E+03  0.41754587555E+03  0.81290917736E+02 0.  0.
         66    2    3    3    0    0 -0.27550312836E+02 -0.29276022549E+02 -0.23482701036E+03  0.23825161078E+03  0.20000019182E+01 0.  0.
         13    1    3    3    0    0  0.27550312836E+02  0.29276022549E+02 -0.17472926768E+03  0.17929426477E+03  0.10566000000E+00 0. -1.
         13    1    4    4    0    0 -0.14278334895E+01 -0.15894389892E+01 -0.11770572127E+02  0.11963384012E+02  0.10566000000E+00 0. -1.
        -13    1    4    4    0    0 -0.10933028730E+02 -0.11569485437E+02 -0.98583360820E+02  0.99860273909E+02  0.10566000000E+00 0.  1.
        -14    1    4    4    0    0 -0.15189450617E+02 -0.16117098123E+02 -0.12447307742E+03  0.12642795286E+03  0.00000000000E+00 0.  1.
<mgrwt>
<rscale>  0 0.81290918E+02</rscale>
<asrwt>0</asrwt>
<pdfrwt beam="1">  1        1 0.61458475E-03 0.81290918E+02</pdfrwt>
<pdfrwt beam="2">  1       -2 0.63623209E-01 0.81290918E+02</pdfrwt>
<totfact> 0.55445538E+04</totfact>
</mgrwt>
</event>
<event>
 8    1  0.1241100E-024  0.7930683E+02  0.7818608E-02  0.1331030E+00
          1   -1    0    0  501    0  0.00000000000E+00  0.00000000000E+00  0.66487786384E+01  0.66487805487E+01  0.50400000000E-02 0. -1.
         -2   -1    0    0    0  501 -0.00000000000E+00 -0.00000000000E+00 -0.23649349785E+03  0.23649349787E+03  0.25500000000E-02 0.  1.
        -24    2    1    2    0    0  0.00000000000E+00  0.00000000000E+00 -0.22984471922E+03  0.24314227842E+03  0.79306825698E+02 0.  0.
         66    2    3    3    0    0  0.18840189463E+02  0.26077116889E+02 -0.18593619002E+03  0.18870939438E+03  0.20000010608E+01 0.  0.
         13    1    3    3    0    0 -0.18840189463E+02 -0.26077116889E+02 -0.43908529195E+02  0.54432884035E+02  0.10566000000E+00 0. -1.
         13    1    4    4    0    0  0.23208990426E+01  0.28943588001E+01 -0.20770148978E+02  0.21099150169E+02  0.10566000000E+00 0.  1.
        -13    1    4    4    0    0  0.12945392177E+02  0.17402562029E+02 -0.12216263888E+03  0.12407317939E+03  0.10566000000E+00 0.  1.
         14    1    4    4    0    0  0.35738982439E+01  0.57801960597E+01 -0.43003402166E+02  0.43537064819E+02  0.00000000000E+00 0. -1.
<mgrwt>
<rscale>  0 0.79306826E+02</rscale>
<asrwt>0</asrwt>
<pdfrwt beam="1">  1        1 0.10228894E-02 0.79306826E+02</pdfrwt>
<pdfrwt beam="2">  1       -2 0.36383609E-01 0.79306826E+02</pdfrwt>
<totfact> 0.80940782E+04</totfact>
</mgrwt>
</event>
<event>
 8    1  0.1241100E-024  0.7874196E+02  0.7818608E-02  0.1332660E+00
          1   -1    0    0  501    0  0.00000000000E+00  0.00000000000E+00  0.16777524349E+03  0.16777524356E+03  0.50400000000E-02 0. -1.
         -2   -1    0    0    0  501 -0.00000000000E+00 -0.00000000000E+00 -0.92389915059E+01  0.92389918578E+01  0.25500000000E-02 0.  1.
        -24    2    1    2    0    0 -0.88817841970E-15  0.35527136788E-14  0.15853625198E+03  0.17701423542E+03  0.78741960538E+02 0.  0.
         66    2    3    3    0    0  0.68683538972E+01  0.25473291981E+02  0.13701066020E+02  0.29795672915E+02  0.20000061985E+01 0.  0.
         13    1    3    3    0    0 -0.68683538972E+01 -0.25473291981E+02  0.14483518596E+03  0.14721856251E+03  0.10566000000E+00 0. -1.
         13    1    4    4    0    0  0.10267332854E+01  0.43526943757E+01  0.18240206538E+01  0.48309776391E+01  0.10566000000E+00 0. -1.
        -13    1    4    4    0    0  0.40286282491E+01  0.15109233452E+02  0.77653523039E+01  0.17459399804E+02  0.10566000000E+00 0.  1.
        -14    1    4    4    0    0  0.18129923627E+01  0.60113641537E+01  0.41116930621E+01  0.75052954727E+01  0.00000000000E+00 0.  1.
<mgrwt>
<rscale>  0 0.78741961E+02</rscale>
<asrwt>0</asrwt>
<pdfrwt beam="1">  1        1 0.25811573E-01 0.78741961E+02</pdfrwt>
<pdfrwt beam="2">  1       -2 0.14213835E-02 0.78741961E+02</pdfrwt>
<totfact> 0.16816699E+05</totfact>
</mgrwt>
</event>
<event>
 8    1  0.1241100E-024  0.7932907E+02  0.7818608E-02  0.1330966E+00
         -2   -1    0    0    0  501 -0.00000000000E+00  0.00000000000E+00  0.59593814818E+03  0.59593814819E+03  0.25500000000E-02 0.  1.
          1   -1    0    0  501    0  0.00000000000E+00 -0.00000000000E+00 -0.26399955391E+01  0.26400003500E+01  0.50400000000E-02 0. -1.
        -24    2    1    2    0    0  0.35527136788E-14  0.00000000000E+00  0.59329815264E+03  0.59857814854E+03  0.79329073970E+02 0.  0.
         66    2    3    3    0    0 -0.20980692762E+02  0.12081794398E+02  0.53366405895E+03  0.53421670418E+03  0.19999973620E+01 0.  0.
         13    1    3    3    0    0  0.20980692762E+02 -0.12081794398E+02  0.59634093695E+02  0.64361444355E+02  0.10566000000E+00 0. -1.
         13    1    4    4    0    0 -0.27674190376E+01  0.19850284174E+01  0.70625960001E+02  0.70708106579E+02  0.10566000000E+00 0. -1.
        -13    1    4    4    0    0 -0.10707807806E+02  0.65707761832E+01  0.26815131274E+03  0.26844546921E+03  0.10566000000E+00 0.  1.
         14    1    4    4    0    0 -0.75054659190E+01  0.35259897976E+01  0.19488678621E+03  0.19506312840E+03  0.00000000000E+00 0. -1.
<mgrwt>
<rscale>  0 0.79329074E+02</rscale>
<asrwt>0</asrwt>
<pdfrwt beam="1">  1        1 0.40615308E-03 0.79329074E+02</pdfrwt>
<pdfrwt beam="2">  1       -2 0.91682893E-01 0.79329074E+02</pdfrwt>
<totfact> 0.44680832E+04</totfact>
</mgrwt>
</event>
<event>
 8    1  0.1241100E-024  0.7722185E+02  0.7818608E-02  0.1337126E+00
          1   -1    0    0  501    0  0.00000000000E+00  0.00000000000E+00  0.59700484418E+02  0.59700484631E+02  0.50400000000E-02 0. -1.
         -2   -1    0    0    0  501 -0.00000000000E+00 -0.00000000000E+00 -0.24971377596E+02  0.24971377726E+02  0.25500000000E-02 0.  1.
        -24    2    1    2    0    0  0.35527136788E-14  0.35527136788E-14  0.34729106822E+02  0.84671862357E+02  0.77221845448E+02 0.  0.
         66    2    3    3    0    0  0.17245082957E+02  0.20986689002E+02 -0.12671350616E+02  0.30039925444E+02  0.19999982081E+01 0.  0.
         13    1    3    3    0    0 -0.17245082957E+02 -0.20986689002E+02  0.47400457438E+02  0.54631936913E+02  0.10566000000E+00 0. -1.
         13    1    4    4    0    0  0.58620118031E+01  0.63215532943E+01 -0.41807876236E+01  0.95820335849E+01  0.10566000000E+00 0. -1.
        -13    1    4    4    0    0  0.91399031951E+01  0.12368195038E+02 -0.74017456510E+01  0.17067720458E+02  0.10566000000E+00 0.  1.
         14    1    4    4    0    0  0.22431679588E+01  0.22969406697E+01 -0.10888173414E+01  0.33901714019E+01  0.00000000000E+00 0. -1.
<mgrwt>
<rscale>  0 0.77221845E+02</rscale>
<asrwt>0</asrwt>
<pdfrwt beam="1">  1        1 0.91846899E-02 0.77221845E+02</pdfrwt>
<pdfrwt beam="2">  1       -2 0.38417504E-02 0.77221845E+02</pdfrwt>
<totfact> 0.14908398E+05</totfact>
</mgrwt>
</event>
<event>
 8    1  0.1241100E-024  0.7383382E+02  0.7818608E-02  0.1347521E+00
          1   -1    0    0  501    0  0.00000000000E+00  0.00000000000E+00  0.79092928868E+02  0.79092929028E+02  0.50400000000E-02 0. -1.
         -2   -1    0    0    0  501 -0.00000000000E+00 -0.00000000000E+00 -0.17231099577E+02  0.17231099765E+02  0.25500000000E-02 0.  1.
        -24    2    1    2    0    0  0.00000000000E+00  0.35527136788E-14  0.61861829291E+02  0.96324028794E+02  0.73833817454E+02 0.  0.
         66    2    3    3    0    0 -0.13363339988E+02  0.30016853900E+02  0.90741392981E+01  0.34145722669E+02  0.19999997370E+01 0.  0.
         13    1    3    3    0    0  0.13363339988E+02 -0.30016853900E+02  0.52787689993E+02  0.62178306124E+02  0.10566000000E+00 0. -1.
         13    1    4    4    0    0 -0.71258256601E+01  0.15162382632E+02  0.44055389537E+01  0.17323255350E+02  0.10566000000E+00 0. -1.
        -13    1    4    4    0    0 -0.32477361694E+01  0.87325787774E+01  0.21796155781E+01  0.95690966362E+01  0.10566000000E+00 0.  1.
         14    1    4    4    0    0 -0.29897781583E+01  0.61218924901E+01  0.24889847663E+01  0.72533706828E+01  0.00000000000E+00 0. -1.
<mgrwt>
<rscale>  0 0.73833817E+02</rscale>
<asrwt>0</asrwt>
<pdfrwt beam="1">  1        1 0.12168143E-01 0.73833817E+02</pdfrwt>
<pdfrwt beam="2">  1       -2 0.26509384E-02 0.73833817E+02</pdfrwt>
<totfact> 0.17574405E+05</totfact>
</mgrwt>
</event>
<event>
 8    1  0.1241100E-024  0.7952557E+02  0.7818608E-02  0.1330403E+00
          1   -1    0    0  501    0  0.00000000000E+00  0.00000000000E+00  0.60658145004E+02  0.60658145213E+02  0.50400000000E-02 0. -1.
         -2   -1    0    0    0  501 -0.00000000000E+00 -0.00000000000E+00 -0.26065402520E+02  0.26065402645E+02  0.25500000000E-02 0.  1.
        -24    2    1    2    0    0  0.35527136788E-14  0.00000000000E+00  0.34592742484E+02  0.86723547858E+02  0.79525567716E+02 0.  0.
         66    2    3    3    0    0 -0.26380414646E+02 -0.95690189868E+01  0.47988887884E+02  0.55627562958E+02  0.19999997558E+01 0.  0.
         13    1    3    3    0    0  0.26380414646E+02  0.95690189868E+01 -0.13396145401E+02  0.31095984900E+02  0.10566000000E+00 0. -1.
         13    1    4    4    0    0 -0.11711827806E+02 -0.43047769527E+01  0.21489176559E+02  0.24849424307E+02  0.10566000000E+00 0.  1.
        -13    1    4    4    0    0 -0.12160265198E+02 -0.44762140112E+01  0.23022194043E+02  0.26418575362E+02  0.10566000000E+00 0. -1.
         14    1    4    4    0    0 -0.25083216420E+01 -0.78802802284E+00  0.34775172823E+01  0.43595632893E+01  0.00000000000E+00 0. -1.
<mgrwt>
<rscale>  0 0.79525568E+02</rscale>
<asrwt>0</asrwt>
<pdfrwt beam="1">  1        1 0.93320224E-02 0.79525568E+02</pdfrwt>
<pdfrwt beam="2">  1       -2 0.40100619E-02 0.79525568E+02</pdfrwt>
<totfact> 0.13785566E+05</totfact>
</mgrwt>
</event>
<event>
 8    1  0.1241100E-024  0.7930038E+02  0.7818608E-02  0.1331049E+00
         -2   -1    0    0    0  501 -0.00000000000E+00  0.00000000000E+00  0.81374955594E+02  0.81374955634E+02  0.25500000000E-02 0.  1.
          1   -1    0    0  501    0  0.00000000000E+00 -0.00000000000E+00 -0.19319674874E+02  0.19319675532E+02  0.50400000000E-02 0. -1.
        -24    2    1    2    0    0  0.00000000000E+00  0.00000000000E+00  0.62055280719E+02  0.10069463117E+03  0.79300383860E+02 0.  0.
         66    2    3    3    0    0 -0.36833531482E+02 -0.81246261128E+01  0.15630293474E+02  0.40878168584E+02  0.20000004461E+01 0.  0.
         13    1    3    3    0    0  0.36833531482E+02  0.81246261128E+01  0.46424987245E+02  0.59816462581E+02  0.10566000000E+00 0. -1.
         13    1    4    4    0    0 -0.20938315198E+02 -0.38548602078E+01  0.81385685829E+01  0.22792991317E+02  0.10566000000E+00 0. -1.
        -13    1    4    4    0    0 -0.36434450569E+01 -0.98327711073E+00  0.17647852004E+01  0.41673920620E+01  0.10566000000E+00 0.  1.
         14    1    4    4    0    0 -0.12251771227E+02 -0.32864887943E+01  0.57269396907E+01  0.13917785205E+02  0.00000000000E+00 0. -1.
<mgrwt>
<rscale>  0 0.79300384E+02</rscale>
<asrwt>0</asrwt>
<pdfrwt beam="1">  1        1 0.29722577E-02 0.79300384E+02</pdfrwt>
<pdfrwt beam="2">  1       -2 0.12519224E-01 0.79300384E+02</pdfrwt>
<totfact> 0.11386859E+05</totfact>
</mgrwt>
</event>
<event>
 8    1  0.1241100E-024  0.7764908E+02  0.7818608E-02  0.1335859E+00
          1   -1    0    0  501    0  0.00000000000E+00  0.00000000000E+00  0.60817139563E+02  0.60817139772E+02  0.50400000000E-02 0. -1.
         -2   -1    0    0    0  501 -0.00000000000E+00 -0.00000000000E+00 -0.24784870222E+02  0.24784870353E+02  0.25500000000E-02 0.  1.
        -24    2    1    2    0    0  0.00000000000E+00  0.00000000000E+00  0.36032269341E+02  0.85602010125E+02  0.77649080507E+02 0.  0.
         66    2    3    3    0    0 -0.15058746511E+02  0.29030509630E+02 -0.49859982995E+01  0.33142065595E+02  0.19999992471E+01 0.  0.
         13    1    3    3    0    0  0.15058746511E+02 -0.29030509630E+02  0.41018267640E+02  0.52459944530E+02  0.10566000000E+00 0. -1.
         13    1    4    4    0    0 -0.64218598574E+01  0.12354988642E+02 -0.30918049040E+01  0.14263816109E+02  0.10566000000E+00 0. -1.
        -13    1    4    4    0    0 -0.37375637653E+01  0.68724321917E+01 -0.81027703363E+00  0.78655845323E+01  0.10566000000E+00 0.  1.
         14    1    4    4    0    0 -0.48993228880E+01  0.98030887963E+01 -0.10839163618E+01  0.11012664954E+02  0.00000000000E+00 0. -1.
<mgrwt>
<rscale>  0 0.77649081E+02</rscale>
<asrwt>0</asrwt>
<pdfrwt beam="1">  1        1 0.93564830E-02 0.77649081E+02</pdfrwt>
<pdfrwt beam="2">  1       -2 0.38130570E-02 0.77649081E+02</pdfrwt>
<totfact> 0.14726147E+05</totfact>
</mgrwt>
</event>
<event>
 8    1  0.1241100E-024  0.8309504E+02  0.7818608E-02  0.1320491E+00
          1   -1    0    0  501    0  0.00000000000E+00  0.00000000000E+00  0.11243289134E+03  0.11243289146E+03  0.50400000000E-02 0. -1.
         -2   -1    0    0    0  501 -0.00000000000E+00 -0.00000000000E+00 -0.15353125648E+02  0.15353125860E+02  0.25500000000E-02 0.  1.
        -24    2    1    2    0    0  0.00000000000E+00  0.00000000000E+00  0.97079765697E+02  0.12778601732E+03  0.83095037843E+02 0.  0.
         66    2    3    3    0    0  0.37292427222E+02  0.70800940036E+01  0.22682158926E+02  0.44264355957E+02  0.20000038705E+01 0.  0.
         13    1    3    3    0    0 -0.37292427222E+02 -0.70800940036E+01  0.74397606770E+02  0.83521661360E+02  0.10566000000E+00 0. -1.
         13    1    4    4    0    0  0.88959660865E+01  0.16828570956E+01  0.49811394389E+01  0.10334076387E+02  0.10566000000E+00 0. -1.
        -13    1    4    4    0    0  0.14454492359E+02  0.30865107192E+01  0.82236030221E+01  0.16914423090E+02  0.10566000000E+00 0.  1.
         14    1    4    4    0    0  0.13941968777E+02  0.23107261888E+01  0.94774164654E+01  0.17015856481E+02  0.00000000000E+00 0. -1.
<mgrwt>
<rscale>  0 0.83095038E+02</rscale>
<asrwt>0</asrwt>
<pdfrwt beam="1">  1        1 0.17297369E-01 0.83095038E+02</pdfrwt>
<pdfrwt beam="2">  1       -2 0.23620192E-02 0.83095038E+02</pdfrwt>
<totfact> 0.13535064E+05</totfact>
</mgrwt>
</event>
<event>
 8    1  0.1241100E-024  0.7940553E+02  0.7818608E-02  0.1330747E+00
          1   -1    0    0  501    0  0.00000000000E+00  0.00000000000E+00  0.76535807211E+01  0.76535823805E+01  0.50400000000E-02 0. -1.
         -2   -1    0    0    0  501 -0.00000000000E+00 -0.00000000000E+00 -0.20595710720E+03  0.20595710721E+03  0.25500000000E-02 0.  1.
        -24    2    1    2    0    0 -0.71054273576E-14  0.00000000000E+00 -0.19830352648E+03  0.21361068959E+03  0.79405529378E+02 0.  0.
         66    2    3    3    0    0 -0.17629492521E+02  0.24681979812E+02 -0.16802622288E+03  0.17075365503E+03  0.19999997370E+01 0.  0.
         13    1    3    3    0    0  0.17629492521E+02 -0.24681979812E+02 -0.30277303597E+02  0.42857034559E+02  0.10566000000E+00 0. -1.
         13    1    4    4    0    0 -0.13221143258E+01  0.25647116364E+01 -0.17419058239E+02  0.17656740527E+02  0.10566000000E+00 0.  1.
        -13    1    4    4    0    0 -0.22535993053E+01  0.34668531766E+01 -0.21282782485E+02  0.21681000326E+02  0.10566000000E+00 0.  1.
         14    1    4    4    0    0 -0.14053778890E+02  0.18650414999E+02 -0.12932438215E+03  0.13141591418E+03  0.00000000000E+00 0. -1.
<mgrwt>
<rscale>  0 0.79405529E+02</rscale>
<asrwt>0</asrwt>
<pdfrwt beam="1">  1        1 0.11774742E-02 0.79405529E+02</pdfrwt>
<pdfrwt beam="2">  1       -2 0.31685705E-01 0.79405529E+02</pdfrwt>
<totfact> 0.85691302E+04</totfact>
</mgrwt>
</event>
<event>
 8    1  0.1241100E-024  0.8268362E+02  0.7818608E-02  0.1321604E+00
         -2   -1    0    0    0  501 -0.00000000000E+00  0.00000000000E+00  0.37474989849E+02  0.37474989935E+02  0.25500000000E-02 0.  1.
          1   -1    0    0  501    0  0.00000000000E+00 -0.00000000000E+00 -0.45607621935E+02  0.45607622213E+02  0.50400000000E-02 0. -1.
        -24    2    1    2    0    0 -0.17763568394E-14  0.00000000000E+00 -0.81326320862E+01  0.83082612149E+02  0.82683618310E+02 0.  0.
         66    2    3    3    0    0  0.13046676585E+02 -0.93356160262E+01  0.34190902728E+02  0.37820461739E+02  0.20000000844E+01 0.  0.
         13    1    3    3    0    0 -0.13046676585E+02  0.93356160262E+01 -0.42323534814E+02  0.45262150409E+02  0.10566000000E+00 0. -1.
         13    1    4    4    0    0  0.17131475947E+01 -0.10918598173E+01  0.44531960027E+01  0.48958299823E+01  0.10566000000E+00 0. -1.
        -13    1    4    4    0    0  0.27581922943E+01 -0.11151122298E+01  0.59856306325E+01  0.66850608166E+01  0.10566000000E+00 0.  1.
        -14    1    4    4    0    0  0.85753366956E+01 -0.71286439792E+01  0.23752076093E+02  0.26239570940E+02  0.00000000000E+00 0.  1.
<mgrwt>
<rscale>  0 0.82683618E+02</rscale>
<asrwt>0</asrwt>
<pdfrwt beam="1">  1        1 0.70165572E-02 0.82683618E+02</pdfrwt>
<pdfrwt beam="2">  1       -2 0.57653831E-02 0.82683618E+02</pdfrwt>
<totfact> 0.11821649E+05</totfact>
</mgrwt>
</event>
<event>
 8    1  0.1241100E-024  0.7233388E+02  0.7818608E-02  0.1352332E+00
          1   -1    0    0  501    0  0.00000000000E+00  0.00000000000E+00  0.22317353409E+01  0.22317410319E+01  0.50400000000E-02 0. -1.
         -2   -1    0    0    0  501 -0.00000000000E+00 -0.00000000000E+00 -0.58611151536E+03  0.58611151537E+03  0.25500000000E-02 0.  1.
        -24    2    1    2    0    0  0.00000000000E+00  0.00000000000E+00 -0.58387978002E+03  0.58834325640E+03  0.72333877494E+02 0.  0.
         66    2    3    3    0    0 -0.33165427065E+01  0.33262541800E+02 -0.40387794712E+03  0.40526385517E+03  0.19999988525E+01 0.  0.
         13    1    3    3    0    0  0.33165427065E+01 -0.33262541800E+02 -0.18000183291E+03  0.18307940124E+03  0.10566000000E+00 0. -1.
         13    1    4    4    0    0 -0.15090890894E+00  0.23374280460E+00 -0.39841806335E+01  0.39952807853E+01  0.10566000000E+00 0.  1.
        -13    1    4    4    0    0 -0.95030978326E+00  0.11232453802E+02 -0.13958670590E+03  0.14004117514E+03  0.10566000000E+00 0.  1.
         14    1    4    4    0    0 -0.22153240143E+01  0.21796345194E+02 -0.26030706058E+03  0.26122739924E+03  0.00000000000E+00 0. -1.
<mgrwt>
<rscale>  0 0.72333877E+02</rscale>
<asrwt>0</asrwt>
<pdfrwt beam="1">  1        1 0.34334480E-03 0.72333877E+02</pdfrwt>
<pdfrwt beam="2">  1       -2 0.90170880E-01 0.72333877E+02</pdfrwt>
<totfact> 0.57443567E+04</totfact>
</mgrwt>
</event>
<event>
 8    1  0.1241100E-024  0.8034262E+02  0.7818608E-02  0.1328082E+00
         -2   -1    0    0    0  501 -0.00000000000E+00  0.00000000000E+00  0.84514087642E+02  0.84514087681E+02  0.25500000000E-02 0.  1.
          1   -1    0    0  501    0  0.00000000000E+00 -0.00000000000E+00 -0.19094259769E+02  0.19094260435E+02  0.50400000000E-02 0. -1.
        -24    2    1    2    0    0  0.00000000000E+00  0.00000000000E+00  0.65419827873E+02  0.10360834812E+03  0.80342615842E+02 0.  0.
         66    2    3    3    0    0 -0.30782478972E+02 -0.17759606880E+02  0.86468915074E+01  0.36629679005E+02  0.20000007824E+01 0.  0.
         13    1    3    3    0    0  0.30782478972E+02  0.17759606880E+02  0.56772936366E+02  0.66978669110E+02  0.10566000000E+00 0. -1.
         13    1    4    4    0    0 -0.67953505364E+01 -0.35700217662E+01  0.24455690990E+01  0.80569111064E+01  0.10566000000E+00 0. -1.
        -13    1    4    4    0    0 -0.99550937265E+01 -0.58940047231E+01  0.31264649563E+01  0.11984537118E+02  0.10566000000E+00 0.  1.
        -14    1    4    4    0    0 -0.14032034709E+02 -0.82955803905E+01  0.30748574521E+01  0.16588230781E+02  0.00000000000E+00 0.  1.
<mgrwt>
<rscale>  0 0.80342616E+02</rscale>
<asrwt>0</asrwt>
<pdfrwt beam="1">  1        1 0.29375785E-02 0.80342616E+02</pdfrwt>
<pdfrwt beam="2">  1       -2 0.13002167E-01 0.80342616E+02</pdfrwt>
<totfact> 0.10922367E+05</totfact>
</mgrwt>
</event>
<event>
 8    1  0.1241100E-024  0.7971405E+02  0.7818608E-02  0.1329865E+00
         -2   -1    0    0    0  501 -0.00000000000E+00  0.00000000000E+00  0.15056067293E+03  0.15056067295E+03  0.25500000000E-02 0.  1.
          1   -1    0    0  501    0  0.00000000000E+00 -0.00000000000E+00 -0.10551110436E+02  0.10551111640E+02  0.50400000000E-02 0. -1.
        -24    2    1    2    0    0  0.00000000000E+00  0.00000000000E+00  0.14000956249E+03  0.16111178459E+03  0.79714048600E+02 0.  0.
         66    2    3    3    0    0  0.15342237461E+02 -0.99720418467E+01  0.14155621206E+03  0.14274798439E+03  0.20000008526E+01 0.  0.
         13    1    3    3    0    0 -0.15342237461E+02  0.99720418467E+01 -0.15466495735E+01  0.18363800202E+02  0.10566000000E+00 0. -1.
         13    1    4    4    0    0  0.18738716522E+01 -0.15428993066E+01  0.15593328254E+02  0.15781475955E+02  0.10566000000E+00 0. -1.
        -13    1    4    4    0    0  0.24123579387E+01 -0.13073530907E+01  0.18735854419E+02  0.18935998727E+02  0.10566000000E+00 0.  1.
         14    1    4    4    0    0  0.11056007870E+02 -0.71217894494E+01  0.10722702939E+03  0.10803050970E+03  0.00000000000E+00 0. -1.
<mgrwt>
<rscale>  0 0.79714049E+02</rscale>
<asrwt>0</asrwt>
<pdfrwt beam="1">  1        1 0.16232479E-02 0.79714049E+02</pdfrwt>
<pdfrwt beam="2">  1       -2 0.23163180E-01 0.79714049E+02</pdfrwt>
<totfact> 0.95268175E+04</totfact>
</mgrwt>
</event>
<event>
 8    1  0.1241100E-024  0.7439569E+02  0.7818608E-02  0.1345753E+00
         -2   -1    0    0    0  501 -0.00000000000E+00  0.00000000000E+00  0.34605084024E+03  0.34605084025E+03  0.25500000000E-02 0.  1.
          1   -1    0    0  501    0  0.00000000000E+00 -0.00000000000E+00 -0.39984851017E+01  0.39984882781E+01  0.50400000000E-02 0. -1.
        -24    2    1    2    0    0  0.35527136788E-14  0.00000000000E+00  0.34205235514E+03  0.35004932853E+03  0.74395690379E+02 0.  0.
         66    2    3    3    0    0  0.19164363969E+02 -0.17798985076E+02  0.29542453438E+03  0.29658680382E+03  0.19999916489E+01 0.  0.
         13    1    3    3    0    0 -0.19164363969E+02  0.17798985076E+02  0.46627820758E+02  0.53462524714E+02  0.10566000000E+00 0. -1.
         13    1    4    4    0    0  0.16654006999E+02 -0.15776562453E+02  0.26405757724E+03  0.26505220454E+03  0.10566000000E+00 0. -1.
        -13    1    4    4    0    0  0.16847505203E+01 -0.15680918173E+01  0.22600386471E+02  0.22717524710E+02  0.10566000000E+00 0.  1.
         14    1    4    4    0    0  0.82560645014E+00 -0.45433080569E+00  0.87665706767E+01  0.88170745671E+01  0.00000000000E+00 0. -1.
<mgrwt>
<rscale>  0 0.74395690E+02</rscale>
<asrwt>0</asrwt>
<pdfrwt beam="1">  1        1 0.61515200E-03 0.74395690E+02</pdfrwt>
<pdfrwt beam="2">  1       -2 0.53238574E-01 0.74395690E+02</pdfrwt>
<totfact> 0.78080917E+04</totfact>
</mgrwt>
</event>
<event>
 8    1  0.1241100E-024  0.8153086E+02  0.7818608E-02  0.1324762E+00
         -2   -1    0    0    0  501 -0.00000000000E+00  0.00000000000E+00  0.13916693833E+02  0.13916694067E+02  0.25500000000E-02 0.  1.
          1   -1    0    0  501    0  0.00000000000E+00 -0.00000000000E+00 -0.11941199822E+03  0.11941199832E+03  0.50400000000E-02 0. -1.
        -24    2    1    2    0    0  0.35527136788E-14  0.17763568394E-14 -0.10549530438E+03  0.13332869239E+03  0.81530858988E+02 0.  0.
         66    2    3    3    0    0  0.30917272118E+02  0.90550940097E+01 -0.11996524206E+02  0.34435287647E+02  0.19999999030E+01 0.  0.
         13    1    3    3    0    0 -0.30917272118E+02 -0.90550940097E+01 -0.93498780176E+02  0.98893404741E+02  0.10566000000E+00 0. -1.
         13    1    4    4    0    0  0.56766592121E+00  0.41394585617E+00 -0.30206705719E+00  0.77201315571E+00  0.10566000000E+00 0. -1.
        -13    1    4    4    0    0  0.24487619396E+02  0.69233158938E+01 -0.90860312701E+01  0.27021157172E+02  0.10566000000E+00 0.  1.
        -14    1    4    4    0    0  0.58619868003E+01  0.17178322598E+01 -0.26084258782E+01  0.66421173192E+01  0.00000000000E+00 0.  1.
<mgrwt>
<rscale>  0 0.81530859E+02</rscale>
<asrwt>0</asrwt>
<pdfrwt beam="1">  1        1 0.18371076E-01 0.81530859E+02</pdfrwt>
<pdfrwt beam="2">  1       -2 0.21410299E-02 0.81530859E+02</pdfrwt>
<totfact> 0.14399661E+05</totfact>
</mgrwt>
</event>
<event>
 8    1  0.1241100E-024  0.7534914E+02  0.7818608E-02  0.1342793E+00
          1   -1    0    0  501    0  0.00000000000E+00  0.00000000000E+00  0.78080993376E+02  0.78080993538E+02  0.50400000000E-02 0. -1.
         -2   -1    0    0    0  501 -0.00000000000E+00 -0.00000000000E+00 -0.18178215122E+02  0.18178215301E+02  0.25500000000E-02 0.  1.
        -24    2    1    2    0    0  0.00000000000E+00  0.88817841970E-15  0.59902778254E+02  0.96259208839E+02  0.75349136981E+02 0.  0.
         66    2    3    3    0    0  0.32109337780E+02  0.78086290472E+01  0.69282083593E+01  0.33822837389E+02  0.19999994276E+01 0.  0.
         13    1    3    3    0    0 -0.32109337780E+02 -0.78086290472E+01  0.52974569894E+02  0.62436371450E+02  0.10566000000E+00 0. -1.
         13    1    4    4    0    0  0.59353043993E+01  0.84048522251E+00  0.13159371547E+01  0.61381681594E+01  0.10566000000E+00 0. -1.
        -13    1    4    4    0    0  0.73315027725E+01  0.14680754397E+01  0.17386241024E+01  0.76772492603E+01  0.10566000000E+00 0.  1.
         14    1    4    4    0    0  0.18842530608E+02  0.55000683850E+01  0.38736471022E+01  0.20007419970E+02  0.00000000000E+00 0. -1.
<mgrwt>
<rscale>  0 0.75349137E+02</rscale>
<asrwt>0</asrwt>
<pdfrwt beam="1">  1        1 0.12012460E-01 0.75349137E+02</pdfrwt>
<pdfrwt beam="2">  1       -2 0.27966486E-02 0.75349137E+02</pdfrwt>
<totfact> 0.16605971E+05</totfact>
</mgrwt>
</event>
<event>
 8    1  0.1241100E-024  0.7687103E+02  0.7818608E-02  0.1338173E+00
         -2   -1    0    0    0  501 -0.00000000000E+00  0.00000000000E+00  0.66748689406E+02  0.66748689455E+02  0.25500000000E-02 0.  1.
          1   -1    0    0  501    0  0.00000000000E+00 -0.00000000000E+00 -0.22132099142E+02  0.22132099716E+02  0.50400000000E-02 0. -1.
        -24    2    1    2    0    0  0.00000000000E+00  0.00000000000E+00  0.44616590264E+02  0.88880789171E+02  0.76871025471E+02 0.  0.
         66    2    3    3    0    0  0.35689888496E+02 -0.33521709212E+01  0.63741086956E+01  0.36464152964E+02  0.19999997585E+01 0.  0.
         13    1    3    3    0    0 -0.35689888496E+02  0.33521709212E+01  0.38242481568E+02  0.52416636207E+02  0.10566000000E+00 0. -1.
         13    1    4    4    0    0  0.26061878299E+02 -0.25661993258E+01  0.39658927465E+01  0.26486720234E+02  0.10566000000E+00 0. -1.
        -13    1    4    4    0    0  0.79414098299E+01 -0.89159231600E+00  0.19479869274E+01  0.82259798230E+01  0.10566000000E+00 0.  1.
         14    1    4    4    0    0  0.16866003669E+01  0.10562072061E+00  0.46022902168E+00  0.17514529073E+01  0.00000000000E+00 0. -1.
<mgrwt>
<rscale>  0 0.76871025E+02</rscale>
<asrwt>0</asrwt>
<pdfrwt beam="1">  1        1 0.34049383E-02 0.76871025E+02</pdfrwt>
<pdfrwt beam="2">  1       -2 0.10269029E-01 0.76871025E+02</pdfrwt>
<totfact> 0.12835159E+05</totfact>
</mgrwt>
</event>
<event>
 8    1  0.1241100E-024  0.7640063E+02  0.7818608E-02  0.1339588E+00
         -2   -1    0    0    0  501 -0.00000000000E+00  0.00000000000E+00  0.28391353226E+03  0.28391353227E+03  0.25500000000E-02 0.  1.
          1   -1    0    0  501    0  0.00000000000E+00 -0.00000000000E+00 -0.51398178182E+01  0.51398202892E+01  0.50400000000E-02 0. -1.
        -24    2    1    2    0    0  0.00000000000E+00  0.00000000000E+00  0.27877371444E+03  0.28905335256E+03  0.76400633262E+02 0.  0.
         66    2    3    3    0    0 -0.24985135653E+02 -0.26605100504E+02  0.97153620447E+02  0.10380228486E+03  0.20000000827E+01 0.  0.
         13    1    3    3    0    0  0.24985135653E+02  0.26605100504E+02  0.18162009399E+03  0.18525106769E+03  0.10566000000E+00 0. -1.
         13    1    4    4    0    0 -0.30420188691E+01 -0.28448658011E+01  0.12281735019E+02  0.12969168028E+02  0.10566000000E+00 0. -1.
        -13    1    4    4    0    0 -0.92666783532E+01 -0.94317934127E+01  0.35804413789E+02  0.38168013643E+02  0.10566000000E+00 0.  1.
         14    1    4    4    0    0 -0.12676438431E+02 -0.14328441290E+02  0.49067471639E+02  0.52665103192E+02  0.00000000000E+00 0. -1.
<mgrwt>
<rscale>  0 0.76400633E+02</rscale>
<asrwt>0</asrwt>
<pdfrwt beam="1">  1        1 0.79074155E-03 0.76400633E+02</pdfrwt>
<pdfrwt beam="2">  1       -2 0.43678996E-01 0.76400633E+02</pdfrwt>
<totfact> 0.81488739E+04</totfact>
</mgrwt>
</event>
<event>
 8    1  0.1241100E-024  0.7949555E+02  0.7818608E-02  0.1330489E+00
         -2   -1    0    0    0  501 -0.00000000000E+00  0.00000000000E+00  0.96668401403E+02  0.96668401437E+02  0.25500000000E-02 0.  1.
          1   -1    0    0  501    0  0.00000000000E+00 -0.00000000000E+00 -0.16343351608E+02  0.16343352385E+02  0.50400000000E-02 0. -1.
        -24    2    1    2    0    0 -0.11102230246E-15  0.00000000000E+00  0.80325049795E+02  0.11301175382E+03  0.79495552563E+02 0.  0.
         66    2    3    3    0    0 -0.79747321596E+00 -0.28156274595E+02  0.80004888157E+02  0.84842170401E+02  0.19999966863E+01 0.  0.
         13    1    3    3    0    0  0.79747321596E+00  0.28156274595E+02  0.32016163819E+00  0.28169583421E+02  0.10566000000E+00 0. -1.
         13    1    4    4    0    0 -0.57316739006E+00 -0.80576260285E+01  0.23365371604E+02  0.24722572930E+02  0.10566000000E+00 0. -1.
        -13    1    4    4    0    0 -0.57225247703E+00 -0.18854600189E+02  0.52781832964E+02  0.56051373545E+02  0.10566000000E+00 0.  1.
        -14    1    4    4    0    0  0.34794665114E+00 -0.12440483777E+01  0.38576835887E+01  0.40682239256E+01  0.00000000000E+00 0.  1.
<mgrwt>
<rscale>  0 0.79495553E+02</rscale>
<asrwt>0</asrwt>
<pdfrwt beam="1">  1        1 0.25143618E-02 0.79495553E+02</pdfrwt>
<pdfrwt beam="2">  1       -2 0.14872062E-01 0.79495553E+02</pdfrwt>
<totfact> 0.10876027E+05</totfact>
</mgrwt>
</event>
<event>
 8    1  0.1241100E-024  0.7960575E+02  0.7818608E-02  0.1330174E+00
          1   -1    0    0  501    0  0.00000000000E+00  0.00000000000E+00  0.15740198396E+02  0.15740199203E+02  0.50400000000E-02 0. -1.
         -2   -1    0    0    0  501 -0.00000000000E+00 -0.00000000000E+00 -0.10065114322E+03  0.10065114326E+03  0.25500000000E-02 0.  1.
        -24    2    1    2    0    0  0.00000000000E+00  0.44408920985E-15 -0.84910944829E+02  0.11639134246E+03  0.79605753862E+02 0.  0.
         66    2    3    3    0    0 -0.21878435499E+02  0.37797638204E+01 -0.90738300559E+02  0.93436565326E+02  0.19999993223E+01 0.  0.
         13    1    3    3    0    0  0.21878435499E+02 -0.37797638204E+01  0.58273557301E+01  0.22954777134E+02  0.10566000000E+00 0. -1.
         13    1    4    4    0    0 -0.57512392628E+01  0.49148802183E+00 -0.20735557627E+02  0.21524238144E+02  0.10566000000E+00 0. -1.
        -13    1    4    4    0    0 -0.13671793005E+02  0.28434318473E+01 -0.58990789387E+02  0.60621179675E+02  0.10566000000E+00 0.  1.
         14    1    4    4    0    0 -0.24554032308E+01  0.44484395122E+00 -0.11011953545E+02  0.11291147507E+02  0.00000000000E+00 0. -1.
<mgrwt>
<rscale>  0 0.79605754E+02</rscale>
<asrwt>0</asrwt>
<pdfrwt beam="1">  1        1 0.24215691E-02 0.79605754E+02</pdfrwt>
<pdfrwt beam="2">  1       -2 0.15484791E-01 0.79605754E+02</pdfrwt>
<totfact> 0.10730484E+05</totfact>
</mgrwt>
</event>
<event>
 8    1  0.1241100E-024  0.7982235E+02  0.7818608E-02  0.1329556E+00
         -2   -1    0    0    0  501 -0.00000000000E+00  0.00000000000E+00  0.52379410321E+01  0.52379416529E+01  0.25500000000E-02 0.  1.
          1   -1    0    0  501    0  0.00000000000E+00 -0.00000000000E+00 -0.30410840364E+03  0.30410840368E+03  0.50400000000E-02 0. -1.
        -24    2    1    2    0    0  0.88817841970E-15  0.00000000000E+00 -0.29887046261E+03  0.30934634533E+03  0.79822352461E+02 0.  0.
         66    2    3    3    0    0  0.60631091519E+01 -0.38144637169E+02 -0.11094486335E+03  0.11749271191E+03  0.20000027816E+01 0.  0.
         13    1    3    3    0    0 -0.60631091519E+01  0.38144637169E+02 -0.18792559926E+03  0.19185363343E+03  0.10566000000E+00 0. -1.
         13    1    4    4    0    0  0.33919484502E+00 -0.18580454534E+01 -0.63876671675E+01  0.66618947701E+01  0.10566000000E+00 0. -1.
        -13    1    4    4    0    0  0.18301950690E+01 -0.14119056317E+02 -0.42067810321E+02  0.44411813682E+02  0.10566000000E+00 0.  1.
        -14    1    4    4    0    0  0.38937192379E+01 -0.22167535398E+02 -0.62489385860E+02  0.66419003457E+02  0.00000000000E+00 0.  1.
<mgrwt>
<rscale>  0 0.79822352E+02</rscale>
<asrwt>0</asrwt>
<pdfrwt beam="1">  1        1 0.46785895E-01 0.79822352E+02</pdfrwt>
<pdfrwt beam="2">  1       -2 0.80583737E-03 0.79822352E+02</pdfrwt>
<totfact> 0.18194577E+05</totfact>
</mgrwt>
</event>
<event>
 8    1  0.1241100E-024  0.7928824E+02  0.7818608E-02  0.1331084E+00
          1   -1    0    0  501    0  0.00000000000E+00  0.00000000000E+00  0.14308209009E+03  0.14308209018E+03  0.50400000000E-02 0. -1.
         -2   -1    0    0    0  501 -0.00000000000E+00 -0.00000000000E+00 -0.10984296675E+02  0.10984296971E+02  0.25500000000E-02 0.  1.
        -24    2    1    2    0    0  0.00000000000E+00  0.00000000000E+00  0.13209779342E+03  0.15406638715E+03  0.79288237616E+02 0.  0.
         66    2    3    3    0    0 -0.33071094111E+02  0.68874391615E+01  0.25866992559E+02  0.42593842106E+02  0.19999993441E+01 0.  0.
         13    1    3    3    0    0  0.33071094111E+02 -0.68874391615E+01  0.10623080086E+03  0.11147254505E+03  0.10566000000E+00 0. -1.
         13    1    4    4    0    0 -0.95351378339E+01  0.16936845300E+01  0.76871416559E+01  0.12364899178E+02  0.10566000000E+00 0. -1.
        -13    1    4    4    0    0 -0.13616580179E+01  0.57195124751E+00  0.83464386979E+00  0.16997162152E+01  0.10566000000E+00 0.  1.
        -14    1    4    4    0    0 -0.22174298259E+02  0.46218033840E+01  0.17345207033E+02  0.28529226713E+02  0.00000000000E+00 0.  1.
<mgrwt>
<rscale>  0 0.79288238E+02</rscale>
<asrwt>0</asrwt>
<pdfrwt beam="1">  1        1 0.22012629E-01 0.79288238E+02</pdfrwt>
<pdfrwt beam="2">  1       -2 0.16898919E-02 0.79288238E+02</pdfrwt>
<totfact> 0.16030652E+05</totfact>
</mgrwt>
</event>
<event>
 8    1  0.1241100E-024  0.7444517E+02  0.7818608E-02  0.1345598E+00
          1   -1    0    0  501    0  0.00000000000E+00  0.00000000000E+00  0.71857411042E+02  0.71857411219E+02  0.50400000000E-02 0. -1.
         -2   -1    0    0    0  501 -0.00000000000E+00 -0.00000000000E+00 -0.19281532156E+02  0.19281532325E+02  0.25500000000E-02 0.  1.
        -24    2    1    2    0    0  0.00000000000E+00 -0.35527136788E-14  0.52575878886E+02  0.91138943544E+02  0.74445174388E+02 0.  0.
         66    2    3    3    0    0  0.31290822750E+01  0.25570916339E+02 -0.65396635015E+01  0.26653895400E+02  0.20000057455E+01 0.  0.
         13    1    3    3    0    0 -0.31290822750E+01 -0.25570916339E+02  0.59115542387E+02  0.64485048144E+02  0.10566000000E+00 0. -1.
         13    1    4    4    0    0 -0.71712971466E-01  0.19108312617E+01 -0.34912420797E+00  0.19466562638E+01  0.10566000000E+00 0. -1.
        -13    1    4    4    0    0  0.18767806832E+01  0.11068924982E+02 -0.22809358913E+01  0.11456755150E+02  0.10566000000E+00 0.  1.
        -14    1    4    4    0    0  0.13240145632E+01  0.12591160096E+02 -0.39096034023E+01  0.13250483987E+02  0.00000000000E+00 0.  1.
<mgrwt>
<rscale>  0 0.74445174E+02</rscale>
<asrwt>0</asrwt>
<pdfrwt beam="1">  1        1 0.11054986E-01 0.74445174E+02</pdfrwt>
<pdfrwt beam="2">  1       -2 0.29663896E-02 0.74445174E+02</pdfrwt>
<totfact> 0.16939486E+05</totfact>
</mgrwt>
</event>
<event>
 8    1  0.1241100E-024  0.8230797E+02  0.7818608E-02  0.1322626E+00
          1   -1    0    0  501    0  0.00000000000E+00  0.00000000000E+00  0.49738313264E+02  0.49738313519E+02  0.50400000000E-02 0. -1.
         -2   -1    0    0    0  501 -0.00000000000E+00 -0.00000000000E+00 -0.34051223854E+02  0.34051223950E+02  0.25500000000E-02 0.  1.
        -24    2    1    2    0    0  0.00000000000E+00 -0.88817841970E-15  0.15687089409E+02  0.83789537469E+02  0.82307969329E+02 0.  0.
         66    2    3    3    0    0 -0.24992705431E+02 -0.44142099452E+01 -0.25099914568E+02  0.35750892279E+02  0.20000032931E+01 0.  0.
         13    1    3    3    0    0  0.24992705431E+02  0.44142099452E+01  0.40787003978E+02  0.48038645190E+02  0.10566000000E+00 0. -1.
         13    1    4    4    0    0 -0.11089849240E+01 -0.33903379231E+00 -0.16036453044E+01  0.19818258682E+01  0.10566000000E+00 0. -1.
        -13    1    4    4    0    0 -0.10492403623E+02 -0.14390789818E+01 -0.10855578663E+02  0.15166286105E+02  0.10566000000E+00 0.  1.
         14    1    4    4    0    0 -0.13391316885E+02 -0.26360971710E+01 -0.12640690601E+02  0.18602780305E+02  0.00000000000E+00 0. -1.
<mgrwt>
<rscale>  0 0.82307969E+02</rscale>
<asrwt>0</asrwt>
<pdfrwt beam="1">  1        1 0.76520482E-02 0.82307969E+02</pdfrwt>
<pdfrwt beam="2">  1       -2 0.52386498E-02 0.82307969E+02</pdfrwt>
<totfact> 0.12143663E+05</totfact>
</mgrwt>
</event>
<event>
 8    1  0.1241100E-024  0.7944225E+02  0.7818608E-02  0.1330642E+00
         -2   -1    0    0    0  501 -0.00000000000E+00  0.00000000000E+00  0.60084832107E+03  0.60084832107E+03  0.25500000000E-02 0.  1.
          1   -1    0    0  501    0  0.00000000000E+00 -0.00000000000E+00 -0.26258979619E+01  0.26259027986E+01  0.50400000000E-02 0. -1.
        -24    2    1    2    0    0  0.00000000000E+00  0.00000000000E+00  0.59822242311E+03  0.60347422387E+03  0.79442251799E+02 0.  0.
         66    2    3    3    0    0 -0.55178050499E+01  0.21549705149E+02  0.54905017485E+03  0.54950425882E+03  0.19999999040E+01 0.  0.
         13    1    3    3    0    0  0.55178050499E+01 -0.21549705149E+02  0.49172248257E+02  0.53969965047E+02  0.10566000000E+00 0. -1.
         13    1    4    4    0    0 -0.36076769259E+01  0.15539053448E+02  0.39970761171E+03  0.40002582859E+03  0.10566000000E+00 0. -1.
        -13    1    4    4    0    0 -0.13087014514E+01  0.44754676032E+01  0.11861507365E+03  0.11870673684E+03  0.10566000000E+00 0.  1.
         14    1    4    4    0    0 -0.60142667263E+00  0.15351840978E+01  0.30727489488E+02  0.30771693397E+02  0.00000000000E+00 0. -1.
<mgrwt>
<rscale>  0 0.79442252E+02</rscale>
<asrwt>0</asrwt>
<pdfrwt beam="1">  1        1 0.40398477E-03 0.79442252E+02</pdfrwt>
<pdfrwt beam="2">  1       -2 0.92438182E-01 0.79442252E+02</pdfrwt>
<totfact> 0.44205915E+04</totfact>
</mgrwt>
</event>
<event>
 8    1  0.1241100E-024  0.7904200E+02  0.7818608E-02  0.1331792E+00
          1   -1    0    0  501    0  0.00000000000E+00  0.00000000000E+00  0.33215878357E+02  0.33215878739E+02  0.50400000000E-02 0. -1.
         -2   -1    0    0    0  501 -0.00000000000E+00 -0.00000000000E+00 -0.47022972599E+02  0.47022972668E+02  0.25500000000E-02 0.  1.
        -24    2    1    2    0    0  0.00000000000E+00  0.00000000000E+00 -0.13807094243E+02  0.80238851407E+02  0.79041997848E+02 0.  0.
         66    2    3    3    0    0 -0.89692011106E+01  0.38367026148E+02 -0.41410365934E+01  0.39668922907E+02  0.19999991190E+01 0.  0.
         13    1    3    3    0    0  0.89692011106E+01 -0.38367026148E+02 -0.96660576492E+01  0.40569928501E+02  0.10566000000E+00 0. -1.
         13    1    4    4    0    0 -0.36174866256E+01  0.13153537405E+02 -0.19018043107E+01  0.13774243334E+02  0.10566000000E+00 0. -1.
        -13    1    4    4    0    0 -0.24072459801E+01  0.13830160021E+02 -0.13433018071E+01  0.14102616183E+02  0.10566000000E+00 0.  1.
        -14    1    4    4    0    0 -0.29444685049E+01  0.11383328722E+02 -0.89593047558E+00  0.11792063390E+02  0.00000000000E+00 0.  1.
<mgrwt>
<rscale>  0 0.79041998E+02</rscale>
<asrwt>0</asrwt>
<pdfrwt beam="1">  1        1 0.51101352E-02 0.79041998E+02</pdfrwt>
<pdfrwt beam="2">  1       -2 0.72343035E-02 0.79041998E+02</pdfrwt>
<totfact> 0.12740760E+05</totfact>
</mgrwt>
</event>
<event>
 8    1  0.1241100E-024  0.7800546E+02  0.7818608E-02  0.1334809E+00
         -2   -1    0    0    0  501 -0.00000000000E+00  0.00000000000E+00  0.89946221994E+02  0.89946222030E+02  0.25500000000E-02 0.  1.
          1   -1    0    0  501    0  0.00000000000E+00 -0.00000000000E+00 -0.16912472973E+02  0.16912473724E+02  0.50400000000E-02 0. -1.
        -24    2    1    2    0    0 -0.35527136788E-14  0.00000000000E+00  0.73033749021E+02  0.10685869575E+03  0.78005463669E+02 0.  0.
         66    2    3    3    0    0 -0.22989308612E+02  0.16858961835E+02  0.72951872802E+02  0.78349911628E+02  0.20000005418E+01 0.  0.
         13    1    3    3    0    0  0.22989308612E+02 -0.16858961835E+02  0.81876219285E-01  0.28508784126E+02  0.10566000000E+00 0. -1.
         13    1    4    4    0    0 -0.96346075750E+01  0.76325499011E+01  0.33365169459E+02  0.35557378675E+02  0.10566000000E+00 0. -1.
        -13    1    4    4    0    0 -0.11962593597E+02  0.79830699492E+01  0.35268043238E+02  0.38087781364E+02  0.10566000000E+00 0.  1.
         14    1    4    4    0    0 -0.13921074402E+01  0.12433419847E+01  0.43186601048E+01  0.47047515892E+01  0.00000000000E+00 0. -1.
<mgrwt>
<rscale>  0 0.78005464E+02</rscale>
<asrwt>0</asrwt>
<pdfrwt beam="1">  1        1 0.26019190E-02 0.78005464E+02</pdfrwt>
<pdfrwt beam="2">  1       -2 0.13837880E-01 0.78005464E+02</pdfrwt>
<totfact> 0.11611253E+05</totfact>
</mgrwt>
</event>
<event>
 8    1  0.1241100E-024  0.7885262E+02  0.7818608E-02  0.1332339E+00
         -2   -1    0    0    0  501 -0.00000000000E+00  0.00000000000E+00  0.23956940770E+02  0.23956940906E+02  0.25500000000E-02 0.  1.
          1   -1    0    0  501    0  0.00000000000E+00 -0.00000000000E+00 -0.64884493876E+02  0.64884494072E+02  0.50400000000E-02 0. -1.
        -24    2    1    2    0    0 -0.35527136788E-14  0.44408920985E-15 -0.40927553106E+02  0.88841434978E+02  0.78852621806E+02 0.  0.
         66    2    3    3    0    0  0.20734021543E+02 -0.38171498042E+01  0.17025682340E+02  0.27172488622E+02  0.19999992014E+01 0.  0.
         13    1    3    3    0    0 -0.20734021543E+02  0.38171498042E+01 -0.57953235446E+02  0.61668946356E+02  0.10566000000E+00 0. -1.
         13    1    4    4    0    0  0.53667036705E-01  0.23301116609E-01  0.78545823823E-01  0.14407142293E+00  0.10566000000E+00 0.  1.
        -13    1    4    4    0    0  0.17873623611E+02 -0.34414379802E+01  0.15036914612E+02  0.23609953016E+02  0.10566000000E+00 0.  1.
        -14    1    4    4    0    0  0.28067308953E+01 -0.39901294060E+00  0.19102219047E+01  0.34184641830E+01  0.00000000000E+00 0.  1.
<mgrwt>
<rscale>  0 0.78852622E+02</rscale>
<asrwt>0</asrwt>
<pdfrwt beam="1">  1        1 0.99822299E-02 0.78852622E+02</pdfrwt>
<pdfrwt beam="2">  1       -2 0.36856832E-02 0.78852622E+02</pdfrwt>
<totfact> 0.14259802E+05</totfact>
</mgrwt>
</event>
<event>
 8    1  0.1241100E-024  0.7228197E+02  0.7818608E-02  0.1352501E+00
          1   -1    0    0  501    0  0.00000000000E+00  0.00000000000E+00  0.32221435391E+02  0.32221435785E+02  0.50400000000E-02 0. -1.
         -2   -1    0    0    0  501 -0.00000000000E+00 -0.00000000000E+00 -0.40537322996E+02  0.40537323077E+02  0.25500000000E-02 0.  1.
        -24    2    1    2    0    0  0.00000000000E+00  0.00000000000E+00 -0.83158876058E+01  0.72758758861E+02  0.72281968736E+02 0.  0.
         66    2    3    3    0    0 -0.17882971449E+02  0.67866726374E+01 -0.34994959615E+02  0.39931275853E+02  0.19999998592E+01 0.  0.
         13    1    3    3    0    0  0.17882971449E+02 -0.67866726374E+01  0.26679072010E+02  0.32827483008E+02  0.10566000000E+00 0. -1.
         13    1    4    4    0    0 -0.15747698568E+01  0.10425499069E+01 -0.30107115543E+01  0.35556094427E+01  0.10566000000E+00 0.  1.
        -13    1    4    4    0    0 -0.19081390023E+01  0.31607373162E+00 -0.35533062734E+01  0.40469799313E+01  0.10566000000E+00 0. -1.
        -14    1    4    4    0    0 -0.14400062590E+02  0.54280489989E+01 -0.28430941788E+02  0.32328686479E+02  0.00000000000E+00 0.  1.
<mgrwt>
<rscale>  0 0.72281969E+02</rscale>
<asrwt>0</asrwt>
<pdfrwt beam="1">  1        1 0.49571440E-02 0.72281969E+02</pdfrwt>
<pdfrwt beam="2">  1       -2 0.62365112E-02 0.72281969E+02</pdfrwt>
<totfact> 0.16314300E+05</totfact>
</mgrwt>
</event>
<event>
 8    1  0.1241100E-024  0.7908857E+02  0.7818608E-02  0.1331658E+00
          1   -1    0    0  501    0  0.00000000000E+00  0.00000000000E+00  0.73906517214E+02  0.73906517386E+02  0.50400000000E-02 0. -1.
         -2   -1    0    0    0  501 -0.00000000000E+00 -0.00000000000E+00 -0.21158492809E+02  0.21158492963E+02  0.25500000000E-02 0.  1.
        -24    2    1    2    0    0  0.35527136788E-14 -0.35527136788E-14  0.52748024405E+02  0.95065010349E+02  0.79088571323E+02 0.  0.
         66    2    3    3    0    0 -0.19027304491E+02  0.30997839587E+02  0.78144289250E+01  0.37255464925E+02  0.19999980285E+01 0.  0.
         13    1    3    3    0    0  0.19027304491E+02 -0.30997839587E+02  0.44933595480E+02  0.57809545424E+02  0.10566000000E+00 0. -1.
         13    1    4    4    0    0 -0.11193448134E+01  0.22585863445E+01  0.20010433284E+00  0.25308794650E+01  0.10566000000E+00 0. -1.
        -13    1    4    4    0    0 -0.61512720207E+01  0.10664501285E+02  0.30752431203E+01  0.12690075627E+02  0.10566000000E+00 0.  1.
        -14    1    4    4    0    0 -0.11756687657E+02  0.18074751957E+02  0.45390814719E+01  0.22034509833E+02  0.00000000000E+00 0.  1.
<mgrwt>
<rscale>  0 0.79088571E+02</rscale>
<asrwt>0</asrwt>
<pdfrwt beam="1">  1        1 0.11370234E-01 0.79088571E+02</pdfrwt>
<pdfrwt beam="2">  1       -2 0.32551526E-02 0.79088571E+02</pdfrwt>
<totfact> 0.14435265E+05</totfact>
</mgrwt>
</event>
<event>
 8    1  0.1241100E-024  0.7860891E+02  0.7818608E-02  0.1333046E+00
         -2   -1    0    0    0  501 -0.00000000000E+00  0.00000000000E+00  0.17022621551E+02  0.17022621742E+02  0.25500000000E-02 0.  1.
          1   -1    0    0  501    0  0.00000000000E+00 -0.00000000000E+00 -0.90752184868E+02  0.90752185008E+02  0.50400000000E-02 0. -1.
        -24    2    1    2    0    0  0.00000000000E+00  0.00000000000E+00 -0.73729563317E+02  0.10777480675E+03  0.78608908293E+02 0.  0.
         66    2    3    3    0    0 -0.38293395311E+02 -0.87345799551E+01 -0.37433828519E+02  0.54295198112E+02  0.20000022349E+01 0.  0.
         13    1    3    3    0    0  0.38293395311E+02  0.87345799551E+01 -0.36295734798E+02  0.53479608638E+02  0.10566000000E+00 0. -1.
         13    1    4    4    0    0 -0.74500632118E+00 -0.36306084587E+00 -0.78734393892E+00  0.11480078877E+01  0.10566000000E+00 0. -1.
        -13    1    4    4    0    0 -0.24880152084E+02 -0.54529332429E+01 -0.25092901414E+02  0.35755018026E+02  0.10566000000E+00 0.  1.
        -14    1    4    4    0    0 -0.12668236907E+02 -0.29185858664E+01 -0.11553583166E+02  0.17392172198E+02  0.00000000000E+00 0.  1.
<mgrwt>
<rscale>  0 0.78608908E+02</rscale>
<asrwt>0</asrwt>
<pdfrwt beam="1">  1        1 0.13961874E-01 0.78608908E+02</pdfrwt>
<pdfrwt beam="2">  1       -2 0.26188649E-02 0.78608908E+02</pdfrwt>
<totfact> 0.15167185E+05</totfact>
</mgrwt>
</event>
<event>
 8    1  0.1241100E-024  0.7948867E+02  0.7818608E-02  0.1330509E+00
         -2   -1    0    0    0  501 -0.00000000000E+00  0.00000000000E+00  0.33079299982E+02  0.33079300080E+02  0.25500000000E-02 0.  1.
          1   -1    0    0  501    0  0.00000000000E+00 -0.00000000000E+00 -0.47752290602E+02  0.47752290868E+02  0.50400000000E-02 0. -1.
        -24    2    1    2    0    0  0.00000000000E+00  0.00000000000E+00 -0.14672990620E+02  0.80831590948E+02  0.79488674926E+02 0.  0.
         66    2    3    3    0    0  0.19165797734E+02 -0.11286862260E+02  0.26122060762E+02  0.34366889897E+02  0.20000000745E+01 0.  0.
         13    1    3    3    0    0 -0.19165797734E+02  0.11286862260E+02 -0.40795051382E+02  0.46464701051E+02  0.10566000000E+00 0. -1.
         13    1    4    4    0    0  0.11675416415E+02 -0.74954964644E+01  0.15280101580E+02  0.20639536914E+02  0.10566000000E+00 0. -1.
        -13    1    4    4    0    0  0.75009070097E+01 -0.37959652390E+01  0.10833486205E+02  0.13713079357E+02  0.10566000000E+00 0.  1.
         14    1    4    4    0    0 -0.10525690740E-01  0.45994437494E-02  0.84729771159E-02  0.14273625663E-01  0.00000000000E+00 0. -1.
<mgrwt>
<rscale>  0 0.79488675E+02</rscale>
<asrwt>0</asrwt>
<pdfrwt beam="1">  1        1 0.73465063E-02 0.79488675E+02</pdfrwt>
<pdfrwt beam="2">  1       -2 0.50891231E-02 0.79488675E+02</pdfrwt>
<totfact> 0.13297628E+05</totfact>
</mgrwt>
</event>
<event>
 8    1  0.1241100E-024  0.7737252E+02  0.7818608E-02  0.1336678E+00
          1   -1    0    0  501    0  0.00000000000E+00  0.00000000000E+00  0.65552872829E+02  0.65552873022E+02  0.50400000000E-02 0. -1.
         -2   -1    0    0    0  501 -0.00000000000E+00 -0.00000000000E+00 -0.22830834023E+02  0.22830834165E+02  0.25500000000E-02 0.  1.
        -24    2    1    2    0    0 -0.88817841970E-15  0.00000000000E+00  0.42722038806E+02  0.88383707188E+02  0.77372521586E+02 0.  0.
         66    2    3    3    0    0 -0.45817096498E+01 -0.32495176329E+02 -0.19708412484E+01  0.32936495900E+02  0.19999997473E+01 0.  0.
         13    1    3    3    0    0  0.45817096498E+01  0.32495176329E+02  0.44692880054E+02  0.55447211287E+02  0.10566000000E+00 0. -1.
         13    1    4    4    0    0 -0.32756401973E-01 -0.19236913769E+01 -0.39217284712E+00  0.19663735843E+01  0.10566000000E+00 0. -1.
        -13    1    4    4    0    0 -0.26930961031E+00 -0.12872973777E+01 -0.26483829988E+00  0.13457212065E+01  0.10566000000E+00 0.  1.
        -14    1    4    4    0    0 -0.42796436376E+01 -0.29284187575E+02 -0.13138301014E+01  0.29624401110E+02  0.00000000000E+00 0.  1.
<mgrwt>
<rscale>  0 0.77372522E+02</rscale>
<asrwt>0</asrwt>
<pdfrwt beam="1">  1        1 0.10085057E-01 0.77372522E+02</pdfrwt>
<pdfrwt beam="2">  1       -2 0.35124360E-02 0.77372522E+02</pdfrwt>
<totfact> 0.15042444E+05</totfact>
</mgrwt>
</event>
<event>
 8    1  0.1241100E-024  0.8268719E+02  0.7818608E-02  0.1321594E+00
         -2   -1    0    0    0  501 -0.00000000000E+00  0.00000000000E+00  0.31952892833E+03  0.31952892834E+03  0.25500000000E-02 0.  1.
          1   -1    0    0  501    0  0.00000000000E+00 -0.00000000000E+00 -0.53494132263E+01  0.53494156005E+01  0.50400000000E-02 0. -1.
        -24    2    1    2    0    0  0.00000000000E+00 -0.14210854715E-13  0.31417951510E+03  0.32487834394E+03  0.82687185529E+02 0.  0.
         66    2    3    3    0    0 -0.13746373122E+02  0.38262775400E+02  0.18612964024E+03  0.19052885800E+03  0.20000000993E+01 0.  0.
         13    1    3    3    0    0  0.13746373122E+02 -0.38262775400E+02  0.12804987486E+03  0.13434948594E+03  0.10566000000E+00 0. -1.
         13    1    4    4    0    0 -0.14847463148E+01  0.62362174112E+01  0.29501268610E+02  0.30189913760E+02  0.10566000000E+00 0. -1.
        -13    1    4    4    0    0 -0.81828478159E+01  0.21080788302E+02  0.10356597102E+03  0.10600603828E+03  0.10566000000E+00 0.  1.
         14    1    4    4    0    0 -0.40787789918E+01  0.10945769687E+02  0.53062400605E+02  0.54332905960E+02  0.00000000000E+00 0. -1.
<mgrwt>
<rscale>  0 0.82687186E+02</rscale>
<asrwt>0</asrwt>
<pdfrwt beam="1">  1        1 0.82298687E-03 0.82687186E+02</pdfrwt>
<pdfrwt beam="2">  1       -2 0.49158295E-01 0.82687186E+02</pdfrwt>
<totfact> 0.62289699E+04</totfact>
</mgrwt>
</event>
<event>
 8    1  0.1241100E-024  0.8040889E+02  0.7818608E-02  0.1327895E+00
         -2   -1    0    0    0  501 -0.00000000000E+00  0.00000000000E+00  0.37649054802E+02  0.37649054888E+02  0.25500000000E-02 0.  1.
          1   -1    0    0  501    0  0.00000000000E+00 -0.00000000000E+00 -0.42933279664E+02  0.42933279960E+02  0.50400000000E-02 0. -1.
        -24    2    1    2    0    0  0.00000000000E+00 -0.17763568394E-14 -0.52842248624E+01  0.80582334848E+02  0.80408890412E+02 0.  0.
         66    2    3    3    0    0 -0.35090751384E+02 -0.12878155525E+02  0.12125234548E+02  0.39347541731E+02  0.20000012647E+01 0.  0.
         13    1    3    3    0    0  0.35090751384E+02  0.12878155525E+02 -0.17409459410E+02  0.41234793117E+02  0.10566000000E+00 0. -1.
         13    1    4    4    0    0 -0.96746051675E+00 -0.53411579089E+00  0.41648036788E+00  0.11856978797E+01  0.10566000000E+00 0. -1.
        -13    1    4    4    0    0 -0.14062461242E+02 -0.43978752997E+01  0.43239233794E+01  0.15355832793E+02  0.10566000000E+00 0.  1.
        -14    1    4    4    0    0 -0.20060829625E+02 -0.79461644346E+01  0.73848308005E+01  0.22806011059E+02  0.00000000000E+00 0.  1.
<mgrwt>
<rscale>  0 0.80408890E+02</rscale>
<asrwt>0</asrwt>
<pdfrwt beam="1">  1        1 0.66051200E-02 0.80408890E+02</pdfrwt>
<pdfrwt beam="2">  1       -2 0.57921623E-02 0.80408890E+02</pdfrwt>
<totfact> 0.12660745E+05</totfact>
</mgrwt>
</event>
<event>
 8    1  0.1241100E-024  0.7993579E+02  0.7818608E-02  0.1329234E+00
          1   -1    0    0  501    0  0.00000000000E+00  0.00000000000E+00  0.23299144401E+03  0.23299144407E+03  0.50400000000E-02 0. -1.
         -2   -1    0    0    0  501 -0.00000000000E+00 -0.00000000000E+00 -0.68561849540E+01  0.68561854282E+01  0.25500000000E-02 0.  1.
        -24    2    1    2    0    0  0.00000000000E+00  0.00000000000E+00  0.22613525906E+03  0.23984762950E+03  0.79935786636E+02 0.  0.
         66    2    3    3    0    0  0.19175059691E+02 -0.35009605035E+02  0.10881897264E+03  0.11592637392E+03  0.20000015714E+01 0.  0.
         13    1    3    3    0    0 -0.19175059691E+02  0.35009605035E+02  0.11731628642E+03  0.12392125558E+03  0.10566000000E+00 0. -1.
         13    1    4    4    0    0  0.67872762534E+01 -0.12124334953E+02  0.37674425874E+02  0.40155200733E+02  0.10566000000E+00 0.  1.
        -13    1    4    4    0    0  0.52431160608E+01 -0.84743648552E+01  0.28707038623E+02  0.30387667832E+02  0.10566000000E+00 0.  1.
        -14    1    4    4    0    0  0.71446673764E+01 -0.14410905228E+02  0.42437508139E+02  0.45383505357E+02  0.00000000000E+00 0.  1.
<mgrwt>
<rscale>  0 0.79935787E+02</rscale>
<asrwt>0</asrwt>
<pdfrwt beam="1">  1        1 0.35844833E-01 0.79935787E+02</pdfrwt>
<pdfrwt beam="2">  1       -2 0.10547979E-02 0.79935787E+02</pdfrwt>
<totfact> 0.17214146E+05</totfact>
</mgrwt>
</event>
<event>
 8    1  0.2530164E-024  0.8101517E+02  0.7818608E-02  0.1326195E+00
          1   -1    0    0  501    0  0.00000000000E+00  0.00000000000E+00  0.82851676015E+02  0.82851676168E+02  0.50400000000E-02 0. -1.
         -2   -1    0    0    0  501 -0.00000000000E+00 -0.00000000000E+00 -0.19804844668E+02  0.19804844832E+02  0.25500000000E-02 0.  1.
        -24    2    1    2    0    0  0.00000000000E+00  0.22204460493E-15  0.63046831347E+02  0.10265652100E+03  0.81015173646E+02 0.  0.
         66    2    3    3    0    0  0.17791610753E+02 -0.13708819669E+01 -0.14502092494E+02  0.23080975237E+02  0.20000001592E+01 0.  0.
         13    1    3    3    0    0 -0.17791610753E+02  0.13708819669E+01  0.77548923841E+02  0.79575545763E+02  0.10566000000E+00 0. -1.
         13    1    4    4    0    0  0.43613526589E+01 -0.63136390621E-01 -0.33134176512E+01  0.54786206097E+01  0.10566000000E+00 0. -1.
        -13    1    4    4    0    0  0.97544360403E+01 -0.29955070354E+00 -0.76366746906E+01  0.12392284594E+02  0.10566000000E+00 0.  1.
         14    1    4    4    0    0  0.36758220537E+01 -0.10081948728E+01 -0.35520001519E+01  0.52100700332E+01  0.00000000000E+00 0. -1.
<mgrwt>
<rscale>  0 0.81015174E+02</rscale>
<asrwt>0</asrwt>
<pdfrwt beam="1">  1        1 0.12746412E-01 0.81015174E+02</pdfrwt>
<pdfrwt beam="2">  1       -2 0.30468992E-02 0.81015174E+02</pdfrwt>
<totfact> 0.13768875E+05</totfact>
</mgrwt>
</event>
<event>
 8    1  0.1241100E-024  0.8107587E+02  0.7818608E-02  0.1326026E+00
         -2   -1    0    0    0  501 -0.00000000000E+00  0.00000000000E+00  0.79259853172E+02  0.79259853213E+02  0.25500000000E-02 0.  1.
          1   -1    0    0  501    0  0.00000000000E+00 -0.00000000000E+00 -0.20733374340E+02  0.20733374953E+02  0.50400000000E-02 0. -1.
        -24    2    1    2    0    0  0.00000000000E+00  0.00000000000E+00  0.58526478831E+02  0.99993228166E+02  0.81075871593E+02 0.  0.
         66    2    3    3    0    0 -0.33962240576E+02 -0.10397705477E+02  0.53315830566E+02  0.64094647643E+02  0.20000008525E+01 0.  0.
         13    1    3    3    0    0  0.33962240576E+02  0.10397705477E+02  0.52106482650E+01  0.35898580522E+02  0.10566000000E+00 0. -1.
         13    1    4    4    0    0 -0.65377661202E+00 -0.39870980507E-01  0.11132155897E+01  0.12959269031E+01  0.10566000000E+00 0. -1.
        -13    1    4    4    0    0 -0.30783233829E+02 -0.92329713404E+01  0.47765817044E+02  0.57571170621E+02  0.10566000000E+00 0.  1.
        -14    1    4    4    0    0 -0.25252301355E+01 -0.11248631562E+01  0.44367979325E+01  0.52275501194E+01  0.00000000000E+00 0.  1.
<mgrwt>
<rscale>  0 0.81075872E+02</rscale>
<asrwt>0</asrwt>
<pdfrwt beam="1">  1        1 0.31897499E-02 0.81075872E+02</pdfrwt>
<pdfrwt beam="2">  1       -2 0.12193824E-01 0.81075872E+02</pdfrwt>
<totfact> 0.10823615E+05</totfact>
</mgrwt>
</event>
<event>
 8    1  0.1241100E-024  0.8251408E+02  0.7818608E-02  0.1322065E+00
          1   -1    0    0  501    0  0.00000000000E+00  0.00000000000E+00  0.57875703286E+03  0.57875703288E+03  0.50400000000E-02 0. -1.
         -2   -1    0    0    0  501 -0.00000000000E+00 -0.00000000000E+00 -0.29410319279E+01  0.29410330334E+01  0.25500000000E-02 0.  1.
        -24    2    1    2    0    0 -0.71054273576E-14 -0.88817841970E-15  0.57581600093E+03  0.58169806591E+03  0.82514077346E+02 0.  0.
         66    2    3    3    0    0  0.39994819089E+02  0.41204372464E+01  0.35252430000E+03  0.35481536841E+03  0.20000034998E+01 0.  0.
         13    1    3    3    0    0 -0.39994819089E+02 -0.41204372464E+01  0.22329170093E+03  0.22688269750E+03  0.10566000000E+00 0. -1.
         13    1    4    4    0    0  0.17231982003E+01  0.46551996799E+00  0.14035186738E+02  0.14148630736E+02  0.10566000000E+00 0. -1.
        -13    1    4    4    0    0  0.36759628764E+02  0.36656307256E+01  0.32597577955E+03  0.32806238305E+03  0.10566000000E+00 0.  1.
         14    1    4    4    0    0  0.15119921251E+01 -0.10713447201E-01  0.12513333713E+02  0.12604354627E+02  0.00000000000E+00 0. -1.
<mgrwt>
<rscale>  0 0.82514077E+02</rscale>
<asrwt>0</asrwt>
<pdfrwt beam="1">  1        1 0.89039680E-01 0.82514077E+02</pdfrwt>
<pdfrwt beam="2">  1       -2 0.45246584E-03 0.82514077E+02</pdfrwt>
<totfact> 0.18338544E+05</totfact>
</mgrwt>
</event>
<event>
 8    1  0.1241100E-024  0.7934590E+02  0.7818608E-02  0.1330918E+00
         -2   -1    0    0    0  501 -0.00000000000E+00  0.00000000000E+00  0.12160170149E+02  0.12160170416E+02  0.25500000000E-02 0.  1.
          1   -1    0    0  501    0  0.00000000000E+00 -0.00000000000E+00 -0.12943428229E+03  0.12943428239E+03  0.50400000000E-02 0. -1.
        -24    2    1    2    0    0  0.71054273576E-14  0.44408920985E-15 -0.11727411214E+03  0.14159445281E+03  0.79345898991E+02 0.  0.
         66    2    3    3    0    0 -0.38755625731E+02 -0.34138467447E+01 -0.72298079557E+02  0.82125910310E+02  0.19999903056E+01 0.  0.
         13    1    3    3    0    0  0.38755625731E+02  0.34138467447E+01 -0.44976032587E+02  0.59468542497E+02  0.10566000000E+00 0. -1.
         13    1    4    4    0    0 -0.55834064070E+01 -0.43721214953E+00 -0.95709359333E+01  0.11089614973E+02  0.10566000000E+00 0. -1.
        -13    1    4    4    0    0 -0.16303542250E+02 -0.85567150454E+00 -0.29826418255E+02  0.34002412466E+02  0.10566000000E+00 0.  1.
         14    1    4    4    0    0 -0.16868677075E+02 -0.21209630906E+01 -0.32900725369E+02  0.37033882871E+02  0.00000000000E+00 0. -1.
<mgrwt>
<rscale>  0 0.79345899E+02</rscale>
<asrwt>0</asrwt>
<pdfrwt beam="1">  1        1 0.19912966E-01 0.79345899E+02</pdfrwt>
<pdfrwt beam="2">  1       -2 0.18707955E-02 0.79345899E+02</pdfrwt>
<totfact> 0.15713125E+05</totfact>
</mgrwt>
</event>
<event>
 8    1  0.1241100E-024  0.8249259E+02  0.7818608E-02  0.1322123E+00
         -2   -1    0    0    0  501 -0.00000000000E+00  0.00000000000E+00  0.90552485419E+02  0.90552485455E+02  0.25500000000E-02 0.  1.
          1   -1    0    0  501    0  0.00000000000E+00 -0.00000000000E+00 -0.18787522952E+02  0.18787523628E+02  0.50400000000E-02 0. -1.
        -24    2    1    2    0    0  0.00000000000E+00 -0.17763568394E-14  0.71764962467E+02  0.10934000908E+03  0.82492592081E+02 0.  0.
         66    2    3    3    0    0 -0.30731276292E+02 -0.11596187810E+02  0.68916834637E+02  0.76370236405E+02  0.19999994964E+01 0.  0.
         13    1    3    3    0    0  0.30731276292E+02  0.11596187810E+02  0.28481278306E+01  0.32969772678E+02  0.10566000000E+00 0. -1.
         13    1    4    4    0    0 -0.48271171918E+01 -0.17827452094E+01  0.11463856330E+02  0.12566240761E+02  0.10566000000E+00 0. -1.
        -13    1    4    4    0    0 -0.14030050754E+02 -0.59871658106E+01  0.32832933633E+02  0.36203607191E+02  0.10566000000E+00 0.  1.
         14    1    4    4    0    0 -0.11874108346E+02 -0.38262767900E+01  0.24620044673E+02  0.27600388453E+02  0.00000000000E+00 0. -1.
<mgrwt>
<rscale>  0 0.82492592E+02</rscale>
<asrwt>0</asrwt>
<pdfrwt beam="1">  1        1 0.28903882E-02 0.82492592E+02</pdfrwt>
<pdfrwt beam="2">  1       -2 0.13931152E-01 0.82492592E+02</pdfrwt>
<totfact> 0.10049489E+05</totfact>
</mgrwt>
</event>
<event>
 8    1  0.1241100E-024  0.7871559E+02  0.7818608E-02  0.1332736E+00
         -2   -1    0    0    0  501 -0.00000000000E+00  0.00000000000E+00  0.17108318026E+03  0.17108318028E+03  0.25500000000E-02 0.  1.
          1   -1    0    0  501    0  0.00000000000E+00 -0.00000000000E+00 -0.90542862894E+01  0.90542876921E+01  0.50400000000E-02 0. -1.
        -24    2    1    2    0    0 -0.35527136788E-14  0.00000000000E+00  0.16202889397E+03  0.18013746797E+03  0.78715594933E+02 0.  0.
         66    2    3    3    0    0  0.17338788632E+02  0.25573432406E+02  0.13676590686E+03  0.14022677118E+03  0.20000103211E+01 0.  0.
         13    1    3    3    0    0 -0.17338788632E+02 -0.25573432406E+02  0.25262987110E+02  0.39910696787E+02  0.10566000000E+00 0. -1.
         13    1    4    4    0    0  0.10214231748E+02  0.13884223800E+02  0.73696060179E+02  0.75685022631E+02  0.10566000000E+00 0.  1.
        -13    1    4    4    0    0  0.22994393447E+01  0.32537930949E+01  0.17904990744E+02  0.18343239855E+02  0.10566000000E+00 0. -1.
         14    1    4    4    0    0  0.48251175388E+01  0.84354155108E+01  0.45164855935E+02  0.46198508696E+02  0.00000000000E+00 0. -1.
<mgrwt>
<rscale>  0 0.78715595E+02</rscale>
<asrwt>0</asrwt>
<pdfrwt beam="1">  1        1 0.13929673E-02 0.78715595E+02</pdfrwt>
<pdfrwt beam="2">  1       -2 0.26320487E-01 0.78715595E+02</pdfrwt>
<totfact> 0.94168370E+04</totfact>
</mgrwt>
</event>
<event>
 8    1  0.1241100E-024  0.8028084E+02  0.7818608E-02  0.1328256E+00
         -2   -1    0    0    0  501 -0.00000000000E+00  0.00000000000E+00  0.11265181629E+02  0.11265181918E+02  0.25500000000E-02 0.  1.
          1   -1    0    0  501    0  0.00000000000E+00 -0.00000000000E+00 -0.14302951508E+03  0.14302951517E+03  0.50400000000E-02 0. -1.
        -24    2    1    2    0    0 -0.35527136788E-14  0.00000000000E+00 -0.13176433345E+03  0.15429469708E+03  0.80280844410E+02 0.  0.
         66    2    3    3    0    0  0.29867483658E+02 -0.26656670958E+02 -0.70861921339E+02  0.81412877325E+02  0.20000029547E+01 0.  0.
         13    1    3    3    0    0 -0.29867483658E+02  0.26656670958E+02 -0.60902412109E+02  0.72881819759E+02  0.10566000000E+00 0. -1.
         13    1    4    4    0    0  0.38385477751E+01 -0.26487569538E+01 -0.80053871860E+01  0.92654061139E+01  0.10566000000E+00 0. -1.
        -13    1    4    4    0    0  0.16966507957E+02 -0.15249610474E+02 -0.40669894881E+02  0.46631154023E+02  0.10566000000E+00 0.  1.
        -14    1    4    4    0    0  0.90624279265E+01 -0.87583035297E+01 -0.22186639272E+02  0.25516317188E+02  0.00000000000E+00 0.  1.
<mgrwt>
<rscale>  0 0.80280844E+02</rscale>
<asrwt>0</asrwt>
<pdfrwt beam="1">  1        1 0.22004540E-01 0.80280844E+02</pdfrwt>
<pdfrwt beam="2">  1       -2 0.17331050E-02 0.80280844E+02</pdfrwt>
<totfact> 0.15505021E+05</totfact>
</mgrwt>
</event>
<event>
 8    1  0.1241100E-024  0.7950405E+02  0.7818608E-02  0.1330465E+00
         -2   -1    0    0    0  501 -0.00000000000E+00  0.00000000000E+00  0.13900410586E+03  0.13900410588E+03  0.25500000000E-02 0.  1.
          1   -1    0    0  501    0  0.00000000000E+00 -0.00000000000E+00 -0.11368177293E+02  0.11368178411E+02  0.50400000000E-02 0. -1.
        -24    2    1    2    0    0 -0.35527136788E-14 -0.44408920985E-15  0.12763592857E+03  0.15037228429E+03  0.79504047838E+02 0.  0.
         66    2    3    3    0    0  0.28660557238E+02 -0.28368517527E+01  0.11561236516E+03  0.11916246997E+03  0.20000007098E+01 0.  0.
         13    1    3    3    0    0 -0.28660557238E+02  0.28368517527E+01  0.12023563409E+02  0.31209814324E+02  0.10566000000E+00 0. -1.
         13    1    4    4    0    0  0.10282182514E+01  0.15794670195E+00  0.41343347086E+01  0.42645125690E+01  0.10566000000E+00 0. -1.
        -13    1    4    4    0    0  0.13938435463E+02 -0.11808659631E+01  0.53807263827E+02  0.55595928198E+02  0.10566000000E+00 0.  1.
         14    1    4    4    0    0  0.13693903524E+02 -0.18139324915E+01  0.57670766621E+02  0.59302029202E+02  0.00000000000E+00 0. -1.
<mgrwt>
<rscale>  0 0.79504048E+02</rscale>
<asrwt>0</asrwt>
<pdfrwt beam="1">  1        1 0.17489503E-02 0.79504048E+02</pdfrwt>
<pdfrwt beam="2">  1       -2 0.21385249E-01 0.79504048E+02</pdfrwt>
<totfact> 0.98401112E+04</totfact>
</mgrwt>
</event>
<event>
 8    1  0.1241100E-024  0.8283957E+02  0.7818608E-02  0.1321181E+00
         -2   -1    0    0    0  501 -0.00000000000E+00  0.00000000000E+00  0.10867289509E+03  0.10867289512E+03  0.25500000000E-02 0.  1.
          1   -1    0    0  501    0  0.00000000000E+00 -0.00000000000E+00 -0.15786810547E+02  0.15786811352E+02  0.50400000000E-02 0. -1.
        -24    2    1    2    0    0 -0.17763568394E-14  0.00000000000E+00  0.92886084543E+02  0.12445970647E+03  0.82839566835E+02 0.  0.
         66    2    3    3    0    0 -0.14976416765E+02 -0.22733988158E+02  0.93322045814E+02  0.97232358034E+02  0.19999843311E+01 0.  0.
         13    1    3    3    0    0  0.14976416765E+02  0.22733988158E+02 -0.43596127016E+00  0.27227348438E+02  0.10566000000E+00 0. -1.
         13    1    4    4    0    0 -0.11903796834E+01 -0.26413320735E+01  0.10821025550E+02  0.11202651334E+02  0.10566000000E+00 0. -1.
        -13    1    4    4    0    0 -0.77693280241E+01 -0.11894673336E+02  0.46881974516E+02  0.48987512799E+02  0.10566000000E+00 0.  1.
        -14    1    4    4    0    0 -0.60167090578E+01 -0.81979827488E+01  0.35619045748E+02  0.37042193901E+02  0.00000000000E+00 0.  1.
<mgrwt>
<rscale>  0 0.82839567E+02</rscale>
<asrwt>0</asrwt>
<pdfrwt beam="1">  1        1 0.24287402E-02 0.82839567E+02</pdfrwt>
<pdfrwt beam="2">  1       -2 0.16718907E-01 0.82839567E+02</pdfrwt>
<totfact> 0.95008267E+04</totfact>
</mgrwt>
</event>
<event>
 8    1  0.1241100E-024  0.7825947E+02  0.7818608E-02  0.1334065E+00
          1   -1    0    0  501    0  0.00000000000E+00  0.00000000000E+00  0.42142564790E+02  0.42142565092E+02  0.50400000000E-02 0. -1.
         -2   -1    0    0    0  501 -0.00000000000E+00 -0.00000000000E+00 -0.36332291657E+02  0.36332291746E+02  0.25500000000E-02 0.  1.
        -24    2    1    2    0    0  0.00000000000E+00 -0.35527136788E-14  0.58102731336E+01  0.78474856838E+02  0.78259465126E+02 0.  0.
         66    2    3    3    0    0 -0.16289455041E+02 -0.26292670001E+02 -0.21085382310E+02  0.37486586721E+02  0.19999988801E+01 0.  0.
         13    1    3    3    0    0  0.16289455041E+02  0.26292670001E+02  0.26895655444E+02  0.40988270116E+02  0.10566000000E+00 0. -1.
         13    1    4    4    0    0 -0.41256929477E+01 -0.58764294603E+01 -0.42792583222E+01  0.83592452605E+01  0.10566000000E+00 0. -1.
        -13    1    4    4    0    0 -0.97512451405E+01 -0.15601457379E+02 -0.12724899672E+02  0.22370214345E+02  0.10566000000E+00 0.  1.
         14    1    4    4    0    0 -0.24125169531E+01 -0.48147831621E+01 -0.40812243160E+01  0.67571271162E+01  0.00000000000E+00 0. -1.
<mgrwt>
<rscale>  0 0.78259465E+02</rscale>
<asrwt>0</asrwt>
<pdfrwt beam="1">  1        1 0.64834715E-02 0.78259465E+02</pdfrwt>
<pdfrwt beam="2">  1       -2 0.55895834E-02 0.78259465E+02</pdfrwt>
<totfact> 0.13619207E+05</totfact>
</mgrwt>
</event>
<event>
 8    1  0.1241100E-024  0.7956339E+02  0.7818608E-02  0.1330295E+00
          1   -1    0    0  501    0  0.00000000000E+00  0.00000000000E+00  0.10568010855E+02  0.10568012056E+02  0.50400000000E-02 0. -1.
         -2   -1    0    0    0  501 -0.00000000000E+00 -0.00000000000E+00 -0.14975224441E+03  0.14975224443E+03  0.25500000000E-02 0.  1.
        -24    2    1    2    0    0  0.35527136788E-14  0.00000000000E+00 -0.13918423356E+03  0.16032025649E+03  0.79563394662E+02 0.  0.
         66    2    3    3    0    0 -0.16034698369E+02  0.35649541498E+02 -0.84246751585E+02  0.92895191045E+02  0.20000014598E+01 0.  0.
         13    1    3    3    0    0  0.16034698369E+02 -0.35649541498E+02 -0.54937481972E+02  0.67425065445E+02  0.10566000000E+00 0. -1.
         13    1    4    4    0    0 -0.91728608728E+00  0.29485327950E+01 -0.64356220146E+01  0.71388832571E+01  0.10566000000E+00 0. -1.
        -13    1    4    4    0    0 -0.97086149546E+01  0.21952614044E+02 -0.50728968430E+02  0.56121420774E+02  0.10566000000E+00 0.  1.
         14    1    4    4    0    0 -0.54087973276E+01  0.10748394659E+02 -0.27082161141E+02  0.29634887014E+02  0.00000000000E+00 0. -1.
<mgrwt>
<rscale>  0 0.79563395E+02</rscale>
<asrwt>0</asrwt>
<pdfrwt beam="1">  1        1 0.16258480E-02 0.79563395E+02</pdfrwt>
<pdfrwt beam="2">  1       -2 0.23038805E-01 0.79563395E+02</pdfrwt>
<totfact> 0.95902595E+04</totfact>
</mgrwt>
</event>
<event>
 8    1  0.1241100E-024  0.8349655E+02  0.7818608E-02  0.1319412E+00
         -2   -1    0    0    0  501 -0.00000000000E+00  0.00000000000E+00  0.53769203057E+01  0.53769209104E+01  0.25500000000E-02 0.  1.
          1   -1    0    0  501    0  0.00000000000E+00 -0.00000000000E+00 -0.32414805258E+03  0.32414805262E+03  0.50400000000E-02 0. -1.
        -24    2    1    2    0    0  0.71054273576E-14  0.00000000000E+00 -0.31877113227E+03  0.32952497353E+03  0.83496547283E+02 0.  0.
         66    2    3    3    0    0  0.40418880561E+02  0.34104963067E+01 -0.19806362903E+03  0.20218436770E+03  0.20000011847E+01 0.  0.
         13    1    3    3    0    0 -0.40418880561E+02 -0.34104963067E+01 -0.12070750324E+03  0.12734060583E+03  0.10566000000E+00 0. -1.
         13    1    4    4    0    0  0.53412676361E+01  0.90863571063E+00 -0.27675320179E+02  0.28200873565E+02  0.10566000000E+00 0. -1.
        -13    1    4    4    0    0  0.24422060744E+02  0.12626914860E+01 -0.11720597086E+03  0.11973003888E+03  0.10566000000E+00 0.  1.
        -14    1    4    4    0    0  0.10655552181E+02  0.12391691100E+01 -0.53182337990E+02  0.54253455249E+02  0.00000000000E+00 0.  1.
<mgrwt>
<rscale>  0 0.83496547E+02</rscale>
<asrwt>0</asrwt>
<pdfrwt beam="1">  1        1 0.49868916E-01 0.83496547E+02</pdfrwt>
<pdfrwt beam="2">  1       -2 0.82721881E-03 0.83496547E+02</pdfrwt>
<totfact> 0.16351556E+05</totfact>
</mgrwt>
</event>
<event>
 8    1  0.1241100E-024  0.8089261E+02  0.7818608E-02  0.1326537E+00
         -2   -1    0    0    0  501 -0.00000000000E+00  0.00000000000E+00  0.30678146474E+02  0.30678146580E+02  0.25500000000E-02 0.  1.
          1   -1    0    0  501    0  0.00000000000E+00 -0.00000000000E+00 -0.53324726619E+02  0.53324726858E+02  0.50400000000E-02 0. -1.
        -24    2    1    2    0    0  0.00000000000E+00  0.00000000000E+00 -0.22646580145E+02  0.84002873438E+02  0.80892614951E+02 0.  0.
         66    2    3    3    0    0 -0.37056306576E+02 -0.95614011749E+01  0.21819660258E+01  0.38384257518E+02  0.20000000051E+01 0.  0.
         13    1    3    3    0    0  0.37056306576E+02  0.95614011749E+01 -0.24828546171E+02  0.45618615920E+02  0.10566000000E+00 0. -1.
         13    1    4    4    0    0 -0.61919170183E+01 -0.21719580278E+01  0.49009361784E+00  0.65809265173E+01  0.10566000000E+00 0. -1.
        -13    1    4    4    0    0 -0.24323540643E+02 -0.61143196874E+01  0.95397325401E+00  0.25098620752E+02  0.10566000000E+00 0.  1.
        -14    1    4    4    0    0 -0.65408489144E+01 -0.12751234596E+01  0.73789915393E+00  0.67047102487E+01  0.00000000000E+00 0.  1.
<mgrwt>
<rscale>  0 0.80892615E+02</rscale>
<asrwt>0</asrwt>
<pdfrwt beam="1">  1        1 0.82038041E-02 0.80892615E+02</pdfrwt>
<pdfrwt beam="2">  1       -2 0.47197149E-02 0.80892615E+02</pdfrwt>
<totfact> 0.12887728E+05</totfact>
</mgrwt>
</event>
<event>
 8    1  0.1241100E-024  0.7769211E+02  0.7818608E-02  0.1335731E+00
         -2   -1    0    0    0  501 -0.00000000000E+00  0.00000000000E+00  0.34716998135E+03  0.34716998136E+03  0.25500000000E-02 0.  1.
          1   -1    0    0  501    0  0.00000000000E+00 -0.00000000000E+00 -0.43466189582E+01  0.43466218802E+01  0.50400000000E-02 0. -1.
        -24    2    1    2    0    0  0.17763568394E-14 -0.35527136788E-14  0.34282336239E+03  0.35151660324E+03  0.77692113831E+02 0.  0.
         66    2    3    3    0    0 -0.12885409680E+02  0.17706569302E+02  0.31655242736E+03  0.31731529376E+03  0.20000009371E+01 0.  0.
         13    1    3    3    0    0  0.12885409680E+02 -0.17706569302E+02  0.26270935032E+02  0.34201309486E+02  0.10566000000E+00 0. -1.
         13    1    4    4    0    0 -0.40244568998E+01  0.48949651005E+01  0.10109874210E+03  0.10129720507E+03  0.10566000000E+00 0. -1.
        -13    1    4    4    0    0 -0.69873467666E+01  0.10524544468E+02  0.17069374273E+03  0.17116060885E+03  0.10566000000E+00 0.  1.
        -14    1    4    4    0    0 -0.18736060132E+01  0.22870597330E+01  0.44759942533E+02  0.44857479836E+02  0.00000000000E+00 0.  1.
<mgrwt>
<rscale>  0 0.77692114E+02</rscale>
<asrwt>0</asrwt>
<pdfrwt beam="1">  1        1 0.66871080E-03 0.77692114E+02</pdfrwt>
<pdfrwt beam="2">  1       -2 0.53410770E-01 0.77692114E+02</pdfrwt>
<totfact> 0.69703742E+04</totfact>
</mgrwt>
</event>
<event>
 8    1  0.1241100E-024  0.7994272E+02  0.7818608E-02  0.1329214E+00
         -2   -1    0    0    0  501 -0.00000000000E+00  0.00000000000E+00  0.48153686584E+01  0.48153693336E+01  0.25500000000E-02 0.  1.
          1   -1    0    0  501    0  0.00000000000E+00 -0.00000000000E+00 -0.33179377264E+03  0.33179377268E+03  0.50400000000E-02 0. -1.
        -24    2    1    2    0    0  0.44408920985E-15  0.00000000000E+00 -0.32697840398E+03  0.33660914201E+03  0.79942715839E+02 0.  0.
         66    2    3    3    0    0  0.35915937549E+01 -0.37869246395E+02 -0.11224139005E+03  0.11852893731E+03  0.19999925878E+01 0.  0.
         13    1    3    3    0    0 -0.35915937549E+01  0.37869246395E+02 -0.21473701393E+03  0.21808020471E+03  0.10566000000E+00 0. -1.
         13    1    4    4    0    0  0.85655569031E-01 -0.73541208362E+01 -0.21087962207E+02  0.22333914664E+02  0.10566000000E+00 0.  1.
        -13    1    4    4    0    0  0.32404483345E+01 -0.24997233433E+02 -0.75224418953E+02  0.79335279388E+02  0.10566000000E+00 0. -1.
         14    1    4    4    0    0  0.26548985141E+00 -0.55178921256E+01 -0.15929008892E+02  0.16859743256E+02  0.00000000000E+00 0. -1.
<mgrwt>
<rscale>  0 0.79942716E+02</rscale>
<asrwt>0</asrwt>
<pdfrwt beam="1">  1        1 0.51045178E-01 0.79942716E+02</pdfrwt>
<pdfrwt beam="2">  1       -2 0.74082626E-03 0.79942716E+02</pdfrwt>
<totfact> 0.18419514E+05</totfact>
</mgrwt>
</event>
<event>
 8    1  0.1241100E-024  0.8611546E+02  0.7818608E-02  0.1312541E+00
         -2   -1    0    0    0  501 -0.00000000000E+00  0.00000000000E+00  0.10275257845E+02  0.10275258161E+02  0.25500000000E-02 0.  1.
          1   -1    0    0  501    0  0.00000000000E+00 -0.00000000000E+00 -0.18043033590E+03  0.18043033597E+03  0.50400000000E-02 0. -1.
        -24    2    1    2    0    0  0.00000000000E+00  0.00000000000E+00 -0.17015507805E+03  0.19070559413E+03  0.86115463448E+02 0.  0.
         66    2    3    3    0    0  0.19563907109E+02  0.38314309789E+02 -0.82666842464E+02  0.93212336278E+02  0.19999988503E+01 0.  0.
         13    1    3    3    0    0 -0.19563907109E+02 -0.38314309789E+02 -0.87488235590E+02  0.97493257852E+02  0.10566000000E+00 0. -1.
         13    1    4    4    0    0  0.16561560943E+01  0.29010744026E+01 -0.58468290395E+01  0.67346610569E+01  0.10566000000E+00 0. -1.
        -13    1    4    4    0    0  0.12713938321E+01  0.32436216143E+01 -0.73138498579E+01  0.81019187377E+01  0.10566000000E+00 0.  1.
        -14    1    4    4    0    0  0.16636357182E+02  0.32169613772E+02 -0.69506163567E+02  0.78375756483E+02  0.00000000000E+00 0.  1.
<mgrwt>
<rscale>  0 0.86115463E+02</rscale>
<asrwt>0</asrwt>
<pdfrwt beam="1">  1        1 0.27758511E-01 0.86115463E+02</pdfrwt>
<pdfrwt beam="2">  1       -2 0.15808091E-02 0.86115463E+02</pdfrwt>
<totfact> 0.13425335E+05</totfact>
</mgrwt>
</event>
<event>
 8    1  0.1241100E-024  0.7765505E+02  0.7818608E-02  0.1335841E+00
         -2   -1    0    0    0  501 -0.00000000000E+00  0.00000000000E+00  0.15803369979E+03  0.15803369981E+03  0.25500000000E-02 0.  1.
          1   -1    0    0  501    0  0.00000000000E+00 -0.00000000000E+00 -0.95395891633E+01  0.95395904947E+01  0.50400000000E-02 0. -1.
        -24    2    1    2    0    0  0.88817841970E-15  0.00000000000E+00  0.14849411062E+03  0.16757329030E+03  0.77655049629E+02 0.  0.
         66    2    3    3    0    0 -0.42100005427E+01 -0.36704733200E+02  0.99884590900E+02  0.10651710212E+03  0.20000001067E+01 0.  0.
         13    1    3    3    0    0  0.42100005427E+01  0.36704733200E+02  0.48609519724E+02  0.61056188185E+02  0.10566000000E+00 0. -1.
         13    1    4    4    0    0 -0.79838547265E+00 -0.81350945999E+01  0.20720222382E+02  0.22274558651E+02  0.10566000000E+00 0.  1.
        -13    1    4    4    0    0 -0.26160549913E+00 -0.66115039285E+01  0.17477879069E+02  0.18688708955E+02  0.10566000000E+00 0. -1.
        -14    1    4    4    0    0 -0.31500095709E+01 -0.21958134672E+02  0.61686489449E+02  0.65553834511E+02  0.00000000000E+00 0.  1.
<mgrwt>
<rscale>  0 0.77655050E+02</rscale>
<asrwt>0</asrwt>
<pdfrwt beam="1">  1        1 0.14676292E-02 0.77655050E+02</pdfrwt>
<pdfrwt beam="2">  1       -2 0.24312878E-01 0.77655050E+02</pdfrwt>
<totfact> 0.10026164E+05</totfact>
</mgrwt>
</event>
<event>
 8    1  0.1241100E-024  0.7958751E+02  0.7818608E-02  0.1330226E+00
         -2   -1    0    0    0  501 -0.00000000000E+00  0.00000000000E+00  0.81246594240E+02  0.81246594280E+02  0.25500000000E-02 0.  1.
          1   -1    0    0  501    0  0.00000000000E+00 -0.00000000000E+00 -0.19490573420E+02  0.19490574071E+02  0.50400000000E-02 0. -1.
        -24    2    1    2    0    0  0.00000000000E+00  0.00000000000E+00  0.61756020821E+02  0.10073716835E+03  0.79587505175E+02 0.  0.
         66    2    3    3    0    0  0.83099696921E+01 -0.20123398451E+02  0.73020795256E+02  0.76223640074E+02  0.20000011911E+01 0.  0.
         13    1    3    3    0    0 -0.83099696921E+01  0.20123398451E+02 -0.11264774435E+02  0.24513528278E+02  0.10566000000E+00 0. -1.
         13    1    4    4    0    0  0.57858886449E+01 -0.13317172755E+02  0.50377763366E+02  0.52428559044E+02  0.10566000000E+00 0. -1.
        -13    1    4    4    0    0  0.24902136063E+01 -0.66487596165E+01  0.21535344177E+02  0.22675744334E+02  0.10566000000E+00 0.  1.
         14    1    4    4    0    0  0.33867440883E-01 -0.15746607994E+00  0.11076877126E+01  0.11193366958E+01  0.00000000000E+00 0. -1.
<mgrwt>
<rscale>  0 0.79587505E+02</rscale>
<asrwt>0</asrwt>
<pdfrwt beam="1">  1        1 0.29985498E-02 0.79587505E+02</pdfrwt>
<pdfrwt beam="2">  1       -2 0.12499476E-01 0.79587505E+02</pdfrwt>
<totfact> 0.11286328E+05</totfact>
</mgrwt>
</event>
<event>
 8    1  0.1241100E-024  0.8155581E+02  0.7818608E-02  0.1324693E+00
          1   -1    0    0  501    0  0.00000000000E+00  0.00000000000E+00  0.43168738829E+02  0.43168739123E+02  0.50400000000E-02 0. -1.
         -2   -1    0    0    0  501 -0.00000000000E+00 -0.00000000000E+00 -0.38519482292E+02  0.38519482377E+02  0.25500000000E-02 0.  1.
        -24    2    1    2    0    0  0.00000000000E+00  0.00000000000E+00  0.46492565367E+01  0.81688221500E+02  0.81555808779E+02 0.  0.
         66    2    3    3    0    0 -0.39410777729E+02  0.98636214279E+01  0.55455952758E+01  0.41051845972E+02  0.20000004698E+01 0.  0.
         13    1    3    3    0    0  0.39410777729E+02 -0.98636214279E+01 -0.89633873910E+00  0.40636375528E+02  0.10566000000E+00 0. -1.
         13    1    4    4    0    0 -0.20440439346E+02  0.49059501630E+01  0.37645188574E+01  0.21355623941E+02  0.10566000000E+00 0.  1.
        -13    1    4    4    0    0 -0.11412448011E+02  0.32554632897E+01  0.11168257646E+01  0.11920590366E+02  0.10566000000E+00 0. -1.
        -14    1    4    4    0    0 -0.75578903719E+01  0.17022079752E+01  0.66425065370E+00  0.77756316654E+01  0.00000000000E+00 0.  1.
<mgrwt>
<rscale>  0 0.81555809E+02</rscale>
<asrwt>0</asrwt>
<pdfrwt beam="1">  1        1 0.66413445E-02 0.81555809E+02</pdfrwt>
<pdfrwt beam="2">  1       -2 0.59260742E-02 0.81555809E+02</pdfrwt>
<totfact> 0.12177384E+05</totfact>
</mgrwt>
</event>
<event>
 8    1  0.1241100E-024  0.8289179E+02  0.7818608E-02  0.1321040E+00
          1   -1    0    0  501    0  0.00000000000E+00  0.00000000000E+00  0.10724386741E+03  0.10724386753E+03  0.50400000000E-02 0. -1.
         -2   -1    0    0    0  501 -0.00000000000E+00 -0.00000000000E+00 -0.16017345227E+02  0.16017345430E+02  0.25500000000E-02 0.  1.
        -24    2    1    2    0    0  0.00000000000E+00  0.27755575616E-16  0.91226522185E+02  0.12326121296E+03  0.82891786508E+02 0.  0.
         66    2    3    3    0    0 -0.19033945180E+02  0.13567367455E+00 -0.90663469634E+01  0.21178010412E+02  0.20000003236E+01 0.  0.
         13    1    3    3    0    0  0.19033945180E+02 -0.13567367455E+00  0.10029286915E+03  0.10208320255E+03  0.10566000000E+00 0. -1.
         13    1    4    4    0    0 -0.55030004515E+01  0.47139855497E+00 -0.22428339886E+01  0.59621052408E+01  0.10566000000E+00 0. -1.
        -13    1    4    4    0    0 -0.90685815710E+01 -0.71638006938E+00 -0.41425019150E+01  0.99961921882E+01  0.10566000000E+00 0.  1.
         14    1    4    4    0    0 -0.44623631575E+01  0.38065518896E+00 -0.26810110598E+01  0.52197129830E+01  0.00000000000E+00 0. -1.
<mgrwt>
<rscale>  0 0.82891787E+02</rscale>
<asrwt>0</asrwt>
<pdfrwt beam="1">  1        1 0.16499057E-01 0.82891787E+02</pdfrwt>
<pdfrwt beam="2">  1       -2 0.24642069E-02 0.82891787E+02</pdfrwt>
<totfact> 0.13513086E+05</totfact>
</mgrwt>
</event>
<event>
 8    1  0.1241100E-024  0.8067984E+02  0.7818608E-02  0.1327133E+00
         -2   -1    0    0    0  501 -0.00000000000E+00  0.00000000000E+00  0.22443694611E+02  0.22443694756E+02  0.25500000000E-02 0.  1.
          1   -1    0    0  501    0  0.00000000000E+00 -0.00000000000E+00 -0.72506294150E+02  0.72506294325E+02  0.50400000000E-02 0. -1.
        -24    2    1    2    0    0  0.35527136788E-14  0.00000000000E+00 -0.50062599539E+02  0.94949989081E+02  0.80679839824E+02 0.  0.
         66    2    3    3    0    0  0.21493147414E+02 -0.17966510157E+02  0.90736356668E+01  0.29514094105E+02  0.20000034067E+01 0.  0.
         13    1    3    3    0    0 -0.21493147414E+02  0.17966510157E+02 -0.59136235206E+02  0.65435894976E+02  0.10566000000E+00 0. -1.
         13    1    4    4    0    0  0.60470017379E+00 -0.72606784125E+00  0.62313714520E+00  0.11367940656E+01  0.10566000000E+00 0.  1.
        -13    1    4    4    0    0  0.81936215724E+01 -0.66091207082E+01  0.30493822189E+01  0.10960191922E+02  0.10566000000E+00 0. -1.
        -14    1    4    4    0    0  0.12694825668E+02 -0.10631321608E+02  0.54011163027E+01  0.17417108118E+02  0.00000000000E+00 0.  1.
<mgrwt>
<rscale>  0 0.80679840E+02</rscale>
<asrwt>0</asrwt>
<pdfrwt beam="1">  1        1 0.11154814E-01 0.80679840E+02</pdfrwt>
<pdfrwt beam="2">  1       -2 0.34528762E-02 0.80679840E+02</pdfrwt>
<totfact> 0.13629009E+05</totfact>
</mgrwt>
</event>
<event>
 8    1  0.1241100E-024  0.8145702E+02  0.7818608E-02  0.1324967E+00
          1   -1    0    0  501    0  0.00000000000E+00  0.00000000000E+00  0.21117774185E+02  0.21117774786E+02  0.50400000000E-02 0. -1.
         -2   -1    0    0    0  501 -0.00000000000E+00 -0.00000000000E+00 -0.78550490123E+02  0.78550490164E+02  0.25500000000E-02 0.  1.
        -24    2    1    2    0    0  0.35527136788E-14  0.00000000000E+00 -0.57432715938E+02  0.99668264950E+02  0.81457020435E+02 0.  0.
         66    2    3    3    0    0  0.27735716585E+02 -0.37750677680E+01 -0.64891795017E+02  0.70699831512E+02  0.20000010609E+01 0.  0.
         13    1    3    3    0    0 -0.27735716585E+02  0.37750677680E+01  0.74590790787E+01  0.28968433438E+02  0.10566000000E+00 0. -1.
         13    1    4    4    0    0  0.10691185401E+01 -0.10859842580E+00 -0.27092365822E+01  0.29164936079E+01  0.10566000000E+00 0.  1.
        -13    1    4    4    0    0  0.16469547879E+02 -0.27076870175E+01 -0.40447819583E+02  0.43756312109E+02  0.10566000000E+00 0.  1.
        -14    1    4    4    0    0  0.10197050166E+02 -0.95878232474E+00 -0.21734738851E+02  0.24027025795E+02  0.00000000000E+00 0.  1.
<mgrwt>
<rscale>  0 0.81457020E+02</rscale>
<asrwt>0</asrwt>
<pdfrwt beam="1">  1        1 0.32488884E-02 0.81457020E+02</pdfrwt>
<pdfrwt beam="2">  1       -2 0.12084691E-01 0.81457020E+02</pdfrwt>
<totfact> 0.10715722E+05</totfact>
</mgrwt>
</event>
<event>
 8    1  0.1241100E-024  0.7829622E+02  0.7818608E-02  0.1333957E+00
          1   -1    0    0  501    0  0.00000000000E+00  0.00000000000E+00  0.54427249701E+03  0.54427249703E+03  0.50400000000E-02 0. -1.
         -2   -1    0    0    0  501 -0.00000000000E+00 -0.00000000000E+00 -0.28158212894E+01  0.28158224441E+01  0.25500000000E-02 0.  1.
        -24    2    1    2    0    0 -0.35527136788E-14  0.00000000000E+00  0.54145667572E+03  0.54708831948E+03  0.78296217190E+02 0.  0.
         66    2    3    3    0    0 -0.27247870741E+02  0.16447943861E+02  0.42987217078E+03  0.43105343583E+03  0.20000022579E+01 0.  0.
         13    1    3    3    0    0  0.27247870741E+02 -0.16447943861E+02  0.11158450494E+03  0.11603488365E+03  0.10566000000E+00 0. -1.
         13    1    4    4    0    0 -0.56444656481E+01  0.28779120928E+01  0.91595588006E+02  0.91814515610E+02  0.10566000000E+00 0. -1.
        -13    1    4    4    0    0 -0.65725592162E+01  0.37373431839E+01  0.95654685525E+02  0.95953094247E+02  0.10566000000E+00 0.  1.
        -14    1    4    4    0    0 -0.15030845876E+02  0.98326885839E+01  0.24262189725E+03  0.24328582597E+03  0.00000000000E+00 0.  1.
<mgrwt>
<rscale>  0 0.78296217E+02</rscale>
<asrwt>0</asrwt>
<pdfrwt beam="1">  1        1 0.83734200E-01 0.78296217E+02</pdfrwt>
<pdfrwt beam="2">  1       -2 0.43320352E-03 0.78296217E+02</pdfrwt>
<totfact> 0.20931928E+05</totfact>
</mgrwt>
</event>
<event>
 8    1  0.1241100E-024  0.8515019E+02  0.7818608E-02  0.1315040E+00
          1   -1    0    0  501    0  0.00000000000E+00  0.00000000000E+00  0.12504746411E+03  0.12504746422E+03  0.50400000000E-02 0. -1.
         -2   -1    0    0    0  501 -0.00000000000E+00 -0.00000000000E+00 -0.14495604013E+02  0.14495604237E+02  0.25500000000E-02 0.  1.
        -24    2    1    2    0    0  0.35527136788E-14 -0.13877787808E-16  0.11055186010E+03  0.13954306845E+03  0.85150186033E+02 0.  0.
         66    2    3    3    0    0 -0.25389828482E+02  0.91256465335E-01 -0.65248076186E+00  0.25476998524E+02  0.20000011475E+01 0.  0.
         13    1    3    3    0    0  0.25389828482E+02 -0.91256465335E-01  0.11120434086E+03  0.11406606993E+03  0.10566000000E+00 0. -1.
         13    1    4    4    0    0 -0.13138531417E+01 -0.36892268023E+00 -0.68260796499E-02  0.13687675672E+01  0.10566000000E+00 0. -1.
        -13    1    4    4    0    0 -0.11274170549E+02  0.14553418694E+00 -0.77116463903E+00  0.11301944996E+02  0.10566000000E+00 0.  1.
         14    1    4    4    0    0 -0.12801804791E+02  0.31464495862E+00  0.12550995681E+00  0.12806285961E+02  0.00000000000E+00 0. -1.
<mgrwt>
<rscale>  0 0.85150186E+02</rscale>
<asrwt>0</asrwt>
<pdfrwt beam="1">  1        1 0.19238071E-01 0.85150186E+02</pdfrwt>
<pdfrwt beam="2">  1       -2 0.22300930E-02 0.85150186E+02</pdfrwt>
<totfact> 0.12912419E+05</totfact>
</mgrwt>
</event>
<event>
 8    1  0.1241100E-024  0.7793987E+02  0.7818608E-02  0.1335002E+00
          1   -1    0    0  501    0  0.00000000000E+00  0.00000000000E+00  0.10626963524E+03  0.10626963536E+03  0.50400000000E-02 0. -1.
         -2   -1    0    0    0  501 -0.00000000000E+00 -0.00000000000E+00 -0.14290590887E+02  0.14290591115E+02  0.25500000000E-02 0.  1.
        -24    2    1    2    0    0  0.00000000000E+00  0.22204460493E-15  0.91979044357E+02  0.12056022648E+03  0.77939871745E+02 0.  0.
         66    2    3    3    0    0 -0.25266777214E+02  0.18016114715E+01  0.26381147983E+00  0.25411128004E+02  0.19999988134E+01 0.  0.
         13    1    3    3    0    0  0.25266777214E+02 -0.18016114715E+01  0.91715232877E+02  0.95149098474E+02  0.10566000000E+00 0. -1.
         13    1    4    4    0    0 -0.73542368104E+00  0.12221672842E+00 -0.11324701120E+00  0.76142881512E+00  0.10566000000E+00 0. -1.
        -13    1    4    4    0    0 -0.17943338356E+02  0.19760047887E+01  0.27068686670E+00  0.18054152478E+02  0.10566000000E+00 0.  1.
        -14    1    4    4    0    0 -0.65880151770E+01 -0.29661004556E+00  0.10637162433E+00  0.65955467107E+01  0.00000000000E+00 0.  1.
<mgrwt>
<rscale>  0 0.77939872E+02</rscale>
<asrwt>0</asrwt>
<pdfrwt beam="1">  1        1 0.16349174E-01 0.77939872E+02</pdfrwt>
<pdfrwt beam="2">  1       -2 0.21985525E-02 0.77939872E+02</pdfrwt>
<totfact> 0.15932170E+05</totfact>
</mgrwt>
</event>
<event>
 8    1  0.1241100E-024  0.8151987E+02  0.7818608E-02  0.1324793E+00
         -2   -1    0    0    0  501 -0.00000000000E+00  0.00000000000E+00  0.47701796229E+01  0.47701803045E+01  0.25500000000E-02 0.  1.
          1   -1    0    0  501    0  0.00000000000E+00 -0.00000000000E+00 -0.34828289708E+03  0.34828289711E+03  0.50400000000E-02 0. -1.
        -24    2    1    2    0    0 -0.17763568394E-14  0.00000000000E+00 -0.34351271745E+03  0.35305307742E+03  0.81519865196E+02 0.  0.
         66    2    3    3    0    0  0.80115000379E+01  0.39043479053E+02 -0.20829805254E+03  0.21208643540E+03  0.20000000346E+01 0.  0.
         13    1    3    3    0    0 -0.80115000379E+01 -0.39043479053E+02 -0.13521466491E+03  0.14096664201E+03  0.10566000000E+00 0. -1.
         13    1    4    4    0    0  0.13256558913E+00  0.45508524491E+00 -0.27392518510E+01  0.27819671016E+01  0.10566000000E+00 0. -1.
        -13    1    4    4    0    0  0.42075567067E+01  0.22110764224E+02 -0.12151538002E+03  0.12358231335E+03  0.10566000000E+00 0.  1.
         14    1    4    4    0    0  0.36713777421E+01  0.16477629584E+02 -0.84043420670E+02  0.85722154949E+02  0.00000000000E+00 0. -1.
<mgrwt>
<rscale>  0 0.81519865E+02</rscale>
<asrwt>0</asrwt>
<pdfrwt beam="1">  1        1 0.53581964E-01 0.81519865E+02</pdfrwt>
<pdfrwt beam="2">  1       -2 0.73387411E-03 0.81519865E+02</pdfrwt>
<totfact> 0.17650219E+05</totfact>
</mgrwt>
</event>
<event>
 8    1  0.1241100E-024  0.7975092E+02  0.7818608E-02  0.1329760E+00
          1   -1    0    0  501    0  0.00000000000E+00  0.00000000000E+00  0.11796843659E+03  0.11796843670E+03  0.50400000000E-02 0. -1.
         -2   -1    0    0    0  501 -0.00000000000E+00 -0.00000000000E+00 -0.13478623809E+02  0.13478624050E+02  0.25500000000E-02 0.  1.
        -24    2    1    2    0    0  0.00000000000E+00  0.00000000000E+00  0.10448981279E+03  0.13144706075E+03  0.79750917263E+02 0.  0.
         66    2    3    3    0    0 -0.30994215458E+02  0.68007167365E+01  0.12543735599E+02  0.34179474095E+02  0.20000016617E+01 0.  0.
         13    1    3    3    0    0  0.30994215458E+02 -0.68007167365E+01  0.91946077186E+02  0.97267586657E+02  0.10566000000E+00 0. -1.
         13    1    4    4    0    0 -0.76207750278E+00  0.33491419917E+00  0.50065498880E+00  0.97711263141E+00  0.10566000000E+00 0. -1.
        -13    1    4    4    0    0 -0.25988004735E+02  0.57555938051E+01  0.99462491912E+01  0.28415528979E+02  0.10566000000E+00 0.  1.
        -14    1    4    4    0    0 -0.42441332201E+01  0.71020873217E+00  0.20968314192E+01  0.47868324844E+01  0.00000000000E+00 0.  1.
<mgrwt>
<rscale>  0 0.79750917E+02</rscale>
<asrwt>0</asrwt>
<pdfrwt beam="1">  1        1 0.18148990E-01 0.79750917E+02</pdfrwt>
<pdfrwt beam="2">  1       -2 0.20736345E-02 0.79750917E+02</pdfrwt>
<totfact> 0.15248496E+05</totfact>
</mgrwt>
</event>
<event>
 8    1  0.1241100E-024  0.8917463E+02  0.7818608E-02  0.1304863E+00
          1   -1    0    0  501    0  0.00000000000E+00  0.00000000000E+00  0.19814606330E+02  0.19814606971E+02  0.50400000000E-02 0. -1.
         -2   -1    0    0    0  501 -0.00000000000E+00 -0.00000000000E+00 -0.10033146956E+03  0.10033146959E+03  0.25500000000E-02 0.  1.
        -24    2    1    2    0    0  0.17763568394E-14  0.00000000000E+00 -0.80516863233E+02  0.12014607657E+03  0.89174628956E+02 0.  0.
         66    2    3    3    0    0  0.12796790421E+02  0.42252981376E+02 -0.48468605714E+02  0.65591752683E+02  0.19999999777E+01 0.  0.
         13    1    3    3    0    0 -0.12796790421E+02 -0.42252981376E+02 -0.32048257518E+02  0.54554323883E+02  0.10566000000E+00 0. -1.
         13    1    4    4    0    0  0.21692878316E+01  0.65753503849E+01 -0.67195081393E+01  0.96490411985E+01  0.10566000000E+00 0. -1.
        -13    1    4    4    0    0  0.44769796635E+01  0.16070581449E+02 -0.19168461557E+02  0.25411572512E+02  0.10566000000E+00 0.  1.
        -14    1    4    4    0    0  0.61505229262E+01  0.19607049542E+02 -0.22580636017E+02  0.30531138973E+02  0.00000000000E+00 0.  1.
<mgrwt>
<rscale>  0 0.89174629E+02</rscale>
<asrwt>0</asrwt>
<pdfrwt beam="1">  1        1 0.30484011E-02 0.89174629E+02</pdfrwt>
<pdfrwt beam="2">  1       -2 0.15435610E-01 0.89174629E+02</pdfrwt>
<totfact> 0.80269080E+04</totfact>
</mgrwt>
</event>
<event>
 8    1  0.1241100E-024  0.8055035E+02  0.7818608E-02  0.1327497E+00
          1   -1    0    0  501    0  0.00000000000E+00  0.00000000000E+00  0.37640441422E+02  0.37640441760E+02  0.50400000000E-02 0. -1.
         -2   -1    0    0    0  501 -0.00000000000E+00 -0.00000000000E+00 -0.43094331772E+02  0.43094331847E+02  0.25500000000E-02 0.  1.
        -24    2    1    2    0    0  0.00000000000E+00  0.00000000000E+00 -0.54538903493E+01  0.80734773607E+02  0.80550349158E+02 0.  0.
         66    2    3    3    0    0 -0.24165713890E+02 -0.32092454369E+02 -0.52197425954E+01  0.40560486501E+02  0.19999993060E+01 0.  0.
         13    1    3    3    0    0  0.24165713890E+02  0.32092454369E+02 -0.23414775386E+00  0.40174287106E+02  0.10566000000E+00 0. -1.
         13    1    4    4    0    0 -0.15735190558E+02 -0.20669250416E+02 -0.33905663818E+01  0.26197733472E+02  0.10566000000E+00 0. -1.
        -13    1    4    4    0    0 -0.50015141140E+01 -0.57984362496E+01 -0.97232410281E+00  0.77196881136E+01  0.10566000000E+00 0.  1.
         14    1    4    4    0    0 -0.34290092183E+01 -0.56247677029E+01 -0.85685211079E+00  0.66430649154E+01  0.00000000000E+00 0. -1.
<mgrwt>
<rscale>  0 0.80550349E+02</rscale>
<asrwt>0</asrwt>
<pdfrwt beam="1">  1        1 0.57908372E-02 0.80550349E+02</pdfrwt>
<pdfrwt beam="2">  1       -2 0.66298972E-02 0.80550349E+02</pdfrwt>
<totfact> 0.12330197E+05</totfact>
</mgrwt>
</event>
<event>
 8    1  0.1241100E-024  0.8011456E+02  0.7818608E-02  0.1328727E+00
          1   -1    0    0  501    0  0.00000000000E+00  0.00000000000E+00  0.16113859354E+01  0.16113938173E+01  0.50400000000E-02 0. -1.
         -2   -1    0    0    0  501 -0.00000000000E+00 -0.00000000000E+00 -0.99577737234E+03  0.99577737235E+03  0.25500000000E-02 0.  1.
        -24    2    1    2    0    0  0.00000000000E+00  0.35527136788E-14 -0.99416598641E+03  0.99738876617E+03  0.80114557600E+02 0.  0.
         66    2    3    3    0    0  0.21444180839E+02  0.21413205921E+02 -0.82303759017E+03  0.82359774959E+03  0.20000032287E+01 0.  0.
         13    1    3    3    0    0 -0.21444180839E+02 -0.21413205921E+02 -0.17112839624E+03  0.17379101658E+03  0.10566000000E+00 0. -1.
         13    1    4    4    0    0  0.14358718175E+02  0.14008570450E+02 -0.54270696321E+03  0.54307759291E+03  0.10566000000E+00 0. -1.
        -13    1    4    4    0    0  0.70763876180E+01  0.71692427669E+01 -0.27346962784E+03  0.27365511473E+03  0.10566000000E+00 0.  1.
         14    1    4    4    0    0  0.90750466045E-02  0.23539270431E+00 -0.68609991148E+01  0.68650419471E+01  0.00000000000E+00 0. -1.
<mgrwt>
<rscale>  0 0.80114558E+02</rscale>
<asrwt>0</asrwt>
<pdfrwt beam="1">  1        1 0.24790693E-03 0.80114558E+02</pdfrwt>
<pdfrwt beam="2">  1       -2 0.15319603E+00 0.80114558E+02</pdfrwt>
<totfact> 0.26110202E+04</totfact>
</mgrwt>
</event>
<event>
 8    1  0.1241100E-024  0.8001988E+02  0.7818608E-02  0.1328995E+00
         -2   -1    0    0    0  501 -0.00000000000E+00  0.00000000000E+00  0.50776120282E+02  0.50776120346E+02  0.25500000000E-02 0.  1.
          1   -1    0    0  501    0  0.00000000000E+00 -0.00000000000E+00 -0.31526539349E+02  0.31526539752E+02  0.50400000000E-02 0. -1.
        -24    2    1    2    0    0  0.00000000000E+00  0.00000000000E+00  0.19249580933E+02  0.82302660098E+02  0.80019881861E+02 0.  0.
         66    2    3    3    0    0 -0.50374316582E+01 -0.35426987457E+02 -0.87203851927E+01  0.36884851618E+02  0.20000007498E+01 0.  0.
         13    1    3    3    0    0  0.50374316582E+01  0.35426987457E+02  0.27969966126E+02  0.45417808480E+02  0.10566000000E+00 0. -1.
         13    1    4    4    0    0 -0.13105362160E+01 -0.11158019485E+02 -0.24596280259E+01  0.11501297234E+02  0.10566000000E+00 0.  1.
        -13    1    4    4    0    0 -0.13688875731E+01 -0.53765513883E+01 -0.10934358929E+01  0.56557867805E+01  0.10566000000E+00 0. -1.
        -14    1    4    4    0    0 -0.23580078691E+01 -0.18892416583E+02 -0.51673212739E+01  0.19727767604E+02  0.00000000000E+00 0.  1.
<mgrwt>
<rscale>  0 0.80019882E+02</rscale>
<asrwt>0</asrwt>
<pdfrwt beam="1">  1        1 0.48502369E-02 0.80019882E+02</pdfrwt>
<pdfrwt beam="2">  1       -2 0.78117107E-02 0.80019882E+02</pdfrwt>
<totfact> 0.12191920E+05</totfact>
</mgrwt>
</event>
<event>
 8    1  0.1241100E-024  0.8193414E+02  0.7818608E-02  0.1323651E+00
          1   -1    0    0  501    0  0.00000000000E+00  0.00000000000E+00  0.15265141686E+02  0.15265142518E+02  0.50400000000E-02 0. -1.
         -2   -1    0    0    0  501 -0.00000000000E+00 -0.00000000000E+00 -0.10994334303E+03  0.10994334306E+03  0.25500000000E-02 0.  1.
        -24    2    1    2    0    0  0.35527136788E-14  0.00000000000E+00 -0.94678201340E+02  0.12520848557E+03  0.81934138495E+02 0.  0.
         66    2    3    3    0    0 -0.18059180512E+02 -0.32013817681E+02 -0.74928275744E+02  0.83482124023E+02  0.20000005377E+01 0.  0.
         13    1    3    3    0    0  0.18059180512E+02  0.32013817681E+02 -0.19749925596E+02  0.41726361552E+02  0.10566000000E+00 0. -1.
         13    1    4    4    0    0 -0.94817916178E+00 -0.16634358000E+01 -0.31959717808E+01  0.37271251713E+01  0.10566000000E+00 0. -1.
        -13    1    4    4    0    0 -0.68821166113E+01 -0.11491762084E+02 -0.28606467230E+02  0.31587422438E+02  0.10566000000E+00 0.  1.
         14    1    4    4    0    0 -0.10228884739E+02 -0.18858619797E+02 -0.43125836733E+02  0.48167576413E+02  0.00000000000E+00 0. -1.
<mgrwt>
<rscale>  0 0.81934138E+02</rscale>
<asrwt>0</asrwt>
<pdfrwt beam="1">  1        1 0.23484835E-02 0.81934138E+02</pdfrwt>
<pdfrwt beam="2">  1       -2 0.16914360E-01 0.81934138E+02</pdfrwt>
<totfact> 0.97426317E+04</totfact>
</mgrwt>
</event>
<event>
 8    1  0.1241100E-024  0.7956413E+02  0.7818608E-02  0.1330293E+00
         -2   -1    0    0    0  501 -0.00000000000E+00  0.00000000000E+00  0.40544323689E+02  0.40544323769E+02  0.25500000000E-02 0.  1.
          1   -1    0    0  501    0  0.00000000000E+00 -0.00000000000E+00 -0.39034141038E+02  0.39034141363E+02  0.50400000000E-02 0. -1.
        -24    2    1    2    0    0 -0.71054273576E-14  0.17763568394E-14  0.15101826512E+01  0.79578465133E+02  0.79564134264E+02 0.  0.
         66    2    3    3    0    0 -0.38723987982E+02 -0.89992487699E+01  0.10279923885E+01  0.39819473758E+02  0.19999995760E+01 0.  0.
         13    1    3    3    0    0  0.38723987982E+02  0.89992487699E+01  0.48219026267E+00  0.39758991375E+02  0.10566000000E+00 0. -1.
         13    1    4    4    0    0 -0.99890225291E+01 -0.15987340835E+01  0.62710436064E-02  0.10116705250E+02  0.10566000000E+00 0. -1.
        -13    1    4    4    0    0 -0.12940170438E+01 -0.19716697520E+00  0.10306398419E+00  0.13172475645E+01  0.10566000000E+00 0. -1.
        -14    1    4    4    0    0 -0.27440948410E+02 -0.72033477112E+01  0.91865736071E+00  0.28385520943E+02  0.00000000000E+00 0.  1.
<mgrwt>
<rscale>  0 0.79564134E+02</rscale>
<asrwt>0</asrwt>
<pdfrwt beam="1">  1        1 0.60052525E-02 0.79564134E+02</pdfrwt>
<pdfrwt beam="2">  1       -2 0.62375883E-02 0.79564134E+02</pdfrwt>
<totfact> 0.12843472E+05</totfact>
</mgrwt>
</event>
<event>
 8    1  0.2231104E-024  0.7403243E+02  0.7818608E-02  0.1346894E+00
         -2   -1    0    0    0  501 -0.00000000000E+00  0.00000000000E+00  0.63611309311E+02  0.63611309362E+02  0.25500000000E-02 0.  1.
          1   -1    0    0  501    0  0.00000000000E+00 -0.00000000000E+00 -0.21540196340E+02  0.21540196930E+02  0.50400000000E-02 0. -1.
        -24    2    1    2    0    0  0.00000000000E+00 -0.17763568394E-14  0.42071112971E+02  0.85151506292E+02  0.74032428552E+02 0.  0.
         66    2    3    3    0    0 -0.41361643641E+01  0.13745041440E+02  0.60261469854E+02  0.61979664168E+02  0.20000004184E+01 0.  0.
         13    1    3    3    0    0  0.41361643641E+01 -0.13745041440E+02 -0.18190356883E+02  0.23171842124E+02  0.10566000000E+00 0. -1.
         13    1    4    4    0    0 -0.62885138863E+00  0.25633279578E+01  0.93358627454E+01  0.97023503093E+01  0.10566000000E+00 0. -1.
        -13    1    4    4    0    0 -0.24379452068E+01  0.79611740527E+01  0.33077172724E+02  0.34109154029E+02  0.10566000000E+00 0.  1.
         14    1    4    4    0    0 -0.10693677687E+01  0.32205394297E+01  0.17848434384E+02  0.18168159830E+02  0.00000000000E+00 0. -1.
<mgrwt>
<rscale>  0 0.74032429E+02</rscale>
<asrwt>0</asrwt>
<pdfrwt beam="1">  1        1 0.33138765E-02 0.74032429E+02</pdfrwt>
<pdfrwt beam="2">  1       -2 0.97863552E-02 0.74032429E+02</pdfrwt>
<totfact> 0.14246055E+05</totfact>
</mgrwt>
</event>
<event>
 8    1  0.1241100E-024  0.8196089E+02  0.7818608E-02  0.1323577E+00
         -2   -1    0    0    0  501 -0.00000000000E+00  0.00000000000E+00  0.69830861345E+02  0.69830861391E+02  0.25500000000E-02 0.  1.
          1   -1    0    0  501    0  0.00000000000E+00 -0.00000000000E+00 -0.24049495740E+02  0.24049496268E+02  0.50400000000E-02 0. -1.
        -24    2    1    2    0    0  0.00000000000E+00  0.17763568394E-14  0.45781365605E+02  0.93880357659E+02  0.81960893831E+02 0.  0.
         66    2    3    3    0    0 -0.25667708540E+02  0.12053506854E+02  0.56753073176E+02  0.63474637470E+02  0.19999994587E+01 0.  0.
         13    1    3    3    0    0  0.25667708540E+02 -0.12053506854E+02 -0.10971707571E+02  0.30405720189E+02  0.10566000000E+00 0. -1.
         13    1    4    4    0    0 -0.17649971986E+01  0.11422452449E+01  0.33447770043E+01  0.39520420740E+01  0.10566000000E+00 0. -1.
        -13    1    4    4    0    0 -0.21704013169E+02  0.98610848143E+01  0.48620422983E+02  0.54150363585E+02  0.10566000000E+00 0.  1.
        -14    1    4    4    0    0 -0.21986981728E+01  0.10501767944E+01  0.47878731890E+01  0.53722318108E+01  0.00000000000E+00 0.  1.
<mgrwt>
<rscale>  0 0.81960894E+02</rscale>
<asrwt>0</asrwt>
<pdfrwt beam="1">  1        1 0.36999225E-02 0.81960894E+02</pdfrwt>
<pdfrwt beam="2">  1       -2 0.10743209E-01 0.81960894E+02</pdfrwt>
<totfact> 0.10810720E+05</totfact>
</mgrwt>
</event>
<event>
 8    1  0.1241100E-024  0.8724386E+02  0.7818608E-02  0.1309667E+00
          1   -1    0    0  501    0  0.00000000000E+00  0.00000000000E+00  0.48520180763E+02  0.48520181024E+02  0.50400000000E-02 0. -1.
         -2   -1    0    0    0  501 -0.00000000000E+00 -0.00000000000E+00 -0.39218174589E+02  0.39218174672E+02  0.25500000000E-02 0.  1.
        -24    2    1    2    0    0  0.00000000000E+00  0.35527136788E-14  0.93020061740E+01  0.87738355696E+02  0.87243863631E+02 0.  0.
         66    2    3    3    0    0 -0.60564535799E+00  0.17654752834E+02 -0.35432371836E+02  0.39642276398E+02  0.20000000425E+01 0.  0.
         13    1    3    3    0    0  0.60564535799E+00 -0.17654752834E+02  0.44734378010E+02  0.48096079298E+02  0.10566000000E+00 0. -1.
         13    1    4    4    0    0 -0.47151361289E+00  0.24480898909E+01 -0.42419440133E+01  0.49214552979E+01  0.10566000000E+00 0. -1.
        -13    1    4    4    0    0 -0.51080591856E-01  0.12753355404E+02 -0.25102998297E+02  0.28157101606E+02  0.10566000000E+00 0.  1.
         14    1    4    4    0    0 -0.83051153251E-01  0.24533075387E+01 -0.60874295252E+01  0.65637194941E+01  0.00000000000E+00 0. -1.
<mgrwt>
<rscale>  0 0.87243864E+02</rscale>
<asrwt>0</asrwt>
<pdfrwt beam="1">  1        1 0.74646432E-02 0.87243864E+02</pdfrwt>
<pdfrwt beam="2">  1       -2 0.60335654E-02 0.87243864E+02</pdfrwt>
<totfact> 0.10266336E+05</totfact>
</mgrwt>
</event>
<event>
 8    1  0.1241100E-024  0.8262295E+02  0.7818608E-02  0.1321768E+00
          1   -1    0    0  501    0  0.00000000000E+00  0.00000000000E+00  0.47128123137E+02  0.47128123407E+02  0.50400000000E-02 0. -1.
         -2   -1    0    0    0  501 -0.00000000000E+00 -0.00000000000E+00 -0.36212732898E+02  0.36212732988E+02  0.25500000000E-02 0.  1.
        -24    2    1    2    0    0 -0.35527136788E-14 -0.35527136788E-14  0.10915390239E+02  0.83340856395E+02  0.82622954441E+02 0.  0.
         66    2    3    3    0    0  0.24142457672E+02  0.27143279288E+02 -0.14331465208E+02  0.39102516158E+02  0.20000004849E+01 0.  0.
         13    1    3    3    0    0 -0.24142457672E+02 -0.27143279288E+02  0.25246855447E+02  0.44238340237E+02  0.10566000000E+00 0. -1.
         13    1    4    4    0    0  0.26613662888E+01  0.25608294480E+01 -0.14264265415E+01  0.39606280688E+01  0.10566000000E+00 0. -1.
        -13    1    4    4    0    0  0.18326110214E+02  0.20247581339E+02 -0.10383582741E+02  0.29217132307E+02  0.10566000000E+00 0.  1.
         14    1    4    4    0    0  0.31549811684E+01  0.43348685013E+01 -0.25214559257E+01  0.59247557825E+01  0.00000000000E+00 0. -1.
<mgrwt>
<rscale>  0 0.82622954E+02</rscale>
<asrwt>0</asrwt>
<pdfrwt beam="1">  1        1 0.72504805E-02 0.82622954E+02</pdfrwt>
<pdfrwt beam="2">  1       -2 0.55711897E-02 0.82622954E+02</pdfrwt>
<totfact> 0.11909757E+05</totfact>
</mgrwt>
</event>
<event>
 8    1  0.1241100E-024  0.7965037E+02  0.7818608E-02  0.1330047E+00
         -2   -1    0    0    0  501 -0.00000000000E+00  0.00000000000E+00  0.25260743430E+02  0.25260743558E+02  0.25500000000E-02 0.  1.
          1   -1    0    0  501    0  0.00000000000E+00 -0.00000000000E+00 -0.62786964083E+02  0.62786964285E+02  0.50400000000E-02 0. -1.
        -24    2    1    2    0    0 -0.17763568394E-14  0.00000000000E+00 -0.37526220653E+02  0.88047707844E+02  0.79650371123E+02 0.  0.
         66    2    3    3    0    0  0.14936236864E+02  0.34308324000E+02 -0.37847167367E+01  0.37662665242E+02  0.20000012450E+01 0.  0.
         13    1    3    3    0    0 -0.14936236864E+02 -0.34308324000E+02 -0.33741503917E+02  0.50385042602E+02  0.10566000000E+00 0. -1.
         13    1    4    4    0    0  0.50995791682E+01  0.10000581907E+02 -0.15163541804E+01  0.11328187860E+02  0.10566000000E+00 0. -1.
        -13    1    4    4    0    0  0.28510293109E+01  0.61067375247E+01 -0.67062851593E+00  0.67735897402E+01  0.10566000000E+00 0.  1.
         14    1    4    4    0    0  0.69856283850E+01  0.18201004569E+02 -0.15977340404E+01  0.19560887641E+02  0.00000000000E+00 0. -1.
<mgrwt>
<rscale>  0 0.79650371E+02</rscale>
<asrwt>0</asrwt>
<pdfrwt beam="1">  1        1 0.96595329E-02 0.79650371E+02</pdfrwt>
<pdfrwt beam="2">  1       -2 0.38862683E-02 0.79650371E+02</pdfrwt>
<totfact> 0.13800329E+05</totfact>
</mgrwt>
</event>
<event>
 8    1  0.1241100E-024  0.8272027E+02  0.7818608E-02  0.1321504E+00
         -2   -1    0    0    0  501 -0.00000000000E+00  0.00000000000E+00  0.11984584329E+02  0.11984584601E+02  0.25500000000E-02 0.  1.
          1   -1    0    0  501    0  0.00000000000E+00 -0.00000000000E+00 -0.14273843017E+03  0.14273843026E+03  0.50400000000E-02 0. -1.
        -24    2    1    2    0    0  0.00000000000E+00  0.00000000000E+00 -0.13075384585E+03  0.15472301486E+03  0.82720270342E+02 0.  0.
         66    2    3    3    0    0 -0.11530668583E+02  0.39461322322E+02 -0.73460846803E+02  0.84205987270E+02  0.20000004533E+01 0.  0.
         13    1    3    3    0    0  0.11530668583E+02 -0.39461322322E+02 -0.57292999043E+02  0.70517027594E+02  0.10566000000E+00 0. -1.
         13    1    4    4    0    0 -0.28320748778E+01  0.99001000406E+01 -0.19764453777E+02  0.22286260926E+02  0.10566000000E+00 0. -1.
        -13    1    4    4    0    0 -0.29171097882E+00  0.18507155175E+01 -0.32695066984E+01  0.37697587865E+01  0.10566000000E+00 0.  1.
         14    1    4    4    0    0 -0.84068827263E+01  0.27710506764E+02 -0.50426886327E+02  0.58149967558E+02  0.00000000000E+00 0. -1.
<mgrwt>
<rscale>  0 0.82720270E+02</rscale>
<asrwt>0</asrwt>
<pdfrwt beam="1">  1        1 0.21959757E-01 0.82720270E+02</pdfrwt>
<pdfrwt beam="2">  1       -2 0.18437823E-02 0.82720270E+02</pdfrwt>
<totfact> 0.14303897E+05</totfact>
</mgrwt>
</event>
<event>
 8    1  0.1241100E-024  0.7998333E+02  0.7818608E-02  0.1329099E+00
          1   -1    0    0  501    0  0.00000000000E+00  0.00000000000E+00  0.17578614724E+02  0.17578615447E+02  0.50400000000E-02 0. -1.
         -2   -1    0    0    0  501 -0.00000000000E+00 -0.00000000000E+00 -0.90981762638E+02  0.90981762674E+02  0.25500000000E-02 0.  1.
        -24    2    1    2    0    0 -0.35527136788E-14  0.00000000000E+00 -0.73403147914E+02  0.10856037812E+03  0.79983333102E+02 0.  0.
         66    2    3    3    0    0  0.29483200371E+02  0.41508809171E+01 -0.72911878756E+02  0.78782174247E+02  0.19999997072E+01 0.  0.
         13    1    3    3    0    0 -0.29483200371E+02 -0.41508809171E+01 -0.49126915816E+00  0.29778203874E+02  0.10566000000E+00 0. -1.
         13    1    4    4    0    0  0.63139289698E+01  0.15808629239E+01 -0.16677346887E+02  0.17902790001E+02  0.10566000000E+00 0. -1.
        -13    1    4    4    0    0  0.91922025083E+01  0.11795776068E+01 -0.21528622335E+02  0.23438872284E+02  0.10566000000E+00 0.  1.
        -14    1    4    4    0    0  0.13977068893E+02  0.13904403863E+01 -0.34705909534E+02  0.37440511961E+02  0.00000000000E+00 0.  1.
<mgrwt>
<rscale>  0 0.79983333E+02</rscale>
<asrwt>0</asrwt>
<pdfrwt beam="1">  1        1 0.27044024E-02 0.79983333E+02</pdfrwt>
<pdfrwt beam="2">  1       -2 0.13997194E-01 0.79983333E+02</pdfrwt>
<totfact> 0.10863118E+05</totfact>
</mgrwt>
</event>
<event>
 8    1  0.1241100E-024  0.7691021E+02  0.7818608E-02  0.1338056E+00
          1   -1    0    0  501    0  0.00000000000E+00  0.00000000000E+00  0.19268831956E+03  0.19268831963E+03  0.50400000000E-02 0. -1.
         -2   -1    0    0    0  501 -0.00000000000E+00 -0.00000000000E+00 -0.76745446927E+01  0.76745451164E+01  0.25500000000E-02 0.  1.
        -24    2    1    2    0    0  0.00000000000E+00  0.35527136788E-14  0.18501377487E+03  0.20036286474E+03  0.76910211787E+02 0.  0.
         66    2    3    3    0    0 -0.28308274933E+02 -0.25803771882E+02  0.10063985538E+03  0.10770131647E+03  0.20000018040E+01 0.  0.
         13    1    3    3    0    0  0.28308274933E+02  0.25803771882E+02  0.84373919492E+02  0.92661548269E+02  0.10566000000E+00 0. -1.
         13    1    4    4    0    0 -0.16601788576E+01 -0.11962244047E+01  0.63262744457E+01  0.66498164684E+01  0.10566000000E+00 0. -1.
        -13    1    4    4    0    0 -0.19690983421E+02 -0.18035073685E+02  0.68447154526E+02  0.73471238166E+02  0.10566000000E+00 0.  1.
        -14    1    4    4    0    0 -0.69571126547E+01 -0.65724737925E+01  0.25866426404E+02  0.27580261840E+02  0.00000000000E+00 0.  1.
<mgrwt>
<rscale>  0 0.76910212E+02</rscale>
<asrwt>0</asrwt>
<pdfrwt beam="1">  1        1 0.29644356E-01 0.76910212E+02</pdfrwt>
<pdfrwt beam="2">  1       -2 0.11806992E-02 0.76910212E+02</pdfrwt>
<totfact> 0.18376176E+05</totfact>
</mgrwt>
</event>
<event>
 8    1  0.1241100E-024  0.7407809E+02  0.7818608E-02  0.1346750E+00
          1   -1    0    0  501    0  0.00000000000E+00  0.00000000000E+00  0.19594046688E+03  0.19594046694E+03  0.50400000000E-02 0. -1.
         -2   -1    0    0    0  501 -0.00000000000E+00 -0.00000000000E+00 -0.70015704117E+01  0.70015708761E+01  0.25500000000E-02 0.  1.
        -24    2    1    2    0    0  0.00000000000E+00  0.00000000000E+00  0.18893889647E+03  0.20294203782E+03  0.74078094712E+02 0.  0.
         66    2    3    3    0    0  0.43411746478E+01  0.34267169948E+02  0.58110974386E+02  0.67631132518E+02  0.20000019924E+01 0.  0.
         13    1    3    3    0    0 -0.43411746478E+01 -0.34267169948E+02  0.13082792208E+03  0.13531090530E+03  0.10566000000E+00 0. -1.
         13    1    4    4    0    0  0.14822724332E+00  0.44828452642E+00  0.90435147152E+00  0.10256441644E+01  0.10566000000E+00 0. -1.
        -13    1    4    4    0    0  0.20078607847E+01  0.10427988085E+02  0.17903258530E+02  0.20816154075E+02  0.10566000000E+00 0.  1.
        -14    1    4    4    0    0  0.21850866199E+01  0.23390897336E+02  0.39303364385E+02  0.45789334279E+02  0.00000000000E+00 0.  1.
<mgrwt>
<rscale>  0 0.74078095E+02</rscale>
<asrwt>0</asrwt>
<pdfrwt beam="1">  1        1 0.30144682E-01 0.74078095E+02</pdfrwt>
<pdfrwt beam="2">  1       -2 0.10771649E-02 0.74078095E+02</pdfrwt>
<totfact> 0.20352256E+05</totfact>
</mgrwt>
</event>
<event>
 8    1  0.1241100E-024  0.8046756E+02  0.7818608E-02  0.1327730E+00
          1   -1    0    0  501    0  0.00000000000E+00  0.00000000000E+00  0.32311631942E+03  0.32311631946E+03  0.50400000000E-02 0. -1.
         -2   -1    0    0    0  501 -0.00000000000E+00 -0.00000000000E+00 -0.50098278377E+01  0.50098284866E+01  0.25500000000E-02 0.  1.
        -24    2    1    2    0    0  0.00000000000E+00  0.00000000000E+00  0.31810649158E+03  0.32812614794E+03  0.80467564764E+02 0.  0.
         66    2    3    3    0    0  0.38741586424E+02  0.10685778345E+02  0.16439854900E+03  0.16925123125E+03  0.19999973759E+01 0.  0.
         13    1    3    3    0    0 -0.38741586424E+02 -0.10685778345E+02  0.15370794258E+03  0.15887491669E+03  0.10566000000E+00 0. -1.
         13    1    4    4    0    0  0.13787413010E+02  0.32061400738E+01  0.55641318526E+02  0.57413757785E+02  0.10566000000E+00 0. -1.
        -13    1    4    4    0    0  0.12001179605E+02  0.39747705389E+01  0.53900138815E+02  0.55363013295E+02  0.10566000000E+00 0.  1.
        -14    1    4    4    0    0  0.12952993809E+02  0.35048677327E+01  0.54857091661E+02  0.56474460174E+02  0.00000000000E+00 0.  1.
<mgrwt>
<rscale>  0 0.80467565E+02</rscale>
<asrwt>0</asrwt>
<pdfrwt beam="1">  1        1 0.49710205E-01 0.80467565E+02</pdfrwt>
<pdfrwt beam="2">  1       -2 0.77074277E-03 0.80467565E+02</pdfrwt>
<totfact> 0.18016473E+05</totfact>
</mgrwt>
</event>
<event>
 8    1  0.1241100E-024  0.7907209E+02  0.7818608E-02  0.1331706E+00
         -2   -1    0    0    0  501 -0.00000000000E+00  0.00000000000E+00  0.37369641485E+02  0.37369641572E+02  0.25500000000E-02 0.  1.
          1   -1    0    0  501    0  0.00000000000E+00 -0.00000000000E+00 -0.41828041706E+02  0.41828042010E+02  0.50400000000E-02 0. -1.
        -24    2    1    2    0    0  0.00000000000E+00  0.00000000000E+00 -0.44584002214E+01  0.79197683581E+02  0.79072092119E+02 0.  0.
         66    2    3    3    0    0 -0.25880728841E+02 -0.28554563480E+02 -0.10957599363E+02  0.40115386125E+02  0.19999998207E+01 0.  0.
         13    1    3    3    0    0  0.25880728841E+02  0.28554563480E+02  0.64991991417E+01  0.39082297456E+02  0.10566000000E+00 0. -1.
         13    1    4    4    0    0 -0.13197452950E+01 -0.11137618207E+01 -0.54035502869E+00  0.18125508626E+01  0.10566000000E+00 0. -1.
        -13    1    4    4    0    0 -0.61002465251E+00 -0.93604435485E+00 -0.49962592051E+00  0.12284539906E+01  0.10566000000E+00 0.  1.
        -14    1    4    4    0    0 -0.23950958894E+02 -0.26504757305E+02 -0.99176184139E+01  0.37074381272E+02  0.00000000000E+00 0.  1.
<mgrwt>
<rscale>  0 0.79072092E+02</rscale>
<asrwt>0</asrwt>
<pdfrwt beam="1">  1        1 0.64350835E-02 0.79072092E+02</pdfrwt>
<pdfrwt beam="2">  1       -2 0.57491756E-02 0.79072092E+02</pdfrwt>
<totfact> 0.13215251E+05</totfact>
</mgrwt>
</event>
<event>
 8    1  0.1241100E-024  0.7889480E+02  0.7818608E-02  0.1332217E+00
          1   -1    0    0  501    0  0.00000000000E+00  0.00000000000E+00  0.14964468384E+02  0.14964469232E+02  0.50400000000E-02 0. -1.
         -2   -1    0    0    0  501 -0.00000000000E+00 -0.00000000000E+00 -0.10398612903E+03  0.10398612906E+03  0.25500000000E-02 0.  1.
        -24    2    1    2    0    0  0.71054273576E-14  0.00000000000E+00 -0.89021660649E+02  0.11895059830E+03  0.78894795585E+02 0.  0.
         66    2    3    3    0    0 -0.29982377132E+02 -0.17890861063E+02 -0.72137742826E+02  0.80167822569E+02  0.19999968383E+01 0.  0.
         13    1    3    3    0    0  0.29982377132E+02  0.17890861063E+02 -0.16883917823E+02  0.38782775727E+02  0.10566000000E+00 0. -1.
         13    1    4    4    0    0 -0.85787201141E+01 -0.51473049000E+01 -0.19105303952E+02  0.21566478379E+02  0.10566000000E+00 0. -1.
        -13    1    4    4    0    0 -0.13563115889E+02 -0.76721193730E+01 -0.32249427826E+02  0.35816983227E+02  0.10566000000E+00 0.  1.
         14    1    4    4    0    0 -0.78405411283E+01 -0.50714367902E+01 -0.20783011047E+02  0.22784360963E+02  0.00000000000E+00 0. -1.
<mgrwt>
<rscale>  0 0.78894796E+02</rscale>
<asrwt>0</asrwt>
<pdfrwt beam="1">  1        1 0.23022260E-02 0.78894796E+02</pdfrwt>
<pdfrwt beam="2">  1       -2 0.15997866E-01 0.78894796E+02</pdfrwt>
<totfact> 0.10890056E+05</totfact>
</mgrwt>
</event>
<event>
 8    1  0.1241100E-024  0.8090065E+02  0.7818608E-02  0.1326515E+00
          1   -1    0    0  501    0  0.00000000000E+00  0.00000000000E+00  0.59869432191E+02  0.59869432403E+02  0.50400000000E-02 0. -1.
         -2   -1    0    0    0  501 -0.00000000000E+00 -0.00000000000E+00 -0.27329953832E+02  0.27329953951E+02  0.25500000000E-02 0.  1.
        -24    2    1    2    0    0 -0.35527136788E-14 -0.17763568394E-14  0.32539478359E+02  0.87199386354E+02  0.80900650978E+02 0.  0.
         66    2    3    3    0    0 -0.25759933369E+02 -0.12638062369E+02 -0.14414300229E+02  0.32172454081E+02  0.19999907182E+01 0.  0.
         13    1    3    3    0    0  0.25759933369E+02  0.12638062369E+02  0.46953778588E+02  0.55026932273E+02  0.10566000000E+00 0. -1.
         13    1    4    4    0    0 -0.34977219349E+01 -0.14553057543E+01 -0.15802645652E+01  0.41061385393E+01  0.10566000000E+00 0. -1.
        -13    1    4    4    0    0 -0.13587363453E+02 -0.75785485712E+01 -0.83444936859E+01  0.17654817556E+02  0.10566000000E+00 0.  1.
        -14    1    4    4    0    0 -0.86748479818E+01 -0.36042080435E+01 -0.44895419779E+01  0.10411497985E+02  0.00000000000E+00 0.  1.
<mgrwt>
<rscale>  0 0.80900651E+02</rscale>
<asrwt>0</asrwt>
<pdfrwt beam="1">  1        1 0.92106817E-02 0.80900651E+02</pdfrwt>
<pdfrwt beam="2">  1       -2 0.42046084E-02 0.80900651E+02</pdfrwt>
<totfact> 0.13122190E+05</totfact>
</mgrwt>
</event>
<event>
 8    1  0.1252473E-024  0.7195839E+02  0.7818608E-02  0.1353557E+00
         -2   -1    0    0    0  501 -0.00000000000E+00  0.00000000000E+00  0.76740369209E+02  0.76740369251E+02  0.25500000000E-02 0.  1.
          1   -1    0    0  501    0  0.00000000000E+00 -0.00000000000E+00 -0.16868595833E+02  0.16868596586E+02  0.50400000000E-02 0. -1.
        -24    2    1    2    0    0 -0.22204460493E-15 -0.35527136788E-14  0.59871773375E+02  0.93608965837E+02  0.71958385460E+02 0.  0.
         66    2    3    3    0    0 -0.18858312265E+01  0.25526673771E+02  0.62800088719E+02  0.67845549371E+02  0.19999982804E+01 0.  0.
         13    1    3    3    0    0  0.18858312265E+01 -0.25526673771E+02 -0.29283153433E+01  0.25763416467E+02  0.10566000000E+00 0. -1.
         13    1    4    4    0    0 -0.46058082478E+00  0.93510371842E+01  0.22459905276E+02  0.24333362697E+02  0.10566000000E+00 0. -1.
        -13    1    4    4    0    0 -0.13714605361E+01  0.16158469252E+02  0.39919879694E+02  0.43088107308E+02  0.10566000000E+00 0.  1.
         14    1    4    4    0    0 -0.53789865639E-01  0.17167334890E-01  0.42030374899E+00  0.42407936575E+00  0.00000000000E+00 0. -1.
<mgrwt>
<rscale>  0 0.71958385E+02</rscale>
<asrwt>0</asrwt>
<pdfrwt beam="1">  1        1 0.25951687E-02 0.71958385E+02</pdfrwt>
<pdfrwt beam="2">  1       -2 0.11806210E-01 0.71958385E+02</pdfrwt>
<totfact> 0.14755428E+05</totfact>
</mgrwt>
</event>
<event>
 8    1  0.1241100E-024  0.7907175E+02  0.7818608E-02  0.1331707E+00
          1   -1    0    0  501    0  0.00000000000E+00  0.00000000000E+00  0.29947986084E+03  0.29947986089E+03  0.50400000000E-02 0. -1.
         -2   -1    0    0    0  501 -0.00000000000E+00 -0.00000000000E+00 -0.52193334267E+01  0.52193340496E+01  0.25500000000E-02 0.  1.
        -24    2    1    2    0    0  0.00000000000E+00  0.44408920985E-15  0.29426052742E+03  0.30469919493E+03  0.79071748423E+02 0.  0.
         66    2    3    3    0    0 -0.39334476325E+02  0.24713900345E+01  0.15796663051E+03  0.16282126749E+03  0.19999994568E+01 0.  0.
         13    1    3    3    0    0  0.39334476325E+02 -0.24713900345E+01  0.13629389691E+03  0.14187792744E+03  0.10566000000E+00 0. -1.
         13    1    4    4    0    0 -0.34898520765E+02  0.26760212259E+01  0.14050006998E+03  0.14479415965E+03  0.10566000000E+00 0. -1.
        -13    1    4    4    0    0 -0.23506717383E+01 -0.18357432748E-01  0.99465106583E+01  0.10221068091E+02  0.10566000000E+00 0.  1.
         14    1    4    4    0    0 -0.20852838218E+01 -0.18627375861E+00  0.75200498663E+01  0.78060397464E+01  0.00000000000E+00 0. -1.
<mgrwt>
<rscale>  0 0.79071748E+02</rscale>
<asrwt>0</asrwt>
<pdfrwt beam="1">  1        1 0.46073816E-01 0.79071748E+02</pdfrwt>
<pdfrwt beam="2">  1       -2 0.80297457E-03 0.79071748E+02</pdfrwt>
<totfact> 0.18598876E+05</totfact>
</mgrwt>
</event>
<event>
 8    1  0.1241100E-024  0.7869242E+02  0.7818608E-02  0.1332804E+00
         -2   -1    0    0    0  501 -0.00000000000E+00  0.00000000000E+00  0.34471844749E+02  0.34471844844E+02  0.25500000000E-02 0.  1.
          1   -1    0    0  501    0  0.00000000000E+00 -0.00000000000E+00 -0.44909819930E+02  0.44909820213E+02  0.50400000000E-02 0. -1.
        -24    2    1    2    0    0  0.00000000000E+00  0.00000000000E+00 -0.10437975181E+02  0.79381665057E+02  0.78692422896E+02 0.  0.
         66    2    3    3    0    0 -0.33642757660E+02 -0.18645325568E+02 -0.13456941777E+02  0.40799173797E+02  0.19999980100E+01 0.  0.
         13    1    3    3    0    0  0.33642757660E+02  0.18645325568E+02  0.30189665957E+01  0.38582491260E+02  0.10566000000E+00 0. -1.
         13    1    4    4    0    0 -0.24529216107E+02 -0.14139847238E+02 -0.99803039616E+01  0.30020582172E+02  0.10566000000E+00 0. -1.
        -13    1    4    4    0    0 -0.52804251649E+01 -0.30525957869E+01 -0.19493164208E+01  0.64040791301E+01  0.10566000000E+00 0.  1.
         14    1    4    4    0    0 -0.38331163880E+01 -0.14528825430E+01 -0.15273213942E+01  0.43745124950E+01  0.00000000000E+00 0. -1.
<mgrwt>
<rscale>  0 0.78692423E+02</rscale>
<asrwt>0</asrwt>
<pdfrwt beam="1">  1        1 0.69092031E-02 0.78692423E+02</pdfrwt>
<pdfrwt beam="2">  1       -2 0.53033607E-02 0.78692423E+02</pdfrwt>
<totfact> 0.13545243E+05</totfact>
</mgrwt>
</event>
<event>
 8    1  0.1241100E-024  0.7269218E+02  0.7818608E-02  0.1351170E+00
          1   -1    0    0  501    0  0.00000000000E+00  0.00000000000E+00  0.89488111679E+02  0.89488111821E+02  0.50400000000E-02 0. -1.
         -2   -1    0    0    0  501 -0.00000000000E+00 -0.00000000000E+00 -0.14762165261E+02  0.14762165481E+02  0.25500000000E-02 0.  1.
        -24    2    1    2    0    0  0.00000000000E+00  0.00000000000E+00  0.74725946418E+02  0.10425027730E+03  0.72692181489E+02 0.  0.
         66    2    3    3    0    0 -0.20382280416E+02 -0.10180681190E+02 -0.31709664034E+01  0.23089795444E+02  0.20000003123E+01 0.  0.
         13    1    3    3    0    0  0.20382280416E+02  0.10180681190E+02  0.77896912821E+02  0.81160481859E+02  0.10566000000E+00 0. -1.
         13    1    4    4    0    0 -0.11815222100E+02 -0.65995307244E+01 -0.20386445553E+01  0.13686508493E+02  0.10566000000E+00 0. -1.
        -13    1    4    4    0    0 -0.11346995599E+01 -0.80472289279E+00 -0.28766662015E+00  0.14244431001E+01  0.10566000000E+00 0.  1.
        -14    1    4    4    0    0 -0.74323587560E+01 -0.27764275724E+01 -0.84465522793E+00  0.79788438509E+01  0.00000000000E+00 0.  1.
<mgrwt>
<rscale>  0 0.72692181E+02</rscale>
<asrwt>0</asrwt>
<pdfrwt beam="1">  1        1 0.13767402E-01 0.72692181E+02</pdfrwt>
<pdfrwt beam="2">  1       -2 0.22711024E-02 0.72692181E+02</pdfrwt>
<totfact> 0.18676761E+05</totfact>
</mgrwt>
</event>
<event>
 8    1  0.1241100E-024  0.7768416E+02  0.7818608E-02  0.1335755E+00
         -2   -1    0    0    0  501 -0.00000000000E+00  0.00000000000E+00  0.29156031558E+03  0.29156031559E+03  0.25500000000E-02 0.  1.
          1   -1    0    0  501    0  0.00000000000E+00 -0.00000000000E+00 -0.51745959517E+01  0.51745984062E+01  0.50400000000E-02 0. -1.
        -24    2    1    2    0    0 -0.57245874707E-16  0.00000000000E+00  0.28638571963E+03  0.29673491400E+03  0.77684160406E+02 0.  0.
         66    2    3    3    0    0 -0.12975864749E-01  0.23140419486E+02  0.26232826052E+03  0.26335450530E+03  0.20000022737E+01 0.  0.
         13    1    3    3    0    0  0.12975864749E-01 -0.23140419486E+02  0.24057459107E+02  0.33380408702E+02  0.10566000000E+00 0. -1.
         13    1    4    4    0    0  0.61789156016E+00  0.37569443983E+01  0.46332744373E+02  0.46489039422E+02  0.10566000000E+00 0. -1.
        -13    1    4    4    0    0 -0.21711377189E+00  0.35604060172E+01  0.42251203131E+02  0.42401638641E+02  0.10566000000E+00 0.  1.
         14    1    4    4    0    0 -0.41375365302E+00  0.15823069071E+02  0.17374431302E+03  0.17446382723E+03  0.00000000000E+00 0. -1.
<mgrwt>
<rscale>  0 0.77684160E+02</rscale>
<asrwt>0</asrwt>
<pdfrwt beam="1">  1        1 0.79609178E-03 0.77684160E+02</pdfrwt>
<pdfrwt beam="2">  1       -2 0.44855438E-01 0.77684160E+02</pdfrwt>
<totfact> 0.76977649E+04</totfact>
</mgrwt>
</event>
<event>
 8    1  0.1241100E-024  0.7841504E+02  0.7818608E-02  0.1333610E+00
          1   -1    0    0  501    0  0.00000000000E+00  0.00000000000E+00  0.16779067060E+03  0.16779067067E+03  0.50400000000E-02 0. -1.
         -2   -1    0    0    0  501 -0.00000000000E+00 -0.00000000000E+00 -0.91615920881E+01  0.91615924430E+01  0.25500000000E-02 0.  1.
        -24    2    1    2    0    0 -0.71054273576E-14  0.00000000000E+00  0.15862907851E+03  0.17695226312E+03  0.78415042391E+02 0.  0.
         66    2    3    3    0    0  0.33937509611E+02  0.12158115119E+02  0.44724954156E+02  0.57479525512E+02  0.20000017597E+01 0.  0.
         13    1    3    3    0    0 -0.33937509611E+02 -0.12158115119E+02  0.11390412435E+03  0.11947273760E+03  0.10566000000E+00 0. -1.
         13    1    4    4    0    0  0.20120458205E+01  0.58927713158E+00  0.23705972626E+01  0.31664603801E+01  0.10566000000E+00 0. -1.
        -13    1    4    4    0    0  0.10340587076E+02  0.32039835008E+01  0.12534605598E+02  0.16562631219E+02  0.10566000000E+00 0.  1.
        -14    1    4    4    0    0  0.21584876714E+02  0.83648544867E+01  0.29819751295E+02  0.37750433914E+02  0.00000000000E+00 0.  1.
<mgrwt>
<rscale>  0 0.78415042E+02</rscale>
<asrwt>0</asrwt>
<pdfrwt beam="1">  1        1 0.25813948E-01 0.78415042E+02</pdfrwt>
<pdfrwt beam="2">  1       -2 0.14094758E-02 0.78415042E+02</pdfrwt>
<totfact> 0.17004105E+05</totfact>
</mgrwt>
</event>
<event>
 8    1  0.1241100E-024  0.7816665E+02  0.7818608E-02  0.1334336E+00
          1   -1    0    0  501    0  0.00000000000E+00  0.00000000000E+00  0.10003031956E+02  0.10003033226E+02  0.50400000000E-02 0. -1.
         -2   -1    0    0    0  501 -0.00000000000E+00 -0.00000000000E+00 -0.15270431977E+03  0.15270431979E+03  0.25500000000E-02 0.  1.
        -24    2    1    2    0    0  0.00000000000E+00  0.35527136788E-14 -0.14270128781E+03  0.16270735301E+03  0.78166650064E+02 0.  0.
         66    2    3    3    0    0 -0.20621816172E+02 -0.20335186119E+02 -0.12594489917E+03  0.12924742443E+03  0.19999992909E+01 0.  0.
         13    1    3    3    0    0  0.20621816172E+02  0.20335186119E+02 -0.16756388637E+02  0.33459928585E+02  0.10566000000E+00 0. -1.
         13    1    4    4    0    0 -0.17114040595E+00 -0.77074908493E-01 -0.58308404061E+00  0.62159521723E+00  0.10566000000E+00 0.  1.
        -13    1    4    4    0    0 -0.35726013817E+01 -0.35736949557E+01 -0.23003585410E+02  0.23552300992E+02  0.10566000000E+00 0.  1.
         14    1    4    4    0    0 -0.16878074384E+02 -0.16684416255E+02 -0.10235822972E+03  0.10507352822E+03  0.00000000000E+00 0. -1.
<mgrwt>
<rscale>  0 0.78166650E+02</rscale>
<asrwt>0</asrwt>
<pdfrwt beam="1">  1        1 0.15389282E-02 0.78166650E+02</pdfrwt>
<pdfrwt beam="2">  1       -2 0.23492971E-01 0.78166650E+02</pdfrwt>
<totfact> 0.99727136E+04</totfact>
</mgrwt>
</event>
<event>
 8    1  0.1241100E-024  0.8086499E+02  0.7818608E-02  0.1326614E+00
          1   -1    0    0  501    0  0.00000000000E+00  0.00000000000E+00  0.34506576504E+03  0.34506576507E+03  0.50400000000E-02 0. -1.
         -2   -1    0    0    0  501 -0.00000000000E+00 -0.00000000000E+00 -0.47376090758E+01  0.47376097621E+01  0.25500000000E-02 0.  1.
        -24    2    1    2    0    0  0.00000000000E+00  0.35527136788E-14  0.34032815596E+03  0.34980337483E+03  0.80864994322E+02 0.  0.
         66    2    3    3    0    0  0.25607228649E+02  0.30744676956E+02  0.14586787608E+03  0.15126930488E+03  0.20000011648E+01 0.  0.
         13    1    3    3    0    0 -0.25607228649E+02 -0.30744676956E+02  0.19446027988E+03  0.19853406996E+03  0.10566000000E+00 0. -1.
         13    1    4    4    0    0  0.24041697982E+01  0.29732088199E+01  0.15780745903E+02  0.16237706377E+02  0.10566000000E+00 0. -1.
        -13    1    4    4    0    0  0.22983699785E+02  0.27542601868E+02  0.12851007211E+03  0.13342299342E+03  0.10566000000E+00 0.  1.
        -14    1    4    4    0    0  0.21935906631E+00  0.22886626830E+00  0.15770580663E+01  0.16086050830E+01  0.00000000000E+00 0.  1.
<mgrwt>
<rscale>  0 0.80864994E+02</rscale>
<asrwt>0</asrwt>
<pdfrwt beam="1">  1        1 0.53087034E-01 0.80864994E+02</pdfrwt>
<pdfrwt beam="2">  1       -2 0.72886308E-03 0.80864994E+02</pdfrwt>
<totfact> 0.17999310E+05</totfact>
</mgrwt>
</event>
<event>
 8    1  0.1241100E-024  0.8250671E+02  0.7818608E-02  0.1322085E+00
          1   -1    0    0  501    0  0.00000000000E+00  0.00000000000E+00  0.37059578245E+02  0.37059578588E+02  0.50400000000E-02 0. -1.
         -2   -1    0    0    0  501 -0.00000000000E+00 -0.00000000000E+00 -0.45921715775E+02  0.45921715846E+02  0.25500000000E-02 0.  1.
        -24    2    1    2    0    0  0.17763568394E-14  0.71054273576E-14 -0.88621375302E+01  0.82981294433E+02  0.82506713328E+02 0.  0.
         66    2    3    3    0    0 -0.12798959851E+02 -0.35338318544E+02 -0.21478842417E+02  0.43335329481E+02  0.19999947098E+01 0.  0.
         13    1    3    3    0    0  0.12798959851E+02  0.35338318544E+02  0.12616704887E+02  0.39645964953E+02  0.10566000000E+00 0. -1.
         13    1    4    4    0    0 -0.91948838259E+01 -0.26858523192E+02 -0.16594436619E+02  0.32883318679E+02  0.10566000000E+00 0.  1.
        -13    1    4    4    0    0 -0.34037428967E+01 -0.80123154002E+01 -0.47832777111E+01  0.99334572771E+01  0.10566000000E+00 0. -1.
         14    1    4    4    0    0 -0.20033312837E+00 -0.46747995148E+00 -0.10112808715E+00  0.51855352412E+00  0.00000000000E+00 0. -1.
<mgrwt>
<rscale>  0 0.82506713E+02</rscale>
<asrwt>0</asrwt>
<pdfrwt beam="1">  1        1 0.57014737E-02 0.82506713E+02</pdfrwt>
<pdfrwt beam="2">  1       -2 0.70648793E-02 0.82506713E+02</pdfrwt>
<totfact> 0.11487489E+05</totfact>
</mgrwt>
</event>
<event>
 8    1  0.1241100E-024  0.7739818E+02  0.7818608E-02  0.1336601E+00
          1   -1    0    0  501    0  0.00000000000E+00  0.00000000000E+00  0.28982922056E+02  0.28982922494E+02  0.50400000000E-02 0. -1.
         -2   -1    0    0    0  501 -0.00000000000E+00 -0.00000000000E+00 -0.51672480103E+02  0.51672480166E+02  0.25500000000E-02 0.  1.
        -24    2    1    2    0    0 -0.17763568394E-14 -0.88817841970E-15 -0.22689558048E+02  0.80655402660E+02  0.77398177846E+02 0.  0.
         66    2    3    3    0    0 -0.14187536264E+02  0.46023670122E+01 -0.48535119722E+02  0.50814622013E+02  0.19999991250E+01 0.  0.
         13    1    3    3    0    0  0.14187536264E+02 -0.46023670122E+01  0.25845561674E+02  0.29840780647E+02  0.10566000000E+00 0. -1.
         13    1    4    4    0    0 -0.16057521587E+01  0.27991332814E+00 -0.72586368063E+01  0.74401454144E+01  0.10566000000E+00 0. -1.
        -13    1    4    4    0    0 -0.22943789524E+01  0.58435495642E+00 -0.66921677502E+01  0.70994308733E+01  0.10566000000E+00 0.  1.
         14    1    4    4    0    0 -0.10287405153E+02  0.37380987276E+01 -0.34584315166E+02  0.36275045725E+02  0.00000000000E+00 0. -1.
<mgrwt>
<rscale>  0 0.77398178E+02</rscale>
<asrwt>0</asrwt>
<pdfrwt beam="1">  1        1 0.44589111E-02 0.77398178E+02</pdfrwt>
<pdfrwt beam="2">  1       -2 0.79496123E-02 0.77398178E+02</pdfrwt>
<totfact> 0.13217803E+05</totfact>
</mgrwt>
</event>
<event>
 8    1  0.1241100E-024  0.7939397E+02  0.7818608E-02  0.1330780E+00
         -2   -1    0    0    0  501 -0.00000000000E+00  0.00000000000E+00  0.38296998684E+02  0.38296998769E+02  0.25500000000E-02 0.  1.
          1   -1    0    0  501    0  0.00000000000E+00 -0.00000000000E+00 -0.41148145849E+02  0.41148146158E+02  0.50400000000E-02 0. -1.
        -24    2    1    2    0    0  0.35527136788E-14  0.00000000000E+00 -0.28511471647E+01  0.79445144927E+02  0.79393967103E+02 0.  0.
         66    2    3    3    0    0  0.27729619750E+02  0.16597611235E+02  0.21597768292E+02  0.38921409398E+02  0.20000010310E+01 0.  0.
         13    1    3    3    0    0 -0.27729619750E+02 -0.16597611235E+02 -0.24448915457E+02  0.40523735529E+02  0.10566000000E+00 0. -1.
         13    1    4    4    0    0  0.84111223460E+01  0.44654350446E+01  0.72411887840E+01  0.11963823314E+02  0.10566000000E+00 0. -1.
        -13    1    4    4    0    0  0.69960216767E+01  0.44117922172E+01  0.49690695438E+01  0.96494065121E+01  0.10566000000E+00 0.  1.
         14    1    4    4    0    0  0.12322475727E+02  0.77203839733E+01  0.93875099644E+01  0.17308179571E+02  0.00000000000E+00 0. -1.
<mgrwt>
<rscale>  0 0.79393967E+02</rscale>
<asrwt>0</asrwt>
<pdfrwt beam="1">  1        1 0.63304840E-02 0.79393967E+02</pdfrwt>
<pdfrwt beam="2">  1       -2 0.58918460E-02 0.79393967E+02</pdfrwt>
<totfact> 0.13031376E+05</totfact>
</mgrwt>
</event>
<event>
 8    1  0.1241100E-024  0.7931050E+02  0.7818608E-02  0.1331020E+00
          1   -1    0    0  501    0  0.00000000000E+00  0.00000000000E+00  0.21206051827E+02  0.21206052426E+02  0.50400000000E-02 0. -1.
         -2   -1    0    0    0  501 -0.00000000000E+00 -0.00000000000E+00 -0.74155182724E+02  0.74155182768E+02  0.25500000000E-02 0.  1.
        -24    2    1    2    0    0  0.00000000000E+00  0.00000000000E+00 -0.52949130897E+02  0.95361235194E+02  0.79310495617E+02 0.  0.
         66    2    3    3    0    0  0.27585674038E+02 -0.11120250807E+02 -0.57981377089E+02  0.65195624709E+02  0.20000005043E+01 0.  0.
         13    1    3    3    0    0 -0.27585674038E+02  0.11120250807E+02  0.50322461919E+01  0.30165610485E+02  0.10566000000E+00 0. -1.
         13    1    4    4    0    0  0.10515397880E+02 -0.39364439670E+01 -0.23143256266E+02  0.25723348505E+02  0.10566000000E+00 0. -1.
        -13    1    4    4    0    0  0.12084402674E+02 -0.55526380661E+01 -0.25605720807E+02  0.28853573081E+02  0.10566000000E+00 0.  1.
        -14    1    4    4    0    0  0.49858734838E+01 -0.16311687743E+01 -0.92324000157E+01  0.10618703123E+02  0.00000000000E+00 0.  1.
<mgrwt>
<rscale>  0 0.79310496E+02</rscale>
<asrwt>0</asrwt>
<pdfrwt beam="1">  1        1 0.32624696E-02 0.79310496E+02</pdfrwt>
<pdfrwt beam="2">  1       -2 0.11408490E-01 0.79310496E+02</pdfrwt>
<totfact> 0.11609594E+05</totfact>
</mgrwt>
</event>
<event>
 8    1  0.1241100E-024  0.8106850E+02  0.7818608E-02  0.1326046E+00
         -2   -1    0    0    0  501 -0.00000000000E+00  0.00000000000E+00  0.14295965356E+03  0.14295965358E+03  0.25500000000E-02 0.  1.
          1   -1    0    0  501    0  0.00000000000E+00 -0.00000000000E+00 -0.11492930684E+02  0.11492931789E+02  0.50400000000E-02 0. -1.
        -24    2    1    2    0    0  0.88817841970E-15  0.00000000000E+00  0.13146672288E+03  0.15445258537E+03  0.81068501306E+02 0.  0.
         66    2    3    3    0    0  0.72573706398E+01 -0.38782283495E+02  0.83264457762E+02  0.92161298117E+02  0.20000006008E+01 0.  0.
         13    1    3    3    0    0 -0.72573706398E+01  0.38782283495E+02  0.48202265113E+02  0.62291287254E+02  0.10566000000E+00 0. -1.
         13    1    4    4    0    0  0.56721586718E+01 -0.31058285859E+02  0.65440073559E+02  0.72658137163E+02  0.10566000000E+00 0. -1.
        -13    1    4    4    0    0  0.12048455182E+01 -0.65812489300E+01  0.15576317029E+02  0.16952796419E+02  0.10566000000E+00 0.  1.
         14    1    4    4    0    0  0.38036644973E+00 -0.11427487062E+01  0.22480671741E+01  0.25503645349E+01  0.00000000000E+00 0. -1.
<mgrwt>
<rscale>  0 0.81068501E+02</rscale>
<asrwt>0</asrwt>
<pdfrwt beam="1">  1        1 0.17681431E-02 0.81068501E+02</pdfrwt>
<pdfrwt beam="2">  1       -2 0.21993795E-01 0.81068501E+02</pdfrwt>
<totfact> 0.92767759E+04</totfact>
</mgrwt>
</event>
<event>
 8    1  0.1241100E-024  0.7864363E+02  0.7818608E-02  0.1332945E+00
         -2   -1    0    0    0  501 -0.00000000000E+00  0.00000000000E+00  0.12363301309E+02  0.12363301571E+02  0.25500000000E-02 0.  1.
          1   -1    0    0  501    0  0.00000000000E+00 -0.00000000000E+00 -0.12506409047E+03  0.12506409057E+03  0.50400000000E-02 0. -1.
        -24    2    1    2    0    0  0.35527136788E-14 -0.35527136788E-14 -0.11270078916E+03  0.13742739214E+03  0.78643628054E+02 0.  0.
         66    2    3    3    0    0  0.22189358332E+02  0.31706232112E+02 -0.44464515177E+02  0.58980894266E+02  0.20000001243E+01 0.  0.
         13    1    3    3    0    0 -0.22189358332E+02 -0.31706232112E+02 -0.68236273983E+02  0.78446497876E+02  0.10566000000E+00 0. -1.
         13    1    4    4    0    0  0.47471505090E+01  0.66240485655E+01 -0.10311717860E+02  0.13143673254E+02  0.10566000000E+00 0. -1.
        -13    1    4    4    0    0  0.12167697525E+02  0.18381317425E+02 -0.24564121701E+02  0.33005044043E+02  0.10566000000E+00 0.  1.
        -14    1    4    4    0    0  0.52745102977E+01  0.67008661217E+01 -0.95886756168E+01  0.12832176968E+02  0.00000000000E+00 0.  1.
<mgrwt>
<rscale>  0 0.78643628E+02</rscale>
<asrwt>0</asrwt>
<pdfrwt beam="1">  1        1 0.19240628E-01 0.78643628E+02</pdfrwt>
<pdfrwt beam="2">  1       -2 0.19020465E-02 0.78643628E+02</pdfrwt>
<totfact> 0.15994259E+05</totfact>
</mgrwt>
</event>
<event>
 8    1  0.1241100E-024  0.7977771E+02  0.7818608E-02  0.1329683E+00
         -2   -1    0    0    0  501 -0.00000000000E+00  0.00000000000E+00  0.42336569626E+03  0.42336569626E+03  0.25500000000E-02 0.  1.
          1   -1    0    0  501    0  0.00000000000E+00 -0.00000000000E+00 -0.37582640557E+01  0.37582674351E+01  0.50400000000E-02 0. -1.
        -24    2    1    2    0    0  0.00000000000E+00  0.00000000000E+00  0.41960743220E+03  0.42712396370E+03  0.79777711223E+02 0.  0.
         66    2    3    3    0    0  0.38234590830E+02 -0.54680179443E+01  0.26275561311E+03  0.26558670028E+03  0.19999974484E+01 0.  0.
         13    1    3    3    0    0 -0.38234590830E+02  0.54680179443E+01  0.15685181909E+03  0.16153726342E+03  0.10566000000E+00 0. -1.
         13    1    4    4    0    0  0.75669067647E+01 -0.13146892040E+01  0.48258158414E+02  0.48865606547E+02  0.10566000000E+00 0. -1.
        -13    1    4    4    0    0  0.22997145106E+02 -0.26656996844E+01  0.16107388262E+03  0.16272916600E+03  0.10566000000E+00 0.  1.
        -14    1    4    4    0    0  0.76705389588E+01 -0.14876290559E+01  0.53423572069E+02  0.53991927737E+02  0.00000000000E+00 0.  1.
<mgrwt>
<rscale>  0 0.79777711E+02</rscale>
<asrwt>0</asrwt>
<pdfrwt beam="1">  1        1 0.57819463E-03 0.79777711E+02</pdfrwt>
<pdfrwt beam="2">  1       -2 0.65133195E-01 0.79777711E+02</pdfrwt>
<totfact> 0.57280323E+04</totfact>
</mgrwt>
</event>
<event>
 8    1  0.1241100E-024  0.8022379E+02  0.7818608E-02  0.1328418E+00
         -2   -1    0    0    0  501 -0.00000000000E+00  0.00000000000E+00  0.37112837257E+01  0.37112846017E+01  0.25500000000E-02 0.  1.
          1   -1    0    0  501    0  0.00000000000E+00 -0.00000000000E+00 -0.43353296873E+03  0.43353296875E+03  0.50400000000E-02 0. -1.
        -24    2    1    2    0    0  0.00000000000E+00  0.00000000000E+00 -0.42982168500E+03  0.43724425336E+03  0.80223788225E+02 0.  0.
         66    2    3    3    0    0 -0.19081377166E+02 -0.35253064897E+02 -0.21348761883E+03  0.21722762469E+03  0.19999991101E+01 0.  0.
         13    1    3    3    0    0  0.19081377166E+02  0.35253064897E+02 -0.21633406617E+03  0.22001662867E+03  0.10566000000E+00 0. -1.
         13    1    4    4    0    0 -0.14692072481E+02 -0.25811596178E+02 -0.15850130033E+03  0.16125994190E+03  0.10566000000E+00 0.  1.
        -13    1    4    4    0    0 -0.42109450986E+01 -0.88802490006E+01 -0.51047571363E+02  0.51985157372E+02  0.10566000000E+00 0. -1.
        -14    1    4    4    0    0 -0.17835958694E+00 -0.56121971912E+00 -0.39387471317E+01  0.39825254152E+01  0.00000000000E+00 0.  1.
<mgrwt>
<rscale>  0 0.80223788E+02</rscale>
<asrwt>0</asrwt>
<pdfrwt beam="1">  1        1 0.66697340E-01 0.80223788E+02</pdfrwt>
<pdfrwt beam="2">  1       -2 0.57096714E-03 0.80223788E+02</pdfrwt>
<totfact> 0.19094501E+05</totfact>
</mgrwt>
</event>
<event>
 8    1  0.1241100E-024  0.7960590E+02  0.7818608E-02  0.1330174E+00
         -2   -1    0    0    0  501 -0.00000000000E+00  0.00000000000E+00  0.18925875111E+02  0.18925875282E+02  0.25500000000E-02 0.  1.
          1   -1    0    0  501    0  0.00000000000E+00 -0.00000000000E+00 -0.83709468187E+02  0.83709468339E+02  0.50400000000E-02 0. -1.
        -24    2    1    2    0    0  0.00000000000E+00  0.17763568394E-14 -0.64783593076E+02  0.10263534362E+03  0.79605903225E+02 0.  0.
         66    2    3    3    0    0  0.32394805935E+02  0.72439420713E+01 -0.41542488208E+01  0.33513518579E+02  0.19999989816E+01 0.  0.
         13    1    3    3    0    0 -0.32394805935E+02 -0.72439420713E+01 -0.60629344255E+02  0.69121825042E+02  0.10566000000E+00 0. -1.
         13    1    4    4    0    0  0.66268493322E+00  0.19933843281E+00 -0.19055518536E+00  0.72550840504E+00  0.10566000000E+00 0.  1.
        -13    1    4    4    0    0  0.27213397250E+02  0.60566654722E+01 -0.28089785720E+01  0.28020594411E+02  0.10566000000E+00 0.  1.
        -14    1    4    4    0    0  0.45187237525E+01  0.98793816632E+00 -0.11547150635E+01  0.47674157622E+01  0.00000000000E+00 0.  1.
<mgrwt>
<rscale>  0 0.79605903E+02</rscale>
<asrwt>0</asrwt>
<pdfrwt beam="1">  1        1 0.12878380E-01 0.79605903E+02</pdfrwt>
<pdfrwt beam="2">  1       -2 0.29116732E-02 0.79605903E+02</pdfrwt>
<totfact> 0.14466547E+05</totfact>
</mgrwt>
</event>
<event>
 8    1  0.1241100E-024  0.8009492E+02  0.7818608E-02  0.1328782E+00
          1   -1    0    0  501    0  0.00000000000E+00  0.00000000000E+00  0.47366218693E+02  0.47366218961E+02  0.50400000000E-02 0. -1.
         -2   -1    0    0    0  501 -0.00000000000E+00 -0.00000000000E+00 -0.33859551357E+02  0.33859551453E+02  0.25500000000E-02 0.  1.
        -24    2    1    2    0    0  0.00000000000E+00  0.88817841970E-15  0.13506667336E+02  0.81225770414E+02  0.80094916923E+02 0.  0.
         66    2    3    3    0    0  0.36446144428E+02  0.62092485875E+01 -0.87858950466E+01  0.38053490959E+02  0.20000026798E+01 0.  0.
         13    1    3    3    0    0 -0.36446144428E+02 -0.62092485875E+01  0.22292562383E+02  0.43172279455E+02  0.10566000000E+00 0. -1.
         13    1    4    4    0    0  0.12062742539E+02  0.23831271432E+01 -0.29565460384E+01  0.12646793312E+02  0.10566000000E+00 0. -1.
        -13    1    4    4    0    0  0.20834490673E+02  0.35245515581E+01 -0.44973037411E+01  0.21604059116E+02  0.10566000000E+00 0.  1.
         14    1    4    4    0    0  0.35489112158E+01  0.30156988622E+00 -0.13320452670E+01  0.38026385323E+01  0.00000000000E+00 0. -1.
<mgrwt>
<rscale>  0 0.80094917E+02</rscale>
<asrwt>0</asrwt>
<pdfrwt beam="1">  1        1 0.72871106E-02 0.80094917E+02</pdfrwt>
<pdfrwt beam="2">  1       -2 0.52091618E-02 0.80094917E+02</pdfrwt>
<totfact> 0.13002293E+05</totfact>
</mgrwt>
</event>
<event>
 8    1  0.1241100E-024  0.7891436E+02  0.7818608E-02  0.1332161E+00
         -2   -1    0    0    0  501 -0.00000000000E+00  0.00000000000E+00  0.94444643237E+02  0.94444643271E+02  0.25500000000E-02 0.  1.
          1   -1    0    0  501    0  0.00000000000E+00 -0.00000000000E+00 -0.16484462554E+02  0.16484463325E+02  0.50400000000E-02 0. -1.
        -24    2    1    2    0    0  0.00000000000E+00 -0.35527136788E-14  0.77960180682E+02  0.11092910660E+03  0.78914364460E+02 0.  0.
         66    2    3    3    0    0 -0.10338928062E+02 -0.24243978177E+02  0.80232773013E+02  0.84474622075E+02  0.19999995216E+01 0.  0.
         13    1    3    3    0    0  0.10338928062E+02  0.24243978177E+02 -0.22725923302E+01  0.26454484521E+02  0.10566000000E+00 0. -1.
         13    1    4    4    0    0 -0.23136703706E+01 -0.50094205698E+01  0.15562462793E+02  0.16512079737E+02  0.10566000000E+00 0. -1.
        -13    1    4    4    0    0 -0.74417821743E+01 -0.17447462005E+02  0.57394085383E+02  0.60447384172E+02  0.10566000000E+00 0.  1.
         14    1    4    4    0    0 -0.58347551711E+00 -0.17870956024E+01  0.72762248376E+01  0.75151581659E+01  0.00000000000E+00 0. -1.
<mgrwt>
<rscale>  0 0.78914364E+02</rscale>
<asrwt>0</asrwt>
<pdfrwt beam="1">  1        1 0.25360712E-02 0.78914364E+02</pdfrwt>
<pdfrwt beam="2">  1       -2 0.14529945E-01 0.78914364E+02</pdfrwt>
<totfact> 0.11144246E+05</totfact>
</mgrwt>
</event>
<event>
 8    1  0.1241100E-024  0.7898534E+02  0.7818608E-02  0.1331956E+00
         -2   -1    0    0    0  501 -0.00000000000E+00  0.00000000000E+00  0.29311769195E+03  0.29311769196E+03  0.25500000000E-02 0.  1.
          1   -1    0    0  501    0  0.00000000000E+00 -0.00000000000E+00 -0.53209701348E+01  0.53209725217E+01  0.50400000000E-02 0. -1.
        -24    2    1    2    0    0  0.00000000000E+00  0.00000000000E+00  0.28779672182E+03  0.29843866448E+03  0.78985336428E+02 0.  0.
         66    2    3    3    0    0  0.16236498629E+02  0.35159009570E+02  0.11524316153E+03  0.12159262360E+03  0.19999987336E+01 0.  0.
         13    1    3    3    0    0 -0.16236498629E+02 -0.35159009570E+02  0.17255356029E+03  0.17684604088E+03  0.10566000000E+00 0. -1.
         13    1    4    4    0    0  0.65350408151E+01  0.15996433702E+02  0.52169196397E+02  0.54956608942E+02  0.10566000000E+00 0. -1.
        -13    1    4    4    0    0  0.95415103488E+00  0.24150925989E+01  0.79115817456E+01  0.83275066023E+01  0.10566000000E+00 0.  1.
         14    1    4    4    0    0  0.87473067786E+01  0.16747483270E+02  0.55162383383E+02  0.58308508061E+02  0.00000000000E+00 0. -1.
<mgrwt>
<rscale>  0 0.78985336E+02</rscale>
<asrwt>0</asrwt>
<pdfrwt beam="1">  1        1 0.81861090E-03 0.78985336E+02</pdfrwt>
<pdfrwt beam="2">  1       -2 0.45095034E-01 0.78985336E+02</pdfrwt>
<totfact> 0.73539428E+04</totfact>
</mgrwt>
</event>
<event>
 8    1  0.1241100E-024  0.7814108E+02  0.7818608E-02  0.1334411E+00
          1   -1    0    0  501    0  0.00000000000E+00  0.00000000000E+00  0.59676410265E+02  0.59676410478E+02  0.50400000000E-02 0. -1.
         -2   -1    0    0    0  501 -0.00000000000E+00 -0.00000000000E+00 -0.25579739291E+02  0.25579739418E+02  0.25500000000E-02 0.  1.
        -24    2    1    2    0    0  0.00000000000E+00  0.00000000000E+00  0.34096670974E+02  0.85256149896E+02  0.78141078337E+02 0.  0.
         66    2    3    3    0    0  0.14625063872E+02  0.37921736708E+01 -0.22221948321E+02  0.26946021122E+02  0.19999981892E+01 0.  0.
         13    1    3    3    0    0 -0.14625063872E+02 -0.37921736708E+01  0.56318619294E+02  0.58310128774E+02  0.10566000000E+00 0. -1.
         13    1    4    4    0    0  0.41132139134E+01  0.81508059982E+00 -0.62947575505E+01  0.75642594969E+01  0.10566000000E+00 0.  1.
        -13    1    4    4    0    0  0.57778664069E+01  0.10493030643E+01 -0.75073633003E+01  0.95318647123E+01  0.10566000000E+00 0. -1.
         14    1    4    4    0    0  0.47339835514E+01  0.19277900067E+01 -0.84198274698E+01  0.98498969130E+01  0.00000000000E+00 0. -1.
<mgrwt>
<rscale>  0 0.78141078E+02</rscale>
<asrwt>0</asrwt>
<pdfrwt beam="1">  1        1 0.91809861E-02 0.78141078E+02</pdfrwt>
<pdfrwt beam="2">  1       -2 0.39353446E-02 0.78141078E+02</pdfrwt>
<totfact> 0.14431143E+05</totfact>
</mgrwt>
</event>
<event>
 8    1  0.1241100E-024  0.8019947E+02  0.7818608E-02  0.1328486E+00
         -2   -1    0    0    0  501 -0.00000000000E+00  0.00000000000E+00  0.26634723603E+03  0.26634723605E+03  0.25500000000E-02 0.  1.
          1   -1    0    0  501    0  0.00000000000E+00 -0.00000000000E+00 -0.60371880708E+01  0.60371901745E+01  0.50400000000E-02 0. -1.
        -24    2    1    2    0    0  0.00000000000E+00 -0.17763568394E-14  0.26031004796E+03  0.27238442622E+03  0.80199467435E+02 0.  0.
         66    2    3    3    0    0 -0.93963679465E+01 -0.13987833873E+02  0.25372575678E+03  0.25429256945E+03  0.19999991940E+01 0.  0.
         13    1    3    3    0    0  0.93963679465E+01  0.13987833873E+02  0.65842911852E+01  0.18091856773E+02  0.10566000000E+00 0. -1.
         13    1    4    4    0    0 -0.33647399974E+00 -0.77823710862E-01  0.45581512235E+01  0.45724367568E+01  0.10566000000E+00 0. -1.
        -13    1    4    4    0    0 -0.74766430300E+01 -0.11342229886E+02  0.20485034206E+03  0.20530031703E+03  0.10566000000E+00 0.  1.
         14    1    4    4    0    0 -0.15832509167E+01 -0.25677802765E+01  0.44317263498E+02  0.44419815657E+02  0.00000000000E+00 0. -1.
<mgrwt>
<rscale>  0 0.80199467E+02</rscale>
<asrwt>0</asrwt>
<pdfrwt beam="1">  1        1 0.92879824E-03 0.80199467E+02</pdfrwt>
<pdfrwt beam="2">  1       -2 0.40976502E-01 0.80199467E+02</pdfrwt>
<totfact> 0.74288057E+04</totfact>
</mgrwt>
</event>
<event>
 8    1  0.1241100E-024  0.8195081E+02  0.7818608E-02  0.1323605E+00
          1   -1    0    0  501    0  0.00000000000E+00  0.00000000000E+00  0.14050547978E+02  0.14050548881E+02  0.50400000000E-02 0. -1.
         -2   -1    0    0    0  501 -0.00000000000E+00 -0.00000000000E+00 -0.11949595679E+03  0.11949595682E+03  0.25500000000E-02 0.  1.
        -24    2    1    2    0    0  0.00000000000E+00 -0.35527136788E-14 -0.10544540881E+03  0.13354650570E+03  0.81950808079E+02 0.  0.
         66    2    3    3    0    0  0.30451572735E+02 -0.24924544825E+02 -0.71222966784E+02  0.81395590854E+02  0.19999990131E+01 0.  0.
         13    1    3    3    0    0 -0.30451572735E+02  0.24924544825E+02 -0.34222442030E+02  0.52150914847E+02  0.10566000000E+00 0. -1.
         13    1    4    4    0    0  0.58849126333E+00 -0.23218015452E+00 -0.98807113768E+00  0.11779975381E+01  0.10566000000E+00 0. -1.
        -13    1    4    4    0    0  0.15725354782E+02 -0.12602231974E+02 -0.36572601212E+02  0.41757267119E+02  0.10566000000E+00 0.  1.
         14    1    4    4    0    0  0.14137726690E+02 -0.12090132697E+02 -0.33662294434E+02  0.38460326197E+02  0.00000000000E+00 0. -1.
<mgrwt>
<rscale>  0 0.81950808E+02</rscale>
<asrwt>0</asrwt>
<pdfrwt beam="1">  1        1 0.21616229E-02 0.81950808E+02</pdfrwt>
<pdfrwt beam="2">  1       -2 0.18383993E-01 0.81950808E+02</pdfrwt>
<totfact> 0.95188896E+04</totfact>
</mgrwt>
</event>
<event>
 8    1  0.1241100E-024  0.7836979E+02  0.7818608E-02  0.1333742E+00
          1   -1    0    0  501    0  0.00000000000E+00  0.00000000000E+00  0.88279738333E+01  0.88279752720E+01  0.50400000000E-02 0. -1.
         -2   -1    0    0    0  501 -0.00000000000E+00 -0.00000000000E+00 -0.17393073214E+03  0.17393073216E+03  0.25500000000E-02 0.  1.
        -24    2    1    2    0    0  0.00000000000E+00  0.00000000000E+00 -0.16510275831E+03  0.18275870743E+03  0.78369792276E+02 0.  0.
         66    2    3    3    0    0 -0.21024035408E+02 -0.20244211705E+02 -0.14348830987E+03  0.14644020364E+03  0.19999999193E+01 0.  0.
         13    1    3    3    0    0  0.21024035408E+02  0.20244211705E+02 -0.21614448433E+02  0.36318503790E+02  0.10566000000E+00 0. -1.
         13    1    4    4    0    0 -0.32594189518E+00 -0.18422877448E+00 -0.26037361813E+01  0.26326383150E+01  0.10566000000E+00 0. -1.
        -13    1    4    4    0    0 -0.10860655224E+02 -0.11322063035E+02 -0.76672832307E+02  0.78261595443E+02  0.10566000000E+00 0.  1.
        -14    1    4    4    0    0 -0.98374382897E+01 -0.87379198952E+01 -0.64211741387E+02  0.65545969885E+02  0.00000000000E+00 0.  1.
<mgrwt>
<rscale>  0 0.78369792E+02</rscale>
<asrwt>0</asrwt>
<pdfrwt beam="1">  1        1 0.13581501E-02 0.78369792E+02</pdfrwt>
<pdfrwt beam="2">  1       -2 0.26758572E-01 0.78369792E+02</pdfrwt>
<totfact> 0.94672674E+04</totfact>
</mgrwt>
</event>
<event>
 8    1  0.1241100E-024  0.7984249E+02  0.7818608E-02  0.1329499E+00
          1   -1    0    0  501    0  0.00000000000E+00  0.00000000000E+00  0.19283602239E+02  0.19283602898E+02  0.50400000000E-02 0. -1.
         -2   -1    0    0    0  501 -0.00000000000E+00 -0.00000000000E+00 -0.82645655482E+02  0.82645655522E+02  0.25500000000E-02 0.  1.
        -24    2    1    2    0    0  0.71054273576E-14  0.35527136788E-14 -0.63362053243E+02  0.10192925842E+03  0.79842494518E+02 0.  0.
         66    2    3    3    0    0 -0.28573718390E+02 -0.26178968375E+02 -0.19596060446E+02  0.43471846081E+02  0.20000122292E+01 0.  0.
         13    1    3    3    0    0  0.28573718390E+02  0.26178968375E+02 -0.43765992797E+02  0.58457412339E+02  0.10566000000E+00 0. -1.
         13    1    4    4    0    0 -0.70249139388E+01 -0.66987600955E+01 -0.39952449531E+01  0.10497425824E+02  0.10566000000E+00 0. -1.
        -13    1    4    4    0    0 -0.15994945018E+02 -0.14289494429E+02 -0.11520659565E+02  0.24346759086E+02  0.10566000000E+00 0.  1.
         14    1    4    4    0    0 -0.55538594324E+01 -0.51907138506E+01 -0.40801559279E+01  0.86276611703E+01  0.00000000000E+00 0. -1.
<mgrwt>
<rscale>  0 0.79842495E+02</rscale>
<asrwt>0</asrwt>
<pdfrwt beam="1">  1        1 0.29667082E-02 0.79842495E+02</pdfrwt>
<pdfrwt beam="2">  1       -2 0.12714716E-01 0.79842495E+02</pdfrwt>
<totfact> 0.11152912E+05</totfact>
</mgrwt>
</event>
<event>
 8    1  0.1241100E-024  0.7991987E+02  0.7818608E-02  0.1329279E+00
          1   -1    0    0  501    0  0.00000000000E+00  0.00000000000E+00  0.18939274119E+03  0.18939274126E+03  0.50400000000E-02 0. -1.
         -2   -1    0    0    0  501 -0.00000000000E+00 -0.00000000000E+00 -0.84311371608E+01  0.84311375465E+01  0.25500000000E-02 0.  1.
        -24    2    1    2    0    0 -0.35527136788E-14  0.00000000000E+00  0.18096160403E+03  0.19782387880E+03  0.79919865440E+02 0.  0.
         66    2    3    3    0    0 -0.25222568242E+02  0.26717700621E+02  0.51810654568E+02  0.63548071652E+02  0.20000022008E+01 0.  0.
         13    1    3    3    0    0  0.25222568242E+02 -0.26717700621E+02  0.12915094946E+03  0.13427580715E+03  0.10566000000E+00 0. -1.
         13    1    4    4    0    0 -0.16651996995E+01  0.17134848300E+01  0.29487800661E+01  0.37967602263E+01  0.10566000000E+00 0. -1.
        -13    1    4    4    0    0 -0.32683679904E+01  0.39575018306E+01  0.81105608469E+01  0.95987713457E+01  0.10566000000E+00 0.  1.
        -14    1    4    4    0    0 -0.20289000552E+02  0.21046713961E+02  0.40751313655E+02  0.50152540080E+02  0.00000000000E+00 0.  1.
<mgrwt>
<rscale>  0 0.79919865E+02</rscale>
<asrwt>0</asrwt>
<pdfrwt beam="1">  1        1 0.29137346E-01 0.79919865E+02</pdfrwt>
<pdfrwt beam="2">  1       -2 0.12970980E-02 0.79919865E+02</pdfrwt>
<totfact> 0.16543003E+05</totfact>
</mgrwt>
</event>
<event>
 8    1  0.1241100E-024  0.7838132E+02  0.7818608E-02  0.1333709E+00
          1   -1    0    0  501    0  0.00000000000E+00  0.00000000000E+00  0.90617826903E+01  0.90617840919E+01  0.50400000000E-02 0. -1.
         -2   -1    0    0    0  501 -0.00000000000E+00 -0.00000000000E+00 -0.16949286553E+03  0.16949286555E+03  0.25500000000E-02 0.  1.
        -24    2    1    2    0    0  0.88817841970E-15  0.00000000000E+00 -0.16043108284E+03  0.17855464964E+03  0.78381315167E+02 0.  0.
         66    2    3    3    0    0  0.50212846638E+01 -0.37029501736E+02 -0.10698036674E+03  0.11333664972E+03  0.20000006790E+01 0.  0.
         13    1    3    3    0    0 -0.50212846638E+01  0.37029501736E+02 -0.53450716101E+02  0.65217999925E+02  0.10566000000E+00 0. -1.
         13    1    4    4    0    0 -0.10140272583E+00 -0.33766628396E+00 -0.10504853698E+01  0.11130968421E+01  0.10566000000E+00 0. -1.
        -13    1    4    4    0    0  0.49916686664E+01 -0.36221298449E+02 -0.10440981567E+03  0.11062694061E+03  0.10566000000E+00 0.  1.
        -14    1    4    4    0    0  0.13101872323E+00 -0.47053700302E+00 -0.15200657015E+01  0.15966122616E+01  0.00000000000E+00 0.  1.
<mgrwt>
<rscale>  0 0.78381315E+02</rscale>
<asrwt>0</asrwt>
<pdfrwt beam="1">  1        1 0.13941207E-02 0.78381315E+02</pdfrwt>
<pdfrwt beam="2">  1       -2 0.26075823E-01 0.78381315E+02</pdfrwt>
<totfact> 0.95525708E+04</totfact>
</mgrwt>
</event>
<event>
 8    1  0.1241100E-024  0.8022224E+02  0.7818608E-02  0.1328422E+00
         -2   -1    0    0    0  501 -0.00000000000E+00  0.00000000000E+00  0.12019134880E+02  0.12019135150E+02  0.25500000000E-02 0.  1.
          1   -1    0    0  501    0  0.00000000000E+00 -0.00000000000E+00 -0.13386170846E+03  0.13386170855E+03  0.50400000000E-02 0. -1.
        -24    2    1    2    0    0  0.00000000000E+00  0.00000000000E+00 -0.12184257358E+03  0.14588084370E+03  0.80222240203E+02 0.  0.
         66    2    3    3    0    0  0.10034802777E+01  0.33569591282E+02 -0.21161270649E+02  0.39745739449E+02  0.19999993289E+01 0.  0.
         13    1    3    3    0    0 -0.10034802777E+01 -0.33569591282E+02 -0.10068130293E+03  0.10613510425E+03  0.10566000000E+00 0. -1.
         13    1    4    4    0    0  0.12456639191E+01  0.16928735832E+02 -0.10517538473E+02  0.19969064951E+02  0.10566000000E+00 0. -1.
        -13    1    4    4    0    0 -0.13971519786E+00  0.15292212859E+02 -0.10047967809E+02  0.18298746285E+02  0.10566000000E+00 0.  1.
         14    1    4    4    0    0 -0.10246844350E+00  0.13486425908E+01 -0.59576436734E+00  0.14779282124E+01  0.00000000000E+00 0. -1.
<mgrwt>
<rscale>  0 0.80222240E+02</rscale>
<asrwt>0</asrwt>
<pdfrwt beam="1">  1        1 0.20594108E-01 0.80222240E+02</pdfrwt>
<pdfrwt beam="2">  1       -2 0.18490978E-02 0.80222240E+02</pdfrwt>
<totfact> 0.15349578E+05</totfact>
</mgrwt>
</event>
<event>
 8    1  0.1241100E-024  0.7816031E+02  0.7818608E-02  0.1334355E+00
         -2   -1    0    0    0  501 -0.00000000000E+00  0.00000000000E+00  0.11582960332E+02  0.11582960613E+02  0.25500000000E-02 0.  1.
          1   -1    0    0  501    0  0.00000000000E+00 -0.00000000000E+00 -0.13185391057E+03  0.13185391067E+03  0.50400000000E-02 0. -1.
        -24    2    1    2    0    0  0.00000000000E+00  0.00000000000E+00 -0.12027095024E+03  0.14343687128E+03  0.78160313274E+02 0.  0.
         66    2    3    3    0    0 -0.52526952032E+01 -0.27766136455E+02 -0.10703425086E+02  0.30283864812E+02  0.20000047078E+01 0.  0.
         13    1    3    3    0    0  0.52526952032E+01  0.27766136455E+02 -0.10956752515E+03  0.11315300647E+03  0.10566000000E+00 0. -1.
         13    1    4    4    0    0 -0.60519473790E+00 -0.25127354057E+01 -0.72550719372E+00  0.26865637185E+01  0.10566000000E+00 0. -1.
        -13    1    4    4    0    0 -0.43574037583E+01 -0.20906488598E+02 -0.86677466197E+01  0.23047976668E+02  0.10566000000E+00 0.  1.
        -14    1    4    4    0    0 -0.29009670698E+00 -0.43469124519E+01 -0.13101712730E+01  0.45493244255E+01  0.00000000000E+00 0.  1.
<mgrwt>
<rscale>  0 0.78160313E+02</rscale>
<asrwt>0</asrwt>
<pdfrwt beam="1">  1        1 0.20285216E-01 0.78160313E+02</pdfrwt>
<pdfrwt beam="2">  1       -2 0.17819940E-02 0.78160313E+02</pdfrwt>
<totfact> 0.16413166E+05</totfact>
</mgrwt>
</event>
<event>
 8    1  0.1241100E-024  0.8180405E+02  0.7818608E-02  0.1324008E+00
          1   -1    0    0  501    0  0.00000000000E+00  0.00000000000E+00  0.28102879993E+02  0.28102880445E+02  0.50400000000E-02 0. -1.
         -2   -1    0    0    0  501 -0.00000000000E+00 -0.00000000000E+00 -0.59530396441E+02  0.59530396496E+02  0.25500000000E-02 0.  1.
        -24    2    1    2    0    0  0.22204460493E-15  0.00000000000E+00 -0.31427516448E+02  0.87633276941E+02  0.81804049027E+02 0.  0.
         66    2    3    3    0    0 -0.18120143073E+01 -0.36196708329E+02 -0.35977716075E+02  0.51106566571E+02  0.20000007502E+01 0.  0.
         13    1    3    3    0    0  0.18120143073E+01  0.36196708329E+02  0.45501996271E+01  0.36526710369E+02  0.10566000000E+00 0. -1.
         13    1    4    4    0    0 -0.10223130160E+00 -0.35428949903E+01 -0.42460504660E+01  0.55319675295E+01  0.10566000000E+00 0. -1.
        -13    1    4    4    0    0 -0.13642023277E+01 -0.18643698516E+02 -0.18523788731E+02  0.26317113355E+02  0.10566000000E+00 0.  1.
         14    1    4    4    0    0 -0.34558067795E+00 -0.14010114822E+02 -0.13207876878E+02  0.19257485687E+02  0.00000000000E+00 0. -1.
<mgrwt>
<rscale>  0 0.81804049E+02</rscale>
<asrwt>0</asrwt>
<pdfrwt beam="1">  1        1 0.43235201E-02 0.81804049E+02</pdfrwt>
<pdfrwt beam="2">  1       -2 0.91585225E-02 0.81804049E+02</pdfrwt>
<totfact> 0.11206115E+05</totfact>
</mgrwt>
</event>
<event>
 8    1  0.1241100E-024  0.7888856E+02  0.7818608E-02  0.1332235E+00
         -2   -1    0    0    0  501 -0.00000000000E+00  0.00000000000E+00  0.95114365422E+01  0.95114368841E+01  0.25500000000E-02 0.  1.
          1   -1    0    0  501    0  0.00000000000E+00 -0.00000000000E+00 -0.16357688096E+03  0.16357688103E+03  0.50400000000E-02 0. -1.
        -24    2    1    2    0    0  0.00000000000E+00  0.00000000000E+00 -0.15406544441E+03  0.17308831792E+03  0.78888558341E+02 0.  0.
         66    2    3    3    0    0  0.26253976239E+02 -0.28462239732E+02 -0.93276155281E+02  0.10101391750E+03  0.20000062225E+01 0.  0.
         13    1    3    3    0    0 -0.26253976239E+02  0.28462239732E+02 -0.60789289132E+02  0.72074400422E+02  0.10566000000E+00 0. -1.
         13    1    4    4    0    0  0.55477715326E+01 -0.54080925468E+01 -0.17068079327E+02  0.18744485320E+02  0.10566000000E+00 0. -1.
        -13    1    4    4    0    0  0.59249691426E+01 -0.63164866050E+01 -0.20864442766E+02  0.22590692737E+02  0.10566000000E+00 0.  1.
         14    1    4    4    0    0  0.14781235563E+02 -0.16737660580E+02 -0.55343633189E+02  0.59678739439E+02  0.00000000000E+00 0. -1.
<mgrwt>
<rscale>  0 0.78888558E+02</rscale>
<asrwt>0</asrwt>
<pdfrwt beam="1">  1        1 0.25165672E-01 0.78888558E+02</pdfrwt>
<pdfrwt beam="2">  1       -2 0.14632981E-02 0.78888558E+02</pdfrwt>
<totfact> 0.16654490E+05</totfact>
</mgrwt>
</event>
<event>
 8    1  0.1241100E-024  0.7875251E+02  0.7818608E-02  0.1332629E+00
         -2   -1    0    0    0  501 -0.00000000000E+00  0.00000000000E+00  0.41753062981E+02  0.41753063059E+02  0.25500000000E-02 0.  1.
          1   -1    0    0  501    0  0.00000000000E+00 -0.00000000000E+00 -0.37134746075E+02  0.37134746417E+02  0.50400000000E-02 0. -1.
        -24    2    1    2    0    0  0.00000000000E+00  0.00000000000E+00  0.46183169059E+01  0.78887809476E+02  0.78752508740E+02 0.  0.
         66    2    3    3    0    0 -0.24592367402E+02  0.15873124644E+02  0.28656853800E+02  0.41011655494E+02  0.19999990752E+01 0.  0.
         13    1    3    3    0    0  0.24592367402E+02 -0.15873124644E+02 -0.24038536894E+02  0.37876153981E+02  0.10566000000E+00 0. -1.
         13    1    4    4    0    0 -0.20853808256E+01  0.16032730170E+01  0.20955898582E+01  0.33648117992E+01  0.10566000000E+00 0. -1.
        -13    1    4    4    0    0 -0.38284544528E+00  0.22714850329E+00  0.29495017434E+00  0.54435899778E+00  0.10566000000E+00 0.  1.
        -14    1    4    4    0    0 -0.22124141131E+02  0.14042703123E+02  0.26266313767E+02  0.37102484697E+02  0.00000000000E+00 0.  1.
<mgrwt>
<rscale>  0 0.78752509E+02</rscale>
<asrwt>0</asrwt>
<pdfrwt beam="1">  1        1 0.57130379E-02 0.78752509E+02</pdfrwt>
<pdfrwt beam="2">  1       -2 0.64235481E-02 0.78752509E+02</pdfrwt>
<totfact> 0.13113604E+05</totfact>
</mgrwt>
</event>
