<event>
 8    1  0.1493610E-013  0.7943999E+02  0.7818608E-02  0.1330648E+00
          2   -1    0    0  501    0  0.00000000000E+00  0.00000000000E+00  0.12452824945E+02  0.12452825206E+02  0.25500000000E-02 0. -1.
         -1   -1    0    0    0  501 -0.00000000000E+00 -0.00000000000E+00 -0.12669239093E+03  0.12669239103E+03  0.50400000000E-02 0.  1.
         24    2    1    2    0    0  0.00000000000E+00  0.00000000000E+00 -0.11423956599E+03  0.13914521624E+03  0.79439994745E+02 0.  0.
         66    2    3    3    0    0 -0.16552331678E+02 -0.30480697570E+02 -0.90967237613E+02  0.97376028547E+02  0.20000020981E+01 0.  0.
        -13    1    3    3    0    0  0.16552331678E+02  0.30480697570E+02 -0.23272328372E+02  0.41769187689E+02  0.10566000000E+00 0.  1.
         13    1    4    4    0    0 -0.93413403613E+01 -0.15895235075E+02 -0.48650514392E+02  0.52026943524E+02  0.10566000000E+00 0. -1.
        -13    1    4    4    0    0 -0.28590027904E+01 -0.65849417924E+01 -0.19694564948E+02  0.20962404630E+02  0.10566000000E+00 0. -1.
         14    1    4    4    0    0 -0.43519885263E+01 -0.80005207028E+01 -0.22622158274E+02  0.24386680393E+02  0.00000000000E+00 0. -1.
<mgrwt>
<rscale>  0 0.79439995E+02</rscale>
<asrwt>0</asrwt>
<pdfrwt beam="1">  1        2 0.19158193E-02 0.79439995E+02</pdfrwt>
<pdfrwt beam="2">  1       -1 0.19491136E-01 0.79439995E+02</pdfrwt>
<totfact> 0.11442323E+05</totfact>
</mgrwt>
</event>
<event>
 8    1  0.1493610E-013  0.7995194E+02  0.7818608E-02  0.1329188E+00
         -1   -1    0    0    0  501 -0.00000000000E+00  0.00000000000E+00  0.11980847086E+01  0.11980953095E+01  0.50400000000E-02 0.  1.
          2   -1    0    0  501    0  0.00000000000E+00 -0.00000000000E+00 -0.13338549922E+04  0.13338549922E+04  0.25500000000E-02 0. -1.
         24    2    1    2    0    0  0.00000000000E+00  0.00000000000E+00 -0.13326569075E+04  0.13350530875E+04  0.79951944257E+02 0.  0.
         66    2    3    3    0    0 -0.13928891385E+02  0.85483496949E+01 -0.12754810510E+04  0.12755873156E+04  0.20000001472E+01 0.  0.
        -13    1    3    3    0    0  0.13928891385E+02 -0.85483496949E+01 -0.57175856496E+02  0.59465771902E+02  0.10566000000E+00 0.  1.
         13    1    4    4    0    0 -0.62488319990E+01  0.34579335643E+01 -0.53010093434E+03  0.53014905165E+03  0.10566000000E+00 0. -1.
        -13    1    4    4    0    0 -0.19058351602E+01  0.14351166874E+01 -0.15136063695E+03  0.15137947467E+03  0.10566000000E+00 0. -1.
         14    1    4    4    0    0 -0.57742242261E+01  0.36552994432E+01 -0.59401947970E+03  0.59405878930E+03  0.00000000000E+00 0. -1.
<mgrwt>
<rscale>  0 0.79951944E+02</rscale>
<asrwt>0</asrwt>
<pdfrwt beam="1">  1        2 0.20520727E+00 0.79951944E+02</pdfrwt>
<pdfrwt beam="2">  1       -1 0.18432261E-03 0.79951944E+02</pdfrwt>
<totfact> 0.34485776E+05</totfact>
</mgrwt>
</event>
<event>
 8    1  0.1493610E-013  0.8070238E+02  0.7818608E-02  0.1327070E+00
         -1   -1    0    0    0  501 -0.00000000000E+00  0.00000000000E+00  0.23670627100E+03  0.23670627105E+03  0.50400000000E-02 0.  1.
          2   -1    0    0  501    0  0.00000000000E+00 -0.00000000000E+00 -0.68786456057E+01  0.68786460784E+01  0.25500000000E-02 0. -1.
         24    2    1    2    0    0  0.00000000000E+00  0.35527136788E-14  0.22982762539E+03  0.24358491713E+03  0.80702381996E+02 0.  0.
         66    2    3    3    0    0 -0.31312208091E+02 -0.23319816889E+02  0.14545948410E+03  0.15062114642E+03  0.19999998240E+01 0.  0.
        -13    1    3    3    0    0  0.31312208091E+02  0.23319816889E+02  0.84368141291E+02  0.92963770707E+02  0.10566000000E+00 0.  1.
         13    1    4    4    0    0 -0.19752705447E+02 -0.13811816833E+02  0.89375363576E+02  0.92568366276E+02  0.10566000000E+00 0. -1.
        -13    1    4    4    0    0 -0.35908400326E+01 -0.31927558459E+01  0.16768463186E+02  0.17443633328E+02  0.10566000000E+00 0.  1.
        -14    1    4    4    0    0 -0.79686626109E+01 -0.63152442104E+01  0.39315657338E+02  0.40609146816E+02  0.00000000000E+00 0.  1.
<mgrwt>
<rscale>  0 0.80702382E+02</rscale>
<asrwt>0</asrwt>
<pdfrwt beam="1">  1        2 0.10582532E-02 0.80702382E+02</pdfrwt>
<pdfrwt beam="2">  1       -1 0.36416349E-01 0.80702382E+02</pdfrwt>
<totfact> 0.92288948E+04</totfact>
</mgrwt>
</event>
<event>
 8    1  0.1493610E-013  0.7941826E+02  0.7818608E-02  0.1330710E+00
          2   -1    0    0  501    0  0.00000000000E+00  0.00000000000E+00  0.16889817020E+04  0.16889817020E+04  0.25500000000E-02 0. -1.
         -1   -1    0    0    0  501 -0.00000000000E+00 -0.00000000000E+00 -0.93358239060E+00  0.93359599487E+00  0.50400000000E-02 0.  1.
         24    2    1    2    0    0 -0.88817841970E-15  0.00000000000E+00  0.16880481196E+04  0.16899152980E+04  0.79418261671E+02 0.  0.
         66    2    3    3    0    0 -0.75396071807E+01  0.83901950113E+01  0.16541461095E+04  0.16541857794E+04  0.20000004070E+01 0.  0.
        -13    1    3    3    0    0  0.75396071807E+01 -0.83901950113E+01  0.33902010102E+02  0.35729518634E+02  0.10566000000E+00 0.  1.
         13    1    4    4    0    0 -0.12245045326E+01  0.22004481435E+01  0.34599545312E+03  0.34600463310E+03  0.10566000000E+00 0. -1.
        -13    1    4    4    0    0 -0.10946035695E+01  0.17935379728E+01  0.29480389426E+03  0.29481140102E+03  0.10566000000E+00 0. -1.
         14    1    4    4    0    0 -0.52204990786E+01  0.43962088950E+01  0.10133467621E+04  0.10133697453E+04  0.00000000000E+00 0. -1.
<mgrwt>
<rscale>  0 0.79418262E+02</rscale>
<asrwt>0</asrwt>
<pdfrwt beam="1">  1        2 0.25984546E+00 0.79418262E+02</pdfrwt>
<pdfrwt beam="2">  1       -1 0.14362794E-03 0.79418262E+02</pdfrwt>
<totfact> 0.32054495E+05</totfact>
</mgrwt>
</event>
<event>
 8    1  0.1493610E-013  0.8056912E+02  0.7818608E-02  0.1327444E+00
         -1   -1    0    0    0  501 -0.00000000000E+00  0.00000000000E+00  0.26055694558E+01  0.26055743303E+01  0.50400000000E-02 0.  1.
          2   -1    0    0  501    0  0.00000000000E+00 -0.00000000000E+00 -0.62283666670E+03  0.62283666671E+03  0.25500000000E-02 0. -1.
         24    2    1    2    0    0  0.00000000000E+00  0.00000000000E+00 -0.62023109725E+03  0.62544224104E+03  0.80569118667E+02 0.  0.
         66    2    3    3    0    0  0.23401366821E+02 -0.24458997912E+02 -0.47948789505E+03  0.48068545647E+03  0.20000051938E+01 0.  0.
        -13    1    3    3    0    0 -0.23401366821E+02  0.24458997912E+02 -0.14074320220E+03  0.14475678456E+03  0.10566000000E+00 0.  1.
         13    1    4    4    0    0  0.88502103880E+01 -0.10259498131E+02 -0.18531476977E+03  0.18580946850E+03  0.10566000000E+00 0.  1.
        -13    1    4    4    0    0  0.98461542442E+01 -0.95455440470E+01 -0.20374667850E+03  0.20420769899E+03  0.10566000000E+00 0. -1.
        -14    1    4    4    0    0  0.47050021885E+01 -0.46539557342E+01 -0.90426446779E+02  0.90668288980E+02  0.00000000000E+00 0.  1.
<mgrwt>
<rscale>  0 0.80569119E+02</rscale>
<asrwt>0</asrwt>
<pdfrwt beam="1">  1        2 0.95820907E-01 0.80569119E+02</pdfrwt>
<pdfrwt beam="2">  1       -1 0.40085771E-03 0.80569119E+02</pdfrwt>
<totfact> 0.31899270E+05</totfact>
</mgrwt>
</event>
<event>
 8    1  0.1493610E-013  0.8124023E+02  0.7818608E-02  0.1325568E+00
          2   -1    0    0  501    0  0.00000000000E+00  0.00000000000E+00  0.10126535711E+04  0.10126535711E+04  0.25500000000E-02 0. -1.
         -1   -1    0    0    0  501 -0.00000000000E+00 -0.00000000000E+00 -0.16293724662E+01  0.16293802611E+01  0.50400000000E-02 0.  1.
         24    2    1    2    0    0  0.00000000000E+00  0.00000000000E+00  0.10110241986E+04  0.10142829514E+04  0.81240231445E+02 0.  0.
         66    2    3    3    0    0  0.18081729916E+02 -0.17598725400E+02  0.90285672515E+03  0.90321145378E+03  0.19999981668E+01 0.  0.
        -13    1    3    3    0    0 -0.18081729916E+02  0.17598725400E+02  0.10816747349E+03  0.11107149760E+03  0.10566000000E+00 0.  1.
         13    1    4    4    0    0  0.82867457397E+01 -0.82882671916E+01  0.44648579397E+03  0.44663960965E+03  0.10566000000E+00 0. -1.
        -13    1    4    4    0    0  0.60284089968E+01 -0.52612281675E+01  0.27885550695E+03  0.27897029798E+03  0.10566000000E+00 0.  1.
        -14    1    4    4    0    0  0.37665751795E+01 -0.40492300412E+01  0.17751542423E+03  0.17760154614E+03  0.00000000000E+00 0.  1.
<mgrwt>
<rscale>  0 0.81240231E+02</rscale>
<asrwt>0</asrwt>
<pdfrwt beam="1">  1        2 0.15579320E+00 0.81240231E+02</pdfrwt>
<pdfrwt beam="2">  1       -1 0.25067273E-03 0.81240231E+02</pdfrwt>
<totfact> 0.33866657E+05</totfact>
</mgrwt>
</event>
<event>
 8    1  0.1493610E-013  0.7820448E+02  0.7818608E-02  0.1334225E+00
         -1   -1    0    0    0  501 -0.00000000000E+00  0.00000000000E+00  0.27710058783E+02  0.27710059241E+02  0.50400000000E-02 0.  1.
          2   -1    0    0  501    0  0.00000000000E+00 -0.00000000000E+00 -0.55177987270E+02  0.55177987329E+02  0.25500000000E-02 0. -1.
         24    2    1    2    0    0  0.00000000000E+00  0.00000000000E+00 -0.27467928487E+02  0.82888046570E+02  0.78204483048E+02 0.  0.
         66    2    3    3    0    0 -0.22124480219E+02 -0.26463426078E+02  0.57190942291E+01  0.35021615896E+02  0.19999991102E+01 0.  0.
        -13    1    3    3    0    0  0.22124480219E+02  0.26463426078E+02 -0.33187022716E+02  0.47866430674E+02  0.10566000000E+00 0.  1.
         13    1    4    4    0    0 -0.18804964846E+02 -0.21956743732E+02  0.51352350426E+01  0.29361660395E+02  0.10566000000E+00 0. -1.
        -13    1    4    4    0    0 -0.11892096378E+01 -0.13049441578E+01 -0.97820755697E-02  0.17687166370E+01  0.10566000000E+00 0.  1.
         14    1    4    4    0    0 -0.21303057351E+01 -0.32017381873E+01  0.59364126202E+00  0.38912388636E+01  0.00000000000E+00 0. -1.
<mgrwt>
<rscale>  0 0.78204483E+02</rscale>
<asrwt>0</asrwt>
<pdfrwt beam="1">  1        2 0.84889211E-02 0.78204483E+02</pdfrwt>
<pdfrwt beam="2">  1       -1 0.42630860E-02 0.78204483E+02</pdfrwt>
<totfact> 0.16246523E+05</totfact>
</mgrwt>
</event>
<event>
 8    1  0.1493610E-013  0.8143690E+02  0.7818608E-02  0.1325022E+00
         -1   -1    0    0    0  501 -0.00000000000E+00  0.00000000000E+00  0.19883174611E+03  0.19883174618E+03  0.50400000000E-02 0.  1.
          2   -1    0    0  501    0  0.00000000000E+00 -0.00000000000E+00 -0.83386690303E+01  0.83386694202E+01  0.25500000000E-02 0. -1.
         24    2    1    2    0    0  0.00000000000E+00  0.00000000000E+00  0.19049307708E+03  0.20717041560E+03  0.81436900004E+02 0.  0.
         66    2    3    3    0    0  0.55193942402E+01 -0.31238958498E+02  0.30463298348E+02  0.44026682997E+02  0.20000071615E+01 0.  0.
        -13    1    3    3    0    0 -0.55193942402E+01  0.31238958498E+02  0.16002977873E+03  0.16314373260E+03  0.10566000000E+00 0.  1.
         13    1    4    4    0    0  0.21540928405E+01 -0.14262451676E+02  0.13591924219E+02  0.19819415021E+02  0.10566000000E+00 0. -1.
        -13    1    4    4    0    0  0.32983577988E+01 -0.16568817181E+02  0.16126643209E+02  0.23355612862E+02  0.10566000000E+00 0.  1.
        -14    1    4    4    0    0  0.66943600839E-01 -0.40768964150E+00  0.74473091959E+00  0.85165511334E+00  0.00000000000E+00 0.  1.
<mgrwt>
<rscale>  0 0.81436900E+02</rscale>
<asrwt>0</asrwt>
<pdfrwt beam="1">  1        2 0.12828721E-02 0.81436900E+02</pdfrwt>
<pdfrwt beam="2">  1       -1 0.30589501E-01 0.81436900E+02</pdfrwt>
<totfact> 0.95359068E+04</totfact>
</mgrwt>
</event>
<event>
 8    1  0.1493610E-013  0.7802385E+02  0.7818608E-02  0.1334755E+00
         -1   -1    0    0    0  501 -0.00000000000E+00  0.00000000000E+00  0.92938213230E+02  0.92938213367E+02  0.50400000000E-02 0.  1.
          2   -1    0    0  501    0  0.00000000000E+00 -0.00000000000E+00 -0.16375721806E+02  0.16375722004E+02  0.25500000000E-02 0. -1.
         24    2    1    2    0    0 -0.35527136788E-14 -0.35527136788E-14  0.76562491424E+02  0.10931393537E+03  0.78023851310E+02 0.  0.
         66    2    3    3    0    0  0.24512328083E+02  0.30272814496E+02  0.40577506527E+02  0.56283492909E+02  0.20000031346E+01 0.  0.
        -13    1    3    3    0    0 -0.24512328083E+02 -0.30272814496E+02  0.35984984898E+02  0.53030442462E+02  0.10566000000E+00 0.  1.
         13    1    4    4    0    0  0.90558245707E+01  0.11614023771E+02  0.15549568821E+02  0.21417137095E+02  0.10566000000E+00 0. -1.
        -13    1    4    4    0    0  0.12560659260E+02  0.15746396214E+02  0.20178557045E+02  0.28511479849E+02  0.10566000000E+00 0.  1.
        -14    1    4    4    0    0  0.28958442524E+01  0.29123945120E+01  0.48493806610E+01  0.63548759644E+01  0.00000000000E+00 0.  1.
<mgrwt>
<rscale>  0 0.78023851E+02</rscale>
<asrwt>0</asrwt>
<pdfrwt beam="1">  1        2 0.25193418E-02 0.78023851E+02</pdfrwt>
<pdfrwt beam="2">  1       -1 0.14298187E-01 0.78023851E+02</pdfrwt>
<totfact> 0.12810434E+05</totfact>
</mgrwt>
</event>
<event>
 8    1  0.1493610E-013  0.7521193E+02  0.7818608E-02  0.1343216E+00
          2   -1    0    0  501    0  0.00000000000E+00  0.00000000000E+00  0.32930859247E+03  0.32930859248E+03  0.25500000000E-02 0. -1.
         -1   -1    0    0    0  501 -0.00000000000E+00 -0.00000000000E+00 -0.42944763070E+01  0.42944792645E+01  0.50400000000E-02 0.  1.
         24    2    1    2    0    0  0.00000000000E+00  0.44408920985E-15  0.32501411616E+03  0.33360307174E+03  0.75211925730E+02 0.  0.
         66    2    3    3    0    0 -0.32306091885E+02  0.36212406902E+01  0.24624086196E+03  0.24838550490E+03  0.19999971884E+01 0.  0.
        -13    1    3    3    0    0  0.32306091885E+02 -0.36212406902E+01  0.78773254202E+02  0.85217566843E+02  0.10566000000E+00 0.  1.
         13    1    4    4    0    0 -0.71347633512E+01  0.10892752462E+01  0.54285290949E+02  0.54763083790E+02  0.10566000000E+00 0. -1.
        -13    1    4    4    0    0 -0.63196680718E+01 -0.71503825998E-01  0.47825750006E+02  0.48241650522E+02  0.10566000000E+00 0.  1.
        -14    1    4    4    0    0 -0.18851660462E+02  0.26034692700E+01  0.14412982100E+03  0.14538077059E+03  0.00000000000E+00 0.  1.
<mgrwt>
<rscale>  0 0.75211926E+02</rscale>
<asrwt>0</asrwt>
<pdfrwt beam="1">  1        2 0.50662864E-01 0.75211926E+02</pdfrwt>
<pdfrwt beam="2">  1       -1 0.66068885E-03 0.75211926E+02</pdfrwt>
<totfact> 0.30976364E+05</totfact>
</mgrwt>
</event>
<event>
 8    1  0.1493610E-013  0.8054669E+02  0.7818608E-02  0.1327507E+00
          2   -1    0    0  501    0  0.00000000000E+00  0.00000000000E+00  0.16439513342E+03  0.16439513344E+03  0.25500000000E-02 0. -1.
         -1   -1    0    0    0  501 -0.00000000000E+00 -0.00000000000E+00 -0.98661210908E+01  0.98661223781E+01  0.50400000000E-02 0.  1.
         24    2    1    2    0    0  0.17763568394E-14  0.00000000000E+00  0.15452901233E+03  0.17426125582E+03  0.80546692221E+02 0.  0.
         66    2    3    3    0    0  0.11384737268E+02  0.10713708332E+02  0.15755184055E+03  0.15833817686E+03  0.20000004289E+01 0.  0.
        -13    1    3    3    0    0 -0.11384737268E+02 -0.10713708332E+02 -0.30228282243E+01  0.15923078955E+02  0.10566000000E+00 0.  1.
         13    1    4    4    0    0  0.79622234794E+01  0.72339740419E+01  0.11529123995E+03  0.11579209194E+03  0.10566000000E+00 0. -1.
        -13    1    4    4    0    0  0.17153193955E+01  0.21715270225E+01  0.24045625784E+02  0.24204568445E+02  0.10566000000E+00 0.  1.
         14    1    4    4    0    0  0.17071943933E+01  0.13082072674E+01  0.18214974823E+02  0.18341516479E+02  0.00000000000E+00 0. -1.
<mgrwt>
<rscale>  0 0.80546692E+02</rscale>
<asrwt>0</asrwt>
<pdfrwt beam="1">  1        2 0.25291557E-01 0.80546692E+02</pdfrwt>
<pdfrwt beam="2">  1       -1 0.15178650E-02 0.80546692E+02</pdfrwt>
<totfact> 0.20269208E+05</totfact>
</mgrwt>
</event>
<event>
 8    1  0.1493610E-013  0.8131722E+02  0.7818608E-02  0.1325354E+00
         -1   -1    0    0    0  501 -0.00000000000E+00  0.00000000000E+00  0.33099189692E+01  0.33099228064E+01  0.50400000000E-02 0.  1.
          2   -1    0    0  501    0  0.00000000000E+00 -0.00000000000E+00 -0.49944474875E+03  0.49944474876E+03  0.25500000000E-02 0. -1.
         24    2    1    2    0    0  0.88817841970E-15  0.00000000000E+00 -0.49613482979E+03  0.50275467157E+03  0.81317221158E+02 0.  0.
         66    2    3    3    0    0  0.56725489974E+01 -0.39416994122E+02 -0.29815514068E+03  0.30080951639E+03  0.19999996328E+01 0.  0.
        -13    1    3    3    0    0 -0.56725489974E+01  0.39416994122E+02 -0.19797968911E+03  0.20194515518E+03  0.10566000000E+00 0.  1.
         13    1    4    4    0    0  0.23223951068E+01 -0.21091556982E+02 -0.16121215387E+03  0.16260263533E+03  0.10566000000E+00 0. -1.
        -13    1    4    4    0    0  0.79732206304E+00 -0.28144790541E+01 -0.22154922872E+02  0.22347455925E+02  0.10566000000E+00 0.  1.
        -14    1    4    4    0    0  0.25528318276E+01 -0.15510958086E+02 -0.11478806393E+03  0.11585942513E+03  0.00000000000E+00 0.  1.
<mgrwt>
<rscale>  0 0.81317221E+02</rscale>
<asrwt>0</asrwt>
<pdfrwt beam="1">  1        2 0.76837594E-01 0.81317221E+02</pdfrwt>
<pdfrwt beam="2">  1       -1 0.50921900E-03 0.81317221E+02</pdfrwt>
<totfact> 0.29171094E+05</totfact>
</mgrwt>
</event>
<event>
 8    1  0.1493610E-013  0.7868583E+02  0.7818608E-02  0.1332823E+00
         -1   -1    0    0    0  501 -0.00000000000E+00  0.00000000000E+00  0.32267532826E+01  0.32267572187E+01  0.50400000000E-02 0.  1.
          2   -1    0    0  501    0  0.00000000000E+00 -0.00000000000E+00 -0.47969709725E+03  0.47969709726E+03  0.25500000000E-02 0. -1.
         24    2    1    2    0    0 -0.35527136788E-14  0.00000000000E+00 -0.47647034397E+03  0.48292385448E+03  0.78685834437E+02 0.  0.
         66    2    3    3    0    0  0.25002616682E+02 -0.22054803942E+02 -0.36629276665E+03  0.36781236536E+03  0.19999992562E+01 0.  0.
        -13    1    3    3    0    0 -0.25002616682E+02  0.22054803942E+02 -0.11017757732E+03  0.11511148912E+03  0.10566000000E+00 0.  1.
         13    1    4    4    0    0  0.10655083310E+02 -0.10408411681E+02 -0.16598498597E+03  0.16665201038E+03  0.10566000000E+00 0. -1.
        -13    1    4    4    0    0  0.82168789415E+01 -0.61630622772E+01 -0.11328215826E+03  0.11374690756E+03  0.10566000000E+00 0.  1.
         14    1    4    4    0    0  0.61306544308E+01 -0.54833299838E+01 -0.87025622422E+02  0.87413447417E+02  0.00000000000E+00 0. -1.
<mgrwt>
<rscale>  0 0.78685834E+02</rscale>
<asrwt>0</asrwt>
<pdfrwt beam="1">  1        2 0.73799497E-01 0.78685834E+02</pdfrwt>
<pdfrwt beam="2">  1       -1 0.49642427E-03 0.78685834E+02</pdfrwt>
<totfact> 0.31372099E+05</totfact>
</mgrwt>
</event>
<event>
 8    1  0.1493610E-013  0.7901686E+02  0.7818608E-02  0.1331865E+00
          2   -1    0    0  501    0  0.00000000000E+00  0.00000000000E+00  0.82055567922E+03  0.82055567922E+03  0.25500000000E-02 0. -1.
         -1   -1    0    0    0  501 -0.00000000000E+00 -0.00000000000E+00 -0.19022636382E+01  0.19022703148E+01  0.50400000000E-02 0.  1.
         24    2    1    2    0    0  0.00000000000E+00  0.00000000000E+00  0.81865341558E+03  0.82245794953E+03  0.79016858428E+02 0.  0.
         66    2    3    3    0    0  0.23931844269E+02 -0.13805054347E+02  0.70317795294E+03  0.70372334493E+03  0.20000000470E+01 0.  0.
        -13    1    3    3    0    0 -0.23931844269E+02  0.13805054347E+02  0.11547546264E+03  0.11873460460E+03  0.10566000000E+00 0.  1.
         13    1    4    4    0    0  0.13361909671E+02 -0.84503756078E+01  0.40027610596E+03  0.40058821955E+03  0.10566000000E+00 0. -1.
        -13    1    4    4    0    0  0.42075641851E+01 -0.22130359476E+01  0.10968805016E+03  0.10979107721E+03  0.10566000000E+00 0.  1.
        -14    1    4    4    0    0  0.63623704133E+01 -0.31416427917E+01  0.19321379682E+03  0.19334404816E+03  0.00000000000E+00 0.  1.
<mgrwt>
<rscale>  0 0.79016858E+02</rscale>
<asrwt>0</asrwt>
<pdfrwt beam="1">  1        2 0.12623963E+00 0.79016858E+02</pdfrwt>
<pdfrwt beam="2">  1       -1 0.29265576E-03 0.79016858E+02</pdfrwt>
<totfact> 0.35636653E+05</totfact>
</mgrwt>
</event>
<event>
 8    1  0.1493610E-013  0.7897542E+02  0.7818608E-02  0.1331984E+00
         -1   -1    0    0    0  501 -0.00000000000E+00  0.00000000000E+00  0.19279872666E+02  0.19279873324E+02  0.50400000000E-02 0.  1.
          2   -1    0    0  501    0  0.00000000000E+00 -0.00000000000E+00 -0.80876008204E+02  0.80876008244E+02  0.25500000000E-02 0. -1.
         24    2    1    2    0    0  0.71054273576E-14 -0.22204460493E-15 -0.61596135538E+02  0.10015588157E+03  0.78975418324E+02 0.  0.
         66    2    3    3    0    0 -0.36236551100E+02  0.90301857201E+00 -0.50601990634E+02  0.62277319500E+02  0.19999974383E+01 0.  0.
        -13    1    3    3    0    0  0.36236551100E+02 -0.90301857201E+00 -0.10994144904E+02  0.37878562069E+02  0.10566000000E+00 0.  1.
         13    1    4    4    0    0 -0.93330578507E+01  0.27623185344E+00 -0.12717815421E+02  0.15777714220E+02  0.10566000000E+00 0. -1.
        -13    1    4    4    0    0 -0.13215366570E+02 -0.52663136720E+00 -0.18636828145E+02  0.22853135048E+02  0.10566000000E+00 0.  1.
        -14    1    4    4    0    0 -0.13688126680E+02  0.11534180858E+01 -0.19247347068E+02  0.23646470232E+02  0.00000000000E+00 0.  1.
<mgrwt>
<rscale>  0 0.78975418E+02</rscale>
<asrwt>0</asrwt>
<pdfrwt beam="1">  1        2 0.12442463E-01 0.78975418E+02</pdfrwt>
<pdfrwt beam="2">  1       -1 0.29661344E-02 0.78975418E+02</pdfrwt>
<totfact> 0.17333869E+05</totfact>
</mgrwt>
</event>
<event>
 8    1  0.1493610E-013  0.8019194E+02  0.7818608E-02  0.1328508E+00
          2   -1    0    0  501    0  0.00000000000E+00  0.00000000000E+00  0.66396787849E+03  0.66396787849E+03  0.25500000000E-02 0. -1.
         -1   -1    0    0    0  501 -0.00000000000E+00 -0.00000000000E+00 -0.24213293808E+01  0.24213346262E+01  0.50400000000E-02 0.  1.
         24    2    1    2    0    0  0.35527136788E-14  0.00000000000E+00  0.66154654911E+03  0.66638921312E+03  0.80191936788E+02 0.  0.
         66    2    3    3    0    0  0.30503042372E+02 -0.55785190413E+01  0.54188144376E+03  0.54277164127E+03  0.20000011300E+01 0.  0.
        -13    1    3    3    0    0 -0.30503042372E+02  0.55785190413E+01  0.11966510535E+03  0.12361757185E+03  0.10566000000E+00 0.  1.
         13    1    4    4    0    0  0.49329660864E+01 -0.10691240977E+01  0.98119165317E+02  0.98248964103E+02  0.10566000000E+00 0.  1.
        -13    1    4    4    0    0  0.15423537979E+02 -0.22070629662E+01  0.26986962779E+03  0.27031904080E+03  0.10566000000E+00 0. -1.
        -14    1    4    4    0    0  0.10146538307E+02 -0.23023319773E+01  0.17389265065E+03  0.17420363636E+03  0.00000000000E+00 0.  1.
<mgrwt>
<rscale>  0 0.80191937E+02</rscale>
<asrwt>0</asrwt>
<pdfrwt beam="1">  1        2 0.10214896E+00 0.80191937E+02</pdfrwt>
<pdfrwt beam="2">  1       -1 0.37251241E-03 0.80191937E+02</pdfrwt>
<totfact> 0.32827884E+05</totfact>
</mgrwt>
</event>
<event>
 8    1  0.1493610E-013  0.7999743E+02  0.7818608E-02  0.1329059E+00
         -1   -1    0    0    0  501 -0.00000000000E+00  0.00000000000E+00  0.88300398839E+02  0.88300398983E+02  0.50400000000E-02 0.  1.
          2   -1    0    0  501    0  0.00000000000E+00 -0.00000000000E+00 -0.18118798807E+02  0.18118798986E+02  0.25500000000E-02 0. -1.
         24    2    1    2    0    0  0.00000000000E+00 -0.35527136788E-14  0.70181600032E+02  0.10641919797E+03  0.79997429417E+02 0.  0.
         66    2    3    3    0    0 -0.79629023172E+01 -0.25920806537E+02 -0.39577157623E+01  0.27476526775E+02  0.19999961707E+01 0.  0.
        -13    1    3    3    0    0  0.79629023172E+01  0.25920806537E+02  0.74139315794E+02  0.78942671194E+02  0.10566000000E+00 0.  1.
         13    1    4    4    0    0 -0.51062453432E+01 -0.13458073383E+02 -0.21283044476E+01  0.14551093586E+02  0.10566000000E+00 0. -1.
        -13    1    4    4    0    0 -0.12607481366E+00 -0.71030527401E+00 -0.13652477265E+00  0.74177590286E+00  0.10566000000E+00 0. -1.
         14    1    4    4    0    0 -0.27305821604E+01 -0.11752427880E+02 -0.16928865421E+01  0.12183657286E+02  0.00000000000E+00 0. -1.
<mgrwt>
<rscale>  0 0.79997429E+02</rscale>
<asrwt>0</asrwt>
<pdfrwt beam="1">  1        2 0.27875075E-02 0.79997429E+02</pdfrwt>
<pdfrwt beam="2">  1       -1 0.13584677E-01 0.79997429E+02</pdfrwt>
<totfact> 0.12168490E+05</totfact>
</mgrwt>
</event>
<event>
 8    1  0.1493610E-013  0.8340182E+02  0.7818608E-02  0.1319666E+00
         -1   -1    0    0    0  501 -0.00000000000E+00  0.00000000000E+00  0.68843208038E+02  0.68843208223E+02  0.50400000000E-02 0.  1.
          2   -1    0    0  501    0  0.00000000000E+00 -0.00000000000E+00 -0.25259805544E+02  0.25259805673E+02  0.25500000000E-02 0. -1.
         24    2    1    2    0    0  0.35527136788E-14 -0.35527136788E-14  0.43583402494E+02  0.94103013896E+02  0.83401824029E+02 0.  0.
         66    2    3    3    0    0  0.17895766121E+02 -0.18274675518E+02 -0.15322801086E+02  0.29883280211E+02  0.19999981642E+01 0.  0.
        -13    1    3    3    0    0 -0.17895766121E+02  0.18274675518E+02  0.58906203580E+02  0.64219733685E+02  0.10566000000E+00 0.  1.
         13    1    4    4    0    0  0.57868302177E+01 -0.54366384300E+01 -0.45006557334E+01  0.91275137608E+01  0.10566000000E+00 0. -1.
        -13    1    4    4    0    0  0.10123692192E+02 -0.10918127779E+02 -0.97236916699E+01  0.17783587983E+02  0.10566000000E+00 0.  1.
        -14    1    4    4    0    0  0.19852437115E+01 -0.19199093084E+01 -0.10984536830E+01  0.29721784670E+01  0.00000000000E+00 0.  1.
<mgrwt>
<rscale>  0 0.83401824E+02</rscale>
<asrwt>0</asrwt>
<pdfrwt beam="1">  1        2 0.38861240E-02 0.83401824E+02</pdfrwt>
<pdfrwt beam="2">  1       -1 0.10591263E-01 0.83401824E+02</pdfrwt>
<totfact> 0.11555631E+05</totfact>
</mgrwt>
</event>
<event>
 8    1  0.1493610E-013  0.8138873E+02  0.7818608E-02  0.1325156E+00
          2   -1    0    0  501    0  0.00000000000E+00  0.00000000000E+00  0.32880618010E+02  0.32880618109E+02  0.25500000000E-02 0. -1.
         -1   -1    0    0    0  501 -0.00000000000E+00 -0.00000000000E+00 -0.50364968432E+02  0.50364968684E+02  0.50400000000E-02 0.  1.
         24    2    1    2    0    0  0.00000000000E+00  0.00000000000E+00 -0.17484350421E+02  0.83245586793E+02  0.81388729016E+02 0.  0.
         66    2    3    3    0    0 -0.16630631440E+02  0.14718380022E+02  0.26100649357E+02  0.34328596061E+02  0.19999995229E+01 0.  0.
        -13    1    3    3    0    0  0.16630631440E+02 -0.14718380022E+02 -0.43584999778E+02  0.48916990732E+02  0.10566000000E+00 0.  1.
         13    1    4    4    0    0 -0.52682914661E+01  0.47349291976E+01  0.72403084941E+01  0.10129544936E+02  0.10566000000E+00 0. -1.
        -13    1    4    4    0    0 -0.51283695922E+01  0.50120692794E+01  0.83649511798E+01  0.11018374899E+02  0.10566000000E+00 0.  1.
        -14    1    4    4    0    0 -0.62339703816E+01  0.49713815454E+01  0.10495389683E+02  0.13180676227E+02  0.00000000000E+00 0.  1.
<mgrwt>
<rscale>  0 0.81388729E+02</rscale>
<asrwt>0</asrwt>
<pdfrwt beam="1">  1        2 0.50585566E-02 0.81388729E+02</pdfrwt>
<pdfrwt beam="2">  1       -1 0.77484567E-02 0.81388729E+02</pdfrwt>
<totfact> 0.13058657E+05</totfact>
</mgrwt>
</event>
<event>
 8    1  0.1493610E-013  0.7479252E+02  0.7818608E-02  0.1344515E+00
         -1   -1    0    0    0  501 -0.00000000000E+00  0.00000000000E+00  0.81891959318E+02  0.81891959473E+02  0.50400000000E-02 0.  1.
          2   -1    0    0  501    0  0.00000000000E+00 -0.00000000000E+00 -0.17077137029E+02  0.17077137219E+02  0.25500000000E-02 0. -1.
         24    2    1    2    0    0  0.00000000000E+00  0.35527136788E-14  0.64814822289E+02  0.98969096692E+02  0.74792519089E+02 0.  0.
         66    2    3    3    0    0 -0.15786789342E+02  0.20175326561E+02 -0.35708129648E+01  0.25942575532E+02  0.20000001087E+01 0.  0.
        -13    1    3    3    0    0  0.15786789342E+02 -0.20175326561E+02  0.68385635254E+02  0.73026521160E+02  0.10566000000E+00 0.  1.
         13    1    4    4    0    0 -0.98666996076E+01  0.13301121019E+02 -0.26320547946E+01  0.16769330875E+02  0.10566000000E+00 0. -1.
        -13    1    4    4    0    0 -0.15512031900E+01  0.22273949732E+01  0.62225315962E-01  0.27170858891E+01  0.10566000000E+00 0.  1.
        -14    1    4    4    0    0 -0.43688865446E+01  0.46468105685E+01 -0.10009834861E+01  0.64561587680E+01  0.00000000000E+00 0.  1.
<mgrwt>
<rscale>  0 0.74792519E+02</rscale>
<asrwt>0</asrwt>
<pdfrwt beam="1">  1        2 0.26272519E-02 0.74792519E+02</pdfrwt>
<pdfrwt beam="2">  1       -1 0.12598763E-01 0.74792519E+02</pdfrwt>
<totfact> 0.14592875E+05</totfact>
</mgrwt>
</event>
<event>
 8    1  0.1493610E-013  0.7987797E+02  0.7818608E-02  0.1329398E+00
          2   -1    0    0  501    0  0.00000000000E+00  0.00000000000E+00  0.10105752926E+03  0.10105752929E+03  0.25500000000E-02 0. -1.
         -1   -1    0    0    0  501 -0.00000000000E+00 -0.00000000000E+00 -0.15784302865E+02  0.15784303669E+02  0.50400000000E-02 0.  1.
         24    2    1    2    0    0  0.00000000000E+00  0.17763568394E-14  0.85273226394E+02  0.11684183296E+03  0.79877974373E+02 0.  0.
         66    2    3    3    0    0 -0.13100516889E+02 -0.12976652629E+02  0.94443536865E+02  0.96247590697E+02  0.20000007907E+01 0.  0.
        -13    1    3    3    0    0  0.13100516889E+02  0.12976652629E+02 -0.91703104710E+01  0.20594242263E+02  0.10566000000E+00 0.  1.
         13    1    4    4    0    0 -0.10487201138E+01 -0.92422717953E+00  0.96909213983E+01  0.97917889755E+01  0.10566000000E+00 0.  1.
        -13    1    4    4    0    0 -0.47792456697E+01 -0.53139275063E+01  0.37246186066E+02  0.37925829658E+02  0.10566000000E+00 0. -1.
         14    1    4    4    0    0 -0.72725511060E+01 -0.67384979433E+01  0.47506429400E+02  0.48529972064E+02  0.00000000000E+00 0. -1.
<mgrwt>
<rscale>  0 0.79877974E+02</rscale>
<asrwt>0</asrwt>
<pdfrwt beam="1">  1        2 0.15547313E-01 0.79877974E+02</pdfrwt>
<pdfrwt beam="2">  1       -1 0.24283543E-02 0.79877974E+02</pdfrwt>
<totfact> 0.17851046E+05</totfact>
</mgrwt>
</event>
<event>
 8    1  0.1493610E-013  0.7548725E+02  0.7818608E-02  0.1342369E+00
          2   -1    0    0  501    0  0.00000000000E+00  0.00000000000E+00  0.46675848323E+02  0.46675848393E+02  0.25500000000E-02 0. -1.
         -1   -1    0    0    0  501 -0.00000000000E+00 -0.00000000000E+00 -0.30520732921E+02  0.30520733337E+02  0.50400000000E-02 0.  1.
         24    2    1    2    0    0  0.00000000000E+00 -0.17763568394E-14  0.16155115402E+02  0.77196581729E+02  0.75487247115E+02 0.  0.
         66    2    3    3    0    0 -0.12707086345E+02 -0.15796324393E+02  0.40608795640E+02  0.45432017371E+02  0.20000028367E+01 0.  0.
        -13    1    3    3    0    0  0.12707086345E+02  0.15796324393E+02 -0.24453680237E+02  0.31764564359E+02  0.10566000000E+00 0.  1.
         13    1    4    4    0    0 -0.26738851861E+01 -0.27790892797E+01  0.79003700960E+01  0.87920424761E+01  0.10566000000E+00 0. -1.
        -13    1    4    4    0    0 -0.52881320817E+01 -0.64078967455E+01  0.14876969527E+02  0.17039978520E+02  0.10566000000E+00 0.  1.
         14    1    4    4    0    0 -0.47450690769E+01 -0.66093383683E+01  0.17831456017E+02  0.19599996375E+02  0.00000000000E+00 0. -1.
<mgrwt>
<rscale>  0 0.75487247E+02</rscale>
<asrwt>0</asrwt>
<pdfrwt beam="1">  1        2 0.71808998E-02 0.75487247E+02</pdfrwt>
<pdfrwt beam="2">  1       -1 0.46954974E-02 0.75487247E+02</pdfrwt>
<totfact> 0.17257137E+05</totfact>
</mgrwt>
</event>
<event>
 8    1  0.1493610E-013  0.7961445E+02  0.7818608E-02  0.1330149E+00
         -1   -1    0    0    0  501 -0.00000000000E+00  0.00000000000E+00  0.47659164982E+01  0.47659191631E+01  0.50400000000E-02 0.  1.
          2   -1    0    0  501    0  0.00000000000E+00 -0.00000000000E+00 -0.33248898367E+03  0.33248898368E+03  0.25500000000E-02 0. -1.
         24    2    1    2    0    0  0.00000000000E+00  0.00000000000E+00 -0.32772306717E+03  0.33725490284E+03  0.79614450542E+02 0.  0.
         66    2    3    3    0    0  0.74879278209E+01  0.24509852905E+02 -0.29285693005E+03  0.29398296466E+03  0.20000195977E+01 0.  0.
        -13    1    3    3    0    0 -0.74879278209E+01 -0.24509852905E+02 -0.34866137125E+02  0.43271938188E+02  0.10566000000E+00 0.  1.
         13    1    4    4    0    0  0.28401332648E+01  0.12145310308E+02 -0.13987453597E+03  0.14042959765E+03  0.10566000000E+00 0. -1.
        -13    1    4    4    0    0  0.10911915184E+01  0.23223939839E+01 -0.31904072907E+02  0.32007268625E+02  0.10566000000E+00 0.  1.
         14    1    4    4    0    0  0.35566030377E+01  0.10042148613E+02 -0.12107832117E+03  0.12154609838E+03  0.00000000000E+00 0. -1.
<mgrwt>
<rscale>  0 0.79614451E+02</rscale>
<asrwt>0</asrwt>
<pdfrwt beam="1">  1        2 0.51152133E-01 0.79614451E+02</pdfrwt>
<pdfrwt beam="2">  1       -1 0.73321839E-03 0.79614451E+02</pdfrwt>
<totfact> 0.26795218E+05</totfact>
</mgrwt>
</event>
<event>
 8    1  0.1493610E-013  0.7943788E+02  0.7818608E-02  0.1330654E+00
          2   -1    0    0  501    0  0.00000000000E+00  0.00000000000E+00  0.29320617802E+02  0.29320617913E+02  0.25500000000E-02 0. -1.
         -1   -1    0    0    0  501 -0.00000000000E+00 -0.00000000000E+00 -0.53804939782E+02  0.53804940018E+02  0.50400000000E-02 0.  1.
         24    2    1    2    0    0  0.00000000000E+00  0.00000000000E+00 -0.24484321980E+02  0.83125557931E+02  0.79437877354E+02 0.  0.
         66    2    3    3    0    0 -0.16281657399E+02 -0.68254631577E+01  0.24951989425E+02  0.30631373831E+02  0.19999928808E+01 0.  0.
        -13    1    3    3    0    0  0.16281657399E+02  0.68254631577E+01 -0.49436311405E+02  0.52494184100E+02  0.10566000000E+00 0.  1.
         13    1    4    4    0    0 -0.10446634823E+02 -0.47355240922E+01  0.17571905615E+02  0.20984289326E+02  0.10566000000E+00 0. -1.
        -13    1    4    4    0    0 -0.20644051397E+01 -0.65901593008E+00  0.23200400415E+01  0.31764477655E+01  0.10566000000E+00 0. -1.
         14    1    4    4    0    0 -0.37706174356E+01 -0.14309231354E+01  0.50600437687E+01  0.64706367389E+01  0.00000000000E+00 0. -1.
<mgrwt>
<rscale>  0 0.79437877E+02</rscale>
<asrwt>0</asrwt>
<pdfrwt beam="1">  1        2 0.45108643E-02 0.79437877E+02</pdfrwt>
<pdfrwt beam="2">  1       -1 0.82776831E-02 0.79437877E+02</pdfrwt>
<totfact> 0.13662084E+05</totfact>
</mgrwt>
</event>
<event>
 8    1  0.1493610E-013  0.7953674E+02  0.7818608E-02  0.1330371E+00
          2   -1    0    0  501    0  0.00000000000E+00  0.00000000000E+00  0.42522733310E+03  0.42522733311E+03  0.25500000000E-02 0. -1.
         -1   -1    0    0    0  501 -0.00000000000E+00 -0.00000000000E+00 -0.37192401798E+01  0.37192435947E+01  0.50400000000E-02 0.  1.
         24    2    1    2    0    0  0.00000000000E+00  0.00000000000E+00  0.42150809292E+03  0.42894657670E+03  0.79536741619E+02 0.  0.
         66    2    3    3    0    0  0.34796574707E+02 -0.94844089496E+01  0.30093051813E+03  0.30309063393E+03  0.20000025667E+01 0.  0.
        -13    1    3    3    0    0 -0.34796574707E+02  0.94844089496E+01  0.12057757479E+03  0.12585594277E+03  0.10566000000E+00 0.  1.
         13    1    4    4    0    0  0.16472920176E+02 -0.54968939342E+01  0.14556296737E+03  0.14659523040E+03  0.10566000000E+00 0. -1.
        -13    1    4    4    0    0  0.14419434693E+02 -0.31617909283E+01  0.12145117261E+03  0.12234506738E+03  0.10566000000E+00 0.  1.
         14    1    4    4    0    0  0.39042198391E+01 -0.82572408718E+00  0.33916378145E+02  0.34150336152E+02  0.00000000000E+00 0. -1.
<mgrwt>
<rscale>  0 0.79536742E+02</rscale>
<asrwt>0</asrwt>
<pdfrwt beam="1">  1        2 0.65419571E-01 0.79536742E+02</pdfrwt>
<pdfrwt beam="2">  1       -1 0.57219123E-03 0.79536742E+02</pdfrwt>
<totfact> 0.29299227E+05</totfact>
</mgrwt>
</event>
<event>
 8    1  0.1493610E-013  0.7996631E+02  0.7818608E-02  0.1329147E+00
          2   -1    0    0  501    0  0.00000000000E+00  0.00000000000E+00  0.17820824920E+02  0.17820825103E+02  0.25500000000E-02 0. -1.
         -1   -1    0    0    0  501 -0.00000000000E+00 -0.00000000000E+00 -0.89707005851E+02  0.89707005993E+02  0.50400000000E-02 0.  1.
         24    2    1    2    0    0 -0.88817841970E-15  0.17763568394E-14 -0.71886180931E+02  0.10752783110E+03  0.79966314479E+02 0.  0.
         66    2    3    3    0    0 -0.66791103505E+01  0.13464174665E+02  0.13818911116E+02  0.20514794824E+02  0.19999969356E+01 0.  0.
        -13    1    3    3    0    0  0.66791103505E+01 -0.13464174665E+02 -0.85705092047E+02  0.87013036272E+02  0.10566000000E+00 0.  1.
         13    1    4    4    0    0 -0.16577786105E+01  0.30308972278E+01  0.32812161876E+01  0.47657225719E+01  0.10566000000E+00 0. -1.
        -13    1    4    4    0    0 -0.20863853713E+01  0.62797252979E+01  0.58990572252E+01  0.88655509652E+01  0.10566000000E+00 0.  1.
        -14    1    4    4    0    0 -0.29349463687E+01  0.41535521388E+01  0.46386377033E+01  0.68835212864E+01  0.00000000000E+00 0.  1.
<mgrwt>
<rscale>  0 0.79966314E+02</rscale>
<asrwt>0</asrwt>
<pdfrwt beam="1">  1        2 0.27416655E-02 0.79966314E+02</pdfrwt>
<pdfrwt beam="2">  1       -1 0.13801078E-01 0.79966314E+02</pdfrwt>
<totfact> 0.12140376E+05</totfact>
</mgrwt>
</event>
<event>
 8    1  0.1493610E-013  0.9010462E+02  0.7818608E-02  0.1302599E+00
         -1   -1    0    0    0  501 -0.00000000000E+00  0.00000000000E+00  0.18945464298E+01  0.18945531337E+01  0.50400000000E-02 0.  1.
          2   -1    0    0  501    0  0.00000000000E+00 -0.00000000000E+00 -0.10713418226E+04  0.10713418226E+04  0.25500000000E-02 0. -1.
         24    2    1    2    0    0 -0.17763568394E-14 -0.17763568394E-14 -0.10694472761E+04  0.10732363757E+04  0.90104615290E+02 0.  0.
         66    2    3    3    0    0  0.15101733302E+02  0.10772626279E+02 -0.10237140664E+04  0.10238840763E+04  0.19999998625E+01 0.  0.
        -13    1    3    3    0    0 -0.15101733302E+02 -0.10772626279E+02 -0.45733209719E+02  0.49352299449E+02  0.10566000000E+00 0.  1.
         13    1    4    4    0    0  0.70161211114E+01  0.54675812565E+01 -0.45556787739E+03  0.45565471848E+03  0.10566000000E+00 0. -1.
        -13    1    4    4    0    0  0.17181434127E+01  0.12949864296E+01 -0.14996497019E+03  0.14998044025E+03  0.10566000000E+00 0.  1.
         14    1    4    4    0    0  0.63674687781E+01  0.40100585931E+01 -0.41818121885E+03  0.41824891754E+03  0.00000000000E+00 0. -1.
<mgrwt>
<rscale>  0 0.90104615E+02</rscale>
<asrwt>0</asrwt>
<pdfrwt beam="1">  1        2 0.16482133E+00 0.90104615E+02</pdfrwt>
<pdfrwt beam="2">  1       -1 0.29147006E-03 0.90104615E+02</pdfrwt>
<totfact> 0.25852494E+05</totfact>
</mgrwt>
</event>
<event>
 8    1  0.1493610E-013  0.7858664E+02  0.7818608E-02  0.1333111E+00
         -1   -1    0    0    0  501 -0.00000000000E+00  0.00000000000E+00  0.55066596244E+01  0.55066619308E+01  0.50400000000E-02 0.  1.
          2   -1    0    0  501    0  0.00000000000E+00 -0.00000000000E+00 -0.28038132463E+03  0.28038132464E+03  0.25500000000E-02 0. -1.
         24    2    1    2    0    0  0.00000000000E+00  0.00000000000E+00 -0.27487466501E+03  0.28588798657E+03  0.78586636297E+02 0.  0.
         66    2    3    3    0    0 -0.37804501508E+02 -0.10227794627E+02 -0.12712675635E+03  0.13303758980E+03  0.20000006495E+01 0.  0.
        -13    1    3    3    0    0  0.37804501508E+02  0.10227794627E+02 -0.14774790866E+03  0.15285039677E+03  0.10566000000E+00 0.  1.
         13    1    4    4    0    0 -0.10775195913E+02 -0.35020459612E+01 -0.34948931285E+02  0.36739735095E+02  0.10566000000E+00 0.  1.
        -13    1    4    4    0    0 -0.65678464711E+01 -0.14923088819E+01 -0.23411213516E+02  0.24361027798E+02  0.10566000000E+00 0. -1.
         14    1    4    4    0    0 -0.20461459124E+02 -0.52334397838E+01 -0.68766611546E+02  0.71936826904E+02  0.00000000000E+00 0. -1.
<mgrwt>
<rscale>  0 0.78586636E+02</rscale>
<asrwt>0</asrwt>
<pdfrwt beam="1">  1        2 0.43135577E-01 0.78586636E+02</pdfrwt>
<pdfrwt beam="2">  1       -1 0.84717881E-03 0.78586636E+02</pdfrwt>
<totfact> 0.26067713E+05</totfact>
</mgrwt>
</event>
<event>
 8    1  0.1493610E-013  0.8167474E+02  0.7818608E-02  0.1324365E+00
         -1   -1    0    0    0  501 -0.00000000000E+00  0.00000000000E+00  0.24721480175E+01  0.24721531550E+01  0.50400000000E-02 0.  1.
          2   -1    0    0  501    0  0.00000000000E+00 -0.00000000000E+00 -0.67459116936E+03  0.67459116937E+03  0.25500000000E-02 0. -1.
         24    2    1    2    0    0  0.00000000000E+00  0.00000000000E+00 -0.67211902134E+03  0.67706332252E+03  0.81674744267E+02 0.  0.
         66    2    3    3    0    0  0.12351084000E+01  0.16368493692E+02 -0.64601696708E+03  0.64622857784E+03  0.19999969716E+01 0.  0.
        -13    1    3    3    0    0 -0.12351084000E+01 -0.16368493692E+02 -0.26102054265E+02  0.30834744679E+02  0.10566000000E+00 0.  1.
         13    1    4    4    0    0  0.56915503371E+00  0.91853616478E+01 -0.36898532196E+03  0.36910008641E+03  0.10566000000E+00 0. -1.
        -13    1    4    4    0    0 -0.14019235286E+00  0.21406699694E+01 -0.65451465409E+02  0.65486697963E+02  0.10566000000E+00 0. -1.
        -14    1    4    4    0    0  0.80614571913E+00  0.50424620752E+01 -0.21158017971E+03  0.21164179346E+03  0.00000000000E+00 0.  1.
<mgrwt>
<rscale>  0 0.81674744E+02</rscale>
<asrwt>0</asrwt>
<pdfrwt beam="1">  1        2 0.10378311E+00 0.81674744E+02</pdfrwt>
<pdfrwt beam="2">  1       -1 0.38033140E-03 0.81674744E+02</pdfrwt>
<totfact> 0.31420802E+05</totfact>
</mgrwt>
</event>
<event>
 8    1  0.1493610E-013  0.7914315E+02  0.7818608E-02  0.1331501E+00
          2   -1    0    0  501    0  0.00000000000E+00  0.00000000000E+00  0.67415113719E+02  0.67415113767E+02  0.25500000000E-02 0. -1.
         -1   -1    0    0    0  501 -0.00000000000E+00 -0.00000000000E+00 -0.23227872342E+02  0.23227872889E+02  0.50400000000E-02 0.  1.
         24    2    1    2    0    0  0.00000000000E+00  0.00000000000E+00  0.44187241377E+02  0.90642986656E+02  0.79143153396E+02 0.  0.
         66    2    3    3    0    0  0.14393783568E+02 -0.17382222720E+02  0.59300676449E+02  0.63481437440E+02  0.20000000213E+01 0.  0.
        -13    1    3    3    0    0 -0.14393783568E+02  0.17382222720E+02 -0.15113435073E+02  0.27161549216E+02  0.10566000000E+00 0.  1.
         13    1    4    4    0    0  0.72654270169E+01 -0.86906058216E+01  0.30295024157E+02  0.32343665717E+02  0.10566000000E+00 0. -1.
        -13    1    4    4    0    0  0.50810164375E+01 -0.67588433741E+01  0.22987576886E+02  0.24493642989E+02  0.10566000000E+00 0.  1.
        -14    1    4    4    0    0  0.20473401138E+01 -0.19327735239E+01  0.60180754067E+01  0.66441287342E+01  0.00000000000E+00 0.  1.
<mgrwt>
<rscale>  0 0.79143153E+02</rscale>
<asrwt>0</asrwt>
<pdfrwt beam="1">  1        2 0.10371556E-01 0.79143153E+02</pdfrwt>
<pdfrwt beam="2">  1       -1 0.35735189E-02 0.79143153E+02</pdfrwt>
<totfact> 0.16473318E+05</totfact>
</mgrwt>
</event>
<event>
 8    1  0.1493610E-013  0.8000337E+02  0.7818608E-02  0.1329042E+00
          2   -1    0    0  501    0  0.00000000000E+00  0.00000000000E+00  0.67300899470E+03  0.67300899470E+03  0.25500000000E-02 0. -1.
         -1   -1    0    0    0  501 -0.00000000000E+00 -0.00000000000E+00 -0.23775802013E+01  0.23775855432E+01  0.50400000000E-02 0.  1.
         24    2    1    2    0    0 -0.35527136788E-14  0.00000000000E+00  0.67063141449E+03  0.67538658024E+03  0.80003366596E+02 0.  0.
         66    2    3    3    0    0 -0.22647933942E+02  0.64724158137E+00  0.61356985923E+03  0.61399130284E+03  0.19999954402E+01 0.  0.
        -13    1    3    3    0    0  0.22647933942E+02 -0.64724158137E+00  0.57061555268E+02  0.61395277401E+02  0.10566000000E+00 0.  1.
         13    1    4    4    0    0 -0.10029715065E+02  0.71030928447E+00  0.29521034619E+03  0.29538154882E+03  0.10566000000E+00 0. -1.
        -13    1    4    4    0    0 -0.30259015159E+01  0.18412678219E-01  0.80169026905E+02  0.80226183119E+02  0.10566000000E+00 0. -1.
         14    1    4    4    0    0 -0.95923173612E+01 -0.81480381321E-01  0.23819048613E+03  0.23838357090E+03  0.00000000000E+00 0. -1.
<mgrwt>
<rscale>  0 0.80003367E+02</rscale>
<asrwt>0</asrwt>
<pdfrwt beam="1">  1        2 0.10354004E+00 0.80003367E+02</pdfrwt>
<pdfrwt beam="2">  1       -1 0.36578131E-03 0.80003367E+02</pdfrwt>
<totfact> 0.33139197E+05</totfact>
</mgrwt>
</event>
<event>
 8    1  0.1493610E-013  0.7728690E+02  0.7818608E-02  0.1336932E+00
         -1   -1    0    0    0  501 -0.00000000000E+00  0.00000000000E+00  0.15263651527E+02  0.15263652359E+02  0.50400000000E-02 0.  1.
          2   -1    0    0  501    0  0.00000000000E+00 -0.00000000000E+00 -0.97834782815E+02  0.97834782848E+02  0.25500000000E-02 0. -1.
         24    2    1    2    0    0  0.00000000000E+00 -0.17763568394E-14 -0.82571131288E+02  0.11309843521E+03  0.77286896199E+02 0.  0.
         66    2    3    3    0    0  0.27584609148E+02 -0.15766622793E+02 -0.73434240417E+02  0.80038020888E+02  0.20000164640E+01 0.  0.
        -13    1    3    3    0    0 -0.27584609148E+02  0.15766622793E+02 -0.91368908714E+01  0.33060414320E+02  0.10566000000E+00 0.  1.
         13    1    4    4    0    0  0.96005055475E+01 -0.55469788824E+01 -0.24531931460E+02  0.26921469252E+02  0.10566000000E+00 0. -1.
        -13    1    4    4    0    0  0.12712253478E+02 -0.75582104698E+01 -0.36386814501E+02  0.39277721007E+02  0.10566000000E+00 0.  1.
        -14    1    4    4    0    0  0.52718501226E+01 -0.26614334410E+01 -0.12515494456E+02  0.13838830628E+02  0.00000000000E+00 0.  1.
<mgrwt>
<rscale>  0 0.77286896E+02</rscale>
<asrwt>0</asrwt>
<pdfrwt beam="1">  1        2 0.15051505E-01 0.77286896E+02</pdfrwt>
<pdfrwt beam="2">  1       -1 0.23482542E-02 0.77286896E+02</pdfrwt>
<totfact> 0.19321390E+05</totfact>
</mgrwt>
</event>
<event>
 8    1  0.1493610E-013  0.7930316E+02  0.7818608E-02  0.1331041E+00
          2   -1    0    0  501    0  0.00000000000E+00  0.00000000000E+00  0.17152509246E+03  0.17152509248E+03  0.25500000000E-02 0. -1.
         -1   -1    0    0    0  501 -0.00000000000E+00 -0.00000000000E+00 -0.91662847540E+01  0.91662861396E+01  0.50400000000E-02 0.  1.
         24    2    1    2    0    0  0.00000000000E+00  0.00000000000E+00  0.16235880770E+03  0.18069137862E+03  0.79303164296E+02 0.  0.
         66    2    3    3    0    0  0.86866405820E+01  0.92317433779E+01  0.16677473021E+03  0.16726772986E+03  0.20000008068E+01 0.  0.
        -13    1    3    3    0    0 -0.86866405820E+01 -0.92317433779E+01 -0.44159225092E+01  0.13423648760E+02  0.10566000000E+00 0.  1.
         13    1    4    4    0    0  0.41262963944E+00  0.10607885548E+00  0.72143569471E+01  0.72276985368E+01  0.10566000000E+00 0. -1.
        -13    1    4    4    0    0  0.37824046614E+01  0.46003122481E+01  0.84184248067E+02  0.84394716923E+02  0.10566000000E+00 0.  1.
         14    1    4    4    0    0  0.44916062811E+01  0.45253522743E+01  0.75376125200E+02  0.75645314398E+02  0.00000000000E+00 0. -1.
<mgrwt>
<rscale>  0 0.79303164E+02</rscale>
<asrwt>0</asrwt>
<pdfrwt beam="1">  1        2 0.26388474E-01 0.79303164E+02</pdfrwt>
<pdfrwt beam="2">  1       -1 0.14101978E-02 0.79303164E+02</pdfrwt>
<totfact> 0.21421698E+05</totfact>
</mgrwt>
</event>
<event>
 8    1  0.1493610E-013  0.7842234E+02  0.7818608E-02  0.1333589E+00
         -1   -1    0    0    0  501 -0.00000000000E+00  0.00000000000E+00  0.35493067186E+01  0.35493102970E+01  0.50400000000E-02 0.  1.
          2   -1    0    0  501    0  0.00000000000E+00 -0.00000000000E+00 -0.43318748020E+03  0.43318748020E+03  0.25500000000E-02 0. -1.
         24    2    1    2    0    0 -0.88817841970E-15  0.00000000000E+00 -0.42963817348E+03  0.43673679050E+03  0.78422344186E+02 0.  0.
         66    2    3    3    0    0 -0.26144209243E+01  0.38786897859E+02 -0.24238411286E+03  0.24548995255E+03  0.19999991093E+01 0.  0.
        -13    1    3    3    0    0  0.26144209243E+01 -0.38786897859E+02 -0.18725406062E+03  0.19124683795E+03  0.10566000000E+00 0.  1.
         13    1    4    4    0    0 -0.18557440071E+01  0.20682564503E+02 -0.13256022784E+03  0.13417688858E+03  0.10566000000E+00 0. -1.
        -13    1    4    4    0    0 -0.50053828605E+00  0.14938593784E+02 -0.92634084533E+02  0.93832280715E+02  0.10566000000E+00 0.  1.
        -14    1    4    4    0    0 -0.25813863121E+00  0.31657395724E+01 -0.17189800483E+02  0.17480783256E+02  0.00000000000E+00 0.  1.
<mgrwt>
<rscale>  0 0.78422344E+02</rscale>
<asrwt>0</asrwt>
<pdfrwt beam="1">  1        2 0.66644186E-01 0.78422344E+02</pdfrwt>
<pdfrwt beam="2">  1       -1 0.54604781E-03 0.78422344E+02</pdfrwt>
<totfact> 0.30590158E+05</totfact>
</mgrwt>
</event>
<event>
 8    1  0.1493610E-013  0.8213252E+02  0.7818608E-02  0.1323106E+00
          2   -1    0    0  501    0  0.00000000000E+00  0.00000000000E+00  0.75679567395E+03  0.75679567395E+03  0.25500000000E-02 0. -1.
         -1   -1    0    0    0  501 -0.00000000000E+00 -0.00000000000E+00 -0.22283893185E+01  0.22283950180E+01  0.50400000000E-02 0.  1.
         24    2    1    2    0    0  0.00000000000E+00  0.35527136788E-14  0.75456728463E+03  0.75902406897E+03  0.82132516356E+02 0.  0.
         66    2    3    3    0    0  0.93535298841E+01 -0.26909031396E+02  0.65053634405E+03  0.65116289777E+03  0.20000007922E+01 0.  0.
        -13    1    3    3    0    0 -0.93535298841E+01  0.26909031396E+02  0.10403094058E+03  0.10786117120E+03  0.10566000000E+00 0.  1.
         13    1    4    4    0    0  0.41175878695E+01 -0.96767522892E+01  0.24538183979E+03  0.24560711009E+03  0.10566000000E+00 0. -1.
        -13    1    4    4    0    0  0.15845396199E+01 -0.44901306921E+01  0.99074564018E+02  0.99188973373E+02  0.10566000000E+00 0.  1.
         14    1    4    4    0    0  0.36514023947E+01 -0.12742148415E+02  0.30607994024E+03  0.30636681430E+03  0.00000000000E+00 0. -1.
<mgrwt>
<rscale>  0 0.82132516E+02</rscale>
<asrwt>0</asrwt>
<pdfrwt beam="1">  1        2 0.11643022E+00 0.82132516E+02</pdfrwt>
<pdfrwt beam="2">  1       -1 0.34282921E-03 0.82132516E+02</pdfrwt>
<totfact> 0.31763683E+05</totfact>
</mgrwt>
</event>
<event>
 8    1  0.1493610E-013  0.7605113E+02  0.7818608E-02  0.1340647E+00
          2   -1    0    0  501    0  0.00000000000E+00  0.00000000000E+00  0.11669637971E+03  0.11669637974E+03  0.25500000000E-02 0. -1.
         -1   -1    0    0    0  501 -0.00000000000E+00 -0.00000000000E+00 -0.12390645275E+02  0.12390646301E+02  0.50400000000E-02 0.  1.
         24    2    1    2    0    0 -0.35527136788E-14  0.35527136788E-14  0.10430573444E+03  0.12908702604E+03  0.76051127905E+02 0.  0.
         66    2    3    3    0    0 -0.26261366062E+02  0.27170006316E+02  0.45384514533E+02  0.59089955319E+02  0.20000173749E+01 0.  0.
        -13    1    3    3    0    0  0.26261366062E+02 -0.27170006316E+02  0.58921219905E+02  0.69997070723E+02  0.10566000000E+00 0.  1.
         13    1    4    4    0    0 -0.45718206780E+01  0.50588783354E+01  0.88146476310E+01  0.11144638676E+02  0.10566000000E+00 0. -1.
        -13    1    4    4    0    0 -0.33310503544E+01  0.27477226452E+01  0.53708866525E+01  0.68922756523E+01  0.10566000000E+00 0.  1.
         14    1    4    4    0    0 -0.18358495030E+02  0.19363405335E+02  0.31198980250E+02  0.41053040990E+02  0.00000000000E+00 0. -1.
<mgrwt>
<rscale>  0 0.76051128E+02</rscale>
<asrwt>0</asrwt>
<pdfrwt beam="1">  1        2 0.17953289E-01 0.76051128E+02</pdfrwt>
<pdfrwt beam="2">  1       -1 0.19062532E-02 0.76051128E+02</pdfrwt>
<totfact> 0.21203895E+05</totfact>
</mgrwt>
</event>
<event>
 8    1  0.1493610E-013  0.7948998E+02  0.7818608E-02  0.1330505E+00
          2   -1    0    0  501    0  0.00000000000E+00  0.00000000000E+00  0.11260204387E+03  0.11260204390E+03  0.25500000000E-02 0. -1.
         -1   -1    0    0    0  501 -0.00000000000E+00 -0.00000000000E+00 -0.14028733856E+02  0.14028734762E+02  0.50400000000E-02 0.  1.
         24    2    1    2    0    0  0.00000000000E+00  0.00000000000E+00  0.98573310010E+02  0.12663077866E+03  0.79489978343E+02 0.  0.
         66    2    3    3    0    0  0.30525841773E+02  0.14678989202E+02  0.16269966944E+02  0.37629929314E+02  0.20000039736E+01 0.  0.
        -13    1    3    3    0    0 -0.30525841773E+02 -0.14678989202E+02  0.82303343066E+02  0.89000849343E+02  0.10566000000E+00 0.  1.
         13    1    4    4    0    0  0.49272984544E+01  0.16960466220E+01  0.23180216581E+01  0.57043170183E+01  0.10566000000E+00 0. -1.
        -13    1    4    4    0    0  0.54400691268E+01  0.31395795655E+01  0.31181623174E+01  0.70132312257E+01  0.10566000000E+00 0.  1.
         14    1    4    4    0    0  0.20158474191E+02  0.98433630142E+01  0.10833782968E+02  0.24912381070E+02  0.00000000000E+00 0. -1.
<mgrwt>
<rscale>  0 0.79489978E+02</rscale>
<asrwt>0</asrwt>
<pdfrwt beam="1">  1        2 0.17323391E-01 0.79489978E+02</pdfrwt>
<pdfrwt beam="2">  1       -1 0.21582669E-02 0.79489978E+02</pdfrwt>
<totfact> 0.18654017E+05</totfact>
</mgrwt>
</event>
<event>
 8    1  0.1493610E-013  0.8133256E+02  0.7818608E-02  0.1325312E+00
          2   -1    0    0  501    0  0.00000000000E+00  0.00000000000E+00  0.28688711301E+02  0.28688711414E+02  0.25500000000E-02 0. -1.
         -1   -1    0    0    0  501 -0.00000000000E+00 -0.00000000000E+00 -0.57644491863E+02  0.57644492083E+02  0.50400000000E-02 0.  1.
         24    2    1    2    0    0  0.00000000000E+00 -0.88817841970E-15 -0.28955780562E+02  0.86333203497E+02  0.81332556816E+02 0.  0.
         66    2    3    3    0    0 -0.23971736443E+02  0.78171480615E+01  0.19347741545E+02  0.31844733489E+02  0.19999990532E+01 0.  0.
        -13    1    3    3    0    0  0.23971736443E+02 -0.78171480615E+01 -0.48303522107E+02  0.54488470008E+02  0.10566000000E+00 0.  1.
         13    1    4    4    0    0 -0.82072459829E+01  0.21246118787E+01  0.56011334284E+01  0.10161531478E+02  0.10566000000E+00 0. -1.
        -13    1    4    4    0    0 -0.12449355677E+02  0.45488984742E+01  0.11124080587E+02  0.17304197960E+02  0.10566000000E+00 0.  1.
         14    1    4    4    0    0 -0.33151347827E+01  0.11436377086E+01  0.26225275298E+01  0.43790040512E+01  0.00000000000E+00 0. -1.
<mgrwt>
<rscale>  0 0.81332557E+02</rscale>
<asrwt>0</asrwt>
<pdfrwt beam="1">  1        2 0.44136479E-02 0.81332557E+02</pdfrwt>
<pdfrwt beam="2">  1       -1 0.88683834E-02 0.81332557E+02</pdfrwt>
<totfact> 0.12731473E+05</totfact>
</mgrwt>
</event>
<event>
 8    1  0.1493610E-013  0.7942521E+02  0.7818608E-02  0.1330691E+00
         -1   -1    0    0    0  501 -0.00000000000E+00  0.00000000000E+00  0.56757372366E+01  0.56757394744E+01  0.50400000000E-02 0.  1.
          2   -1    0    0  501    0  0.00000000000E+00 -0.00000000000E+00 -0.27786531947E+03  0.27786531948E+03  0.25500000000E-02 0. -1.
         24    2    1    2    0    0 -0.35527136788E-14  0.35527136788E-14 -0.27218958223E+03  0.28354105895E+03  0.79425206562E+02 0.  0.
         66    2    3    3    0    0 -0.24038058191E+02 -0.31268816339E+02 -0.12040894180E+03  0.12671969214E+03  0.19999982172E+01 0.  0.
        -13    1    3    3    0    0  0.24038058191E+02  0.31268816339E+02 -0.15178064043E+03  0.15682136682E+03  0.10566000000E+00 0.  1.
         13    1    4    4    0    0 -0.61405909182E+01 -0.72514945776E+01 -0.30507249432E+02  0.31953003965E+02  0.10566000000E+00 0. -1.
        -13    1    4    4    0    0 -0.61511350630E+01 -0.74695143335E+01 -0.28340229913E+02  0.29946784510E+02  0.10566000000E+00 0.  1.
        -14    1    4    4    0    0 -0.11746332210E+02 -0.16547807428E+02 -0.61561462455E+02  0.64819903661E+02  0.00000000000E+00 0.  1.
<mgrwt>
<rscale>  0 0.79425207E+02</rscale>
<asrwt>0</asrwt>
<pdfrwt beam="1">  1        2 0.42748500E-01 0.79425207E+02</pdfrwt>
<pdfrwt beam="2">  1       -1 0.87319074E-03 0.79425207E+02</pdfrwt>
<totfact> 0.25269924E+05</totfact>
</mgrwt>
</event>
<event>
 8    1  0.1493610E-013  0.7890380E+02  0.7818608E-02  0.1332191E+00
         -1   -1    0    0    0  501 -0.00000000000E+00  0.00000000000E+00  0.48248401522E+01  0.48248427846E+01  0.50400000000E-02 0.  1.
          2   -1    0    0  501    0  0.00000000000E+00 -0.00000000000E+00 -0.32259140515E+03  0.32259140516E+03  0.25500000000E-02 0. -1.
         24    2    1    2    0    0  0.00000000000E+00  0.00000000000E+00 -0.31776656499E+03  0.32741624794E+03  0.78903799576E+02 0.  0.
         66    2    3    3    0    0 -0.12091136310E+02  0.17522286785E+02 -0.29668687888E+03  0.29745643415E+03  0.20000023231E+01 0.  0.
        -13    1    3    3    0    0  0.12091136310E+02 -0.17522286785E+02 -0.21079686117E+02  0.29959813789E+02  0.10566000000E+00 0.  1.
         13    1    4    4    0    0 -0.46364100234E+01  0.72771794980E+01 -0.11699538665E+03  0.11731319320E+03  0.10566000000E+00 0. -1.
        -13    1    4    4    0    0 -0.59437917988E+01  0.86044195547E+01 -0.14082740774E+03  0.14121520680E+03  0.10566000000E+00 0. -1.
         14    1    4    4    0    0 -0.15109344879E+01  0.16406877320E+01 -0.38864084490E+02  0.38928034147E+02  0.00000000000E+00 0. -1.
<mgrwt>
<rscale>  0 0.78903800E+02</rscale>
<asrwt>0</asrwt>
<pdfrwt beam="1">  1        2 0.49629430E-01 0.78903800E+02</pdfrwt>
<pdfrwt beam="2">  1       -1 0.74228356E-03 0.78903800E+02</pdfrwt>
<totfact> 0.27134695E+05</totfact>
</mgrwt>
</event>
<event>
 8    1  0.1493610E-013  0.8135250E+02  0.7818608E-02  0.1325256E+00
          2   -1    0    0  501    0  0.00000000000E+00  0.00000000000E+00  0.58285208704E+02  0.58285208760E+02  0.25500000000E-02 0. -1.
         -1   -1    0    0    0  501 -0.00000000000E+00 -0.00000000000E+00 -0.28387255132E+02  0.28387255579E+02  0.50400000000E-02 0.  1.
         24    2    1    2    0    0  0.35527136788E-14  0.44408920985E-15  0.29897953572E+02  0.86672464339E+02  0.81352495025E+02 0.  0.
         66    2    3    3    0    0 -0.30426791133E+02 -0.32787707002E+01  0.43466230881E+02  0.53196364370E+02  0.19999998190E+01 0.  0.
        -13    1    3    3    0    0  0.30426791133E+02  0.32787707002E+01 -0.13568277308E+02  0.33476099969E+02  0.10566000000E+00 0.  1.
         13    1    4    4    0    0 -0.13342283338E+02 -0.15299124085E+01  0.18357096040E+02  0.22745357674E+02  0.10566000000E+00 0. -1.
        -13    1    4    4    0    0 -0.24987179263E+01 -0.58756538664E+00  0.31719304381E+01  0.40818048825E+01  0.10566000000E+00 0.  1.
        -14    1    4    4    0    0 -0.14585789869E+02 -0.11612929051E+01  0.21937204402E+02  0.26369201813E+02  0.00000000000E+00 0.  1.
<mgrwt>
<rscale>  0 0.81352495E+02</rscale>
<asrwt>0</asrwt>
<pdfrwt beam="1">  1        2 0.89669551E-02 0.81352495E+02</pdfrwt>
<pdfrwt beam="2">  1       -1 0.43672701E-02 0.81352495E+02</pdfrwt>
<totfact> 0.14771811E+05</totfact>
</mgrwt>
</event>
<event>
 8    1  0.1493610E-013  0.8054857E+02  0.7818608E-02  0.1327502E+00
          2   -1    0    0  501    0  0.00000000000E+00  0.00000000000E+00  0.80718687200E+02  0.80718687240E+02  0.25500000000E-02 0. -1.
         -1   -1    0    0    0  501 -0.00000000000E+00 -0.00000000000E+00 -0.20094703817E+02  0.20094704449E+02  0.50400000000E-02 0.  1.
         24    2    1    2    0    0  0.00000000000E+00  0.00000000000E+00  0.60623983383E+02  0.10081339169E+03  0.80548572816E+02 0.  0.
         66    2    3    3    0    0 -0.12848905573E+02  0.16423673582E+02  0.73418281842E+02  0.76348382688E+02  0.20000005306E+01 0.  0.
        -13    1    3    3    0    0  0.12848905573E+02 -0.16423673582E+02 -0.12794298459E+02  0.24465009001E+02  0.10566000000E+00 0.  1.
         13    1    4    4    0    0 -0.36945896244E+01  0.58419714007E+01  0.22789540600E+02  0.23814973171E+02  0.10566000000E+00 0. -1.
        -13    1    4    4    0    0 -0.35217161675E+01  0.42149761819E+01  0.21368452637E+02  0.22063327970E+02  0.10566000000E+00 0.  1.
         14    1    4    4    0    0 -0.56325997806E+01  0.63667259993E+01  0.29260288605E+02  0.30470081547E+02  0.00000000000E+00 0. -1.
<mgrwt>
<rscale>  0 0.80548573E+02</rscale>
<asrwt>0</asrwt>
<pdfrwt beam="1">  1        2 0.12418259E-01 0.80548573E+02</pdfrwt>
<pdfrwt beam="2">  1       -1 0.30914930E-02 0.80548573E+02</pdfrwt>
<totfact> 0.16428598E+05</totfact>
</mgrwt>
</event>
<event>
 8    1  0.1493610E-013  0.8052575E+02  0.7818608E-02  0.1327566E+00
          2   -1    0    0  501    0  0.00000000000E+00  0.00000000000E+00  0.18224961346E+02  0.18224961525E+02  0.25500000000E-02 0. -1.
         -1   -1    0    0    0  501 -0.00000000000E+00 -0.00000000000E+00 -0.88949374856E+02  0.88949374999E+02  0.50400000000E-02 0.  1.
         24    2    1    2    0    0  0.00000000000E+00  0.00000000000E+00 -0.70724413510E+02  0.10717433652E+03  0.80525745839E+02 0.  0.
         66    2    3    3    0    0 -0.23661516465E+02  0.32285700058E+02 -0.29919002893E+02  0.50013803905E+02  0.20000143082E+01 0.  0.
        -13    1    3    3    0    0  0.23661516465E+02 -0.32285700058E+02 -0.40805410616E+02  0.57160532619E+02  0.10566000000E+00 0.  1.
         13    1    4    4    0    0 -0.71352605899E+01  0.10036645755E+02 -0.92892787125E+01  0.15425565297E+02  0.10566000000E+00 0. -1.
        -13    1    4    4    0    0 -0.98973936466E+00  0.19893669332E+01 -0.18682825426E+01  0.29049627363E+01  0.10566000000E+00 0.  1.
         14    1    4    4    0    0 -0.15536516510E+02  0.20259687369E+02 -0.18761441638E+02  0.31683275871E+02  0.00000000000E+00 0. -1.
<mgrwt>
<rscale>  0 0.80525746E+02</rscale>
<asrwt>0</asrwt>
<pdfrwt beam="1">  1        2 0.28038403E-02 0.80525746E+02</pdfrwt>
<pdfrwt beam="2">  1       -1 0.13684519E-01 0.80525746E+02</pdfrwt>
<totfact> 0.11953331E+05</totfact>
</mgrwt>
</event>
<event>
 8    1  0.1493610E-013  0.8084501E+02  0.7818608E-02  0.1326670E+00
          2   -1    0    0  501    0  0.00000000000E+00  0.00000000000E+00  0.92216100186E+02  0.92216100221E+02  0.25500000000E-02 0. -1.
         -1   -1    0    0    0  501 -0.00000000000E+00 -0.00000000000E+00 -0.17719017434E+02  0.17719018151E+02  0.50400000000E-02 0.  1.
         24    2    1    2    0    0  0.00000000000E+00  0.00000000000E+00  0.74497082751E+02  0.10993511837E+03  0.80845005492E+02 0.  0.
         66    2    3    3    0    0  0.27762438149E+02  0.70888946651E+01  0.75995719295E+02  0.81242567508E+02  0.20000061555E+01 0.  0.
        -13    1    3    3    0    0 -0.27762438149E+02 -0.70888946651E+01 -0.14986365436E+01  0.28692550864E+02  0.10566000000E+00 0.  1.
         13    1    4    4    0    0  0.22947071158E+02  0.56973688812E+01  0.62005253240E+02  0.66360309525E+02  0.10566000000E+00 0. -1.
        -13    1    4    4    0    0  0.22225614767E+01  0.51870161019E+00  0.74563380808E+01  0.77985237378E+01  0.10566000000E+00 0.  1.
         14    1    4    4    0    0  0.25928055146E+01  0.87282417375E+00  0.65341279737E+01  0.70837342449E+01  0.00000000000E+00 0. -1.
<mgrwt>
<rscale>  0 0.80845005E+02</rscale>
<asrwt>0</asrwt>
<pdfrwt beam="1">  1        2 0.14187093E-01 0.80845005E+02</pdfrwt>
<pdfrwt beam="2">  1       -1 0.27260027E-02 0.80845005E+02</pdfrwt>
<totfact> 0.16851841E+05</totfact>
</mgrwt>
</event>
<event>
 8    1  0.1493610E-013  0.8111935E+02  0.7818608E-02  0.1325905E+00
         -1   -1    0    0    0  501 -0.00000000000E+00  0.00000000000E+00  0.33783915413E+01  0.33783953007E+01  0.50400000000E-02 0.  1.
          2   -1    0    0  501    0  0.00000000000E+00 -0.00000000000E+00 -0.48694370849E+03  0.48694370849E+03  0.25500000000E-02 0. -1.
         24    2    1    2    0    0 -0.17763568394E-14 -0.14210854715E-13 -0.48356531695E+03  0.49032210379E+03  0.81119354760E+02 0.  0.
         66    2    3    3    0    0  0.11944464069E+02  0.35662429074E+02 -0.33331914389E+03  0.33544020443E+03  0.19999985166E+01 0.  0.
        -13    1    3    3    0    0 -0.11944464069E+02 -0.35662429074E+02 -0.15024617306E+03  0.15488189937E+03  0.10566000000E+00 0.  1.
         13    1    4    4    0    0  0.11363833092E+01  0.36113038792E+01 -0.31991929493E+02  0.32215331745E+02  0.10566000000E+00 0. -1.
        -13    1    4    4    0    0  0.64368057060E+00  0.24586398581E+01 -0.26720561737E+02  0.26841363941E+02  0.10566000000E+00 0.  1.
         14    1    4    4    0    0  0.10164400189E+02  0.29592485336E+02 -0.27460665266E+03  0.27638350874E+03  0.00000000000E+00 0. -1.
<mgrwt>
<rscale>  0 0.81119355E+02</rscale>
<asrwt>0</asrwt>
<pdfrwt beam="1">  1        2 0.74914361E-01 0.81119355E+02</pdfrwt>
<pdfrwt beam="2">  1       -1 0.51975322E-03 0.81119355E+02</pdfrwt>
<totfact> 0.29118941E+05</totfact>
</mgrwt>
</event>
<event>
 8    1  0.1493610E-013  0.7289795E+02  0.7818608E-02  0.1350507E+00
         -1   -1    0    0    0  501 -0.00000000000E+00  0.00000000000E+00  0.36280574557E+03  0.36280574561E+03  0.50400000000E-02 0.  1.
          2   -1    0    0  501    0  0.00000000000E+00 -0.00000000000E+00 -0.36618155057E+01  0.36618163936E+01  0.25500000000E-02 0. -1.
         24    2    1    2    0    0  0.00000000000E+00  0.00000000000E+00  0.35914393007E+03  0.36646756200E+03  0.72897952613E+02 0.  0.
         66    2    3    3    0    0 -0.33121823769E+02 -0.13879776155E+02  0.21021097901E+03  0.21326593514E+03  0.20000005888E+01 0.  0.
        -13    1    3    3    0    0  0.33121823769E+02  0.13879776155E+02  0.14893295106E+03  0.15320162686E+03  0.10566000000E+00 0.  1.
         13    1    4    4    0    0 -0.10255242327E+01 -0.28789750331E+00  0.56849177628E+01  0.57848110539E+01  0.10566000000E+00 0. -1.
        -13    1    4    4    0    0 -0.55444538323E+01 -0.25698719872E+01  0.32592682350E+02  0.33160809959E+02  0.10566000000E+00 0.  1.
         14    1    4    4    0    0 -0.26551845704E+02 -0.11022006664E+02  0.17193337889E+03  0.17432031413E+03  0.00000000000E+00 0. -1.
<mgrwt>
<rscale>  0 0.72897953E+02</rscale>
<asrwt>0</asrwt>
<pdfrwt beam="1">  1        2 0.56335630E-03 0.72897953E+02</pdfrwt>
<pdfrwt beam="2">  1       -1 0.55816269E-01 0.72897953E+02</pdfrwt>
<totfact> 0.10092309E+05</totfact>
</mgrwt>
</event>
<event>
 8    1  0.1493610E-013  0.8078418E+02  0.7818608E-02  0.1326841E+00
         -1   -1    0    0    0  501 -0.00000000000E+00  0.00000000000E+00  0.20038065296E+01  0.20038128680E+01  0.50400000000E-02 0.  1.
          2   -1    0    0  501    0  0.00000000000E+00 -0.00000000000E+00 -0.81420951117E+03  0.81420951117E+03  0.25500000000E-02 0. -1.
         24    2    1    2    0    0  0.00000000000E+00  0.00000000000E+00 -0.81220570464E+03  0.81621332404E+03  0.80784179721E+02 0.  0.
         66    2    3    3    0    0  0.93706448582E+01  0.33389951288E+02 -0.61508775406E+03  0.61606788833E+03  0.20000005674E+01 0.  0.
        -13    1    3    3    0    0 -0.93706448582E+01 -0.33389951288E+02 -0.19711795058E+03  0.20014543571E+03  0.10566000000E+00 0.  1.
         13    1    4    4    0    0  0.44746742562E+01  0.12918704582E+02 -0.24819233163E+03  0.24856862288E+03  0.10566000000E+00 0. -1.
        -13    1    4    4    0    0  0.22415149771E+00  0.13547339698E+01 -0.25330913618E+02  0.25368324675E+02  0.10566000000E+00 0.  1.
        -14    1    4    4    0    0  0.46718191043E+01  0.19116512736E+02 -0.34156450881E+03  0.34213094077E+03  0.00000000000E+00 0.  1.
<mgrwt>
<rscale>  0 0.80784180E+02</rscale>
<asrwt>0</asrwt>
<pdfrwt beam="1">  1        2 0.12526274E+00 0.80784180E+02</pdfrwt>
<pdfrwt beam="2">  1       -1 0.30827907E-03 0.80784180E+02</pdfrwt>
<totfact> 0.33604806E+05</totfact>
</mgrwt>
</event>
<event>
 8    1  0.1493610E-013  0.8142434E+02  0.7818608E-02  0.1325057E+00
         -1   -1    0    0    0  501 -0.00000000000E+00  0.00000000000E+00  0.59919097784E+01  0.59919118981E+01  0.50400000000E-02 0.  1.
          2   -1    0    0  501    0  0.00000000000E+00 -0.00000000000E+00 -0.27661970697E+03  0.27661970698E+03  0.25500000000E-02 0. -1.
         24    2    1    2    0    0  0.00000000000E+00 -0.17763568394E-14 -0.27062779719E+03  0.28261161888E+03  0.81424336123E+02 0.  0.
         66    2    3    3    0    0 -0.11253504947E+02 -0.13852205219E+02 -0.26230461832E+03  0.26291869036E+03  0.19999968660E+01 0.  0.
        -13    1    3    3    0    0  0.11253504947E+02  0.13852205219E+02 -0.83231788731E+01  0.19692928518E+02  0.10566000000E+00 0.  1.
         13    1    4    4    0    0 -0.10771452209E+01 -0.18550916521E+01 -0.24634952436E+02  0.24728397693E+02  0.10566000000E+00 0.  1.
        -13    1    4    4    0    0 -0.17325202209E+01 -0.19479806201E+01 -0.37195739618E+02  0.37287135376E+02  0.10566000000E+00 0.  1.
         14    1    4    4    0    0 -0.84438395049E+01 -0.10049132947E+02 -0.20047392626E+03  0.20090315729E+03  0.00000000000E+00 0. -1.
<mgrwt>
<rscale>  0 0.81424336E+02</rscale>
<asrwt>0</asrwt>
<pdfrwt beam="1">  1        2 0.42556868E-01 0.81424336E+02</pdfrwt>
<pdfrwt beam="2">  1       -1 0.92183266E-03 0.81424336E+02</pdfrwt>
<totfact> 0.23634476E+05</totfact>
</mgrwt>
</event>
<event>
 8    1  0.1493610E-013  0.7954276E+02  0.7818608E-02  0.1330354E+00
          2   -1    0    0  501    0  0.00000000000E+00  0.00000000000E+00  0.84286806477E+02  0.84286806515E+02  0.25500000000E-02 0. -1.
         -1   -1    0    0    0  501 -0.00000000000E+00 -0.00000000000E+00 -0.18766433462E+02  0.18766434138E+02  0.50400000000E-02 0.  1.
         24    2    1    2    0    0  0.35527136788E-14  0.11102230246E-15  0.65520373015E+02  0.10305324065E+03  0.79542762896E+02 0.  0.
         66    2    3    3    0    0 -0.31362901424E+02 -0.26459285195E+00  0.64411233688E+02  0.71669439909E+02  0.19999991575E+01 0.  0.
        -13    1    3    3    0    0  0.31362901424E+02  0.26459285195E+00  0.11091393274E+01  0.31383800744E+02  0.10566000000E+00 0.  1.
         13    1    4    4    0    0 -0.45687528596E+01  0.51976957440E+00  0.10178800665E+02  0.11169727397E+02  0.10566000000E+00 0. -1.
        -13    1    4    4    0    0 -0.19245654586E+02 -0.76669732341E+00  0.38404802830E+02  0.42964207076E+02  0.10566000000E+00 0.  1.
        -14    1    4    4    0    0 -0.75484939786E+01 -0.17665102951E-01  0.15827630192E+02  0.17535505436E+02  0.00000000000E+00 0.  1.
<mgrwt>
<rscale>  0 0.79542763E+02</rscale>
<asrwt>0</asrwt>
<pdfrwt beam="1">  1        2 0.12967201E-01 0.79542763E+02</pdfrwt>
<pdfrwt beam="2">  1       -1 0.28871437E-02 0.79542763E+02</pdfrwt>
<totfact> 0.17186340E+05</totfact>
</mgrwt>
</event>
<event>
 8    1  0.1493610E-013  0.7956568E+02  0.7818608E-02  0.1330289E+00
         -1   -1    0    0    0  501 -0.00000000000E+00  0.00000000000E+00  0.19491068101E+01  0.19491133263E+01  0.50400000000E-02 0.  1.
          2   -1    0    0  501    0  0.00000000000E+00 -0.00000000000E+00 -0.81199844633E+03  0.81199844633E+03  0.25500000000E-02 0. -1.
         24    2    1    2    0    0  0.00000000000E+00  0.88817841970E-15 -0.81004933952E+03  0.81394755966E+03  0.79565679914E+02 0.  0.
         66    2    3    3    0    0 -0.32443947826E+02  0.56502463261E+01 -0.63314102652E+03  0.63400007452E+03  0.20000001306E+01 0.  0.
        -13    1    3    3    0    0  0.32443947826E+02 -0.56502463261E+01 -0.17690831300E+03  0.17994748514E+03  0.10566000000E+00 0.  1.
         13    1    4    4    0    0 -0.14847310194E+02  0.31479641031E+01 -0.29589812394E+03  0.29628712968E+03  0.10566000000E+00 0. -1.
        -13    1    4    4    0    0 -0.97763008618E+01  0.16267975616E+01 -0.19785209735E+03  0.19810019212E+03  0.10566000000E+00 0.  1.
        -14    1    4    4    0    0 -0.78203367705E+01  0.87548466137E+00 -0.13939080522E+03  0.13961275272E+03  0.00000000000E+00 0.  1.
<mgrwt>
<rscale>  0 0.79565680E+02</rscale>
<asrwt>0</asrwt>
<pdfrwt beam="1">  1        2 0.12492257E+00 0.79565680E+02</pdfrwt>
<pdfrwt beam="2">  1       -1 0.29986374E-03 0.79565680E+02</pdfrwt>
<totfact> 0.34942619E+05</totfact>
</mgrwt>
</event>
<event>
 8    1  0.1493610E-013  0.7959822E+02  0.7818608E-02  0.1330196E+00
         -1   -1    0    0    0  501 -0.00000000000E+00  0.00000000000E+00  0.62648709574E+02  0.62648709777E+02  0.50400000000E-02 0.  1.
          2   -1    0    0  501    0  0.00000000000E+00 -0.00000000000E+00 -0.25283348746E+02  0.25283348874E+02  0.25500000000E-02 0. -1.
         24    2    1    2    0    0  0.00000000000E+00  0.00000000000E+00  0.37365360829E+02  0.87932058651E+02  0.79598220764E+02 0.  0.
         66    2    3    3    0    0  0.52119888171E+01 -0.19184934213E+02 -0.19361392296E+02  0.27822473623E+02  0.19999996598E+01 0.  0.
        -13    1    3    3    0    0 -0.52119888171E+01  0.19184934213E+02  0.56726753125E+02  0.60109585029E+02  0.10566000000E+00 0.  1.
         13    1    4    4    0    0  0.21888408525E+01 -0.67260364371E+01 -0.75510452766E+01  0.10346982132E+02  0.10566000000E+00 0. -1.
        -13    1    4    4    0    0  0.31325575461E+01 -0.11787155723E+02 -0.11096475510E+02  0.16489174922E+02  0.10566000000E+00 0.  1.
        -14    1    4    4    0    0 -0.10940958149E+00 -0.67174205329E+00 -0.71387150937E+00  0.98631656915E+00  0.00000000000E+00 0.  1.
<mgrwt>
<rscale>  0 0.79598221E+02</rscale>
<asrwt>0</asrwt>
<pdfrwt beam="1">  1        2 0.38897460E-02 0.79598221E+02</pdfrwt>
<pdfrwt beam="2">  1       -1 0.96382630E-02 0.79598221E+02</pdfrwt>
<totfact> 0.13195871E+05</totfact>
</mgrwt>
</event>
<event>
 8    1  0.1493610E-013  0.8269776E+02  0.7818608E-02  0.1321565E+00
          2   -1    0    0  501    0  0.00000000000E+00  0.00000000000E+00  0.51847816832E+03  0.51847816833E+03  0.25500000000E-02 0. -1.
         -1   -1    0    0    0  501 -0.00000000000E+00 -0.00000000000E+00 -0.32975910870E+01  0.32975949386E+01  0.50400000000E-02 0.  1.
         24    2    1    2    0    0  0.00000000000E+00  0.35527136788E-14  0.51518057724E+03  0.52177576327E+03  0.82697762803E+02 0.  0.
         66    2    3    3    0    0 -0.13400908876E+02  0.20432536084E+02  0.46801142434E+03  0.46865314060E+03  0.19999994539E+01 0.  0.
        -13    1    3    3    0    0  0.13400908876E+02 -0.20432536084E+02  0.47169152900E+02  0.53122622665E+02  0.10566000000E+00 0.  1.
         13    1    4    4    0    0 -0.20291746471E+01  0.22191083927E+01  0.57821556492E+02  0.57899788868E+02  0.10566000000E+00 0. -1.
        -13    1    4    4    0    0 -0.10155251638E+02  0.16622323325E+02  0.37740187619E+03  0.37790424459E+03  0.10566000000E+00 0.  1.
        -14    1    4    4    0    0 -0.12164825907E+01  0.15911043659E+01  0.32787991659E+02  0.32849107142E+02  0.00000000000E+00 0.  1.
<mgrwt>
<rscale>  0 0.82697763E+02</rscale>
<asrwt>0</asrwt>
<pdfrwt beam="1">  1        2 0.79765916E-01 0.82697763E+02</pdfrwt>
<pdfrwt beam="2">  1       -1 0.50732172E-03 0.82697763E+02</pdfrwt>
<totfact> 0.28247943E+05</totfact>
</mgrwt>
</event>
<event>
 8    1  0.1493610E-013  0.7936430E+02  0.7818608E-02  0.1330865E+00
          2   -1    0    0  501    0  0.00000000000E+00  0.00000000000E+00  0.39958518062E+02  0.39958518144E+02  0.25500000000E-02 0. -1.
         -1   -1    0    0    0  501 -0.00000000000E+00 -0.00000000000E+00 -0.39407694989E+02  0.39407695311E+02  0.50400000000E-02 0.  1.
         24    2    1    2    0    0  0.35527136788E-14  0.00000000000E+00  0.55082307332E+00  0.79366213455E+02  0.79364302001E+02 0.  0.
         66    2    3    3    0    0 -0.31594931407E+02 -0.44586722272E+01  0.23825011038E+02  0.39871676642E+02  0.19999996673E+01 0.  0.
        -13    1    3    3    0    0  0.31594931407E+02  0.44586722272E+01 -0.23274187964E+02  0.39494536813E+02  0.10566000000E+00 0.  1.
         13    1    4    4    0    0 -0.16787856348E+02 -0.20390781309E+01  0.13091860283E+02  0.21386863494E+02  0.10566000000E+00 0. -1.
        -13    1    4    4    0    0 -0.25307572253E+01 -0.79231990795E-01  0.14802254441E+01  0.29348324045E+01  0.10566000000E+00 0.  1.
         14    1    4    4    0    0 -0.12276317833E+02 -0.23403621055E+01  0.92529253103E+01  0.15549980743E+02  0.00000000000E+00 0. -1.
<mgrwt>
<rscale>  0 0.79364302E+02</rscale>
<asrwt>0</asrwt>
<pdfrwt beam="1">  1        2 0.61474643E-02 0.79364302E+02</pdfrwt>
<pdfrwt beam="2">  1       -1 0.60627224E-02 0.79364302E+02</pdfrwt>
<totfact> 0.14569843E+05</totfact>
</mgrwt>
</event>
<event>
 8    1  0.1493610E-013  0.8141529E+02  0.7818608E-02  0.1325082E+00
         -1   -1    0    0    0  501 -0.00000000000E+00  0.00000000000E+00  0.52762865116E+03  0.52762865119E+03  0.50400000000E-02 0.  1.
          2   -1    0    0  501    0  0.00000000000E+00 -0.00000000000E+00 -0.31406785770E+01  0.31406796122E+01  0.25500000000E-02 0. -1.
         24    2    1    2    0    0  0.35527136788E-14 -0.35527136788E-14  0.52448797259E+03  0.53076933080E+03  0.81415288059E+02 0.  0.
         66    2    3    3    0    0 -0.31198927578E+02  0.19006805704E+02  0.37910890819E+03  0.38087031388E+03  0.19999949479E+01 0.  0.
        -13    1    3    3    0    0  0.31198927578E+02 -0.19006805704E+02  0.14537906439E+03  0.14989901692E+03  0.10566000000E+00 0.  1.
         13    1    4    4    0    0 -0.77675812910E+00  0.50714490860E+00  0.10301816095E+02  0.10344038285E+02  0.10566000000E+00 0.  1.
        -13    1    4    4    0    0 -0.35637942517E+01  0.26973299068E+01  0.50407181239E+02  0.50605052145E+02  0.10566000000E+00 0.  1.
         14    1    4    4    0    0 -0.26858375197E+02  0.15802330889E+02  0.31839991086E+03  0.31992122345E+03  0.00000000000E+00 0. -1.
<mgrwt>
<rscale>  0 0.81415288E+02</rscale>
<asrwt>0</asrwt>
<pdfrwt beam="1">  1        2 0.48318115E-03 0.81415288E+02</pdfrwt>
<pdfrwt beam="2">  1       -1 0.81173680E-01 0.81415288E+02</pdfrwt>
<totfact> 0.61676130E+04</totfact>
</mgrwt>
</event>
<event>
 8    1  0.1493610E-013  0.8016204E+02  0.7818608E-02  0.1328592E+00
          2   -1    0    0  501    0  0.00000000000E+00  0.00000000000E+00  0.37916061305E+03  0.37916061306E+03  0.25500000000E-02 0. -1.
         -1   -1    0    0    0  501 -0.00000000000E+00 -0.00000000000E+00 -0.42369579963E+01  0.42369609939E+01  0.50400000000E-02 0.  1.
         24    2    1    2    0    0 -0.71054273576E-14 -0.17763568394E-14  0.37492365506E+03  0.38339757406E+03  0.80162040085E+02 0.  0.
         66    2    3    3    0    0 -0.36814928990E+02  0.90257817354E+01  0.24951096852E+03  0.25238170921E+03  0.20000000533E+01 0.  0.
        -13    1    3    3    0    0  0.36814928990E+02 -0.90257817354E+01  0.12541268654E+03  0.13101586484E+03  0.10566000000E+00 0.  1.
         13    1    4    4    0    0 -0.20310115470E+02  0.44711636051E+01  0.13367816660E+03  0.13528619842E+03  0.10566000000E+00 0. -1.
        -13    1    4    4    0    0 -0.13695224009E+02  0.34236573166E+01  0.96341714253E+02  0.97370517403E+02  0.10566000000E+00 0.  1.
        -14    1    4    4    0    0 -0.28095895107E+01  0.11309608137E+01  0.19491087670E+02  0.19724993388E+02  0.00000000000E+00 0.  1.
<mgrwt>
<rscale>  0 0.80162040E+02</rscale>
<asrwt>0</asrwt>
<pdfrwt beam="1">  1        2 0.58332416E-01 0.80162040E+02</pdfrwt>
<pdfrwt beam="2">  1       -1 0.65183977E-03 0.80162040E+02</pdfrwt>
<totfact> 0.27580330E+05</totfact>
</mgrwt>
</event>
<event>
 8    1  0.1493610E-013  0.7506620E+02  0.7818608E-02  0.1343666E+00
          2   -1    0    0  501    0  0.00000000000E+00  0.00000000000E+00  0.83986756084E+01  0.83986759955E+01  0.25500000000E-02 0. -1.
         -1   -1    0    0    0  501 -0.00000000000E+00 -0.00000000000E+00 -0.16773280764E+03  0.16773280772E+03  0.50400000000E-02 0.  1.
         24    2    1    2    0    0 -0.35527136788E-14  0.00000000000E+00 -0.15933413203E+03  0.17613148371E+03  0.75066196947E+02 0.  0.
         66    2    3    3    0    0 -0.19683056644E+02 -0.24814642841E+02 -0.32589325485E+02  0.45489046621E+02  0.20000021943E+01 0.  0.
        -13    1    3    3    0    0  0.19683056644E+02  0.24814642841E+02 -0.12674480655E+03  0.13064243709E+03  0.10566000000E+00 0.  1.
         13    1    4    4    0    0 -0.15863897185E+01 -0.23403950312E+01 -0.35357894690E+01  0.45284713145E+01  0.10566000000E+00 0. -1.
        -13    1    4    4    0    0 -0.59841700560E+01 -0.72348769932E+01 -0.88031003966E+01  0.12870877087E+02  0.10566000000E+00 0.  1.
         14    1    4    4    0    0 -0.12112496869E+02 -0.15239370817E+02 -0.20250435619E+02  0.28089698220E+02  0.00000000000E+00 0. -1.
<mgrwt>
<rscale>  0 0.75066197E+02</rscale>
<asrwt>0</asrwt>
<pdfrwt beam="1">  1        2 0.12921041E-02 0.75066197E+02</pdfrwt>
<pdfrwt beam="2">  1       -1 0.25805045E-01 0.75066197E+02</pdfrwt>
<totfact> 0.12307246E+05</totfact>
</mgrwt>
</event>
<event>
 8    1  0.1493610E-013  0.7887553E+02  0.7818608E-02  0.1332273E+00
          2   -1    0    0  501    0  0.00000000000E+00  0.00000000000E+00  0.76839787615E+03  0.76839787615E+03  0.25500000000E-02 0. -1.
         -1   -1    0    0    0  501 -0.00000000000E+00 -0.00000000000E+00 -0.20241268065E+01  0.20241330812E+01  0.50400000000E-02 0.  1.
         24    2    1    2    0    0 -0.44408920985E-15  0.00000000000E+00  0.76637374934E+03  0.77042200923E+03  0.78875526188E+02 0.  0.
         66    2    3    3    0    0  0.29158604249E+01 -0.32748339574E+02  0.59572299243E+03  0.59663291871E+03  0.19999975634E+01 0.  0.
        -13    1    3    3    0    0 -0.29158604249E+01  0.32748339574E+02  0.17065075691E+03  0.17378909053E+03  0.10566000000E+00 0.  1.
         13    1    4    4    0    0  0.11536366706E+01 -0.89056595454E+01  0.15252426252E+03  0.15278842714E+03  0.10566000000E+00 0. -1.
        -13    1    4    4    0    0  0.90765600216E+00 -0.85473091617E+01  0.15105086029E+03  0.15129525403E+03  0.10566000000E+00 0.  1.
        -14    1    4    4    0    0  0.85456775212E+00 -0.15295370867E+02  0.29214786962E+03  0.29254923753E+03  0.00000000000E+00 0.  1.
<mgrwt>
<rscale>  0 0.78875526E+02</rscale>
<asrwt>0</asrwt>
<pdfrwt beam="1">  1        2 0.11821499E+00 0.78875526E+02</pdfrwt>
<pdfrwt beam="2">  1       -1 0.31140480E-03 0.78875526E+02</pdfrwt>
<totfact> 0.35391873E+05</totfact>
</mgrwt>
</event>
<event>
 8    1  0.1493610E-013  0.7866667E+02  0.7818608E-02  0.1332878E+00
         -1   -1    0    0    0  501 -0.00000000000E+00  0.00000000000E+00  0.22570674512E+01  0.22570730783E+01  0.50400000000E-02 0.  1.
          2   -1    0    0  501    0  0.00000000000E+00 -0.00000000000E+00 -0.68545114314E+03  0.68545114315E+03  0.25500000000E-02 0. -1.
         24    2    1    2    0    0 -0.17763568394E-14  0.35527136788E-14 -0.68319407569E+03  0.68770821623E+03  0.78666674040E+02 0.  0.
         66    2    3    3    0    0 -0.14099140656E+02  0.28647265621E+02 -0.54224769934E+03  0.54319059181E+03  0.20000003894E+01 0.  0.
        -13    1    3    3    0    0  0.14099140656E+02 -0.28647265621E+02 -0.14094637635E+03  0.14451762441E+03  0.10566000000E+00 0.  1.
         13    1    4    4    0    0 -0.18764807260E+01  0.35278011850E+01 -0.64856780881E+02  0.64979841116E+02  0.10566000000E+00 0. -1.
        -13    1    4    4    0    0 -0.58001597613E+01  0.99908034967E+01 -0.19461239324E+03  0.19495500192E+03  0.10566000000E+00 0.  1.
        -14    1    4    4    0    0 -0.64225001690E+01  0.15128660939E+02 -0.28277852522E+03  0.28325574877E+03  0.00000000000E+00 0.  1.
<mgrwt>
<rscale>  0 0.78666674E+02</rscale>
<asrwt>0</asrwt>
<pdfrwt beam="1">  1        2 0.10545386E+00 0.78666674E+02</pdfrwt>
<pdfrwt beam="2">  1       -1 0.34724213E-03 0.78666674E+02</pdfrwt>
<totfact> 0.34774156E+05</totfact>
</mgrwt>
</event>
<event>
 8    1  0.1493610E-013  0.7975716E+02  0.7818608E-02  0.1329742E+00
          2   -1    0    0  501    0  0.00000000000E+00  0.00000000000E+00  0.69675771457E+01  0.69675776124E+01  0.25500000000E-02 0. -1.
         -1   -1    0    0    0  501 -0.00000000000E+00 -0.00000000000E+00 -0.22824307770E+03  0.22824307775E+03  0.50400000000E-02 0.  1.
         24    2    1    2    0    0  0.88817841970E-15 -0.71054273576E-14 -0.22127550055E+03  0.23521065537E+03  0.79757164274E+02 0.  0.
         66    2    3    3    0    0 -0.49416827374E+01  0.36947401834E+02 -0.15228458401E+03  0.15679325641E+03  0.19999990069E+01 0.  0.
        -13    1    3    3    0    0  0.49416827374E+01 -0.36947401834E+02 -0.68990916538E+02  0.78417398958E+02  0.10566000000E+00 0.  1.
         13    1    4    4    0    0 -0.18595390063E+01  0.21127917469E+02 -0.86144963769E+02  0.88717601008E+02  0.10566000000E+00 0. -1.
        -13    1    4    4    0    0 -0.19973090832E+01  0.10905514023E+02 -0.45440229302E+02  0.46773337306E+02  0.10566000000E+00 0.  1.
         14    1    4    4    0    0 -0.10848346479E+01  0.49139703412E+01 -0.20699390944E+02  0.21302318094E+02  0.00000000000E+00 0. -1.
<mgrwt>
<rscale>  0 0.79757164E+02</rscale>
<asrwt>0</asrwt>
<pdfrwt beam="1">  1        2 0.10719352E-02 0.79757164E+02</pdfrwt>
<pdfrwt beam="2">  1       -1 0.35114314E-01 0.79757164E+02</pdfrwt>
<totfact> 0.96273972E+04</totfact>
</mgrwt>
</event>
<event>
 8    1  0.1493610E-013  0.8069312E+02  0.7818608E-02  0.1327096E+00
         -1   -1    0    0    0  501 -0.00000000000E+00  0.00000000000E+00  0.34844580706E+01  0.34844617155E+01  0.50400000000E-02 0.  1.
          2   -1    0    0  501    0  0.00000000000E+00 -0.00000000000E+00 -0.46717278461E+03  0.46717278461E+03  0.25500000000E-02 0. -1.
         24    2    1    2    0    0 -0.35527136788E-14  0.00000000000E+00 -0.46368832654E+03  0.47065724633E+03  0.80693118395E+02 0.  0.
         66    2    3    3    0    0  0.30786406329E+02  0.50477545190E+01 -0.38098319971E+03  0.38226362774E+03  0.19999973809E+01 0.  0.
        -13    1    3    3    0    0 -0.30786406329E+02 -0.50477545190E+01 -0.82705126826E+02  0.88393618591E+02  0.10566000000E+00 0.  1.
         13    1    4    4    0    0  0.15300714988E+02  0.16779463826E+01 -0.18917171199E+03  0.18979693139E+03  0.10566000000E+00 0. -1.
        -13    1    4    4    0    0  0.68099468355E+01  0.18662761240E+01 -0.86301332477E+02  0.86589777190E+02  0.10566000000E+00 0.  1.
         14    1    4    4    0    0  0.86757445058E+01  0.15035320123E+01 -0.10551015524E+03  0.10587691916E+03  0.00000000000E+00 0. -1.
<mgrwt>
<rscale>  0 0.80693118E+02</rscale>
<asrwt>0</asrwt>
<pdfrwt beam="1">  1        2 0.71872686E-01 0.80693118E+02</pdfrwt>
<pdfrwt beam="2">  1       -1 0.53607113E-03 0.80693118E+02</pdfrwt>
<totfact> 0.29124634E+05</totfact>
</mgrwt>
</event>
<event>
 8    1  0.1493610E-013  0.8002592E+02  0.7818608E-02  0.1328978E+00
         -1   -1    0    0    0  501 -0.00000000000E+00  0.00000000000E+00  0.57246051230E+01  0.57246073416E+01  0.50400000000E-02 0.  1.
          2   -1    0    0  501    0  0.00000000000E+00 -0.00000000000E+00 -0.27967638059E+03  0.27967638060E+03  0.25500000000E-02 0. -1.
         24    2    1    2    0    0  0.41633363423E-16  0.35527136788E-14 -0.27395177547E+03  0.28540098794E+03  0.80025924783E+02 0.  0.
         66    2    3    3    0    0  0.60956555778E-01 -0.14626106724E+02 -0.26979031732E+03  0.27019389711E+03  0.20000008136E+01 0.  0.
        -13    1    3    3    0    0 -0.60956555778E-01  0.14626106724E+02 -0.41614581467E+01  0.15207090831E+02  0.10566000000E+00 0.  1.
         13    1    4    4    0    0  0.69419849731E+00 -0.80297368850E+01 -0.13623876519E+03  0.13647699766E+03  0.10566000000E+00 0. -1.
        -13    1    4    4    0    0 -0.39656985159E+00 -0.18477129972E+01 -0.37351147903E+02  0.37399073848E+02  0.10566000000E+00 0. -1.
        -14    1    4    4    0    0 -0.23667208995E+00 -0.47486568418E+01 -0.96200404227E+02  0.96317825603E+02  0.00000000000E+00 0.  1.
<mgrwt>
<rscale>  0 0.80025925E+02</rscale>
<asrwt>0</asrwt>
<pdfrwt beam="1">  1        2 0.43027125E-01 0.80025925E+02</pdfrwt>
<pdfrwt beam="2">  1       -1 0.88070887E-03 0.80025925E+02</pdfrwt>
<totfact> 0.24833638E+05</totfact>
</mgrwt>
</event>
<event>
 8    1  0.1493610E-013  0.8241189E+02  0.7818608E-02  0.1322343E+00
         -1   -1    0    0    0  501 -0.00000000000E+00  0.00000000000E+00  0.22080423671E+02  0.22080424246E+02  0.50400000000E-02 0.  1.
          2   -1    0    0  501    0  0.00000000000E+00 -0.00000000000E+00 -0.76897517233E+02  0.76897517275E+02  0.25500000000E-02 0. -1.
         24    2    1    2    0    0  0.00000000000E+00 -0.17763568394E-14 -0.54817093562E+02  0.98977941521E+02  0.82411887257E+02 0.  0.
         66    2    3    3    0    0  0.31340905173E+02 -0.13404452874E+02 -0.55178055938E+02  0.64888747459E+02  0.19999989601E+01 0.  0.
        -13    1    3    3    0    0 -0.31340905173E+02  0.13404452874E+02  0.36096237616E+00  0.34089194062E+02  0.10566000000E+00 0.  1.
         13    1    4    4    0    0  0.47951915601E+01 -0.21687150168E+01 -0.88930640307E+01  0.10334163673E+02  0.10566000000E+00 0. -1.
        -13    1    4    4    0    0  0.53762476824E+01 -0.24843514915E+01 -0.10810176253E+02  0.12326683095E+02  0.10566000000E+00 0.  1.
        -14    1    4    4    0    0  0.21169465931E+02 -0.87513863655E+01 -0.35474815654E+02  0.42227900691E+02  0.00000000000E+00 0.  1.
<mgrwt>
<rscale>  0 0.82411887E+02</rscale>
<asrwt>0</asrwt>
<pdfrwt beam="1">  1        2 0.11830387E-01 0.82411887E+02</pdfrwt>
<pdfrwt beam="2">  1       -1 0.33969884E-02 0.82411887E+02</pdfrwt>
<totfact> 0.15252493E+05</totfact>
</mgrwt>
</event>
<event>
 8    1  0.1493610E-013  0.7978928E+02  0.7818608E-02  0.1329650E+00
          2   -1    0    0  501    0  0.00000000000E+00  0.00000000000E+00  0.43670430970E+03  0.43670430971E+03  0.25500000000E-02 0. -1.
         -1   -1    0    0    0  501 -0.00000000000E+00 -0.00000000000E+00 -0.36445289754E+01  0.36445324603E+01  0.50400000000E-02 0.  1.
         24    2    1    2    0    0 -0.71054273576E-14  0.00000000000E+00  0.43305978073E+03  0.44034884217E+03  0.79789279463E+02 0.  0.
         66    2    3    3    0    0  0.36504257797E+02 -0.63156133588E+01  0.29798824909E+03  0.30028893488E+03  0.20000004208E+01 0.  0.
        -13    1    3    3    0    0 -0.36504257797E+02  0.63156133588E+01  0.13507153164E+03  0.14005990730E+03  0.10566000000E+00 0.  1.
         13    1    4    4    0    0  0.10047539203E+02 -0.13615491192E+01  0.87440702177E+02  0.88026668807E+02  0.10566000000E+00 0. -1.
        -13    1    4    4    0    0  0.11734662636E+02 -0.20651115896E+01  0.90712235296E+02  0.91491462932E+02  0.10566000000E+00 0.  1.
         14    1    4    4    0    0  0.14722055959E+02 -0.28889526500E+01  0.11983531162E+03  0.12077080314E+03  0.00000000000E+00 0. -1.
<mgrwt>
<rscale>  0 0.79789279E+02</rscale>
<asrwt>0</asrwt>
<pdfrwt beam="1">  1        2 0.67185316E-01 0.79789279E+02</pdfrwt>
<pdfrwt beam="2">  1       -1 0.56069673E-03 0.79789279E+02</pdfrwt>
<totfact> 0.29323184E+05</totfact>
</mgrwt>
</event>
<event>
 8    1  0.1493610E-013  0.7932365E+02  0.7818608E-02  0.1330982E+00
         -1   -1    0    0    0  501 -0.00000000000E+00  0.00000000000E+00  0.89035711796E+01  0.89035726060E+01  0.50400000000E-02 0.  1.
          2   -1    0    0  501    0  0.00000000000E+00 -0.00000000000E+00 -0.17667742629E+03  0.17667742631E+03  0.25500000000E-02 0. -1.
         24    2    1    2    0    0  0.00000000000E+00  0.00000000000E+00 -0.16777385511E+03  0.18558099891E+03  0.79323645273E+02 0.  0.
         66    2    3    3    0    0  0.27652824154E+02  0.31974778398E+01 -0.14995303811E+03  0.15252808329E+03  0.20000020628E+01 0.  0.
        -13    1    3    3    0    0 -0.27652824154E+02 -0.31974778398E+01 -0.17820817005E+02  0.33052915620E+02  0.10566000000E+00 0.  1.
         13    1    4    4    0    0  0.11115074176E+02  0.95345989028E+00 -0.58353857753E+02  0.59410755242E+02  0.10566000000E+00 0. -1.
        -13    1    4    4    0    0  0.20310379766E+01 -0.15122348127E+00 -0.10555336535E+02  0.10750547763E+02  0.10566000000E+00 0.  1.
        -14    1    4    4    0    0  0.14506712002E+02  0.23952414308E+01 -0.81043843817E+02  0.82366780290E+02  0.00000000000E+00 0.  1.
<mgrwt>
<rscale>  0 0.79323645E+02</rscale>
<asrwt>0</asrwt>
<pdfrwt beam="1">  1        2 0.27181140E-01 0.79323645E+02</pdfrwt>
<pdfrwt beam="2">  1       -1 0.13697804E-02 0.79323645E+02</pdfrwt>
<totfact> 0.21620420E+05</totfact>
</mgrwt>
</event>
<event>
 8    1  0.1493610E-013  0.7232563E+02  0.7818608E-02  0.1352359E+00
          2   -1    0    0  501    0  0.00000000000E+00  0.00000000000E+00  0.34615149007E+02  0.34615149101E+02  0.25500000000E-02 0. -1.
         -1   -1    0    0    0  501 -0.00000000000E+00 -0.00000000000E+00 -0.37779674123E+02  0.37779674459E+02  0.50400000000E-02 0.  1.
         24    2    1    2    0    0 -0.35527136788E-14  0.00000000000E+00 -0.31645251157E+01  0.72394823560E+02  0.72325626572E+02 0.  0.
         66    2    3    3    0    0 -0.17128625188E+02  0.23979480567E+02  0.19349189522E+02  0.35310004565E+02  0.19999995332E+01 0.  0.
        -13    1    3    3    0    0  0.17128625188E+02 -0.23979480567E+02 -0.22513714638E+02  0.37084818995E+02  0.10566000000E+00 0.  1.
         13    1    4    4    0    0 -0.11440481159E+02  0.17057748037E+02  0.13962013712E+02  0.24835465934E+02  0.10566000000E+00 0. -1.
        -13    1    4    4    0    0 -0.38735733881E+01  0.42430637168E+01  0.35331270117E+01  0.67455400832E+01  0.10566000000E+00 0.  1.
         14    1    4    4    0    0 -0.18145706405E+01  0.26786688131E+01  0.18540487988E+01  0.37289985476E+01  0.00000000000E+00 0. -1.
<mgrwt>
<rscale>  0 0.72325627E+02</rscale>
<asrwt>0</asrwt>
<pdfrwt beam="1">  1        2 0.53254076E-02 0.72325627E+02</pdfrwt>
<pdfrwt beam="2">  1       -1 0.58122576E-02 0.72325627E+02</pdfrwt>
<totfact> 0.18282549E+05</totfact>
</mgrwt>
</event>
<event>
 8    1  0.1493610E-013  0.8067259E+02  0.7818608E-02  0.1327153E+00
          2   -1    0    0  501    0  0.00000000000E+00  0.00000000000E+00  0.50423529342E+03  0.50423529343E+03  0.25500000000E-02 0. -1.
         -1   -1    0    0    0  501 -0.00000000000E+00 -0.00000000000E+00 -0.32266996918E+01  0.32267036279E+01  0.50400000000E-02 0.  1.
         24    2    1    2    0    0  0.71054273576E-14  0.35527136788E-14  0.50100859373E+03  0.50746199706E+03  0.80672594262E+02 0.  0.
         66    2    3    3    0    0 -0.24860237161E+02 -0.30373834323E+02  0.30845096393E+03  0.31094468698E+03  0.20000014083E+01 0.  0.
        -13    1    3    3    0    0  0.24860237161E+02  0.30373834323E+02  0.19255762980E+03  0.19651731008E+03  0.10566000000E+00 0.  1.
         13    1    4    4    0    0 -0.32960113085E+00 -0.45418183551E+00  0.47439140750E+01  0.47781589375E+01  0.10566000000E+00 0.  1.
        -13    1    4    4    0    0 -0.52832753387E+01 -0.74245738561E+01  0.74594687365E+02  0.75149290366E+02  0.10566000000E+00 0.  1.
         14    1    4    4    0    0 -0.19247360691E+02 -0.22495078632E+02  0.22911236249E+03  0.23101723768E+03  0.00000000000E+00 0. -1.
<mgrwt>
<rscale>  0 0.80672594E+02</rscale>
<asrwt>0</asrwt>
<pdfrwt beam="1">  1        2 0.77574616E-01 0.80672594E+02</pdfrwt>
<pdfrwt beam="2">  1       -1 0.49641593E-03 0.80672594E+02</pdfrwt>
<totfact> 0.29873857E+05</totfact>
</mgrwt>
</event>
<event>
 8    1  0.1493610E-013  0.8039464E+02  0.7818608E-02  0.1327935E+00
         -1   -1    0    0    0  501 -0.00000000000E+00  0.00000000000E+00  0.10774036579E+02  0.10774037758E+02  0.50400000000E-02 0.  1.
          2   -1    0    0  501    0  0.00000000000E+00 -0.00000000000E+00 -0.14997390083E+03  0.14997390085E+03  0.25500000000E-02 0. -1.
         24    2    1    2    0    0 -0.71054273576E-14  0.00000000000E+00 -0.13919986425E+03  0.16074793860E+03  0.80394636386E+02 0.  0.
         66    2    3    3    0    0 -0.23074059789E+02  0.12360074890E+02 -0.13057426854E+03  0.13318717389E+03  0.19999993342E+01 0.  0.
        -13    1    3    3    0    0  0.23074059789E+02 -0.12360074890E+02 -0.86255957063E+01  0.27560764716E+02  0.10566000000E+00 0.  1.
         13    1    4    4    0    0 -0.35845110925E+01  0.21181464382E+01 -0.21417626224E+02  0.21818825385E+02  0.10566000000E+00 0. -1.
        -13    1    4    4    0    0 -0.43657365499E-01  0.32690809478E-01 -0.73481746916E+00  0.74437584806E+00  0.10566000000E+00 0.  1.
         14    1    4    4    0    0 -0.19445891331E+02  0.10209237643E+02 -0.10842182485E+03  0.11062397266E+03  0.00000000000E+00 0. -1.
<mgrwt>
<rscale>  0 0.80394636E+02</rscale>
<asrwt>0</asrwt>
<pdfrwt beam="1">  1        2 0.23072906E-01 0.80394636E+02</pdfrwt>
<pdfrwt beam="2">  1       -1 0.16575443E-02 0.80394636E+02</pdfrwt>
<totfact> 0.19768996E+05</totfact>
</mgrwt>
</event>
<event>
 8    1  0.1493610E-013  0.8079281E+02  0.7818608E-02  0.1326816E+00
         -1   -1    0    0    0  501 -0.00000000000E+00  0.00000000000E+00  0.16125614317E+02  0.16125615105E+02  0.50400000000E-02 0.  1.
          2   -1    0    0  501    0  0.00000000000E+00 -0.00000000000E+00 -0.10119735621E+03  0.10119735624E+03  0.25500000000E-02 0. -1.
         24    2    1    2    0    0  0.00000000000E+00  0.35527136788E-14 -0.85071741889E+02  0.11732297134E+03  0.80792811171E+02 0.  0.
         66    2    3    3    0    0 -0.88690970402E+01  0.18803798718E+02 -0.92815791974E+02  0.95136822415E+02  0.20000027012E+01 0.  0.
        -13    1    3    3    0    0  0.88690970402E+01 -0.18803798718E+02  0.77440500850E+01  0.22186148929E+02  0.10566000000E+00 0.  1.
         13    1    4    4    0    0 -0.21396505627E+01  0.43401162041E+01 -0.24126091342E+02  0.24606790947E+02  0.10566000000E+00 0. -1.
        -13    1    4    4    0    0 -0.65408044632E+01  0.13760625837E+02 -0.64311668964E+02  0.66091897200E+02  0.10566000000E+00 0.  1.
        -14    1    4    4    0    0 -0.18864201437E+00  0.70305667697E+00 -0.43780316677E+01  0.44381342684E+01  0.00000000000E+00 0.  1.
<mgrwt>
<rscale>  0 0.80792811E+02</rscale>
<asrwt>0</asrwt>
<pdfrwt beam="1">  1        2 0.15568824E-01 0.80792811E+02</pdfrwt>
<pdfrwt beam="2">  1       -1 0.24808639E-02 0.80792811E+02</pdfrwt>
<totfact> 0.17321325E+05</totfact>
</mgrwt>
</event>
<event>
 8    1  0.1493610E-013  0.8042736E+02  0.7818608E-02  0.1327843E+00
          2   -1    0    0  501    0  0.00000000000E+00  0.00000000000E+00  0.21640261320E+03  0.21640261322E+03  0.25500000000E-02 0. -1.
         -1   -1    0    0    0  501 -0.00000000000E+00 -0.00000000000E+00 -0.74728303892E+01  0.74728320888E+01  0.50400000000E-02 0.  1.
         24    2    1    2    0    0  0.00000000000E+00  0.00000000000E+00  0.20892978281E+03  0.22387544531E+03  0.80427363905E+02 0.  0.
         66    2    3    3    0    0 -0.23613390797E+02  0.14603143192E+02  0.18541072977E+03  0.18748862027E+03  0.20000003419E+01 0.  0.
        -13    1    3    3    0    0  0.23613390797E+02 -0.14603143192E+02  0.23519053042E+02  0.36386825034E+02  0.10566000000E+00 0.  1.
         13    1    4    4    0    0 -0.42219656495E+01  0.28045014322E+01  0.35259821693E+02  0.35622414462E+02  0.10566000000E+00 0. -1.
        -13    1    4    4    0    0 -0.15816910602E+02  0.10072578288E+02  0.12713559449E+03  0.12851109697E+03  0.10566000000E+00 0.  1.
        -14    1    4    4    0    0 -0.35745145455E+01  0.17260634713E+01  0.23015313586E+02  0.23355108837E+02  0.00000000000E+00 0.  1.
<mgrwt>
<rscale>  0 0.80427364E+02</rscale>
<asrwt>0</asrwt>
<pdfrwt beam="1">  1        2 0.33292708E-01 0.80427364E+02</pdfrwt>
<pdfrwt beam="2">  1       -1 0.11496664E-02 0.80427364E+02</pdfrwt>
<totfact> 0.22358870E+05</totfact>
</mgrwt>
</event>
<event>
 8    1  0.1493610E-013  0.7095812E+02  0.7818608E-02  0.1356865E+00
         -1   -1    0    0    0  501 -0.00000000000E+00  0.00000000000E+00  0.11137330984E+01  0.11137445022E+01  0.50400000000E-02 0.  1.
          2   -1    0    0  501    0  0.00000000000E+00 -0.00000000000E+00 -0.11302144848E+04  0.11302144848E+04  0.25500000000E-02 0. -1.
         24    2    1    2    0    0  0.00000000000E+00  0.00000000000E+00 -0.11291007517E+04  0.11313282293E+04  0.70958120954E+02 0.  0.
         66    2    3    3    0    0  0.20942670940E+01  0.15513267670E+02 -0.10721224363E+04  0.10722385769E+04  0.19999987836E+01 0.  0.
        -13    1    3    3    0    0 -0.20942670940E+01 -0.15513267670E+02 -0.56978315363E+02  0.59089652343E+02  0.10566000000E+00 0.  1.
         13    1    4    4    0    0  0.12985965222E+01  0.71190082856E+01 -0.47558494130E+03  0.47564000483E+03  0.10566000000E+00 0. -1.
        -13    1    4    4    0    0  0.26925268126E+00  0.16337221968E+01 -0.15710497426E+03  0.15711373475E+03  0.10566000000E+00 0.  1.
        -14    1    4    4    0    0  0.52641789051E+00  0.67605371873E+01 -0.43943252076E+03  0.43948483737E+03  0.00000000000E+00 0.  1.
<mgrwt>
<rscale>  0 0.70958121E+02</rscale>
<asrwt>0</asrwt>
<pdfrwt beam="1">  1        2 0.17387823E+00 0.70958121E+02</pdfrwt>
<pdfrwt beam="2">  1       -1 0.17134534E-03 0.70958121E+02</pdfrwt>
<totfact> 0.47982275E+05</totfact>
</mgrwt>
</event>
<event>
 8    1  0.1493610E-013  0.7924907E+02  0.7818608E-02  0.1331196E+00
          2   -1    0    0  501    0  0.00000000000E+00  0.00000000000E+00  0.18061397799E+02  0.18061397979E+02  0.25500000000E-02 0. -1.
         -1   -1    0    0    0  501 -0.00000000000E+00 -0.00000000000E+00 -0.86931474144E+02  0.86931474290E+02  0.50400000000E-02 0.  1.
         24    2    1    2    0    0 -0.35527136788E-14  0.00000000000E+00 -0.68870076345E+02  0.10499287227E+03  0.79249074515E+02 0.  0.
         66    2    3    3    0    0 -0.28207317129E+02  0.25768765322E+02 -0.20662143476E+02  0.43481101351E+02  0.19999989607E+01 0.  0.
        -13    1    3    3    0    0  0.28207317129E+02 -0.25768765322E+02 -0.48207932869E+02  0.61511770917E+02  0.10566000000E+00 0.  1.
         13    1    4    4    0    0 -0.42633574677E+01  0.37101835776E+01 -0.24991346589E+01  0.61804948958E+01  0.10566000000E+00 0. -1.
        -13    1    4    4    0    0 -0.98015020223E+01  0.83679638356E+01 -0.75942839868E+01  0.14959163545E+02  0.10566000000E+00 0.  1.
        -14    1    4    4    0    0 -0.14142457639E+02  0.13690617909E+02 -0.10568724830E+02  0.22341442911E+02  0.00000000000E+00 0.  1.
<mgrwt>
<rscale>  0 0.79249075E+02</rscale>
<asrwt>0</asrwt>
<pdfrwt beam="1">  1        2 0.27786767E-02 0.79249075E+02</pdfrwt>
<pdfrwt beam="2">  1       -1 0.13374073E-01 0.79249075E+02</pdfrwt>
<totfact> 0.12495426E+05</totfact>
</mgrwt>
</event>
<event>
 8    1  0.1493610E-013  0.8018070E+02  0.7818608E-02  0.1328539E+00
         -1   -1    0    0    0  501 -0.00000000000E+00  0.00000000000E+00  0.50444283931E+01  0.50444309109E+01  0.50400000000E-02 0.  1.
          2   -1    0    0  501    0  0.00000000000E+00 -0.00000000000E+00 -0.31861605861E+03  0.31861605862E+03  0.25500000000E-02 0. -1.
         24    2    1    2    0    0  0.00000000000E+00  0.00000000000E+00 -0.31357163022E+03  0.32366048953E+03  0.80180703456E+02 0.  0.
         66    2    3    3    0    0 -0.66475511028E+01 -0.16711333917E+02 -0.30140222213E+03  0.30194495882E+03  0.20000082949E+01 0.  0.
        -13    1    3    3    0    0  0.66475511028E+01  0.16711333917E+02 -0.12169408085E+02  0.21715530712E+02  0.10566000000E+00 0.  1.
         13    1    4    4    0    0 -0.13796828788E+01 -0.29378340476E+01 -0.44874632012E+02  0.44991978796E+02  0.10566000000E+00 0. -1.
        -13    1    4    4    0    0 -0.17007194266E+01 -0.57051628996E+01 -0.10610544743E+03  0.10627237867E+03  0.10566000000E+00 0. -1.
         14    1    4    4    0    0 -0.35671487975E+01 -0.80683369694E+01 -0.15042214269E+03  0.15068060135E+03  0.00000000000E+00 0. -1.
<mgrwt>
<rscale>  0 0.80180703E+02</rscale>
<asrwt>0</asrwt>
<pdfrwt beam="1">  1        2 0.49017839E-01 0.80180703E+02</pdfrwt>
<pdfrwt beam="2">  1       -1 0.77606636E-03 0.80180703E+02</pdfrwt>
<totfact> 0.25901898E+05</totfact>
</mgrwt>
</event>
<event>
 8    1  0.1493610E-013  0.8397848E+02  0.7818608E-02  0.1318126E+00
         -1   -1    0    0    0  501 -0.00000000000E+00  0.00000000000E+00  0.20539644051E+01  0.20539705886E+01  0.50400000000E-02 0.  1.
          2   -1    0    0  501    0  0.00000000000E+00 -0.00000000000E+00 -0.85838572922E+03  0.85838572923E+03  0.25500000000E-02 0. -1.
         24    2    1    2    0    0  0.88817841970E-15  0.00000000000E+00 -0.85633176482E+03  0.86043969981E+03  0.83978482853E+02 0.  0.
         66    2    3    3    0    0 -0.69556909338E+01 -0.26563976222E+02 -0.75355609845E+03  0.75405889689E+03  0.20000007157E+01 0.  0.
        -13    1    3    3    0    0  0.69556909338E+01  0.26563976222E+02 -0.10277566637E+03  0.10638080292E+03  0.10566000000E+00 0.  1.
         13    1    4    4    0    0 -0.54132063072E+01 -0.19119207860E+02 -0.55975158395E+03  0.56010418122E+03  0.10566000000E+00 0. -1.
        -13    1    4    4    0    0 -0.13170417941E+01 -0.48940153939E+01 -0.12681074943E+03  0.12691202985E+03  0.10566000000E+00 0.  1.
         14    1    4    4    0    0 -0.22544283262E+00 -0.25507529675E+01 -0.66993765062E+02  0.67042685823E+02  0.00000000000E+00 0. -1.
<mgrwt>
<rscale>  0 0.83978483E+02</rscale>
<asrwt>0</asrwt>
<pdfrwt beam="1">  1        2 0.13205906E+00 0.83978483E+02</pdfrwt>
<pdfrwt beam="2">  1       -1 0.31599569E-03 0.83978483E+02</pdfrwt>
<totfact> 0.30619026E+05</totfact>
</mgrwt>
</event>
<event>
 8    1  0.1493610E-013  0.8185970E+02  0.7818608E-02  0.1323855E+00
         -1   -1    0    0    0  501 -0.00000000000E+00  0.00000000000E+00  0.29023736398E+02  0.29023736835E+02  0.50400000000E-02 0.  1.
          2   -1    0    0  501    0  0.00000000000E+00 -0.00000000000E+00 -0.57720084092E+02  0.57720084148E+02  0.25500000000E-02 0. -1.
         24    2    1    2    0    0  0.71054273576E-14  0.00000000000E+00 -0.28696347694E+02  0.86743820984E+02  0.81859697702E+02 0.  0.
         66    2    3    3    0    0  0.32101474124E+02 -0.22359729788E+02 -0.16944840536E+01  0.39208844796E+02  0.20000192255E+01 0.  0.
        -13    1    3    3    0    0 -0.32101474124E+02  0.22359729788E+02 -0.27001863641E+02  0.47534976188E+02  0.10566000000E+00 0.  1.
         13    1    4    4    0    0  0.10169667044E+02 -0.75070942806E+01 -0.75347923915E+00  0.12663233684E+02  0.10566000000E+00 0. -1.
        -13    1    4    4    0    0  0.43280076751E+01 -0.35185871499E+01 -0.53947329012E+00  0.56048462453E+01  0.10566000000E+00 0.  1.
        -14    1    4    4    0    0  0.17603799405E+02 -0.11334048357E+02 -0.40153152437E+00  0.20940764867E+02  0.00000000000E+00 0.  1.
<mgrwt>
<rscale>  0 0.81859698E+02</rscale>
<asrwt>0</asrwt>
<pdfrwt beam="1">  1        2 0.88800129E-02 0.81859698E+02</pdfrwt>
<pdfrwt beam="2">  1       -1 0.44651903E-02 0.81859698E+02</pdfrwt>
<totfact> 0.14490554E+05</totfact>
</mgrwt>
</event>
<event>
 8    1  0.1493610E-013  0.8036569E+02  0.7818608E-02  0.1328017E+00
          2   -1    0    0  501    0  0.00000000000E+00  0.00000000000E+00  0.23029930951E+03  0.23029930952E+03  0.25500000000E-02 0. -1.
         -1   -1    0    0    0  501 -0.00000000000E+00 -0.00000000000E+00 -0.70111402557E+01  0.70111420672E+01  0.50400000000E-02 0.  1.
         24    2    1    2    0    0  0.00000000000E+00  0.00000000000E+00  0.22328816925E+03  0.23731045159E+03  0.80365688609E+02 0.  0.
         66    2    3    3    0    0  0.14379391047E+02  0.28181657333E+02  0.18474441643E+03  0.18744458408E+03  0.20000003410E+01 0.  0.
        -13    1    3    3    0    0 -0.14379391047E+02 -0.28181657333E+02  0.38543752819E+02  0.49865867508E+02  0.10566000000E+00 0.  1.
         13    1    4    4    0    0  0.72140797717E+01  0.14438535615E+02  0.89225276922E+02  0.90673455121E+02  0.10566000000E+00 0. -1.
        -13    1    4    4    0    0  0.25287081290E+00  0.74898113576E+00  0.48392617319E+01  0.49045422350E+01  0.10566000000E+00 0. -1.
         14    1    4    4    0    0  0.69124404623E+01  0.12994140582E+02  0.90679877780E+02  0.91866586726E+02  0.00000000000E+00 0. -1.
<mgrwt>
<rscale>  0 0.80365689E+02</rscale>
<asrwt>0</asrwt>
<pdfrwt beam="1">  1        2 0.35430656E-01 0.80365689E+02</pdfrwt>
<pdfrwt beam="2">  1       -1 0.10786373E-02 0.80365689E+02</pdfrwt>
<totfact> 0.22902938E+05</totfact>
</mgrwt>
</event>
<event>
 8    1  0.1493610E-013  0.7733164E+02  0.7818608E-02  0.1336799E+00
          2   -1    0    0  501    0  0.00000000000E+00  0.00000000000E+00  0.11200833400E+04  0.11200833400E+04  0.25500000000E-02 0. -1.
         -1   -1    0    0    0  501 -0.00000000000E+00 -0.00000000000E+00 -0.13347581005E+01  0.13347676159E+01  0.50400000000E-02 0.  1.
         24    2    1    2    0    0  0.00000000000E+00 -0.35527136788E-14  0.11187485819E+04  0.11214181076E+04  0.77331640309E+02 0.  0.
         66    2    3    3    0    0  0.19774093972E+02  0.16996442383E+02  0.97326580318E+03  0.97361707950E+03  0.20000000128E+01 0.  0.
        -13    1    3    3    0    0 -0.19774093972E+02 -0.16996442383E+02  0.14548277869E+03  0.14780102809E+03  0.10566000000E+00 0.  1.
         13    1    4    4    0    0  0.11082099644E+01  0.13598193897E+01  0.71363047196E+02  0.71384682581E+02  0.10566000000E+00 0. -1.
        -13    1    4    4    0    0  0.49285090202E+01  0.48175055859E+01  0.24482030725E+03  0.24491731782E+03  0.10566000000E+00 0.  1.
         14    1    4    4    0    0  0.13737374987E+02  0.10819117408E+02  0.65708244874E+03  0.65731507910E+03  0.00000000000E+00 0. -1.
<mgrwt>
<rscale>  0 0.77331640E+02</rscale>
<asrwt>0</asrwt>
<pdfrwt beam="1">  1        2 0.17232039E+00 0.77331640E+02</pdfrwt>
<pdfrwt beam="2">  1       -1 0.20534828E-03 0.77331640E+02</pdfrwt>
<totfact> 0.38463876E+05</totfact>
</mgrwt>
</event>
<event>
 8    1  0.1493610E-013  0.8141284E+02  0.7818608E-02  0.1325089E+00
          2   -1    0    0  501    0  0.00000000000E+00  0.00000000000E+00  0.27567026698E+02  0.27567026816E+02  0.25500000000E-02 0. -1.
         -1   -1    0    0    0  501 -0.00000000000E+00 -0.00000000000E+00 -0.60108497452E+02  0.60108497663E+02  0.50400000000E-02 0.  1.
         24    2    1    2    0    0  0.35527136788E-14 -0.35527136788E-14 -0.32541470754E+02  0.87675524479E+02  0.81412838507E+02 0.  0.
         66    2    3    3    0    0  0.31222218918E+02 -0.16991579204E+02  0.50269966113E+01  0.35955686677E+02  0.19999978684E+01 0.  0.
        -13    1    3    3    0    0 -0.31222218918E+02  0.16991579204E+02 -0.37568467365E+02  0.51719837802E+02  0.10566000000E+00 0.  1.
         13    1    4    4    0    0  0.11836682881E+02 -0.66510874149E+01  0.13781738039E+01  0.13647510853E+02  0.10566000000E+00 0. -1.
        -13    1    4    4    0    0  0.11843589402E+02 -0.58728929464E+01  0.26784579589E+01  0.13488765049E+02  0.10566000000E+00 0.  1.
        -14    1    4    4    0    0  0.75419466357E+01 -0.44675988432E+01  0.97036484851E+00  0.88194107751E+01  0.00000000000E+00 0.  1.
<mgrwt>
<rscale>  0 0.81412839E+02</rscale>
<asrwt>0</asrwt>
<pdfrwt beam="1">  1        2 0.42410811E-02 0.81412839E+02</pdfrwt>
<pdfrwt beam="2">  1       -1 0.92474611E-02 0.81412839E+02</pdfrwt>
<totfact> 0.12595402E+05</totfact>
</mgrwt>
</event>
<event>
 8    1  0.1493610E-013  0.8057424E+02  0.7818608E-02  0.1327430E+00
         -1   -1    0    0    0  501 -0.00000000000E+00  0.00000000000E+00  0.14234224060E+02  0.14234224952E+02  0.50400000000E-02 0.  1.
          2   -1    0    0  501    0  0.00000000000E+00 -0.00000000000E+00 -0.11402462243E+03  0.11402462246E+03  0.25500000000E-02 0. -1.
         24    2    1    2    0    0 -0.35527136788E-14  0.00000000000E+00 -0.99790398370E+02  0.12825884741E+03  0.80574241122E+02 0.  0.
         66    2    3    3    0    0 -0.26357955525E+02  0.30294508745E+02 -0.54579831991E+02  0.67789801149E+02  0.20000000183E+01 0.  0.
        -13    1    3    3    0    0  0.26357955525E+02 -0.30294508745E+02 -0.45210566379E+02  0.60469046262E+02  0.10566000000E+00 0.  1.
         13    1    4    4    0    0 -0.44430972985E+01  0.49703463668E+01 -0.86852472459E+01  0.10949435619E+02  0.10566000000E+00 0. -1.
        -13    1    4    4    0    0 -0.52316625307E+01  0.51444586532E+01 -0.94087634799E+01  0.11931963037E+02  0.10566000000E+00 0.  1.
        -14    1    4    4    0    0 -0.16683195696E+02  0.20179703725E+02 -0.36485821265E+02  0.44908402493E+02  0.00000000000E+00 0.  1.
<mgrwt>
<rscale>  0 0.80574241E+02</rscale>
<asrwt>0</asrwt>
<pdfrwt beam="1">  1        2 0.17542249E-01 0.80574241E+02</pdfrwt>
<pdfrwt beam="2">  1       -1 0.21898808E-02 0.80574241E+02</pdfrwt>
<totfact> 0.18057463E+05</totfact>
</mgrwt>
</event>
<event>
 8    1  0.1493610E-013  0.7975660E+02  0.7818608E-02  0.1329744E+00
         -1   -1    0    0    0  501 -0.00000000000E+00  0.00000000000E+00  0.56236020042E+01  0.56236042627E+01  0.50400000000E-02 0.  1.
          2   -1    0    0  501    0  0.00000000000E+00 -0.00000000000E+00 -0.28278644433E+03  0.28278644434E+03  0.25500000000E-02 0. -1.
         24    2    1    2    0    0  0.00000000000E+00  0.00000000000E+00 -0.27716284233E+03  0.28841004860E+03  0.79756598284E+02 0.  0.
         66    2    3    3    0    0  0.16868491049E+02 -0.19726986791E+02 -0.24802697069E+03  0.24938941076E+03  0.20000021141E+01 0.  0.
        -13    1    3    3    0    0 -0.16868491049E+02  0.19726986791E+02 -0.29135871630E+02  0.39020637845E+02  0.10566000000E+00 0.  1.
         13    1    4    4    0    0  0.12515716761E+02 -0.14821135784E+02 -0.18921086534E+03  0.19020271281E+03  0.10566000000E+00 0. -1.
        -13    1    4    4    0    0  0.16092944659E+01 -0.12477003234E+01 -0.18680139825E+02  0.18791098230E+02  0.10566000000E+00 0.  1.
        -14    1    4    4    0    0  0.27434798220E+01 -0.36581506838E+01 -0.40135965526E+02  0.40395599719E+02  0.00000000000E+00 0.  1.
<mgrwt>
<rscale>  0 0.79756598E+02</rscale>
<asrwt>0</asrwt>
<pdfrwt beam="1">  1        2 0.43505596E-01 0.79756598E+02</pdfrwt>
<pdfrwt beam="2">  1       -1 0.86516993E-03 0.79756598E+02</pdfrwt>
<totfact> 0.25154844E+05</totfact>
</mgrwt>
</event>
<event>
 8    1  0.1493610E-013  0.8034597E+02  0.7818608E-02  0.1328072E+00
          2   -1    0    0  501    0  0.00000000000E+00  0.00000000000E+00  0.35943986252E+02  0.35943986343E+02  0.25500000000E-02 0. -1.
         -1   -1    0    0    0  501 -0.00000000000E+00 -0.00000000000E+00 -0.44899552480E+02  0.44899552763E+02  0.50400000000E-02 0.  1.
         24    2    1    2    0    0  0.35527136788E-14  0.00000000000E+00 -0.89555662275E+01  0.80843539106E+02  0.80345974689E+02 0.  0.
         66    2    3    3    0    0 -0.21267788914E+02 -0.20731608597E+02  0.22700542570E+02  0.37435719205E+02  0.19999997885E+01 0.  0.
        -13    1    3    3    0    0  0.21267788914E+02  0.20731608597E+02 -0.31656108798E+02  0.43407819901E+02  0.10566000000E+00 0.  1.
         13    1    4    4    0    0 -0.30081159248E+00 -0.32551259223E+00  0.34368415707E+00  0.57072663972E+00  0.10566000000E+00 0.  1.
        -13    1    4    4    0    0 -0.16351634004E+01 -0.21437846684E+01  0.24660524602E+01  0.36554275840E+01  0.10566000000E+00 0.  1.
         14    1    4    4    0    0 -0.19331813921E+02 -0.18262311336E+02  0.19890805953E+02  0.33209564981E+02  0.00000000000E+00 0. -1.
<mgrwt>
<rscale>  0 0.80345975E+02</rscale>
<asrwt>0</asrwt>
<pdfrwt beam="1">  1        2 0.55298441E-02 0.80345975E+02</pdfrwt>
<pdfrwt beam="2">  1       -1 0.69076235E-02 0.80345975E+02</pdfrwt>
<totfact> 0.13782188E+05</totfact>
</mgrwt>
</event>
<event>
 8    1  0.1493610E-013  0.8015331E+02  0.7818608E-02  0.1328617E+00
          2   -1    0    0  501    0  0.00000000000E+00  0.00000000000E+00  0.17674280456E+03  0.17674280458E+03  0.25500000000E-02 0. -1.
         -1   -1    0    0    0  501 -0.00000000000E+00 -0.00000000000E+00 -0.90874319159E+01  0.90874333135E+01  0.50400000000E-02 0.  1.
         24    2    1    2    0    0  0.88817841970E-15 -0.17763568394E-14  0.16765537265E+03  0.18583023790E+03  0.80153311464E+02 0.  0.
         66    2    3    3    0    0 -0.45745104649E+01  0.90769282705E+01  0.17369677005E+03  0.17400541572E+03  0.20000001331E+01 0.  0.
        -13    1    3    3    0    0  0.45745104649E+01 -0.90769282705E+01 -0.60413974052E+01  0.11824822175E+02  0.10566000000E+00 0.  1.
         13    1    4    4    0    0 -0.11059237738E+01  0.28703347591E+01  0.52944830696E+02  0.53034216790E+02  0.10566000000E+00 0. -1.
        -13    1    4    4    0    0 -0.47984519038E+00  0.22115665913E+01  0.33187910667E+02  0.33265144772E+02  0.10566000000E+00 0.  1.
         14    1    4    4    0    0 -0.29887415008E+01  0.39950269201E+01  0.87564028689E+02  0.87706054159E+02  0.00000000000E+00 0. -1.
<mgrwt>
<rscale>  0 0.80153311E+02</rscale>
<asrwt>0</asrwt>
<pdfrwt beam="1">  1        2 0.27191200E-01 0.80153311E+02</pdfrwt>
<pdfrwt beam="2">  1       -1 0.13980666E-02 0.80153311E+02</pdfrwt>
<totfact> 0.21036400E+05</totfact>
</mgrwt>
</event>
<event>
 8    1  0.1493610E-013  0.7954848E+02  0.7818608E-02  0.1330338E+00
          2   -1    0    0  501    0  0.00000000000E+00  0.00000000000E+00  0.17750652402E+03  0.17750652404E+03  0.25500000000E-02 0. -1.
         -1   -1    0    0    0  501 -0.00000000000E+00 -0.00000000000E+00 -0.89122913345E+01  0.89122927596E+01  0.50400000000E-02 0.  1.
         24    2    1    2    0    0  0.00000000000E+00  0.71054273576E-14  0.16859423268E+03  0.18641881680E+03  0.79548475545E+02 0.  0.
         66    2    3    3    0    0  0.22211546780E+02  0.32286825734E+02  0.99929094855E+02  0.10735742139E+03  0.20000007195E+01 0.  0.
        -13    1    3    3    0    0 -0.22211546780E+02 -0.32286825734E+02  0.68665137830E+02  0.79061395406E+02  0.10566000000E+00 0.  1.
         13    1    4    4    0    0  0.16182815455E+02  0.24583008491E+02  0.75686576520E+02  0.81207615726E+02  0.10566000000E+00 0. -1.
        -13    1    4    4    0    0  0.28459412594E+01  0.38498737755E+01  0.11100898808E+02  0.12089748885E+02  0.10566000000E+00 0.  1.
        -14    1    4    4    0    0  0.31827900657E+01  0.38539434675E+01  0.13141619527E+02  0.14060056780E+02  0.00000000000E+00 0.  1.
<mgrwt>
<rscale>  0 0.79548476E+02</rscale>
<asrwt>0</asrwt>
<pdfrwt beam="1">  1        2 0.27308696E-01 0.79548476E+02</pdfrwt>
<pdfrwt beam="2">  1       -1 0.13711219E-02 0.79548476E+02</pdfrwt>
<totfact> 0.21493284E+05</totfact>
</mgrwt>
</event>
<event>
 8    1  0.1493610E-013  0.7965746E+02  0.7818608E-02  0.1330026E+00
          2   -1    0    0  501    0  0.00000000000E+00  0.00000000000E+00  0.13827015786E+04  0.13827015786E+04  0.25500000000E-02 0. -1.
         -1   -1    0    0    0  501 -0.00000000000E+00 -0.00000000000E+00 -0.11472613426E+01  0.11472724131E+01  0.50400000000E-02 0.  1.
         24    2    1    2    0    0  0.44408920985E-15  0.00000000000E+00  0.13815543172E+04  0.13838488510E+04  0.79657459940E+02 0.  0.
         66    2    3    3    0    0  0.28726435318E+01 -0.11524908659E+02  0.13511941156E+04  0.13512477987E+04  0.19999946808E+01 0.  0.
        -13    1    3    3    0    0 -0.28726435318E+01  0.11524908659E+02  0.30360201657E+02  0.32601052270E+02  0.10566000000E+00 0.  1.
         13    1    4    4    0    0  0.10822586839E+01 -0.29422730402E+01  0.43503550334E+03  0.43504681195E+03  0.10566000000E+00 0. -1.
        -13    1    4    4    0    0  0.97568306635E+00 -0.27050563056E+01  0.29559915285E+03  0.29561315873E+03  0.10566000000E+00 0.  1.
         14    1    4    4    0    0  0.81470178161E+00 -0.58775793136E+01  0.62055945940E+03  0.62058782806E+03  0.00000000000E+00 0. -1.
<mgrwt>
<rscale>  0 0.79657460E+02</rscale>
<asrwt>0</asrwt>
<pdfrwt beam="1">  1        2 0.21272316E+00 0.79657460E+02</pdfrwt>
<pdfrwt beam="2">  1       -1 0.17650273E-03 0.79657460E+02</pdfrwt>
<totfact> 0.34512609E+05</totfact>
</mgrwt>
</event>
<event>
 8    1  0.1493610E-013  0.8065649E+02  0.7818608E-02  0.1327199E+00
          2   -1    0    0  501    0  0.00000000000E+00  0.00000000000E+00  0.34918491290E+03  0.34918491291E+03  0.25500000000E-02 0. -1.
         -1   -1    0    0    0  501 -0.00000000000E+00 -0.00000000000E+00 -0.46576087075E+01  0.46576114344E+01  0.50400000000E-02 0.  1.
         24    2    1    2    0    0 -0.11102230246E-15  0.00000000000E+00  0.34452730419E+03  0.35384252434E+03  0.80656485789E+02 0.  0.
         66    2    3    3    0    0 -0.80795413505E+00 -0.20133975335E+02  0.32549693186E+03  0.32612617560E+03  0.20000015808E+01 0.  0.
        -13    1    3    3    0    0  0.80795413505E+00  0.20133975335E+02  0.19030372329E+02  0.27716348744E+02  0.10566000000E+00 0.  1.
         13    1    4    4    0    0 -0.76542036438E+00 -0.13718813763E+02  0.22626901873E+03  0.22668584367E+03  0.10566000000E+00 0. -1.
        -13    1    4    4    0    0 -0.38431702895E+00 -0.39372188344E+01  0.65866534267E+02  0.65985308153E+02  0.10566000000E+00 0.  1.
        -14    1    4    4    0    0  0.34178325828E+00 -0.24779427375E+01  0.33361378862E+02  0.33455023772E+02  0.00000000000E+00 0.  1.
<mgrwt>
<rscale>  0 0.80656486E+02</rscale>
<asrwt>0</asrwt>
<pdfrwt beam="1">  1        2 0.53720774E-01 0.80656486E+02</pdfrwt>
<pdfrwt beam="2">  1       -1 0.71655516E-03 0.80656486E+02</pdfrwt>
<totfact> 0.26357232E+05</totfact>
</mgrwt>
</event>
<event>
 8    1  0.1539022E-013  0.7865288E+02  0.7818608E-02  0.1332918E+00
          2   -1    0    0  501    0  0.00000000000E+00  0.00000000000E+00  0.25371495763E+03  0.25371495765E+03  0.25500000000E-02 0. -1.
         -1   -1    0    0    0  501 -0.00000000000E+00 -0.00000000000E+00 -0.60956935758E+01  0.60956956594E+01  0.50400000000E-02 0.  1.
         24    2    1    2    0    0 -0.88817841970E-15 -0.35527136788E-14  0.24761926406E+03  0.25981065331E+03  0.78652880676E+02 0.  0.
         66    2    3    3    0    0  0.69476203765E+01  0.27758622749E+02  0.21287857283E+03  0.21480246120E+03  0.20000002572E+01 0.  0.
        -13    1    3    3    0    0 -0.69476203765E+01 -0.27758622749E+02  0.34740691231E+02  0.45008192110E+02  0.10566000000E+00 0.  1.
         13    1    4    4    0    0  0.80004453702E+00  0.22457442536E+01  0.16502986636E+02  0.16674626546E+02  0.10566000000E+00 0. -1.
        -13    1    4    4    0    0  0.11536898500E+01  0.29125887092E+01  0.25430614411E+02  0.25623065520E+02  0.10566000000E+00 0.  1.
         14    1    4    4    0    0  0.49938859896E+01  0.22600289786E+02  0.17094497178E+03  0.17250476913E+03  0.00000000000E+00 0. -1.
<mgrwt>
<rscale>  0 0.78652881E+02</rscale>
<asrwt>0</asrwt>
<pdfrwt beam="1">  1        2 0.39033057E-01 0.78652881E+02</pdfrwt>
<pdfrwt beam="2">  1       -1 0.93779950E-03 0.78652881E+02</pdfrwt>
<totfact> 0.25089185E+05</totfact>
</mgrwt>
</event>
<event>
 8    1  0.1493610E-013  0.7908110E+02  0.7818608E-02  0.1331680E+00
         -1   -1    0    0    0  501 -0.00000000000E+00  0.00000000000E+00  0.22308107678E+03  0.22308107684E+03  0.50400000000E-02 0.  1.
          2   -1    0    0  501    0  0.00000000000E+00 -0.00000000000E+00 -0.70084607711E+01  0.70084612350E+01  0.25500000000E-02 0. -1.
         24    2    1    2    0    0  0.00000000000E+00  0.00000000000E+00  0.21607261601E+03  0.23008953807E+03  0.79081098508E+02 0.  0.
         66    2    3    3    0    0 -0.11147632784E+02 -0.37884110840E+02  0.11219359731E+03  0.11895746682E+03  0.20000160357E+01 0.  0.
        -13    1    3    3    0    0  0.11147632784E+02  0.37884110840E+02  0.10387901870E+03  0.11113207125E+03  0.10566000000E+00 0.  1.
         13    1    4    4    0    0 -0.46075892680E+01 -0.18137197625E+02  0.54603499945E+02  0.57721236879E+02  0.10566000000E+00 0. -1.
        -13    1    4    4    0    0 -0.39104125591E+01 -0.12751484344E+02  0.36372655803E+02  0.38741101347E+02  0.10566000000E+00 0.  1.
         14    1    4    4    0    0 -0.26296309565E+01 -0.69954288707E+01  0.21217441563E+02  0.22495128596E+02  0.00000000000E+00 0. -1.
<mgrwt>
<rscale>  0 0.79081099E+02</rscale>
<asrwt>0</asrwt>
<pdfrwt beam="1">  1        2 0.10782247E-02 0.79081099E+02</pdfrwt>
<pdfrwt beam="2">  1       -1 0.34320167E-01 0.79081099E+02</pdfrwt>
<totfact> 0.99127322E+04</totfact>
</mgrwt>
</event>
<event>
 8    1  0.1493610E-013  0.7877014E+02  0.7818608E-02  0.1332578E+00
          2   -1    0    0  501    0  0.00000000000E+00  0.00000000000E+00  0.33789389295E+03  0.33789389296E+03  0.25500000000E-02 0. -1.
         -1   -1    0    0    0  501 -0.00000000000E+00 -0.00000000000E+00 -0.45907409326E+01  0.45907436992E+01  0.50400000000E-02 0.  1.
         24    2    1    2    0    0 -0.17763568394E-14  0.00000000000E+00  0.33330315202E+03  0.34248463666E+03  0.78770141568E+02 0.  0.
         66    2    3    3    0    0  0.91797376388E+01  0.35408021756E+02  0.22994301811E+03  0.23284283791E+03  0.20000000155E+01 0.  0.
        -13    1    3    3    0    0 -0.91797376388E+01 -0.35408021756E+02  0.10336013391E+03  0.10964179875E+03  0.10566000000E+00 0.  1.
         13    1    4    4    0    0  0.40281678075E+01  0.16093298982E+02  0.10640525750E+03  0.10769080924E+03  0.10566000000E+00 0. -1.
        -13    1    4    4    0    0  0.88496362592E+00  0.22864983457E+01  0.13122236850E+02  0.13349737798E+02  0.10566000000E+00 0. -1.
        -14    1    4    4    0    0  0.42666062053E+01  0.17028224428E+02  0.11041552376E+03  0.11180229087E+03  0.00000000000E+00 0.  1.
<mgrwt>
<rscale>  0 0.78770142E+02</rscale>
<asrwt>0</asrwt>
<pdfrwt beam="1">  1        2 0.51983679E-01 0.78770142E+02</pdfrwt>
<pdfrwt beam="2">  1       -1 0.70626801E-03 0.78770142E+02</pdfrwt>
<totfact> 0.27712726E+05</totfact>
</mgrwt>
</event>
<event>
 8    1  0.1493610E-013  0.8020806E+02  0.7818608E-02  0.1328462E+00
          2   -1    0    0  501    0  0.00000000000E+00  0.00000000000E+00  0.61968375503E+03  0.61968375503E+03  0.25500000000E-02 0. -1.
         -1   -1    0    0    0  501 -0.00000000000E+00 -0.00000000000E+00 -0.25954075438E+01  0.25954124373E+01  0.50400000000E-02 0.  1.
         24    2    1    2    0    0  0.00000000000E+00  0.00000000000E+00  0.61708834748E+03  0.62227916747E+03  0.80208064850E+02 0.  0.
         66    2    3    3    0    0  0.33774740815E+02  0.88518822101E+01  0.46140665774E+03  0.46273015111E+03  0.20000010745E+01 0.  0.
        -13    1    3    3    0    0 -0.33774740815E+02 -0.88518822101E+01  0.15568168974E+03  0.15954901636E+03  0.10566000000E+00 0.  1.
         13    1    4    4    0    0  0.95710261913E+01  0.19813526022E+01  0.13088823189E+03  0.13125269792E+03  0.10566000000E+00 0. -1.
        -13    1    4    4    0    0  0.16055859815E+02  0.46619387748E+01  0.21116926004E+03  0.21183010139E+03  0.10566000000E+00 0.  1.
        -14    1    4    4    0    0  0.81478548083E+01  0.22085908331E+01  0.11934916582E+03  0.11964735180E+03  0.00000000000E+00 0.  1.
<mgrwt>
<rscale>  0 0.80208065E+02</rscale>
<asrwt>0</asrwt>
<pdfrwt beam="1">  1        2 0.95335941E-01 0.80208065E+02</pdfrwt>
<pdfrwt beam="2">  1       -1 0.39929393E-03 0.80208065E+02</pdfrwt>
<totfact> 0.32230431E+05</totfact>
</mgrwt>
</event>
<event>
 8    1  0.1493610E-013  0.7936334E+02  0.7818608E-02  0.1330868E+00
          2   -1    0    0  501    0  0.00000000000E+00  0.00000000000E+00  0.29659326635E+03  0.29659326636E+03  0.25500000000E-02 0. -1.
         -1   -1    0    0    0  501 -0.00000000000E+00 -0.00000000000E+00 -0.53090699888E+01  0.53090723811E+01  0.50400000000E-02 0.  1.
         24    2    1    2    0    0  0.00000000000E+00 -0.88817841970E-15  0.29128419637E+03  0.30190233875E+03  0.79363335919E+02 0.  0.
         66    2    3    3    0    0  0.37233171553E+02  0.64489717995E+01  0.19149876939E+03  0.19520163161E+03  0.20000017577E+01 0.  0.
        -13    1    3    3    0    0 -0.37233171553E+02 -0.64489717995E+01  0.99785426979E+02  0.10670070713E+03  0.10566000000E+00 0.  1.
         13    1    4    4    0    0  0.51176904059E+01  0.10413280666E+01  0.28825525242E+02  0.29295002795E+02  0.10566000000E+00 0. -1.
        -13    1    4    4    0    0  0.15383289697E+01  0.78050287631E-01  0.67772062961E+01  0.69508443431E+01  0.10566000000E+00 0. -1.
         14    1    4    4    0    0  0.30577152177E+02  0.53295934453E+01  0.15589603785E+03  0.15895578448E+03  0.00000000000E+00 0. -1.
<mgrwt>
<rscale>  0 0.79363336E+02</rscale>
<asrwt>0</asrwt>
<pdfrwt beam="1">  1        2 0.45629724E-01 0.79363336E+02</pdfrwt>
<pdfrwt beam="2">  1       -1 0.81678034E-03 0.79363336E+02</pdfrwt>
<totfact> 0.25926616E+05</totfact>
</mgrwt>
</event>
<event>
 8    1  0.1493610E-013  0.8264987E+02  0.7818608E-02  0.1321695E+00
         -1   -1    0    0    0  501 -0.00000000000E+00  0.00000000000E+00  0.12460311404E+01  0.12460413334E+01  0.50400000000E-02 0.  1.
          2   -1    0    0  501    0  0.00000000000E+00 -0.00000000000E+00 -0.13705460681E+04  0.13705460681E+04  0.25500000000E-02 0. -1.
         24    2    1    2    0    0  0.88817841970E-15  0.00000000000E+00 -0.13693000369E+04  0.13717921094E+04  0.82649865654E+02 0.  0.
         66    2    3    3    0    0  0.55016199726E+01 -0.11992807046E+02 -0.13346197069E+04  0.13346864266E+04  0.19999984878E+01 0.  0.
        -13    1    3    3    0    0 -0.55016199726E+01  0.11992807046E+02 -0.34680329992E+02  0.37105682793E+02  0.10566000000E+00 0.  1.
         13    1    4    4    0    0  0.95572177216E+00 -0.27015903010E+01 -0.31294209516E+03  0.31295523335E+03  0.10566000000E+00 0. -1.
        -13    1    4    4    0    0  0.35238317576E+01 -0.79343036668E+01 -0.80135715720E+03  0.80140418961E+03  0.10566000000E+00 0.  1.
         14    1    4    4    0    0  0.10220664429E+01 -0.13569130785E+01 -0.22032045459E+03  0.22032700366E+03  0.00000000000E+00 0. -1.
<mgrwt>
<rscale>  0 0.82649866E+02</rscale>
<asrwt>0</asrwt>
<pdfrwt beam="1">  1        2 0.21085204E+00 0.82649866E+02</pdfrwt>
<pdfrwt beam="2">  1       -1 0.19169898E-03 0.82649866E+02</pdfrwt>
<totfact> 0.31427832E+05</totfact>
</mgrwt>
</event>
<event>
 8    1  0.1493610E-013  0.7889754E+02  0.7818608E-02  0.1332209E+00
          2   -1    0    0  501    0  0.00000000000E+00  0.00000000000E+00  0.19577178098E+02  0.19577178264E+02  0.25500000000E-02 0. -1.
         -1   -1    0    0    0  501 -0.00000000000E+00 -0.00000000000E+00 -0.79490796554E+02  0.79490796714E+02  0.50400000000E-02 0.  1.
         24    2    1    2    0    0  0.00000000000E+00  0.00000000000E+00 -0.59913618456E+02  0.99067974978E+02  0.78897541088E+02 0.  0.
         66    2    3    3    0    0 -0.28964745062E+02  0.19049188948E+02 -0.64053954457E+01  0.35310864396E+02  0.19999993646E+01 0.  0.
        -13    1    3    3    0    0  0.28964745062E+02 -0.19049188948E+02 -0.53508223010E+02  0.63757110582E+02  0.10566000000E+00 0.  1.
         13    1    4    4    0    0 -0.14205353959E+02  0.82994124792E+01 -0.32654778964E+01  0.16773396749E+02  0.10566000000E+00 0. -1.
        -13    1    4    4    0    0 -0.11459367870E+02  0.85230034672E+01 -0.26631587097E+01  0.14527982600E+02  0.10566000000E+00 0.  1.
        -14    1    4    4    0    0 -0.33000232332E+01  0.22267730019E+01 -0.47675883962E+00  0.40094850458E+01  0.00000000000E+00 0.  1.
<mgrwt>
<rscale>  0 0.78897541E+02</rscale>
<asrwt>0</asrwt>
<pdfrwt beam="1">  1        2 0.30118736E-02 0.78897541E+02</pdfrwt>
<pdfrwt beam="2">  1       -1 0.12229353E-01 0.78897541E+02</pdfrwt>
<totfact> 0.12864749E+05</totfact>
</mgrwt>
</event>
<event>
 8    1  0.1493610E-013  0.8041349E+02  0.7818608E-02  0.1327882E+00
          2   -1    0    0  501    0  0.00000000000E+00  0.00000000000E+00  0.19129562599E+03  0.19129562601E+03  0.25500000000E-02 0. -1.
         -1   -1    0    0    0  501 -0.00000000000E+00 -0.00000000000E+00 -0.84507021481E+01  0.84507036510E+01  0.50400000000E-02 0.  1.
         24    2    1    2    0    0  0.17763568394E-14 -0.35527136788E-14  0.18284492384E+03  0.19974632966E+03  0.80413494124E+02 0.  0.
         66    2    3    3    0    0 -0.11240786920E+02  0.29158758219E+02  0.15422058769E+03  0.15736765276E+03  0.19999992073E+01 0.  0.
        -13    1    3    3    0    0  0.11240786920E+02 -0.29158758219E+02  0.28624336156E+02  0.42378676901E+02  0.10566000000E+00 0.  1.
         13    1    4    4    0    0 -0.39911137029E+01  0.10826226891E+02  0.60573085307E+02  0.61662354845E+02  0.10566000000E+00 0. -1.
        -13    1    4    4    0    0 -0.12551474577E+01  0.32116737734E+01  0.18252382976E+02  0.18575545535E+02  0.10566000000E+00 0.  1.
         14    1    4    4    0    0 -0.59945257593E+01  0.15120857555E+02  0.75395119405E+02  0.77129752381E+02  0.00000000000E+00 0. -1.
<mgrwt>
<rscale>  0 0.80413494E+02</rscale>
<asrwt>0</asrwt>
<pdfrwt beam="1">  1        2 0.29430097E-01 0.80413494E+02</pdfrwt>
<pdfrwt beam="2">  1       -1 0.13001081E-02 0.80413494E+02</pdfrwt>
<totfact> 0.21427986E+05</totfact>
</mgrwt>
</event>
<event>
 8    1  0.1493610E-013  0.7826373E+02  0.7818608E-02  0.1334052E+00
         -1   -1    0    0    0  501 -0.00000000000E+00  0.00000000000E+00  0.25157144890E+01  0.25157195376E+01  0.50400000000E-02 0.  1.
          2   -1    0    0  501    0  0.00000000000E+00 -0.00000000000E+00 -0.60869443273E+03  0.60869443274E+03  0.25500000000E-02 0. -1.
         24    2    1    2    0    0  0.00000000000E+00 -0.35527136788E-14 -0.60617871824E+03  0.61121015227E+03  0.78263732298E+02 0.  0.
         66    2    3    3    0    0 -0.66896325309E+01  0.25803553483E+02 -0.52674613242E+03  0.52742398748E+03  0.19999997788E+01 0.  0.
        -13    1    3    3    0    0  0.66896325309E+01 -0.25803553483E+02 -0.79432585826E+02  0.83786164793E+02  0.10566000000E+00 0.  1.
         13    1    4    4    0    0 -0.25190580150E+01  0.10791866513E+02 -0.21868967732E+03  0.21897030887E+03  0.10566000000E+00 0.  1.
        -13    1    4    4    0    0 -0.15838487664E+01  0.81957408719E+01 -0.15874266665E+03  0.15896202102E+03  0.10566000000E+00 0. -1.
        -14    1    4    4    0    0 -0.25867257495E+01  0.68159460980E+01 -0.14931378844E+03  0.14949165759E+03  0.00000000000E+00 0.  1.
<mgrwt>
<rscale>  0 0.78263732E+02</rscale>
<asrwt>0</asrwt>
<pdfrwt beam="1">  1        2 0.93645180E-01 0.78263732E+02</pdfrwt>
<pdfrwt beam="2">  1       -1 0.38703387E-03 0.78263732E+02</pdfrwt>
<totfact> 0.34186708E+05</totfact>
</mgrwt>
</event>
<event>
 8    1  0.1493610E-013  0.7965767E+02  0.7818608E-02  0.1330026E+00
          2   -1    0    0  501    0  0.00000000000E+00  0.00000000000E+00  0.39964998710E+02  0.39964998792E+02  0.25500000000E-02 0. -1.
         -1   -1    0    0    0  501 -0.00000000000E+00 -0.00000000000E+00 -0.39693132776E+02  0.39693133096E+02  0.50400000000E-02 0.  1.
         24    2    1    2    0    0  0.35527136788E-14 -0.35527136788E-14  0.27186593417E+00  0.79658131888E+02  0.79657667960E+02 0.  0.
         66    2    3    3    0    0 -0.27942022180E+02 -0.27102463261E+02  0.84445526748E+01  0.39882459789E+02  0.20000026547E+01 0.  0.
        -13    1    3    3    0    0  0.27942022180E+02  0.27102463261E+02 -0.81726867406E+01  0.39775672099E+02  0.10566000000E+00 0.  1.
         13    1    4    4    0    0 -0.65502963198E+01 -0.67141964101E+01  0.27974728633E+01  0.97889648976E+01  0.10566000000E+00 0. -1.
        -13    1    4    4    0    0 -0.87293064687E+01 -0.84883058231E+01  0.20291457494E+01  0.12344258733E+02  0.10566000000E+00 0.  1.
         14    1    4    4    0    0 -0.12662419391E+02 -0.11899961028E+02  0.36179340621E+01  0.17749236158E+02  0.00000000000E+00 0. -1.
<mgrwt>
<rscale>  0 0.79657668E+02</rscale>
<asrwt>0</asrwt>
<pdfrwt beam="1">  1        2 0.61484613E-02 0.79657668E+02</pdfrwt>
<pdfrwt beam="2">  1       -1 0.61066359E-02 0.79657668E+02</pdfrwt>
<totfact> 0.14422608E+05</totfact>
</mgrwt>
</event>
<event>
 8    1  0.1493610E-013  0.7918211E+02  0.7818608E-02  0.1331389E+00
         -1   -1    0    0    0  501 -0.00000000000E+00  0.00000000000E+00  0.14481792626E+02  0.14481793503E+02  0.50400000000E-02 0.  1.
          2   -1    0    0  501    0  0.00000000000E+00 -0.00000000000E+00 -0.10823602202E+03  0.10823602205E+03  0.25500000000E-02 0. -1.
         24    2    1    2    0    0  0.44408920985E-15  0.00000000000E+00 -0.93754229394E+02  0.12271781555E+03  0.79182111143E+02 0.  0.
         66    2    3    3    0    0 -0.34856975400E+01  0.36972753855E+02 -0.68061356161E+02  0.77559543732E+02  0.20000016187E+01 0.  0.
        -13    1    3    3    0    0  0.34856975400E+01 -0.36972753855E+02 -0.25692873233E+02  0.45158271822E+02  0.10566000000E+00 0.  1.
         13    1    4    4    0    0 -0.21640000054E+01  0.20818872938E+02 -0.37000006804E+02  0.42510234461E+02  0.10566000000E+00 0. -1.
        -13    1    4    4    0    0 -0.50860892696E+00  0.58479343798E+01 -0.10271731550E+02  0.11831172918E+02  0.10566000000E+00 0.  1.
         14    1    4    4    0    0 -0.81308860759E+00  0.10305946537E+02 -0.20789617808E+02  0.23218136353E+02  0.00000000000E+00 0. -1.
<mgrwt>
<rscale>  0 0.79182111E+02</rscale>
<asrwt>0</asrwt>
<pdfrwt beam="1">  1        2 0.16651695E-01 0.79182111E+02</pdfrwt>
<pdfrwt beam="2">  1       -1 0.22279682E-02 0.79182111E+02</pdfrwt>
<totfact> 0.18633526E+05</totfact>
</mgrwt>
</event>
<event>
 8    1  0.1493610E-013  0.8482540E+02  0.7818608E-02  0.1315890E+00
         -1   -1    0    0    0  501 -0.00000000000E+00  0.00000000000E+00  0.15565791606E+02  0.15565792422E+02  0.50400000000E-02 0.  1.
          2   -1    0    0  501    0  0.00000000000E+00 -0.00000000000E+00 -0.11556347911E+03  0.11556347914E+03  0.25500000000E-02 0. -1.
         24    2    1    2    0    0  0.00000000000E+00 -0.17763568394E-14 -0.99997687504E+02  0.13112927156E+03  0.84825399224E+02 0.  0.
         66    2    3    3    0    0  0.29874338791E+02 -0.14558961574E+02 -0.90703657126E+02  0.96620871930E+02  0.19999990274E+01 0.  0.
        -13    1    3    3    0    0 -0.29874338791E+02  0.14558961574E+02 -0.92940303780E+01  0.34508399630E+02  0.10566000000E+00 0.  1.
         13    1    4    4    0    0  0.18066779079E+02 -0.85664261287E+01 -0.54880630536E+02  0.58409647619E+02  0.10566000000E+00 0. -1.
        -13    1    4    4    0    0  0.52958864028E+01 -0.33483234739E+01 -0.16525045311E+02  0.17673312351E+02  0.10566000000E+00 0.  1.
        -14    1    4    4    0    0  0.65116733087E+01 -0.26442119716E+01 -0.19297981280E+02  0.20537911960E+02  0.00000000000E+00 0.  1.
<mgrwt>
<rscale>  0 0.84825399E+02</rscale>
<asrwt>0</asrwt>
<pdfrwt beam="1">  1        2 0.17778996E-01 0.84825399E+02</pdfrwt>
<pdfrwt beam="2">  1       -1 0.23947373E-02 0.84825399E+02</pdfrwt>
<totfact> 0.15795890E+05</totfact>
</mgrwt>
</event>
<event>
 8    1  0.1493610E-013  0.8076836E+02  0.7818608E-02  0.1326885E+00
         -1   -1    0    0    0  501 -0.00000000000E+00  0.00000000000E+00  0.29654067232E+02  0.29654067660E+02  0.50400000000E-02 0.  1.
          2   -1    0    0  501    0  0.00000000000E+00 -0.00000000000E+00 -0.54996904779E+02  0.54996904838E+02  0.25500000000E-02 0. -1.
         24    2    1    2    0    0  0.00000000000E+00  0.88817841970E-15 -0.25342837547E+02  0.84650972498E+02  0.80768358470E+02 0.  0.
         66    2    3    3    0    0 -0.10383609734E+02 -0.65442020890E+01 -0.52975158856E+02  0.54415194402E+02  0.19999984607E+01 0.  0.
        -13    1    3    3    0    0  0.10383609734E+02  0.65442020890E+01  0.27632321310E+02  0.30235778096E+02  0.10566000000E+00 0.  1.
         13    1    4    4    0    0 -0.22179405088E+01 -0.76979629978E+00 -0.89806551019E+01  0.92830585767E+01  0.10566000000E+00 0. -1.
        -13    1    4    4    0    0 -0.65652732564E+01 -0.43210422148E+01 -0.36187342611E+02  0.37031191556E+02  0.10566000000E+00 0.  1.
        -14    1    4    4    0    0 -0.16003959686E+01 -0.14533635744E+01 -0.78071611436E+01  0.81009442695E+01  0.00000000000E+00 0.  1.
<mgrwt>
<rscale>  0 0.80768358E+02</rscale>
<asrwt>0</asrwt>
<pdfrwt beam="1">  1        2 0.84610622E-02 0.80768358E+02</pdfrwt>
<pdfrwt beam="2">  1       -1 0.45621643E-02 0.80768358E+02</pdfrwt>
<totfact> 0.14867502E+05</totfact>
</mgrwt>
</event>
<event>
 8    1  0.1493610E-013  0.8086215E+02  0.7818608E-02  0.1326622E+00
          2   -1    0    0  501    0  0.00000000000E+00  0.00000000000E+00  0.72318112339E+03  0.72318112340E+03  0.25500000000E-02 0. -1.
         -1   -1    0    0    0  501 -0.00000000000E+00 -0.00000000000E+00 -0.22603876579E+01  0.22603932767E+01  0.50400000000E-02 0.  1.
         24    2    1    2    0    0  0.35527136788E-14  0.00000000000E+00  0.72092073573E+03  0.72544151667E+03  0.80862147521E+02 0.  0.
         66    2    3    3    0    0 -0.18788337622E+02  0.27628561336E+02  0.56453455204E+03  0.56552594943E+03  0.20000000356E+01 0.  0.
        -13    1    3    3    0    0  0.18788337622E+02 -0.27628561336E+02  0.15638618369E+03  0.15991556724E+03  0.10566000000E+00 0.  1.
         13    1    4    4    0    0 -0.16471238144E+02  0.24421276376E+02  0.49791905448E+03  0.49878963141E+03  0.10566000000E+00 0. -1.
        -13    1    4    4    0    0 -0.16573733209E+01  0.26545781740E+01  0.49168557318E+02  0.49268162787E+02  0.10566000000E+00 0.  1.
        -14    1    4    4    0    0 -0.65972615791E+00  0.55270678610E+00  0.17446940243E+02  0.17468155233E+02  0.00000000000E+00 0.  1.
<mgrwt>
<rscale>  0 0.80862148E+02</rscale>
<asrwt>0</asrwt>
<pdfrwt beam="1">  1        2 0.11125868E+00 0.80862148E+02</pdfrwt>
<pdfrwt beam="2">  1       -1 0.34775223E-03 0.80862148E+02</pdfrwt>
<totfact> 0.32769005E+05</totfact>
</mgrwt>
</event>
<event>
 8    1  0.1493610E-013  0.7923943E+02  0.7818608E-02  0.1331224E+00
          2   -1    0    0  501    0  0.00000000000E+00  0.00000000000E+00  0.37917421631E+03  0.37917421632E+03  0.25500000000E-02 0. -1.
         -1   -1    0    0    0  501 -0.00000000000E+00 -0.00000000000E+00 -0.41398421907E+01  0.41398452586E+01  0.50400000000E-02 0.  1.
         24    2    1    2    0    0  0.35527136788E-14  0.10658141036E-13  0.37503437412E+03  0.38331406158E+03  0.79239434828E+02 0.  0.
         66    2    3    3    0    0  0.24277696766E+02  0.30456073490E+02  0.15317907742E+03  0.15806583670E+03  0.19999999405E+01 0.  0.
        -13    1    3    3    0    0 -0.24277696766E+02 -0.30456073490E+02  0.22185529670E+03  0.22524822488E+03  0.10566000000E+00 0.  1.
         13    1    4    4    0    0  0.44503833420E+01  0.52886631768E+01  0.28881322832E+02  0.29697101587E+02  0.10566000000E+00 0. -1.
        -13    1    4    4    0    0  0.11252881063E+02  0.15359759909E+02  0.72875065007E+02  0.75321549510E+02  0.10566000000E+00 0.  1.
         14    1    4    4    0    0  0.85744323609E+01  0.98076504043E+01  0.51422689581E+02  0.53047185604E+02  0.00000000000E+00 0. -1.
<mgrwt>
<rscale>  0 0.79239435E+02</rscale>
<asrwt>0</asrwt>
<pdfrwt beam="1">  1        2 0.58334494E-01 0.79239435E+02</pdfrwt>
<pdfrwt beam="2">  1       -1 0.63689905E-03 0.79239435E+02</pdfrwt>
<totfact> 0.28427633E+05</totfact>
</mgrwt>
</event>
<event>
 8    1  0.1493610E-013  0.7876250E+02  0.7818608E-02  0.1332600E+00
          2   -1    0    0  501    0  0.00000000000E+00  0.00000000000E+00  0.10117630855E+04  0.10117630855E+04  0.25500000000E-02 0. -1.
         -1   -1    0    0    0  501 -0.00000000000E+00 -0.00000000000E+00 -0.15328475763E+01  0.15328558621E+01  0.50400000000E-02 0.  1.
         24    2    1    2    0    0  0.88817841970E-15  0.00000000000E+00  0.10102302379E+04  0.10132959413E+04  0.78762498511E+02 0.  0.
         66    2    3    3    0    0 -0.65329477495E+01 -0.22403479150E+02  0.91314372537E+03  0.91344406423E+03  0.20000001896E+01 0.  0.
        -13    1    3    3    0    0  0.65329477495E+01  0.22403479150E+02  0.97086512507E+02  0.99851877093E+02  0.10566000000E+00 0.  1.
         13    1    4    4    0    0 -0.24991663532E+00 -0.96376425864E+00  0.30939041497E+02  0.30955237887E+02  0.10566000000E+00 0.  1.
        -13    1    4    4    0    0 -0.23194364320E+01 -0.72212471549E+01  0.27310719909E+03  0.27321251720E+03  0.10566000000E+00 0. -1.
         14    1    4    4    0    0 -0.39635946822E+01 -0.14218467737E+02  0.60909748478E+03  0.60927630914E+03  0.00000000000E+00 0. -1.
<mgrwt>
<rscale>  0 0.78762499E+02</rscale>
<asrwt>0</asrwt>
<pdfrwt beam="1">  1        2 0.15565556E+00 0.78762499E+02</pdfrwt>
<pdfrwt beam="2">  1       -1 0.23582380E-03 0.78762499E+02</pdfrwt>
<totfact> 0.36701332E+05</totfact>
</mgrwt>
</event>
<event>
 8    1  0.1493610E-013  0.7795650E+02  0.7818608E-02  0.1334953E+00
         -1   -1    0    0    0  501 -0.00000000000E+00  0.00000000000E+00  0.17321718971E+03  0.17321718979E+03  0.50400000000E-02 0.  1.
          2   -1    0    0  501    0  0.00000000000E+00 -0.00000000000E+00 -0.87710910859E+01  0.87710914566E+01  0.25500000000E-02 0. -1.
         24    2    1    2    0    0  0.00000000000E+00 -0.35527136788E-14  0.16444609863E+03  0.18198828124E+03  0.77956495278E+02 0.  0.
         66    2    3    3    0    0 -0.20958755053E+02  0.16868270902E+02  0.16516974133E+02  0.31632553005E+02  0.19999996215E+01 0.  0.
        -13    1    3    3    0    0  0.20958755053E+02 -0.16868270902E+02  0.14792912449E+03  0.15035572824E+03  0.10566000000E+00 0.  1.
         13    1    4    4    0    0 -0.11297747692E+02  0.92700276978E+01  0.87454236257E+01  0.17031327454E+02  0.10566000000E+00 0. -1.
        -13    1    4    4    0    0 -0.40554847094E+01  0.33778080369E+01  0.25992926759E+01  0.58842187088E+01  0.10566000000E+00 0.  1.
         14    1    4    4    0    0 -0.56055226517E+01  0.42204351672E+01  0.51722578318E+01  0.87170068417E+01  0.00000000000E+00 0. -1.
<mgrwt>
<rscale>  0 0.77956495E+02</rscale>
<asrwt>0</asrwt>
<pdfrwt beam="1">  1        2 0.13493987E-02 0.77956495E+02</pdfrwt>
<pdfrwt beam="2">  1       -1 0.26648797E-01 0.77956495E+02</pdfrwt>
<totfact> 0.11087552E+05</totfact>
</mgrwt>
</event>
<event>
 8    1  0.1493610E-013  0.8012199E+02  0.7818608E-02  0.1328706E+00
         -1   -1    0    0    0  501 -0.00000000000E+00  0.00000000000E+00  0.30208432747E+01  0.30208474791E+01  0.50400000000E-02 0.  1.
          2   -1    0    0  501    0  0.00000000000E+00 -0.00000000000E+00 -0.53126955590E+03  0.53126955591E+03  0.25500000000E-02 0. -1.
         24    2    1    2    0    0  0.00000000000E+00  0.35527136788E-14 -0.52824871263E+03  0.53429040339E+03  0.80121986741E+02 0.  0.
         66    2    3    3    0    0 -0.32020079166E+01 -0.31666860292E+02 -0.42624224083E+03  0.42743360974E+03  0.19999935530E+01 0.  0.
        -13    1    3    3    0    0  0.32020079166E+01  0.31666860292E+02 -0.10200647180E+03  0.10685679364E+03  0.10566000000E+00 0.  1.
         13    1    4    4    0    0 -0.23880219013E+01 -0.23333840256E+02 -0.32276394652E+03  0.32361512185E+03  0.10566000000E+00 0. -1.
        -13    1    4    4    0    0 -0.86879258787E+00 -0.59941502452E+01 -0.75134655263E+02  0.75378459942E+02  0.10566000000E+00 0. -1.
         14    1    4    4    0    0  0.54806572565E-01 -0.23388697912E+01 -0.28343639048E+02  0.28440027956E+02  0.00000000000E+00 0. -1.
<mgrwt>
<rscale>  0 0.80121987E+02</rscale>
<asrwt>0</asrwt>
<pdfrwt beam="1">  1        2 0.81733704E-01 0.80121987E+02</pdfrwt>
<pdfrwt beam="2">  1       -1 0.46474587E-03 0.80121987E+02</pdfrwt>
<totfact> 0.30911843E+05</totfact>
</mgrwt>
</event>
<event>
 8    1  0.1493610E-013  0.7123013E+02  0.7818608E-02  0.1355959E+00
          2   -1    0    0  501    0  0.00000000000E+00  0.00000000000E+00  0.53778753890E+02  0.53778753950E+02  0.25500000000E-02 0. -1.
         -1   -1    0    0    0  501 -0.00000000000E+00 -0.00000000000E+00 -0.23586132441E+02  0.23586132979E+02  0.50400000000E-02 0.  1.
         24    2    1    2    0    0  0.00000000000E+00  0.71054273576E-14  0.30192621449E+02  0.77364886930E+02  0.71230129437E+02 0.  0.
         66    2    3    3    0    0 -0.35665468099E+01 -0.35348094199E+02  0.17339372913E+02  0.39583606093E+02  0.19999996591E+01 0.  0.
        -13    1    3    3    0    0  0.35665468099E+01  0.35348094199E+02  0.12853248536E+02  0.37781280836E+02  0.10566000000E+00 0.  1.
         13    1    4    4    0    0 -0.33365111368E+01 -0.24145756531E+02  0.11817183570E+02  0.27088869607E+02  0.10566000000E+00 0. -1.
        -13    1    4    4    0    0 -0.15621249576E+00 -0.32151998409E+01  0.15857867757E+01  0.35899576731E+01  0.10566000000E+00 0.  1.
         14    1    4    4    0    0 -0.73823177287E-01 -0.79871378274E+01  0.39364025677E+01  0.89047788131E+01  0.00000000000E+00 0. -1.
<mgrwt>
<rscale>  0 0.71230129E+02</rscale>
<asrwt>0</asrwt>
<pdfrwt beam="1">  1        2 0.82736543E-02 0.71230129E+02</pdfrwt>
<pdfrwt beam="2">  1       -1 0.36286359E-02 0.71230129E+02</pdfrwt>
<totfact> 0.20791822E+05</totfact>
</mgrwt>
</event>
<event>
 8    1  0.1493610E-013  0.7970480E+02  0.7818608E-02  0.1329891E+00
          2   -1    0    0  501    0  0.00000000000E+00  0.00000000000E+00  0.15507637586E+03  0.15507637588E+03  0.25500000000E-02 0. -1.
         -1   -1    0    0    0  501 -0.00000000000E+00 -0.00000000000E+00 -0.10241492527E+02  0.10241493767E+02  0.50400000000E-02 0.  1.
         24    2    1    2    0    0 -0.17763568394E-14 -0.17763568394E-14  0.14483488333E+03  0.16531786965E+03  0.79704796563E+02 0.  0.
         66    2    3    3    0    0  0.99777590858E+01  0.11233286165E+02  0.14896604670E+03  0.14973518473E+03  0.20000208892E+01 0.  0.
        -13    1    3    3    0    0 -0.99777590858E+01 -0.11233286165E+02 -0.41311633644E+01  0.15582684917E+02  0.10566000000E+00 0.  1.
         13    1    4    4    0    0  0.41170734627E+01  0.42444068767E+01  0.54909945024E+02  0.55227515880E+02  0.10566000000E+00 0. -1.
        -13    1    4    4    0    0  0.39025574923E+01  0.36079335643E+01  0.55698738102E+02  0.55951834016E+02  0.10566000000E+00 0.  1.
        -14    1    4    4    0    0  0.19581281308E+01  0.33809457242E+01  0.38357363572E+02  0.38555834837E+02  0.00000000000E+00 0.  1.
<mgrwt>
<rscale>  0 0.79704797E+02</rscale>
<asrwt>0</asrwt>
<pdfrwt beam="1">  1        2 0.23857903E-01 0.79704797E+02</pdfrwt>
<pdfrwt beam="2">  1       -1 0.15756144E-02 0.79704797E+02</pdfrwt>
<totfact> 0.20446437E+05</totfact>
</mgrwt>
</event>
<event>
 8    1  0.1493610E-013  0.8719098E+02  0.7818608E-02  0.1309800E+00
         -1   -1    0    0    0  501 -0.00000000000E+00  0.00000000000E+00  0.18684404468E+01  0.18684472443E+01  0.50400000000E-02 0.  1.
          2   -1    0    0  501    0  0.00000000000E+00 -0.00000000000E+00 -0.10171923687E+04  0.10171923687E+04  0.25500000000E-02 0. -1.
         24    2    1    2    0    0  0.00000000000E+00  0.00000000000E+00 -0.10153239283E+04  0.10190608159E+04  0.87190981850E+02 0.  0.
         66    2    3    3    0    0  0.10502529843E+02  0.12936437392E+02 -0.97848031832E+03  0.97862423223E+03  0.20000075897E+01 0.  0.
        -13    1    3    3    0    0 -0.10502529843E+02 -0.12936437392E+02 -0.36843609936E+02  0.40436583716E+02  0.10566000000E+00 0.  1.
         13    1    4    4    0    0  0.69294507318E+01  0.74443527755E+01 -0.59235918068E+03  0.59244649191E+03  0.10566000000E+00 0. -1.
        -13    1    4    4    0    0  0.46413040758E+00  0.11612855076E+01 -0.87820979859E+02  0.87829947447E+02  0.10566000000E+00 0.  1.
         14    1    4    4    0    0  0.31089487033E+01  0.43307991089E+01 -0.29830015779E+03  0.29834779288E+03  0.00000000000E+00 0. -1.
<mgrwt>
<rscale>  0 0.87190982E+02</rscale>
<asrwt>0</asrwt>
<pdfrwt beam="1">  1        2 0.15649069E+00 0.87190982E+02</pdfrwt>
<pdfrwt beam="2">  1       -1 0.28745371E-03 0.87190982E+02</pdfrwt>
<totfact> 0.28165675E+05</totfact>
</mgrwt>
</event>
<event>
 8    1  0.1493610E-013  0.8052008E+02  0.7818608E-02  0.1327582E+00
          2   -1    0    0  501    0  0.00000000000E+00  0.00000000000E+00  0.12368309167E+02  0.12368309430E+02  0.25500000000E-02 0. -1.
         -1   -1    0    0    0  501 -0.00000000000E+00 -0.00000000000E+00 -0.13105030244E+03  0.13105030254E+03  0.50400000000E-02 0.  1.
         24    2    1    2    0    0  0.00000000000E+00  0.00000000000E+00 -0.11868199328E+03  0.14341861197E+03  0.80520076574E+02 0.  0.
         66    2    3    3    0    0  0.14556371923E+02 -0.24816194059E+02 -0.92788080128E+01  0.30295671941E+02  0.20000022660E+01 0.  0.
        -13    1    3    3    0    0 -0.14556371923E+02  0.24816194059E+02 -0.10940318526E+03  0.11312294003E+03  0.10566000000E+00 0.  1.
         13    1    4    4    0    0  0.87972907084E+01 -0.13257304006E+02 -0.49362230173E+01  0.16659108471E+02  0.10566000000E+00 0. -1.
        -13    1    4    4    0    0  0.43455502918E+01 -0.84279762006E+01 -0.34049521932E+01  0.10075686262E+02  0.10566000000E+00 0.  1.
        -14    1    4    4    0    0  0.14135309228E+01 -0.31309138524E+01 -0.93763280234E+00  0.35608772083E+01  0.00000000000E+00 0.  1.
<mgrwt>
<rscale>  0 0.80520077E+02</rscale>
<asrwt>0</asrwt>
<pdfrwt beam="1">  1        2 0.19028169E-02 0.80520077E+02</pdfrwt>
<pdfrwt beam="2">  1       -1 0.20161584E-01 0.80520077E+02</pdfrwt>
<totfact> 0.10971937E+05</totfact>
</mgrwt>
</event>
<event>
 8    1  0.1493610E-013  0.7954036E+02  0.7818608E-02  0.1330361E+00
         -1   -1    0    0    0  501 -0.00000000000E+00  0.00000000000E+00  0.10637983971E+02  0.10637985165E+02  0.50400000000E-02 0.  1.
          2   -1    0    0  501    0  0.00000000000E+00 -0.00000000000E+00 -0.14868110925E+03  0.14868110927E+03  0.25500000000E-02 0. -1.
         24    2    1    2    0    0  0.00000000000E+00  0.00000000000E+00 -0.13804312528E+03  0.15931909443E+03  0.79540363434E+02 0.  0.
         66    2    3    3    0    0 -0.19073197963E+02  0.17871334194E+01 -0.13881659763E+03  0.14014645377E+03  0.20000002932E+01 0.  0.
        -13    1    3    3    0    0  0.19073197963E+02 -0.17871334194E+01  0.77347235448E+00  0.19172640661E+02  0.10566000000E+00 0.  1.
         13    1    4    4    0    0 -0.81067262440E+01  0.76237733315E+00 -0.57107814119E+02  0.57685473276E+02  0.10566000000E+00 0. -1.
        -13    1    4    4    0    0 -0.58652677256E+01  0.12762852656E+01 -0.44858975371E+02  0.45258911884E+02  0.10566000000E+00 0.  1.
        -14    1    4    4    0    0 -0.51012039930E+01 -0.25152917931E+00 -0.36849808139E+02  0.37202068612E+02  0.00000000000E+00 0.  1.
<mgrwt>
<rscale>  0 0.79540363E+02</rscale>
<asrwt>0</asrwt>
<pdfrwt beam="1">  1        2 0.22874015E-01 0.79540363E+02</pdfrwt>
<pdfrwt beam="2">  1       -1 0.16366131E-02 0.79540363E+02</pdfrwt>
<totfact> 0.20280852E+05</totfact>
</mgrwt>
</event>
<event>
 8    1  0.1493610E-013  0.8263962E+02  0.7818608E-02  0.1321723E+00
          2   -1    0    0  501    0  0.00000000000E+00  0.00000000000E+00  0.49470199747E+02  0.49470199812E+02  0.25500000000E-02 0. -1.
         -1   -1    0    0    0  501 -0.00000000000E+00 -0.00000000000E+00 -0.34512227323E+02  0.34512227691E+02  0.50400000000E-02 0.  1.
         24    2    1    2    0    0  0.00000000000E+00  0.00000000000E+00  0.14957972424E+02  0.83982427503E+02  0.82639622399E+02 0.  0.
         66    2    3    3    0    0  0.55775113864E+01  0.29006419962E+02  0.36811262595E+02  0.47239285454E+02  0.20000010199E+01 0.  0.
        -13    1    3    3    0    0 -0.55775113864E+01 -0.29006419962E+02 -0.21853290171E+02  0.36743142049E+02  0.10566000000E+00 0.  1.
         13    1    4    4    0    0  0.26382069586E+01  0.11041601687E+02  0.15280995483E+02  0.19036730044E+02  0.10566000000E+00 0. -1.
        -13    1    4    4    0    0  0.98351912864E+00  0.47775599164E+01  0.60884035262E+01  0.78020644810E+01  0.10566000000E+00 0. -1.
         14    1    4    4    0    0  0.19557852992E+01  0.13187258358E+02  0.15441863586E+02  0.20400490929E+02  0.00000000000E+00 0. -1.
<mgrwt>
<rscale>  0 0.82639622E+02</rscale>
<asrwt>0</asrwt>
<pdfrwt beam="1">  1        2 0.76108000E-02 0.82639622E+02</pdfrwt>
<pdfrwt beam="2">  1       -1 0.53095735E-02 0.82639622E+02</pdfrwt>
<totfact> 0.13636627E+05</totfact>
</mgrwt>
</event>
<event>
 8    1  0.1493610E-013  0.8399229E+02  0.7818608E-02  0.1318089E+00
         -1   -1    0    0    0  501 -0.00000000000E+00  0.00000000000E+00  0.76181617901E+01  0.76181634572E+01  0.50400000000E-02 0.  1.
          2   -1    0    0  501    0  0.00000000000E+00 -0.00000000000E+00 -0.23150940905E+03  0.23150940907E+03  0.25500000000E-02 0. -1.
         24    2    1    2    0    0  0.88817841970E-15 -0.71054273576E-14 -0.22389124726E+03  0.23912757252E+03  0.83992293339E+02 0.  0.
         66    2    3    3    0    0  0.73374687194E+01 -0.40394793155E+02 -0.13684391860E+03  0.14288399428E+03  0.20000008481E+01 0.  0.
        -13    1    3    3    0    0 -0.73374687194E+01  0.40394793155E+02 -0.87047328665E+02  0.96243578243E+02  0.10566000000E+00 0.  1.
         13    1    4    4    0    0  0.35690061363E+01 -0.20408804419E+02 -0.67636890275E+02  0.70739078258E+02  0.10566000000E+00 0. -1.
        -13    1    4    4    0    0  0.31747469266E+01 -0.14970990310E+02 -0.50481758465E+02  0.52750627206E+02  0.10566000000E+00 0.  1.
        -14    1    4    4    0    0  0.59371565640E+00 -0.50149984253E+01 -0.18725269858E+02  0.19394288818E+02  0.00000000000E+00 0.  1.
<mgrwt>
<rscale>  0 0.83992293E+02</rscale>
<asrwt>0</asrwt>
<pdfrwt beam="1">  1        2 0.35616827E-01 0.83992293E+02</pdfrwt>
<pdfrwt beam="2">  1       -1 0.11720252E-02 0.83992293E+02</pdfrwt>
<totfact> 0.20422428E+05</totfact>
</mgrwt>
</event>
<event>
 8    1  0.1493610E-013  0.8079526E+02  0.7818608E-02  0.1326810E+00
         -1   -1    0    0    0  501 -0.00000000000E+00  0.00000000000E+00  0.32765482873E+01  0.32765521636E+01  0.50400000000E-02 0.  1.
          2   -1    0    0  501    0  0.00000000000E+00 -0.00000000000E+00 -0.49807518291E+03  0.49807518291E+03  0.25500000000E-02 0. -1.
         24    2    1    2    0    0 -0.88817841970E-15  0.35527136788E-14 -0.49479863462E+03  0.50135173508E+03  0.80795256317E+02 0.  0.
         66    2    3    3    0    0 -0.68022362021E+01  0.21428299975E+02 -0.45563532512E+03  0.45619402885E+03  0.19999997776E+01 0.  0.
        -13    1    3    3    0    0  0.68022362021E+01 -0.21428299975E+02 -0.39163309498E+02  0.45157706231E+02  0.10566000000E+00 0.  1.
         13    1    4    4    0    0 -0.11065836825E+01  0.17528663784E+01 -0.38649352745E+02  0.38705047470E+02  0.10566000000E+00 0.  1.
        -13    1    4    4    0    0 -0.47722246450E+01  0.15933271386E+02 -0.33957244922E+03  0.33997956218E+03  0.10566000000E+00 0. -1.
         14    1    4    4    0    0 -0.92342787459E+00  0.37421622105E+01 -0.77413523158E+02  0.77509419200E+02  0.00000000000E+00 0. -1.
<mgrwt>
<rscale>  0 0.80795256E+02</rscale>
<asrwt>0</asrwt>
<pdfrwt beam="1">  1        2 0.76626891E-01 0.80795256E+02</pdfrwt>
<pdfrwt beam="2">  1       -1 0.50408505E-03 0.80795256E+02</pdfrwt>
<totfact> 0.29639447E+05</totfact>
</mgrwt>
</event>
<event>
 8    1  0.1493610E-013  0.8129689E+02  0.7818608E-02  0.1325411E+00
          2   -1    0    0  501    0  0.00000000000E+00  0.00000000000E+00  0.13473924585E+02  0.13473924826E+02  0.25500000000E-02 0. -1.
         -1   -1    0    0    0  501 -0.00000000000E+00 -0.00000000000E+00 -0.12262916847E+03  0.12262916857E+03  0.50400000000E-02 0.  1.
         24    2    1    2    0    0  0.00000000000E+00  0.00000000000E+00 -0.10915524388E+03  0.13610309340E+03  0.81296892717E+02 0.  0.
         66    2    3    3    0    0  0.24117654295E+02 -0.78300768515E+01 -0.14759204832E+01  0.25478416205E+02  0.19999997208E+01 0.  0.
        -13    1    3    3    0    0 -0.24117654295E+02  0.78300768515E+01 -0.10767932340E+03  0.11062467719E+03  0.10566000000E+00 0.  1.
         13    1    4    4    0    0  0.19159357011E+02 -0.65328843532E+01 -0.69130237738E+00  0.20254594591E+02  0.10566000000E+00 0. -1.
        -13    1    4    4    0    0  0.24103326886E+01 -0.39381512337E+00 -0.16365036118E+00  0.24500488766E+01  0.10566000000E+00 0.  1.
         14    1    4    4    0    0  0.25479645949E+01 -0.90337737490E+00 -0.62096774461E+00  0.27737727373E+01  0.00000000000E+00 0. -1.
<mgrwt>
<rscale>  0 0.81296893E+02</rscale>
<asrwt>0</asrwt>
<pdfrwt beam="1">  1        2 0.20729116E-02 0.81296893E+02</pdfrwt>
<pdfrwt beam="2">  1       -1 0.18866025E-01 0.81296893E+02</pdfrwt>
<totfact> 0.10879333E+05</totfact>
</mgrwt>
</event>
<event>
 8    1  0.1493610E-013  0.8060898E+02  0.7818608E-02  0.1327332E+00
         -1   -1    0    0    0  501 -0.00000000000E+00  0.00000000000E+00  0.99283952618E+02  0.99283952746E+02  0.50400000000E-02 0.  1.
          2   -1    0    0  501    0  0.00000000000E+00 -0.00000000000E+00 -0.16361675747E+02  0.16361675946E+02  0.25500000000E-02 0. -1.
         24    2    1    2    0    0 -0.35527136788E-14  0.00000000000E+00  0.82922276871E+02  0.11564562869E+03  0.80608978619E+02 0.  0.
         66    2    3    3    0    0  0.20137322419E+02  0.34311101135E+02  0.50524138917E+02  0.64338573404E+02  0.19999997848E+01 0.  0.
        -13    1    3    3    0    0 -0.20137322419E+02 -0.34311101135E+02  0.32398137954E+02  0.51307055287E+02  0.10566000000E+00 0.  1.
         13    1    4    4    0    0  0.10022378765E+02  0.17165943596E+02  0.26265269154E+02  0.32939235320E+02  0.10566000000E+00 0. -1.
        -13    1    4    4    0    0  0.43255080100E+01  0.66396577148E+01  0.90515501667E+01  0.12030660770E+02  0.10566000000E+00 0.  1.
         14    1    4    4    0    0  0.57894356440E+01  0.10505499824E+02  0.15207319596E+02  0.19368677315E+02  0.00000000000E+00 0. -1.
<mgrwt>
<rscale>  0 0.80608979E+02</rscale>
<asrwt>0</asrwt>
<pdfrwt beam="1">  1        2 0.25171809E-02 0.80608979E+02</pdfrwt>
<pdfrwt beam="2">  1       -1 0.15274454E-01 0.80608979E+02</pdfrwt>
<totfact> 0.11649032E+05</totfact>
</mgrwt>
</event>
<event>
 8    1  0.1493610E-013  0.8033101E+02  0.7818608E-02  0.1328115E+00
          2   -1    0    0  501    0  0.00000000000E+00  0.00000000000E+00  0.36853464445E+03  0.36853464446E+03  0.25500000000E-02 0. -1.
         -1   -1    0    0    0  501 -0.00000000000E+00 -0.00000000000E+00 -0.43775182342E+01  0.43775211356E+01  0.50400000000E-02 0.  1.
         24    2    1    2    0    0 -0.17763568394E-14  0.00000000000E+00  0.36415712622E+03  0.37291216560E+03  0.80331006932E+02 0.  0.
         66    2    3    3    0    0 -0.14652269660E+02 -0.32803525081E+02  0.26529838018E+03  0.26772745617E+03  0.19999999796E+01 0.  0.
        -13    1    3    3    0    0  0.14652269660E+02  0.32803525081E+02  0.98858746044E+02  0.10518470943E+03  0.10566000000E+00 0.  1.
         13    1    4    4    0    0 -0.40413410666E+01 -0.89749630766E+01  0.73364403605E+02  0.74021816245E+02  0.10566000000E+00 0. -1.
        -13    1    4    4    0    0 -0.17061891941E+01 -0.55173930300E+01  0.43061114778E+02  0.43446789034E+02  0.10566000000E+00 0.  1.
         14    1    4    4    0    0 -0.89047393993E+01 -0.18311168974E+02  0.14887286179E+03  0.15025885089E+03  0.00000000000E+00 0. -1.
<mgrwt>
<rscale>  0 0.80331007E+02</rscale>
<asrwt>0</asrwt>
<pdfrwt beam="1">  1        2 0.56697633E-01 0.80331007E+02</pdfrwt>
<pdfrwt beam="2">  1       -1 0.67346462E-03 0.80331007E+02</pdfrwt>
<totfact> 0.27153811E+05</totfact>
</mgrwt>
</event>
<event>
 8    1  0.1493610E-013  0.7984107E+02  0.7818608E-02  0.1329503E+00
          2   -1    0    0  501    0  0.00000000000E+00  0.00000000000E+00  0.29414386581E+02  0.29414386691E+02  0.25500000000E-02 0. -1.
         -1   -1    0    0    0  501 -0.00000000000E+00 -0.00000000000E+00 -0.54179237499E+02  0.54179237733E+02  0.50400000000E-02 0.  1.
         24    2    1    2    0    0  0.35527136788E-14  0.35527136788E-14 -0.24764850918E+02  0.83593624425E+02  0.79841068401E+02 0.  0.
         66    2    3    3    0    0 -0.25733883077E+02 -0.17988052490E+02  0.13380529070E+02  0.34188321581E+02  0.20000009274E+01 0.  0.
        -13    1    3    3    0    0  0.25733883077E+02  0.17988052490E+02 -0.38145379988E+02  0.49405302844E+02  0.10566000000E+00 0.  1.
         13    1    4    4    0    0 -0.49258439098E+01 -0.35710062329E+01  0.28859903620E+01  0.67346958464E+01  0.10566000000E+00 0. -1.
        -13    1    4    4    0    0 -0.13854222790E+02 -0.92899098431E+01  0.61063596040E+01  0.17763465474E+02  0.10566000000E+00 0.  1.
        -14    1    4    4    0    0 -0.69538163776E+01 -0.51271364143E+01  0.43881791036E+01  0.96901602603E+01  0.00000000000E+00 0.  1.
<mgrwt>
<rscale>  0 0.79841068E+02</rscale>
<asrwt>0</asrwt>
<pdfrwt beam="1">  1        2 0.45252902E-02 0.79841068E+02</pdfrwt>
<pdfrwt beam="2">  1       -1 0.83352674E-02 0.79841068E+02</pdfrwt>
<totfact> 0.13477976E+05</totfact>
</mgrwt>
</event>
<event>
 8    1  0.1493610E-013  0.7990525E+02  0.7818608E-02  0.1329321E+00
         -1   -1    0    0    0  501 -0.00000000000E+00  0.00000000000E+00  0.33725195287E+01  0.33725232946E+01  0.50400000000E-02 0.  1.
          2   -1    0    0  501    0  0.00000000000E+00 -0.00000000000E+00 -0.47329932490E+03  0.47329932490E+03  0.25500000000E-02 0. -1.
         24    2    1    2    0    0  0.00000000000E+00  0.00000000000E+00 -0.46992680537E+03  0.47667184820E+03  0.79905246770E+02 0.  0.
         66    2    3    3    0    0  0.13089298122E+02  0.20646544957E+02 -0.42343352380E+03  0.42414332320E+03  0.19999972732E+01 0.  0.
        -13    1    3    3    0    0 -0.13089298122E+02 -0.20646544957E+02 -0.46493281563E+02  0.52528524999E+02  0.10566000000E+00 0.  1.
         13    1    4    4    0    0  0.75111291190E+01  0.12769439344E+02 -0.26251320715E+03  0.26293092389E+03  0.10566000000E+00 0. -1.
        -13    1    4    4    0    0  0.20760666370E+01  0.25289847180E+01 -0.61019885083E+02  0.61107637460E+02  0.10566000000E+00 0.  1.
         14    1    4    4    0    0  0.35021023659E+01  0.53481208950E+01 -0.99900431568E+02  0.10010476185E+03  0.00000000000E+00 0. -1.
<mgrwt>
<rscale>  0 0.79905247E+02</rscale>
<asrwt>0</asrwt>
<pdfrwt beam="1">  1        2 0.72815228E-01 0.79905247E+02</pdfrwt>
<pdfrwt beam="2">  1       -1 0.51884983E-03 0.79905247E+02</pdfrwt>
<totfact> 0.30008154E+05</totfact>
</mgrwt>
</event>
<event>
 8    1  0.1493610E-013  0.7967534E+02  0.7818608E-02  0.1329975E+00
          2   -1    0    0  501    0  0.00000000000E+00  0.00000000000E+00  0.11500872859E+04  0.11500872859E+04  0.25500000000E-02 0. -1.
         -1   -1    0    0    0  501 -0.00000000000E+00 -0.00000000000E+00 -0.13799254412E+01  0.13799346452E+01  0.50400000000E-02 0.  1.
         24    2    1    2    0    0  0.00000000000E+00  0.35527136788E-14  0.11487073604E+04  0.11514672205E+04  0.79675341381E+02 0.  0.
         66    2    3    3    0    0  0.27347459933E+01 -0.19725259981E+02  0.10729353315E+04  0.10731219829E+04  0.20000006769E+01 0.  0.
        -13    1    3    3    0    0 -0.27347459933E+01  0.19725259981E+02  0.75772028961E+02  0.78345237595E+02  0.10566000000E+00 0.  1.
         13    1    4    4    0    0  0.21087403327E+00 -0.16168276569E+01  0.10282199541E+03  0.10283497704E+03  0.10566000000E+00 0.  1.
        -13    1    4    4    0    0  0.85985076660E+00 -0.71833791977E+01  0.42625596150E+03  0.42631736553E+03  0.10566000000E+00 0. -1.
        -14    1    4    4    0    0  0.16640211934E+01 -0.10925053127E+02  0.54385737457E+03  0.54396964036E+03  0.00000000000E+00 0.  1.
<mgrwt>
<rscale>  0 0.79675341E+02</rscale>
<asrwt>0</asrwt>
<pdfrwt beam="1">  1        2 0.17693678E+00 0.79675341E+02</pdfrwt>
<pdfrwt beam="2">  1       -1 0.21229660E-03 0.79675341E+02</pdfrwt>
<totfact> 0.35545597E+05</totfact>
</mgrwt>
</event>
<event>
 8    1  0.1493610E-013  0.8189853E+02  0.7818608E-02  0.1323748E+00
          2   -1    0    0  501    0  0.00000000000E+00  0.00000000000E+00  0.55904983216E+03  0.55904983217E+03  0.25500000000E-02 0. -1.
         -1   -1    0    0    0  501 -0.00000000000E+00 -0.00000000000E+00 -0.29994487009E+01  0.29994529353E+01  0.50400000000E-02 0.  1.
         24    2    1    2    0    0  0.35527136788E-14  0.00000000000E+00  0.55605038346E+03  0.56204928510E+03  0.81898534405E+02 0.  0.
         66    2    3    3    0    0 -0.22500139179E+02 -0.82927100300E+01  0.50578281606E+03  0.50635489760E+03  0.20000002423E+01 0.  0.
        -13    1    3    3    0    0  0.22500139179E+02  0.82927100300E+01  0.50267567404E+02  0.55694387504E+02  0.10566000000E+00 0.  1.
         13    1    4    4    0    0 -0.87519672480E+01 -0.30689207402E+01  0.21081012902E+03  0.21101406794E+03  0.10566000000E+00 0. -1.
        -13    1    4    4    0    0 -0.57652970548E+01 -0.25951983694E+01  0.12033911080E+03  0.12050513041E+03  0.10566000000E+00 0.  1.
         14    1    4    4    0    0 -0.79828748764E+01 -0.26285909204E+01  0.17463357624E+03  0.17483569924E+03  0.00000000000E+00 0. -1.
<mgrwt>
<rscale>  0 0.81898534E+02</rscale>
<asrwt>0</asrwt>
<pdfrwt beam="1">  1        2 0.86007529E-01 0.81898534E+02</pdfrwt>
<pdfrwt beam="2">  1       -1 0.46145471E-03 0.81898534E+02</pdfrwt>
<totfact> 0.29647083E+05</totfact>
</mgrwt>
</event>
<event>
 8    1  0.1493610E-013  0.7819230E+02  0.7818608E-02  0.1334261E+00
         -1   -1    0    0    0  501 -0.00000000000E+00  0.00000000000E+00  0.82557642928E+02  0.82557643082E+02  0.50400000000E-02 0.  1.
          2   -1    0    0  501    0  0.00000000000E+00 -0.00000000000E+00 -0.18514446059E+02  0.18514446234E+02  0.25500000000E-02 0. -1.
         24    2    1    2    0    0  0.00000000000E+00 -0.88817841970E-15  0.64043196870E+02  0.10107208932E+03  0.78192302520E+02 0.  0.
         66    2    3    3    0    0  0.38246759716E+02  0.79794891195E+01  0.31872792288E+02  0.50461487953E+02  0.20000007081E+01 0.  0.
        -13    1    3    3    0    0 -0.38246759716E+02 -0.79794891195E+01  0.32170404581E+02  0.50610601363E+02  0.10566000000E+00 0.  1.
         13    1    4    4    0    0  0.87174376324E+01  0.21510869895E+01  0.68365932049E+01  0.11285879000E+02  0.10566000000E+00 0.  1.
        -13    1    4    4    0    0  0.16745183676E+02  0.26241143293E+01  0.13849857393E+02  0.21888738342E+02  0.10566000000E+00 0. -1.
         14    1    4    4    0    0  0.12784138407E+02  0.32042878007E+01  0.11186341690E+02  0.17286870612E+02  0.00000000000E+00 0. -1.
<mgrwt>
<rscale>  0 0.78192303E+02</rscale>
<asrwt>0</asrwt>
<pdfrwt beam="1">  1        2 0.28483764E-02 0.78192303E+02</pdfrwt>
<pdfrwt beam="2">  1       -1 0.12701176E-01 0.78192303E+02</pdfrwt>
<totfact> 0.13053699E+05</totfact>
</mgrwt>
</event>
<event>
 8    1  0.1493610E-013  0.7970530E+02  0.7818608E-02  0.1329890E+00
          2   -1    0    0  501    0  0.00000000000E+00  0.00000000000E+00  0.67384267664E+01  0.67384272489E+01  0.25500000000E-02 0. -1.
         -1   -1    0    0    0  501 -0.00000000000E+00 -0.00000000000E+00 -0.23569796604E+03  0.23569796609E+03  0.50400000000E-02 0.  1.
         24    2    1    2    0    0  0.35527136788E-14  0.00000000000E+00 -0.22895953927E+03  0.24243639334E+03  0.79705295888E+02 0.  0.
         66    2    3    3    0    0 -0.31414080408E+02 -0.14539605692E+02 -0.54639134050E+02  0.64712282927E+02  0.20000025996E+01 0.  0.
        -13    1    3    3    0    0  0.31414080408E+02  0.14539605692E+02 -0.17432040522E+03  0.17772411041E+03  0.10566000000E+00 0.  1.
         13    1    4    4    0    0 -0.21098841226E+02 -0.98582677697E+01 -0.37759774078E+02  0.44363929571E+02  0.10566000000E+00 0. -1.
        -13    1    4    4    0    0 -0.81573134691E+01 -0.36964912205E+01 -0.12657820584E+02  0.15506043866E+02  0.10566000000E+00 0.  1.
         14    1    4    4    0    0 -0.21579257124E+01 -0.98484670237E+00 -0.42215393872E+01  0.48423094908E+01  0.00000000000E+00 0. -1.
<mgrwt>
<rscale>  0 0.79705296E+02</rscale>
<asrwt>0</asrwt>
<pdfrwt beam="1">  1        2 0.10366813E-02 0.79705296E+02</pdfrwt>
<pdfrwt beam="2">  1       -1 0.36261219E-01 0.79705296E+02</pdfrwt>
<totfact> 0.95404304E+04</totfact>
</mgrwt>
</event>
<event>
 8    1  0.1493610E-013  0.8009927E+02  0.7818608E-02  0.1328770E+00
         -1   -1    0    0    0  501 -0.00000000000E+00  0.00000000000E+00  0.13678910214E+02  0.13678911143E+02  0.50400000000E-02 0.  1.
          2   -1    0    0  501    0  0.00000000000E+00 -0.00000000000E+00 -0.11725885192E+03  0.11725885195E+03  0.25500000000E-02 0. -1.
         24    2    1    2    0    0  0.00000000000E+00 -0.88817841970E-15 -0.10357994170E+03  0.13093776309E+03  0.80099272652E+02 0.  0.
         66    2    3    3    0    0 -0.17268374127E+02  0.60646869664E+01 -0.11000879193E+03  0.11153883394E+03  0.20000001513E+01 0.  0.
        -13    1    3    3    0    0  0.17268374127E+02 -0.60646869664E+01  0.64288502279E+01  0.19398929153E+02  0.10566000000E+00 0.  1.
         13    1    4    4    0    0 -0.13165476138E+02  0.47784931521E+01 -0.80779131484E+02  0.81984407091E+02  0.10566000000E+00 0. -1.
        -13    1    4    4    0    0 -0.17295608011E+01  0.15958536332E+00 -0.12093055041E+02  0.12217609926E+02  0.10566000000E+00 0.  1.
        -14    1    4    4    0    0 -0.23733371878E+01  0.11266084509E+01 -0.17136605408E+02  0.17336816920E+02  0.00000000000E+00 0.  1.
<mgrwt>
<rscale>  0 0.80099273E+02</rscale>
<asrwt>0</asrwt>
<pdfrwt beam="1">  1        2 0.18039823E-01 0.80099273E+02</pdfrwt>
<pdfrwt beam="2">  1       -1 0.21044479E-02 0.80099273E+02</pdfrwt>
<totfact> 0.18497054E+05</totfact>
</mgrwt>
</event>
<event>
 8    1  0.1493610E-013  0.7969943E+02  0.7818608E-02  0.1329907E+00
          2   -1    0    0  501    0  0.00000000000E+00  0.00000000000E+00  0.14040831427E+03  0.14040831430E+03  0.25500000000E-02 0. -1.
         -1   -1    0    0    0  501 -0.00000000000E+00 -0.00000000000E+00 -0.11309869811E+02  0.11309870934E+02  0.50400000000E-02 0.  1.
         24    2    1    2    0    0 -0.35527136788E-14  0.35527136788E-14  0.12909844446E+03  0.15171818523E+03  0.79699431409E+02 0.  0.
         66    2    3    3    0    0  0.19241286276E+02 -0.18470030901E+02  0.12088783186E+03  0.12381129607E+03  0.20000012319E+01 0.  0.
        -13    1    3    3    0    0 -0.19241286276E+02  0.18470030901E+02  0.82106126043E+01  0.27906889157E+02  0.10566000000E+00 0.  1.
         13    1    4    4    0    0  0.25653800928E+01 -0.28683996269E+01  0.19286923032E+02  0.19667370326E+02  0.10566000000E+00 0. -1.
        -13    1    4    4    0    0  0.10631977512E+01 -0.10565486959E+01  0.82058931886E+01  0.83423337060E+01  0.10566000000E+00 0.  1.
         14    1    4    4    0    0  0.15612708432E+02 -0.14545082578E+02  0.93395015638E+02  0.95801592042E+02  0.00000000000E+00 0. -1.
<mgrwt>
<rscale>  0 0.79699431E+02</rscale>
<asrwt>0</asrwt>
<pdfrwt beam="1">  1        2 0.21601280E-01 0.79699431E+02</pdfrwt>
<pdfrwt beam="2">  1       -1 0.17399800E-02 0.79699431E+02</pdfrwt>
<totfact> 0.19809261E+05</totfact>
</mgrwt>
</event>
<event>
 8    1  0.1493610E-013  0.8135962E+02  0.7818608E-02  0.1325237E+00
          2   -1    0    0  501    0  0.00000000000E+00  0.00000000000E+00  0.54672887292E+03  0.54672887292E+03  0.25500000000E-02 0. -1.
         -1   -1    0    0    0  501 -0.00000000000E+00 -0.00000000000E+00 -0.30268126204E+01  0.30268168165E+01  0.50400000000E-02 0.  1.
         24    2    1    2    0    0  0.35527136788E-14  0.88817841970E-15  0.54370206030E+03  0.54975568974E+03  0.81359621620E+02 0.  0.
         66    2    3    3    0    0  0.30278412214E+02 -0.70405719390E+01  0.44905752093E+03  0.45013665594E+03  0.20000041461E+01 0.  0.
        -13    1    3    3    0    0 -0.30278412214E+02  0.70405719390E+01  0.94644539371E+02  0.99619033805E+02  0.10566000000E+00 0.  1.
         13    1    4    4    0    0  0.33328203752E+00 -0.19577680240E+00  0.55970504967E+01  0.56113762813E+01  0.10566000000E+00 0.  1.
        -13    1    4    4    0    0  0.16130879172E+02 -0.43158091810E+01  0.24564125917E+03  0.24620818598E+03  0.10566000000E+00 0. -1.
         14    1    4    4    0    0  0.13814251005E+02 -0.25289859556E+01  0.19781921126E+03  0.19831709368E+03  0.00000000000E+00 0. -1.
<mgrwt>
<rscale>  0 0.81359622E+02</rscale>
<asrwt>0</asrwt>
<pdfrwt beam="1">  1        2 0.84112203E-01 0.81359622E+02</pdfrwt>
<pdfrwt beam="2">  1       -1 0.46566343E-03 0.81359622E+02</pdfrwt>
<totfact> 0.29961512E+05</totfact>
</mgrwt>
</event>
<event>
 8    1  0.1493610E-013  0.7607827E+02  0.7818608E-02  0.1340564E+00
          2   -1    0    0  501    0  0.00000000000E+00  0.00000000000E+00  0.19003379881E+03  0.19003379882E+03  0.25500000000E-02 0. -1.
         -1   -1    0    0    0  501 -0.00000000000E+00 -0.00000000000E+00 -0.76143072992E+01  0.76143089672E+01  0.50400000000E-02 0.  1.
         24    2    1    2    0    0 -0.35527136788E-14 -0.17763568394E-14  0.18241949151E+03  0.19764810779E+03  0.76078273058E+02 0.  0.
         66    2    3    3    0    0 -0.29061457977E+02 -0.15017327617E+02  0.14157395268E+03  0.14531783286E+03  0.20000000414E+01 0.  0.
        -13    1    3    3    0    0  0.29061457977E+02  0.15017327617E+02  0.40845538825E+02  0.52330274932E+02  0.10566000000E+00 0.  1.
         13    1    4    4    0    0 -0.23371234140E+02 -0.11687037452E+02  0.11301580895E+03  0.11599735198E+03  0.10566000000E+00 0. -1.
        -13    1    4    4    0    0 -0.45950842850E+01 -0.24759075429E+01  0.21286936262E+02  0.21917794989E+02  0.10566000000E+00 0.  1.
        -14    1    4    4    0    0 -0.10951395525E+01 -0.85438262262E+00  0.72712074673E+01  0.74026858868E+01  0.00000000000E+00 0.  1.
<mgrwt>
<rscale>  0 0.76078273E+02</rscale>
<asrwt>0</asrwt>
<pdfrwt beam="1">  1        2 0.29235969E-01 0.76078273E+02</pdfrwt>
<pdfrwt beam="2">  1       -1 0.11714320E-02 0.76078273E+02</pdfrwt>
<totfact> 0.24740513E+05</totfact>
</mgrwt>
</event>
<event>
 8    1  0.1493610E-013  0.7997073E+02  0.7818608E-02  0.1329135E+00
          2   -1    0    0  501    0  0.00000000000E+00  0.00000000000E+00  0.73815678617E+03  0.73815678617E+03  0.25500000000E-02 0. -1.
         -1   -1    0    0    0  501 -0.00000000000E+00 -0.00000000000E+00 -0.21659724522E+01  0.21659783159E+01  0.50400000000E-02 0.  1.
         24    2    1    2    0    0  0.00000000000E+00  0.00000000000E+00  0.73599081372E+03  0.74032276449E+03  0.79970730556E+02 0.  0.
         66    2    3    3    0    0 -0.28832543309E+02 -0.17096692515E+02  0.56960566779E+03  0.57059462776E+03  0.20000002768E+01 0.  0.
        -13    1    3    3    0    0  0.28832543309E+02  0.17096692515E+02  0.16638514593E+03  0.16972813673E+03  0.10566000000E+00 0.  1.
         13    1    4    4    0    0 -0.13672226634E+02 -0.78122299786E+01  0.25372894935E+03  0.25421713479E+03  0.10566000000E+00 0. -1.
        -13    1    4    4    0    0 -0.38036118242E+01 -0.21076852504E+01  0.81812042484E+02  0.81927597667E+02  0.10566000000E+00 0.  1.
         14    1    4    4    0    0 -0.11356704851E+02 -0.71767772860E+01  0.23406467596E+03  0.23444989531E+03  0.00000000000E+00 0. -1.
<mgrwt>
<rscale>  0 0.79970731E+02</rscale>
<asrwt>0</asrwt>
<pdfrwt beam="1">  1        2 0.11356263E+00 0.79970731E+02</pdfrwt>
<pdfrwt beam="2">  1       -1 0.33322684E-03 0.79970731E+02</pdfrwt>
<totfact> 0.33874422E+05</totfact>
</mgrwt>
</event>
<event>
 8    1  0.1493610E-013  0.7964814E+02  0.7818608E-02  0.1330053E+00
          2   -1    0    0  501    0  0.00000000000E+00  0.00000000000E+00  0.16382497205E+04  0.16382497205E+04  0.25500000000E-02 0. -1.
         -1   -1    0    0    0  501 -0.00000000000E+00 -0.00000000000E+00 -0.96807337427E+00  0.96808649385E+00  0.50400000000E-02 0.  1.
         24    2    1    2    0    0  0.00000000000E+00  0.00000000000E+00  0.16372816471E+04  0.16392178070E+04  0.79648143465E+02 0.  0.
         66    2    3    3    0    0 -0.19291950147E+02  0.57103404002E+01  0.15258768736E+04  0.15260108193E+04  0.19999999374E+01 0.  0.
        -13    1    3    3    0    0  0.19291950147E+02 -0.57103404002E+01  0.11140477357E+03  0.11320698771E+03  0.10566000000E+00 0.  1.
         13    1    4    4    0    0 -0.35660837471E+01  0.11979605739E+01  0.33245866099E+03  0.33247996104E+03  0.10566000000E+00 0. -1.
        -13    1    4    4    0    0 -0.12033677620E+02  0.29786906438E+01  0.91068301657E+03  0.91076739611E+03  0.10566000000E+00 0.  1.
        -14    1    4    4    0    0 -0.36921887801E+01  0.15336891825E+01  0.28273519600E+03  0.28276346213E+03  0.00000000000E+00 0.  1.
<mgrwt>
<rscale>  0 0.79648143E+02</rscale>
<asrwt>0</asrwt>
<pdfrwt beam="1">  1        2 0.25203844E+00 0.79648143E+02</pdfrwt>
<pdfrwt beam="2">  1       -1 0.14893537E-03 0.79648143E+02</pdfrwt>
<totfact> 0.32344387E+05</totfact>
</mgrwt>
</event>
<event>
 8    1  0.1493610E-013  0.8679448E+02  0.7818608E-02  0.1310805E+00
         -1   -1    0    0    0  501 -0.00000000000E+00  0.00000000000E+00  0.11219439115E+01  0.11219552318E+01  0.50400000000E-02 0.  1.
          2   -1    0    0  501    0  0.00000000000E+00 -0.00000000000E+00 -0.16786142835E+04  0.16786142835E+04  0.25500000000E-02 0. -1.
         24    2    1    2    0    0 -0.35527136788E-14  0.00000000000E+00 -0.16774923396E+04  0.16797362387E+04  0.86794483334E+02 0.  0.
         66    2    3    3    0    0 -0.24617883918E+02  0.31815783173E+01 -0.15275579657E+04  0.15277609437E+04  0.20000030854E+01 0.  0.
        -13    1    3    3    0    0  0.24617883918E+02 -0.31815783173E+01 -0.14993437386E+03  0.15197529496E+03  0.10566000000E+00 0.  1.
         13    1    4    4    0    0 -0.76414971279E+01  0.17087216091E+01 -0.51331477196E+03  0.51337450121E+03  0.10566000000E+00 0. -1.
        -13    1    4    4    0    0 -0.50046922593E+01  0.33537258933E+00 -0.30908349544E+03  0.30912421085E+03  0.10566000000E+00 0.  1.
         14    1    4    4    0    0 -0.11971694531E+02  0.11374841188E+01 -0.70515969830E+03  0.70526223169E+03  0.00000000000E+00 0. -1.
<mgrwt>
<rscale>  0 0.86794483E+02</rscale>
<asrwt>0</asrwt>
<pdfrwt beam="1">  1        2 0.25824634E+00 0.86794483E+02</pdfrwt>
<pdfrwt beam="2">  1       -1 0.17260897E-03 0.86794483E+02</pdfrwt>
<totfact> 0.25505882E+05</totfact>
</mgrwt>
</event>
<event>
 8    1  0.1493610E-013  0.7820039E+02  0.7818608E-02  0.1334237E+00
          2   -1    0    0  501    0  0.00000000000E+00  0.00000000000E+00  0.35539630410E+03  0.35539630411E+03  0.25500000000E-02 0. -1.
         -1   -1    0    0    0  501 -0.00000000000E+00 -0.00000000000E+00 -0.43017466972E+01  0.43017496497E+01  0.50400000000E-02 0.  1.
         24    2    1    2    0    0 -0.88817841970E-15  0.88817841970E-15  0.35109455741E+03  0.35969805376E+03  0.78200394117E+02 0.  0.
         66    2    3    3    0    0 -0.67134163888E+01  0.74316801216E+01  0.34938912609E+03  0.34953835450E+03  0.20000015794E+01 0.  0.
        -13    1    3    3    0    0  0.67134163888E+01 -0.74316801216E+01  0.17054313109E+01  0.10159699259E+02  0.10566000000E+00 0.  1.
         13    1    4    4    0    0 -0.67613474432E-01  0.42098195899E-01  0.73054093449E+01  0.73066075283E+01  0.10566000000E+00 0. -1.
        -13    1    4    4    0    0 -0.80332831492E+00  0.27949910212E+00  0.26255369374E+02  0.26269355552E+02  0.10566000000E+00 0.  1.
         14    1    4    4    0    0 -0.58424745994E+01  0.71100828236E+01  0.31582834738E+03  0.31596239142E+03  0.00000000000E+00 0. -1.
<mgrwt>
<rscale>  0 0.78200394E+02</rscale>
<asrwt>0</asrwt>
<pdfrwt beam="1">  1        2 0.54676358E-01 0.78200394E+02</pdfrwt>
<pdfrwt beam="2">  1       -1 0.66180738E-03 0.78200394E+02</pdfrwt>
<totfact> 0.28756875E+05</totfact>
</mgrwt>
</event>
<event>
 8    1  0.1493610E-013  0.7988379E+02  0.7818608E-02  0.1329382E+00
          2   -1    0    0  501    0  0.00000000000E+00  0.00000000000E+00  0.24862119127E+02  0.24862119258E+02  0.25500000000E-02 0. -1.
         -1   -1    0    0    0  501 -0.00000000000E+00 -0.00000000000E+00 -0.64168105693E+02  0.64168105891E+02  0.50400000000E-02 0.  1.
         24    2    1    2    0    0 -0.17763568394E-14 -0.71054273576E-14 -0.39305986566E+02  0.89030225149E+02  0.79883793163E+02 0.  0.
         66    2    3    3    0    0  0.10183068919E+02  0.37494558860E+02 -0.94621037071E+01  0.40038334546E+02  0.19999974806E+01 0.  0.
        -13    1    3    3    0    0 -0.10183068919E+02 -0.37494558860E+02 -0.29843882859E+02  0.48991890603E+02  0.10566000000E+00 0.  1.
         13    1    4    4    0    0  0.80105146932E+01  0.31541694224E+02 -0.75569979372E+01  0.33409073648E+02  0.10566000000E+00 0. -1.
        -13    1    4    4    0    0  0.11797449150E+01  0.28330099741E+01 -0.10529088688E+01  0.32461553721E+01  0.10566000000E+00 0.  1.
         14    1    4    4    0    0  0.99280931090E+00  0.31198546615E+01 -0.85219690107E+00  0.33831055253E+01  0.00000000000E+00 0. -1.
<mgrwt>
<rscale>  0 0.79883793E+02</rscale>
<asrwt>0</asrwt>
<pdfrwt beam="1">  1        2 0.38249414E-02 0.79883793E+02</pdfrwt>
<pdfrwt beam="2">  1       -1 0.98720162E-02 0.79883793E+02</pdfrwt>
<totfact> 0.13019713E+05</totfact>
</mgrwt>
</event>
<event>
 8    1  0.1493610E-013  0.8196336E+02  0.7818608E-02  0.1323570E+00
         -1   -1    0    0    0  501 -0.00000000000E+00  0.00000000000E+00  0.21067139226E+01  0.21067199513E+01  0.50400000000E-02 0.  1.
          2   -1    0    0  501    0  0.00000000000E+00 -0.00000000000E+00 -0.79721108310E+03  0.79721108310E+03  0.25500000000E-02 0. -1.
         24    2    1    2    0    0 -0.17763568394E-14  0.71054273576E-14 -0.79510436918E+03  0.79931780305E+03  0.81963360084E+02 0.  0.
         66    2    3    3    0    0 -0.95699590886E+01  0.31205675518E+02 -0.63906537178E+03  0.63990149845E+03  0.20000018964E+01 0.  0.
        -13    1    3    3    0    0  0.95699590886E+01 -0.31205675518E+02 -0.15603899740E+03  0.15941630461E+03  0.10566000000E+00 0.  1.
         13    1    4    4    0    0 -0.24816857534E+01  0.81012856589E+01 -0.15436329988E+03  0.15459569563E+03  0.10566000000E+00 0. -1.
        -13    1    4    4    0    0 -0.23480181516E+01  0.97176145294E+01 -0.20191847694E+03  0.20216584211E+03  0.10566000000E+00 0.  1.
         14    1    4    4    0    0 -0.47402551836E+01  0.13386775330E+02 -0.28278359496E+03  0.28313996071E+03  0.00000000000E+00 0. -1.
<mgrwt>
<rscale>  0 0.81963360E+02</rscale>
<asrwt>0</asrwt>
<pdfrwt beam="1">  1        2 0.12264762E+00 0.81963360E+02</pdfrwt>
<pdfrwt beam="2">  1       -1 0.32411094E-03 0.81963360E+02</pdfrwt>
<totfact> 0.32245889E+05</totfact>
</mgrwt>
</event>
<event>
 8    1  0.1493610E-013  0.8209378E+02  0.7818608E-02  0.1323212E+00
          2   -1    0    0  501    0  0.00000000000E+00  0.00000000000E+00  0.80876218246E+02  0.80876218286E+02  0.25500000000E-02 0. -1.
         -1   -1    0    0    0  501 -0.00000000000E+00 -0.00000000000E+00 -0.20832416310E+02  0.20832416919E+02  0.50400000000E-02 0.  1.
         24    2    1    2    0    0  0.00000000000E+00  0.00000000000E+00  0.60043801936E+02  0.10170863520E+03  0.82093777622E+02 0.  0.
         66    2    3    3    0    0  0.35430464002E+01 -0.39584400001E+02  0.42635669479E+02  0.58320478515E+02  0.20000002756E+01 0.  0.
        -13    1    3    3    0    0 -0.35430464002E+01  0.39584400001E+02  0.17408132457E+02  0.43388156690E+02  0.10566000000E+00 0.  1.
         13    1    4    4    0    0  0.17362404907E+01 -0.18585774717E+02  0.19846075100E+02  0.27245612744E+02  0.10566000000E+00 0. -1.
        -13    1    4    4    0    0  0.15045551276E+01 -0.93628074095E+01  0.10451052756E+02  0.14112459618E+02  0.10566000000E+00 0.  1.
        -14    1    4    4    0    0  0.30225078198E+00 -0.11635817874E+02  0.12338541623E+02  0.16962406154E+02  0.00000000000E+00 0.  1.
<mgrwt>
<rscale>  0 0.82093778E+02</rscale>
<asrwt>0</asrwt>
<pdfrwt beam="1">  1        2 0.12442495E-01 0.82093778E+02</pdfrwt>
<pdfrwt beam="2">  1       -1 0.32049871E-02 0.82093778E+02</pdfrwt>
<totfact> 0.15614690E+05</totfact>
</mgrwt>
</event>
<event>
 8    1  0.1493610E-013  0.8166867E+02  0.7818608E-02  0.1324382E+00
          2   -1    0    0  501    0  0.00000000000E+00  0.00000000000E+00  0.36703907403E+02  0.36703907492E+02  0.25500000000E-02 0. -1.
         -1   -1    0    0    0  501 -0.00000000000E+00 -0.00000000000E+00 -0.45429576068E+02  0.45429576347E+02  0.50400000000E-02 0.  1.
         24    2    1    2    0    0  0.00000000000E+00 -0.35527136788E-14 -0.87256686648E+01  0.82133483839E+02  0.81668671312E+02 0.  0.
         66    2    3    3    0    0  0.27566598475E+02 -0.30037117873E+02 -0.61902090512E+01  0.41285160482E+02  0.19999965822E+01 0.  0.
        -13    1    3    3    0    0 -0.27566598475E+02  0.30037117873E+02 -0.25354596136E+01  0.40848323357E+02  0.10566000000E+00 0.  1.
         13    1    4    4    0    0  0.10228855170E+02 -0.10249311177E+02 -0.15808244345E+01  0.14566675243E+02  0.10566000000E+00 0. -1.
        -13    1    4    4    0    0  0.41727232095E+01 -0.50148018976E+01 -0.91022906584E+00  0.65878325755E+01  0.10566000000E+00 0.  1.
         14    1    4    4    0    0  0.13165020095E+02 -0.14773004798E+02 -0.36991555509E+01  0.20130652663E+02  0.00000000000E+00 0. -1.
<mgrwt>
<rscale>  0 0.81668671E+02</rscale>
<asrwt>0</asrwt>
<pdfrwt beam="1">  1        2 0.56467551E-02 0.81668671E+02</pdfrwt>
<pdfrwt beam="2">  1       -1 0.69891655E-02 0.81668671E+02</pdfrwt>
<totfact> 0.13226271E+05</totfact>
</mgrwt>
</event>
<event>
 8    1  0.1493610E-013  0.7771812E+02  0.7818608E-02  0.1335655E+00
         -1   -1    0    0    0  501 -0.00000000000E+00  0.00000000000E+00  0.65379893095E+02  0.65379893289E+02  0.50400000000E-02 0.  1.
          2   -1    0    0  501    0  0.00000000000E+00 -0.00000000000E+00 -0.23096192355E+02  0.23096192496E+02  0.25500000000E-02 0. -1.
         24    2    1    2    0    0 -0.35527136788E-14  0.35527136788E-14  0.42283700740E+02  0.88476085785E+02  0.77718121488E+02 0.  0.
         66    2    3    3    0    0  0.26711170937E+02 -0.25663988709E+02  0.34426849949E+02  0.50609633117E+02  0.19999993803E+01 0.  0.
        -13    1    3    3    0    0 -0.26711170937E+02  0.25663988709E+02  0.78568507909E+01  0.37866452668E+02  0.10566000000E+00 0.  1.
         13    1    4    4    0    0  0.59633951924E+01 -0.61422899867E+01  0.86833380761E+01  0.12194315589E+02  0.10566000000E+00 0. -1.
        -13    1    4    4    0    0  0.17737137034E+02 -0.16706282441E+02  0.21435967309E+02  0.32453316651E+02  0.10566000000E+00 0.  1.
        -14    1    4    4    0    0  0.30106387112E+01 -0.28154162811E+01  0.43075445639E+01  0.59620008768E+01  0.00000000000E+00 0.  1.
<mgrwt>
<rscale>  0 0.77718121E+02</rscale>
<asrwt>0</asrwt>
<pdfrwt beam="1">  1        2 0.35532605E-02 0.77718121E+02</pdfrwt>
<pdfrwt beam="2">  1       -1 0.10058445E-01 0.77718121E+02</pdfrwt>
<totfact> 0.13872150E+05</totfact>
</mgrwt>
</event>
<event>
 8    1  0.1493610E-013  0.7993257E+02  0.7818608E-02  0.1329243E+00
          2   -1    0    0  501    0  0.00000000000E+00  0.00000000000E+00  0.58678203665E+03  0.58678203666E+03  0.25500000000E-02 0. -1.
         -1   -1    0    0    0  501 -0.00000000000E+00 -0.00000000000E+00 -0.27221395749E+01  0.27221442406E+01  0.50400000000E-02 0.  1.
         24    2    1    2    0    0  0.00000000000E+00  0.00000000000E+00  0.58405989708E+03  0.58950418090E+03  0.79932571100E+02 0.  0.
         66    2    3    3    0    0  0.20560983038E+02 -0.30531294579E+01  0.54374509186E+03  0.54414593681E+03  0.20000005882E+01 0.  0.
        -13    1    3    3    0    0 -0.20560983038E+02  0.30531294579E+01  0.40314805216E+02  0.45358244087E+02  0.10566000000E+00 0.  1.
         13    1    4    4    0    0  0.55328967682E+01 -0.12466076512E+01  0.15515588145E+03  0.15525954299E+03  0.10566000000E+00 0. -1.
        -13    1    4    4    0    0  0.36241014564E+01 -0.23154887416E+00  0.10810051922E+03  0.10816155115E+03  0.10566000000E+00 0.  1.
         14    1    4    4    0    0  0.11403984814E+02 -0.15749729326E+01  0.28048869119E+03  0.28072484268E+03  0.00000000000E+00 0. -1.
<mgrwt>
<rscale>  0 0.79932571E+02</rscale>
<asrwt>0</asrwt>
<pdfrwt beam="1">  1        2 0.90274115E-01 0.79932571E+02</pdfrwt>
<pdfrwt beam="2">  1       -1 0.41879127E-03 0.79932571E+02</pdfrwt>
<totfact> 0.32032799E+05</totfact>
</mgrwt>
</event>
<event>
 8    1  0.1493610E-013  0.7956074E+02  0.7818608E-02  0.1330303E+00
          2   -1    0    0  501    0  0.00000000000E+00  0.00000000000E+00  0.19176064673E+03  0.19176064674E+03  0.25500000000E-02 0. -1.
         -1   -1    0    0    0  501 -0.00000000000E+00 -0.00000000000E+00 -0.82523579068E+01  0.82523594458E+01  0.50400000000E-02 0.  1.
         24    2    1    2    0    0  0.00000000000E+00  0.71054273576E-14  0.18350828882E+03  0.20001300619E+03  0.79560735161E+02 0.  0.
         66    2    3    3    0    0 -0.22267403010E+02  0.32928262966E+02  0.93330684800E+02  0.10146292162E+03  0.19999996926E+01 0.  0.
        -13    1    3    3    0    0  0.22267403010E+02 -0.32928262966E+02  0.90177604021E+02  0.98550084575E+02  0.10566000000E+00 0.  1.
         13    1    4    4    0    0 -0.12294845318E+02  0.19158374772E+02  0.53022456455E+02  0.57702674096E+02  0.10566000000E+00 0. -1.
        -13    1    4    4    0    0 -0.12045323894E+00  0.26376086009E+00  0.94452307909E+00  0.99366325111E+00  0.10566000000E+00 0. -1.
        -14    1    4    4    0    0 -0.98521044526E+01  0.13506127334E+02  0.39363705266E+02  0.42766584268E+02  0.00000000000E+00 0.  1.
<mgrwt>
<rscale>  0 0.79560735E+02</rscale>
<asrwt>0</asrwt>
<pdfrwt beam="1">  1        2 0.29501634E-01 0.79560735E+02</pdfrwt>
<pdfrwt beam="2">  1       -1 0.12695938E-02 0.79560735E+02</pdfrwt>
<totfact> 0.22058244E+05</totfact>
</mgrwt>
</event>
<event>
 8    1  0.1493610E-013  0.8119439E+02  0.7818608E-02  0.1325696E+00
         -1   -1    0    0    0  501 -0.00000000000E+00  0.00000000000E+00  0.35988404859E+02  0.35988405212E+02  0.50400000000E-02 0.  1.
          2   -1    0    0  501    0  0.00000000000E+00 -0.00000000000E+00 -0.45796201765E+02  0.45796201836E+02  0.25500000000E-02 0. -1.
         24    2    1    2    0    0 -0.17763568394E-14  0.17763568394E-14 -0.98077969056E+01  0.81784607048E+02  0.81194390631E+02 0.  0.
         66    2    3    3    0    0  0.11447184710E+02  0.14388337792E+02 -0.41336952298E+02  0.45285824795E+02  0.19999999678E+01 0.  0.
        -13    1    3    3    0    0 -0.11447184710E+02 -0.14388337792E+02  0.31529155392E+02  0.36498782253E+02  0.10566000000E+00 0.  1.
         13    1    4    4    0    0  0.76788966593E+01  0.98088651899E+01 -0.26735646257E+02  0.29495512117E+02  0.10566000000E+00 0. -1.
        -13    1    4    4    0    0  0.28038574994E+01  0.26875278919E+01 -0.92248767178E+01  0.10009692180E+02  0.10566000000E+00 0.  1.
        -14    1    4    4    0    0  0.96443055128E+00  0.18919447105E+01 -0.53764293232E+01  0.57806204981E+01  0.00000000000E+00 0.  1.
<mgrwt>
<rscale>  0 0.81194391E+02</rscale>
<asrwt>0</asrwt>
<pdfrwt beam="1">  1        2 0.70455695E-02 0.81194391E+02</pdfrwt>
<pdfrwt beam="2">  1       -1 0.55366777E-02 0.81194391E+02</pdfrwt>
<totfact> 0.14077662E+05</totfact>
</mgrwt>
</event>
<event>
 8    1  0.1493610E-013  0.7958119E+02  0.7818608E-02  0.1330244E+00
         -1   -1    0    0    0  501 -0.00000000000E+00  0.00000000000E+00  0.33584950111E+01  0.33584987928E+01  0.50400000000E-02 0.  1.
          2   -1    0    0  501    0  0.00000000000E+00 -0.00000000000E+00 -0.47142864148E+03  0.47142864149E+03  0.25500000000E-02 0. -1.
         24    2    1    2    0    0  0.00000000000E+00  0.00000000000E+00 -0.46807014647E+03  0.47478714028E+03  0.79581194761E+02 0.  0.
         66    2    3    3    0    0 -0.37684519905E+02 -0.11244820198E+02 -0.26933558576E+03  0.27219887358E+03  0.19999994166E+01 0.  0.
        -13    1    3    3    0    0  0.37684519905E+02  0.11244820198E+02 -0.19873456071E+03  0.20258826670E+03  0.10566000000E+00 0.  1.
         13    1    4    4    0    0 -0.18820083347E+02 -0.53652254669E+01 -0.13307319122E+03  0.13450452248E+03  0.10566000000E+00 0. -1.
        -13    1    4    4    0    0 -0.15422136647E+02 -0.50230637436E+01 -0.10830653478E+03  0.10951433746E+03  0.10566000000E+00 0.  1.
        -14    1    4    4    0    0 -0.34422999118E+01 -0.85653098785E+00 -0.27955859755E+02  0.28180013639E+02  0.00000000000E+00 0.  1.
<mgrwt>
<rscale>  0 0.79581195E+02</rscale>
<asrwt>0</asrwt>
<pdfrwt beam="1">  1        2 0.72527431E-01 0.79581195E+02</pdfrwt>
<pdfrwt beam="2">  1       -1 0.51669221E-03 0.79581195E+02</pdfrwt>
<totfact> 0.30288327E+05</totfact>
</mgrwt>
</event>
<event>
 8    1  0.1493610E-013  0.8149440E+02  0.7818608E-02  0.1324863E+00
         -1   -1    0    0    0  501 -0.00000000000E+00  0.00000000000E+00  0.15155227494E+01  0.15155311299E+01  0.50400000000E-02 0.  1.
          2   -1    0    0  501    0  0.00000000000E+00 -0.00000000000E+00 -0.10955490631E+04  0.10955490631E+04  0.25500000000E-02 0. -1.
         24    2    1    2    0    0  0.35527136788E-14  0.17763568394E-14 -0.10940335404E+04  0.10970645942E+04  0.81494395558E+02 0.  0.
         66    2    3    3    0    0  0.20087897452E+02  0.10736020779E+02 -0.10017783393E+04  0.10020392342E+04  0.20000006998E+01 0.  0.
        -13    1    3    3    0    0 -0.20087897452E+02 -0.10736020779E+02 -0.92255201089E+02  0.95025360079E+02  0.10566000000E+00 0.  1.
         13    1    4    4    0    0  0.78950435153E+01  0.49421944580E+01 -0.40832395676E+03  0.40843019211E+03  0.10566000000E+00 0. -1.
        -13    1    4    4    0    0  0.47872391409E+01  0.21156149824E+01 -0.20673374908E+03  0.20680001851E+03  0.10566000000E+00 0.  1.
        -14    1    4    4    0    0  0.74056147961E+01  0.36782113387E+01 -0.38672063343E+03  0.38680902354E+03  0.00000000000E+00 0.  1.
<mgrwt>
<rscale>  0 0.81494396E+02</rscale>
<asrwt>0</asrwt>
<pdfrwt beam="1">  1        2 0.16854538E+00 0.81494396E+02</pdfrwt>
<pdfrwt beam="2">  1       -1 0.23315887E-03 0.81494396E+02</pdfrwt>
<totfact> 0.33600675E+05</totfact>
</mgrwt>
</event>
<event>
 8    1  0.1493610E-013  0.7326046E+02  0.7818608E-02  0.1349344E+00
          2   -1    0    0  501    0  0.00000000000E+00  0.00000000000E+00  0.49202741777E+03  0.49202741778E+03  0.25500000000E-02 0. -1.
         -1   -1    0    0    0  501 -0.00000000000E+00 -0.00000000000E+00 -0.27270283287E+01  0.27270329861E+01  0.50400000000E-02 0.  1.
         24    2    1    2    0    0  0.00000000000E+00  0.00000000000E+00  0.48930038944E+03  0.49475445077E+03  0.73260463021E+02 0.  0.
         66    2    3    3    0    0  0.11194706704E+02 -0.28646730145E+02  0.37885051967E+03  0.38010218737E+03  0.19999943708E+01 0.  0.
        -13    1    3    3    0    0 -0.11194706704E+02  0.28646730145E+02  0.11044986977E+03  0.11465226340E+03  0.10566000000E+00 0.  1.
         13    1    4    4    0    0  0.15484718866E+01 -0.34898982526E+01  0.47523794315E+02  0.47677031631E+02  0.10566000000E+00 0. -1.
        -13    1    4    4    0    0  0.84083951499E+01 -0.20043871704E+02  0.26914956336E+03  0.27002584418E+03  0.10566000000E+00 0.  1.
        -14    1    4    4    0    0  0.12378396674E+01 -0.51129601884E+01  0.62177161997E+02  0.62399311558E+02  0.00000000000E+00 0.  1.
<mgrwt>
<rscale>  0 0.73260463E+02</rscale>
<asrwt>0</asrwt>
<pdfrwt beam="1">  1        2 0.75696599E-01 0.73260463E+02</pdfrwt>
<pdfrwt beam="2">  1       -1 0.41954278E-03 0.73260463E+02</pdfrwt>
<totfact> 0.38065785E+05</totfact>
</mgrwt>
</event>
<event>
 8    1  0.1493610E-013  0.8367441E+02  0.7818608E-02  0.1318936E+00
          2   -1    0    0  501    0  0.00000000000E+00  0.00000000000E+00  0.35045274904E+02  0.35045274996E+02  0.25500000000E-02 0. -1.
         -1   -1    0    0    0  501 -0.00000000000E+00 -0.00000000000E+00 -0.49945444631E+02  0.49945444885E+02  0.50400000000E-02 0.  1.
         24    2    1    2    0    0 -0.35527136788E-14  0.00000000000E+00 -0.14900169727E+02  0.84990719882E+02  0.83674413103E+02 0.  0.
         66    2    3    3    0    0  0.26480763255E+02  0.23630487335E+02  0.15000365024E+02  0.38582919926E+02  0.20000012429E+01 0.  0.
        -13    1    3    3    0    0 -0.26480763255E+02 -0.23630487335E+02 -0.29900534752E+02  0.46407799955E+02  0.10566000000E+00 0.  1.
         13    1    4    4    0    0  0.24597429047E+02  0.22411152801E+02  0.13943716762E+02  0.36079518937E+02  0.10566000000E+00 0. -1.
        -13    1    4    4    0    0  0.16619008765E+01  0.10169778408E+01  0.10183716063E+01  0.22010005034E+01  0.10566000000E+00 0.  1.
         14    1    4    4    0    0  0.22143333119E+00  0.20235669278E+00  0.38276656277E-01  0.30240048560E+00  0.00000000000E+00 0. -1.
<mgrwt>
<rscale>  0 0.83674413E+02</rscale>
<asrwt>0</asrwt>
<pdfrwt beam="1">  1        2 0.53915807E-02 0.83674413E+02</pdfrwt>
<pdfrwt beam="2">  1       -1 0.76839146E-02 0.83674413E+02</pdfrwt>
<totfact> 0.12242575E+05</totfact>
</mgrwt>
</event>
<event>
 8    1  0.1493610E-013  0.8059185E+02  0.7818608E-02  0.1327380E+00
         -1   -1    0    0    0  501 -0.00000000000E+00  0.00000000000E+00  0.40459228736E+01  0.40459260128E+01  0.50400000000E-02 0.  1.
          2   -1    0    0  501    0  0.00000000000E+00 -0.00000000000E+00 -0.40133268471E+03  0.40133268471E+03  0.25500000000E-02 0. -1.
         24    2    1    2    0    0  0.55511151231E-16  0.00000000000E+00 -0.39728676183E+03  0.40537861073E+03  0.80591853854E+02 0.  0.
         66    2    3    3    0    0  0.28435002109E+00  0.40186002354E+02 -0.21184451120E+03  0.21563184495E+03  0.19999974394E+01 0.  0.
        -13    1    3    3    0    0 -0.28435002109E+00 -0.40186002354E+02 -0.18544225063E+03  0.18974676578E+03  0.10566000000E+00 0.  1.
         13    1    4    4    0    0 -0.41122649486E+00  0.25890860961E+02 -0.13780876713E+03  0.14022044519E+03  0.10566000000E+00 0. -1.
        -13    1    4    4    0    0 -0.59539370378E-01  0.71699949118E+01 -0.37703487699E+02  0.38379376241E+02  0.10566000000E+00 0.  1.
        -14    1    4    4    0    0  0.75511588633E+00  0.71251464810E+01 -0.36332256376E+02  0.37032023517E+02  0.00000000000E+00 0.  1.
<mgrwt>
<rscale>  0 0.80591854E+02</rscale>
<asrwt>0</asrwt>
<pdfrwt beam="1">  1        2 0.61743458E-01 0.80591854E+02</pdfrwt>
<pdfrwt beam="2">  1       -1 0.62245023E-03 0.80591854E+02</pdfrwt>
<totfact> 0.27746859E+05</totfact>
</mgrwt>
</event>
<event>
 8    1  0.1493610E-013  0.8080235E+02  0.7818608E-02  0.1326790E+00
          2   -1    0    0  501    0  0.00000000000E+00  0.00000000000E+00  0.48301808871E+02  0.48301808938E+02  0.25500000000E-02 0. -1.
         -1   -1    0    0    0  501 -0.00000000000E+00 -0.00000000000E+00 -0.33792834703E+02  0.33792835078E+02  0.50400000000E-02 0.  1.
         24    2    1    2    0    0  0.71054273576E-14 -0.17763568394E-14  0.14508974169E+02  0.82094644017E+02  0.80802352966E+02 0.  0.
         66    2    3    3    0    0  0.38820289028E+02 -0.11044399763E+02  0.61200578933E+01  0.40871122981E+02  0.19999946966E+01 0.  0.
        -13    1    3    3    0    0 -0.38820289028E+02  0.11044399763E+02  0.83889162752E+01  0.41223521036E+02  0.10566000000E+00 0.  1.
         13    1    4    4    0    0  0.26779290050E+02 -0.75738404823E+01  0.45490818793E+01  0.28199268523E+02  0.10566000000E+00 0. -1.
        -13    1    4    4    0    0  0.11090564630E+02 -0.33404429564E+01  0.12073303786E+01  0.11645943227E+02  0.10566000000E+00 0.  1.
        -14    1    4    4    0    0  0.95043434699E+00 -0.13011632423E+00  0.36364563549E+00  0.10259112310E+01  0.00000000000E+00 0.  1.
<mgrwt>
<rscale>  0 0.80802353E+02</rscale>
<asrwt>0</asrwt>
<pdfrwt beam="1">  1        2 0.74310475E-02 0.80802353E+02</pdfrwt>
<pdfrwt beam="2">  1       -1 0.51988977E-02 0.80802353E+02</pdfrwt>
<totfact> 0.14430833E+05</totfact>
</mgrwt>
</event>
<event>
 8    1  0.1493610E-013  0.8107664E+02  0.7818608E-02  0.1326024E+00
         -1   -1    0    0    0  501 -0.00000000000E+00  0.00000000000E+00  0.26718714304E+01  0.26718761839E+01  0.50400000000E-02 0.  1.
          2   -1    0    0  501    0  0.00000000000E+00 -0.00000000000E+00 -0.61505727900E+03  0.61505727901E+03  0.25500000000E-02 0. -1.
         24    2    1    2    0    0 -0.35527136788E-14 -0.88817841970E-15 -0.61238540757E+03  0.61772915519E+03  0.81076641313E+02 0.  0.
         66    2    3    3    0    0  0.28352375476E+02  0.52608116624E+01 -0.52319675324E+03  0.52399463348E+03  0.19999957028E+01 0.  0.
        -13    1    3    3    0    0 -0.28352375476E+02 -0.52608116624E+01 -0.89188654330E+02  0.93734521708E+02  0.10566000000E+00 0.  1.
         13    1    4    4    0    0  0.18625325383E+02  0.34962220587E+01 -0.33155069881E+03  0.33209185982E+03  0.10566000000E+00 0. -1.
        -13    1    4    4    0    0  0.18755926871E+01  0.22346453900E-01 -0.37738149988E+02  0.37784884224E+02  0.10566000000E+00 0.  1.
        -14    1    4    4    0    0  0.78514574061E+01  0.17422431498E+01 -0.15390790444E+03  0.15411788944E+03  0.00000000000E+00 0.  1.
<mgrwt>
<rscale>  0 0.81076641E+02</rscale>
<asrwt>0</asrwt>
<pdfrwt beam="1">  1        2 0.94624084E-01 0.81076641E+02</pdfrwt>
<pdfrwt beam="2">  1       -1 0.41105800E-03 0.81076641E+02</pdfrwt>
<totfact> 0.31275694E+05</totfact>
</mgrwt>
</event>
<event>
 8    1  0.1493610E-013  0.8119507E+02  0.7818608E-02  0.1325694E+00
          2   -1    0    0  501    0  0.00000000000E+00  0.00000000000E+00  0.12253278762E+02  0.12253279027E+02  0.25500000000E-02 0. -1.
         -1   -1    0    0    0  501 -0.00000000000E+00 -0.00000000000E+00 -0.13450766773E+03  0.13450766782E+03  0.50400000000E-02 0.  1.
         24    2    1    2    0    0 -0.35527136788E-14 -0.11102230246E-15 -0.12225438896E+03  0.14676094685E+03  0.81195073118E+02 0.  0.
         66    2    3    3    0    0  0.28707064946E+02 -0.34838978832E+00 -0.93438258778E+01  0.30257627694E+02  0.19999995974E+01 0.  0.
        -13    1    3    3    0    0 -0.28707064946E+02  0.34838978832E+00 -0.11291056309E+03  0.11650331915E+03  0.10566000000E+00 0.  1.
         13    1    4    4    0    0  0.20994686557E+00  0.79143493363E-01 -0.81269721728E-01  0.26097927538E+00  0.10566000000E+00 0.  1.
        -13    1    4    4    0    0  0.11445813475E+02 -0.74124611404E+00 -0.40338346800E+01  0.12158909416E+02  0.10566000000E+00 0.  1.
         14    1    4    4    0    0  0.17051304605E+02  0.31371283235E+00 -0.52287214761E+01  0.17837739003E+02  0.00000000000E+00 0. -1.
<mgrwt>
<rscale>  0 0.81195073E+02</rscale>
<asrwt>0</asrwt>
<pdfrwt beam="1">  1        2 0.18851199E-02 0.81195073E+02</pdfrwt>
<pdfrwt beam="2">  1       -1 0.20693486E-01 0.81195073E+02</pdfrwt>
<totfact> 0.10676493E+05</totfact>
</mgrwt>
</event>
<event>
 8    1  0.1493610E-013  0.8050145E+02  0.7818608E-02  0.1327634E+00
          2   -1    0    0  501    0  0.00000000000E+00  0.00000000000E+00  0.18603996648E+02  0.18603996823E+02  0.25500000000E-02 0. -1.
         -1   -1    0    0    0  501 -0.00000000000E+00 -0.00000000000E+00 -0.87084567768E+02  0.87084567914E+02  0.50400000000E-02 0.  1.
         24    2    1    2    0    0 -0.55511151231E-16  0.00000000000E+00 -0.68480571120E+02  0.10568856474E+03  0.80501453995E+02 0.  0.
         66    2    3    3    0    0  0.35750338332E+00 -0.33922452784E+02 -0.58820750339E+01  0.34488540244E+02  0.19999974811E+01 0.  0.
        -13    1    3    3    0    0 -0.35750338332E+00  0.33922452784E+02 -0.62598496086E+02  0.71200024493E+02  0.10566000000E+00 0.  1.
         13    1    4    4    0    0 -0.43121438479E+00 -0.32352917384E+01 -0.50952124942E+00  0.33051224512E+01  0.10566000000E+00 0. -1.
        -13    1    4    4    0    0  0.40302807571E+00 -0.21655942691E+02 -0.42720336253E+01  0.22077221764E+02  0.10566000000E+00 0.  1.
         14    1    4    4    0    0  0.38568969241E+00 -0.90312183542E+01 -0.11005201591E+01  0.91061960291E+01  0.00000000000E+00 0. -1.
<mgrwt>
<rscale>  0 0.80501454E+02</rscale>
<asrwt>0</asrwt>
<pdfrwt beam="1">  1        2 0.28621534E-02 0.80501454E+02</pdfrwt>
<pdfrwt beam="2">  1       -1 0.13397626E-01 0.80501454E+02</pdfrwt>
<totfact> 0.12015008E+05</totfact>
</mgrwt>
</event>
<event>
 8    1  0.1493610E-013  0.8027419E+02  0.7818608E-02  0.1328275E+00
          2   -1    0    0  501    0  0.00000000000E+00  0.00000000000E+00  0.21166780706E+02  0.21166780859E+02  0.25500000000E-02 0. -1.
         -1   -1    0    0    0  501 -0.00000000000E+00 -0.00000000000E+00 -0.76109181747E+02  0.76109181913E+02  0.50400000000E-02 0.  1.
         24    2    1    2    0    0  0.00000000000E+00 -0.88817841970E-15 -0.54942401041E+02  0.97275962773E+02  0.80274189509E+02 0.  0.
         66    2    3    3    0    0 -0.13709286657E+02 -0.47057802897E+01  0.17835121444E+02  0.23069036871E+02  0.19999991116E+01 0.  0.
        -13    1    3    3    0    0  0.13709286657E+02  0.47057802897E+01 -0.72777522485E+02  0.74206925902E+02  0.10566000000E+00 0.  1.
         13    1    4    4    0    0 -0.82619695079E+01 -0.23868178049E+01  0.10990489446E+02  0.13955610401E+02  0.10566000000E+00 0. -1.
        -13    1    4    4    0    0 -0.19076861935E+01 -0.29980520599E+00  0.24267014539E+01  0.31030942229E+01  0.10566000000E+00 0.  1.
        -14    1    4    4    0    0 -0.35396309559E+01 -0.20191572788E+01  0.44179305443E+01  0.60103322466E+01  0.00000000000E+00 0.  1.
<mgrwt>
<rscale>  0 0.80274190E+02</rscale>
<asrwt>0</asrwt>
<pdfrwt beam="1">  1        2 0.32564278E-02 0.80274190E+02</pdfrwt>
<pdfrwt beam="2">  1       -1 0.11709105E-01 0.80274190E+02</pdfrwt>
<totfact> 0.12435904E+05</totfact>
</mgrwt>
</event>
<event>
 8    1  0.1493610E-013  0.7867782E+02  0.7818608E-02  0.1332846E+00
          2   -1    0    0  501    0  0.00000000000E+00  0.00000000000E+00  0.19145262332E+03  0.19145262334E+03  0.25500000000E-02 0. -1.
         -1   -1    0    0    0  501 -0.00000000000E+00 -0.00000000000E+00 -0.80831994687E+01  0.80832010399E+01  0.50400000000E-02 0.  1.
         24    2    1    2    0    0  0.00000000000E+00  0.88817841970E-15  0.18336942385E+03  0.19953582438E+03  0.78677821565E+02 0.  0.
         66    2    3    3    0    0 -0.16198468299E+02 -0.66779693957E+01  0.18099764136E+03  0.18185469979E+03  0.20000015188E+01 0.  0.
        -13    1    3    3    0    0  0.16198468299E+02  0.66779693957E+01  0.23717824889E+01  0.17681124588E+02  0.10566000000E+00 0.  1.
         13    1    4    4    0    0 -0.11552768439E+01 -0.63803933108E+00  0.15460035517E+02  0.15516624021E+02  0.10566000000E+00 0. -1.
        -13    1    4    4    0    0 -0.40289563703E+01 -0.22756674128E+01  0.51847380906E+02  0.52053561093E+02  0.10566000000E+00 0.  1.
         14    1    4    4    0    0 -0.11014235085E+02 -0.37642626518E+01  0.11369022494E+03  0.11428451468E+03  0.00000000000E+00 0. -1.
<mgrwt>
<rscale>  0 0.78677822E+02</rscale>
<asrwt>0</asrwt>
<pdfrwt beam="1">  1        2 0.29454250E-01 0.78677822E+02</pdfrwt>
<pdfrwt beam="2">  1       -1 0.12435693E-02 0.78677822E+02</pdfrwt>
<totfact> 0.22704612E+05</totfact>
</mgrwt>
</event>
<event>
 8    1  0.1493610E-013  0.8008219E+02  0.7818608E-02  0.1328818E+00
          2   -1    0    0  501    0  0.00000000000E+00  0.00000000000E+00  0.49672377231E+03  0.49672377232E+03  0.25500000000E-02 0. -1.
         -1   -1    0    0    0  501 -0.00000000000E+00 -0.00000000000E+00 -0.32277264363E+01  0.32277303712E+01  0.50400000000E-02 0.  1.
         24    2    1    2    0    0  0.71054273576E-14  0.00000000000E+00  0.49349604587E+03  0.49995150269E+03  0.80082193693E+02 0.  0.
         66    2    3    3    0    0 -0.32756251097E+02  0.21862255273E+02  0.29120214681E+03  0.29385986541E+03  0.20000007536E+01 0.  0.
        -13    1    3    3    0    0  0.32756251097E+02 -0.21862255273E+02  0.20229389906E+03  0.20609163727E+03  0.10566000000E+00 0.  1.
         13    1    4    4    0    0 -0.88961707527E+01  0.58716766161E+01  0.78965941626E+02  0.79682178316E+02  0.10566000000E+00 0. -1.
        -13    1    4    4    0    0 -0.15549471043E+02  0.10048884705E+02  0.14224256120E+03  0.14344240487E+03  0.10566000000E+00 0.  1.
        -14    1    4    4    0    0 -0.83106093022E+01  0.59416939521E+01  0.69993643980E+02  0.70735282226E+02  0.00000000000E+00 0.  1.
<mgrwt>
<rscale>  0 0.80082194E+02</rscale>
<asrwt>0</asrwt>
<pdfrwt beam="1">  1        2 0.76418991E-01 0.80082194E+02</pdfrwt>
<pdfrwt beam="2">  1       -1 0.49657394E-03 0.80082194E+02</pdfrwt>
<totfact> 0.30306266E+05</totfact>
</mgrwt>
</event>
<event>
 8    1  0.1493610E-013  0.7933771E+02  0.7818608E-02  0.1330941E+00
         -1   -1    0    0    0  501 -0.00000000000E+00  0.00000000000E+00  0.32924971443E+01  0.32925010018E+01  0.50400000000E-02 0.  1.
          2   -1    0    0  501    0  0.00000000000E+00 -0.00000000000E+00 -0.47794031585E+03  0.47794031585E+03  0.25500000000E-02 0. -1.
         24    2    1    2    0    0  0.00000000000E+00  0.00000000000E+00 -0.47464781870E+03  0.48123281685E+03  0.79337709946E+02 0.  0.
         66    2    3    3    0    0 -0.20945123459E+02 -0.21109439372E+02 -0.39649395378E+03  0.39761257771E+03  0.19999867548E+01 0.  0.
        -13    1    3    3    0    0  0.20945123459E+02  0.21109439372E+02 -0.78153864925E+02  0.83620239142E+02  0.10566000000E+00 0.  1.
         13    1    4    4    0    0 -0.14259460773E+02 -0.14805539684E+02 -0.28068433876E+03  0.28143604143E+03  0.10566000000E+00 0. -1.
        -13    1    4    4    0    0 -0.93177056032E+00 -0.10127708228E+01 -0.20930284626E+02  0.20975745033E+02  0.10566000000E+00 0.  1.
        -14    1    4    4    0    0 -0.57538921254E+01 -0.52911288650E+01 -0.94879330387E+02  0.95200791247E+02  0.00000000000E+00 0.  1.
<mgrwt>
<rscale>  0 0.79337710E+02</rscale>
<asrwt>0</asrwt>
<pdfrwt beam="1">  1        2 0.73529225E-01 0.79337710E+02</pdfrwt>
<pdfrwt beam="2">  1       -1 0.50653870E-03 0.79337710E+02</pdfrwt>
<totfact> 0.30668575E+05</totfact>
</mgrwt>
</event>
<event>
 8    1  0.1493610E-013  0.7813409E+02  0.7818608E-02  0.1334432E+00
          2   -1    0    0  501    0  0.00000000000E+00  0.00000000000E+00  0.85061216899E+03  0.85061216900E+03  0.25500000000E-02 0. -1.
         -1   -1    0    0    0  501 -0.00000000000E+00 -0.00000000000E+00 -0.17942735012E+01  0.17942805797E+01  0.50400000000E-02 0.  1.
         24    2    1    2    0    0  0.00000000000E+00  0.00000000000E+00  0.84881789549E+03  0.85240644958E+03  0.78134087137E+02 0.  0.
         66    2    3    3    0    0 -0.23015716846E+02 -0.16234502333E+01  0.76827077240E+03  0.76861976200E+03  0.20000002155E+01 0.  0.
        -13    1    3    3    0    0  0.23015716846E+02  0.16234502333E+01  0.80547123093E+02  0.83786687578E+02  0.10566000000E+00 0.  1.
         13    1    4    4    0    0 -0.56691682119E+01 -0.83980074647E+00  0.19296798536E+03  0.19305309961E+03  0.10566000000E+00 0. -1.
        -13    1    4    4    0    0 -0.15807416442E+01 -0.40451489512E+00  0.62896916800E+02  0.62918166561E+02  0.10566000000E+00 0.  1.
         14    1    4    4    0    0 -0.15765806990E+02 -0.37913459172E+00  0.51240587024E+03  0.51264849583E+03  0.00000000000E+00 0. -1.
<mgrwt>
<rscale>  0 0.78134087E+02</rscale>
<asrwt>0</asrwt>
<pdfrwt beam="1">  1        2 0.13086404E+00 0.78134087E+02</pdfrwt>
<pdfrwt beam="2">  1       -1 0.27604129E-03 0.78134087E+02</pdfrwt>
<totfact> 0.36889407E+05</totfact>
</mgrwt>
</event>
<event>
 8    1  0.1493610E-013  0.8038204E+02  0.7818608E-02  0.1327971E+00
         -1   -1    0    0    0  501 -0.00000000000E+00  0.00000000000E+00  0.23160294666E+01  0.23160349505E+01  0.50400000000E-02 0.  1.
          2   -1    0    0  501    0  0.00000000000E+00 -0.00000000000E+00 -0.69745058836E+03  0.69745058836E+03  0.25500000000E-02 0. -1.
         24    2    1    2    0    0  0.00000000000E+00  0.35527136788E-14 -0.69513455889E+03  0.69976662331E+03  0.80382038652E+02 0.  0.
         66    2    3    3    0    0 -0.17435859334E+02 -0.30650280984E+02 -0.51520492898E+03  0.51641414365E+03  0.19999999705E+01 0.  0.
        -13    1    3    3    0    0  0.17435859334E+02  0.30650280984E+02 -0.17992962991E+03  0.18335247967E+03  0.10566000000E+00 0.  1.
         13    1    4    4    0    0 -0.92565372055E+01 -0.16327007309E+02 -0.28818212473E+03  0.28879266408E+03  0.10566000000E+00 0. -1.
        -13    1    4    4    0    0 -0.69041289068E+01 -0.12210641498E+02 -0.19447647844E+03  0.19498173913E+03  0.10566000000E+00 0.  1.
         14    1    4    4    0    0 -0.12751932213E+01 -0.21126321770E+01 -0.32546325810E+02  0.32639740444E+02  0.00000000000E+00 0. -1.
<mgrwt>
<rscale>  0 0.80382039E+02</rscale>
<asrwt>0</asrwt>
<pdfrwt beam="1">  1        2 0.10729992E+00 0.80382039E+02</pdfrwt>
<pdfrwt beam="2">  1       -1 0.35631320E-03 0.80382039E+02</pdfrwt>
<totfact> 0.33012208E+05</totfact>
</mgrwt>
</event>
<event>
 8    1  0.1493610E-013  0.7935270E+02  0.7818608E-02  0.1330898E+00
          2   -1    0    0  501    0  0.00000000000E+00  0.00000000000E+00  0.11239846064E+04  0.11239846064E+04  0.25500000000E-02 0. -1.
         -1   -1    0    0    0  501 -0.00000000000E+00 -0.00000000000E+00 -0.14005597650E+01  0.14005688333E+01  0.50400000000E-02 0.  1.
         24    2    1    2    0    0 -0.17763568394E-14  0.17763568394E-14  0.11225840466E+04  0.11253851752E+04  0.79352699273E+02 0.  0.
         66    2    3    3    0    0 -0.94337751059E+01  0.14167679682E+02  0.10695335651E+04  0.10696708682E+04  0.20000000421E+01 0.  0.
        -13    1    3    3    0    0  0.94337751059E+01 -0.14167679682E+02  0.53050481471E+02  0.55714307038E+02  0.10566000000E+00 0.  1.
         13    1    4    4    0    0 -0.20060022870E+01  0.30751179819E+01  0.26527486339E+03  0.26530029157E+03  0.10566000000E+00 0.  1.
        -13    1    4    4    0    0 -0.62024557654E+01  0.97672673167E+01  0.67286883866E+03  0.67296831662E+03  0.10566000000E+00 0. -1.
         14    1    4    4    0    0 -0.12253170535E+01  0.13252943839E+01  0.13138986308E+03  0.13140225997E+03  0.00000000000E+00 0. -1.
<mgrwt>
<rscale>  0 0.79352699E+02</rscale>
<asrwt>0</asrwt>
<pdfrwt beam="1">  1        2 0.17292103E+00 0.79352699E+02</pdfrwt>
<pdfrwt beam="2">  1       -1 0.21547103E-03 0.79352699E+02</pdfrwt>
<totfact> 0.35971380E+05</totfact>
</mgrwt>
</event>
<event>
 8    1  0.1493610E-013  0.8577791E+02  0.7818608E-02  0.1313411E+00
         -1   -1    0    0    0  501 -0.00000000000E+00  0.00000000000E+00  0.21624115643E+01  0.21624174377E+01  0.50400000000E-02 0.  1.
          2   -1    0    0  501    0  0.00000000000E+00 -0.00000000000E+00 -0.85065220131E+03  0.85065220132E+03  0.25500000000E-02 0. -1.
         24    2    1    2    0    0  0.00000000000E+00  0.35527136788E-14 -0.84848978975E+03  0.85281461876E+03  0.85777914720E+02 0.  0.
         66    2    3    3    0    0 -0.83862593185E+01  0.31474182260E+02 -0.70152034606E+03  0.70227896837E+03  0.19999963472E+01 0.  0.
        -13    1    3    3    0    0  0.83862593185E+01 -0.31474182260E+02 -0.14696944369E+03  0.15053565039E+03  0.10566000000E+00 0.  1.
         13    1    4    4    0    0 -0.60205153944E+01  0.21509436735E+02 -0.47997645346E+03  0.48049589958E+03  0.10566000000E+00 0. -1.
        -13    1    4    4    0    0 -0.86944093833E+00  0.40932721823E+01 -0.79759230732E+02  0.79868998089E+02  0.10566000000E+00 0.  1.
         14    1    4    4    0    0 -0.14963029858E+01  0.58714733433E+01 -0.14178466186E+03  0.14191407070E+03  0.00000000000E+00 0. -1.
<mgrwt>
<rscale>  0 0.85777915E+02</rscale>
<asrwt>0</asrwt>
<pdfrwt beam="1">  1        2 0.13086930E+00 0.85777915E+02</pdfrwt>
<pdfrwt beam="2">  1       -1 0.33267983E-03 0.85777915E+02</pdfrwt>
<totfact> 0.28932628E+05</totfact>
</mgrwt>
</event>
<event>
 8    1  0.1493610E-013  0.8027450E+02  0.7818608E-02  0.1328274E+00
         -1   -1    0    0    0  501 -0.00000000000E+00  0.00000000000E+00  0.13060545716E+02  0.13060546688E+02  0.50400000000E-02 0.  1.
          2   -1    0    0  501    0  0.00000000000E+00 -0.00000000000E+00 -0.12334850650E+03  0.12334850652E+03  0.25500000000E-02 0. -1.
         24    2    1    2    0    0  0.00000000000E+00  0.00000000000E+00 -0.11028796078E+03  0.13640905321E+03  0.80274500962E+02 0.  0.
         66    2    3    3    0    0  0.21573387625E+02 -0.20055350974E+02 -0.10144623340E+03  0.10565494026E+03  0.19999935222E+01 0.  0.
        -13    1    3    3    0    0 -0.21573387625E+02  0.20055350974E+02 -0.88417273813E+01  0.30754112951E+02  0.10566000000E+00 0.  1.
         13    1    4    4    0    0  0.32339310935E+01 -0.38795260308E+01 -0.16966009560E+02  0.17702137639E+02  0.10566000000E+00 0. -1.
        -13    1    4    4    0    0  0.85757940069E+01 -0.72920670871E+01 -0.37497258437E+02  0.39150658226E+02  0.10566000000E+00 0.  1.
        -14    1    4    4    0    0  0.97636625246E+01 -0.88837578556E+01 -0.46982965401E+02  0.48802144394E+02  0.00000000000E+00 0.  1.
<mgrwt>
<rscale>  0 0.80274501E+02</rscale>
<asrwt>0</asrwt>
<pdfrwt beam="1">  1        2 0.18976693E-01 0.80274501E+02</pdfrwt>
<pdfrwt beam="2">  1       -1 0.20093149E-02 0.80274501E+02</pdfrwt>
<totfact> 0.18670688E+05</totfact>
</mgrwt>
</event>
<event>
 8    1  0.1493610E-013  0.8307631E+02  0.7818608E-02  0.1320541E+00
          2   -1    0    0  501    0  0.00000000000E+00  0.00000000000E+00  0.23691095804E+03  0.23691095805E+03  0.25500000000E-02 0. -1.
         -1   -1    0    0    0  501 -0.00000000000E+00 -0.00000000000E+00 -0.72829819544E+01  0.72829836983E+01  0.50400000000E-02 0.  1.
         24    2    1    2    0    0 -0.88817841970E-15  0.00000000000E+00  0.22962797609E+03  0.24419394175E+03  0.83076313033E+02 0.  0.
         66    2    3    3    0    0 -0.48234227251E+01 -0.17305849351E+02  0.22488811323E+03  0.22561343335E+03  0.20000016044E+01 0.  0.
        -13    1    3    3    0    0  0.48234227251E+01  0.17305849351E+02  0.47398628528E+01  0.18580508401E+02  0.10566000000E+00 0.  1.
         13    1    4    4    0    0 -0.31961726485E+01 -0.11991034447E+02  0.15125947984E+03  0.15176772329E+03  0.10566000000E+00 0. -1.
        -13    1    4    4    0    0 -0.26657133622E+00 -0.18142678468E+00  0.54535143488E+01  0.54640606460E+01  0.10566000000E+00 0.  1.
         14    1    4    4    0    0 -0.13606787403E+01 -0.51333881193E+01  0.68175119047E+02  0.68381649419E+02  0.00000000000E+00 0. -1.
<mgrwt>
<rscale>  0 0.83076313E+02</rscale>
<asrwt>0</asrwt>
<pdfrwt beam="1">  1        2 0.36447843E-01 0.83076313E+02</pdfrwt>
<pdfrwt beam="2">  1       -1 0.11204588E-02 0.83076313E+02</pdfrwt>
<totfact> 0.21197162E+05</totfact>
</mgrwt>
</event>
<event>
 8    1  0.1493610E-013  0.7002519E+02  0.7818608E-02  0.1360007E+00
          2   -1    0    0  501    0  0.00000000000E+00  0.00000000000E+00  0.26033258145E+03  0.26033258147E+03  0.25500000000E-02 0. -1.
         -1   -1    0    0    0  501 -0.00000000000E+00 -0.00000000000E+00 -0.47089054084E+01  0.47089081056E+01  0.50400000000E-02 0.  1.
         24    2    1    2    0    0  0.00000000000E+00  0.00000000000E+00  0.25562367605E+03  0.26504148957E+03  0.70025191464E+02 0.  0.
         66    2    3    3    0    0  0.31430370079E+02  0.39057688622E+01  0.18415172036E+03  0.18686620699E+03  0.20000020996E+01 0.  0.
        -13    1    3    3    0    0 -0.31430370079E+02 -0.39057688622E+01  0.71471955687E+02  0.78175282586E+02  0.10566000000E+00 0.  1.
         13    1    4    4    0    0  0.14626130216E+02  0.17678591960E+01  0.85526805692E+02  0.86786488967E+02  0.10566000000E+00 0. -1.
        -13    1    4    4    0    0  0.88881114789E+01  0.83327633988E+00  0.55819304064E+02  0.56528742648E+02  0.10566000000E+00 0.  1.
        -14    1    4    4    0    0  0.79161283847E+01  0.13046333263E+01  0.42805610604E+02  0.43550975372E+02  0.00000000000E+00 0.  1.
<mgrwt>
<rscale>  0 0.70025191E+02</rscale>
<asrwt>0</asrwt>
<pdfrwt beam="1">  1        2 0.40051184E-01 0.70025191E+02</pdfrwt>
<pdfrwt beam="2">  1       -1 0.72444688E-03 0.70025191E+02</pdfrwt>
<totfact> 0.34272861E+05</totfact>
</mgrwt>
</event>
<event>
 8    1  0.1493610E-013  0.7821246E+02  0.7818608E-02  0.1334202E+00
         -1   -1    0    0    0  501 -0.00000000000E+00  0.00000000000E+00  0.51034972976E+01  0.51034997862E+01  0.50400000000E-02 0.  1.
          2   -1    0    0  501    0  0.00000000000E+00 -0.00000000000E+00 -0.29965661712E+03  0.29965661713E+03  0.25500000000E-02 0. -1.
         24    2    1    2    0    0  0.22204460493E-15 -0.71054273576E-14 -0.29455311982E+03  0.30476011692E+03  0.78212457232E+02 0.  0.
         66    2    3    3    0    0 -0.14848698092E+01  0.38658366122E+02 -0.16893371849E+03  0.17331842162E+03  0.19999793811E+01 0.  0.
        -13    1    3    3    0    0  0.14848698092E+01 -0.38658366122E+02 -0.12561940133E+03  0.13144169530E+03  0.10566000000E+00 0.  1.
         13    1    4    4    0    0 -0.23632899405E+00  0.11453384351E+02 -0.46772768947E+02  0.48155362562E+02  0.10566000000E+00 0. -1.
        -13    1    4    4    0    0  0.27926210927E-01  0.57700202368E+00 -0.29120347753E+01  0.29706601584E+01  0.10566000000E+00 0. -1.
         14    1    4    4    0    0 -0.12764670261E+01  0.26627979748E+02 -0.11924891477E+03  0.12219239890E+03  0.00000000000E+00 0. -1.
<mgrwt>
<rscale>  0 0.78212457E+02</rscale>
<asrwt>0</asrwt>
<pdfrwt beam="1">  1        2 0.46101004E-01 0.78212457E+02</pdfrwt>
<pdfrwt beam="2">  1       -1 0.78515386E-03 0.78212457E+02</pdfrwt>
<totfact> 0.27037596E+05</totfact>
</mgrwt>
</event>
<event>
 8    1  0.1493610E-013  0.8245228E+02  0.7818608E-02  0.1322233E+00
         -1   -1    0    0    0  501 -0.00000000000E+00  0.00000000000E+00  0.16331180886E+01  0.16331258656E+01  0.50400000000E-02 0.  1.
          2   -1    0    0  501    0  0.00000000000E+00 -0.00000000000E+00 -0.10407028904E+04  0.10407028904E+04  0.25500000000E-02 0. -1.
         24    2    1    2    0    0  0.00000000000E+00  0.00000000000E+00 -0.10390697724E+04  0.10423360163E+04  0.82452283656E+02 0.  0.
         66    2    3    3    0    0  0.52770509429E+01  0.22403010281E+02 -0.95185404082E+03  0.95213436928E+03  0.20000002836E+01 0.  0.
        -13    1    3    3    0    0 -0.52770509429E+01 -0.22403010281E+02 -0.87215731538E+02  0.90201647036E+02  0.10566000000E+00 0.  1.
         13    1    4    4    0    0  0.29523119672E+01  0.11768514224E+02 -0.49706359225E+03  0.49721166516E+03  0.10566000000E+00 0. -1.
        -13    1    4    4    0    0  0.12149897987E+01  0.44868648245E+01 -0.22026739700E+03  0.22031646671E+03  0.10566000000E+00 0.  1.
         14    1    4    4    0    0  0.11097491770E+01  0.61476312320E+01 -0.23452305157E+03  0.23460623741E+03  0.00000000000E+00 0. -1.
<mgrwt>
<rscale>  0 0.82452284E+02</rscale>
<asrwt>0</asrwt>
<pdfrwt beam="1">  1        2 0.16010761E+00 0.82452284E+02</pdfrwt>
<pdfrwt beam="2">  1       -1 0.25125037E-03 0.82452284E+02</pdfrwt>
<totfact> 0.32606745E+05</totfact>
</mgrwt>
</event>
<event>
 8    1  0.1493610E-013  0.7957652E+02  0.7818608E-02  0.1330258E+00
         -1   -1    0    0    0  501 -0.00000000000E+00  0.00000000000E+00  0.86167670684E+01  0.86167685424E+01  0.50400000000E-02 0.  1.
          2   -1    0    0  501    0  0.00000000000E+00 -0.00000000000E+00 -0.18372381584E+03  0.18372381586E+03  0.25500000000E-02 0. -1.
         24    2    1    2    0    0  0.00000000000E+00  0.00000000000E+00 -0.17510704877E+03  0.19234058440E+03  0.79576515869E+02 0.  0.
         66    2    3    3    0    0 -0.12139509873E+02  0.35360830300E+02 -0.12033671142E+03  0.12602650567E+03  0.19999995052E+01 0.  0.
        -13    1    3    3    0    0  0.12139509873E+02 -0.35360830300E+02 -0.54770337353E+02  0.66314078726E+02  0.10566000000E+00 0.  1.
         13    1    4    4    0    0 -0.42298262918E+01  0.13875944672E+02 -0.44753888775E+02  0.47046306928E+02  0.10566000000E+00 0. -1.
        -13    1    4    4    0    0 -0.62788509849E+01  0.17591696643E+02 -0.62740271944E+02  0.65461780056E+02  0.10566000000E+00 0.  1.
        -14    1    4    4    0    0 -0.16308325964E+01  0.38931889846E+01 -0.12842550698E+02  0.13518418690E+02  0.00000000000E+00 0.  1.
<mgrwt>
<rscale>  0 0.79576516E+02</rscale>
<asrwt>0</asrwt>
<pdfrwt beam="1">  1        2 0.28265199E-01 0.79576516E+02</pdfrwt>
<pdfrwt beam="2">  1       -1 0.13256567E-02 0.79576516E+02</pdfrwt>
<totfact> 0.21725741E+05</totfact>
</mgrwt>
</event>
<event>
 8    1  0.1493610E-013  0.7785103E+02  0.7818608E-02  0.1335263E+00
          2   -1    0    0  501    0  0.00000000000E+00  0.00000000000E+00  0.38728788537E+03  0.38728788538E+03  0.25500000000E-02 0. -1.
         -1   -1    0    0    0  501 -0.00000000000E+00 -0.00000000000E+00 -0.39123222471E+01  0.39123254935E+01  0.50400000000E-02 0.  1.
         24    2    1    2    0    0  0.00000000000E+00  0.00000000000E+00  0.38337556312E+03  0.39120021087E+03  0.77851028165E+02 0.  0.
         66    2    3    3    0    0  0.19805083270E+02 -0.55959334669E+01  0.35768676142E+03  0.35828393083E+03  0.20000006497E+01 0.  0.
        -13    1    3    3    0    0 -0.19805083270E+02  0.55959334669E+01  0.25688801703E+02  0.32916280040E+02  0.10566000000E+00 0.  1.
         13    1    4    4    0    0  0.66035983647E+01 -0.17358618010E+01  0.12256656413E+03  0.12275664762E+03  0.10566000000E+00 0. -1.
        -13    1    4    4    0    0  0.62287456262E+01 -0.18098600027E+01  0.12410425073E+03  0.12427368619E+03  0.10566000000E+00 0.  1.
         14    1    4    4    0    0  0.69727392791E+01 -0.20502116632E+01  0.11101594655E+03  0.11125359702E+03  0.00000000000E+00 0. -1.
<mgrwt>
<rscale>  0 0.77851028E+02</rscale>
<asrwt>0</asrwt>
<pdfrwt beam="1">  1        2 0.59582735E-01 0.77851028E+02</pdfrwt>
<pdfrwt beam="2">  1       -1 0.60189615E-03 0.77851028E+02</pdfrwt>
<totfact> 0.29992419E+05</totfact>
</mgrwt>
</event>
<event>
 8    1  0.1493610E-013  0.7969422E+02  0.7818608E-02  0.1329921E+00
         -1   -1    0    0    0  501 -0.00000000000E+00  0.00000000000E+00  0.16768419802E+01  0.16768495545E+01  0.50400000000E-02 0.  1.
          2   -1    0    0  501    0  0.00000000000E+00 -0.00000000000E+00 -0.94689218379E+03  0.94689218379E+03  0.25500000000E-02 0. -1.
         24    2    1    2    0    0  0.00000000000E+00  0.88817841970E-15 -0.94521534181E+03  0.94856903335E+03  0.79694219577E+02 0.  0.
         66    2    3    3    0    0  0.28681522125E+02  0.64216445020E+01 -0.79271052200E+03  0.79325773802E+03  0.19999993830E+01 0.  0.
        -13    1    3    3    0    0 -0.28681522125E+02 -0.64216445020E+01 -0.15250481980E+03  0.15531129533E+03  0.10566000000E+00 0.  1.
         13    1    4    4    0    0  0.16896315509E+02  0.30225225984E+01 -0.45843356855E+03  0.45875480276E+03  0.10566000000E+00 0. -1.
        -13    1    4    4    0    0  0.18703396888E+01  0.30631543192E+00 -0.56541190887E+02  0.56573045089E+02  0.10566000000E+00 0.  1.
         14    1    4    4    0    0  0.99148669270E+01  0.30928064717E+01 -0.27773576257E+03  0.27792989016E+03  0.00000000000E+00 0. -1.
<mgrwt>
<rscale>  0 0.79694220E+02</rscale>
<asrwt>0</asrwt>
<pdfrwt beam="1">  1        2 0.14567529E+00 0.79694220E+02</pdfrwt>
<pdfrwt beam="2">  1       -1 0.25797703E-03 0.79694220E+02</pdfrwt>
<totfact> 0.35465701E+05</totfact>
</mgrwt>
</event>
<event>
 8    1  0.1493610E-013  0.7815882E+02  0.7818608E-02  0.1334359E+00
          2   -1    0    0  501    0  0.00000000000E+00  0.00000000000E+00  0.61111928385E+03  0.61111928385E+03  0.25500000000E-02 0. -1.
         -1   -1    0    0    0  501 -0.00000000000E+00 -0.00000000000E+00 -0.24990193089E+01  0.24990243912E+01  0.50400000000E-02 0.  1.
         24    2    1    2    0    0  0.00000000000E+00  0.00000000000E+00  0.60862026454E+03  0.61361830824E+03  0.78158824231E+02 0.  0.
         66    2    3    3    0    0  0.30762481599E+02 -0.11181599868E+02  0.47176043384E+03  0.47289878980E+03  0.20000006118E+01 0.  0.
        -13    1    3    3    0    0 -0.30762481599E+02  0.11181599868E+02  0.13685983070E+03  0.14071951845E+03  0.10566000000E+00 0.  1.
         13    1    4    4    0    0  0.18704426153E+02 -0.67089449625E+01  0.29197746004E+03  0.29265288968E+03  0.10566000000E+00 0. -1.
        -13    1    4    4    0    0  0.14980004060E+01 -0.74399150420E+00  0.19282895622E+02  0.19355587208E+02  0.10566000000E+00 0.  1.
         14    1    4    4    0    0  0.10560055041E+02 -0.37286634018E+01  0.16050007818E+03  0.16089031291E+03  0.00000000000E+00 0. -1.
<mgrwt>
<rscale>  0 0.78158824E+02</rscale>
<asrwt>0</asrwt>
<pdfrwt beam="1">  1        2 0.94018451E-01 0.78158824E+02</pdfrwt>
<pdfrwt beam="2">  1       -1 0.38446450E-03 0.78158824E+02</pdfrwt>
<totfact> 0.34343271E+05</totfact>
</mgrwt>
</event>
<event>
 8    1  0.1493610E-013  0.7799045E+02  0.7818608E-02  0.1334853E+00
         -1   -1    0    0    0  501 -0.00000000000E+00  0.00000000000E+00  0.70904237883E+01  0.70904255796E+01  0.50400000000E-02 0.  1.
          2   -1    0    0  501    0  0.00000000000E+00 -0.00000000000E+00 -0.21446213103E+03  0.21446213105E+03  0.25500000000E-02 0. -1.
         24    2    1    2    0    0  0.00000000000E+00  0.55511151231E-16 -0.20737170724E+03  0.22155255663E+03  0.77990450586E+02 0.  0.
         66    2    3    3    0    0  0.35506999580E+02 -0.32938157508E+00 -0.58144999526E+02  0.68159346308E+02  0.20000019735E+01 0.  0.
        -13    1    3    3    0    0 -0.35506999580E+02  0.32938157508E+00 -0.14922670772E+03  0.15339321032E+03  0.10566000000E+00 0.  1.
         13    1    4    4    0    0  0.10758415388E+02 -0.64954602644E+00 -0.17937957654E+02  0.20927180902E+02  0.10566000000E+00 0. -1.
        -13    1    4    4    0    0  0.19157721183E+02 -0.19361293764E+00 -0.31676492483E+02  0.37019820461E+02  0.10566000000E+00 0.  1.
        -14    1    4    4    0    0  0.55908630092E+01  0.51377738900E+00 -0.85305493886E+01  0.10212344944E+02  0.00000000000E+00 0.  1.
<mgrwt>
<rscale>  0 0.77990451E+02</rscale>
<asrwt>0</asrwt>
<pdfrwt beam="1">  1        2 0.32994169E-01 0.77990451E+02</pdfrwt>
<pdfrwt beam="2">  1       -1 0.10908347E-02 0.77990451E+02</pdfrwt>
<totfact> 0.24168701E+05</totfact>
</mgrwt>
</event>
<event>
 8    1  0.1493610E-013  0.7880596E+02  0.7818608E-02  0.1332475E+00
         -1   -1    0    0    0  501 -0.00000000000E+00  0.00000000000E+00  0.63497549918E+01  0.63497569920E+01  0.50400000000E-02 0.  1.
          2   -1    0    0  501    0  0.00000000000E+00 -0.00000000000E+00 -0.24451249504E+03  0.24451249505E+03  0.25500000000E-02 0. -1.
         24    2    1    2    0    0  0.00000000000E+00  0.00000000000E+00 -0.23816274005E+03  0.25086225205E+03  0.78805956336E+02 0.  0.
         66    2    3    3    0    0  0.32063741363E+02 -0.11076073262E+02 -0.18280988211E+03  0.18594143139E+03  0.19999999182E+01 0.  0.
        -13    1    3    3    0    0 -0.32063741363E+02  0.11076073262E+02 -0.55352857936E+02  0.64920820658E+02  0.10566000000E+00 0.  1.
         13    1    4    4    0    0  0.11458524605E+02 -0.42934044058E+01 -0.67622337213E+02  0.68720613805E+02  0.10566000000E+00 0. -1.
        -13    1    4    4    0    0  0.85615427347E+01 -0.31641347679E+01 -0.51735541722E+02  0.52534647654E+02  0.10566000000E+00 0.  1.
         14    1    4    4    0    0  0.12043674023E+02 -0.36185340885E+01 -0.63452003178E+02  0.64686169930E+02  0.00000000000E+00 0. -1.
<mgrwt>
<rscale>  0 0.78805956E+02</rscale>
<asrwt>0</asrwt>
<pdfrwt beam="1">  1        2 0.37617300E-01 0.78805956E+02</pdfrwt>
<pdfrwt beam="2">  1       -1 0.97688573E-03 0.78805956E+02</pdfrwt>
<totfact> 0.24634071E+05</totfact>
</mgrwt>
</event>
<event>
 8    1  0.1493610E-013  0.7968213E+02  0.7818608E-02  0.1329956E+00
         -1   -1    0    0    0  501 -0.00000000000E+00  0.00000000000E+00  0.42098639086E+02  0.42098639387E+02  0.50400000000E-02 0.  1.
          2   -1    0    0  501    0  0.00000000000E+00 -0.00000000000E+00 -0.37704553661E+02  0.37704553747E+02  0.25500000000E-02 0. -1.
         24    2    1    2    0    0 -0.35527136788E-14  0.00000000000E+00  0.43940854249E+01  0.79803193134E+02  0.79682128785E+02 0.  0.
         66    2    3    3    0    0 -0.16051267100E+02 -0.35190148446E+02 -0.72666365571E+01  0.39405503542E+02  0.19999948458E+01 0.  0.
        -13    1    3    3    0    0  0.16051267100E+02  0.35190148446E+02  0.11660721982E+02  0.40397689592E+02  0.10566000000E+00 0.  1.
         13    1    4    4    0    0 -0.56535409538E+00 -0.18049114165E+01 -0.34298706815E+00  0.19251323692E+01  0.10566000000E+00 0. -1.
        -13    1    4    4    0    0 -0.13550159339E+00 -0.28378757891E+00  0.40341895499E-01  0.33419691184E+00  0.10566000000E+00 0.  1.
         14    1    4    4    0    0 -0.15350411412E+02 -0.33101449451E+02 -0.69639913845E+01  0.37146174261E+02  0.00000000000E+00 0. -1.
<mgrwt>
<rscale>  0 0.79682129E+02</rscale>
<asrwt>0</asrwt>
<pdfrwt beam="1">  1        2 0.58007006E-02 0.79682129E+02</pdfrwt>
<pdfrwt beam="2">  1       -1 0.64767137E-02 0.79682129E+02</pdfrwt>
<totfact> 0.14240338E+05</totfact>
</mgrwt>
</event>
<event>
 8    1  0.1493610E-013  0.8353079E+02  0.7818608E-02  0.1319320E+00
         -1   -1    0    0    0  501 -0.00000000000E+00  0.00000000000E+00  0.28993271204E+02  0.28993271643E+02  0.50400000000E-02 0.  1.
          2   -1    0    0  501    0  0.00000000000E+00 -0.00000000000E+00 -0.60163894209E+02  0.60163894263E+02  0.25500000000E-02 0. -1.
         24    2    1    2    0    0  0.00000000000E+00  0.35527136788E-14 -0.31170623005E+02  0.89157165906E+02  0.83530787700E+02 0.  0.
         66    2    3    3    0    0  0.21473818545E+01 -0.21157305843E+02 -0.53931511224E+02  0.58007333869E+02  0.20000100639E+01 0.  0.
        -13    1    3    3    0    0 -0.21473818545E+01  0.21157305843E+02  0.22760888220E+02  0.31149832037E+02  0.10566000000E+00 0.  1.
         13    1    4    4    0    0  0.10732104441E+01 -0.11336182191E+02 -0.29831750271E+02  0.31931258910E+02  0.10566000000E+00 0. -1.
        -13    1    4    4    0    0 -0.14273645900E+00 -0.26973561925E+01 -0.74603310174E+01  0.79349736642E+01  0.10566000000E+00 0.  1.
        -14    1    4    4    0    0  0.12169078693E+01 -0.71237674595E+01 -0.16639429936E+02  0.18141101294E+02  0.00000000000E+00 0.  1.
<mgrwt>
<rscale>  0 0.83530788E+02</rscale>
<asrwt>0</asrwt>
<pdfrwt beam="1">  1        2 0.92559837E-02 0.83530788E+02</pdfrwt>
<pdfrwt beam="2">  1       -1 0.44605033E-02 0.83530788E+02</pdfrwt>
<totfact> 0.13844412E+05</totfact>
</mgrwt>
</event>
<event>
 8    1  0.1493610E-013  0.8025673E+02  0.7818608E-02  0.1328324E+00
          2   -1    0    0  501    0  0.00000000000E+00  0.00000000000E+00  0.13073246634E+04  0.13073246634E+04  0.25500000000E-02 0. -1.
         -1   -1    0    0    0  501 -0.00000000000E+00 -0.00000000000E+00 -0.12317359518E+01  0.12317462630E+01  0.50400000000E-02 0.  1.
         24    2    1    2    0    0  0.00000000000E+00  0.17763568394E-14  0.13060929274E+04  0.13085564096E+04  0.80256726486E+02 0.  0.
         66    2    3    3    0    0 -0.44808732177E+01 -0.15833819766E+02  0.12497397237E+04  0.12498496570E+04  0.20000004851E+01 0.  0.
        -13    1    3    3    0    0  0.44808732177E+01  0.15833819766E+02  0.56353203700E+02  0.58706752631E+02  0.10566000000E+00 0.  1.
         13    1    4    4    0    0 -0.79163333096E+00 -0.29490737516E+01  0.23416789253E+03  0.23418782371E+03  0.10566000000E+00 0. -1.
        -13    1    4    4    0    0 -0.28062560369E+01 -0.10616766416E+02  0.77732300243E+03  0.77740057375E+03  0.10566000000E+00 0.  1.
        -14    1    4    4    0    0 -0.88298384986E+00 -0.22679795987E+01  0.23824882876E+03  0.23826125954E+03  0.00000000000E+00 0.  1.
<mgrwt>
<rscale>  0 0.80256726E+02</rscale>
<asrwt>0</asrwt>
<pdfrwt beam="1">  1        2 0.20112710E+00 0.80256726E+02</pdfrwt>
<pdfrwt beam="2">  1       -1 0.18949842E-03 0.80256726E+02</pdfrwt>
<totfact> 0.34292096E+05</totfact>
</mgrwt>
</event>
<event>
 8    1  0.1493610E-013  0.7622152E+02  0.7818608E-02  0.1340130E+00
         -1   -1    0    0    0  501 -0.00000000000E+00  0.00000000000E+00  0.13626700695E+02  0.13626701627E+02  0.50400000000E-02 0.  1.
          2   -1    0    0  501    0  0.00000000000E+00 -0.00000000000E+00 -0.10658706939E+03  0.10658706943E+03  0.25500000000E-02 0. -1.
         24    2    1    2    0    0  0.00000000000E+00 -0.35527136788E-14 -0.92960368699E+02  0.12021377105E+03  0.76221523219E+02 0.  0.
         66    2    3    3    0    0 -0.16819511908E+02  0.19535416574E+02 -0.90726049629E+02  0.94338457966E+02  0.20000221656E+01 0.  0.
        -13    1    3    3    0    0  0.16819511908E+02 -0.19535416574E+02 -0.22343190707E+01  0.25875313086E+02  0.10566000000E+00 0.  1.
         13    1    4    4    0    0 -0.79913269823E+01  0.96980232732E+01 -0.42746784055E+02  0.44555714263E+02  0.10566000000E+00 0. -1.
        -13    1    4    4    0    0 -0.25428655072E+01  0.20428280096E+01 -0.11452241472E+02  0.11908161489E+02  0.10566000000E+00 0.  1.
        -14    1    4    4    0    0 -0.62853194188E+01  0.77945652913E+01 -0.36527024101E+02  0.37874582215E+02  0.00000000000E+00 0.  1.
<mgrwt>
<rscale>  0 0.76221523E+02</rscale>
<asrwt>0</asrwt>
<pdfrwt beam="1">  1        2 0.16398010E-01 0.76221523E+02</pdfrwt>
<pdfrwt beam="2">  1       -1 0.20964156E-02 0.76221523E+02</pdfrwt>
<totfact> 0.20535006E+05</totfact>
</mgrwt>
</event>
<event>
 8    1  0.1493610E-013  0.7969340E+02  0.7818608E-02  0.1329924E+00
          2   -1    0    0  501    0  0.00000000000E+00  0.00000000000E+00  0.28159526713E+03  0.28159526714E+03  0.25500000000E-02 0. -1.
         -1   -1    0    0    0  501 -0.00000000000E+00 -0.00000000000E+00 -0.56384439559E+01  0.56384462084E+01  0.50400000000E-02 0.  1.
         24    2    1    2    0    0  0.17763568394E-14  0.35527136788E-14  0.27595682318E+03  0.28723371335E+03  0.79693398902E+02 0.  0.
         66    2    3    3    0    0 -0.13159640002E+02 -0.31849481519E+02  0.20998638875E+03  0.21280472048E+03  0.19999996646E+01 0.  0.
        -13    1    3    3    0    0  0.13159640002E+02  0.31849481519E+02  0.65970434422E+02  0.74428992872E+02  0.10566000000E+00 0.  1.
         13    1    4    4    0    0 -0.10513357159E+02 -0.25711749630E+02  0.17099333743E+03  0.17323497729E+03  0.10566000000E+00 0. -1.
        -13    1    4    4    0    0 -0.24572561160E+01 -0.49587832207E+01  0.32414687501E+02  0.32883898316E+02  0.10566000000E+00 0.  1.
        -14    1    4    4    0    0 -0.18902672665E+00 -0.11789486684E+01  0.65783638212E+01  0.66858448703E+01  0.00000000000E+00 0.  1.
<mgrwt>
<rscale>  0 0.79693399E+02</rscale>
<asrwt>0</asrwt>
<pdfrwt beam="1">  1        2 0.43322341E-01 0.79693399E+02</pdfrwt>
<pdfrwt beam="2">  1       -1 0.86745326E-03 0.79693399E+02</pdfrwt>
<totfact> 0.25168697E+05</totfact>
</mgrwt>
</event>
<event>
 8    1  0.1493610E-013  0.8148333E+02  0.7818608E-02  0.1324894E+00
         -1   -1    0    0    0  501 -0.00000000000E+00  0.00000000000E+00  0.20785303505E+02  0.20785304117E+02  0.50400000000E-02 0.  1.
          2   -1    0    0  501    0  0.00000000000E+00 -0.00000000000E+00 -0.79858509787E+02  0.79858509828E+02  0.25500000000E-02 0. -1.
         24    2    1    2    0    0  0.00000000000E+00  0.00000000000E+00 -0.59073206282E+02  0.10064381394E+03  0.81483333172E+02 0.  0.
         66    2    3    3    0    0  0.23768420790E+01  0.22457138002E+02 -0.71402035083E+02  0.74914771810E+02  0.19999989588E+01 0.  0.
        -13    1    3    3    0    0 -0.23768420790E+01 -0.22457138002E+02  0.12328828802E+02  0.25729042134E+02  0.10566000000E+00 0.  1.
         13    1    4    4    0    0  0.10740488786E+01  0.13976009340E+02 -0.46194237457E+02  0.48274228698E+02  0.10566000000E+00 0.  1.
        -13    1    4    4    0    0  0.50655199960E-01  0.26248148237E+00 -0.57810974203E+00  0.64562945046E+00  0.10566000000E+00 0. -1.
         14    1    4    4    0    0  0.12521380005E+01  0.82186471792E+01 -0.24629687884E+02  0.25994913662E+02  0.00000000000E+00 0. -1.
<mgrwt>
<rscale>  0 0.81483333E+02</rscale>
<asrwt>0</asrwt>
<pdfrwt beam="1">  1        2 0.12285924E-01 0.81483333E+02</pdfrwt>
<pdfrwt beam="2">  1       -1 0.31977391E-02 0.81483333E+02</pdfrwt>
<totfact> 0.15880717E+05</totfact>
</mgrwt>
</event>
<event>
 8    1  0.1493610E-013  0.7817960E+02  0.7818608E-02  0.1334298E+00
          2   -1    0    0  501    0  0.00000000000E+00  0.00000000000E+00  0.51253573574E+03  0.51253573575E+03  0.25500000000E-02 0. -1.
         -1   -1    0    0    0  501 -0.00000000000E+00 -0.00000000000E+00 -0.29812773726E+01  0.29812816328E+01  0.50400000000E-02 0.  1.
         24    2    1    2    0    0  0.00000000000E+00  0.35527136788E-14  0.50955445837E+03  0.51551701738E+03  0.78179595582E+02 0.  0.
         66    2    3    3    0    0 -0.15665599828E+02 -0.18483276497E+02  0.45700066402E+03  0.45764686106E+03  0.19999990828E+01 0.  0.
        -13    1    3    3    0    0  0.15665599828E+02  0.18483276497E+02  0.52553794355E+02  0.57870156326E+02  0.10566000000E+00 0.  1.
         13    1    4    4    0    0 -0.47612146003E+01 -0.48237079856E+01  0.12426430782E+03  0.12444905257E+03  0.10566000000E+00 0. -1.
        -13    1    4    4    0    0 -0.45821593740E-01 -0.16812933743E+00  0.50793571225E+01  0.50834437054E+01  0.10566000000E+00 0. -1.
        -14    1    4    4    0    0 -0.10858563634E+02 -0.13491439174E+02  0.32765699907E+03  0.32811436478E+03  0.00000000000E+00 0.  1.
<mgrwt>
<rscale>  0 0.78179596E+02</rscale>
<asrwt>0</asrwt>
<pdfrwt beam="1">  1        2 0.78851557E-01 0.78179596E+02</pdfrwt>
<pdfrwt beam="2">  1       -1 0.45865894E-03 0.78179596E+02</pdfrwt>
<totfact> 0.32585621E+05</totfact>
</mgrwt>
</event>
<event>
 8    1  0.1493610E-013  0.8250556E+02  0.7818608E-02  0.1322088E+00
         -1   -1    0    0    0  501 -0.00000000000E+00  0.00000000000E+00  0.68189454951E+01  0.68189473577E+01  0.50400000000E-02 0.  1.
          2   -1    0    0  501    0  0.00000000000E+00 -0.00000000000E+00 -0.24956812558E+03  0.24956812559E+03  0.25500000000E-02 0. -1.
         24    2    1    2    0    0  0.00000000000E+00  0.00000000000E+00 -0.24274918008E+03  0.25638707295E+03  0.82505555839E+02 0.  0.
         66    2    3    3    0    0 -0.20457294260E+02  0.77347610506E+01 -0.23005136411E+03  0.23109729020E+03  0.19999983885E+01 0.  0.
        -13    1    3    3    0    0  0.20457294260E+02 -0.77347610506E+01 -0.12697815979E+02  0.25289782751E+02  0.10566000000E+00 0.  1.
         13    1    4    4    0    0 -0.90446562238E+01  0.42879826418E+01 -0.10106959222E+03  0.10156409915E+03  0.10566000000E+00 0. -1.
        -13    1    4    4    0    0 -0.65523031885E+01  0.16507774346E+01 -0.72940796039E+02  0.73253181733E+02  0.10566000000E+00 0.  1.
         14    1    4    4    0    0 -0.48603348473E+01  0.17960009742E+01 -0.56040975849E+02  0.56280009314E+02  0.00000000000E+00 0. -1.
<mgrwt>
<rscale>  0 0.82505556E+02</rscale>
<asrwt>0</asrwt>
<pdfrwt beam="1">  1        2 0.38395089E-01 0.82505556E+02</pdfrwt>
<pdfrwt beam="2">  1       -1 0.10490689E-02 0.82505556E+02</pdfrwt>
<totfact> 0.21993144E+05</totfact>
</mgrwt>
</event>
<event>
 8    1  0.1493610E-013  0.7007041E+02  0.7818608E-02  0.1359854E+00
          2   -1    0    0  501    0  0.00000000000E+00  0.00000000000E+00  0.58207528210E+03  0.58207528211E+03  0.25500000000E-02 0. -1.
         -1   -1    0    0    0  501 -0.00000000000E+00 -0.00000000000E+00 -0.21087716134E+01  0.21087776363E+01  0.50400000000E-02 0.  1.
         24    2    1    2    0    0  0.00000000000E+00  0.00000000000E+00  0.57996651049E+03  0.58418405975E+03  0.70070410093E+02 0.  0.
         66    2    3    3    0    0 -0.16535486586E+02  0.10176229344E+02  0.53306798714E+03  0.53342521208E+03  0.20000010628E+01 0.  0.
        -13    1    3    3    0    0  0.16535486586E+02 -0.10176229344E+02  0.46898523347E+02  0.50758847667E+02  0.10566000000E+00 0.  1.
         13    1    4    4    0    0 -0.71873029520E+01  0.45145164804E+01  0.25301683516E+03  0.25315917566E+03  0.10566000000E+00 0. -1.
        -13    1    4    4    0    0 -0.22696307163E+01  0.18703001979E+01  0.75212006316E+02  0.75269557622E+02  0.10566000000E+00 0.  1.
         14    1    4    4    0    0 -0.70785529173E+01  0.37914126655E+01  0.20483914567E+03  0.20499647879E+03  0.00000000000E+00 0. -1.
<mgrwt>
<rscale>  0 0.70070410E+02</rscale>
<asrwt>0</asrwt>
<pdfrwt beam="1">  1        2 0.89550143E-01 0.70070410E+02</pdfrwt>
<pdfrwt beam="2">  1       -1 0.32442650E-03 0.70070410E+02</pdfrwt>
<totfact> 0.44916328E+05</totfact>
</mgrwt>
</event>
<event>
 8    1  0.1493610E-013  0.7976590E+02  0.7818608E-02  0.1329717E+00
          2   -1    0    0  501    0  0.00000000000E+00  0.00000000000E+00  0.11371087150E+02  0.11371087436E+02  0.25500000000E-02 0. -1.
         -1   -1    0    0    0  501 -0.00000000000E+00 -0.00000000000E+00 -0.13988545584E+03  0.13988545593E+03  0.50400000000E-02 0.  1.
         24    2    1    2    0    0  0.35527136788E-14 -0.17763568394E-14 -0.12851436869E+03  0.15125654337E+03  0.79765900934E+02 0.  0.
         66    2    3    3    0    0  0.20190904284E+02  0.14540707098E+02 -0.52529257186E+01  0.25508782886E+02  0.19999992459E+01 0.  0.
        -13    1    3    3    0    0 -0.20190904284E+02 -0.14540707098E+02 -0.12326144297E+03  0.12574776048E+03  0.10566000000E+00 0.  1.
         13    1    4    4    0    0  0.56808111637E+01  0.39108764208E+01 -0.83626516035E+00  0.69481705009E+01  0.10566000000E+00 0. -1.
        -13    1    4    4    0    0  0.53522093461E+00  0.54003583986E+00 -0.38498167083E+00  0.85876369255E+00  0.10566000000E+00 0.  1.
         14    1    4    4    0    0  0.13974872186E+02  0.10089794838E+02 -0.40316788874E+01  0.17701848692E+02  0.00000000000E+00 0. -1.
<mgrwt>
<rscale>  0 0.79765901E+02</rscale>
<asrwt>0</asrwt>
<pdfrwt beam="1">  1        2 0.17493982E-02 0.79765901E+02</pdfrwt>
<pdfrwt beam="2">  1       -1 0.21520838E-01 0.79765901E+02</pdfrwt>
<totfact> 0.11058936E+05</totfact>
</mgrwt>
</event>
<event>
 8    1  0.1493610E-013  0.7949485E+02  0.7818608E-02  0.1330491E+00
         -1   -1    0    0    0  501 -0.00000000000E+00  0.00000000000E+00  0.13003101000E+02  0.13003101976E+02  0.50400000000E-02 0.  1.
          2   -1    0    0  501    0  0.00000000000E+00 -0.00000000000E+00 -0.12149853961E+03  0.12149853964E+03  0.25500000000E-02 0. -1.
         24    2    1    2    0    0 -0.35527136788E-14  0.00000000000E+00 -0.10849543861E+03  0.13450164161E+03  0.79494851390E+02 0.  0.
         66    2    3    3    0    0 -0.29046661491E+02 -0.87825080099E+01 -0.97650540589E+02  0.10227643459E+03  0.20000010661E+01 0.  0.
        -13    1    3    3    0    0  0.29046661491E+02  0.87825080099E+01 -0.10844898023E+02  0.32225207026E+02  0.10566000000E+00 0.  1.
         13    1    4    4    0    0 -0.85143072750E+01 -0.31727795010E+01 -0.30008785970E+02  0.31354399334E+02  0.10566000000E+00 0. -1.
        -13    1    4    4    0    0 -0.38621805276E+00 -0.66744734769E-01 -0.93358171426E+00  0.10180167468E+01  0.10566000000E+00 0. -1.
         14    1    4    4    0    0 -0.20146136163E+02 -0.55429837742E+01 -0.66708172904E+02  0.69904018508E+02  0.00000000000E+00 0. -1.
<mgrwt>
<rscale>  0 0.79494851E+02</rscale>
<asrwt>0</asrwt>
<pdfrwt beam="1">  1        2 0.18692082E-01 0.79494851E+02</pdfrwt>
<pdfrwt beam="2">  1       -1 0.20004772E-02 0.79494851E+02</pdfrwt>
<totfact> 0.19075508E+05</totfact>
</mgrwt>
</event>
<event>
 8    1  0.1855234E-013  0.8010328E+02  0.7818608E-02  0.1328759E+00
          2   -1    0    0  501    0  0.00000000000E+00  0.00000000000E+00  0.39013027216E+03  0.39013027217E+03  0.25500000000E-02 0. -1.
         -1   -1    0    0    0  501 -0.00000000000E+00 -0.00000000000E+00 -0.41117891137E+01  0.41117922026E+01  0.50400000000E-02 0.  1.
         24    2    1    2    0    0  0.00000000000E+00  0.35527136788E-14  0.38601848305E+03  0.39424206437E+03  0.80103283741E+02 0.  0.
         66    2    3    3    0    0  0.20681240075E+02  0.17317603885E+02  0.33867396412E+03  0.33975236139E+03  0.19999990924E+01 0.  0.
        -13    1    3    3    0    0 -0.20681240075E+02 -0.17317603885E+02  0.47344518921E+02  0.54489702984E+02  0.10566000000E+00 0.  1.
         13    1    4    4    0    0  0.33073338221E+00  0.28481550618E+00  0.63939423086E+01  0.64096931849E+01  0.10566000000E+00 0. -1.
        -13    1    4    4    0    0  0.15409945004E+01  0.18601917513E+01  0.33151099208E+02  0.33239156430E+02  0.10566000000E+00 0.  1.
         14    1    4    4    0    0  0.18809512192E+02  0.15172596628E+02  0.29912892261E+03  0.30010351177E+03  0.00000000000E+00 0. -1.
<mgrwt>
<rscale>  0 0.80103284E+02</rscale>
<asrwt>0</asrwt>
<pdfrwt beam="1">  1        2 0.60020070E-01 0.80103284E+02</pdfrwt>
<pdfrwt beam="2">  1       -1 0.63258288E-03 0.80103284E+02</pdfrwt>
<totfact> 0.27912888E+05</totfact>
</mgrwt>
</event>
<event>
 8    1  0.1493610E-013  0.8040779E+02  0.7818608E-02  0.1327898E+00
          2   -1    0    0  501    0  0.00000000000E+00  0.00000000000E+00  0.24007440609E+03  0.24007440610E+03  0.25500000000E-02 0. -1.
         -1   -1    0    0    0  501 -0.00000000000E+00 -0.00000000000E+00 -0.67327174140E+01  0.67327193004E+01  0.50400000000E-02 0.  1.
         24    2    1    2    0    0  0.35527136788E-14  0.00000000000E+00  0.23334168868E+03  0.24680712540E+03  0.80407794871E+02 0.  0.
         66    2    3    3    0    0  0.23738176027E+02  0.18280158947E+01  0.21608593437E+03  0.21740279130E+03  0.19999977901E+01 0.  0.
        -13    1    3    3    0    0 -0.23738176027E+02 -0.18280158947E+01  0.17255754308E+02  0.29404334102E+02  0.10566000000E+00 0.  1.
         13    1    4    4    0    0  0.52003148830E+01  0.34416507451E+00  0.48528705778E+02  0.48807869990E+02  0.10566000000E+00 0. -1.
        -13    1    4    4    0    0  0.42608371515E+01  0.10662425302E+01  0.39723933741E+02  0.39966156711E+02  0.10566000000E+00 0.  1.
         14    1    4    4    0    0  0.14277023992E+02  0.41760829003E+00  0.12783329485E+03  0.12862876460E+03  0.00000000000E+00 0. -1.
<mgrwt>
<rscale>  0 0.80407795E+02</rscale>
<asrwt>0</asrwt>
<pdfrwt beam="1">  1        2 0.36934515E-01 0.80407795E+02</pdfrwt>
<pdfrwt beam="2">  1       -1 0.10358031E-02 0.80407795E+02</pdfrwt>
<totfact> 0.23212511E+05</totfact>
</mgrwt>
</event>
<event>
 8    1  0.1493610E-013  0.8014711E+02  0.7818608E-02  0.1328634E+00
         -1   -1    0    0    0  501 -0.00000000000E+00  0.00000000000E+00  0.52060797663E+01  0.52060822059E+01  0.50400000000E-02 0.  1.
          2   -1    0    0  501    0  0.00000000000E+00 -0.00000000000E+00 -0.30846424508E+03  0.30846424509E+03  0.25500000000E-02 0. -1.
         24    2    1    2    0    0  0.00000000000E+00 -0.88817841970E-15 -0.30325816531E+03  0.31367032729E+03  0.80147110969E+02 0.  0.
         66    2    3    3    0    0  0.38413490250E+02  0.23186144640E+01 -0.10833381271E+03  0.11498342132E+03  0.19999987237E+01 0.  0.
        -13    1    3    3    0    0 -0.38413490250E+02 -0.23186144640E+01 -0.19492435260E+03  0.19868690598E+03  0.10566000000E+00 0.  1.
         13    1    4    4    0    0  0.90504884722E+01  0.89140182308E+00 -0.25776432262E+02  0.27333890374E+02  0.10566000000E+00 0. -1.
        -13    1    4    4    0    0  0.12878942853E+02 -0.14693556282E+00 -0.35794009544E+02  0.38040912743E+02  0.10566000000E+00 0.  1.
        -14    1    4    4    0    0  0.16484058925E+02  0.15741482038E+01 -0.46763370907E+02  0.49608618201E+02  0.00000000000E+00 0.  1.
<mgrwt>
<rscale>  0 0.80147111E+02</rscale>
<asrwt>0</asrwt>
<pdfrwt beam="1">  1        2 0.47456023E-01 0.80147111E+02</pdfrwt>
<pdfrwt beam="2">  1       -1 0.80093578E-03 0.80147111E+02</pdfrwt>
<totfact> 0.25628746E+05</totfact>
</mgrwt>
</event>
<event>
 8    1  0.1493610E-013  0.8149409E+02  0.7818608E-02  0.1324864E+00
         -1   -1    0    0    0  501 -0.00000000000E+00  0.00000000000E+00  0.71182791665E+01  0.71182809508E+01  0.50400000000E-02 0.  1.
          2   -1    0    0  501    0  0.00000000000E+00 -0.00000000000E+00 -0.23324759930E+03  0.23324759932E+03  0.25500000000E-02 0. -1.
         24    2    1    2    0    0  0.00000000000E+00 -0.17763568394E-14 -0.22612932014E+03  0.24036588027E+03  0.81494091635E+02 0.  0.
         66    2    3    3    0    0 -0.34051958574E+02  0.14964248095E+02 -0.16203114957E+03  0.16625750532E+03  0.20000098334E+01 0.  0.
        -13    1    3    3    0    0  0.34051958574E+02 -0.14964248095E+02 -0.64098170562E+02  0.74108374946E+02  0.10566000000E+00 0.  1.
         13    1    4    4    0    0 -0.16242179977E+02  0.65903256067E+01 -0.78352050081E+02  0.80288826856E+02  0.10566000000E+00 0. -1.
        -13    1    4    4    0    0 -0.10784055039E+02  0.53168158261E+01 -0.49089371357E+02  0.50540497800E+02  0.10566000000E+00 0.  1.
        -14    1    4    4    0    0 -0.70257235582E+01  0.30571066622E+01 -0.34589728136E+02  0.35428180664E+02  0.00000000000E+00 0.  1.
<mgrwt>
<rscale>  0 0.81494092E+02</rscale>
<asrwt>0</asrwt>
<pdfrwt beam="1">  1        2 0.35884240E-01 0.81494092E+02</pdfrwt>
<pdfrwt beam="2">  1       -1 0.10951202E-02 0.81494092E+02</pdfrwt>
<totfact> 0.22176835E+05</totfact>
</mgrwt>
</event>
<event>
 8    1  0.1493610E-013  0.8082772E+02  0.7818608E-02  0.1326719E+00
         -1   -1    0    0    0  501 -0.00000000000E+00  0.00000000000E+00  0.36388517631E+01  0.36388552534E+01  0.50400000000E-02 0.  1.
          2   -1    0    0  501    0  0.00000000000E+00 -0.00000000000E+00 -0.44884465193E+03  0.44884465194E+03  0.25500000000E-02 0. -1.
         24    2    1    2    0    0 -0.35527136788E-14  0.00000000000E+00 -0.44520580017E+03  0.45248350719E+03  0.80827716641E+02 0.  0.
         66    2    3    3    0    0  0.25919147101E+02 -0.33187890030E+01 -0.39514450077E+03  0.39601261728E+03  0.20000006933E+01 0.  0.
        -13    1    3    3    0    0 -0.25919147101E+02  0.33187890030E+01 -0.50061299396E+02  0.56470889918E+02  0.10566000000E+00 0.  1.
         13    1    4    4    0    0  0.13254007234E+02 -0.22175768471E+01 -0.21224867626E+03  0.21267368924E+03  0.10566000000E+00 0. -1.
        -13    1    4    4    0    0  0.19590995186E+01  0.10601332122E+00 -0.28596566690E+02  0.28663986119E+02  0.10566000000E+00 0.  1.
         14    1    4    4    0    0  0.10706040348E+02 -0.12072254772E+01 -0.15429925782E+03  0.15467494192E+03  0.00000000000E+00 0. -1.
<mgrwt>
<rscale>  0 0.80827717E+02</rscale>
<asrwt>0</asrwt>
<pdfrwt beam="1">  1        2 0.69052979E-01 0.80827717E+02</pdfrwt>
<pdfrwt beam="2">  1       -1 0.55982398E-03 0.80827717E+02</pdfrwt>
<totfact> 0.28613871E+05</totfact>
</mgrwt>
</event>
<event>
 8    1  0.1493610E-013  0.8016858E+02  0.7818608E-02  0.1328574E+00
          2   -1    0    0  501    0  0.00000000000E+00  0.00000000000E+00  0.10934370942E+02  0.10934371239E+02  0.25500000000E-02 0. -1.
         -1   -1    0    0    0  501 -0.00000000000E+00 -0.00000000000E+00 -0.14694492296E+03  0.14694492304E+03  0.50400000000E-02 0.  1.
         24    2    1    2    0    0 -0.35527136788E-14  0.00000000000E+00 -0.13601055202E+03  0.15787929428E+03  0.80168580526E+02 0.  0.
         66    2    3    3    0    0 -0.31580923678E+02  0.16494625350E+01 -0.19621308811E+02  0.37270245846E+02  0.19999997354E+01 0.  0.
        -13    1    3    3    0    0  0.31580923678E+02 -0.16494625350E+01 -0.11638924321E+03  0.12060904844E+03  0.10566000000E+00 0.  1.
         13    1    4    4    0    0 -0.25118647314E+02  0.16489960223E+01 -0.15835410633E+02  0.29739485953E+02  0.10566000000E+00 0. -1.
        -13    1    4    4    0    0 -0.35246986479E+01  0.11111140065E+00 -0.24894526295E+01  0.43179143961E+01  0.10566000000E+00 0.  1.
        -14    1    4    4    0    0 -0.29375777159E+01 -0.11064488796E+00 -0.12964455488E+01  0.32128454972E+01  0.00000000000E+00 0.  1.
<mgrwt>
<rscale>  0 0.80168581E+02</rscale>
<asrwt>0</asrwt>
<pdfrwt beam="1">  1        2 0.16822110E-02 0.80168581E+02</pdfrwt>
<pdfrwt beam="2">  1       -1 0.22606910E-01 0.80168581E+02</pdfrwt>
<totfact> 0.10786184E+05</totfact>
</mgrwt>
</event>
<event>
 8    1  0.1493610E-013  0.7918091E+02  0.7818608E-02  0.1331392E+00
         -1   -1    0    0    0  501 -0.00000000000E+00  0.00000000000E+00  0.64100126575E+02  0.64100126774E+02  0.50400000000E-02 0.  1.
          2   -1    0    0  501    0  0.00000000000E+00 -0.00000000000E+00 -0.24452433148E+02  0.24452433281E+02  0.25500000000E-02 0. -1.
         24    2    1    2    0    0 -0.71054273576E-14  0.35527136788E-14  0.39647693428E+02  0.88552560054E+02  0.79180908671E+02 0.  0.
         66    2    3    3    0    0 -0.32071226656E+02  0.23162754587E+02  0.19201503393E+02  0.44020160274E+02  0.19999996708E+01 0.  0.
        -13    1    3    3    0    0  0.32071226656E+02 -0.23162754587E+02  0.20446190035E+02  0.44532399781E+02  0.10566000000E+00 0.  1.
         13    1    4    4    0    0 -0.29629939699E+02  0.21444711155E+02  0.17734895387E+02  0.40649066920E+02  0.10566000000E+00 0. -1.
        -13    1    4    4    0    0 -0.61235243460E+00  0.64708712186E+00  0.26846226859E+00  0.93644715425E+00  0.10566000000E+00 0.  1.
         14    1    4    4    0    0 -0.18289345222E+01  0.10709563108E+01  0.11981457378E+01  0.24346461992E+01  0.00000000000E+00 0. -1.
<mgrwt>
<rscale>  0 0.79180909E+02</rscale>
<asrwt>0</asrwt>
<pdfrwt beam="1">  1        2 0.37619128E-02 0.79180909E+02</pdfrwt>
<pdfrwt beam="2">  1       -1 0.98615580E-02 0.79180909E+02</pdfrwt>
<totfact> 0.13306051E+05</totfact>
</mgrwt>
</event>
<event>
 8    1  0.1493610E-013  0.8443277E+02  0.7818608E-02  0.1316923E+00
          2   -1    0    0  501    0  0.00000000000E+00  0.00000000000E+00  0.13370856016E+04  0.13370856016E+04  0.25500000000E-02 0. -1.
         -1   -1    0    0    0  501 -0.00000000000E+00 -0.00000000000E+00 -0.13329114794E+01  0.13329210080E+01  0.50400000000E-02 0.  1.
         24    2    1    2    0    0  0.88817841970E-15  0.00000000000E+00  0.13357526901E+04  0.13384185226E+04  0.84432769124E+02 0.  0.
         66    2    3    3    0    0 -0.70033519746E+01 -0.25890919638E+02  0.11845523869E+04  0.11848576893E+04  0.20000010211E+01 0.  0.
        -13    1    3    3    0    0  0.70033519746E+01  0.25890919638E+02  0.15120030323E+03  0.15356083328E+03  0.10566000000E+00 0.  1.
         13    1    4    4    0    0 -0.14104739161E+01 -0.60630590822E+01  0.28063144122E+03  0.28070049357E+03  0.10566000000E+00 0. -1.
        -13    1    4    4    0    0 -0.25574856653E+01 -0.83811382454E+01  0.41948047285E+03  0.41957199916E+03  0.10566000000E+00 0.  1.
        -14    1    4    4    0    0 -0.30353923932E+01 -0.11446722311E+02  0.48444047280E+03  0.48458519658E+03  0.00000000000E+00 0.  1.
<mgrwt>
<rscale>  0 0.84432769E+02</rscale>
<asrwt>0</asrwt>
<pdfrwt beam="1">  1        2 0.20570460E+00 0.84432769E+02</pdfrwt>
<pdfrwt beam="2">  1       -1 0.20506491E-03 0.84432769E+02</pdfrwt>
<totfact> 0.29903555E+05</totfact>
</mgrwt>
</event>
<event>
 8    1  0.1493610E-013  0.8073014E+02  0.7818608E-02  0.1326992E+00
          2   -1    0    0  501    0  0.00000000000E+00  0.00000000000E+00  0.47471768888E+01  0.47471775736E+01  0.25500000000E-02 0. -1.
         -1   -1    0    0    0  501 -0.00000000000E+00 -0.00000000000E+00 -0.34322271243E+03  0.34322271246E+03  0.50400000000E-02 0.  1.
         24    2    1    2    0    0  0.00000000000E+00  0.00000000000E+00 -0.33847553554E+03  0.34796989004E+03  0.80730144400E+02 0.  0.
         66    2    3    3    0    0  0.95786521113E+01  0.37571481376E+02 -0.12135037935E+03  0.12740989502E+03  0.19999978089E+01 0.  0.
        -13    1    3    3    0    0 -0.95786521113E+01 -0.37571481376E+02 -0.21712515619E+03  0.22055999502E+03  0.10566000000E+00 0.  1.
         13    1    4    4    0    0  0.40958318886E+01  0.16117868148E+02 -0.52668245796E+02  0.55231483700E+02  0.10566000000E+00 0. -1.
        -13    1    4    4    0    0  0.52463249702E+00  0.15437685998E+01 -0.40310530151E+01  0.43495991991E+01  0.10566000000E+00 0.  1.
        -14    1    4    4    0    0  0.49581877257E+01  0.19909844628E+02 -0.64651080543E+02  0.67828812122E+02  0.00000000000E+00 0.  1.
<mgrwt>
<rscale>  0 0.80730144E+02</rscale>
<asrwt>0</asrwt>
<pdfrwt beam="1">  1        2 0.73033523E-03 0.80730144E+02</pdfrwt>
<pdfrwt beam="2">  1       -1 0.52803475E-01 0.80730144E+02</pdfrwt>
<totfact> 0.79715421E+04</totfact>
</mgrwt>
</event>
<event>
 8    1  0.1493610E-013  0.8146081E+02  0.7818608E-02  0.1324956E+00
         -1   -1    0    0    0  501 -0.00000000000E+00  0.00000000000E+00  0.24784338551E+01  0.24784389796E+01  0.50400000000E-02 0.  1.
          2   -1    0    0  501    0  0.00000000000E+00 -0.00000000000E+00 -0.66935992105E+03  0.66935992105E+03  0.25500000000E-02 0. -1.
         24    2    1    2    0    0 -0.35527136788E-14  0.17763568394E-14 -0.66688148719E+03  0.67183836003E+03  0.81460812975E+02 0.  0.
         66    2    3    3    0    0  0.28379751137E+02 -0.12726065156E+02 -0.55021903688E+03  0.55110103570E+03  0.20000000335E+01 0.  0.
        -13    1    3    3    0    0 -0.28379751137E+02  0.12726065156E+02 -0.11666245031E+03  0.12073732433E+03  0.10566000000E+00 0.  1.
         13    1    4    4    0    0  0.21157430353E+02 -0.91823631697E+01 -0.40030736440E+03  0.40097125808E+03  0.10566000000E+00 0. -1.
        -13    1    4    4    0    0  0.25719221806E+01 -0.86098609747E+00 -0.47527946935E+02  0.47605388189E+02  0.10566000000E+00 0.  1.
         14    1    4    4    0    0  0.46503986029E+01 -0.26827158886E+01 -0.10238372555E+03  0.10252438943E+03  0.00000000000E+00 0. -1.
<mgrwt>
<rscale>  0 0.81460813E+02</rscale>
<asrwt>0</asrwt>
<pdfrwt beam="1">  1        2 0.10297831E+00 0.81460813E+02</pdfrwt>
<pdfrwt beam="2">  1       -1 0.38129845E-03 0.81460813E+02</pdfrwt>
<totfact> 0.31576266E+05</totfact>
</mgrwt>
</event>
<event>
 8    1  0.1493610E-013  0.7973659E+02  0.7818608E-02  0.1329801E+00
         -1   -1    0    0    0  501 -0.00000000000E+00  0.00000000000E+00  0.25923645736E+02  0.25923646226E+02  0.50400000000E-02 0.  1.
          2   -1    0    0  501    0  0.00000000000E+00 -0.00000000000E+00 -0.61313941009E+02  0.61313941062E+02  0.25500000000E-02 0. -1.
         24    2    1    2    0    0  0.35527136788E-14  0.17763568394E-14 -0.35390295273E+02  0.87237587288E+02  0.79736589069E+02 0.  0.
         66    2    3    3    0    0 -0.31907851481E+02 -0.15573040588E+02 -0.37485833631E+02  0.51670284546E+02  0.20000007053E+01 0.  0.
        -13    1    3    3    0    0  0.31907851481E+02  0.15573040588E+02  0.20955383574E+01  0.35567302742E+02  0.10566000000E+00 0.  1.
         13    1    4    4    0    0 -0.23347991185E+02 -0.11838145806E+02 -0.27884008234E+02  0.38246561515E+02  0.10566000000E+00 0. -1.
        -13    1    4    4    0    0 -0.36973688735E+01 -0.15715025336E+01 -0.47499185163E+01  0.62219809343E+01  0.10566000000E+00 0.  1.
         14    1    4    4    0    0 -0.48624914228E+01 -0.21633922480E+01 -0.48519068805E+01  0.72017420971E+01  0.00000000000E+00 0. -1.
<mgrwt>
<rscale>  0 0.79736589E+02</rscale>
<asrwt>0</asrwt>
<pdfrwt beam="1">  1        2 0.94329140E-02 0.79736589E+02</pdfrwt>
<pdfrwt beam="2">  1       -1 0.39882533E-02 0.79736589E+02</pdfrwt>
<totfact> 0.15785438E+05</totfact>
</mgrwt>
</event>
<event>
 8    1  0.1493610E-013  0.7892733E+02  0.7818608E-02  0.1332123E+00
          2   -1    0    0  501    0  0.00000000000E+00  0.00000000000E+00  0.25021774446E+03  0.25021774447E+03  0.25500000000E-02 0. -1.
         -1   -1    0    0    0  501 -0.00000000000E+00 -0.00000000000E+00 -0.62241011656E+01  0.62241032062E+01  0.50400000000E-02 0.  1.
         24    2    1    2    0    0 -0.17763568394E-14  0.00000000000E+00  0.24399364329E+03  0.25644184768E+03  0.78927329063E+02 0.  0.
         66    2    3    3    0    0 -0.15561384569E+02 -0.27609218967E+02  0.19833860202E+03  0.20086469753E+03  0.19999993886E+01 0.  0.
        -13    1    3    3    0    0  0.15561384569E+02  0.27609218967E+02  0.45655041269E+02  0.55577150152E+02  0.10566000000E+00 0.  1.
         13    1    4    4    0    0 -0.10929942486E+02 -0.20234676156E+02  0.14405049497E+03  0.14587481628E+03  0.10566000000E+00 0. -1.
        -13    1    4    4    0    0 -0.21460928156E+00 -0.13189155635E+00  0.18318800368E+01  0.18521341829E+01  0.10566000000E+00 0.  1.
         14    1    4    4    0    0 -0.44168328020E+01 -0.72426512555E+01  0.52456227023E+02  0.53137747061E+02  0.00000000000E+00 0. -1.
<mgrwt>
<rscale>  0 0.78927329E+02</rscale>
<asrwt>0</asrwt>
<pdfrwt beam="1">  1        2 0.38495031E-01 0.78927329E+02</pdfrwt>
<pdfrwt beam="2">  1       -1 0.95755436E-03 0.78927329E+02</pdfrwt>
<totfact> 0.24737741E+05</totfact>
</mgrwt>
</event>
<event>
 8    1  0.1493610E-013  0.8113310E+02  0.7818608E-02  0.1325866E+00
          2   -1    0    0  501    0  0.00000000000E+00  0.00000000000E+00  0.48636376017E+03  0.48636376017E+03  0.25500000000E-02 0. -1.
         -1   -1    0    0    0  501 -0.00000000000E+00 -0.00000000000E+00 -0.33835659707E+01  0.33835697244E+01  0.50400000000E-02 0.  1.
         24    2    1    2    0    0  0.00000000000E+00  0.88817841970E-15  0.48298019420E+03  0.48974732990E+03  0.81133095321E+02 0.  0.
         66    2    3    3    0    0 -0.29352991845E+02 -0.63059788502E+01  0.40609512467E+03  0.40720831742E+03  0.20000005349E+01 0.  0.
        -13    1    3    3    0    0  0.29352991845E+02  0.63059788502E+01  0.76885069530E+02  0.82539012474E+02  0.10566000000E+00 0.  1.
         13    1    4    4    0    0 -0.11929324197E+02 -0.29995800837E+01  0.16124580227E+03  0.16171433508E+03  0.10566000000E+00 0. -1.
        -13    1    4    4    0    0 -0.11963664436E+01 -0.50112314327E+00  0.15905259069E+02  0.15958409920E+02  0.10566000000E+00 0.  1.
         14    1    4    4    0    0 -0.16227301205E+02 -0.28052756232E+01  0.22894406333E+03  0.22953557242E+03  0.00000000000E+00 0. -1.
<mgrwt>
<rscale>  0 0.81133095E+02</rscale>
<asrwt>0</asrwt>
<pdfrwt beam="1">  1        2 0.74825145E-01 0.81133095E+02</pdfrwt>
<pdfrwt beam="2">  1       -1 0.52054924E-03 0.81133095E+02</pdfrwt>
<totfact> 0.29094842E+05</totfact>
</mgrwt>
</event>
<event>
 8    1  0.1493610E-013  0.8507487E+02  0.7818608E-02  0.1315237E+00
          2   -1    0    0  501    0  0.00000000000E+00  0.00000000000E+00  0.21728042309E+02  0.21728042459E+02  0.25500000000E-02 0. -1.
         -1   -1    0    0    0  501 -0.00000000000E+00 -0.00000000000E+00 -0.83276413105E+02  0.83276413258E+02  0.50400000000E-02 0.  1.
         24    2    1    2    0    0  0.00000000000E+00  0.00000000000E+00 -0.61548370796E+02  0.10500445572E+03  0.85074871570E+02 0.  0.
         66    2    3    3    0    0 -0.55520752957E+01 -0.18019900338E+02  0.16238607031E+02  0.24964669161E+02  0.19999999398E+01 0.  0.
        -13    1    3    3    0    0  0.55520752957E+01  0.18019900338E+02 -0.77786977827E+02  0.80039786555E+02  0.10566000000E+00 0.  1.
         13    1    4    4    0    0  0.59197775955E-01 -0.30640347486E+00  0.24084026293E+00  0.40811215852E+00  0.10566000000E+00 0. -1.
        -13    1    4    4    0    0 -0.22164897157E+01 -0.67152621906E+01  0.52440820448E+01  0.88044950722E+01  0.10566000000E+00 0. -1.
         14    1    4    4    0    0 -0.33947833559E+01 -0.10998234672E+02  0.10753684723E+02  0.15752061931E+02  0.00000000000E+00 0. -1.
<mgrwt>
<rscale>  0 0.85074872E+02</rscale>
<asrwt>0</asrwt>
<pdfrwt beam="1">  1        2 0.33427758E-02 0.85074872E+02</pdfrwt>
<pdfrwt beam="2">  1       -1 0.12811756E-01 0.85074872E+02</pdfrwt>
<totfact> 0.10578833E+05</totfact>
</mgrwt>
</event>
<event>
 8    1  0.1493610E-013  0.8246219E+02  0.7818608E-02  0.1322206E+00
          2   -1    0    0  501    0  0.00000000000E+00  0.00000000000E+00  0.41615152871E+03  0.41615152871E+03  0.25500000000E-02 0. -1.
         -1   -1    0    0    0  501 -0.00000000000E+00 -0.00000000000E+00 -0.40850563402E+01  0.40850594493E+01  0.50400000000E-02 0.  1.
         24    2    1    2    0    0 -0.35527136788E-14 -0.35527136788E-14  0.41206647237E+03  0.42023658816E+03  0.82462187595E+02 0.  0.
         66    2    3    3    0    0 -0.27512505791E+02 -0.19781012602E+02  0.32564371545E+03  0.32740808763E+03  0.19999995562E+01 0.  0.
        -13    1    3    3    0    0  0.27512505791E+02  0.19781012602E+02  0.86422756917E+02  0.92828500536E+02  0.10566000000E+00 0.  1.
         13    1    4    4    0    0 -0.21171113956E+02 -0.15916976389E+02  0.25620702443E+03  0.25757254655E+03  0.10566000000E+00 0. -1.
        -13    1    4    4    0    0 -0.61685657674E+01 -0.36224671328E+01  0.66358994439E+02  0.66743544847E+02  0.10566000000E+00 0.  1.
        -14    1    4    4    0    0 -0.17282606792E+00 -0.24156907996E+00  0.30776965785E+01  0.30919962321E+01  0.00000000000E+00 0.  1.
<mgrwt>
<rscale>  0 0.82462188E+02</rscale>
<asrwt>0</asrwt>
<pdfrwt beam="1">  1        2 0.64023299E-01 0.82462188E+02</pdfrwt>
<pdfrwt beam="2">  1       -1 0.62847058E-03 0.82462188E+02</pdfrwt>
<totfact> 0.26462042E+05</totfact>
</mgrwt>
</event>
<event>
 8    1  0.1493610E-013  0.8235881E+02  0.7818608E-02  0.1322488E+00
          2   -1    0    0  501    0  0.00000000000E+00  0.00000000000E+00  0.93334727919E+01  0.93334731402E+01  0.25500000000E-02 0. -1.
         -1   -1    0    0    0  501 -0.00000000000E+00 -0.00000000000E+00 -0.18168405401E+03  0.18168405408E+03  0.50400000000E-02 0.  1.
         24    2    1    2    0    0  0.00000000000E+00  0.17763568394E-14 -0.17235058122E+03  0.19101752722E+03  0.82358805595E+02 0.  0.
         66    2    3    3    0    0 -0.35662399184E+02 -0.10401330289E+02 -0.12730789167E+03  0.13263217432E+03  0.19999990188E+01 0.  0.
        -13    1    3    3    0    0  0.35662399184E+02  0.10401330289E+02 -0.45042689542E+02  0.58385352894E+02  0.10566000000E+00 0.  1.
         13    1    4    4    0    0 -0.28327929131E+02 -0.85137809483E+01 -0.99863274356E+02  0.10415200797E+03  0.10566000000E+00 0. -1.
        -13    1    4    4    0    0 -0.42304740773E+01 -0.14590824720E+01 -0.16278141493E+02  0.16882383927E+02  0.10566000000E+00 0.  1.
         14    1    4    4    0    0 -0.31039959757E+01 -0.42846686859E+00 -0.11166475825E+02  0.11597782427E+02  0.00000000000E+00 0. -1.
<mgrwt>
<rscale>  0 0.82358806E+02</rscale>
<asrwt>0</asrwt>
<pdfrwt beam="1">  1        2 0.14359191E-02 0.82358806E+02</pdfrwt>
<pdfrwt beam="2">  1       -1 0.27951390E-01 0.82358806E+02</pdfrwt>
<totfact> 0.95159748E+04</totfact>
</mgrwt>
</event>
<event>
 8    1  0.1493610E-013  0.8043044E+02  0.7818608E-02  0.1327834E+00
         -1   -1    0    0    0  501 -0.00000000000E+00  0.00000000000E+00  0.18401149718E+01  0.18401218739E+01  0.50400000000E-02 0.  1.
          2   -1    0    0  501    0  0.00000000000E+00 -0.00000000000E+00 -0.87889113900E+03  0.87889113901E+03  0.25500000000E-02 0. -1.
         24    2    1    2    0    0 -0.71054273576E-14  0.17763568394E-14 -0.87705102403E+03  0.88073126088E+03  0.80430436640E+02 0.  0.
         66    2    3    3    0    0 -0.30212430886E+02  0.10989734214E+02 -0.70289695337E+03  0.70363462983E+03  0.19999997102E+01 0.  0.
        -13    1    3    3    0    0  0.30212430886E+02 -0.10989734214E+02 -0.17415407066E+03  0.17709663105E+03  0.10566000000E+00 0.  1.
         13    1    4    4    0    0 -0.26001176274E+02  0.92155761366E+01 -0.59069461912E+03  0.59133842445E+03  0.10566000000E+00 0. -1.
        -13    1    4    4    0    0 -0.37974350828E+01  0.17275911730E+01 -0.10265155858E+03  0.10273635543E+03  0.10566000000E+00 0.  1.
         14    1    4    4    0    0 -0.41381952933E+00  0.46566904500E-01 -0.95507756725E+01  0.95598499479E+01  0.00000000000E+00 0. -1.
<mgrwt>
<rscale>  0 0.80430437E+02</rscale>
<asrwt>0</asrwt>
<pdfrwt beam="1">  1        2 0.13521369E+00 0.80430437E+02</pdfrwt>
<pdfrwt beam="2">  1       -1 0.28309585E-03 0.80430437E+02</pdfrwt>
<totfact> 0.34367370E+05</totfact>
</mgrwt>
</event>
<event>
 8    1  0.1493610E-013  0.8078239E+02  0.7818608E-02  0.1326846E+00
         -1   -1    0    0    0  501 -0.00000000000E+00  0.00000000000E+00  0.24158752252E+02  0.24158752778E+02  0.50400000000E-02 0.  1.
          2   -1    0    0  501    0  0.00000000000E+00 -0.00000000000E+00 -0.67530333196E+02  0.67530333244E+02  0.25500000000E-02 0. -1.
         24    2    1    2    0    0 -0.17763568394E-14  0.00000000000E+00 -0.43371580943E+02  0.91689086022E+02  0.80782389553E+02 0.  0.
         66    2    3    3    0    0  0.13270891892E+02  0.59684923962E+01 -0.64435034461E+02  0.66087919813E+02  0.20000015202E+01 0.  0.
        -13    1    3    3    0    0 -0.13270891892E+02 -0.59684923962E+01  0.21063453518E+02  0.25601166209E+02  0.10566000000E+00 0.  1.
         13    1    4    4    0    0  0.10779234609E+01  0.59589719805E+00 -0.70175224890E+01  0.71255735473E+01  0.10566000000E+00 0. -1.
        -13    1    4    4    0    0  0.19390509402E+01  0.63016563929E+00 -0.11160673569E+02  0.11345872634E+02  0.10566000000E+00 0.  1.
         14    1    4    4    0    0  0.10253917491E+02  0.47424295588E+01 -0.46256838404E+02  0.47616473632E+02  0.00000000000E+00 0. -1.
<mgrwt>
<rscale>  0 0.80782390E+02</rscale>
<asrwt>0</asrwt>
<pdfrwt beam="1">  1        2 0.10389282E-01 0.80782390E+02</pdfrwt>
<pdfrwt beam="2">  1       -1 0.37167312E-02 0.80782390E+02</pdfrwt>
<totfact> 0.15589522E+05</totfact>
</mgrwt>
</event>
<event>
 8    1  0.1493610E-013  0.7974055E+02  0.7818608E-02  0.1329789E+00
         -1   -1    0    0    0  501 -0.00000000000E+00  0.00000000000E+00  0.17681245924E+01  0.17681317756E+01  0.50400000000E-02 0.  1.
          2   -1    0    0  501    0  0.00000000000E+00 -0.00000000000E+00 -0.89905190199E+03  0.89905190199E+03  0.25500000000E-02 0. -1.
         24    2    1    2    0    0  0.35527136788E-14  0.00000000000E+00 -0.89728377739E+03  0.90082003377E+03  0.79740554669E+02 0.  0.
         66    2    3    3    0    0 -0.23787200347E+02  0.21589462823E+02 -0.71522770323E+03  0.71595153696E+03  0.20000023543E+01 0.  0.
        -13    1    3    3    0    0  0.23787200347E+02 -0.21589462823E+02 -0.18205607417E+03  0.18486849680E+03  0.10566000000E+00 0.  1.
         13    1    4    4    0    0 -0.79148961014E-01  0.11737073497E+00 -0.41419943966E+01  0.41457595281E+01  0.10566000000E+00 0. -1.
        -13    1    4    4    0    0 -0.54154261897E+00  0.39844538997E+00 -0.12658709985E+02  0.12676992137E+02  0.10566000000E+00 0.  1.
         14    1    4    4    0    0 -0.23166508767E+02  0.21073646698E+02 -0.69842699885E+03  0.69912878530E+03  0.00000000000E+00 0. -1.
<mgrwt>
<rscale>  0 0.79740555E+02</rscale>
<asrwt>0</asrwt>
<pdfrwt beam="1">  1        2 0.13831531E+00 0.79740555E+02</pdfrwt>
<pdfrwt beam="2">  1       -1 0.27202044E-03 0.79740555E+02</pdfrwt>
<totfact> 0.35238422E+05</totfact>
</mgrwt>
</event>
<event>
 8    1  0.1493610E-013  0.7901220E+02  0.7818608E-02  0.1331878E+00
          2   -1    0    0  501    0  0.00000000000E+00  0.00000000000E+00  0.51101284362E+02  0.51101284426E+02  0.25500000000E-02 0. -1.
         -1   -1    0    0    0  501 -0.00000000000E+00 -0.00000000000E+00 -0.30541929322E+02  0.30541929738E+02  0.50400000000E-02 0.  1.
         24    2    1    2    0    0  0.00000000000E+00  0.00000000000E+00  0.20559355040E+02  0.81643214164E+02  0.79012197409E+02 0.  0.
         66    2    3    3    0    0 -0.26750997561E+02  0.29033235847E+02  0.10727309649E+02  0.40958758473E+02  0.20000172854E+01 0.  0.
        -13    1    3    3    0    0  0.26750997561E+02 -0.29033235847E+02  0.98320453918E+01  0.40684455691E+02  0.10566000000E+00 0.  1.
         13    1    4    4    0    0 -0.76575667401E+01  0.83955374162E+01  0.29304298626E+01  0.11735499994E+02  0.10566000000E+00 0. -1.
        -13    1    4    4    0    0 -0.11363527381E+02  0.11150870790E+02  0.46946281491E+01  0.16598866570E+02  0.10566000000E+00 0.  1.
        -14    1    4    4    0    0 -0.77299034394E+01  0.94868276405E+01  0.31022516370E+01  0.12624391909E+02  0.00000000000E+00 0.  1.
<mgrwt>
<rscale>  0 0.79012197E+02</rscale>
<asrwt>0</asrwt>
<pdfrwt beam="1">  1        2 0.78617360E-02 0.79012197E+02</pdfrwt>
<pdfrwt beam="2">  1       -1 0.46987585E-02 0.79012197E+02</pdfrwt>
<totfact> 0.15533150E+05</totfact>
</mgrwt>
</event>
<event>
 8    1  0.1493610E-013  0.7896453E+02  0.7818608E-02  0.1332016E+00
          2   -1    0    0  501    0  0.00000000000E+00  0.00000000000E+00  0.63363585598E+02  0.63363585650E+02  0.25500000000E-02 0. -1.
         -1   -1    0    0    0  501 -0.00000000000E+00 -0.00000000000E+00 -0.24601656452E+02  0.24601656968E+02  0.50400000000E-02 0.  1.
         24    2    1    2    0    0  0.00000000000E+00  0.00000000000E+00  0.38761929147E+02  0.87965242618E+02  0.78964528477E+02 0.  0.
         66    2    3    3    0    0  0.34105399314E+02  0.19184821659E+02  0.13756052606E+02  0.41526673841E+02  0.20000031452E+01 0.  0.
        -13    1    3    3    0    0 -0.34105399314E+02 -0.19184821659E+02  0.25005876541E+02  0.46438568777E+02  0.10566000000E+00 0.  1.
         13    1    4    4    0    0  0.24896481692E+02  0.13701173540E+02  0.10407643667E+02  0.30263627802E+02  0.10566000000E+00 0. -1.
        -13    1    4    4    0    0  0.19479421265E+01  0.10139474420E+01  0.35865384863E+00  0.22276365417E+01  0.10566000000E+00 0.  1.
        -14    1    4    4    0    0  0.72609754954E+01  0.44697006770E+01  0.29897550907E+01  0.90354094976E+01  0.00000000000E+00 0.  1.
<mgrwt>
<rscale>  0 0.78964528E+02</rscale>
<asrwt>0</asrwt>
<pdfrwt beam="1">  1        2 0.97482440E-02 0.78964528E+02</pdfrwt>
<pdfrwt beam="2">  1       -1 0.37848702E-02 0.78964528E+02</pdfrwt>
<totfact> 0.16332693E+05</totfact>
</mgrwt>
</event>
<event>
 8    1  0.1493610E-013  0.7996966E+02  0.7818608E-02  0.1329138E+00
         -1   -1    0    0    0  501 -0.00000000000E+00  0.00000000000E+00  0.34611406007E+01  0.34611442702E+01  0.50400000000E-02 0.  1.
          2   -1    0    0  501    0  0.00000000000E+00 -0.00000000000E+00 -0.46192451972E+03  0.46192451973E+03  0.25500000000E-02 0. -1.
         24    2    1    2    0    0  0.00000000000E+00  0.00000000000E+00 -0.45846337912E+03  0.46538566400E+03  0.79969658375E+02 0.  0.
         66    2    3    3    0    0  0.10955408406E+02 -0.25442002886E+02 -0.39697961163E+03  0.39794990706E+03  0.19999999879E+01 0.  0.
        -13    1    3    3    0    0 -0.10955408406E+02  0.25442002886E+02 -0.61483767491E+02  0.67435756933E+02  0.10566000000E+00 0.  1.
         13    1    4    4    0    0  0.11125480685E+01 -0.28957037354E+01 -0.42701739704E+02  0.42814397124E+02  0.10566000000E+00 0. -1.
        -13    1    4    4    0    0  0.92758551646E+01 -0.21420350105E+02 -0.32967634070E+03  0.33050169994E+03  0.10566000000E+00 0.  1.
        -14    1    4    4    0    0  0.56700517256E+00 -0.11259490454E+01 -0.24601531228E+02  0.24633809996E+02  0.00000000000E+00 0.  1.
<mgrwt>
<rscale>  0 0.79969658E+02</rscale>
<asrwt>0</asrwt>
<pdfrwt beam="1">  1        2 0.71065262E-01 0.79969658E+02</pdfrwt>
<pdfrwt beam="2">  1       -1 0.53248382E-03 0.79969658E+02</pdfrwt>
<totfact> 0.29705784E+05</totfact>
</mgrwt>
</event>
<event>
 8    1  0.1493610E-013  0.7745090E+02  0.7818608E-02  0.1336445E+00
          2   -1    0    0  501    0  0.00000000000E+00  0.00000000000E+00  0.32719841438E+02  0.32719841537E+02  0.25500000000E-02 0. -1.
         -1   -1    0    0    0  501 -0.00000000000E+00 -0.00000000000E+00 -0.45833360811E+02  0.45833361088E+02  0.50400000000E-02 0.  1.
         24    2    1    2    0    0  0.00000000000E+00 -0.35527136788E-14 -0.13113519373E+02  0.78553202625E+02  0.77450895749E+02 0.  0.
         66    2    3    3    0    0  0.14764967194E+02  0.18765378968E+02  0.24327403845E+02  0.34146248221E+02  0.19999964247E+01 0.  0.
        -13    1    3    3    0    0 -0.14764967194E+02 -0.18765378968E+02 -0.37440923218E+02  0.44406954404E+02  0.10566000000E+00 0.  1.
         13    1    4    4    0    0  0.70442340035E+01  0.91133163617E+01  0.12600632703E+02  0.17072225290E+02  0.10566000000E+00 0. -1.
        -13    1    4    4    0    0  0.68632143709E+01  0.84631451345E+01  0.10785831219E+02  0.15332118451E+02  0.10566000000E+00 0.  1.
        -14    1    4    4    0    0  0.85751881931E+00  0.11889174714E+01  0.94093992356E+00  0.17419044804E+01  0.00000000000E+00 0.  1.
<mgrwt>
<rscale>  0 0.77450896E+02</rscale>
<asrwt>0</asrwt>
<pdfrwt beam="1">  1        2 0.50338218E-02 0.77450896E+02</pdfrwt>
<pdfrwt beam="2">  1       -1 0.70512864E-02 0.77450896E+02</pdfrwt>
<totfact> 0.14979528E+05</totfact>
</mgrwt>
</event>
<event>
 8    1  0.1493610E-013  0.8022200E+02  0.7818608E-02  0.1328423E+00
         -1   -1    0    0    0  501 -0.00000000000E+00  0.00000000000E+00  0.10158488033E+03  0.10158488046E+03  0.50400000000E-02 0.  1.
          2   -1    0    0  501    0  0.00000000000E+00 -0.00000000000E+00 -0.15837912437E+02  0.15837912642E+02  0.25500000000E-02 0. -1.
         24    2    1    2    0    0  0.00000000000E+00  0.00000000000E+00  0.85746967898E+02  0.11742279310E+03  0.80222003441E+02 0.  0.
         66    2    3    3    0    0  0.21919965123E+02 -0.33157530610E+02  0.35297036080E+02  0.53195746683E+02  0.20000005037E+01 0.  0.
        -13    1    3    3    0    0 -0.21919965123E+02  0.33157530610E+02  0.50449931818E+02  0.64227046418E+02  0.10566000000E+00 0.  1.
         13    1    4    4    0    0  0.12605804581E+02 -0.19743258439E+02  0.20142957162E+02  0.30894213863E+02  0.10566000000E+00 0. -1.
        -13    1    4    4    0    0  0.11317502269E+01 -0.13897280530E+01  0.13180970859E+01  0.22272733557E+01  0.10566000000E+00 0. -1.
         14    1    4    4    0    0  0.81824103154E+01 -0.12024544118E+02  0.13835981832E+02  0.20074259465E+02  0.00000000000E+00 0. -1.
<mgrwt>
<rscale>  0 0.80222003E+02</rscale>
<asrwt>0</asrwt>
<pdfrwt beam="1">  1        2 0.24366019E-02 0.80222003E+02</pdfrwt>
<pdfrwt beam="2">  1       -1 0.15628444E-01 0.80222003E+02</pdfrwt>
<totfact> 0.11731661E+05</totfact>
</mgrwt>
</event>
<event>
 8    1  0.1493610E-013  0.7607078E+02  0.7818608E-02  0.1340587E+00
          2   -1    0    0  501    0  0.00000000000E+00  0.00000000000E+00  0.35542879696E+03  0.35542879697E+03  0.25500000000E-02 0. -1.
         -1   -1    0    0    0  501 -0.00000000000E+00 -0.00000000000E+00 -0.40702677919E+01  0.40702709123E+01  0.50400000000E-02 0.  1.
         24    2    1    2    0    0  0.00000000000E+00  0.00000000000E+00  0.35135852917E+03  0.35949906788E+03  0.76070781437E+02 0.  0.
         66    2    3    3    0    0 -0.31539312054E+02 -0.20963251050E+02  0.16048690734E+03  0.16490674203E+03  0.20000094712E+01 0.  0.
        -13    1    3    3    0    0  0.31539312054E+02  0.20963251050E+02  0.19087162182E+03  0.19459232585E+03  0.10566000000E+00 0.  1.
         13    1    4    4    0    0 -0.21805136772E+02 -0.14177778718E+02  0.11246006423E+03  0.11542855196E+03  0.10566000000E+00 0. -1.
        -13    1    4    4    0    0 -0.68945982796E+01 -0.52538733302E+01  0.34751823004E+02  0.35816742406E+02  0.10566000000E+00 0.  1.
        -14    1    4    4    0    0 -0.28395770026E+01 -0.15315990017E+01  0.13275020114E+02  0.13661447657E+02  0.00000000000E+00 0.  1.
<mgrwt>
<rscale>  0 0.76070781E+02</rscale>
<asrwt>0</asrwt>
<pdfrwt beam="1">  1        2 0.54681357E-01 0.76070781E+02</pdfrwt>
<pdfrwt beam="2">  1       -1 0.62619525E-03 0.76070781E+02</pdfrwt>
<totfact> 0.30903616E+05</totfact>
</mgrwt>
</event>
<event>
 8    1  0.1493610E-013  0.7937027E+02  0.7818608E-02  0.1330848E+00
         -1   -1    0    0    0  501 -0.00000000000E+00  0.00000000000E+00  0.19990940698E+02  0.19990941334E+02  0.50400000000E-02 0.  1.
          2   -1    0    0  501    0  0.00000000000E+00 -0.00000000000E+00 -0.78781171134E+02  0.78781171175E+02  0.25500000000E-02 0. -1.
         24    2    1    2    0    0 -0.22204460493E-15  0.00000000000E+00 -0.58790230436E+02  0.98772112509E+02  0.79370265306E+02 0.  0.
         66    2    3    3    0    0  0.14074070505E+01  0.21892131958E+02 -0.70530585899E+02  0.73890526010E+02  0.20000126210E+01 0.  0.
        -13    1    3    3    0    0 -0.14074070505E+01 -0.21892131958E+02  0.11740355463E+02  0.24881586499E+02  0.10566000000E+00 0.  1.
         13    1    4    4    0    0  0.13717217375E+00  0.36576402125E+01 -0.11126042178E+02  0.11713117719E+02  0.10566000000E+00 0.  1.
        -13    1    4    4    0    0 -0.18074431107E+00  0.98206306958E+01 -0.31639558094E+02  0.33129296041E+02  0.10566000000E+00 0. -1.
         14    1    4    4    0    0  0.14509791878E+01  0.84138610496E+01 -0.27764985628E+02  0.29048112250E+02  0.00000000000E+00 0. -1.
<mgrwt>
<rscale>  0 0.79370265E+02</rscale>
<asrwt>0</asrwt>
<pdfrwt beam="1">  1        2 0.12120180E-01 0.79370265E+02</pdfrwt>
<pdfrwt beam="2">  1       -1 0.30755294E-02 0.79370265E+02</pdfrwt>
<totfact> 0.16988222E+05</totfact>
</mgrwt>
</event>
<event>
 8    1  0.1493610E-013  0.8125622E+02  0.7818608E-02  0.1325524E+00
         -1   -1    0    0    0  501 -0.00000000000E+00  0.00000000000E+00  0.39103850832E+01  0.39103883311E+01  0.50400000000E-02 0.  1.
          2   -1    0    0  501    0  0.00000000000E+00 -0.00000000000E+00 -0.42211766538E+03  0.42211766539E+03  0.25500000000E-02 0. -1.
         24    2    1    2    0    0  0.00000000000E+00 -0.71054273576E-14 -0.41820728030E+03  0.42602805372E+03  0.81256219837E+02 0.  0.
         66    2    3    3    0    0  0.20664900326E+02  0.34933671297E+02 -0.21506562244E+03  0.21887124399E+03  0.19999987225E+01 0.  0.
        -13    1    3    3    0    0 -0.20664900326E+02 -0.34933671297E+02 -0.20314165786E+03  0.20715680973E+03  0.10566000000E+00 0.  1.
         13    1    4    4    0    0  0.16071448020E+02  0.28170024861E+02 -0.17047303685E+03  0.17353071544E+03  0.10566000000E+00 0. -1.
        -13    1    4    4    0    0  0.38907726233E+01  0.54358928082E+01 -0.35352506533E+02  0.35979131791E+02  0.10566000000E+00 0.  1.
         14    1    4    4    0    0  0.70267968191E+00  0.13277536274E+01 -0.92400790494E+01  0.93613967585E+01  0.00000000000E+00 0. -1.
<mgrwt>
<rscale>  0 0.81256220E+02</rscale>
<asrwt>0</asrwt>
<pdfrwt beam="1">  1        2 0.64941143E-01 0.81256220E+02</pdfrwt>
<pdfrwt beam="2">  1       -1 0.60159829E-03 0.81256220E+02</pdfrwt>
<totfact> 0.27637606E+05</totfact>
</mgrwt>
</event>
<event>
 8    1  0.1493610E-013  0.7716792E+02  0.7818608E-02  0.1337286E+00
          2   -1    0    0  501    0  0.00000000000E+00  0.00000000000E+00  0.12942734446E+03  0.12942734449E+03  0.25500000000E-02 0. -1.
         -1   -1    0    0    0  501 -0.00000000000E+00 -0.00000000000E+00 -0.11502376067E+02  0.11502377171E+02  0.50400000000E-02 0.  1.
         24    2    1    2    0    0  0.00000000000E+00  0.88817841970E-15  0.11792496840E+03  0.14092972166E+03  0.77167922583E+02 0.  0.
         66    2    3    3    0    0 -0.35451694950E+02  0.68086924981E+01  0.83743514543E+02  0.91214895703E+02  0.20000004452E+01 0.  0.
        -13    1    3    3    0    0  0.35451694950E+02 -0.68086924981E+01  0.34181453853E+02  0.49714825956E+02  0.10566000000E+00 0.  1.
         13    1    4    4    0    0 -0.19862353260E+02  0.31020144110E+01  0.45635327676E+02  0.49867122101E+02  0.10566000000E+00 0. -1.
        -13    1    4    4    0    0 -0.53846686336E+01  0.12278653829E+01  0.14093219313E+02  0.15137116777E+02  0.10566000000E+00 0.  1.
         14    1    4    4    0    0 -0.10204673056E+02  0.24788127042E+01  0.24014967554E+02  0.26210656826E+02  0.00000000000E+00 0. -1.
<mgrwt>
<rscale>  0 0.77167923E+02</rscale>
<asrwt>0</asrwt>
<pdfrwt beam="1">  1        2 0.19911900E-01 0.77167923E+02</pdfrwt>
<pdfrwt beam="2">  1       -1 0.17695963E-02 0.77167923E+02</pdfrwt>
<totfact> 0.21041821E+05</totfact>
</mgrwt>
</event>
<event>
 8    1  0.1493610E-013  0.7434004E+02  0.7818608E-02  0.1345927E+00
          2   -1    0    0  501    0  0.00000000000E+00  0.00000000000E+00  0.79215113980E+03  0.79215113981E+03  0.25500000000E-02 0. -1.
         -1   -1    0    0    0  501 -0.00000000000E+00 -0.00000000000E+00 -0.17441212434E+01  0.17441285254E+01  0.50400000000E-02 0.  1.
         24    2    1    2    0    0  0.17763568394E-14  0.00000000000E+00  0.79040701856E+03  0.79389526833E+03  0.74340043668E+02 0.  0.
         66    2    3    3    0    0 -0.12688790298E+02 -0.11072316846E+02  0.74903520855E+03  0.74922716532E+03  0.20000000610E+01 0.  0.
        -13    1    3    3    0    0  0.12688790298E+02  0.11072316846E+02  0.41371810005E+02  0.44668103012E+02  0.10566000000E+00 0.  1.
         13    1    4    4    0    0 -0.80328163113E+01 -0.73696623807E+01  0.49847572958E+03  0.49859492798E+03  0.10566000000E+00 0. -1.
        -13    1    4    4    0    0 -0.30334981647E+01 -0.20249405259E+01  0.13568743487E+03  0.13573648603E+03  0.10566000000E+00 0.  1.
        -14    1    4    4    0    0 -0.16224758224E+01 -0.16777139391E+01  0.11487204410E+03  0.11489575130E+03  0.00000000000E+00 0.  1.
<mgrwt>
<rscale>  0 0.74340044E+02</rscale>
<asrwt>0</asrwt>
<pdfrwt beam="1">  1        2 0.12186933E+00 0.74340044E+02</pdfrwt>
<pdfrwt beam="2">  1       -1 0.26832707E-03 0.74340044E+02</pdfrwt>
<totfact> 0.41480873E+05</totfact>
</mgrwt>
</event>
<event>
 8    1  0.1493610E-013  0.7997257E+02  0.7818608E-02  0.1329129E+00
          2   -1    0    0  501    0  0.00000000000E+00  0.00000000000E+00  0.15472565671E+02  0.15472565881E+02  0.25500000000E-02 0. -1.
         -1   -1    0    0    0  501 -0.00000000000E+00 -0.00000000000E+00 -0.10333793113E+03  0.10333793125E+03  0.50400000000E-02 0.  1.
         24    2    1    2    0    0  0.00000000000E+00  0.00000000000E+00 -0.87865365454E+02  0.11881049713E+03  0.79972568933E+02 0.  0.
         66    2    3    3    0    0  0.39039354772E+02 -0.28371828342E+01 -0.32003014642E+02  0.50599543245E+02  0.20000007459E+01 0.  0.
        -13    1    3    3    0    0 -0.39039354772E+02  0.28371828342E+01 -0.55862350813E+02  0.68210953884E+02  0.10566000000E+00 0.  1.
         13    1    4    4    0    0  0.95576409723E+01 -0.71909742549E+00 -0.74192640050E+01  0.12121148645E+02  0.10566000000E+00 0. -1.
        -13    1    4    4    0    0  0.16219830088E+02 -0.19019183938E+01 -0.13956163700E+02  0.21482221741E+02  0.10566000000E+00 0.  1.
        -14    1    4    4    0    0  0.13261883712E+02 -0.21616701493E+00 -0.10627586936E+02  0.16996172859E+02  0.00000000000E+00 0.  1.
<mgrwt>
<rscale>  0 0.79972569E+02</rscale>
<asrwt>0</asrwt>
<pdfrwt beam="1">  1        2 0.23803948E-02 0.79972569E+02</pdfrwt>
<pdfrwt beam="2">  1       -1 0.15898143E-01 0.79972569E+02</pdfrwt>
<totfact> 0.11779540E+05</totfact>
</mgrwt>
</event>
<event>
 8    1  0.1493610E-013  0.8014975E+02  0.7818608E-02  0.1328627E+00
          2   -1    0    0  501    0  0.00000000000E+00  0.00000000000E+00  0.85131465907E+03  0.85131465907E+03  0.25500000000E-02 0. -1.
         -1   -1    0    0    0  501 -0.00000000000E+00 -0.00000000000E+00 -0.18864853702E+01  0.18864921027E+01  0.50400000000E-02 0.  1.
         24    2    1    2    0    0  0.00000000000E+00 -0.35527136788E-14  0.84942817370E+03  0.85320115118E+03  0.80149747935E+02 0.  0.
         66    2    3    3    0    0  0.14390260794E+01 -0.27167999320E+02  0.73784554990E+03  0.73834966411E+03  0.20000006225E+01 0.  0.
        -13    1    3    3    0    0 -0.14390260794E+01  0.27167999320E+02  0.11158262380E+03  0.11485148707E+03  0.10566000000E+00 0.  1.
         13    1    4    4    0    0 -0.20048673475E+00 -0.40599305632E+01  0.96544508619E+02  0.96630101623E+02  0.10566000000E+00 0. -1.
        -13    1    4    4    0    0  0.37738164229E+00 -0.34628966187E+01  0.93504635730E+02  0.93569557747E+02  0.10566000000E+00 0. -1.
         14    1    4    4    0    0  0.12621311718E+01 -0.19645172138E+02  0.54779640555E+03  0.54815000474E+03  0.00000000000E+00 0. -1.
<mgrwt>
<rscale>  0 0.80149748E+02</rscale>
<asrwt>0</asrwt>
<pdfrwt beam="1">  1        2 0.13097177E+00 0.80149748E+02</pdfrwt>
<pdfrwt beam="2">  1       -1 0.29022841E-03 0.80149748E+02</pdfrwt>
<totfact> 0.34534746E+05</totfact>
</mgrwt>
</event>
<event>
 8    1  0.1493610E-013  0.7904699E+02  0.7818608E-02  0.1331778E+00
          2   -1    0    0  501    0  0.00000000000E+00  0.00000000000E+00  0.79145113003E+02  0.79145113045E+02  0.25500000000E-02 0. -1.
         -1   -1    0    0    0  501 -0.00000000000E+00 -0.00000000000E+00 -0.19737246912E+02  0.19737247556E+02  0.50400000000E-02 0.  1.
         24    2    1    2    0    0  0.44408920985E-15 -0.35527136788E-14  0.59407866091E+02  0.98882360600E+02  0.79046990356E+02 0.  0.
         66    2    3    3    0    0  0.30342861137E+01 -0.15033612057E+02  0.75255514622E+02  0.76828437781E+02  0.19999968051E+01 0.  0.
        -13    1    3    3    0    0 -0.30342861137E+01  0.15033612057E+02 -0.15847648530E+02  0.22053922819E+02  0.10566000000E+00 0.  1.
         13    1    4    4    0    0  0.16094939477E+01 -0.64049245775E+01  0.36610790341E+02  0.37201809943E+02  0.10566000000E+00 0. -1.
        -13    1    4    4    0    0  0.95060751706E+00 -0.69016943935E+01  0.31410155018E+02  0.32173685559E+02  0.10566000000E+00 0.  1.
         14    1    4    4    0    0  0.47418464892E+00 -0.17269930864E+01  0.72345692623E+01  0.74529422789E+01  0.00000000000E+00 0. -1.
<mgrwt>
<rscale>  0 0.79046990E+02</rscale>
<asrwt>0</asrwt>
<pdfrwt beam="1">  1        2 0.12176171E-01 0.79046990E+02</pdfrwt>
<pdfrwt beam="2">  1       -1 0.30364996E-02 0.79046990E+02</pdfrwt>
<totfact> 0.17196191E+05</totfact>
</mgrwt>
</event>
<event>
 8    1  0.1493610E-013  0.8540262E+02  0.7818608E-02  0.1314383E+00
          2   -1    0    0  501    0  0.00000000000E+00  0.00000000000E+00  0.25487906216E+03  0.25487906217E+03  0.25500000000E-02 0. -1.
         -1   -1    0    0    0  501 -0.00000000000E+00 -0.00000000000E+00 -0.71539873377E+01  0.71539891130E+01  0.50400000000E-02 0.  1.
         24    2    1    2    0    0  0.00000000000E+00  0.17763568394E-14  0.24772507482E+03  0.26203305128E+03  0.85402618638E+02 0.  0.
         66    2    3    3    0    0 -0.31657556675E+02 -0.85500868894E+01  0.20773742296E+03  0.21031914265E+03  0.19999970696E+01 0.  0.
        -13    1    3    3    0    0  0.31657556675E+02  0.85500868894E+01  0.39987651861E+02  0.51713908630E+02  0.10566000000E+00 0.  1.
         13    1    4    4    0    0 -0.19299172633E+02 -0.57533550001E+01  0.13266472446E+03  0.13418457228E+03  0.10566000000E+00 0. -1.
        -13    1    4    4    0    0 -0.12191301440E+02 -0.27583327484E+01  0.74061302724E+02  0.75108747531E+02  0.10566000000E+00 0.  1.
         14    1    4    4    0    0 -0.16708260117E+00 -0.38399140878E-01  0.10113957699E+01  0.10258228371E+01  0.00000000000E+00 0. -1.
<mgrwt>
<rscale>  0 0.85402619E+02</rscale>
<asrwt>0</asrwt>
<pdfrwt beam="1">  1        2 0.39212166E-01 0.85402619E+02</pdfrwt>
<pdfrwt beam="2">  1       -1 0.11006135E-02 0.85402619E+02</pdfrwt>
<totfact> 0.20229928E+05</totfact>
</mgrwt>
</event>
<event>
 8    1  0.1493610E-013  0.7939293E+02  0.7818608E-02  0.1330783E+00
         -1   -1    0    0    0  501 -0.00000000000E+00  0.00000000000E+00  0.13053486791E+01  0.13053584089E+01  0.50400000000E-02 0.  1.
          2   -1    0    0  501    0  0.00000000000E+00 -0.00000000000E+00 -0.12071896098E+04  0.12071896098E+04  0.25500000000E-02 0. -1.
         24    2    1    2    0    0  0.88817841970E-15  0.00000000000E+00 -0.12058842611E+04  0.12084949682E+04  0.79392927732E+02 0.  0.
         66    2    3    3    0    0 -0.37260770314E+01 -0.10409986437E+02 -0.11832588624E+04  0.11833122102E+04  0.19999988785E+01 0.  0.
        -13    1    3    3    0    0  0.37260770314E+01  0.10409986437E+02 -0.22625398738E+02  0.25182757986E+02  0.10566000000E+00 0.  1.
         13    1    4    4    0    0 -0.17556813347E+01 -0.67059128624E+01 -0.77851654801E+03  0.77854741563E+03  0.10566000000E+00 0. -1.
        -13    1    4    4    0    0 -0.25001451737E+00 -0.39683105097E+00 -0.28975061975E+02  0.28979050410E+02  0.10566000000E+00 0.  1.
         14    1    4    4    0    0 -0.17203811793E+01 -0.33072425233E+01 -0.37576725240E+03  0.37578574420E+03  0.00000000000E+00 0. -1.
<mgrwt>
<rscale>  0 0.79392928E+02</rscale>
<asrwt>0</asrwt>
<pdfrwt beam="1">  1        2 0.18572059E+00 0.79392928E+02</pdfrwt>
<pdfrwt beam="2">  1       -1 0.20082459E-03 0.79392928E+02</pdfrwt>
<totfact> 0.35713501E+05</totfact>
</mgrwt>
</event>
<event>
 8    1  0.1493610E-013  0.7419301E+02  0.7818608E-02  0.1346388E+00
          2   -1    0    0  501    0  0.00000000000E+00  0.00000000000E+00  0.18176464231E+03  0.18176464233E+03  0.25500000000E-02 0. -1.
         -1   -1    0    0    0  501 -0.00000000000E+00 -0.00000000000E+00 -0.75710580474E+01  0.75710597249E+01  0.50400000000E-02 0.  1.
         24    2    1    2    0    0  0.00000000000E+00  0.00000000000E+00  0.17419358427E+03  0.18933570206E+03  0.74193013645E+02 0.  0.
         66    2    3    3    0    0  0.25164689350E+02 -0.10797302918E+02  0.15092266169E+03  0.15339978212E+03  0.20000002990E+01 0.  0.
        -13    1    3    3    0    0 -0.25164689350E+02  0.10797302918E+02  0.23270922575E+02  0.35935919940E+02  0.10566000000E+00 0.  1.
         13    1    4    4    0    0  0.10762649443E+02 -0.43856795701E+01  0.64866596706E+02  0.65899585284E+02  0.10566000000E+00 0. -1.
        -13    1    4    4    0    0  0.27617607350E+01 -0.95627322437E+00  0.18879605195E+02  0.19104775246E+02  0.10566000000E+00 0.  1.
        -14    1    4    4    0    0  0.11640279172E+02 -0.54553501233E+01  0.67176459790E+02  0.68395421587E+02  0.00000000000E+00 0.  1.
<mgrwt>
<rscale>  0 0.74193014E+02</rscale>
<asrwt>0</asrwt>
<pdfrwt beam="1">  1        2 0.27963791E-01 0.74193014E+02</pdfrwt>
<pdfrwt beam="2">  1       -1 0.11647783E-02 0.74193014E+02</pdfrwt>
<totfact> 0.26027286E+05</totfact>
</mgrwt>
</event>
<event>
 8    1  0.1493610E-013  0.8076889E+02  0.7818608E-02  0.1326883E+00
         -1   -1    0    0    0  501 -0.00000000000E+00  0.00000000000E+00  0.15784727172E+01  0.15784807634E+01  0.50400000000E-02 0.  1.
          2   -1    0    0  501    0  0.00000000000E+00 -0.00000000000E+00 -0.10332135691E+04  0.10332135691E+04  0.25500000000E-02 0. -1.
         24    2    1    2    0    0  0.17763568394E-14  0.00000000000E+00 -0.10316350964E+04  0.10347920498E+04  0.80768894867E+02 0.  0.
         66    2    3    3    0    0  0.12670743643E+02 -0.25083193431E+02 -0.88727281484E+03  0.88771997966E+03  0.20000009215E+01 0.  0.
        -13    1    3    3    0    0 -0.12670743643E+02  0.25083193431E+02 -0.14436228151E+03  0.14707207017E+03  0.10566000000E+00 0.  1.
         13    1    4    4    0    0  0.57724006989E+01 -0.10157355608E+02 -0.36788670953E+03  0.36807218680E+03  0.10566000000E+00 0. -1.
        -13    1    4    4    0    0  0.12238831597E+01 -0.28545567576E+01 -0.84231887837E+02  0.84289195493E+02  0.10566000000E+00 0.  1.
        -14    1    4    4    0    0  0.56744597841E+01 -0.12071281065E+02 -0.43515421747E+03  0.43535859737E+03  0.00000000000E+00 0.  1.
<mgrwt>
<rscale>  0 0.80768895E+02</rscale>
<asrwt>0</asrwt>
<pdfrwt beam="1">  1        2 0.15895539E+00 0.80768895E+02</pdfrwt>
<pdfrwt beam="2">  1       -1 0.24284340E-03 0.80768895E+02</pdfrwt>
<totfact> 0.34400454E+05</totfact>
</mgrwt>
</event>
<event>
 8    1  0.1493610E-013  0.7990386E+02  0.7818608E-02  0.1329324E+00
          2   -1    0    0  501    0  0.00000000000E+00  0.00000000000E+00  0.42189115294E+02  0.42189115372E+02  0.25500000000E-02 0. -1.
         -1   -1    0    0    0  501 -0.00000000000E+00 -0.00000000000E+00 -0.37833378538E+02  0.37833378873E+02  0.50400000000E-02 0.  1.
         24    2    1    2    0    0  0.00000000000E+00 -0.17763568394E-14  0.43557367569E+01  0.80022494245E+02  0.79903861875E+02 0.  0.
         66    2    3    3    0    0  0.36417129639E+02 -0.11187817707E+02  0.14145913425E+02  0.40687607447E+02  0.19999842254E+01 0.  0.
        -13    1    3    3    0    0 -0.36417129639E+02  0.11187817707E+02 -0.97901766682E+01  0.39334886798E+02  0.10566000000E+00 0.  1.
         13    1    4    4    0    0  0.79047633634E+00 -0.29287004214E+00  0.58237405845E+00  0.10300239218E+01  0.10566000000E+00 0. -1.
        -13    1    4    4    0    0  0.28859355328E+02 -0.88097162097E+01  0.10614103127E+02  0.31986619685E+02  0.10566000000E+00 0.  1.
        -14    1    4    4    0    0  0.67672979751E+01 -0.20852314549E+01  0.29494362397E+01  0.76709638401E+01  0.00000000000E+00 0.  1.
<mgrwt>
<rscale>  0 0.79903862E+02</rscale>
<asrwt>0</asrwt>
<pdfrwt beam="1">  1        2 0.64906331E-02 0.79903862E+02</pdfrwt>
<pdfrwt beam="2">  1       -1 0.58205198E-02 0.79903862E+02</pdfrwt>
<totfact> 0.14460962E+05</totfact>
</mgrwt>
</event>
<event>
 8    1  0.1493610E-013  0.8154067E+02  0.7818608E-02  0.1324735E+00
         -1   -1    0    0    0  501 -0.00000000000E+00  0.00000000000E+00  0.10174916674E+03  0.10174916686E+03  0.50400000000E-02 0.  1.
          2   -1    0    0  501    0  0.00000000000E+00 -0.00000000000E+00 -0.16336450159E+02  0.16336450358E+02  0.25500000000E-02 0. -1.
         24    2    1    2    0    0  0.71054273576E-14  0.00000000000E+00  0.85412716579E+02  0.11808561722E+03  0.81540669859E+02 0.  0.
         66    2    3    3    0    0  0.32142893794E+02  0.16748701586E+02  0.69690342393E+02  0.78577531462E+02  0.20000003567E+01 0.  0.
        -13    1    3    3    0    0 -0.32142893794E+02 -0.16748701586E+02  0.15722374186E+02  0.39508085759E+02  0.10566000000E+00 0.  1.
         13    1    4    4    0    0  0.13225165573E+01  0.89336986257E+00  0.38289242514E+01  0.41495764500E+01  0.10566000000E+00 0.  1.
        -13    1    4    4    0    0  0.12929361440E+02  0.68730441965E+01  0.27223333354E+02  0.30911618637E+02  0.10566000000E+00 0. -1.
         14    1    4    4    0    0  0.17891015796E+02  0.89822875268E+01  0.38638084788E+02  0.43516336375E+02  0.00000000000E+00 0. -1.
<mgrwt>
<rscale>  0 0.81540670E+02</rscale>
<asrwt>0</asrwt>
<pdfrwt beam="1">  1        2 0.25133000E-02 0.81540670E+02</pdfrwt>
<pdfrwt beam="2">  1       -1 0.15653718E-01 0.81540670E+02</pdfrwt>
<totfact> 0.11260229E+05</totfact>
</mgrwt>
</event>
<event>
 8    1  0.1493610E-013  0.7829317E+02  0.7818608E-02  0.1333966E+00
          2   -1    0    0  501    0  0.00000000000E+00  0.00000000000E+00  0.81837838421E+03  0.81837838422E+03  0.25500000000E-02 0. -1.
         -1   -1    0    0    0  501 -0.00000000000E+00 -0.00000000000E+00 -0.18725476143E+01  0.18725543969E+01  0.50400000000E-02 0.  1.
         24    2    1    2    0    0 -0.17763568394E-14  0.00000000000E+00  0.81650583660E+03  0.82025093861E+03  0.78293174015E+02 0.  0.
         66    2    3    3    0    0  0.10779993564E+02 -0.33038142573E+01  0.80098477889E+03  0.80106662611E+03  0.20000004312E+01 0.  0.
        -13    1    3    3    0    0 -0.10779993564E+02  0.33038142573E+01  0.15521057711E+02  0.19184312508E+02  0.10566000000E+00 0.  1.
         13    1    4    4    0    0  0.24417405130E+01 -0.42399205142E+00  0.14656025566E+03  0.14658124562E+03  0.10566000000E+00 0. -1.
        -13    1    4    4    0    0  0.11205454544E+01 -0.82068642987E+00  0.85436214706E+02  0.85447569279E+02  0.10566000000E+00 0.  1.
         14    1    4    4    0    0  0.72177075965E+01 -0.20591357760E+01  0.56898830853E+03  0.56903781121E+03  0.00000000000E+00 0. -1.
<mgrwt>
<rscale>  0 0.78293174E+02</rscale>
<asrwt>0</asrwt>
<pdfrwt beam="1">  1        2 0.12590462E+00 0.78293174E+02</pdfrwt>
<pdfrwt beam="2">  1       -1 0.28808419E-03 0.78293174E+02</pdfrwt>
<totfact> 0.36481493E+05</totfact>
</mgrwt>
</event>
<event>
 8    1  0.1493610E-013  0.7996805E+02  0.7818608E-02  0.1329142E+00
          2   -1    0    0  501    0  0.00000000000E+00  0.00000000000E+00  0.18638128345E+04  0.18638128345E+04  0.25500000000E-02 0. -1.
         -1   -1    0    0    0  501 -0.00000000000E+00 -0.00000000000E+00 -0.85776227820E+00  0.85777708497E+00  0.50400000000E-02 0.  1.
         24    2    1    2    0    0 -0.55511151231E-16  0.00000000000E+00  0.18629550723E+04  0.18646706116E+04  0.79968047359E+02 0.  0.
         66    2    3    3    0    0 -0.31467772458E+00 -0.10379434084E+02  0.18317970126E+04  0.18318275375E+04  0.19999983996E+01 0.  0.
        -13    1    3    3    0    0  0.31467772458E+00  0.10379434084E+02  0.31158059634E+02  0.32843074127E+02  0.10566000000E+00 0.  1.
         13    1    4    4    0    0 -0.45535376452E+00 -0.44868982208E+01  0.86855829718E+03  0.86857001236E+03  0.10566000000E+00 0. -1.
        -13    1    4    4    0    0 -0.27120100305E+00 -0.43274981278E+01  0.63429833631E+03  0.63431316508E+03  0.10566000000E+00 0.  1.
         14    1    4    4    0    0  0.41187704299E+00 -0.15650377349E+01  0.32894037914E+03  0.32894436006E+03  0.00000000000E+00 0. -1.
<mgrwt>
<rscale>  0 0.79968047E+02</rscale>
<asrwt>0</asrwt>
<pdfrwt beam="1">  1        2 0.28674036E+00 0.79968047E+02</pdfrwt>
<pdfrwt beam="2">  1       -1 0.13196460E-03 0.79968047E+02</pdfrwt>
<totfact> 0.29494078E+05</totfact>
</mgrwt>
</event>
<event>
 8    1  0.1493610E-013  0.8506251E+02  0.7818608E-02  0.1315269E+00
         -1   -1    0    0    0  501 -0.00000000000E+00  0.00000000000E+00  0.66932217725E+02  0.66932217915E+02  0.50400000000E-02 0.  1.
          2   -1    0    0  501    0  0.00000000000E+00 -0.00000000000E+00 -0.27025959963E+02  0.27025960083E+02  0.25500000000E-02 0. -1.
         24    2    1    2    0    0  0.00000000000E+00 -0.35527136788E-14  0.39906257762E+02  0.93958177998E+02  0.85062505277E+02 0.  0.
         66    2    3    3    0    0  0.10066480343E+02  0.25865256959E+02 -0.15598428918E+02  0.31900729198E+02  0.19999986610E+01 0.  0.
        -13    1    3    3    0    0 -0.10066480343E+02 -0.25865256959E+02  0.55504686680E+02  0.62057448799E+02  0.10566000000E+00 0.  1.
         13    1    4    4    0    0  0.25776550026E+01  0.67661693547E+01 -0.34715447724E+01  0.80304508087E+01  0.10566000000E+00 0.  1.
        -13    1    4    4    0    0  0.35650840200E+01  0.10491840512E+02 -0.60238513147E+01  0.12612949302E+02  0.10566000000E+00 0. -1.
         14    1    4    4    0    0  0.39237413201E+01  0.86072470918E+01 -0.61030328306E+01  0.11257329087E+02  0.00000000000E+00 0. -1.
<mgrwt>
<rscale>  0 0.85062505E+02</rscale>
<asrwt>0</asrwt>
<pdfrwt beam="1">  1        2 0.41578400E-02 0.85062505E+02</pdfrwt>
<pdfrwt beam="2">  1       -1 0.10297264E-01 0.85062505E+02</pdfrwt>
<totfact> 0.11076877E+05</totfact>
</mgrwt>
</event>
<event>
 8    1  0.1493610E-013  0.7943418E+02  0.7818608E-02  0.1330665E+00
          2   -1    0    0  501    0  0.00000000000E+00  0.00000000000E+00  0.83937522782E+01  0.83937526655E+01  0.25500000000E-02 0. -1.
         -1   -1    0    0    0  501 -0.00000000000E+00 -0.00000000000E+00 -0.18793112368E+03  0.18793112375E+03  0.50400000000E-02 0.  1.
         24    2    1    2    0    0  0.71054273576E-14  0.35527136788E-14 -0.17953737140E+03  0.19632487641E+03  0.79434182621E+02 0.  0.
         66    2    3    3    0    0  0.32281107379E+02  0.19657811496E+02 -0.59865402689E+02  0.70826307872E+02  0.20000002943E+01 0.  0.
        -13    1    3    3    0    0 -0.32281107379E+02 -0.19657811496E+02 -0.11967196871E+03  0.12549856854E+03  0.10566000000E+00 0.  1.
         13    1    4    4    0    0  0.32958921058E+01  0.15345950619E+01 -0.56943294043E+01  0.67568068033E+01  0.10566000000E+00 0. -1.
        -13    1    4    4    0    0  0.43673816190E+01  0.21917388899E+01 -0.76580956567E+01  0.90848959647E+01  0.10566000000E+00 0. -1.
         14    1    4    4    0    0  0.24617833654E+02  0.15931477544E+02 -0.46512977629E+02  0.54984605104E+02  0.00000000000E+00 0. -1.
<mgrwt>
<rscale>  0 0.79434183E+02</rscale>
<asrwt>0</asrwt>
<pdfrwt beam="1">  1        2 0.12913467E-02 0.79434183E+02</pdfrwt>
<pdfrwt beam="2">  1       -1 0.28912478E-01 0.79434183E+02</pdfrwt>
<totfact> 0.10330706E+05</totfact>
</mgrwt>
</event>
<event>
 8    1  0.1493610E-013  0.8159204E+02  0.7818608E-02  0.1324593E+00
          2   -1    0    0  501    0  0.00000000000E+00  0.00000000000E+00  0.27296052335E+03  0.27296052337E+03  0.25500000000E-02 0. -1.
         -1   -1    0    0    0  501 -0.00000000000E+00 -0.00000000000E+00 -0.60972729174E+01  0.60972750005E+01  0.50400000000E-02 0.  1.
         24    2    1    2    0    0 -0.35527136788E-14  0.00000000000E+00  0.26686325044E+03  0.27905779837E+03  0.81592036349E+02 0.  0.
         66    2    3    3    0    0  0.30960631961E+02  0.23534304697E+02  0.17538386813E+03  0.17965501782E+03  0.19999997042E+01 0.  0.
        -13    1    3    3    0    0 -0.30960631961E+02 -0.23534304697E+02  0.91479382305E+02  0.99402780544E+02  0.10566000000E+00 0.  1.
         13    1    4    4    0    0  0.94200302695E+01  0.68701240345E+01  0.55958623085E+02  0.57160425437E+02  0.10566000000E+00 0. -1.
        -13    1    4    4    0    0  0.10544042606E+01  0.97773746278E+00  0.57874889430E+01  0.59643885849E+01  0.10566000000E+00 0.  1.
         14    1    4    4    0    0  0.20486197431E+02  0.15686443199E+02  0.11363775610E+03  0.11653020380E+03  0.00000000000E+00 0. -1.
<mgrwt>
<rscale>  0 0.81592036E+02</rscale>
<asrwt>0</asrwt>
<pdfrwt beam="1">  1        2 0.41993926E-01 0.81592036E+02</pdfrwt>
<pdfrwt beam="2">  1       -1 0.93804216E-03 0.81592036E+02</pdfrwt>
<totfact> 0.23393627E+05</totfact>
</mgrwt>
</event>
<event>
 8    1  0.1493610E-013  0.7897890E+02  0.7818608E-02  0.1331974E+00
         -1   -1    0    0    0  501 -0.00000000000E+00  0.00000000000E+00  0.44420001423E+01  0.44420030016E+01  0.50400000000E-02 0.  1.
          2   -1    0    0  501    0  0.00000000000E+00 -0.00000000000E+00 -0.35106166866E+03  0.35106166867E+03  0.25500000000E-02 0. -1.
         24    2    1    2    0    0  0.00000000000E+00  0.00000000000E+00 -0.34661966852E+03  0.35550367167E+03  0.78978895714E+02 0.  0.
         66    2    3    3    0    0 -0.35324429229E+02 -0.60098472069E+01 -0.24785858017E+03  0.25044322573E+03  0.19999977203E+01 0.  0.
        -13    1    3    3    0    0  0.35324429229E+02  0.60098472069E+01 -0.98761088352E+02  0.10506044594E+03  0.10566000000E+00 0.  1.
         13    1    4    4    0    0 -0.26012875027E+01 -0.89713297978E+00 -0.19113070418E+02  0.19310416077E+02  0.10566000000E+00 0.  1.
        -13    1    4    4    0    0 -0.17535357408E+02 -0.31102018239E+01 -0.12086858116E+03  0.12217359449E+03  0.10566000000E+00 0. -1.
         14    1    4    4    0    0 -0.15187784318E+02 -0.20025124033E+01 -0.10787692859E+03  0.10895921517E+03  0.00000000000E+00 0. -1.
<mgrwt>
<rscale>  0 0.78978896E+02</rscale>
<asrwt>0</asrwt>
<pdfrwt beam="1">  1        2 0.54009466E-01 0.78978896E+02</pdfrwt>
<pdfrwt beam="2">  1       -1 0.68338514E-03 0.78978896E+02</pdfrwt>
<totfact> 0.27900312E+05</totfact>
</mgrwt>
</event>
<event>
 8    1  0.1493610E-013  0.7427414E+02  0.7818608E-02  0.1346134E+00
         -1   -1    0    0    0  501 -0.00000000000E+00  0.00000000000E+00  0.27238418734E+01  0.27238465363E+01  0.50400000000E-02 0.  1.
          2   -1    0    0  501    0  0.00000000000E+00 -0.00000000000E+00 -0.50632920141E+03  0.50632920142E+03  0.25500000000E-02 0. -1.
         24    2    1    2    0    0  0.00000000000E+00 -0.17763568394E-14 -0.50360535954E+03  0.50905304796E+03  0.74274137329E+02 0.  0.
         66    2    3    3    0    0 -0.19707371312E+02 -0.14970541218E+02 -0.44150666674E+03  0.44220429030E+03  0.19999992849E+01 0.  0.
        -13    1    3    3    0    0  0.19707371312E+02  0.14970541218E+02 -0.62098692798E+02  0.66848757652E+02  0.10566000000E+00 0.  1.
         13    1    4    4    0    0 -0.16882933140E+02 -0.12755245056E+02 -0.38224462085E+03  0.38282984607E+03  0.10566000000E+00 0. -1.
        -13    1    4    4    0    0 -0.12027241732E+01 -0.12629695270E+01 -0.31934353190E+02  0.31982115552E+02  0.10566000000E+00 0.  1.
        -14    1    4    4    0    0 -0.16217139987E+01 -0.95232663485E+00 -0.27327692704E+02  0.27392328686E+02  0.00000000000E+00 0.  1.
<mgrwt>
<rscale>  0 0.74274137E+02</rscale>
<asrwt>0</asrwt>
<pdfrwt beam="1">  1        2 0.77896726E-01 0.74274137E+02</pdfrwt>
<pdfrwt beam="2">  1       -1 0.41905336E-03 0.74274137E+02</pdfrwt>
<totfact> 0.37073450E+05</totfact>
</mgrwt>
</event>
<event>
 8    1  0.1493610E-013  0.7991331E+02  0.7818608E-02  0.1329298E+00
         -1   -1    0    0    0  501 -0.00000000000E+00  0.00000000000E+00  0.16634023065E+03  0.16634023073E+03  0.50400000000E-02 0.  1.
          2   -1    0    0  501    0  0.00000000000E+00 -0.00000000000E+00 -0.95980034053E+01  0.95980037440E+01  0.25500000000E-02 0. -1.
         24    2    1    2    0    0 -0.35527136788E-14  0.00000000000E+00  0.15674222725E+03  0.17593823447E+03  0.79913306445E+02 0.  0.
         66    2    3    3    0    0 -0.21930703664E+02  0.15466115116E+02  0.13318800543E+02  0.30025771086E+02  0.20000003576E+01 0.  0.
        -13    1    3    3    0    0  0.21930703664E+02 -0.15466115116E+02  0.14342342670E+03  0.14591246339E+03  0.10566000000E+00 0.  1.
         13    1    4    4    0    0 -0.52065718653E+01  0.31965866544E+01  0.35419689667E+01  0.70628085790E+01  0.10566000000E+00 0. -1.
        -13    1    4    4    0    0 -0.66622952151E+01  0.42531503626E+01  0.40316995011E+01  0.88736255523E+01  0.10566000000E+00 0.  1.
         14    1    4    4    0    0 -0.10061836583E+02  0.80163780993E+01  0.57451320750E+01  0.14089336955E+02  0.00000000000E+00 0. -1.
<mgrwt>
<rscale>  0 0.79913306E+02</rscale>
<asrwt>0</asrwt>
<pdfrwt beam="1">  1        2 0.14766160E-02 0.79913306E+02</pdfrwt>
<pdfrwt beam="2">  1       -1 0.25590803E-01 0.79913306E+02</pdfrwt>
<totfact> 0.10527669E+05</totfact>
</mgrwt>
</event>
<event>
 8    1  0.1493610E-013  0.8060166E+02  0.7818608E-02  0.1327353E+00
          2   -1    0    0  501    0  0.00000000000E+00  0.00000000000E+00  0.48225336825E+03  0.48225336826E+03  0.25500000000E-02 0. -1.
         -1   -1    0    0    0  501 -0.00000000000E+00 -0.00000000000E+00 -0.33678477604E+01  0.33678515316E+01  0.50400000000E-02 0.  1.
         24    2    1    2    0    0 -0.71054273576E-14  0.00000000000E+00  0.47888552049E+03  0.48562121979E+03  0.80601658632E+02 0.  0.
         66    2    3    3    0    0 -0.36441845608E+02 -0.95345264921E+00  0.34276165615E+03  0.34470055136E+03  0.19999996570E+01 0.  0.
        -13    1    3    3    0    0  0.36441845608E+02  0.95345264921E+00  0.13612386435E+03  0.14092066843E+03  0.10566000000E+00 0.  1.
         13    1    4    4    0    0 -0.24708088636E+01 -0.42517836139E+00  0.21867830377E+02  0.22011334410E+02  0.10566000000E+00 0. -1.
        -13    1    4    4    0    0 -0.84045354812E+01 -0.22810244258E+00  0.83740034148E+02  0.84161111747E+02  0.10566000000E+00 0.  1.
         14    1    4    4    0    0 -0.25566501263E+02 -0.30017184524E+00  0.23715379162E+03  0.23852810520E+03  0.00000000000E+00 0. -1.
<mgrwt>
<rscale>  0 0.80601659E+02</rscale>
<asrwt>0</asrwt>
<pdfrwt beam="1">  1        2 0.74192862E-01 0.80601659E+02</pdfrwt>
<pdfrwt beam="2">  1       -1 0.51813046E-03 0.80601659E+02</pdfrwt>
<totfact> 0.29516744E+05</totfact>
</mgrwt>
</event>
<event>
 8    1  0.1493610E-013  0.8046673E+02  0.7818608E-02  0.1327732E+00
          2   -1    0    0  501    0  0.00000000000E+00  0.00000000000E+00  0.11706510242E+03  0.11706510245E+03  0.25500000000E-02 0. -1.
         -1   -1    0    0    0  501 -0.00000000000E+00 -0.00000000000E+00 -0.13827550988E+02  0.13827551906E+02  0.50400000000E-02 0.  1.
         24    2    1    2    0    0  0.00000000000E+00  0.00000000000E+00  0.10323755143E+03  0.13089265435E+03  0.80466731872E+02 0.  0.
         66    2    3    3    0    0  0.15873718052E+02  0.20655064343E+02  0.10147316458E+03  0.10478267862E+03  0.20000000574E+01 0.  0.
        -13    1    3    3    0    0 -0.15873718052E+02 -0.20655064343E+02  0.17643868460E+01  0.26109975733E+02  0.10566000000E+00 0.  1.
         13    1    4    4    0    0  0.54623123483E+01  0.68067187921E+01  0.36146967548E+02  0.37185786315E+02  0.10566000000E+00 0. -1.
        -13    1    4    4    0    0  0.34920762303E+00  0.19860904314E+00  0.15988021126E+01  0.16518849073E+01  0.10566000000E+00 0.  1.
         14    1    4    4    0    0  0.10062198080E+02  0.13649736507E+02  0.63727394925E+02  0.65945007399E+02  0.00000000000E+00 0. -1.
<mgrwt>
<rscale>  0 0.80466732E+02</rscale>
<asrwt>0</asrwt>
<pdfrwt beam="1">  1        2 0.18010016E-01 0.80466732E+02</pdfrwt>
<pdfrwt beam="2">  1       -1 0.21273155E-02 0.80466732E+02</pdfrwt>
<totfact> 0.18263462E+05</totfact>
</mgrwt>
</event>
<event>
 8    1  0.1493610E-013  0.7729127E+02  0.7818608E-02  0.1336919E+00
          2   -1    0    0  501    0  0.00000000000E+00  0.00000000000E+00  0.15541713450E+03  0.15541713452E+03  0.25500000000E-02 0. -1.
         -1   -1    0    0    0  501 -0.00000000000E+00 -0.00000000000E+00 -0.96095249693E+01  0.96095262910E+01  0.50400000000E-02 0.  1.
         24    2    1    2    0    0  0.00000000000E+00  0.00000000000E+00  0.14580760953E+03  0.16502666081E+03  0.77291265882E+02 0.  0.
         66    2    3    3    0    0 -0.24749800703E+02  0.22369375485E+02  0.11449364918E+03  0.11927169528E+03  0.19999991275E+01 0.  0.
        -13    1    3    3    0    0  0.24749800703E+02 -0.22369375485E+02  0.31313960348E+02  0.45754965535E+02  0.10566000000E+00 0.  1.
         13    1    4    4    0    0 -0.56977451261E+01  0.47009662765E+01  0.25151132836E+02  0.26213622993E+02  0.10566000000E+00 0. -1.
        -13    1    4    4    0    0 -0.41840095211E+00  0.46625490568E+00  0.15222424783E+01  0.16494966481E+01  0.10566000000E+00 0.  1.
        -14    1    4    4    0    0 -0.18633654625E+02  0.17202154303E+02  0.87820273869E+02  0.91408575635E+02  0.00000000000E+00 0.  1.
<mgrwt>
<rscale>  0 0.77291266E+02</rscale>
<asrwt>0</asrwt>
<pdfrwt beam="1">  1        2 0.23910329E-01 0.77291266E+02</pdfrwt>
<pdfrwt beam="2">  1       -1 0.14783885E-02 0.77291266E+02</pdfrwt>
<totfact> 0.22195450E+05</totfact>
</mgrwt>
</event>
<event>
 8    1  0.1493610E-013  0.8475659E+02  0.7818608E-02  0.1316070E+00
         -1   -1    0    0    0  501 -0.00000000000E+00  0.00000000000E+00  0.54404951931E+02  0.54404952164E+02  0.50400000000E-02 0.  1.
          2   -1    0    0  501    0  0.00000000000E+00 -0.00000000000E+00 -0.33010231143E+02  0.33010231242E+02  0.25500000000E-02 0. -1.
         24    2    1    2    0    0  0.00000000000E+00  0.17763568394E-14  0.21394720787E+02  0.87415183406E+02  0.84756593916E+02 0.  0.
         66    2    3    3    0    0  0.23905584461E+02  0.14937240658E+02 -0.21900257413E+02  0.35752194446E+02  0.20000015131E+01 0.  0.
        -13    1    3    3    0    0 -0.23905584461E+02 -0.14937240658E+02  0.43294978200E+02  0.51662988960E+02  0.10566000000E+00 0.  1.
         13    1    4    4    0    0  0.10910007422E+02  0.63255341490E+01 -0.93851131021E+01  0.15720437532E+02  0.10566000000E+00 0. -1.
        -13    1    4    4    0    0  0.82980405100E+01  0.60606750398E+01 -0.77554667300E+01  0.12874303340E+02  0.10566000000E+00 0.  1.
         14    1    4    4    0    0  0.46975365287E+01  0.25510314693E+01 -0.47596775806E+01  0.71574535742E+01  0.00000000000E+00 0. -1.
<mgrwt>
<rscale>  0 0.84756594E+02</rscale>
<asrwt>0</asrwt>
<pdfrwt beam="1">  1        2 0.50784971E-02 0.84756594E+02</pdfrwt>
<pdfrwt beam="2">  1       -1 0.83699927E-02 0.84756594E+02</pdfrwt>
<totfact> 0.11663175E+05</totfact>
</mgrwt>
</event>
<event>
 8    1  0.1493610E-013  0.8069491E+02  0.7818608E-02  0.1327091E+00
          2   -1    0    0  501    0  0.00000000000E+00  0.00000000000E+00  0.37030600453E+03  0.37030600454E+03  0.25500000000E-02 0. -1.
         -1   -1    0    0    0  501 -0.00000000000E+00 -0.00000000000E+00 -0.43961384588E+01  0.43961413479E+01  0.50400000000E-02 0.  1.
         24    2    1    2    0    0  0.71054273576E-14  0.00000000000E+00  0.36590986607E+03  0.37470214589E+03  0.80694907174E+02 0.  0.
         66    2    3    3    0    0 -0.32364390522E+02 -0.72779537292E+01  0.28951123883E+03  0.29141238786E+03  0.20000006831E+01 0.  0.
        -13    1    3    3    0    0  0.32364390522E+02  0.72779537292E+01  0.76398627235E+02  0.83289758025E+02  0.10566000000E+00 0.  1.
         13    1    4    4    0    0 -0.79272847470E+01 -0.13941659002E+01  0.67683361628E+02  0.68160356127E+02  0.10566000000E+00 0. -1.
        -13    1    4    4    0    0 -0.51138703496E+00 -0.30663641412E+00  0.47647880108E+01  0.48031147616E+01  0.10566000000E+00 0.  1.
        -14    1    4    4    0    0 -0.23925718740E+02 -0.55771514148E+01  0.21706308920E+03  0.21844891697E+03  0.00000000000E+00 0.  1.
<mgrwt>
<rscale>  0 0.80694907E+02</rscale>
<asrwt>0</asrwt>
<pdfrwt beam="1">  1        2 0.56970175E-01 0.80694907E+02</pdfrwt>
<pdfrwt beam="2">  1       -1 0.67632898E-03 0.80694907E+02</pdfrwt>
<totfact> 0.26880188E+05</totfact>
</mgrwt>
</event>
<event>
 8    1  0.1493610E-013  0.8090460E+02  0.7818608E-02  0.1326504E+00
          2   -1    0    0  501    0  0.00000000000E+00  0.00000000000E+00  0.97362139064E+02  0.97362139097E+02  0.25500000000E-02 0. -1.
         -1   -1    0    0    0  501 -0.00000000000E+00 -0.00000000000E+00 -0.16807237032E+02  0.16807237788E+02  0.50400000000E-02 0.  1.
         24    2    1    2    0    0 -0.35527136788E-14  0.35527136788E-14  0.80554902032E+02  0.11416937688E+03  0.80904600468E+02 0.  0.
         66    2    3    3    0    0 -0.29458902900E+02  0.23607029892E+02  0.60715826387E+02  0.71522936156E+02  0.20000005259E+01 0.  0.
        -13    1    3    3    0    0  0.29458902900E+02 -0.23607029892E+02  0.19839075645E+02  0.42646440729E+02  0.10566000000E+00 0.  1.
         13    1    4    4    0    0 -0.11737488537E+02  0.10263628470E+02  0.26225282047E+02  0.30510445572E+02  0.10566000000E+00 0. -1.
        -13    1    4    4    0    0 -0.55429741200E+01  0.38972906704E+01  0.10316608267E+02  0.12343298054E+02  0.10566000000E+00 0.  1.
         14    1    4    4    0    0 -0.12178440242E+02  0.94461107519E+01  0.24173936073E+02  0.28669192530E+02  0.00000000000E+00 0. -1.
<mgrwt>
<rscale>  0 0.80904600E+02</rscale>
<asrwt>0</asrwt>
<pdfrwt beam="1">  1        2 0.14978790E-01 0.80904600E+02</pdfrwt>
<pdfrwt beam="2">  1       -1 0.25857289E-02 0.80904600E+02</pdfrwt>
<totfact> 0.17071607E+05</totfact>
</mgrwt>
</event>
<event>
 8    1  0.1493610E-013  0.7938292E+02  0.7818608E-02  0.1330812E+00
          2   -1    0    0  501    0  0.00000000000E+00  0.00000000000E+00  0.15279891541E+03  0.15279891544E+03  0.25500000000E-02 0. -1.
         -1   -1    0    0    0  501 -0.00000000000E+00 -0.00000000000E+00 -0.10310359175E+02  0.10310360406E+02  0.50400000000E-02 0.  1.
         24    2    1    2    0    0  0.00000000000E+00  0.35527136788E-14  0.14248855624E+03  0.16310927584E+03  0.79382915079E+02 0.  0.
         66    2    3    3    0    0 -0.34540275328E+02  0.19419981135E+02  0.74988185989E+02  0.84837458212E+02  0.19999977377E+01 0.  0.
        -13    1    3    3    0    0  0.34540275328E+02 -0.19419981135E+02  0.67500370251E+02  0.78271817630E+02  0.10566000000E+00 0.  1.
         13    1    4    4    0    0 -0.55519464369E+01  0.35796289979E+01  0.12539528498E+02  0.14173524332E+02  0.10566000000E+00 0.  1.
        -13    1    4    4    0    0 -0.19781578022E+02  0.11599022405E+02  0.43105073338E+02  0.48825266628E+02  0.10566000000E+00 0. -1.
        -14    1    4    4    0    0 -0.92067508694E+01  0.42413297320E+01  0.19343584153E+02  0.21838667253E+02  0.00000000000E+00 0.  1.
<mgrwt>
<rscale>  0 0.79382915E+02</rscale>
<asrwt>0</asrwt>
<pdfrwt beam="1">  1        2 0.23507525E-01 0.79382915E+02</pdfrwt>
<pdfrwt beam="2">  1       -1 0.15862092E-02 0.79382915E+02</pdfrwt>
<totfact> 0.20567978E+05</totfact>
</mgrwt>
</event>
<event>
 8    1  0.1493610E-013  0.7667643E+02  0.7818608E-02  0.1338757E+00
         -1   -1    0    0    0  501 -0.00000000000E+00  0.00000000000E+00  0.64188659571E+01  0.64188679357E+01  0.50400000000E-02 0.  1.
          2   -1    0    0  501    0  0.00000000000E+00 -0.00000000000E+00 -0.22898412903E+03  0.22898412905E+03  0.25500000000E-02 0. -1.
         24    2    1    2    0    0 -0.35527136788E-14 -0.35527136788E-14 -0.22256526307E+03  0.23540299698E+03  0.76676428323E+02 0.  0.
         66    2    3    3    0    0 -0.29499819787E+02 -0.21848969303E+02 -0.77699472449E+02  0.85958273807E+02  0.19999975096E+01 0.  0.
        -13    1    3    3    0    0  0.29499819787E+02  0.21848969303E+02 -0.14486579062E+03  0.14944472317E+03  0.10566000000E+00 0.  1.
         13    1    4    4    0    0 -0.40031148181E+01 -0.26802863863E+01 -0.10150113781E+02  0.11235872781E+02  0.10566000000E+00 0. -1.
        -13    1    4    4    0    0 -0.23143283853E+02 -0.16858302999E+02 -0.59848383350E+02  0.66344963043E+02  0.10566000000E+00 0.  1.
        -14    1    4    4    0    0 -0.23534211154E+01 -0.23103799171E+01 -0.77009753181E+01  0.83774379829E+01  0.00000000000E+00 0.  1.
<mgrwt>
<rscale>  0 0.76676428E+02</rscale>
<asrwt>0</asrwt>
<pdfrwt beam="1">  1        2 0.35228321E-01 0.76676428E+02</pdfrwt>
<pdfrwt beam="2">  1       -1 0.98751817E-03 0.76676428E+02</pdfrwt>
<totfact> 0.25860297E+05</totfact>
</mgrwt>
</event>
<event>
 8    1  0.1493610E-013  0.7959792E+02  0.7818608E-02  0.1330196E+00
          2   -1    0    0  501    0  0.00000000000E+00  0.00000000000E+00  0.79264638123E+02  0.79264638164E+02  0.25500000000E-02 0. -1.
         -1   -1    0    0    0  501 -0.00000000000E+00 -0.00000000000E+00 -0.19983149502E+02  0.19983150137E+02  0.50400000000E-02 0.  1.
         24    2    1    2    0    0  0.00000000000E+00  0.00000000000E+00  0.59281488621E+02  0.99247788301E+02  0.79597918248E+02 0.  0.
         66    2    3    3    0    0  0.17210635682E+02  0.12458154640E+02  0.71583356552E+02  0.74696643394E+02  0.20000003760E+01 0.  0.
        -13    1    3    3    0    0 -0.17210635682E+02 -0.12458154640E+02 -0.12301867931E+02  0.24551144907E+02  0.10566000000E+00 0.  1.
         13    1    4    4    0    0  0.74963196393E+01  0.52910045346E+01  0.30916940289E+02  0.32249928651E+02  0.10566000000E+00 0. -1.
        -13    1    4    4    0    0  0.55668103434E+01  0.31866292343E+01  0.21599227071E+02  0.22531794366E+02  0.10566000000E+00 0.  1.
        -14    1    4    4    0    0  0.41475056993E+01  0.39805208706E+01  0.19067189192E+02  0.19914920377E+02  0.00000000000E+00 0.  1.
<mgrwt>
<rscale>  0 0.79597918E+02</rscale>
<asrwt>0</asrwt>
<pdfrwt beam="1">  1        2 0.12194560E-01 0.79597918E+02</pdfrwt>
<pdfrwt beam="2">  1       -1 0.30743308E-02 0.79597918E+02</pdfrwt>
<totfact> 0.16883950E+05</totfact>
</mgrwt>
</event>
<event>
 8    1  0.1493610E-013  0.7988147E+02  0.7818608E-02  0.1329388E+00
          2   -1    0    0  501    0  0.00000000000E+00  0.00000000000E+00  0.20326466663E+04  0.20326466663E+04  0.25500000000E-02 0. -1.
         -1   -1    0    0    0  501 -0.00000000000E+00 -0.00000000000E+00 -0.78481224094E+00  0.78482842401E+00  0.50400000000E-02 0.  1.
         24    2    1    2    0    0 -0.22204460493E-15  0.00000000000E+00  0.20318618541E+04  0.20334314947E+04  0.79881473207E+02 0.  0.
         66    2    3    3    0    0  0.19215257105E+01 -0.16713433312E+02  0.19379838977E+04  0.19380579503E+04  0.20000060700E+01 0.  0.
        -13    1    3    3    0    0 -0.19215257105E+01  0.16713433312E+02  0.93877956356E+02  0.95373544381E+02  0.10566000000E+00 0.  1.
         13    1    4    4    0    0  0.19176617588E+01 -0.12800234727E+02  0.14588275400E+04  0.14588849598E+04  0.10566000000E+00 0. -1.
        -13    1    4    4    0    0  0.29670356277E+00 -0.72276522509E+00  0.96563470608E+02  0.96566689093E+02  0.10566000000E+00 0.  1.
         14    1    4    4    0    0 -0.29283961111E+00 -0.31904333603E+01  0.38259288711E+03  0.38260630143E+03  0.00000000000E+00 0. -1.
<mgrwt>
<rscale>  0 0.79881473E+02</rscale>
<asrwt>0</asrwt>
<pdfrwt beam="1">  1        2 0.31271638E+00 0.79881473E+02</pdfrwt>
<pdfrwt beam="2">  1       -1 0.12074101E-03 0.79881473E+02</pdfrwt>
<totfact> 0.27444173E+05</totfact>
</mgrwt>
</event>
<event>
 8    1  0.1493610E-013  0.7918372E+02  0.7818608E-02  0.1331384E+00
         -1   -1    0    0    0  501 -0.00000000000E+00  0.00000000000E+00  0.18317616449E+02  0.18317617143E+02  0.50400000000E-02 0.  1.
          2   -1    0    0  501    0  0.00000000000E+00 -0.00000000000E+00 -0.85574199721E+02  0.85574199759E+02  0.25500000000E-02 0. -1.
         24    2    1    2    0    0  0.00000000000E+00  0.00000000000E+00 -0.67256583271E+02  0.10389181690E+03  0.79183720712E+02 0.  0.
         66    2    3    3    0    0 -0.12223556587E+02  0.93451396386E+01 -0.81476259921E+02  0.82940508146E+02  0.19999976027E+01 0.  0.
        -13    1    3    3    0    0  0.12223556587E+02 -0.93451396386E+01  0.14219676649E+02  0.20951308755E+02  0.10566000000E+00 0.  1.
         13    1    4    4    0    0 -0.64414330386E+01  0.52849623543E+01 -0.47487433954E+02  0.48212969565E+02  0.10566000000E+00 0. -1.
        -13    1    4    4    0    0 -0.22616706245E+01  0.21277018793E+01 -0.14445223051E+02  0.14775584669E+02  0.10566000000E+00 0.  1.
         14    1    4    4    0    0 -0.35204529239E+01  0.19324754050E+01 -0.19543602916E+02  0.19951953912E+02  0.00000000000E+00 0. -1.
<mgrwt>
<rscale>  0 0.79183721E+02</rscale>
<asrwt>0</asrwt>
<pdfrwt beam="1">  1        2 0.13165261E-01 0.79183721E+02</pdfrwt>
<pdfrwt beam="2">  1       -1 0.28180950E-02 0.79183721E+02</pdfrwt>
<totfact> 0.17465960E+05</totfact>
</mgrwt>
</event>
<event>
 8    1  0.1493610E-013  0.8009175E+02  0.7818608E-02  0.1328791E+00
         -1   -1    0    0    0  501 -0.00000000000E+00  0.00000000000E+00  0.99895973126E+02  0.99895973253E+02  0.50400000000E-02 0.  1.
          2   -1    0    0  501    0  0.00000000000E+00 -0.00000000000E+00 -0.16053420370E+02  0.16053420572E+02  0.25500000000E-02 0. -1.
         24    2    1    2    0    0  0.00000000000E+00  0.00000000000E+00  0.83842552756E+02  0.11594939383E+03  0.80091749112E+02 0.  0.
         66    2    3    3    0    0 -0.18236272894E+02  0.13607151439E+02 -0.57161093448E+01  0.23545490549E+02  0.19999999491E+01 0.  0.
        -13    1    3    3    0    0  0.18236272894E+02 -0.13607151439E+02  0.89558662101E+02  0.92403903276E+02  0.10566000000E+00 0.  1.
         13    1    4    4    0    0 -0.76696317446E+01  0.53680996956E+01 -0.23380786884E+01  0.96497420395E+01  0.10566000000E+00 0. -1.
        -13    1    4    4    0    0 -0.36897450214E+01  0.31636095789E+01 -0.19117653975E+01  0.52238544066E+01  0.10566000000E+00 0.  1.
        -14    1    4    4    0    0 -0.68768961279E+01  0.50754421649E+01 -0.14662652589E+01  0.86718941030E+01  0.00000000000E+00 0.  1.
<mgrwt>
<rscale>  0 0.80091749E+02</rscale>
<asrwt>0</asrwt>
<pdfrwt beam="1">  1        2 0.24697569E-02 0.80091749E+02</pdfrwt>
<pdfrwt beam="2">  1       -1 0.15368612E-01 0.80091749E+02</pdfrwt>
<totfact> 0.11821821E+05</totfact>
</mgrwt>
</event>
<event>
 8    1  0.1493610E-013  0.8039824E+02  0.7818608E-02  0.1327925E+00
         -1   -1    0    0    0  501 -0.00000000000E+00  0.00000000000E+00  0.40732760567E+01  0.40732791748E+01  0.50400000000E-02 0.  1.
          2   -1    0    0  501    0  0.00000000000E+00 -0.00000000000E+00 -0.39672459099E+03  0.39672459100E+03  0.25500000000E-02 0. -1.
         24    2    1    2    0    0  0.00000000000E+00  0.00000000000E+00 -0.39265131493E+03  0.40079787017E+03  0.80398243864E+02 0.  0.
         66    2    3    3    0    0  0.30762627858E+02 -0.41653405732E+01 -0.32357076714E+03  0.32506265655E+03  0.20000004946E+01 0.  0.
        -13    1    3    3    0    0 -0.30762627858E+02  0.41653405732E+01 -0.69080547791E+02  0.75735213619E+02  0.10566000000E+00 0.  1.
         13    1    4    4    0    0  0.13479430655E+02 -0.23050236063E+01 -0.14674471931E+03  0.14738056858E+03  0.10566000000E+00 0. -1.
        -13    1    4    4    0    0  0.11634484138E+02 -0.93180431655E+00 -0.12291650520E+03  0.12346946138E+03  0.10566000000E+00 0.  1.
         14    1    4    4    0    0  0.56487130649E+01 -0.92851265039E+00 -0.53909542634E+02  0.54212626593E+02  0.00000000000E+00 0. -1.
<mgrwt>
<rscale>  0 0.80398244E+02</rscale>
<asrwt>0</asrwt>
<pdfrwt beam="1">  1        2 0.61034522E-01 0.80398244E+02</pdfrwt>
<pdfrwt beam="2">  1       -1 0.62665841E-03 0.80398244E+02</pdfrwt>
<totfact> 0.27809239E+05</totfact>
</mgrwt>
</event>
<event>
 8    1  0.1493610E-013  0.8005049E+02  0.7818608E-02  0.1328908E+00
         -1   -1    0    0    0  501 -0.00000000000E+00  0.00000000000E+00  0.11840677590E+03  0.11840677601E+03  0.50400000000E-02 0.  1.
          2   -1    0    0  501    0  0.00000000000E+00 -0.00000000000E+00 -0.13529800249E+02  0.13529800490E+02  0.25500000000E-02 0. -1.
         24    2    1    2    0    0 -0.35527136788E-14  0.35527136788E-14  0.10487697565E+03  0.13193657650E+03  0.80050485296E+02 0.  0.
         66    2    3    3    0    0  0.25780216576E+02  0.26103924848E+02  0.26204669611E+02  0.45130025126E+02  0.19999998310E+01 0.  0.
        -13    1    3    3    0    0 -0.25780216576E+02 -0.26103924848E+02  0.78672306039E+02  0.86806551370E+02  0.10566000000E+00 0.  1.
         13    1    4    4    0    0  0.90483947837E+01  0.90158767713E+01  0.93641080016E+01  0.15838471038E+02  0.10566000000E+00 0. -1.
        -13    1    4    4    0    0  0.16134559767E+02  0.16548936217E+02  0.16584196178E+02  0.28447109443E+02  0.10566000000E+00 0.  1.
        -14    1    4    4    0    0  0.59726202570E+00  0.53911186015E+00  0.25636543168E+00  0.84444464570E+00  0.00000000000E+00 0.  1.
<mgrwt>
<rscale>  0 0.80050485E+02</rscale>
<asrwt>0</asrwt>
<pdfrwt beam="1">  1        2 0.20815078E-02 0.80050485E+02</pdfrwt>
<pdfrwt beam="2">  1       -1 0.18216427E-01 0.80050485E+02</pdfrwt>
<totfact> 0.11401205E+05</totfact>
</mgrwt>
</event>
<event>
 8    1  0.1493610E-013  0.7342757E+02  0.7818608E-02  0.1348811E+00
         -1   -1    0    0    0  501 -0.00000000000E+00  0.00000000000E+00  0.13160894552E+01  0.13160991056E+01  0.50400000000E-02 0.  1.
          2   -1    0    0  501    0  0.00000000000E+00 -0.00000000000E+00 -0.10241683218E+04  0.10241683218E+04  0.25500000000E-02 0. -1.
         24    2    1    2    0    0 -0.17763568394E-14  0.00000000000E+00 -0.10228522323E+04  0.10254844209E+04  0.73427571891E+02 0.  0.
         66    2    3    3    0    0 -0.12724074505E+02  0.34308155996E+01 -0.98996677587E+03  0.99005650848E+03  0.20000200710E+01 0.  0.
        -13    1    3    3    0    0  0.12724074505E+02 -0.34308155996E+01 -0.32885456454E+02  0.35427912413E+02  0.10566000000E+00 0.  1.
         13    1    4    4    0    0 -0.71330040230E+01  0.17313383416E+01 -0.49311472683E+03  0.49316936468E+03  0.10566000000E+00 0. -1.
        -13    1    4    4    0    0 -0.12516367999E+00 -0.18917271398E-01 -0.19832866273E+02  0.19833551685E+02  0.10566000000E+00 0. -1.
         14    1    4    4    0    0 -0.54659068023E+01  0.17183945294E+01 -0.47701918277E+03  0.47705359212E+03  0.00000000000E+00 0. -1.
<mgrwt>
<rscale>  0 0.73427572E+02</rscale>
<asrwt>0</asrwt>
<pdfrwt beam="1">  1        2 0.15756372E+00 0.73427572E+02</pdfrwt>
<pdfrwt beam="2">  1       -1 0.20247686E-03 0.73427572E+02</pdfrwt>
<totfact> 0.44005200E+05</totfact>
</mgrwt>
</event>
<event>
 8    1  0.1493610E-013  0.8036506E+02  0.7818608E-02  0.1328019E+00
         -1   -1    0    0    0  501 -0.00000000000E+00  0.00000000000E+00  0.39435989829E+02  0.39435990151E+02  0.50400000000E-02 0.  1.
          2   -1    0    0  501    0  0.00000000000E+00 -0.00000000000E+00 -0.40943201542E+02  0.40943201622E+02  0.25500000000E-02 0. -1.
         24    2    1    2    0    0  0.71054273576E-14  0.00000000000E+00 -0.15072117136E+01  0.80379191773E+02  0.80365059465E+02 0.  0.
         66    2    3    3    0    0 -0.35636122925E+02  0.12055752894E+02 -0.14804897449E+02  0.40477887974E+02  0.19999978546E+01 0.  0.
        -13    1    3    3    0    0  0.35636122925E+02 -0.12055752894E+02  0.13297685735E+02  0.39901303799E+02  0.10566000000E+00 0.  1.
         13    1    4    4    0    0 -0.73899444017E+01  0.18170560832E+01 -0.31378805757E+01  0.82322797336E+01  0.10566000000E+00 0. -1.
        -13    1    4    4    0    0 -0.59939100189E+01  0.22703565443E+01 -0.20801011553E+01  0.67393961899E+01  0.10566000000E+00 0.  1.
         14    1    4    4    0    0 -0.22252268504E+02  0.79683402662E+01 -0.95869157175E+01  0.25506212050E+02  0.00000000000E+00 0. -1.
<mgrwt>
<rscale>  0 0.80365059E+02</rscale>
<asrwt>0</asrwt>
<pdfrwt beam="1">  1        2 0.62989541E-02 0.80365059E+02</pdfrwt>
<pdfrwt beam="2">  1       -1 0.60670754E-02 0.80365059E+02</pdfrwt>
<totfact> 0.14144824E+05</totfact>
</mgrwt>
</event>
<event>
 8    1  0.1493610E-013  0.8385944E+02  0.7818608E-02  0.1318442E+00
         -1   -1    0    0    0  501 -0.00000000000E+00  0.00000000000E+00  0.20206663087E+01  0.20206725942E+01  0.50400000000E-02 0.  1.
          2   -1    0    0  501    0  0.00000000000E+00 -0.00000000000E+00 -0.87005889090E+03  0.87005889091E+03  0.25500000000E-02 0. -1.
         24    2    1    2    0    0  0.17763568394E-14  0.00000000000E+00 -0.86803822459E+03  0.87207956350E+03  0.83859440250E+02 0.  0.
         66    2    3    3    0    0 -0.12846346358E+02 -0.20311104025E+02 -0.79126995623E+03  0.79163736218E+03  0.20000018688E+01 0.  0.
        -13    1    3    3    0    0  0.12846346358E+02  0.20311104025E+02 -0.76768268362E+02  0.80442201317E+02  0.10566000000E+00 0.  1.
         13    1    4    4    0    0 -0.77910667320E+00 -0.20469687497E+01 -0.78649510675E+02  0.78680072329E+02  0.10566000000E+00 0. -1.
        -13    1    4    4    0    0 -0.20638697728E+01 -0.28595980616E+01 -0.12575267993E+03  0.12580216426E+03  0.10566000000E+00 0.  1.
        -14    1    4    4    0    0 -0.10003369912E+02 -0.15404537214E+02 -0.58686776563E+03  0.58715512559E+03  0.00000000000E+00 0.  1.
<mgrwt>
<rscale>  0 0.83859440E+02</rscale>
<asrwt>0</asrwt>
<pdfrwt beam="1">  1        2 0.13385491E+00 0.83859440E+02</pdfrwt>
<pdfrwt beam="2">  1       -1 0.31087292E-03 0.83859440E+02</pdfrwt>
<totfact> 0.30788011E+05</totfact>
</mgrwt>
</event>
<event>
 8    1  0.1493610E-013  0.7456249E+02  0.7818608E-02  0.1345231E+00
          2   -1    0    0  501    0  0.00000000000E+00  0.00000000000E+00  0.51676060444E+01  0.51676066735E+01  0.25500000000E-02 0. -1.
         -1   -1    0    0    0  501 -0.00000000000E+00 -0.00000000000E+00 -0.26896226695E+03  0.26896226700E+03  0.50400000000E-02 0.  1.
         24    2    1    2    0    0  0.00000000000E+00  0.00000000000E+00 -0.26379466091E+03  0.27412987367E+03  0.74562487328E+02 0.  0.
         66    2    3    3    0    0  0.30403505004E+02 -0.21244355742E+02 -0.14482846575E+03  0.14951581940E+03  0.19999981737E+01 0.  0.
        -13    1    3    3    0    0 -0.30403505004E+02  0.21244355742E+02 -0.11896619516E+03  0.12461405427E+03  0.10566000000E+00 0.  1.
         13    1    4    4    0    0  0.24152055868E+01 -0.16264734679E+01 -0.12842301864E+02  0.13168694513E+02  0.10566000000E+00 0. -1.
        -13    1    4    4    0    0  0.10446912813E+02 -0.74676581312E+01 -0.46957811648E+02  0.48682143996E+02  0.10566000000E+00 0.  1.
         14    1    4    4    0    0  0.17541386604E+02 -0.12150224142E+02 -0.85028352240E+02  0.87664980895E+02  0.00000000000E+00 0. -1.
<mgrwt>
<rscale>  0 0.74562487E+02</rscale>
<asrwt>0</asrwt>
<pdfrwt beam="1">  1        2 0.79501658E-03 0.74562487E+02</pdfrwt>
<pdfrwt beam="2">  1       -1 0.41378799E-01 0.74562487E+02</pdfrwt>
<totfact> 0.10794596E+05</totfact>
</mgrwt>
</event>
<event>
 8    1  0.1493610E-013  0.7846175E+02  0.7818608E-02  0.1333474E+00
         -1   -1    0    0    0  501 -0.00000000000E+00  0.00000000000E+00  0.31739888698E+02  0.31739889099E+02  0.50400000000E-02 0.  1.
          2   -1    0    0  501    0  0.00000000000E+00 -0.00000000000E+00 -0.48489822372E+02  0.48489822439E+02  0.25500000000E-02 0. -1.
         24    2    1    2    0    0 -0.35527136788E-14  0.35527136788E-14 -0.16749933673E+02  0.80229711537E+02  0.78461750779E+02 0.  0.
         66    2    3    3    0    0 -0.19171760626E+02 -0.24237272006E+02 -0.33049828504E+02  0.45291201332E+02  0.19999985394E+01 0.  0.
        -13    1    3    3    0    0  0.19171760626E+02  0.24237272006E+02  0.16299894831E+02  0.34938510205E+02  0.10566000000E+00 0.  1.
         13    1    4    4    0    0 -0.33585733911E+00 -0.43411996999E+00 -0.90781982709E+00  0.10660962314E+01  0.10566000000E+00 0. -1.
        -13    1    4    4    0    0 -0.61515522547E+01 -0.86260840972E+01 -0.11438479246E+02  0.15591693092E+02  0.10566000000E+00 0. -1.
         14    1    4    4    0    0 -0.12684351032E+02 -0.15177067939E+02 -0.20703529431E+02  0.28633412008E+02  0.00000000000E+00 0. -1.
<mgrwt>
<rscale>  0 0.78461751E+02</rscale>
<asrwt>0</asrwt>
<pdfrwt beam="1">  1        2 0.74599727E-02 0.78461751E+02</pdfrwt>
<pdfrwt beam="2">  1       -1 0.48830598E-02 0.78461751E+02</pdfrwt>
<totfact> 0.15654678E+05</totfact>
</mgrwt>
</event>
<event>
 8    1  0.1493610E-013  0.8106276E+02  0.7818608E-02  0.1326062E+00
         -1   -1    0    0    0  501 -0.00000000000E+00  0.00000000000E+00  0.26864804068E+02  0.26864804541E+02  0.50400000000E-02 0.  1.
          2   -1    0    0  501    0  0.00000000000E+00 -0.00000000000E+00 -0.61150376015E+02  0.61150376068E+02  0.25500000000E-02 0. -1.
         24    2    1    2    0    0  0.00000000000E+00  0.00000000000E+00 -0.34285571947E+02  0.88015180609E+02  0.81062763178E+02 0.  0.
         66    2    3    3    0    0 -0.12706081612E+02  0.15261337106E+02 -0.55486032183E+02  0.58966538672E+02  0.19999988387E+01 0.  0.
        -13    1    3    3    0    0  0.12706081612E+02 -0.15261337106E+02  0.21200460236E+02  0.29048641938E+02  0.10566000000E+00 0.  1.
         13    1    4    4    0    0 -0.64339172824E+01  0.89311567502E+01 -0.28880513851E+02  0.30907217553E+02  0.10566000000E+00 0. -1.
        -13    1    4    4    0    0 -0.30039957082E+01  0.31696191515E+01 -0.13013613498E+02  0.13727191122E+02  0.10566000000E+00 0.  1.
         14    1    4    4    0    0 -0.32681686212E+01  0.31605612042E+01 -0.13591904833E+02  0.14332129997E+02  0.00000000000E+00 0. -1.
<mgrwt>
<rscale>  0 0.81062763E+02</rscale>
<asrwt>0</asrwt>
<pdfrwt beam="1">  1        2 0.94077502E-02 0.81062763E+02</pdfrwt>
<pdfrwt beam="2">  1       -1 0.41330468E-02 0.81062763E+02</pdfrwt>
<totfact> 0.15083307E+05</totfact>
</mgrwt>
</event>
<event>
 8    1  0.1493610E-013  0.8023099E+02  0.7818608E-02  0.1328397E+00
          2   -1    0    0  501    0  0.00000000000E+00  0.00000000000E+00  0.75241093527E+03  0.75241093527E+03  0.25500000000E-02 0. -1.
         -1   -1    0    0    0  501 -0.00000000000E+00 -0.00000000000E+00 -0.21387920654E+01  0.21387980037E+01  0.50400000000E-02 0.  1.
         24    2    1    2    0    0  0.35527136788E-14  0.00000000000E+00  0.75027214320E+03  0.75454973328E+03  0.80230986041E+02 0.  0.
         66    2    3    3    0    0 -0.19755844126E+02  0.11185518378E+02  0.68612842761E+03  0.68650683054E+03  0.20000016178E+01 0.  0.
        -13    1    3    3    0    0  0.19755844126E+02 -0.11185518378E+02  0.64143715590E+02  0.68042902732E+02  0.10566000000E+00 0.  1.
         13    1    4    4    0    0 -0.48384282629E+01  0.34015954260E+01  0.16195787350E+03  0.16206586684E+03  0.10566000000E+00 0. -1.
        -13    1    4    4    0    0 -0.10109149967E+02  0.50667827926E+01  0.35961291554E+03  0.35979067163E+03  0.10566000000E+00 0.  1.
         14    1    4    4    0    0 -0.48082658962E+01  0.27171401589E+01  0.16455763857E+03  0.16465029208E+03  0.00000000000E+00 0. -1.
<mgrwt>
<rscale>  0 0.80230986E+02</rscale>
<asrwt>0</asrwt>
<pdfrwt beam="1">  1        2 0.11575578E+00 0.80230986E+02</pdfrwt>
<pdfrwt beam="2">  1       -1 0.32904467E-03 0.80230986E+02</pdfrwt>
<totfact> 0.33721056E+05</totfact>
</mgrwt>
</event>
<event>
 8    1  0.1493610E-013  0.7960167E+02  0.7818608E-02  0.1330186E+00
          2   -1    0    0  501    0  0.00000000000E+00  0.00000000000E+00  0.18769110153E+03  0.18769110154E+03  0.25500000000E-02 0. -1.
         -1   -1    0    0    0  501 -0.00000000000E+00 -0.00000000000E+00 -0.84399640136E+01  0.84399655185E+01  0.50400000000E-02 0.  1.
         24    2    1    2    0    0  0.17763568394E-14  0.00000000000E+00  0.17925113751E+03  0.19613106706E+03  0.79601665607E+02 0.  0.
         66    2    3    3    0    0 -0.85021337350E+01  0.18674097446E+02  0.17363915407E+03  0.17485869729E+03  0.19999999125E+01 0.  0.
        -13    1    3    3    0    0  0.85021337350E+01 -0.18674097446E+02  0.56119834458E+01  0.21272369771E+02  0.10566000000E+00 0.  1.
         13    1    4    4    0    0 -0.65742037044E+01  0.13733453567E+02  0.12869229974E+03  0.12958991889E+03  0.10566000000E+00 0. -1.
        -13    1    4    4    0    0 -0.12099358956E+01  0.39616748484E+01  0.36667307851E+02  0.36900697034E+02  0.10566000000E+00 0.  1.
        -14    1    4    4    0    0 -0.71799413492E+00  0.97896903055E+00  0.82795464710E+01  0.83680813635E+01  0.00000000000E+00 0.  1.
<mgrwt>
<rscale>  0 0.79601666E+02</rscale>
<asrwt>0</asrwt>
<pdfrwt beam="1">  1        2 0.28875553E-01 0.79601666E+02</pdfrwt>
<pdfrwt beam="2">  1       -1 0.12984562E-02 0.79601666E+02</pdfrwt>
<totfact> 0.21866681E+05</totfact>
</mgrwt>
</event>
<event>
 8    1  0.1493610E-013  0.7962440E+02  0.7818608E-02  0.1330121E+00
         -1   -1    0    0    0  501 -0.00000000000E+00  0.00000000000E+00  0.13491044216E+02  0.13491045158E+02  0.50400000000E-02 0.  1.
          2   -1    0    0  501    0  0.00000000000E+00 -0.00000000000E+00 -0.11748618922E+03  0.11748618925E+03  0.25500000000E-02 0. -1.
         24    2    1    2    0    0 -0.35527136788E-14  0.35527136788E-14 -0.10399514500E+03  0.13097723440E+03  0.79624404224E+02 0.  0.
         66    2    3    3    0    0 -0.17633051087E+02  0.28904042313E+02 -0.86402741464E+02  0.92821343915E+02  0.20000002453E+01 0.  0.
        -13    1    3    3    0    0  0.17633051087E+02 -0.28904042313E+02 -0.17592403538E+02  0.38155890488E+02  0.10566000000E+00 0.  1.
         13    1    4    4    0    0 -0.12465963517E+02  0.19638812322E+02 -0.57628914224E+02  0.62146489157E+02  0.10566000000E+00 0. -1.
        -13    1    4    4    0    0 -0.29830221793E+01  0.59889770593E+01 -0.17850009908E+02  0.19063060753E+02  0.10566000000E+00 0.  1.
        -14    1    4    4    0    0 -0.21840653907E+01  0.32762529317E+01 -0.10923817332E+02  0.11611794005E+02  0.00000000000E+00 0.  1.
<mgrwt>
<rscale>  0 0.79624404E+02</rscale>
<asrwt>0</asrwt>
<pdfrwt beam="1">  1        2 0.18074798E-01 0.79624404E+02</pdfrwt>
<pdfrwt beam="2">  1       -1 0.20755454E-02 0.79624404E+02</pdfrwt>
<totfact> 0.18803608E+05</totfact>
</mgrwt>
</event>
<event>
 8    1  0.1493610E-013  0.7474937E+02  0.7818608E-02  0.1344649E+00
          2   -1    0    0  501    0  0.00000000000E+00  0.00000000000E+00  0.30099258038E+03  0.30099258039E+03  0.25500000000E-02 0. -1.
         -1   -1    0    0    0  501 -0.00000000000E+00 -0.00000000000E+00 -0.46408672306E+01  0.46408699673E+01  0.50400000000E-02 0.  1.
         24    2    1    2    0    0  0.00000000000E+00  0.00000000000E+00  0.29635171315E+03  0.30563345036E+03  0.74749368500E+02 0.  0.
         66    2    3    3    0    0 -0.47014525349E+01 -0.25079919557E+02  0.25979030791E+03  0.26104809920E+03  0.19999973565E+01 0.  0.
        -13    1    3    3    0    0  0.47014525349E+01  0.25079919557E+02  0.36561405232E+02  0.44585351154E+02  0.10566000000E+00 0.  1.
         13    1    4    4    0    0 -0.21195706012E+01 -0.74969188853E+01  0.79149898624E+02  0.79532471284E+02  0.10566000000E+00 0. -1.
        -13    1    4    4    0    0 -0.68963589231E+00 -0.31205114371E+01  0.29287467439E+02  0.29461502038E+02  0.10566000000E+00 0. -1.
         14    1    4    4    0    0 -0.18922460413E+01 -0.14462489235E+02  0.15135294185E+03  0.15205412588E+03  0.00000000000E+00 0. -1.
<mgrwt>
<rscale>  0 0.74749369E+02</rscale>
<asrwt>0</asrwt>
<pdfrwt beam="1">  1        2 0.46306550E-01 0.74749369E+02</pdfrwt>
<pdfrwt beam="2">  1       -1 0.71397981E-03 0.74749369E+02</pdfrwt>
<totfact> 0.30477828E+05</totfact>
</mgrwt>
</event>
<event>
 8    1  0.1493610E-013  0.7779583E+02  0.7818608E-02  0.1335426E+00
         -1   -1    0    0    0  501 -0.00000000000E+00  0.00000000000E+00  0.22411283562E+01  0.22411340233E+01  0.50400000000E-02 0.  1.
          2   -1    0    0  501    0  0.00000000000E+00 -0.00000000000E+00 -0.67512678670E+03  0.67512678671E+03  0.25500000000E-02 0. -1.
         24    2    1    2    0    0  0.00000000000E+00  0.17763568394E-14 -0.67288565835E+03  0.67736792073E+03  0.77795827823E+02 0.  0.
         66    2    3    3    0    0  0.91210471859E+01 -0.84801246105E+01 -0.65728267036E+03  0.65740369239E+03  0.19999986621E+01 0.  0.
        -13    1    3    3    0    0 -0.91210471859E+01  0.84801246105E+01 -0.15602987986E+02  0.19964228342E+02  0.10566000000E+00 0.  1.
         13    1    4    4    0    0  0.54675589991E+01 -0.48951287783E+01 -0.39296322081E+03  0.39303175516E+03  0.10566000000E+00 0. -1.
        -13    1    4    4    0    0  0.16828736261E+01 -0.11393589855E+01 -0.80854876846E+02  0.80880482666E+02  0.10566000000E+00 0.  1.
        -14    1    4    4    0    0  0.19706145607E+01 -0.24456368467E+01 -0.18346457270E+03  0.18349145456E+03  0.00000000000E+00 0.  1.
<mgrwt>
<rscale>  0 0.77795828E+02</rscale>
<asrwt>0</asrwt>
<pdfrwt beam="1">  1        2 0.10386550E+00 0.77795828E+02</pdfrwt>
<pdfrwt beam="2">  1       -1 0.34478995E-03 0.77795828E+02</pdfrwt>
<totfact> 0.35663516E+05</totfact>
</mgrwt>
</event>
<event>
 8    1  0.1493610E-013  0.7944497E+02  0.7818608E-02  0.1330634E+00
         -1   -1    0    0    0  501 -0.00000000000E+00  0.00000000000E+00  0.20679504366E+03  0.20679504372E+03  0.50400000000E-02 0.  1.
          2   -1    0    0  501    0  0.00000000000E+00 -0.00000000000E+00 -0.76301429064E+01  0.76301433325E+01  0.25500000000E-02 0. -1.
         24    2    1    2    0    0 -0.44408920985E-15 -0.71054273576E-14  0.19916490076E+03  0.21442518706E+03  0.79444969325E+02 0.  0.
         66    2    3    3    0    0  0.35945615446E+01 -0.36220699157E+02  0.14240715867E+03  0.14699883931E+03  0.19999992658E+01 0.  0.
        -13    1    3    3    0    0 -0.35945615446E+01  0.36220699157E+02  0.56757742088E+02  0.67426347751E+02  0.10566000000E+00 0.  1.
         13    1    4    4    0    0  0.21849536969E+01 -0.20978835679E+02  0.81387716142E+02  0.84076495360E+02  0.10566000000E+00 0. -1.
        -13    1    4    4    0    0  0.65018571714E+00 -0.77233322499E+01  0.28378503597E+02  0.29418076636E+02  0.10566000000E+00 0.  1.
         14    1    4    4    0    0  0.75942213055E+00 -0.75185312276E+01  0.32640938929E+02  0.33504267310E+02  0.00000000000E+00 0. -1.
<mgrwt>
<rscale>  0 0.79444969E+02</rscale>
<asrwt>0</asrwt>
<pdfrwt beam="1">  1        2 0.11738684E-02 0.79444969E+02</pdfrwt>
<pdfrwt beam="2">  1       -1 0.31814615E-01 0.79444969E+02</pdfrwt>
<totfact> 0.10035487E+05</totfact>
</mgrwt>
</event>
<event>
 8    1  0.1493610E-013  0.8085191E+02  0.7818608E-02  0.1326651E+00
         -1   -1    0    0    0  501 -0.00000000000E+00  0.00000000000E+00  0.83613600694E+01  0.83613615884E+01  0.50400000000E-02 0.  1.
          2   -1    0    0  501    0  0.00000000000E+00 -0.00000000000E+00 -0.19545356935E+03  0.19545356936E+03  0.25500000000E-02 0. -1.
         24    2    1    2    0    0  0.00000000000E+00  0.00000000000E+00 -0.18709220928E+03  0.20381493095E+03  0.80851909728E+02 0.  0.
         66    2    3    3    0    0  0.20584672796E+02 -0.20301928180E+01 -0.18108776791E+03  0.18227624675E+03  0.20000013476E+01 0.  0.
        -13    1    3    3    0    0 -0.20584672796E+02  0.20301928180E+01 -0.60044413664E+01  0.21538684202E+02  0.10566000000E+00 0.  1.
         13    1    4    4    0    0  0.11677027606E+02 -0.21124133909E+01 -0.10237692188E+03  0.10306241100E+03  0.10566000000E+00 0. -1.
        -13    1    4    4    0    0  0.41257345482E+01 -0.50280268370E-01 -0.35741894733E+02  0.35979416571E+02  0.10566000000E+00 0.  1.
         14    1    4    4    0    0  0.47819106412E+01  0.13250084124E+00 -0.42968951300E+02  0.43234419178E+02  0.00000000000E+00 0. -1.
<mgrwt>
<rscale>  0 0.80851910E+02</rscale>
<asrwt>0</asrwt>
<pdfrwt beam="1">  1        2 0.30069777E-01 0.80851910E+02</pdfrwt>
<pdfrwt beam="2">  1       -1 0.12863633E-02 0.80851910E+02</pdfrwt>
<totfact> 0.21279754E+05</totfact>
</mgrwt>
</event>
<event>
 8    1  0.1493610E-013  0.7392232E+02  0.7818608E-02  0.1347241E+00
          2   -1    0    0  501    0  0.00000000000E+00  0.00000000000E+00  0.33074594166E+03  0.33074594167E+03  0.25500000000E-02 0. -1.
         -1   -1    0    0    0  501 -0.00000000000E+00 -0.00000000000E+00 -0.41304422085E+01  0.41304452834E+01  0.50400000000E-02 0.  1.
         24    2    1    2    0    0  0.00000000000E+00  0.00000000000E+00  0.32661549945E+03  0.33487638695E+03  0.73922324482E+02 0.  0.
         66    2    3    3    0    0  0.10440917370E+02  0.35012187757E+02  0.18793005157E+03  0.19145905654E+03  0.19999994726E+01 0.  0.
        -13    1    3    3    0    0 -0.10440917370E+02 -0.35012187757E+02  0.13868544787E+03  0.14341733041E+03  0.10566000000E+00 0.  1.
         13    1    4    4    0    0  0.62940525715E+01  0.19944738750E+02  0.11008847001E+03  0.11205753029E+03  0.10566000000E+00 0. -1.
        -13    1    4    4    0    0  0.41014628116E+01  0.13975562396E+02  0.72825825545E+02  0.74268097942E+02  0.10566000000E+00 0.  1.
        -14    1    4    4    0    0  0.45401986739E-01  0.10918866100E+01  0.50157560219E+01  0.51334283068E+01  0.00000000000E+00 0.  1.
<mgrwt>
<rscale>  0 0.73922324E+02</rscale>
<asrwt>0</asrwt>
<pdfrwt beam="1">  1        2 0.50884007E-01 0.73922324E+02</pdfrwt>
<pdfrwt beam="2">  1       -1 0.63545269E-03 0.73922324E+02</pdfrwt>
<totfact> 0.32449739E+05</totfact>
</mgrwt>
</event>
<event>
 8    1  0.1493610E-013  0.7923105E+02  0.7818608E-02  0.1331248E+00
          2   -1    0    0  501    0  0.00000000000E+00  0.00000000000E+00  0.14426729359E+02  0.14426729584E+02  0.25500000000E-02 0. -1.
         -1   -1    0    0    0  501 -0.00000000000E+00 -0.00000000000E+00 -0.10878346505E+03  0.10878346517E+03  0.50400000000E-02 0.  1.
         24    2    1    2    0    0 -0.35527136788E-14  0.55511151231E-16 -0.94356735693E+02  0.12321019475E+03  0.79231045181E+02 0.  0.
         66    2    3    3    0    0  0.26960249546E+02  0.34113555266E+00 -0.21269133874E+01  0.27120014632E+02  0.20000010077E+01 0.  0.
        -13    1    3    3    0    0 -0.26960249546E+02 -0.34113555266E+00 -0.92229822306E+02  0.96090180121E+02  0.10566000000E+00 0.  1.
         13    1    4    4    0    0  0.15445389968E+02  0.40038228662E-02 -0.89113149270E+00  0.15471437123E+02  0.10566000000E+00 0. -1.
        -13    1    4    4    0    0  0.23951988608E+01  0.28871645327E+00  0.17112289912E+00  0.24209051727E+01  0.10566000000E+00 0.  1.
         14    1    4    4    0    0  0.91196607176E+01  0.48415276523E-01 -0.14069047938E+01  0.92276723361E+01  0.00000000000E+00 0. -1.
<mgrwt>
<rscale>  0 0.79231045E+02</rscale>
<asrwt>0</asrwt>
<pdfrwt beam="1">  1        2 0.22194969E-02 0.79231045E+02</pdfrwt>
<pdfrwt beam="2">  1       -1 0.16735917E-01 0.79231045E+02</pdfrwt>
<totfact> 0.11922701E+05</totfact>
</mgrwt>
</event>
<event>
 8    1  0.1493610E-013  0.8039792E+02  0.7818608E-02  0.1327926E+00
         -1   -1    0    0    0  501 -0.00000000000E+00  0.00000000000E+00  0.91344022958E+01  0.91344036862E+01  0.50400000000E-02 0.  1.
          2   -1    0    0  501    0  0.00000000000E+00 -0.00000000000E+00 -0.17690881412E+03  0.17690881414E+03  0.25500000000E-02 0. -1.
         24    2    1    2    0    0  0.35527136788E-14  0.00000000000E+00 -0.16777441183E+03  0.18604321783E+03  0.80397920593E+02 0.  0.
         66    2    3    3    0    0 -0.15616168737E+02 -0.14516319567E+02 -0.16273036577E+03  0.16413336104E+03  0.20000009844E+01 0.  0.
        -13    1    3    3    0    0  0.15616168737E+02  0.14516319567E+02 -0.50440460611E+01  0.21909856788E+02  0.10566000000E+00 0.  1.
         13    1    4    4    0    0 -0.31845410211E+01 -0.32134514292E+01 -0.31071757313E+02  0.31399567484E+02  0.10566000000E+00 0. -1.
        -13    1    4    4    0    0 -0.49797769108E+01 -0.43983961361E+01 -0.46843378818E+02  0.47312338451E+02  0.10566000000E+00 0.  1.
        -14    1    4    4    0    0 -0.74518508049E+01 -0.69044720014E+01 -0.84815229634E+02  0.85421455103E+02  0.00000000000E+00 0.  1.
<mgrwt>
<rscale>  0 0.80397921E+02</rscale>
<asrwt>0</asrwt>
<pdfrwt beam="1">  1        2 0.27216738E-01 0.80397921E+02</pdfrwt>
<pdfrwt beam="2">  1       -1 0.14052929E-02 0.80397921E+02</pdfrwt>
<totfact> 0.20874113E+05</totfact>
</mgrwt>
</event>
<event>
 8    1  0.1493610E-013  0.8558011E+02  0.7818608E-02  0.1313922E+00
         -1   -1    0    0    0  501 -0.00000000000E+00  0.00000000000E+00  0.18832576646E+01  0.18832644086E+01  0.50400000000E-02 0.  1.
          2   -1    0    0  501    0  0.00000000000E+00 -0.00000000000E+00 -0.97224371408E+03  0.97224371408E+03  0.25500000000E-02 0. -1.
         24    2    1    2    0    0  0.00000000000E+00  0.00000000000E+00 -0.97036045641E+03  0.97412697849E+03  0.85580107801E+02 0.  0.
         66    2    3    3    0    0 -0.32160993626E+01 -0.23680171466E+02 -0.88914939842E+03  0.88947273512E+03  0.19999997081E+01 0.  0.
        -13    1    3    3    0    0  0.32160993626E+01  0.23680171466E+02 -0.81211057994E+02  0.84654243369E+02  0.10566000000E+00 0.  1.
         13    1    4    4    0    0 -0.11470081163E+01 -0.13899422056E+02 -0.51299861009E+03  0.51318816693E+03  0.10566000000E+00 0. -1.
        -13    1    4    4    0    0 -0.16863311592E+01 -0.78664752307E+01 -0.28944831208E+03  0.28956011755E+03  0.10566000000E+00 0.  1.
         14    1    4    4    0    0 -0.38276008718E+00 -0.19142741794E+01 -0.86702476256E+02  0.86724450646E+02  0.00000000000E+00 0. -1.
<mgrwt>
<rscale>  0 0.85580108E+02</rscale>
<asrwt>0</asrwt>
<pdfrwt beam="1">  1        2 0.14957556E+00 0.85580108E+02</pdfrwt>
<pdfrwt beam="2">  1       -1 0.28973324E-03 0.85580108E+02</pdfrwt>
<totfact> 0.29512777E+05</totfact>
</mgrwt>
</event>
<event>
 8    1  0.1493610E-013  0.8100655E+02  0.7818608E-02  0.1326219E+00
          2   -1    0    0  501    0  0.00000000000E+00  0.00000000000E+00  0.40073516056E+03  0.40073516057E+03  0.25500000000E-02 0. -1.
         -1   -1    0    0    0  501 -0.00000000000E+00 -0.00000000000E+00 -0.40937622864E+01  0.40937653889E+01  0.50400000000E-02 0.  1.
         24    2    1    2    0    0 -0.88817841970E-15 -0.35527136788E-14  0.39664139828E+03  0.40482892596E+03  0.81006545829E+02 0.  0.
         66    2    3    3    0    0  0.70760485947E+01  0.30839598201E+02  0.32460757109E+03  0.32615215236E+03  0.19999998418E+01 0.  0.
        -13    1    3    3    0    0 -0.70760485947E+01 -0.30839598201E+02  0.72033827189E+02  0.78676773602E+02  0.10566000000E+00 0.  1.
         13    1    4    4    0    0  0.47973255703E+01  0.21984646160E+02  0.22633013820E+03  0.22744599715E+03  0.10566000000E+00 0. -1.
        -13    1    4    4    0    0  0.50572790196E+00  0.18917514638E+01  0.17397225698E+02  0.17507401588E+02  0.10566000000E+00 0.  1.
         14    1    4    4    0    0  0.17729951225E+01  0.69632005774E+01  0.80880207188E+02  0.81198753616E+02  0.00000000000E+00 0. -1.
<mgrwt>
<rscale>  0 0.81006546E+02</rscale>
<asrwt>0</asrwt>
<pdfrwt beam="1">  1        2 0.61651577E-01 0.81006546E+02</pdfrwt>
<pdfrwt beam="2">  1       -1 0.62980968E-03 0.81006546E+02</pdfrwt>
<totfact> 0.27362747E+05</totfact>
</mgrwt>
</event>
<event>
 8    1  0.1493610E-013  0.7611143E+02  0.7818608E-02  0.1340463E+00
          2   -1    0    0  501    0  0.00000000000E+00  0.00000000000E+00  0.17547533258E+03  0.17547533260E+03  0.25500000000E-02 0. -1.
         -1   -1    0    0    0  501 -0.00000000000E+00 -0.00000000000E+00 -0.82532243546E+01  0.82532258935E+01  0.50400000000E-02 0.  1.
         24    2    1    2    0    0 -0.17763568394E-14 -0.17763568394E-14  0.16722210822E+03  0.18372855849E+03  0.76111429669E+02 0.  0.
         66    2    3    3    0    0  0.10769360454E+02  0.14395616430E+02  0.16456339947E+03  0.16555459928E+03  0.20000008497E+01 0.  0.
        -13    1    3    3    0    0 -0.10769360454E+02 -0.14395616430E+02  0.26587087596E+01  0.18173959208E+02  0.10566000000E+00 0.  1.
         13    1    4    4    0    0  0.31021769969E+01  0.50650219071E+01  0.57017459585E+02  0.57326083161E+02  0.10566000000E+00 0. -1.
        -13    1    4    4    0    0  0.20514254106E+01  0.20234742477E+01  0.29393357697E+02  0.29534444890E+02  0.10566000000E+00 0.  1.
         14    1    4    4    0    0  0.56157580470E+01  0.73071202748E+01  0.78152582184E+02  0.78694071232E+02  0.00000000000E+00 0. -1.
<mgrwt>
<rscale>  0 0.76111430E+02</rscale>
<asrwt>0</asrwt>
<pdfrwt beam="1">  1        2 0.26996203E-01 0.76111430E+02</pdfrwt>
<pdfrwt beam="2">  1       -1 0.12697270E-02 0.76111430E+02</pdfrwt>
<totfact> 0.24055062E+05</totfact>
</mgrwt>
</event>
<event>
 8    1  0.1493610E-013  0.7628552E+02  0.7818608E-02  0.1339936E+00
         -1   -1    0    0    0  501 -0.00000000000E+00  0.00000000000E+00  0.31426319898E+01  0.31426360313E+01  0.50400000000E-02 0.  1.
          2   -1    0    0  501    0  0.00000000000E+00 -0.00000000000E+00 -0.46294605620E+03  0.46294605621E+03  0.25500000000E-02 0. -1.
         24    2    1    2    0    0  0.00000000000E+00  0.17763568394E-14 -0.45980342421E+03  0.46608869224E+03  0.76285517086E+02 0.  0.
         66    2    3    3    0    0  0.34184158174E+02  0.11105091901E+02 -0.30758035480E+03  0.30967976103E+03  0.19999995634E+01 0.  0.
        -13    1    3    3    0    0 -0.34184158174E+02 -0.11105091901E+02 -0.15222306942E+03  0.15640893121E+03  0.10566000000E+00 0.  1.
         13    1    4    4    0    0  0.62268677019E+01  0.14961589883E+01 -0.54551277140E+02  0.54925999078E+02  0.10566000000E+00 0. -1.
        -13    1    4    4    0    0  0.33367693715E+01  0.15819550899E+01 -0.30401363938E+02  0.30625001307E+02  0.10566000000E+00 0.  1.
         14    1    4    4    0    0  0.24620521101E+02  0.80269778227E+01 -0.22262771372E+03  0.22412876064E+03  0.00000000000E+00 0. -1.
<mgrwt>
<rscale>  0 0.76285517E+02</rscale>
<asrwt>0</asrwt>
<pdfrwt beam="1">  1        2 0.71222416E-01 0.76285517E+02</pdfrwt>
<pdfrwt beam="2">  1       -1 0.48348253E-03 0.76285517E+02</pdfrwt>
<totfact> 0.33609040E+05</totfact>
</mgrwt>
</event>
<event>
 8    1  0.1493610E-013  0.8006565E+02  0.7818608E-02  0.1328865E+00
         -1   -1    0    0    0  501 -0.00000000000E+00  0.00000000000E+00  0.19869526057E+01  0.19869589978E+01  0.50400000000E-02 0.  1.
          2   -1    0    0  501    0  0.00000000000E+00 -0.00000000000E+00 -0.80657414231E+03  0.80657414232E+03  0.25500000000E-02 0. -1.
         24    2    1    2    0    0  0.00000000000E+00  0.00000000000E+00 -0.80458718971E+03  0.80856110132E+03  0.80065652551E+02 0.  0.
         66    2    3    3    0    0  0.11269723953E+02  0.11461185943E+02 -0.77252915327E+03  0.77269894402E+03  0.19999963132E+01 0.  0.
        -13    1    3    3    0    0 -0.11269723953E+02 -0.11461185943E+02 -0.32058036441E+02  0.35862157292E+02  0.10566000000E+00 0.  1.
         13    1    4    4    0    0  0.54920771848E+01  0.47390807869E+01 -0.35790785960E+03  0.35798138070E+03  0.10566000000E+00 0. -1.
        -13    1    4    4    0    0  0.17525509188E+01  0.26824367443E+01 -0.16494628511E+03  0.16497743796E+03  0.10566000000E+00 0.  1.
        -14    1    4    4    0    0  0.40250958497E+01  0.40396684119E+01 -0.24967500856E+03  0.24974012536E+03  0.00000000000E+00 0.  1.
<mgrwt>
<rscale>  0 0.80065653E+02</rscale>
<asrwt>0</asrwt>
<pdfrwt beam="1">  1        2 0.12408807E+00 0.80065653E+02</pdfrwt>
<pdfrwt beam="2">  1       -1 0.30568615E-03 0.80065653E+02</pdfrwt>
<totfact> 0.34340364E+05</totfact>
</mgrwt>
</event>
<event>
 8    1  0.1493610E-013  0.8001116E+02  0.7818608E-02  0.1329020E+00
         -1   -1    0    0    0  501 -0.00000000000E+00  0.00000000000E+00  0.25035153359E+02  0.25035153866E+02  0.50400000000E-02 0.  1.
          2   -1    0    0  501    0  0.00000000000E+00 -0.00000000000E+00 -0.63927959075E+02  0.63927959126E+02  0.25500000000E-02 0. -1.
         24    2    1    2    0    0  0.88817841970E-15 -0.35527136788E-14 -0.38892805716E+02  0.88963112992E+02  0.80011156327E+02 0.  0.
         66    2    3    3    0    0 -0.72392260959E+01 -0.23406718645E+02 -0.54587019393E+02  0.59866714947E+02  0.20000000504E+01 0.  0.
        -13    1    3    3    0    0  0.72392260959E+01  0.23406718645E+02  0.15694213677E+02  0.29096398044E+02  0.10566000000E+00 0.  1.
         13    1    4    4    0    0 -0.24430800841E+00 -0.89008462121E+00 -0.22389038334E+01  0.24240031862E+01  0.10566000000E+00 0. -1.
        -13    1    4    4    0    0 -0.26677943481E+01 -0.70877228959E+01 -0.15060558458E+02  0.16857773508E+02  0.10566000000E+00 0.  1.
        -14    1    4    4    0    0 -0.43271237394E+01 -0.15428911128E+02 -0.37287557102E+02  0.40584938254E+02  0.00000000000E+00 0.  1.
<mgrwt>
<rscale>  0 0.80011156E+02</rscale>
<asrwt>0</asrwt>
<pdfrwt beam="1">  1        2 0.98350706E-02 0.80011156E+02</pdfrwt>
<pdfrwt beam="2">  1       -1 0.38515621E-02 0.80011156E+02</pdfrwt>
<totfact> 0.15792467E+05</totfact>
</mgrwt>
</event>
<event>
 8    1  0.1493610E-013  0.7678445E+02  0.7818608E-02  0.1338433E+00
          2   -1    0    0  501    0  0.00000000000E+00  0.00000000000E+00  0.12670431329E+03  0.12670431331E+03  0.25500000000E-02 0. -1.
         -1   -1    0    0    0  501 -0.00000000000E+00 -0.00000000000E+00 -0.11633091142E+02  0.11633092234E+02  0.50400000000E-02 0.  1.
         24    2    1    2    0    0  0.35527136788E-14  0.35527136788E-14  0.11507122215E+03  0.13833740555E+03  0.76784448996E+02 0.  0.
         66    2    3    3    0    0 -0.29401248499E+02 -0.22098541200E+02  0.77242814618E+02  0.85575880583E+02  0.19999977520E+01 0.  0.
        -13    1    3    3    0    0  0.29401248499E+02  0.22098541200E+02  0.37828407528E+02  0.52761524964E+02  0.10566000000E+00 0.  1.
         13    1    4    4    0    0 -0.13583596775E+02 -0.94637743798E+01  0.33457352661E+02  0.37329381698E+02  0.10566000000E+00 0. -1.
        -13    1    4    4    0    0 -0.15296045471E+01 -0.14100977979E+01  0.49651302714E+01  0.53843986218E+01  0.10566000000E+00 0.  1.
         14    1    4    4    0    0 -0.14288047177E+02 -0.11224669022E+02  0.38820331686E+02  0.42862100264E+02  0.00000000000E+00 0. -1.
<mgrwt>
<rscale>  0 0.76784449E+02</rscale>
<asrwt>0</asrwt>
<pdfrwt beam="1">  1        2 0.19492971E-01 0.76784449E+02</pdfrwt>
<pdfrwt beam="2">  1       -1 0.17897065E-02 0.76784449E+02</pdfrwt>
<totfact> 0.21184068E+05</totfact>
</mgrwt>
</event>
<event>
 8    1  0.1493610E-013  0.6980237E+02  0.7818608E-02  0.1360766E+00
         -1   -1    0    0    0  501 -0.00000000000E+00  0.00000000000E+00  0.33367213896E+02  0.33367214277E+02  0.50400000000E-02 0.  1.
          2   -1    0    0  501    0  0.00000000000E+00 -0.00000000000E+00 -0.36505672402E+02  0.36505672491E+02  0.25500000000E-02 0. -1.
         24    2    1    2    0    0  0.00000000000E+00  0.00000000000E+00 -0.31384585062E+01  0.69872886768E+02  0.69802366604E+02 0.  0.
         66    2    3    3    0    0 -0.20689152898E+02 -0.53446040239E+01 -0.29157056418E+02  0.36204141007E+02  0.20000118338E+01 0.  0.
        -13    1    3    3    0    0  0.20689152898E+02  0.53446040239E+01  0.26018597911E+02  0.33668745761E+02  0.10566000000E+00 0.  1.
         13    1    4    4    0    0 -0.10132355381E+02 -0.24518307658E+01 -0.15599060454E+02  0.18762141422E+02  0.10566000000E+00 0. -1.
        -13    1    4    4    0    0 -0.83837155755E+01 -0.21824943184E+01 -0.11168884209E+02  0.14135243429E+02  0.10566000000E+00 0.  1.
        -14    1    4    4    0    0 -0.21730819414E+01 -0.71027893964E+00 -0.23891117554E+01  0.33067561561E+01  0.00000000000E+00 0.  1.
<mgrwt>
<rscale>  0 0.69802367E+02</rscale>
<asrwt>0</asrwt>
<pdfrwt beam="1">  1        2 0.56162573E-02 0.69802367E+02</pdfrwt>
<pdfrwt beam="2">  1       -1 0.51334176E-02 0.69802367E+02</pdfrwt>
<totfact> 0.20339051E+05</totfact>
</mgrwt>
</event>
<event>
 8    1  0.1493610E-013  0.8162910E+02  0.7818608E-02  0.1324491E+00
         -1   -1    0    0    0  501 -0.00000000000E+00  0.00000000000E+00  0.63450906011E+01  0.63450926027E+01  0.50400000000E-02 0.  1.
          2   -1    0    0  501    0  0.00000000000E+00 -0.00000000000E+00 -0.26253797296E+03  0.26253797297E+03  0.25500000000E-02 0. -1.
         24    2    1    2    0    0  0.71054273576E-14 -0.88817841970E-15 -0.25619288236E+03  0.26888306558E+03  0.81629100091E+02 0.  0.
         66    2    3    3    0    0 -0.35220337947E+02  0.50384399437E+01 -0.19388450054E+03  0.19713208168E+03  0.19999980765E+01 0.  0.
        -13    1    3    3    0    0  0.35220337947E+02 -0.50384399437E+01 -0.62308381815E+02  0.71750983900E+02  0.10566000000E+00 0.  1.
         13    1    4    4    0    0 -0.46230105674E+01  0.70758842280E+00 -0.25619971228E+02  0.26043559623E+02  0.10566000000E+00 0. -1.
        -13    1    4    4    0    0 -0.30340329772E+02  0.42754806145E+01 -0.16557582777E+03  0.16838699846E+03  0.10566000000E+00 0.  1.
        -14    1    4    4    0    0 -0.25699760741E+00  0.55370906472E-01 -0.26887015428E+01  0.27015235875E+01  0.00000000000E+00 0.  1.
<mgrwt>
<rscale>  0 0.81629100E+02</rscale>
<asrwt>0</asrwt>
<pdfrwt beam="1">  1        2 0.40390449E-01 0.81629100E+02</pdfrwt>
<pdfrwt beam="2">  1       -1 0.97616814E-03 0.81629100E+02</pdfrwt>
<totfact> 0.23038152E+05</totfact>
</mgrwt>
</event>
<event>
 8    1  0.1493610E-013  0.7696882E+02  0.7818608E-02  0.1337880E+00
         -1   -1    0    0    0  501 -0.00000000000E+00  0.00000000000E+00  0.71372924366E+01  0.71372942161E+01  0.50400000000E-02 0.  1.
          2   -1    0    0  501    0  0.00000000000E+00 -0.00000000000E+00 -0.20750859535E+03  0.20750859537E+03  0.25500000000E-02 0. -1.
         24    2    1    2    0    0  0.00000000000E+00 -0.53290705182E-14 -0.20037130292E+03  0.21464588959E+03  0.76968817603E+02 0.  0.
         66    2    3    3    0    0  0.33031519090E+02 -0.14403146019E+02 -0.13772123037E+03  0.14237158832E+03  0.19999997065E+01 0.  0.
        -13    1    3    3    0    0 -0.33031519090E+02  0.14403146019E+02 -0.62650072552E+02  0.72274301265E+02  0.10566000000E+00 0.  1.
         13    1    4    4    0    0  0.22800210550E+02 -0.99984302397E+01 -0.93884269062E+02  0.97129219855E+02  0.10566000000E+00 0.  1.
        -13    1    4    4    0    0  0.31321665769E+01 -0.15015841711E+01 -0.11874905324E+02  0.12372944798E+02  0.10566000000E+00 0. -1.
        -14    1    4    4    0    0  0.70991419632E+01 -0.29031316081E+01 -0.31962055981E+02  0.32869423668E+02  0.00000000000E+00 0.  1.
<mgrwt>
<rscale>  0 0.76968818E+02</rscale>
<asrwt>0</asrwt>
<pdfrwt beam="1">  1        2 0.31924395E-01 0.76968818E+02</pdfrwt>
<pdfrwt beam="2">  1       -1 0.10980453E-02 0.76968818E+02</pdfrwt>
<totfact> 0.24734459E+05</totfact>
</mgrwt>
</event>
<event>
 8    1  0.1493610E-013  0.7740357E+02  0.7818608E-02  0.1336585E+00
          2   -1    0    0  501    0  0.00000000000E+00  0.00000000000E+00  0.75992579465E+01  0.75992583743E+01  0.25500000000E-02 0. -1.
         -1   -1    0    0    0  501 -0.00000000000E+00 -0.00000000000E+00 -0.19710188693E+03  0.19710188699E+03  0.50400000000E-02 0.  1.
         24    2    1    2    0    0  0.00000000000E+00  0.00000000000E+00 -0.18950262898E+03  0.20470114537E+03  0.77403569191E+02 0.  0.
         66    2    3    3    0    0 -0.93763304165E+01 -0.37432356761E+02 -0.87955601817E+02  0.96069166674E+02  0.19999974296E+01 0.  0.
        -13    1    3    3    0    0  0.93763304165E+01  0.37432356761E+02 -0.10154702716E+03  0.10863197869E+03  0.10566000000E+00 0.  1.
         13    1    4    4    0    0 -0.10620022133E+01 -0.53321183649E+01 -0.11558480770E+02  0.12773761259E+02  0.10566000000E+00 0.  1.
        -13    1    4    4    0    0 -0.62241344060E+00 -0.42574140609E+01 -0.10086926374E+02  0.10966778045E+02  0.10566000000E+00 0.  1.
         14    1    4    4    0    0 -0.76919147626E+01 -0.27842824335E+02 -0.66310194673E+02  0.72328627370E+02  0.00000000000E+00 0. -1.
<mgrwt>
<rscale>  0 0.77403569E+02</rscale>
<asrwt>0</asrwt>
<pdfrwt beam="1">  1        2 0.11691168E-02 0.77403569E+02</pdfrwt>
<pdfrwt beam="2">  1       -1 0.30323363E-01 0.77403569E+02</pdfrwt>
<totfact> 0.10879877E+05</totfact>
</mgrwt>
</event>
<event>
 8    1  0.1493610E-013  0.7953380E+02  0.7818608E-02  0.1330380E+00
          2   -1    0    0  501    0  0.00000000000E+00  0.00000000000E+00  0.89907506091E+03  0.89907506092E+03  0.25500000000E-02 0. -1.
         -1   -1    0    0    0  501 -0.00000000000E+00 -0.00000000000E+00 -0.17589222961E+01  0.17589295169E+01  0.50400000000E-02 0.  1.
         24    2    1    2    0    0 -0.17763568394E-14  0.00000000000E+00  0.89731613862E+03  0.90083399044E+03  0.79533802236E+02 0.  0.
         66    2    3    3    0    0 -0.13986657945E+02  0.17092250832E+02  0.82316419374E+03  0.82346284768E+03  0.20000008595E+01 0.  0.
        -13    1    3    3    0    0  0.13986657945E+02 -0.17092250832E+02  0.74151944875E+02  0.77371142759E+02  0.10566000000E+00 0.  1.
         13    1    4    4    0    0 -0.10164161391E+01  0.10667367948E+01  0.40644533765E+02  0.40671369760E+02  0.10566000000E+00 0. -1.
        -13    1    4    4    0    0 -0.12309674974E+01  0.17945457218E+01  0.84108422748E+02  0.84136636589E+02  0.10566000000E+00 0.  1.
         14    1    4    4    0    0 -0.11739274309E+02  0.14230968315E+02  0.69841123723E+03  0.69865484133E+03  0.00000000000E+00 0. -1.
<mgrwt>
<rscale>  0 0.79533802E+02</rscale>
<asrwt>0</asrwt>
<pdfrwt beam="1">  1        2 0.13831901E+00 0.79533802E+02</pdfrwt>
<pdfrwt beam="2">  1       -1 0.27060443E-03 0.79533802E+02</pdfrwt>
<totfact> 0.35476773E+05</totfact>
</mgrwt>
</event>
<event>
 8    1  0.1493610E-013  0.8058310E+02  0.7818608E-02  0.1327405E+00
         -1   -1    0    0    0  501 -0.00000000000E+00  0.00000000000E+00  0.14683032798E+03  0.14683032807E+03  0.50400000000E-02 0.  1.
          2   -1    0    0  501    0  0.00000000000E+00 -0.00000000000E+00 -0.11056359936E+02  0.11056360230E+02  0.25500000000E-02 0. -1.
         24    2    1    2    0    0 -0.35527136788E-14 -0.71054273576E-14  0.13577396804E+03  0.15788668830E+03  0.80583099611E+02 0.  0.
         66    2    3    3    0    0  0.20291798677E+02  0.32512896925E+02  0.92128925555E+02  0.99802727878E+02  0.20000019874E+01 0.  0.
        -13    1    3    3    0    0 -0.20291798677E+02 -0.32512896925E+02  0.43645042488E+02  0.58083960418E+02  0.10566000000E+00 0.  1.
         13    1    4    4    0    0  0.31432665137E+01  0.49490338763E+01  0.13066857516E+02  0.14322255062E+02  0.10566000000E+00 0. -1.
        -13    1    4    4    0    0  0.89215745764E+01  0.14692069096E+02  0.43758923073E+02  0.47013890498E+02  0.10566000000E+00 0.  1.
        -14    1    4    4    0    0  0.82269575871E+01  0.12871793953E+02  0.35303144967E+02  0.38466582318E+02  0.00000000000E+00 0.  1.
<mgrwt>
<rscale>  0 0.80583100E+02</rscale>
<asrwt>0</asrwt>
<pdfrwt beam="1">  1        2 0.17009786E-02 0.80583100E+02</pdfrwt>
<pdfrwt beam="2">  1       -1 0.22589280E-01 0.80583100E+02</pdfrwt>
<totfact> 0.10648670E+05</totfact>
</mgrwt>
</event>
<event>
 8    1  0.1493610E-013  0.7870176E+02  0.7818608E-02  0.1332777E+00
         -1   -1    0    0    0  501 -0.00000000000E+00  0.00000000000E+00  0.11481215946E+02  0.11481217052E+02  0.50400000000E-02 0.  1.
          2   -1    0    0  501    0  0.00000000000E+00 -0.00000000000E+00 -0.13487175563E+03  0.13487175565E+03  0.25500000000E-02 0. -1.
         24    2    1    2    0    0 -0.35527136788E-14  0.00000000000E+00 -0.12339053968E+03  0.14635297270E+03  0.78701761964E+02 0.  0.
         66    2    3    3    0    0 -0.23762775632E+02  0.13584052560E+02 -0.11424300338E+03  0.11749323303E+03  0.19999991586E+01 0.  0.
        -13    1    3    3    0    0  0.23762775632E+02 -0.13584052560E+02 -0.91475363032E+01  0.28859739676E+02  0.10566000000E+00 0.  1.
         13    1    4    4    0    0 -0.10859433381E+02  0.64178724715E+01 -0.53405058291E+02  0.54874655311E+02  0.10566000000E+00 0. -1.
        -13    1    4    4    0    0 -0.66983463821E+01  0.32035923473E+01 -0.32805930972E+02  0.33635860612E+02  0.10566000000E+00 0.  1.
        -14    1    4    4    0    0 -0.62049958693E+01  0.39625877416E+01 -0.28032014115E+02  0.28982717104E+02  0.00000000000E+00 0.  1.
<mgrwt>
<rscale>  0 0.78701762E+02</rscale>
<asrwt>0</asrwt>
<pdfrwt beam="1">  1        2 0.20749500E-01 0.78701762E+02</pdfrwt>
<pdfrwt beam="2">  1       -1 0.17663411E-02 0.78701762E+02</pdfrwt>
<totfact> 0.20226564E+05</totfact>
</mgrwt>
</event>
<event>
 8    1  0.1493610E-013  0.7979796E+02  0.7818608E-02  0.1329626E+00
         -1   -1    0    0    0  501 -0.00000000000E+00  0.00000000000E+00  0.13658295461E+02  0.13658296391E+02  0.50400000000E-02 0.  1.
          2   -1    0    0  501    0  0.00000000000E+00 -0.00000000000E+00 -0.11655398123E+03  0.11655398126E+03  0.25500000000E-02 0. -1.
         24    2    1    2    0    0 -0.88817841970E-15  0.14210854715E-13 -0.10289568577E+03  0.13021227765E+03  0.79797964262E+02 0.  0.
         66    2    3    3    0    0  0.45413974617E+01 -0.39480022945E+02 -0.56799584912E+02  0.69350481907E+02  0.19999979729E+01 0.  0.
        -13    1    3    3    0    0 -0.45413974617E+01  0.39480022945E+02 -0.46096100855E+02  0.60861795740E+02  0.10566000000E+00 0.  1.
         13    1    4    4    0    0  0.40058210058E+01 -0.34294778439E+02 -0.48760457324E+02  0.59747567253E+02  0.10566000000E+00 0. -1.
        -13    1    4    4    0    0  0.11886899455E+00 -0.20244474383E+01 -0.26103020843E+01  0.33071677120E+01  0.10566000000E+00 0.  1.
        -14    1    4    4    0    0  0.41670746131E+00 -0.31607970668E+01 -0.54288255039E+01  0.62957469420E+01  0.00000000000E+00 0.  1.
<mgrwt>
<rscale>  0 0.79797964E+02</rscale>
<asrwt>0</asrwt>
<pdfrwt beam="1">  1        2 0.17931381E-01 0.79797964E+02</pdfrwt>
<pdfrwt beam="2">  1       -1 0.21012764E-02 0.79797964E+02</pdfrwt>
<totfact> 0.18650655E+05</totfact>
</mgrwt>
</event>
<event>
 8    1  0.1493610E-013  0.7789361E+02  0.7818608E-02  0.1335138E+00
         -1   -1    0    0    0  501 -0.00000000000E+00  0.00000000000E+00  0.24267708781E+01  0.24267761117E+01  0.50400000000E-02 0.  1.
          2   -1    0    0  501    0  0.00000000000E+00 -0.00000000000E+00 -0.62504949822E+03  0.62504949823E+03  0.25500000000E-02 0. -1.
         24    2    1    2    0    0 -0.17763568394E-14  0.00000000000E+00 -0.62262272735E+03  0.62747627434E+03  0.77893608551E+02 0.  0.
         66    2    3    3    0    0  0.15237387425E+02 -0.12764844930E+01 -0.59983753496E+03  0.60003572871E+03  0.19999998832E+01 0.  0.
        -13    1    3    3    0    0 -0.15237387425E+02  0.12764844930E+01 -0.22785192391E+02  0.27440545630E+02  0.10566000000E+00 0.  1.
         13    1    4    4    0    0  0.61338179290E+01 -0.63194879088E+00 -0.26611033521E+03  0.26618178892E+03  0.10566000000E+00 0. -1.
        -13    1    4    4    0    0  0.98136575057E+00 -0.18451412163E+00 -0.50250903413E+02  0.50260934950E+02  0.10566000000E+00 0.  1.
         14    1    4    4    0    0  0.81222037450E+01 -0.46002158048E+00 -0.28347629633E+03  0.28359300484E+03  0.00000000000E+00 0. -1.
<mgrwt>
<rscale>  0 0.77893609E+02</rscale>
<asrwt>0</asrwt>
<pdfrwt beam="1">  1        2 0.96161333E-01 0.77893609E+02</pdfrwt>
<pdfrwt beam="2">  1       -1 0.37335027E-03 0.77893609E+02</pdfrwt>
<totfact> 0.34858536E+05</totfact>
</mgrwt>
</event>
<event>
 8    1  0.1493610E-013  0.8307489E+02  0.7818608E-02  0.1320545E+00
         -1   -1    0    0    0  501 -0.00000000000E+00  0.00000000000E+00  0.15105348785E+02  0.15105349626E+02  0.50400000000E-02 0.  1.
          2   -1    0    0  501    0  0.00000000000E+00 -0.00000000000E+00 -0.11422173262E+03  0.11422173264E+03  0.25500000000E-02 0. -1.
         24    2    1    2    0    0  0.00000000000E+00  0.00000000000E+00 -0.99116383830E+02  0.12932708227E+03  0.83074885885E+02 0.  0.
         66    2    3    3    0    0  0.17931485600E+02 -0.36496490828E+02 -0.36578660665E+02  0.54731438956E+02  0.19999938892E+01 0.  0.
        -13    1    3    3    0    0 -0.17931485600E+02  0.36496490828E+02 -0.62537723165E+02  0.74595643313E+02  0.10566000000E+00 0.  1.
         13    1    4    4    0    0  0.14391832023E+02 -0.28433283392E+02 -0.28152343101E+02  0.42522253227E+02  0.10566000000E+00 0. -1.
        -13    1    4    4    0    0  0.28141687027E+01 -0.57969842594E+01 -0.64184548599E+01  0.90957297022E+01  0.10566000000E+00 0.  1.
        -14    1    4    4    0    0  0.72548487464E+00 -0.22662231771E+01 -0.20078627044E+01  0.31134560269E+01  0.00000000000E+00 0.  1.
<mgrwt>
<rscale>  0 0.83074886E+02</rscale>
<asrwt>0</asrwt>
<pdfrwt beam="1">  1        2 0.17572574E-01 0.83074886E+02</pdfrwt>
<pdfrwt beam="2">  1       -1 0.23239000E-02 0.83074886E+02</pdfrwt>
<totfact> 0.16647361E+05</totfact>
</mgrwt>
</event>
<event>
 8    1  0.1493610E-013  0.7676328E+02  0.7818608E-02  0.1338496E+00
          2   -1    0    0  501    0  0.00000000000E+00  0.00000000000E+00  0.11680753634E+03  0.11680753637E+03  0.25500000000E-02 0. -1.
         -1   -1    0    0    0  501 -0.00000000000E+00 -0.00000000000E+00 -0.12611774186E+02  0.12611775193E+02  0.50400000000E-02 0.  1.
         24    2    1    2    0    0  0.35527136788E-14 -0.35527136788E-14  0.10419576216E+03  0.12941931156E+03  0.76763281289E+02 0.  0.
         66    2    3    3    0    0 -0.25652622411E+02  0.27759337972E+02  0.63125194801E+02  0.73603179952E+02  0.19999997987E+01 0.  0.
        -13    1    3    3    0    0  0.25652622411E+02 -0.27759337972E+02  0.41070567356E+02  0.55816131613E+02  0.10566000000E+00 0.  1.
         13    1    4    4    0    0 -0.15423274003E+02  0.16522089095E+02  0.35907399513E+02  0.42428873575E+02  0.10566000000E+00 0. -1.
        -13    1    4    4    0    0 -0.48205465866E+01  0.54328681671E+01  0.12766635346E+02  0.14688494409E+02  0.10566000000E+00 0.  1.
        -14    1    4    4    0    0 -0.54088018209E+01  0.58043807103E+01  0.14451159942E+02  0.16485811968E+02  0.00000000000E+00 0.  1.
<mgrwt>
<rscale>  0 0.76763281E+02</rscale>
<asrwt>0</asrwt>
<pdfrwt beam="1">  1        2 0.17970389E-01 0.76763281E+02</pdfrwt>
<pdfrwt beam="2">  1       -1 0.19402731E-02 0.76763281E+02</pdfrwt>
<totfact> 0.20691529E+05</totfact>
</mgrwt>
</event>
<event>
 8    1  0.1493610E-013  0.8034265E+02  0.7818608E-02  0.1328082E+00
          2   -1    0    0  501    0  0.00000000000E+00  0.00000000000E+00  0.35422530457E+02  0.35422530549E+02  0.25500000000E-02 0. -1.
         -1   -1    0    0    0  501 -0.00000000000E+00 -0.00000000000E+00 -0.45556747893E+02  0.45556748172E+02  0.50400000000E-02 0.  1.
         24    2    1    2    0    0  0.00000000000E+00  0.00000000000E+00 -0.10134217435E+02  0.80979278721E+02  0.80342648818E+02 0.  0.
         66    2    3    3    0    0  0.82765324406E+00  0.33447701947E+02  0.17293331418E+02  0.37715952733E+02  0.20000009001E+01 0.  0.
        -13    1    3    3    0    0 -0.82765324406E+00 -0.33447701947E+02 -0.27427548853E+02  0.43263325988E+02  0.10566000000E+00 0.  1.
         13    1    4    4    0    0  0.39180393343E+00  0.72491476584E+01  0.33703593478E+01  0.80046323004E+01  0.10566000000E+00 0. -1.
        -13    1    4    4    0    0  0.12624823637E+00  0.22648144380E+01  0.75779410368E+00  0.23938961955E+01  0.10566000000E+00 0.  1.
         14    1    4    4    0    0  0.30960107426E+00  0.23933739850E+02  0.13165177966E+02  0.27317424237E+02  0.00000000000E+00 0. -1.
<mgrwt>
<rscale>  0 0.80342649E+02</rscale>
<asrwt>0</asrwt>
<pdfrwt beam="1">  1        2 0.54496200E-02 0.80342649E+02</pdfrwt>
<pdfrwt beam="2">  1       -1 0.70087305E-02 0.80342649E+02</pdfrwt>
<totfact> 0.13743173E+05</totfact>
</mgrwt>
</event>
<event>
 8    1  0.1493610E-013  0.8092050E+02  0.7818608E-02  0.1326459E+00
         -1   -1    0    0    0  501 -0.00000000000E+00  0.00000000000E+00  0.26454292561E+02  0.26454293041E+02  0.50400000000E-02 0.  1.
          2   -1    0    0  501    0  0.00000000000E+00 -0.00000000000E+00 -0.61881512728E+02  0.61881512781E+02  0.25500000000E-02 0. -1.
         24    2    1    2    0    0  0.00000000000E+00 -0.17763568394E-14 -0.35427220167E+02  0.88335805822E+02  0.80920495929E+02 0.  0.
         66    2    3    3    0    0  0.35611994236E+02  0.13844987867E+02 -0.32780844510E+01  0.38401089302E+02  0.19999998579E+01 0.  0.
        -13    1    3    3    0    0 -0.35611994236E+02 -0.13844987867E+02 -0.32149135716E+02  0.49934716519E+02  0.10566000000E+00 0.  1.
         13    1    4    4    0    0  0.27913199053E+02  0.11397041833E+02 -0.27406641853E+01  0.30274769167E+02  0.10566000000E+00 0. -1.
        -13    1    4    4    0    0  0.91422818494E+00  0.42323106033E+00 -0.23365424264E+00  0.10395653155E+01  0.10566000000E+00 0.  1.
         14    1    4    4    0    0  0.67845669984E+01  0.20247149740E+01 -0.30376602311E+00  0.70867548200E+01  0.00000000000E+00 0. -1.
<mgrwt>
<rscale>  0 0.80920496E+02</rscale>
<asrwt>0</asrwt>
<pdfrwt beam="1">  1        2 0.95202327E-02 0.80920496E+02</pdfrwt>
<pdfrwt beam="2">  1       -1 0.40698912E-02 0.80920496E+02</pdfrwt>
<totfact> 0.15197855E+05</totfact>
</mgrwt>
</event>
<event>
 8    1  0.1493610E-013  0.8019916E+02  0.7818608E-02  0.1328487E+00
          2   -1    0    0  501    0  0.00000000000E+00  0.00000000000E+00  0.20810601810E+03  0.20810601811E+03  0.25500000000E-02 0. -1.
         -1   -1    0    0    0  501 -0.00000000000E+00 -0.00000000000E+00 -0.77267158291E+01  0.77267174728E+01  0.50400000000E-02 0.  1.
         24    2    1    2    0    0 -0.35527136788E-14  0.00000000000E+00  0.20037930227E+03  0.21583273558E+03  0.80199158180E+02 0.  0.
         66    2    3    3    0    0 -0.29307991358E+02 -0.18425562963E+02  0.15457900319E+03  0.15842073085E+03  0.20000020616E+01 0.  0.
        -13    1    3    3    0    0  0.29307991358E+02  0.18425562963E+02  0.45800299076E+02  0.57412004732E+02  0.10566000000E+00 0.  1.
         13    1    4    4    0    0 -0.10363498057E+02 -0.73136275515E+01  0.57840138068E+02  0.59214727692E+02  0.10566000000E+00 0. -1.
        -13    1    4    4    0    0 -0.16087719297E+02 -0.95947710000E+01  0.80919212877E+02  0.83059042369E+02  0.10566000000E+00 0.  1.
        -14    1    4    4    0    0 -0.28567740042E+01 -0.15171644113E+01  0.15819652246E+02  0.16146960790E+02  0.00000000000E+00 0.  1.
<mgrwt>
<rscale>  0 0.80199158E+02</rscale>
<asrwt>0</asrwt>
<pdfrwt beam="1">  1        2 0.32016310E-01 0.80199158E+02</pdfrwt>
<pdfrwt beam="2">  1       -1 0.11887257E-02 0.80199158E+02</pdfrwt>
<totfact> 0.22219966E+05</totfact>
</mgrwt>
</event>
<event>
 8    1  0.1493610E-013  0.7978430E+02  0.7818608E-02  0.1329665E+00
         -1   -1    0    0    0  501 -0.00000000000E+00  0.00000000000E+00  0.33330079795E+02  0.33330080176E+02  0.50400000000E-02 0.  1.
          2   -1    0    0  501    0  0.00000000000E+00 -0.00000000000E+00 -0.47746165491E+02  0.47746165559E+02  0.25500000000E-02 0. -1.
         24    2    1    2    0    0  0.17763568394E-14  0.00000000000E+00 -0.14416085696E+02  0.81076245735E+02  0.79784297300E+02 0.  0.
         66    2    3    3    0    0 -0.14851986485E+02 -0.35782008320E+02 -0.16769364387E+02  0.42262811120E+02  0.19999999650E+01 0.  0.
        -13    1    3    3    0    0  0.14851986485E+02  0.35782008320E+02  0.23532786913E+01  0.38813434615E+02  0.10566000000E+00 0.  1.
         13    1    4    4    0    0 -0.24410156979E+01 -0.59069948552E+01 -0.26163238517E+01  0.69070587366E+01  0.10566000000E+00 0. -1.
        -13    1    4    4    0    0 -0.76107589820E+00 -0.30075418820E+01 -0.10918088813E+01  0.32905554795E+01  0.10566000000E+00 0.  1.
        -14    1    4    4    0    0 -0.11649894889E+02 -0.26867471583E+02 -0.13061231654E+02  0.32065196904E+02  0.00000000000E+00 0.  1.
<mgrwt>
<rscale>  0 0.79784297E+02</rscale>
<asrwt>0</asrwt>
<pdfrwt beam="1">  1        2 0.73455639E-02 0.79784297E+02</pdfrwt>
<pdfrwt beam="2">  1       -1 0.51277046E-02 0.79784297E+02</pdfrwt>
<totfact> 0.14904727E+05</totfact>
</mgrwt>
</event>
<event>
 8    1  0.1493610E-013  0.8114909E+02  0.7818608E-02  0.1325822E+00
         -1   -1    0    0    0  501 -0.00000000000E+00  0.00000000000E+00  0.32153737897E+01  0.32153777397E+01  0.50400000000E-02 0.  1.
          2   -1    0    0  501    0  0.00000000000E+00 -0.00000000000E+00 -0.51200657835E+03  0.51200657835E+03  0.25500000000E-02 0. -1.
         24    2    1    2    0    0  0.00000000000E+00  0.35527136788E-14 -0.50879120456E+03  0.51522195609E+03  0.81149086289E+02 0.  0.
         66    2    3    3    0    0 -0.17146336910E+02 -0.28418998849E+02 -0.40245083536E+03  0.40382212822E+03  0.19999983799E+01 0.  0.
        -13    1    3    3    0    0  0.17146336910E+02  0.28418998849E+02 -0.10634036920E+03  0.11139982788E+03  0.10566000000E+00 0.  1.
         13    1    4    4    0    0 -0.12837855426E+02 -0.19958993648E+02 -0.28448393709E+03  0.28547205395E+03  0.10566000000E+00 0. -1.
        -13    1    4    4    0    0 -0.62080643400E+00 -0.16509458995E+01 -0.20417944234E+02  0.20494258556E+02  0.10566000000E+00 0.  1.
         14    1    4    4    0    0 -0.36876750494E+01 -0.68090593023E+01 -0.97548954035E+02  0.97855815715E+02  0.00000000000E+00 0. -1.
<mgrwt>
<rscale>  0 0.81149086E+02</rscale>
<asrwt>0</asrwt>
<pdfrwt beam="1">  1        2 0.78770178E-01 0.81149086E+02</pdfrwt>
<pdfrwt beam="2">  1       -1 0.49467360E-03 0.81149086E+02</pdfrwt>
<totfact> 0.29560897E+05</totfact>
</mgrwt>
</event>
<event>
 8    1  0.1493610E-013  0.7889054E+02  0.7818608E-02  0.1332230E+00
          2   -1    0    0  501    0  0.00000000000E+00  0.00000000000E+00  0.28414234078E+03  0.28414234079E+03  0.25500000000E-02 0. -1.
         -1   -1    0    0    0  501 -0.00000000000E+00 -0.00000000000E+00 -0.54758787316E+01  0.54758810510E+01  0.50400000000E-02 0.  1.
         24    2    1    2    0    0  0.35527136788E-14  0.00000000000E+00  0.27866646205E+03  0.28961822184E+03  0.78890540324E+02 0.  0.
         66    2    3    3    0    0  0.25915350216E+02 -0.26504356297E+02  0.18865388928E+03  0.19227162097E+03  0.20000033409E+01 0.  0.
        -13    1    3    3    0    0 -0.25915350216E+02  0.26504356297E+02  0.90012572769E+02  0.97346600865E+02  0.10566000000E+00 0.  1.
         13    1    4    4    0    0  0.82845381375E+01 -0.77287914700E+01  0.57727944368E+02  0.58829367792E+02  0.10566000000E+00 0.  1.
        -13    1    4    4    0    0  0.88637703091E+01 -0.84542903994E+01  0.62527927972E+02  0.63716515840E+02  0.10566000000E+00 0. -1.
        -14    1    4    4    0    0  0.87670417695E+01 -0.10321274427E+02  0.68398016937E+02  0.69725737343E+02  0.00000000000E+00 0.  1.
<mgrwt>
<rscale>  0 0.78890540E+02</rscale>
<asrwt>0</asrwt>
<pdfrwt beam="1">  1        2 0.43714207E-01 0.78890540E+02</pdfrwt>
<pdfrwt beam="2">  1       -1 0.84244306E-03 0.78890540E+02</pdfrwt>
<totfact> 0.25930132E+05</totfact>
</mgrwt>
</event>
<event>
 8    1  0.1493610E-013  0.8122240E+02  0.7818608E-02  0.1325618E+00
         -1   -1    0    0    0  501 -0.00000000000E+00  0.00000000000E+00  0.35617066040E+01  0.35617101700E+01  0.50400000000E-02 0.  1.
          2   -1    0    0  501    0  0.00000000000E+00 -0.00000000000E+00 -0.46305572449E+03  0.46305572449E+03  0.25500000000E-02 0. -1.
         24    2    1    2    0    0  0.00000000000E+00  0.00000000000E+00 -0.45949401788E+03  0.46661743466E+03  0.81222397540E+02 0.  0.
         66    2    3    3    0    0  0.18082186308E+02  0.99468547329E+01 -0.43065963262E+03  0.43115846798E+03  0.19999904348E+01 0.  0.
        -13    1    3    3    0    0 -0.18082186308E+02 -0.99468547329E+01 -0.28834385263E+02  0.35458966684E+02  0.10566000000E+00 0.  1.
         13    1    4    4    0    0  0.59825881467E+01  0.25219254156E+01 -0.12761496954E+03  0.12778005746E+03  0.10566000000E+00 0.  1.
        -13    1    4    4    0    0  0.10043055653E+02  0.58034733353E+01 -0.25102497795E+03  0.25129284508E+03  0.10566000000E+00 0. -1.
        -14    1    4    4    0    0  0.20565425091E+01  0.16214559821E+01 -0.52019685130E+02  0.52085565444E+02  0.00000000000E+00 0.  1.
<mgrwt>
<rscale>  0 0.81222398E+02</rscale>
<asrwt>0</asrwt>
<pdfrwt beam="1">  1        2 0.71239295E-01 0.81222398E+02</pdfrwt>
<pdfrwt beam="2">  1       -1 0.54795551E-03 0.81222398E+02</pdfrwt>
<totfact> 0.28547890E+05</totfact>
</mgrwt>
</event>
<event>
 8    1  0.1493610E-013  0.7161270E+02  0.7818608E-02  0.1354693E+00
          2   -1    0    0  501    0  0.00000000000E+00  0.00000000000E+00  0.98969478368E+02  0.98969478401E+02  0.25500000000E-02 0. -1.
         -1   -1    0    0    0  501 -0.00000000000E+00 -0.00000000000E+00 -0.12954445264E+02  0.12954446244E+02  0.50400000000E-02 0.  1.
         24    2    1    2    0    0 -0.35527136788E-14  0.22204460493E-15  0.86015033104E+02  0.11192392465E+03  0.71612701304E+02 0.  0.
         66    2    3    3    0    0  0.25793935811E+02 -0.18947806077E+01  0.81678983741E+02  0.85699321574E+02  0.20000037685E+01 0.  0.
        -13    1    3    3    0    0 -0.25793935811E+02  0.18947806077E+01  0.43360493632E+01  0.26224603072E+02  0.10566000000E+00 0.  1.
         13    1    4    4    0    0  0.10595100356E+02 -0.15850783168E+01  0.33856959878E+02  0.35511596994E+02  0.10566000000E+00 0. -1.
        -13    1    4    4    0    0  0.88778643389E+01  0.20824302254E+00  0.27335547789E+02  0.28742010670E+02  0.10566000000E+00 0.  1.
         14    1    4    4    0    0  0.63209711159E+01 -0.51794531347E+00  0.20486476073E+02  0.21445713910E+02  0.00000000000E+00 0. -1.
<mgrwt>
<rscale>  0 0.71612701E+02</rscale>
<asrwt>0</asrwt>
<pdfrwt beam="1">  1        2 0.15226074E-01 0.71612701E+02</pdfrwt>
<pdfrwt beam="2">  1       -1 0.19929916E-02 0.71612701E+02</pdfrwt>
<totfact> 0.23728938E+05</totfact>
</mgrwt>
</event>
<event>
 8    1  0.1493610E-013  0.8051937E+02  0.7818608E-02  0.1327584E+00
          2   -1    0    0  501    0  0.00000000000E+00  0.00000000000E+00  0.19221436510E+04  0.19221436510E+04  0.25500000000E-02 0. -1.
         -1   -1    0    0    0  501 -0.00000000000E+00 -0.00000000000E+00 -0.84323956885E+00  0.84325463062E+00  0.50400000000E-02 0.  1.
         24    2    1    2    0    0  0.00000000000E+00 -0.35527136788E-14  0.19213004114E+04  0.19229869056E+04  0.80519365793E+02 0.  0.
         66    2    3    3    0    0  0.21799978914E+01 -0.18857123006E+02  0.18084715591E+04  0.18085722888E+04  0.20000003179E+01 0.  0.
        -13    1    3    3    0    0 -0.21799978914E+01  0.18857123006E+02  0.11282885229E+03  0.11441461686E+03  0.10566000000E+00 0.  1.
         13    1    4    4    0    0  0.12604620559E+01 -0.12036862353E+02  0.11395489962E+04  0.11396132681E+04  0.10566000000E+00 0. -1.
        -13    1    4    4    0    0 -0.16625774993E+00 -0.84377419876E+00  0.11135535326E+03  0.11135872422E+03  0.10566000000E+00 0.  1.
        -14    1    4    4    0    0  0.10857935854E+01 -0.59764864546E+01  0.55756720964E+03  0.55760029645E+03  0.00000000000E+00 0.  1.
<mgrwt>
<rscale>  0 0.80519366E+02</rscale>
<asrwt>0</asrwt>
<pdfrwt beam="1">  1        2 0.29571147E+00 0.80519366E+02</pdfrwt>
<pdfrwt beam="2">  1       -1 0.12973161E-03 0.80519366E+02</pdfrwt>
<totfact> 0.28267170E+05</totfact>
</mgrwt>
</event>
<event>
 8    1  0.1493610E-013  0.7951566E+02  0.7818608E-02  0.1330432E+00
         -1   -1    0    0    0  501 -0.00000000000E+00  0.00000000000E+00  0.10783295545E+01  0.10783413327E+01  0.50400000000E-02 0.  1.
          2   -1    0    0  501    0  0.00000000000E+00 -0.00000000000E+00 -0.14658565721E+04  0.14658565721E+04  0.25500000000E-02 0. -1.
         24    2    1    2    0    0  0.35527136788E-14  0.17763568394E-14 -0.14647782425E+04  0.14669349134E+04  0.79515661475E+02 0.  0.
         66    2    3    3    0    0 -0.17228136797E+02 -0.14981493321E+02 -0.13327571920E+04  0.13329542328E+04  0.19999993470E+01 0.  0.
        -13    1    3    3    0    0  0.17228136797E+02  0.14981493321E+02 -0.13202105051E+03  0.13398068063E+03  0.10566000000E+00 0.  1.
         13    1    4    4    0    0 -0.55715797007E+01 -0.43383448315E+01 -0.43125592729E+03  0.43131374859E+03  0.10566000000E+00 0. -1.
        -13    1    4    4    0    0 -0.10392162393E+01 -0.10859311433E+01 -0.10997600373E+03  0.10998632541E+03  0.10566000000E+00 0.  1.
         14    1    4    4    0    0 -0.10617340857E+02 -0.95572173462E+01 -0.79152526102E+03  0.79165415881E+03  0.00000000000E+00 0. -1.
<mgrwt>
<rscale>  0 0.79515661E+02</rscale>
<asrwt>0</asrwt>
<pdfrwt beam="1">  1        2 0.22551480E+00 0.79515661E+02</pdfrwt>
<pdfrwt beam="2">  1       -1 0.16589893E-03 0.79515661E+02</pdfrwt>
<totfact> 0.34061613E+05</totfact>
</mgrwt>
</event>
<event>
 8    1  0.1493610E-013  0.8184800E+02  0.7818608E-02  0.1323887E+00
          2   -1    0    0  501    0  0.00000000000E+00  0.00000000000E+00  0.12184853165E+02  0.12184853432E+02  0.25500000000E-02 0. -1.
         -1   -1    0    0    0  501 -0.00000000000E+00 -0.00000000000E+00 -0.13744719472E+03  0.13744719482E+03  0.50400000000E-02 0.  1.
         24    2    1    2    0    0  0.00000000000E+00  0.00000000000E+00 -0.12526234156E+03  0.14963204825E+03  0.81848003336E+02 0.  0.
         66    2    3    3    0    0  0.19941659925E+02 -0.14648693218E+02 -0.31331117946E+01  0.25021398862E+02  0.19999994859E+01 0.  0.
        -13    1    3    3    0    0 -0.19941659925E+02  0.14648693218E+02 -0.12212922976E+03  0.12461064939E+03  0.10566000000E+00 0.  1.
         13    1    4    4    0    0  0.18473482367E+02 -0.13801965308E+02 -0.26793439863E+01  0.23215379500E+02  0.10566000000E+00 0. -1.
        -13    1    4    4    0    0  0.13136279461E+01 -0.59693087268E+00 -0.43904422489E+00  0.15119089638E+01  0.10566000000E+00 0.  1.
         14    1    4    4    0    0  0.15454961256E+00 -0.24979703671E+00 -0.14723583369E-01  0.29411039798E+00  0.00000000000E+00 0. -1.
<mgrwt>
<rscale>  0 0.81848003E+02</rscale>
<asrwt>0</asrwt>
<pdfrwt beam="1">  1        2 0.18745929E-02 0.81848003E+02</pdfrwt>
<pdfrwt beam="2">  1       -1 0.21145721E-01 0.81848003E+02</pdfrwt>
<totfact> 0.10408009E+05</totfact>
</mgrwt>
</event>
<event>
 8    1  0.1493610E-013  0.7971098E+02  0.7818608E-02  0.1329874E+00
         -1   -1    0    0    0  501 -0.00000000000E+00  0.00000000000E+00  0.18649087294E+01  0.18649155398E+01  0.50400000000E-02 0.  1.
          2   -1    0    0  501    0  0.00000000000E+00 -0.00000000000E+00 -0.85176127488E+03  0.85176127488E+03  0.25500000000E-02 0. -1.
         24    2    1    2    0    0  0.00000000000E+00 -0.88817841970E-15 -0.84989636615E+03  0.85362619042E+03  0.79710976541E+02 0.  0.
         66    2    3    3    0    0 -0.32892182560E+02  0.52502571350E+01 -0.65910197500E+03  0.65994611471E+03  0.19999964408E+01 0.  0.
        -13    1    3    3    0    0  0.32892182560E+02 -0.52502571350E+01 -0.19079439114E+03  0.19368007571E+03  0.10566000000E+00 0.  1.
         13    1    4    4    0    0 -0.18847515624E+02  0.36364282741E+01 -0.38348695778E+03  0.38396706943E+03  0.10566000000E+00 0. -1.
        -13    1    4    4    0    0 -0.46295537148E+01  0.83894912745E-01 -0.90601591328E+02  0.90719894847E+02  0.10566000000E+00 0.  1.
        -14    1    4    4    0    0 -0.94151132209E+01  0.15299339482E+01 -0.18501342590E+03  0.18525915043E+03  0.00000000000E+00 0.  1.
<mgrwt>
<rscale>  0 0.79710977E+02</rscale>
<asrwt>0</asrwt>
<pdfrwt beam="1">  1        2 0.13103989E+00 0.79710977E+02</pdfrwt>
<pdfrwt beam="2">  1       -1 0.28691024E-03 0.79710977E+02</pdfrwt>
<totfact> 0.35033134E+05</totfact>
</mgrwt>
</event>
<event>
 8    1  0.1493610E-013  0.7947931E+02  0.7818608E-02  0.1330536E+00
          2   -1    0    0  501    0  0.00000000000E+00  0.00000000000E+00  0.73039692747E+02  0.73039692792E+02  0.25500000000E-02 0. -1.
         -1   -1    0    0    0  501 -0.00000000000E+00 -0.00000000000E+00 -0.21621667889E+02  0.21621668476E+02  0.50400000000E-02 0.  1.
         24    2    1    2    0    0  0.00000000000E+00  0.00000000000E+00  0.51418024859E+02  0.94661361268E+02  0.79479305714E+02 0.  0.
         66    2    3    3    0    0 -0.50515602884E+01  0.88663509341E+01  0.71437799262E+02  0.72190647629E+02  0.20000003698E+01 0.  0.
        -13    1    3    3    0    0  0.50515602884E+01 -0.88663509341E+01 -0.20019774404E+02  0.22470713639E+02  0.10566000000E+00 0.  1.
         13    1    4    4    0    0 -0.17003532412E+01  0.31238982252E+01  0.24153456348E+02  0.24414146695E+02  0.10566000000E+00 0. -1.
        -13    1    4    4    0    0 -0.22606310954E+01  0.25042968057E+01  0.20683152200E+02  0.20956762737E+02  0.10566000000E+00 0.  1.
         14    1    4    4    0    0 -0.10905759519E+01  0.32381559032E+01  0.26601190714E+02  0.26819738197E+02  0.00000000000E+00 0. -1.
<mgrwt>
<rscale>  0 0.79479306E+02</rscale>
<asrwt>0</asrwt>
<pdfrwt beam="1">  1        2 0.11236876E-01 0.79479306E+02</pdfrwt>
<pdfrwt beam="2">  1       -1 0.33264106E-02 0.79479306E+02</pdfrwt>
<totfact> 0.16606804E+05</totfact>
</mgrwt>
</event>
<event>
 8    1  0.1493610E-013  0.7897836E+02  0.7818608E-02  0.1331976E+00
          2   -1    0    0  501    0  0.00000000000E+00  0.00000000000E+00  0.65572912314E+03  0.65572912314E+03  0.25500000000E-02 0. -1.
         -1   -1    0    0    0  501 -0.00000000000E+00 -0.00000000000E+00 -0.23781063754E+01  0.23781117161E+01  0.50400000000E-02 0.  1.
         24    2    1    2    0    0 -0.35527136788E-14  0.00000000000E+00  0.65335101676E+03  0.65810723486E+03  0.78978360765E+02 0.  0.
         66    2    3    3    0    0 -0.28586589881E+02  0.38976910754E+01  0.55125149550E+03  0.55200959811E+03  0.20000005974E+01 0.  0.
        -13    1    3    3    0    0  0.28586589881E+02 -0.38976910754E+01  0.10209952126E+03  0.10609763674E+03  0.10566000000E+00 0.  1.
         13    1    4    4    0    0 -0.17998513320E+02  0.22417329576E+01  0.33755138179E+03  0.33803833860E+03  0.10566000000E+00 0. -1.
        -13    1    4    4    0    0 -0.33538709099E+01  0.96374044895E+00  0.65080298158E+02  0.65173872204E+02  0.10566000000E+00 0.  1.
         14    1    4    4    0    0 -0.72342056511E+01  0.69221766886E+00  0.14861981555E+03  0.14879738731E+03  0.00000000000E+00 0. -1.
<mgrwt>
<rscale>  0 0.78978361E+02</rscale>
<asrwt>0</asrwt>
<pdfrwt beam="1">  1        2 0.10088142E+00 0.78978361E+02</pdfrwt>
<pdfrwt beam="2">  1       -1 0.36586288E-03 0.78978361E+02</pdfrwt>
<totfact> 0.34048902E+05</totfact>
</mgrwt>
</event>
<event>
 8    1  0.1493610E-013  0.7908709E+02  0.7818608E-02  0.1331662E+00
          2   -1    0    0  501    0  0.00000000000E+00  0.00000000000E+00  0.35504383822E+03  0.35504383823E+03  0.25500000000E-02 0. -1.
         -1   -1    0    0    0  501 -0.00000000000E+00 -0.00000000000E+00 -0.44042203230E+01  0.44042232068E+01  0.50400000000E-02 0.  1.
         24    2    1    2    0    0  0.17763568394E-14  0.00000000000E+00  0.35063961790E+03  0.35944806144E+03  0.79087086374E+02 0.  0.
         66    2    3    3    0    0 -0.11352289946E+02 -0.27059539205E+02  0.29573107783E+03  0.29719011347E+03  0.19999996744E+01 0.  0.
        -13    1    3    3    0    0  0.11352289946E+02  0.27059539205E+02  0.54908540064E+02  0.62257947967E+02  0.10566000000E+00 0.  1.
         13    1    4    4    0    0 -0.94013968822E+01 -0.23078276320E+02  0.24859789798E+03  0.24984378949E+03  0.10566000000E+00 0. -1.
        -13    1    4    4    0    0 -0.80606061462E+00 -0.23997709859E+01  0.27206277905E+02  0.27324006953E+02  0.10566000000E+00 0.  1.
         14    1    4    4    0    0 -0.11448324490E+01 -0.15814918992E+01  0.19926901949E+02  0.20022317030E+02  0.00000000000E+00 0. -1.
<mgrwt>
<rscale>  0 0.79087086E+02</rscale>
<asrwt>0</asrwt>
<pdfrwt beam="1">  1        2 0.54622138E-01 0.79087086E+02</pdfrwt>
<pdfrwt beam="2">  1       -1 0.67757247E-03 0.79087086E+02</pdfrwt>
<totfact> 0.27912611E+05</totfact>
</mgrwt>
</event>
<event>
 8    1  0.1493610E-013  0.7721713E+02  0.7818608E-02  0.1337140E+00
          2   -1    0    0  501    0  0.00000000000E+00  0.00000000000E+00  0.79479555963E+01  0.79479560053E+01  0.25500000000E-02 0. -1.
         -1   -1    0    0    0  501 -0.00000000000E+00 -0.00000000000E+00 -0.18754777428E+03  0.18754777435E+03  0.50400000000E-02 0.  1.
         24    2    1    2    0    0  0.00000000000E+00  0.00000000000E+00 -0.17959981869E+03  0.19549573036E+03  0.77217133559E+02 0.  0.
         66    2    3    3    0    0 -0.18527437434E+02  0.27085910009E+02 -0.38489203169E+02  0.50619474763E+02  0.20000014445E+01 0.  0.
        -13    1    3    3    0    0  0.18527437434E+02 -0.27085910009E+02 -0.14111061552E+03  0.14487625559E+03  0.10566000000E+00 0.  1.
         13    1    4    4    0    0 -0.11201326136E+02  0.15458151742E+02 -0.21723189648E+02  0.28919410350E+02  0.10566000000E+00 0. -1.
        -13    1    4    4    0    0 -0.49028054198E+01  0.70760034611E+01 -0.10896445885E+02  0.13887081152E+02  0.10566000000E+00 0.  1.
        -14    1    4    4    0    0 -0.24233058782E+01  0.45517548062E+01 -0.58695676359E+01  0.78129832604E+01  0.00000000000E+00 0.  1.
<mgrwt>
<rscale>  0 0.77217134E+02</rscale>
<asrwt>0</asrwt>
<pdfrwt beam="1">  1        2 0.12227626E-02 0.77217134E+02</pdfrwt>
<pdfrwt beam="2">  1       -1 0.28853501E-01 0.77217134E+02</pdfrwt>
<totfact> 0.11107371E+05</totfact>
</mgrwt>
</event>
<event>
 8    1  0.1493610E-013  0.8278438E+02  0.7818608E-02  0.1321330E+00
          2   -1    0    0  501    0  0.00000000000E+00  0.00000000000E+00  0.27289918742E+02  0.27289918861E+02  0.25500000000E-02 0. -1.
         -1   -1    0    0    0  501 -0.00000000000E+00 -0.00000000000E+00 -0.62781912354E+02  0.62781912556E+02  0.50400000000E-02 0.  1.
         24    2    1    2    0    0  0.00000000000E+00  0.71054273576E-14 -0.35491993612E+02  0.90071831417E+02  0.82784377779E+02 0.  0.
         66    2    3    3    0    0  0.32439599401E+01  0.37703762881E+02  0.42422749591E+00  0.37898245052E+02  0.19999994041E+01 0.  0.
        -13    1    3    3    0    0 -0.32439599401E+01 -0.37703762881E+02 -0.35916221108E+02  0.52173586365E+02  0.10566000000E+00 0.  1.
         13    1    4    4    0    0  0.43570946071E+00  0.74145358044E+01  0.53107334099E+00  0.74470387980E+01  0.10566000000E+00 0. -1.
        -13    1    4    4    0    0  0.11987426888E+01  0.12495503904E+02  0.63583049009E+00  0.12569409147E+02  0.10566000000E+00 0.  1.
        -14    1    4    4    0    0  0.16095077906E+01  0.17793723172E+02 -0.74267633518E+00  0.17881797108E+02  0.00000000000E+00 0.  1.
<mgrwt>
<rscale>  0 0.82784378E+02</rscale>
<asrwt>0</asrwt>
<pdfrwt beam="1">  1        2 0.41984491E-02 0.82784378E+02</pdfrwt>
<pdfrwt beam="2">  1       -1 0.96587557E-02 0.82784378E+02</pdfrwt>
<totfact> 0.11989412E+05</totfact>
</mgrwt>
</event>
<event>
 8    1  0.1493610E-013  0.7977460E+02  0.7818608E-02  0.1329692E+00
         -1   -1    0    0    0  501 -0.00000000000E+00  0.00000000000E+00  0.16656448584E+02  0.16656449346E+02  0.50400000000E-02 0.  1.
          2   -1    0    0  501    0  0.00000000000E+00 -0.00000000000E+00 -0.95518358043E+02  0.95518358077E+02  0.25500000000E-02 0. -1.
         24    2    1    2    0    0  0.00000000000E+00  0.00000000000E+00 -0.78861909460E+02  0.11217480742E+03  0.79774599071E+02 0.  0.
         66    2    3    3    0    0 -0.26316102767E+02 -0.19160739567E+02 -0.71806844472E+02  0.78866305331E+02  0.19999994729E+01 0.  0.
        -13    1    3    3    0    0  0.26316102767E+02  0.19160739567E+02 -0.70550649873E+01  0.33308502092E+02  0.10566000000E+00 0.  1.
         13    1    4    4    0    0 -0.65447384569E+01 -0.55896203700E+01 -0.19411245797E+02  0.21234054836E+02  0.10566000000E+00 0. -1.
        -13    1    4    4    0    0 -0.37358884096E+01 -0.21033668820E+01 -0.91629170942E+01  0.10116878380E+02  0.10566000000E+00 0.  1.
         14    1    4    4    0    0 -0.16035475901E+02 -0.11467752315E+02 -0.43232681582E+02  0.47515372115E+02  0.00000000000E+00 0. -1.
<mgrwt>
<rscale>  0 0.79774599E+02</rscale>
<asrwt>0</asrwt>
<pdfrwt beam="1">  1        2 0.14695132E-01 0.79774599E+02</pdfrwt>
<pdfrwt beam="2">  1       -1 0.25625307E-02 0.79774599E+02</pdfrwt>
<totfact> 0.17634664E+05</totfact>
</mgrwt>
</event>
<event>
 8    1  0.1493610E-013  0.7884968E+02  0.7818608E-02  0.1332348E+00
          2   -1    0    0  501    0  0.00000000000E+00  0.00000000000E+00  0.45020614198E+01  0.45020621420E+01  0.25500000000E-02 0. -1.
         -1   -1    0    0    0  501 -0.00000000000E+00 -0.00000000000E+00 -0.34524585916E+03  0.34524585920E+03  0.50400000000E-02 0.  1.
         24    2    1    2    0    0  0.00000000000E+00  0.00000000000E+00 -0.34074379774E+03  0.34974792134E+03  0.78849684732E+02 0.  0.
         66    2    3    3    0    0  0.39308453933E+02  0.26754670400E+01 -0.17058801327E+03  0.17509021373E+03  0.19999995375E+01 0.  0.
        -13    1    3    3    0    0 -0.39308453933E+02 -0.26754670400E+01 -0.17015578447E+03  0.17465770761E+03  0.10566000000E+00 0.  1.
         13    1    4    4    0    0  0.25999294849E+02  0.18994178103E+01 -0.10924033206E+03  0.11230775767E+03  0.10566000000E+00 0. -1.
        -13    1    4    4    0    0  0.26884366403E+01  0.30641126712E+00 -0.13251188586E+02  0.13525041309E+02  0.10566000000E+00 0.  1.
         14    1    4    4    0    0  0.10620722443E+02  0.46963796262E+00 -0.48096492627E+02  0.49257414752E+02  0.00000000000E+00 0. -1.
<mgrwt>
<rscale>  0 0.78849685E+02</rscale>
<asrwt>0</asrwt>
<pdfrwt beam="1">  1        2 0.69262516E-03 0.78849685E+02</pdfrwt>
<pdfrwt beam="2">  1       -1 0.53114727E-01 0.78849685E+02</pdfrwt>
<totfact> 0.84465118E+04</totfact>
</mgrwt>
</event>
<event>
 8    1  0.1493610E-013  0.7950095E+02  0.7818608E-02  0.1330474E+00
         -1   -1    0    0    0  501 -0.00000000000E+00  0.00000000000E+00  0.12510731937E+01  0.12510833456E+01  0.50400000000E-02 0.  1.
          2   -1    0    0  501    0  0.00000000000E+00 -0.00000000000E+00 -0.12629905890E+04  0.12629905890E+04  0.25500000000E-02 0. -1.
         24    2    1    2    0    0  0.00000000000E+00 -0.44408920985E-15 -0.12617395158E+04  0.12642416724E+04  0.79500945622E+02 0.  0.
         66    2    3    3    0    0  0.20241384430E+02  0.30694678450E+01 -0.11726351840E+04  0.11728155908E+04  0.19999987790E+01 0.  0.
        -13    1    3    3    0    0 -0.20241384430E+02 -0.30694678450E+01 -0.89104331838E+02  0.91426081578E+02  0.10566000000E+00 0.  1.
         13    1    4    4    0    0  0.82556983572E+01  0.70744463053E+00 -0.47536755306E+03  0.47543977400E+03  0.10566000000E+00 0. -1.
        -13    1    4    4    0    0  0.60441879854E+01  0.93179126231E+00 -0.31563481316E+03  0.31569407167E+03  0.10566000000E+00 0.  1.
        -14    1    4    4    0    0  0.59414980876E+01  0.14302319521E+01 -0.38163281778E+03  0.38168174514E+03  0.00000000000E+00 0.  1.
<mgrwt>
<rscale>  0 0.79500946E+02</rscale>
<asrwt>0</asrwt>
<pdfrwt beam="1">  1        2 0.19430523E+00 0.79500946E+02</pdfrwt>
<pdfrwt beam="2">  1       -1 0.19247459E-03 0.79500946E+02</pdfrwt>
<totfact> 0.35365149E+05</totfact>
</mgrwt>
</event>
<event>
 8    1  0.1493610E-013  0.8073943E+02  0.7818608E-02  0.1326966E+00
          2   -1    0    0  501    0  0.00000000000E+00  0.00000000000E+00  0.20110901444E+04  0.20110901444E+04  0.25500000000E-02 0. -1.
         -1   -1    0    0    0  501 -0.00000000000E+00 -0.00000000000E+00 -0.81035565563E+00  0.81037132860E+00  0.50400000000E-02 0.  1.
         24    2    1    2    0    0  0.00000000000E+00  0.00000000000E+00  0.20102797887E+04  0.20119005157E+04  0.80739433745E+02 0.  0.
         66    2    3    3    0    0  0.99723812049E+01  0.10908321799E+02  0.19411989072E+04  0.19412562008E+04  0.20000003101E+01 0.  0.
        -13    1    3    3    0    0 -0.99723812049E+01 -0.10908321799E+02  0.69080881526E+02  0.70644314901E+02  0.10566000000E+00 0.  1.
         13    1    4    4    0    0  0.17739669430E+01  0.12023586987E+01  0.32294247003E+03  0.32294959783E+03  0.10566000000E+00 0.  1.
        -13    1    4    4    0    0  0.44319883700E+01  0.45354370235E+01  0.82355592846E+03  0.82358034895E+03  0.10566000000E+00 0. -1.
        -14    1    4    4    0    0  0.37664258920E+01  0.51705260768E+01  0.79470050872E+03  0.79472625404E+03  0.00000000000E+00 0.  1.
<mgrwt>
<rscale>  0 0.80739434E+02</rscale>
<asrwt>0</asrwt>
<pdfrwt beam="1">  1        2 0.30939395E+00 0.80739434E+02</pdfrwt>
<pdfrwt beam="2">  1       -1 0.12467313E-03 0.80739434E+02</pdfrwt>
<totfact> 0.26963292E+05</totfact>
</mgrwt>
</event>
<event>
 8    1  0.1493610E-013  0.8057205E+02  0.7818608E-02  0.1327436E+00
          2   -1    0    0  501    0  0.00000000000E+00  0.00000000000E+00  0.75935670145E+01  0.75935674426E+01  0.25500000000E-02 0. -1.
         -1   -1    0    0    0  501 -0.00000000000E+00 -0.00000000000E+00 -0.21372878297E+03  0.21372878303E+03  0.50400000000E-02 0.  1.
         24    2    1    2    0    0  0.35527136788E-14  0.35527136788E-14 -0.20613521596E+03  0.22132235048E+03  0.80572051988E+02 0.  0.
         66    2    3    3    0    0  0.23948929073E+02 -0.23973746176E+02 -0.43411102795E+02  0.55107309404E+02  0.19999985989E+01 0.  0.
        -13    1    3    3    0    0 -0.23948929073E+02  0.23973746176E+02 -0.16272411317E+03  0.16621504107E+03  0.10566000000E+00 0.  1.
         13    1    4    4    0    0  0.11899718197E+02 -0.11602310705E+02 -0.20545329823E+02  0.26426097866E+02  0.10566000000E+00 0. -1.
        -13    1    4    4    0    0  0.26653763192E+01 -0.20989274252E+01 -0.47951760501E+01  0.58749131608E+01  0.10566000000E+00 0.  1.
        -14    1    4    4    0    0  0.93838345566E+01 -0.10272508046E+02 -0.18070596922E+02  0.22806298377E+02  0.00000000000E+00 0.  1.
<mgrwt>
<rscale>  0 0.80572052E+02</rscale>
<asrwt>0</asrwt>
<pdfrwt beam="1">  1        2 0.11682413E-02 0.80572052E+02</pdfrwt>
<pdfrwt beam="2">  1       -1 0.32881347E-01 0.80572052E+02</pdfrwt>
<totfact> 0.95823424E+04</totfact>
</mgrwt>
</event>
<event>
 8    1  0.1493610E-013  0.8003757E+02  0.7818608E-02  0.1328945E+00
          2   -1    0    0  501    0  0.00000000000E+00  0.00000000000E+00  0.17899444470E+04  0.17899444470E+04  0.25500000000E-02 0. -1.
         -1   -1    0    0    0  501 -0.00000000000E+00 -0.00000000000E+00 -0.89471518839E+00  0.89472938363E+00  0.50400000000E-02 0.  1.
         24    2    1    2    0    0  0.00000000000E+00 -0.44408920985E-15  0.17890497318E+04  0.17908391764E+04  0.80037571063E+02 0.  0.
         66    2    3    3    0    0 -0.18296503209E+02  0.34003963329E+01  0.16871604766E+04  0.16872642942E+04  0.20000024457E+01 0.  0.
        -13    1    3    3    0    0  0.18296503209E+02 -0.34003963329E+01  0.10188925523E+03  0.10357488219E+03  0.10566000000E+00 0.  1.
         13    1    4    4    0    0 -0.43806358646E+01  0.71740995633E+00  0.42555301306E+03  0.42557617736E+03  0.10566000000E+00 0. -1.
        -13    1    4    4    0    0 -0.92598726611E+01  0.10842138275E+01  0.85626215040E+03  0.85631291135E+03  0.10566000000E+00 0.  1.
        -14    1    4    4    0    0 -0.46559946833E+01  0.15987725491E+01  0.40534531308E+03  0.40537520546E+03  0.00000000000E+00 0.  1.
<mgrwt>
<rscale>  0 0.80037571E+02</rscale>
<asrwt>0</asrwt>
<pdfrwt beam="1">  1        2 0.27537328E+00 0.80037571E+02</pdfrwt>
<pdfrwt beam="2">  1       -1 0.13765098E-03 0.80037571E+02</pdfrwt>
<totfact> 0.30298044E+05</totfact>
</mgrwt>
</event>
<event>
 8    1  0.1493610E-013  0.8019452E+02  0.7818608E-02  0.1328500E+00
         -1   -1    0    0    0  501 -0.00000000000E+00  0.00000000000E+00  0.55422524702E+02  0.55422524931E+02  0.50400000000E-02 0.  1.
          2   -1    0    0  501    0  0.00000000000E+00 -0.00000000000E+00 -0.29009688538E+02  0.29009688650E+02  0.25500000000E-02 0. -1.
         24    2    1    2    0    0  0.00000000000E+00  0.00000000000E+00  0.26412836164E+02  0.84432213581E+02  0.80194518366E+02 0.  0.
         66    2    3    3    0    0 -0.37218685169E+02  0.14180386342E+02  0.85687990025E+01  0.40788947104E+02  0.20000017465E+01 0.  0.
        -13    1    3    3    0    0  0.37218685169E+02 -0.14180386342E+02  0.17844037162E+02  0.43643266477E+02  0.10566000000E+00 0.  1.
         13    1    4    4    0    0 -0.14102893972E+02  0.56217038658E+01  0.40833287425E+01  0.15721956315E+02  0.10566000000E+00 0. -1.
        -13    1    4    4    0    0 -0.11392154072E+02  0.38142716829E+01  0.20748797192E+01  0.12192052032E+02  0.10566000000E+00 0.  1.
         14    1    4    4    0    0 -0.11723637125E+02  0.47444107937E+01  0.24105905408E+01  0.12874938756E+02  0.00000000000E+00 0. -1.
<mgrwt>
<rscale>  0 0.80194518E+02</rscale>
<asrwt>0</asrwt>
<pdfrwt beam="1">  1        2 0.44630290E-02 0.80194518E+02</pdfrwt>
<pdfrwt beam="2">  1       -1 0.85265423E-02 0.80194518E+02</pdfrwt>
<totfact> 0.13275596E+05</totfact>
</mgrwt>
</event>
<event>
 8    1  0.1493610E-013  0.7588859E+02  0.7818608E-02  0.1341141E+00
          2   -1    0    0  501    0  0.00000000000E+00  0.00000000000E+00  0.30337855802E+03  0.30337855803E+03  0.25500000000E-02 0. -1.
         -1   -1    0    0    0  501 -0.00000000000E+00 -0.00000000000E+00 -0.47457838545E+01  0.47457865307E+01  0.50400000000E-02 0.  1.
         24    2    1    2    0    0 -0.17763568394E-14  0.17763568394E-14  0.29863277417E+03  0.30812434456E+03  0.75888588771E+02 0.  0.
         66    2    3    3    0    0  0.15712633911E+02  0.91400332455E+01  0.28453044340E+03  0.28511752015E+03  0.20000017351E+01 0.  0.
        -13    1    3    3    0    0 -0.15712633911E+02 -0.91400332455E+01  0.14102330767E+02  0.23006824406E+02  0.10566000000E+00 0.  1.
         13    1    4    4    0    0  0.23377874157E+01  0.13616855619E+01  0.36535610739E+02  0.36635794706E+02  0.10566000000E+00 0. -1.
        -13    1    4    4    0    0  0.92412086530E+00  0.27024919082E+00  0.20376931580E+02  0.20399939673E+02  0.10566000000E+00 0.  1.
        -14    1    4    4    0    0  0.12450725630E+02  0.75080984928E+01  0.22761790108E+03  0.22808178578E+03  0.00000000000E+00 0.  1.
<mgrwt>
<rscale>  0 0.75888589E+02</rscale>
<asrwt>0</asrwt>
<pdfrwt beam="1">  1        2 0.46673629E-01 0.75888589E+02</pdfrwt>
<pdfrwt beam="2">  1       -1 0.73012073E-03 0.75888589E+02</pdfrwt>
<totfact> 0.29384232E+05</totfact>
</mgrwt>
</event>
<event>
 8    1  0.1493610E-013  0.7841520E+02  0.7818608E-02  0.1333610E+00
          2   -1    0    0  501    0  0.00000000000E+00  0.00000000000E+00  0.11989275228E+03  0.11989275231E+03  0.25500000000E-02 0. -1.
         -1   -1    0    0    0  501 -0.00000000000E+00 -0.00000000000E+00 -0.12821758423E+02  0.12821759413E+02  0.50400000000E-02 0.  1.
         24    2    1    2    0    0  0.00000000000E+00  0.00000000000E+00  0.10707099386E+03  0.13271451173E+03  0.78415201944E+02 0.  0.
         66    2    3    3    0    0  0.23322793908E+02 -0.20972461633E+02  0.93313622829E+02  0.98464354289E+02  0.19999993883E+01 0.  0.
        -13    1    3    3    0    0 -0.23322793908E+02  0.20972461633E+02  0.13757371033E+02  0.34250157436E+02  0.10566000000E+00 0.  1.
         13    1    4    4    0    0  0.99652795487E+01 -0.88409764485E+01  0.39927529330E+02  0.42091429335E+02  0.10566000000E+00 0. -1.
        -13    1    4    4    0    0  0.51325654120E+00 -0.83719721079E+00  0.24344979240E+01  0.26272182293E+01  0.10566000000E+00 0.  1.
        -14    1    4    4    0    0  0.12844257818E+02 -0.11294287973E+02  0.50951595575E+02  0.53745706725E+02  0.00000000000E+00 0.  1.
<mgrwt>
<rscale>  0 0.78415202E+02</rscale>
<asrwt>0</asrwt>
<pdfrwt beam="1">  1        2 0.18445038E-01 0.78415202E+02</pdfrwt>
<pdfrwt beam="2">  1       -1 0.19725784E-02 0.78415202E+02</pdfrwt>
<totfact> 0.19704257E+05</totfact>
</mgrwt>
</event>
<event>
 8    1  0.1493610E-013  0.7962057E+02  0.7818608E-02  0.1330132E+00
         -1   -1    0    0    0  501 -0.00000000000E+00  0.00000000000E+00  0.21975736373E+01  0.21975794168E+01  0.50400000000E-02 0.  1.
          2   -1    0    0  501    0  0.00000000000E+00 -0.00000000000E+00 -0.72118483487E+03  0.72118483488E+03  0.25500000000E-02 0. -1.
         24    2    1    2    0    0  0.35527136788E-14 -0.35527136788E-14 -0.71898726123E+03  0.72338241429E+03  0.79620572034E+02 0.  0.
         66    2    3    3    0    0 -0.17927534753E+02  0.20444168384E+02 -0.62358586569E+03  0.62418161813E+03  0.20000004202E+01 0.  0.
        -13    1    3    3    0    0  0.17927534753E+02 -0.20444168384E+02 -0.95401395548E+02  0.99200796165E+02  0.10566000000E+00 0.  1.
         13    1    4    4    0    0 -0.68158305243E+01  0.78230478541E+01 -0.22801472465E+03  0.22825069867E+03  0.10566000000E+00 0. -1.
        -13    1    4    4    0    0 -0.59778540046E+01  0.64094262555E+01 -0.22144812147E+03  0.22162151779E+03  0.10566000000E+00 0.  1.
        -14    1    4    4    0    0 -0.51338502246E+01  0.62116942743E+01 -0.17412301957E+03  0.17430940166E+03  0.00000000000E+00 0.  1.
<mgrwt>
<rscale>  0 0.79620572E+02</rscale>
<asrwt>0</asrwt>
<pdfrwt beam="1">  1        2 0.11095132E+00 0.79620572E+02</pdfrwt>
<pdfrwt beam="2">  1       -1 0.33808927E-03 0.79620572E+02</pdfrwt>
<totfact> 0.34093640E+05</totfact>
</mgrwt>
</event>
<event>
 8    1  0.1493610E-013  0.7852437E+02  0.7818608E-02  0.1333292E+00
          2   -1    0    0  501    0  0.00000000000E+00  0.00000000000E+00  0.38542975017E+03  0.38542975018E+03  0.25500000000E-02 0. -1.
         -1   -1    0    0    0  501 -0.00000000000E+00 -0.00000000000E+00 -0.39994794509E+01  0.39994826266E+01  0.50400000000E-02 0.  1.
         24    2    1    2    0    0  0.00000000000E+00  0.00000000000E+00  0.38143027072E+03  0.38942923280E+03  0.78524365278E+02 0.  0.
         66    2    3    3    0    0  0.37242019528E+02 -0.10079091588E+02  0.15543632432E+03  0.16016556129E+03  0.19999994723E+01 0.  0.
        -13    1    3    3    0    0 -0.37242019528E+02  0.10079091588E+02  0.22599394639E+03  0.22926367152E+03  0.10566000000E+00 0.  1.
         13    1    4    4    0    0  0.79736086525E+01 -0.28058464238E+01  0.33653491645E+02  0.34698989510E+02  0.10566000000E+00 0. -1.
        -13    1    4    4    0    0  0.15675962772E+02 -0.33535143758E+01  0.63944791533E+02  0.65923663397E+02  0.10566000000E+00 0.  1.
         14    1    4    4    0    0  0.13592448104E+02 -0.39197307882E+01  0.57838041146E+02  0.59542908382E+02  0.00000000000E+00 0. -1.
<mgrwt>
<rscale>  0 0.78524365E+02</rscale>
<asrwt>0</asrwt>
<pdfrwt beam="1">  1        2 0.59296894E-01 0.78524365E+02</pdfrwt>
<pdfrwt beam="2">  1       -1 0.61530468E-03 0.78524365E+02</pdfrwt>
<totfact> 0.29276883E+05</totfact>
</mgrwt>
</event>
<event>
 8    1  0.1493610E-013  0.7854917E+02  0.7818608E-02  0.1333220E+00
          2   -1    0    0  501    0  0.00000000000E+00  0.00000000000E+00  0.23284067520E+03  0.23284067521E+03  0.25500000000E-02 0. -1.
         -1   -1    0    0    0  501 -0.00000000000E+00 -0.00000000000E+00 -0.66246712281E+01  0.66246731453E+01  0.50400000000E-02 0.  1.
         24    2    1    2    0    0  0.00000000000E+00  0.00000000000E+00  0.22621600397E+03  0.23946534836E+03  0.78549173209E+02 0.  0.
         66    2    3    3    0    0 -0.63629791014E+01 -0.32806530779E+02  0.17593590657E+03  0.17909271115E+03  0.20000004535E+01 0.  0.
        -13    1    3    3    0    0  0.63629791014E+01  0.32806530779E+02  0.50280097404E+02  0.60372637211E+02  0.10566000000E+00 0.  1.
         13    1    4    4    0    0 -0.54381852775E+01 -0.26545813818E+02  0.13928040272E+03  0.14189184556E+03  0.10566000000E+00 0. -1.
        -13    1    4    4    0    0 -0.65094402971E+00 -0.50806943634E+01  0.28709715304E+02  0.29163266282E+02  0.10566000000E+00 0.  1.
        -14    1    4    4    0    0 -0.27384979416E+00 -0.11800225980E+01  0.79457885439E+01  0.80375993073E+01  0.00000000000E+00 0.  1.
<mgrwt>
<rscale>  0 0.78549173E+02</rscale>
<asrwt>0</asrwt>
<pdfrwt beam="1">  1        2 0.35821634E-01 0.78549173E+02</pdfrwt>
<pdfrwt beam="2">  1       -1 0.10191806E-02 0.78549173E+02</pdfrwt>
<totfact> 0.24417438E+05</totfact>
</mgrwt>
</event>
<event>
 8    1  0.1493610E-013  0.8115393E+02  0.7818608E-02  0.1325808E+00
          2   -1    0    0  501    0  0.00000000000E+00  0.00000000000E+00  0.16627170083E+02  0.16627170279E+02  0.25500000000E-02 0. -1.
         -1   -1    0    0    0  501 -0.00000000000E+00 -0.00000000000E+00 -0.99024082936E+02  0.99024083064E+02  0.50400000000E-02 0.  1.
         24    2    1    2    0    0  0.00000000000E+00  0.00000000000E+00 -0.82396912852E+02  0.11565125334E+03  0.81153934914E+02 0.  0.
         66    2    3    3    0    0 -0.31773671439E+02 -0.39058418983E+01 -0.57487092888E+01  0.32586338540E+02  0.20000008224E+01 0.  0.
        -13    1    3    3    0    0  0.31773671439E+02  0.39058418983E+01 -0.76648203564E+02  0.83064914803E+02  0.10566000000E+00 0.  1.
         13    1    4    4    0    0 -0.55983196405E+01 -0.76829084646E+00 -0.37676720784E+00  0.56643244245E+01  0.10566000000E+00 0. -1.
        -13    1    4    4    0    0 -0.11340197853E+02 -0.18295093789E+01 -0.24291431941E+01  0.11741341176E+02  0.10566000000E+00 0.  1.
         14    1    4    4    0    0 -0.14835153945E+02 -0.13080416730E+01 -0.29427988869E+01  0.15180672939E+02  0.00000000000E+00 0. -1.
<mgrwt>
<rscale>  0 0.81153935E+02</rscale>
<asrwt>0</asrwt>
<pdfrwt beam="1">  1        2 0.25580262E-02 0.81153935E+02</pdfrwt>
<pdfrwt beam="2">  1       -1 0.15234474E-01 0.81153935E+02</pdfrwt>
<totfact> 0.11461565E+05</totfact>
</mgrwt>
</event>
<event>
 8    1  0.1493610E-013  0.8041566E+02  0.7818608E-02  0.1327876E+00
          2   -1    0    0  501    0  0.00000000000E+00  0.00000000000E+00  0.31145647437E+02  0.31145647541E+02  0.25500000000E-02 0. -1.
         -1   -1    0    0    0  501 -0.00000000000E+00 -0.00000000000E+00 -0.51906755498E+02  0.51906755742E+02  0.50400000000E-02 0.  1.
         24    2    1    2    0    0  0.00000000000E+00  0.00000000000E+00 -0.20761108061E+02  0.83052403284E+02  0.80415658197E+02 0.  0.
         66    2    3    3    0    0  0.30771322418E+02  0.76206215552E+01  0.15115118171E+02  0.35176909251E+02  0.19999977152E+01 0.  0.
        -13    1    3    3    0    0 -0.30771322418E+02 -0.76206215552E+01 -0.35876226232E+02  0.47875494033E+02  0.10566000000E+00 0.  1.
         13    1    4    4    0    0  0.17538480376E+02  0.42043761362E+01  0.86640799067E+01  0.20008810991E+02  0.10566000000E+00 0. -1.
        -13    1    4    4    0    0  0.44984447160E+01  0.17938766897E+01  0.22900046147E+01  0.53581044794E+01  0.10566000000E+00 0.  1.
         14    1    4    4    0    0  0.87343973260E+01  0.16223687293E+01  0.41610336496E+01  0.98099937806E+01  0.00000000000E+00 0. -1.
<mgrwt>
<rscale>  0 0.80415658E+02</rscale>
<asrwt>0</asrwt>
<pdfrwt beam="1">  1        2 0.47916381E-02 0.80415658E+02</pdfrwt>
<pdfrwt beam="2">  1       -1 0.79856548E-02 0.80415658E+02</pdfrwt>
<totfact> 0.13360087E+05</totfact>
</mgrwt>
</event>
<event>
 8    1  0.1493610E-013  0.8230528E+02  0.7818608E-02  0.1322634E+00
          2   -1    0    0  501    0  0.00000000000E+00  0.00000000000E+00  0.48889658514E+02  0.48889658581E+02  0.25500000000E-02 0. -1.
         -1   -1    0    0    0  501 -0.00000000000E+00 -0.00000000000E+00 -0.34640042288E+02  0.34640042655E+02  0.50400000000E-02 0.  1.
         24    2    1    2    0    0  0.00000000000E+00  0.00000000000E+00  0.14249616226E+02  0.83529701235E+02  0.82305281883E+02 0.  0.
         66    2    3    3    0    0  0.39412441702E+02 -0.17909706494E+01  0.18920223733E+02  0.43800947476E+02  0.19999992339E+01 0.  0.
        -13    1    3    3    0    0 -0.39412441702E+02  0.17909706494E+01 -0.46706075062E+01  0.39728753759E+02  0.10566000000E+00 0.  1.
         13    1    4    4    0    0  0.11126714105E+02  0.69068898882E-01  0.49489840014E+01  0.12178347341E+02  0.10566000000E+00 0. -1.
        -13    1    4    4    0    0  0.15818161811E+02 -0.14758470949E+01  0.74490166668E+01  0.17546833933E+02  0.10566000000E+00 0.  1.
         14    1    4    4    0    0  0.12467565786E+02 -0.38419245334E+00  0.65222230644E+01  0.14075766202E+02  0.00000000000E+00 0. -1.
<mgrwt>
<rscale>  0 0.82305282E+02</rscale>
<asrwt>0</asrwt>
<pdfrwt beam="1">  1        2 0.75214859E-02 0.82305282E+02</pdfrwt>
<pdfrwt beam="2">  1       -1 0.53292373E-02 0.82305282E+02</pdfrwt>
<totfact> 0.13753931E+05</totfact>
</mgrwt>
</event>
<event>
 8    1  0.1493610E-013  0.7893655E+02  0.7818608E-02  0.1332097E+00
         -1   -1    0    0    0  501 -0.00000000000E+00  0.00000000000E+00  0.17483515483E+03  0.17483515490E+03  0.50400000000E-02 0.  1.
          2   -1    0    0  501    0  0.00000000000E+00 -0.00000000000E+00 -0.89097903671E+01  0.89097907320E+01  0.25500000000E-02 0. -1.
         24    2    1    2    0    0 -0.71054273576E-14  0.00000000000E+00  0.16592536446E+03  0.18374494563E+03  0.78936547138E+02 0.  0.
         66    2    3    3    0    0 -0.17694855719E+02  0.32586185876E+02  0.51718759658E+02  0.63669439498E+02  0.19999991434E+01 0.  0.
        -13    1    3    3    0    0  0.17694855719E+02 -0.32586185876E+02  0.11420660480E+03  0.12007550614E+03  0.10566000000E+00 0.  1.
         13    1    4    4    0    0 -0.48191311873E+01  0.95855129164E+01  0.15314198619E+02  0.18698714572E+02  0.10566000000E+00 0. -1.
        -13    1    4    4    0    0 -0.58322257125E+01  0.11170842899E+02  0.18506934945E+02  0.22390185192E+02  0.10566000000E+00 0.  1.
        -14    1    4    4    0    0 -0.70434988189E+01  0.11829830060E+02  0.17897626093E+02  0.22580539733E+02  0.00000000000E+00 0.  1.
<mgrwt>
<rscale>  0 0.78936547E+02</rscale>
<asrwt>0</asrwt>
<pdfrwt beam="1">  1        2 0.13707370E-02 0.78936547E+02</pdfrwt>
<pdfrwt beam="2">  1       -1 0.26897716E-01 0.78936547E+02</pdfrwt>
<totfact> 0.10714305E+05</totfact>
</mgrwt>
</event>
<event>
 8    1  0.1493610E-013  0.8602030E+02  0.7818608E-02  0.1312786E+00
         -1   -1    0    0    0  501 -0.00000000000E+00  0.00000000000E+00  0.57036031022E+01  0.57036053290E+01  0.50400000000E-02 0.  1.
          2   -1    0    0  501    0  0.00000000000E+00 -0.00000000000E+00 -0.32433405906E+03  0.32433405907E+03  0.25500000000E-02 0. -1.
         24    2    1    2    0    0  0.00000000000E+00  0.00000000000E+00 -0.31863045595E+03  0.33003766440E+03  0.86020302592E+02 0.  0.
         66    2    3    3    0    0  0.59403677280E+01  0.42409839233E+02 -0.17374951983E+03  0.17896026950E+03  0.19999963436E+01 0.  0.
        -13    1    3    3    0    0 -0.59403677280E+01 -0.42409839233E+02 -0.14488093613E+03  0.15107739490E+03  0.10566000000E+00 0.  1.
         13    1    4    4    0    0  0.19514628583E+01  0.14760018580E+02 -0.60213688025E+02  0.62027137169E+02  0.10566000000E+00 0. -1.
        -13    1    4    4    0    0  0.26854284415E+01  0.21526448764E+02 -0.90208957506E+02  0.92780745312E+02  0.10566000000E+00 0.  1.
        -14    1    4    4    0    0  0.13034764282E+01  0.61233718899E+01 -0.23326874299E+02  0.24152387018E+02  0.00000000000E+00 0.  1.
<mgrwt>
<rscale>  0 0.86020303E+02</rscale>
<asrwt>0</asrwt>
<pdfrwt beam="1">  1        2 0.49897533E-01 0.86020303E+02</pdfrwt>
<pdfrwt beam="2">  1       -1 0.87747783E-03 0.86020303E+02</pdfrwt>
<totfact> 0.21670041E+05</totfact>
</mgrwt>
</event>
<event>
 8    1  0.1493610E-013  0.8058961E+02  0.7818608E-02  0.1327386E+00
          2   -1    0    0  501    0  0.00000000000E+00  0.00000000000E+00  0.18489103513E+03  0.18489103514E+03  0.25500000000E-02 0. -1.
         -1   -1    0    0    0  501 -0.00000000000E+00 -0.00000000000E+00 -0.87817728936E+01  0.87817743399E+01  0.50400000000E-02 0.  1.
         24    2    1    2    0    0  0.00000000000E+00  0.00000000000E+00  0.17610926223E+03  0.19367280948E+03  0.80589607824E+02 0.  0.
         66    2    3    3    0    0  0.11508132604E+02  0.34926724695E+02  0.12754995060E+03  0.13276032206E+03  0.20000003680E+01 0.  0.
        -13    1    3    3    0    0 -0.11508132604E+02 -0.34926724695E+02  0.48559311635E+02  0.60912487426E+02  0.10566000000E+00 0.  1.
         13    1    4    4    0    0  0.52894836877E+01  0.15337293690E+02  0.57142986096E+02  0.59401542399E+02  0.10566000000E+00 0. -1.
        -13    1    4    4    0    0  0.57354356695E+01  0.16398121176E+02  0.59333129497E+02  0.61824145933E+02  0.10566000000E+00 0.  1.
        -14    1    4    4    0    0  0.48321324667E+00  0.31913098284E+01  0.11073835005E+02  0.11534633726E+02  0.00000000000E+00 0.  1.
<mgrwt>
<rscale>  0 0.80589608E+02</rscale>
<asrwt>0</asrwt>
<pdfrwt beam="1">  1        2 0.28444774E-01 0.80589608E+02</pdfrwt>
<pdfrwt beam="2">  1       -1 0.13510421E-02 0.80589608E+02</pdfrwt>
<totfact> 0.21056867E+05</totfact>
</mgrwt>
</event>
<event>
 8    1  0.1493610E-013  0.8964912E+02  0.7818608E-02  0.1303704E+00
         -1   -1    0    0    0  501 -0.00000000000E+00  0.00000000000E+00  0.30721742044E+01  0.30721783386E+01  0.50400000000E-02 0.  1.
          2   -1    0    0  501    0  0.00000000000E+00 -0.00000000000E+00 -0.65401238444E+03  0.65401238444E+03  0.25500000000E-02 0. -1.
         24    2    1    2    0    0 -0.17763568394E-14 -0.17763568394E-14 -0.65094021023E+03  0.65708456278E+03  0.89649123514E+02 0.  0.
         66    2    3    3    0    0  0.13352444015E+02  0.65622858393E+01 -0.63537495899E+03  0.63555227152E+03  0.19999921143E+01 0.  0.
        -13    1    3    3    0    0 -0.13352444015E+02 -0.65622858393E+01 -0.15565251246E+02  0.21532291262E+02  0.10566000000E+00 0.  1.
         13    1    4    4    0    0  0.88753566340E+01  0.44899416905E+01 -0.45645966914E+03  0.45656803682E+03  0.10566000000E+00 0. -1.
        -13    1    4    4    0    0  0.31224538886E+01  0.16806108212E+01 -0.12282725479E+03  0.12287847596E+03  0.10566000000E+00 0.  1.
        -14    1    4    4    0    0  0.13546334924E+01  0.39173332759E+00 -0.56088035054E+02  0.56105758734E+02  0.00000000000E+00 0.  1.
<mgrwt>
<rscale>  0 0.89649124E+02</rscale>
<asrwt>0</asrwt>
<pdfrwt beam="1">  1        2 0.10061718E+00 0.89649124E+02</pdfrwt>
<pdfrwt beam="2">  1       -1 0.47264302E-03 0.89649124E+02</pdfrwt>
<totfact> 0.24432882E+05</totfact>
</mgrwt>
</event>
<event>
 8    1  0.1493610E-013  0.8904546E+02  0.7818608E-02  0.1305180E+00
          2   -1    0    0  501    0  0.00000000000E+00  0.00000000000E+00  0.85092631853E+03  0.85092631853E+03  0.25500000000E-02 0. -1.
         -1   -1    0    0    0  501 -0.00000000000E+00 -0.00000000000E+00 -0.23295449812E+01  0.23295504333E+01  0.50400000000E-02 0.  1.
         24    2    1    2    0    0  0.17763568394E-14  0.17763568394E-14  0.84859677355E+03  0.85325586897E+03  0.89045459454E+02 0.  0.
         66    2    3    3    0    0  0.15899973375E+02  0.10272200628E+02  0.81042096057E+03  0.81064447238E+03  0.19999994115E+01 0.  0.
        -13    1    3    3    0    0 -0.15899973375E+02 -0.10272200628E+02  0.38175812974E+02  0.42611396590E+02  0.10566000000E+00 0.  1.
         13    1    4    4    0    0  0.23761049151E+01  0.15492003708E+01  0.12326474822E+03  0.12329742582E+03  0.10566000000E+00 0. -1.
        -13    1    4    4    0    0  0.58869749580E+01  0.45349956421E+01  0.34449928816E+03  0.34457944420E+03  0.10566000000E+00 0.  1.
        -14    1    4    4    0    0  0.76368935020E+01  0.41880046156E+01  0.34265692419E+03  0.34276760235E+03  0.00000000000E+00 0.  1.
<mgrwt>
<rscale>  0 0.89045459E+02</rscale>
<asrwt>0</asrwt>
<pdfrwt beam="1">  1        2 0.13091170E+00 0.89045459E+02</pdfrwt>
<pdfrwt beam="2">  1       -1 0.35839206E-03 0.89045459E+02</pdfrwt>
<totfact> 0.26234235E+05</totfact>
</mgrwt>
</event>
<event>
 8    1  0.1493610E-013  0.8014900E+02  0.7818608E-02  0.1328629E+00
          2   -1    0    0  501    0  0.00000000000E+00  0.00000000000E+00  0.60519904572E+01  0.60519909944E+01  0.25500000000E-02 0. -1.
         -1   -1    0    0    0  501 -0.00000000000E+00 -0.00000000000E+00 -0.26536152996E+03  0.26536153000E+03  0.50400000000E-02 0.  1.
         24    2    1    2    0    0  0.00000000000E+00  0.00000000000E+00 -0.25930953950E+03  0.27141352100E+03  0.80148999405E+02 0.  0.
         66    2    3    3    0    0 -0.35786481400E+02 -0.52000669095E+01 -0.71449741416E+02  0.80104797081E+02  0.20000050579E+01 0.  0.
        -13    1    3    3    0    0  0.35786481400E+02  0.52000669095E+01 -0.18785979808E+03  0.19130872392E+03  0.10566000000E+00 0.  1.
         13    1    4    4    0    0 -0.27393117132E+01  0.10546245298E+00 -0.54232780859E+01  0.60776689794E+01  0.10566000000E+00 0. -1.
        -13    1    4    4    0    0 -0.23997513211E+02 -0.37972338075E+01 -0.48395655257E+02  0.54152102791E+02  0.10566000000E+00 0.  1.
         14    1    4    4    0    0 -0.90496564760E+01 -0.15082955550E+01 -0.17630808073E+02  0.19875025311E+02  0.00000000000E+00 0. -1.
<mgrwt>
<rscale>  0 0.80148999E+02</rscale>
<asrwt>0</asrwt>
<pdfrwt beam="1">  1        2 0.93107570E-03 0.80148999E+02</pdfrwt>
<pdfrwt beam="2">  1       -1 0.40824842E-01 0.80148999E+02</pdfrwt>
<totfact> 0.90205156E+04</totfact>
</mgrwt>
</event>
<event>
 8    1  0.1493610E-013  0.7888606E+02  0.7818608E-02  0.1332243E+00
         -1   -1    0    0    0  501 -0.00000000000E+00  0.00000000000E+00  0.13113218996E+03  0.13113219006E+03  0.50400000000E-02 0.  1.
          2   -1    0    0  501    0  0.00000000000E+00 -0.00000000000E+00 -0.11864001916E+02  0.11864002190E+02  0.25500000000E-02 0. -1.
         24    2    1    2    0    0 -0.35527136788E-14  0.88817841970E-15  0.11926818804E+03  0.14299619225E+03  0.78886059084E+02 0.  0.
         66    2    3    3    0    0 -0.25212225320E+02  0.68862170901E+01  0.61849366513E+01  0.26931946241E+02  0.19999988848E+01 0.  0.
        -13    1    3    3    0    0  0.25212225320E+02 -0.68862170901E+01  0.11308325139E+03  0.11606424600E+03  0.10566000000E+00 0.  1.
         13    1    4    4    0    0 -0.93247439931E+01  0.27263091120E+01  0.18462222103E+01  0.98895557229E+01  0.10566000000E+00 0. -1.
        -13    1    4    4    0    0 -0.22833536471E+01  0.77503999493E+00  0.11092876964E+01  0.26563271825E+01  0.10566000000E+00 0.  1.
        -14    1    4    4    0    0 -0.13604127680E+02  0.33848679831E+01  0.32294267446E+01  0.14386063336E+02  0.00000000000E+00 0.  1.
<mgrwt>
<rscale>  0 0.78886059E+02</rscale>
<asrwt>0</asrwt>
<pdfrwt beam="1">  1        2 0.18252310E-02 0.78886059E+02</pdfrwt>
<pdfrwt beam="2">  1       -1 0.20174184E-01 0.78886059E+02</pdfrwt>
<totfact> 0.11551263E+05</totfact>
</mgrwt>
</event>
<event>
 8    1  0.1493610E-013  0.8112936E+02  0.7818608E-02  0.1325877E+00
          2   -1    0    0  501    0  0.00000000000E+00  0.00000000000E+00  0.38733477426E+02  0.38733477510E+02  0.25500000000E-02 0. -1.
         -1   -1    0    0    0  501 -0.00000000000E+00 -0.00000000000E+00 -0.42482456549E+02  0.42482456848E+02  0.50400000000E-02 0.  1.
         24    2    1    2    0    0  0.00000000000E+00  0.00000000000E+00 -0.37489791225E+01  0.81215934358E+02  0.81129360586E+02 0.  0.
         66    2    3    3    0    0 -0.28047990049E+02 -0.28638254885E+02  0.41846697054E+01  0.40352829527E+02  0.20000004175E+01 0.  0.
        -13    1    3    3    0    0  0.28047990049E+02  0.28638254885E+02 -0.79336488279E+01  0.40863104831E+02  0.10566000000E+00 0.  1.
         13    1    4    4    0    0 -0.30029553325E+01 -0.33228557362E+01  0.71257501920E-01  0.44805527159E+01  0.10566000000E+00 0. -1.
        -13    1    4    4    0    0 -0.58516093871E+01 -0.59706481819E+01  0.15270486640E+01  0.84990007524E+01  0.10566000000E+00 0.  1.
         14    1    4    4    0    0 -0.19193425329E+02 -0.19344750967E+02  0.25863635395E+01  0.27373276059E+02  0.00000000000E+00 0. -1.
<mgrwt>
<rscale>  0 0.81129361E+02</rscale>
<asrwt>0</asrwt>
<pdfrwt beam="1">  1        2 0.59589965E-02 0.81129361E+02</pdfrwt>
<pdfrwt beam="2">  1       -1 0.65357626E-02 0.81129361E+02</pdfrwt>
<totfact> 0.13621888E+05</totfact>
</mgrwt>
</event>
<event>
 8    1  0.1493610E-013  0.8142306E+02  0.7818608E-02  0.1325061E+00
         -1   -1    0    0    0  501 -0.00000000000E+00  0.00000000000E+00  0.36795456899E+02  0.36795457244E+02  0.50400000000E-02 0.  1.
          2   -1    0    0  501    0  0.00000000000E+00 -0.00000000000E+00 -0.45044382911E+02  0.45044382984E+02  0.25500000000E-02 0. -1.
         24    2    1    2    0    0  0.35527136788E-14  0.00000000000E+00 -0.82489260122E+01  0.81839840228E+02  0.81423059806E+02 0.  0.
         66    2    3    3    0    0 -0.20753844397E+02 -0.31477009357E+02 -0.19499002385E+02  0.42493943902E+02  0.19999997541E+01 0.  0.
        -13    1    3    3    0    0  0.20753844397E+02  0.31477009357E+02  0.11250076373E+02  0.39345896326E+02  0.10566000000E+00 0.  1.
         13    1    4    4    0    0 -0.14905499595E+02 -0.23270962969E+02 -0.13683617863E+02  0.30837707398E+02  0.10566000000E+00 0. -1.
        -13    1    4    4    0    0 -0.96904879516E+00 -0.14091838465E+01 -0.71029393202E+00  0.18548682395E+01  0.10566000000E+00 0.  1.
        -14    1    4    4    0    0 -0.48792960062E+01 -0.67968625410E+01 -0.51050905902E+01  0.98013682642E+01  0.00000000000E+00 0.  1.
<mgrwt>
<rscale>  0 0.81423060E+02</rscale>
<asrwt>0</asrwt>
<pdfrwt beam="1">  1        2 0.69299051E-02 0.81423060E+02</pdfrwt>
<pdfrwt beam="2">  1       -1 0.56608396E-02 0.81423060E+02</pdfrwt>
<totfact> 0.13919651E+05</totfact>
</mgrwt>
</event>
<event>
 8    1  0.1493610E-013  0.7967022E+02  0.7818608E-02  0.1329990E+00
         -1   -1    0    0    0  501 -0.00000000000E+00  0.00000000000E+00  0.10494963903E+02  0.10494965113E+02  0.50400000000E-02 0.  1.
          2   -1    0    0  501    0  0.00000000000E+00 -0.00000000000E+00 -0.15119974226E+03  0.15119974228E+03  0.25500000000E-02 0. -1.
         24    2    1    2    0    0  0.00000000000E+00  0.00000000000E+00 -0.14070477835E+03  0.16169470739E+03  0.79670218694E+02 0.  0.
         66    2    3    3    0    0 -0.32338267013E+02  0.51357241723E+01 -0.11635109362E+03  0.12088720440E+03  0.20000062945E+01 0.  0.
        -13    1    3    3    0    0  0.32338267013E+02 -0.51357241723E+01 -0.24353684735E+02  0.40807502991E+02  0.10566000000E+00 0.  1.
         13    1    4    4    0    0 -0.10157556247E+02  0.92186999380E+00 -0.36293433160E+02  0.37699472778E+02  0.10566000000E+00 0. -1.
        -13    1    4    4    0    0 -0.96675560469E+00  0.12110437696E+00 -0.28305753584E+01  0.29954304473E+01  0.10566000000E+00 0.  1.
         14    1    4    4    0    0 -0.21213955162E+02  0.40927498015E+01 -0.77227085099E+02  0.80192301173E+02  0.00000000000E+00 0. -1.
<mgrwt>
<rscale>  0 0.79670219E+02</rscale>
<asrwt>0</asrwt>
<pdfrwt beam="1">  1        2 0.23261497E-01 0.79670219E+02</pdfrwt>
<pdfrwt beam="2">  1       -1 0.16146100E-02 0.79670219E+02</pdfrwt>
<totfact> 0.20302789E+05</totfact>
</mgrwt>
</event>
<event>
 8    1  0.1493610E-013  0.8014855E+02  0.7818608E-02  0.1328630E+00
         -1   -1    0    0    0  501 -0.00000000000E+00  0.00000000000E+00  0.16487753617E+01  0.16487830648E+01  0.50400000000E-02 0.  1.
          2   -1    0    0  501    0  0.00000000000E+00 -0.00000000000E+00 -0.97402214657E+03  0.97402214657E+03  0.25500000000E-02 0. -1.
         24    2    1    2    0    0  0.00000000000E+00  0.00000000000E+00 -0.97237337121E+03  0.97567092964E+03  0.80148548995E+02 0.  0.
         66    2    3    3    0    0 -0.21369513123E+02  0.16470587118E+02 -0.84678611377E+03  0.84721818842E+03  0.19999969090E+01 0.  0.
        -13    1    3    3    0    0  0.21369513123E+02 -0.16470587118E+02 -0.12558725744E+03  0.12845274122E+03  0.10566000000E+00 0.  1.
         13    1    4    4    0    0 -0.25278921665E+01  0.20004379737E+01 -0.10331472225E+03  0.10336505691E+03  0.10566000000E+00 0. -1.
        -13    1    4    4    0    0 -0.18635018423E+02  0.14504749014E+02 -0.73803411946E+03  0.73841182568E+03  0.10566000000E+00 0.  1.
        -14    1    4    4    0    0 -0.20660253364E+00 -0.34599869319E-01 -0.54372720527E+01  0.54413058297E+01  0.00000000000E+00 0.  1.
<mgrwt>
<rscale>  0 0.80148549E+02</rscale>
<asrwt>0</asrwt>
<pdfrwt beam="1">  1        2 0.14984910E+00 0.80148549E+02</pdfrwt>
<pdfrwt beam="2">  1       -1 0.25365912E-03 0.80148549E+02</pdfrwt>
<totfact> 0.35014809E+05</totfact>
</mgrwt>
</event>
<event>
 8    1  0.1493610E-013  0.7809841E+02  0.7818608E-02  0.1334536E+00
          2   -1    0    0  501    0  0.00000000000E+00  0.00000000000E+00  0.54889536717E+03  0.54889536717E+03  0.25500000000E-02 0. -1.
         -1   -1    0    0    0  501 -0.00000000000E+00 -0.00000000000E+00 -0.27780140941E+01  0.27780186660E+01  0.50400000000E-02 0.  1.
         24    2    1    2    0    0  0.00000000000E+00  0.00000000000E+00  0.54611735307E+03  0.55167338584E+03  0.78098407895E+02 0.  0.
         66    2    3    3    0    0 -0.92874007999E+01  0.24024266368E+02  0.48031866244E+03  0.48101292984E+03  0.20000006498E+01 0.  0.
        -13    1    3    3    0    0  0.92874007999E+01 -0.24024266368E+02  0.65798690636E+02  0.70660455996E+02  0.10566000000E+00 0.  1.
         13    1    4    4    0    0 -0.55833115605E+01  0.13256561860E+02  0.28271293668E+03  0.28307865609E+03  0.10566000000E+00 0. -1.
        -13    1    4    4    0    0 -0.54770299063E+00  0.21670634366E+01  0.39525410579E+02  0.39588702782E+02  0.10566000000E+00 0.  1.
         14    1    4    4    0    0 -0.31563862487E+01  0.86006410716E+01  0.15808031517E+03  0.15834557097E+03  0.00000000000E+00 0. -1.
<mgrwt>
<rscale>  0 0.78098408E+02</rscale>
<asrwt>0</asrwt>
<pdfrwt beam="1">  1        2 0.84445409E-01 0.78098408E+02</pdfrwt>
<pdfrwt beam="2">  1       -1 0.42738730E-03 0.78098408E+02</pdfrwt>
<totfact> 0.33367961E+05</totfact>
</mgrwt>
</event>
<event>
 8    1  0.1493610E-013  0.7912999E+02  0.7818608E-02  0.1331539E+00
          2   -1    0    0  501    0  0.00000000000E+00  0.00000000000E+00  0.19176241059E+04  0.19176241059E+04  0.25500000000E-02 0. -1.
         -1   -1    0    0    0  501 -0.00000000000E+00 -0.00000000000E+00 -0.81630894473E+00  0.81632450340E+00  0.50400000000E-02 0.  1.
         24    2    1    2    0    0  0.17763568394E-14 -0.17763568394E-14  0.19168077969E+04  0.19184404304E+04  0.79129985115E+02 0.  0.
         66    2    3    3    0    0 -0.83438403948E+01  0.10244763052E+02  0.18625150909E+04  0.18625630295E+04  0.20000000529E+01 0.  0.
        -13    1    3    3    0    0  0.83438403948E+01 -0.10244763052E+02  0.54292706007E+02  0.55877400907E+02  0.10566000000E+00 0.  1.
         13    1    4    4    0    0 -0.98083675636E+00  0.17439088688E+01  0.34026807781E+03  0.34027397667E+03  0.10566000000E+00 0. -1.
        -13    1    4    4    0    0 -0.14798440367E+01  0.11194509968E+01  0.22212237942E+03  0.22213015489E+03  0.10566000000E+00 0.  1.
         14    1    4    4    0    0 -0.58831596017E+01  0.73814031867E+01  0.13001246337E+04  0.13001588979E+04  0.00000000000E+00 0. -1.
<mgrwt>
<rscale>  0 0.79129985E+02</rscale>
<asrwt>0</asrwt>
<pdfrwt beam="1">  1        2 0.29501888E+00 0.79129985E+02</pdfrwt>
<pdfrwt beam="2">  1       -1 0.12558728E-03 0.79129985E+02</pdfrwt>
<totfact> 0.29636410E+05</totfact>
</mgrwt>
</event>
<event>
 8    1  0.1493610E-013  0.8225428E+02  0.7818608E-02  0.1322773E+00
         -1   -1    0    0    0  501 -0.00000000000E+00  0.00000000000E+00  0.54835114982E+01  0.54835138144E+01  0.50400000000E-02 0.  1.
          2   -1    0    0  501    0  0.00000000000E+00 -0.00000000000E+00 -0.30845951204E+03  0.30845951205E+03  0.25500000000E-02 0. -1.
         24    2    1    2    0    0  0.00000000000E+00 -0.17763568394E-14 -0.30297600055E+03  0.31394302587E+03  0.82254280041E+02 0.  0.
         66    2    3    3    0    0  0.34835877390E+02 -0.12962918878E+02 -0.21854567667E+03  0.22169300487E+03  0.20000001246E+01 0.  0.
        -13    1    3    3    0    0 -0.34835877390E+02  0.12962918878E+02 -0.84430323881E+02  0.92250020997E+02  0.10566000000E+00 0.  1.
         13    1    4    4    0    0  0.25303544112E+01 -0.73677517875E+00 -0.16739886619E+02  0.16946400773E+02  0.10566000000E+00 0. -1.
        -13    1    4    4    0    0  0.32232836608E+01 -0.82385603211E+00 -0.17949246214E+02  0.18255270472E+02  0.10566000000E+00 0.  1.
        -14    1    4    4    0    0  0.29082239318E+02 -0.11402287668E+02 -0.18385654383E+03  0.18649133363E+03  0.00000000000E+00 0.  1.
<mgrwt>
<rscale>  0 0.82254280E+02</rscale>
<asrwt>0</asrwt>
<pdfrwt beam="1">  1        2 0.47455296E-01 0.82254280E+02</pdfrwt>
<pdfrwt beam="2">  1       -1 0.84361757E-03 0.82254280E+02</pdfrwt>
<totfact> 0.23941067E+05</totfact>
</mgrwt>
</event>
<event>
 8    1  0.1493610E-013  0.7914878E+02  0.7818608E-02  0.1331485E+00
          2   -1    0    0  501    0  0.00000000000E+00  0.00000000000E+00  0.12483143522E+02  0.12483143782E+02  0.25500000000E-02 0. -1.
         -1   -1    0    0    0  501 -0.00000000000E+00 -0.00000000000E+00 -0.12545976471E+03  0.12545976481E+03  0.50400000000E-02 0.  1.
         24    2    1    2    0    0  0.00000000000E+00  0.00000000000E+00 -0.11297662119E+03  0.13794290860E+03  0.79148778236E+02 0.  0.
         66    2    3    3    0    0 -0.14547487784E+02 -0.35137538288E+02 -0.37604222956E+02  0.53519656009E+02  0.19999993380E+01 0.  0.
        -13    1    3    3    0    0  0.14547487784E+02  0.35137538288E+02 -0.75372398235E+02  0.84423252588E+02  0.10566000000E+00 0.  1.
         13    1    4    4    0    0 -0.11782496812E+02 -0.29623410901E+02 -0.31160219630E+02  0.44579638356E+02  0.10566000000E+00 0. -1.
        -13    1    4    4    0    0 -0.46255936865E+00 -0.12249396188E+01 -0.11240418388E+01  0.17288933831E+01  0.10566000000E+00 0. -1.
         14    1    4    4    0    0 -0.23024316031E+01 -0.42891877689E+01 -0.53199614877E+01  0.72111242698E+01  0.00000000000E+00 0. -1.
<mgrwt>
<rscale>  0 0.79148778E+02</rscale>
<asrwt>0</asrwt>
<pdfrwt beam="1">  1        2 0.19204837E-02 0.79148778E+02</pdfrwt>
<pdfrwt beam="2">  1       -1 0.19301502E-01 0.79148778E+02</pdfrwt>
<totfact> 0.11574856E+05</totfact>
</mgrwt>
</event>
<event>
 8    1  0.1493610E-013  0.8135066E+02  0.7818608E-02  0.1325262E+00
         -1   -1    0    0    0  501 -0.00000000000E+00  0.00000000000E+00  0.14811845694E+01  0.14811931442E+01  0.50400000000E-02 0.  1.
          2   -1    0    0  501    0  0.00000000000E+00 -0.00000000000E+00 -0.11169962839E+04  0.11169962839E+04  0.25500000000E-02 0. -1.
         24    2    1    2    0    0 -0.17763568394E-14  0.00000000000E+00 -0.11155150994E+04  0.11184774771E+04  0.81350659661E+02 0.  0.
         66    2    3    3    0    0 -0.12744306888E+02 -0.14637348853E+02 -0.10491811917E+04  0.10493625886E+04  0.20000002813E+01 0.  0.
        -13    1    3    3    0    0  0.12744306888E+02  0.14637348853E+02 -0.66333907691E+02  0.69114888505E+02  0.10566000000E+00 0.  1.
         13    1    4    4    0    0 -0.70327315481E+01 -0.82524445524E+01 -0.61059932843E+03  0.61069559782E+03  0.10566000000E+00 0. -1.
        -13    1    4    4    0    0 -0.38302850718E+01 -0.35495590935E+01 -0.25246258629E+03  0.25251661152E+03  0.10566000000E+00 0.  1.
        -14    1    4    4    0    0 -0.18812902684E+01 -0.28353452075E+01 -0.18611927695E+03  0.18615037924E+03  0.00000000000E+00 0.  1.
<mgrwt>
<rscale>  0 0.81350660E+02</rscale>
<asrwt>0</asrwt>
<pdfrwt beam="1">  1        2 0.17184491E+00 0.81350660E+02</pdfrwt>
<pdfrwt beam="2">  1       -1 0.22787610E-03 0.81350660E+02</pdfrwt>
<totfact> 0.33731479E+05</totfact>
</mgrwt>
</event>
<event>
 8    1  0.1493610E-013  0.7908487E+02  0.7818608E-02  0.1331669E+00
         -1   -1    0    0    0  501 -0.00000000000E+00  0.00000000000E+00  0.65212613394E+02  0.65212613588E+02  0.50400000000E-02 0.  1.
          2   -1    0    0  501    0  0.00000000000E+00 -0.00000000000E+00 -0.23977020125E+02  0.23977020260E+02  0.25500000000E-02 0. -1.
         24    2    1    2    0    0 -0.71054273576E-14 -0.35527136788E-14  0.41235593269E+02  0.89189633849E+02  0.79084869816E+02 0.  0.
         66    2    3    3    0    0 -0.20812086238E+02 -0.13653259307E+02 -0.13983449745E+02  0.28619770891E+02  0.19999989599E+01 0.  0.
        -13    1    3    3    0    0  0.20812086238E+02  0.13653259307E+02  0.55219043014E+02  0.60569862958E+02  0.10566000000E+00 0.  1.
         13    1    4    4    0    0 -0.10302313191E+02 -0.59708051004E+01 -0.58741034238E+01  0.13277967680E+02  0.10566000000E+00 0.  1.
        -13    1    4    4    0    0 -0.36890478525E+01 -0.26631008748E+01 -0.30119728722E+01  0.54575017129E+01  0.10566000000E+00 0. -1.
        -14    1    4    4    0    0 -0.68207251942E+01 -0.50193533315E+01 -0.50973734492E+01  0.98843014990E+01  0.00000000000E+00 0.  1.
<mgrwt>
<rscale>  0 0.79084870E+02</rscale>
<asrwt>0</asrwt>
<pdfrwt beam="1">  1        2 0.36887724E-02 0.79084870E+02</pdfrwt>
<pdfrwt beam="2">  1       -1 0.10032710E-01 0.79084870E+02</pdfrwt>
<totfact> 0.13300612E+05</totfact>
</mgrwt>
</event>
<event>
 8    1  0.1493610E-013  0.7958186E+02  0.7818608E-02  0.1330242E+00
         -1   -1    0    0    0  501 -0.00000000000E+00  0.00000000000E+00  0.22032482237E+02  0.22032482814E+02  0.50400000000E-02 0.  1.
          2   -1    0    0  501    0  0.00000000000E+00 -0.00000000000E+00 -0.71862896138E+02  0.71862896183E+02  0.25500000000E-02 0. -1.
         24    2    1    2    0    0 -0.35527136788E-14  0.35527136788E-14 -0.49830413900E+02  0.93895378997E+02  0.79581857527E+02 0.  0.
         66    2    3    3    0    0 -0.21596067578E+02 -0.21451782703E+02 -0.55121092117E+02  0.62999237554E+02  0.20000050468E+01 0.  0.
        -13    1    3    3    0    0  0.21596067578E+02  0.21451782703E+02  0.52906782172E+01  0.30896141443E+02  0.10566000000E+00 0.  1.
         13    1    4    4    0    0 -0.16165203568E+01 -0.17510371721E+01 -0.38566404753E+01  0.45347667011E+01  0.10566000000E+00 0. -1.
        -13    1    4    4    0    0 -0.32546533189E+01 -0.37962301061E+01 -0.10134227836E+02  0.11301233079E+02  0.10566000000E+00 0.  1.
         14    1    4    4    0    0 -0.16724893903E+02 -0.15904515425E+02 -0.41130223806E+02  0.47163237774E+02  0.00000000000E+00 0. -1.
<mgrwt>
<rscale>  0 0.79581858E+02</rscale>
<asrwt>0</asrwt>
<pdfrwt beam="1">  1        2 0.11055830E-01 0.79581858E+02</pdfrwt>
<pdfrwt beam="2">  1       -1 0.33896127E-02 0.79581858E+02</pdfrwt>
<totfact> 0.16482814E+05</totfact>
</mgrwt>
</event>
<event>
 8    1  0.1493610E-013  0.8186447E+02  0.7818608E-02  0.1323842E+00
          2   -1    0    0  501    0  0.00000000000E+00  0.00000000000E+00  0.18037649601E+03  0.18037649603E+03  0.25500000000E-02 0. -1.
         -1   -1    0    0    0  501 -0.00000000000E+00 -0.00000000000E+00 -0.92886144404E+01  0.92886158077E+01  0.50400000000E-02 0.  1.
         24    2    1    2    0    0  0.00000000000E+00  0.35527136788E-14  0.17108788157E+03  0.18966511184E+03  0.81864469874E+02 0.  0.
         66    2    3    3    0    0  0.42890409460E+01  0.24597230285E+02  0.16066918428E+03  0.16260998243E+03  0.19999997348E+01 0.  0.
        -13    1    3    3    0    0 -0.42890409460E+01 -0.24597230285E+02  0.10418697291E+02  0.27055129406E+02  0.10566000000E+00 0.  1.
         13    1    4    4    0    0  0.14046332857E+01  0.12529255403E+02  0.79831387157E+02  0.80820893184E+02  0.10566000000E+00 0. -1.
        -13    1    4    4    0    0  0.23402601819E+01  0.10890792591E+02  0.72038515203E+02  0.72894753019E+02  0.10566000000E+00 0.  1.
        -14    1    4    4    0    0  0.54414747835E+00  0.11771822905E+01  0.87992819203E+01  0.88943362280E+01  0.00000000000E+00 0.  1.
<mgrwt>
<rscale>  0 0.81864470E+02</rscale>
<asrwt>0</asrwt>
<pdfrwt beam="1">  1        2 0.27750227E-01 0.81864470E+02</pdfrwt>
<pdfrwt beam="2">  1       -1 0.14290179E-02 0.81864470E+02</pdfrwt>
<totfact> 0.20030034E+05</totfact>
</mgrwt>
</event>
<event>
 8    1  0.1493610E-013  0.7932559E+02  0.7818608E-02  0.1330976E+00
          2   -1    0    0  501    0  0.00000000000E+00  0.00000000000E+00  0.14339318472E+03  0.14339318474E+03  0.25500000000E-02 0. -1.
         -1   -1    0    0    0  501 -0.00000000000E+00 -0.00000000000E+00 -0.10970795297E+02  0.10970796454E+02  0.50400000000E-02 0.  1.
         24    2    1    2    0    0  0.00000000000E+00  0.00000000000E+00  0.13242238942E+03  0.15436398119E+03  0.79325591521E+02 0.  0.
         66    2    3    3    0    0  0.36137781921E+01  0.34131307836E+02  0.10483643351E+03  0.11032988423E+03  0.19999992448E+01 0.  0.
        -13    1    3    3    0    0 -0.36137781921E+01 -0.34131307836E+02  0.27585955912E+02  0.44034096960E+02  0.10566000000E+00 0.  1.
         13    1    4    4    0    0  0.26605010970E+01  0.18512653326E+02  0.58006990950E+02  0.60947672330E+02  0.10566000000E+00 0. -1.
        -13    1    4    4    0    0  0.70752806333E+00  0.69669250829E+01  0.21950953116E+02  0.23041140332E+02  0.10566000000E+00 0.  1.
        -14    1    4    4    0    0  0.24574903177E+00  0.86517294274E+01  0.24878489441E+02  0.26341071572E+02  0.00000000000E+00 0.  1.
<mgrwt>
<rscale>  0 0.79325592E+02</rscale>
<asrwt>0</asrwt>
<pdfrwt beam="1">  1        2 0.22060490E-01 0.79325592E+02</pdfrwt>
<pdfrwt beam="2">  1       -1 0.16878148E-02 0.79325592E+02</pdfrwt>
<totfact> 0.20192059E+05</totfact>
</mgrwt>
</event>
<event>
 8    1  0.1493610E-013  0.8324766E+02  0.7818608E-02  0.1320080E+00
         -1   -1    0    0    0  501 -0.00000000000E+00  0.00000000000E+00  0.83779996323E+02  0.83779996474E+02  0.50400000000E-02 0.  1.
          2   -1    0    0  501    0  0.00000000000E+00 -0.00000000000E+00 -0.20679678225E+02  0.20679678383E+02  0.25500000000E-02 0. -1.
         24    2    1    2    0    0  0.44408920985E-15  0.00000000000E+00  0.63100318097E+02  0.10445967486E+03  0.83247663795E+02 0.  0.
         66    2    3    3    0    0  0.34370276717E+01 -0.36422697626E+02  0.67208667975E+01  0.37250451126E+02  0.19999992637E+01 0.  0.
        -13    1    3    3    0    0 -0.34370276717E+01  0.36422697626E+02  0.56379451300E+02  0.67209223731E+02  0.10566000000E+00 0.  1.
         13    1    4    4    0    0 -0.84676504849E-02 -0.26836118505E+00  0.80252379119E-01  0.29948940999E+00  0.10566000000E+00 0. -1.
        -13    1    4    4    0    0  0.24862938604E+00 -0.95022854915E+01  0.16920149050E+01  0.96555333673E+01  0.10566000000E+00 0. -1.
         14    1    4    4    0    0  0.31968659362E+01 -0.26652050949E+02  0.49485995134E+01  0.27295428349E+02  0.00000000000E+00 0. -1.
<mgrwt>
<rscale>  0 0.83247664E+02</rscale>
<asrwt>0</asrwt>
<pdfrwt beam="1">  1        2 0.31814890E-02 0.83247664E+02</pdfrwt>
<pdfrwt beam="2">  1       -1 0.12889230E-01 0.83247664E+02</pdfrwt>
<totfact> 0.11147419E+05</totfact>
</mgrwt>
</event>
<event>
 8    1  0.1493610E-013  0.8101319E+02  0.7818608E-02  0.1326200E+00
         -1   -1    0    0    0  501 -0.00000000000E+00  0.00000000000E+00  0.14770254417E+02  0.14770255277E+02  0.50400000000E-02 0.  1.
          2   -1    0    0  501    0  0.00000000000E+00 -0.00000000000E+00 -0.11108706356E+03  0.11108706358E+03  0.25500000000E-02 0. -1.
         24    2    1    2    0    0  0.00000000000E+00  0.00000000000E+00 -0.96316809139E+02  0.12585731886E+03  0.81013190212E+02 0.  0.
         66    2    3    3    0    0  0.30790542408E+02  0.19680983621E+02 -0.21128366118E+02  0.42258803648E+02  0.20000032080E+01 0.  0.
        -13    1    3    3    0    0 -0.30790542408E+02 -0.19680983621E+02 -0.75188443021E+02  0.83598515214E+02  0.10566000000E+00 0.  1.
         13    1    4    4    0    0  0.59692076224E+01  0.31125040328E+01 -0.39400275191E+01  0.78009039143E+01  0.10566000000E+00 0. -1.
        -13    1    4    4    0    0  0.65432453390E+01  0.48749726395E+01 -0.43917368142E+01  0.92670348053E+01  0.10566000000E+00 0.  1.
         14    1    4    4    0    0  0.18278089446E+02  0.11693506949E+02 -0.12796601785E+02  0.25190864928E+02  0.00000000000E+00 0. -1.
<mgrwt>
<rscale>  0 0.81013190E+02</rscale>
<asrwt>0</asrwt>
<pdfrwt beam="1">  1        2 0.17090317E-01 0.81013190E+02</pdfrwt>
<pdfrwt beam="2">  1       -1 0.22723470E-02 0.81013190E+02</pdfrwt>
<totfact> 0.17661452E+05</totfact>
</mgrwt>
</event>
<event>
 8    1  0.1493610E-013  0.8514418E+02  0.7818608E-02  0.1315056E+00
          2   -1    0    0  501    0  0.00000000000E+00  0.00000000000E+00  0.87713344003E+03  0.87713344003E+03  0.25500000000E-02 0. -1.
         -1   -1    0    0    0  501 -0.00000000000E+00 -0.00000000000E+00 -0.20662537844E+01  0.20662599312E+01  0.50400000000E-02 0.  1.
         24    2    1    2    0    0  0.35527136788E-14  0.00000000000E+00  0.87506718625E+03  0.87919969997E+03  0.85144183445E+02 0.  0.
         66    2    3    3    0    0 -0.27426405044E+02  0.21853545188E+02  0.68658464694E+03  0.68748255436E+03  0.20000019225E+01 0.  0.
        -13    1    3    3    0    0  0.27426405044E+02 -0.21853545188E+02  0.18848253931E+03  0.19171714560E+03  0.10566000000E+00 0.  1.
         13    1    4    4    0    0 -0.17820063590E+02  0.14542376518E+02  0.46710248898E+03  0.46766845282E+03  0.10566000000E+00 0. -1.
        -13    1    4    4    0    0 -0.33064916476E+01  0.25261273926E+01  0.73670662733E+02  0.73788155677E+02  0.10566000000E+00 0.  1.
         14    1    4    4    0    0 -0.62998498070E+01  0.47850412775E+01  0.14581149522E+03  0.14602594587E+03  0.00000000000E+00 0. -1.
<mgrwt>
<rscale>  0 0.85144183E+02</rscale>
<asrwt>0</asrwt>
<pdfrwt beam="1">  1        2 0.13494354E+00 0.85144183E+02</pdfrwt>
<pdfrwt beam="2">  1       -1 0.31788583E-03 0.85144183E+02</pdfrwt>
<totfact> 0.29620227E+05</totfact>
</mgrwt>
</event>
<event>
 8    1  0.1493610E-013  0.8040621E+02  0.7818608E-02  0.1327903E+00
          2   -1    0    0  501    0  0.00000000000E+00  0.00000000000E+00  0.92155290810E+01  0.92155294338E+01  0.25500000000E-02 0. -1.
         -1   -1    0    0    0  501 -0.00000000000E+00 -0.00000000000E+00 -0.17538759622E+03  0.17538759629E+03  0.50400000000E-02 0.  1.
         24    2    1    2    0    0  0.00000000000E+00  0.35527136788E-14 -0.16617206714E+03  0.18460312573E+03  0.80406207041E+02 0.  0.
         66    2    3    3    0    0 -0.24311895971E+02 -0.31903822318E+02 -0.77820748458E+02  0.87572775625E+02  0.19999939490E+01 0.  0.
        -13    1    3    3    0    0  0.24311895971E+02  0.31903822318E+02 -0.88351318682E+02  0.97030350103E+02  0.10566000000E+00 0.  1.
         13    1    4    4    0    0 -0.12832935454E+02 -0.16036096967E+02 -0.41058297769E+02  0.45908992780E+02  0.10566000000E+00 0. -1.
        -13    1    4    4    0    0 -0.10034276724E+01 -0.17328751274E+01 -0.34287288453E+01  0.39720358547E+01  0.10566000000E+00 0.  1.
         14    1    4    4    0    0 -0.10475532844E+02 -0.14134850224E+02 -0.33333721844E+02  0.37691746990E+02  0.00000000000E+00 0. -1.
<mgrwt>
<rscale>  0 0.80406207E+02</rscale>
<asrwt>0</asrwt>
<pdfrwt beam="1">  1        2 0.14177739E-02 0.80406207E+02</pdfrwt>
<pdfrwt beam="2">  1       -1 0.26982705E-01 0.80406207E+02</pdfrwt>
<totfact> 0.10215392E+05</totfact>
</mgrwt>
</event>
<event>
 8    1  0.1493610E-013  0.8414217E+02  0.7818608E-02  0.1317691E+00
         -1   -1    0    0    0  501 -0.00000000000E+00  0.00000000000E+00  0.12856195629E+02  0.12856196617E+02  0.50400000000E-02 0.  1.
          2   -1    0    0  501    0  0.00000000000E+00 -0.00000000000E+00 -0.13767495053E+03  0.13767495055E+03  0.25500000000E-02 0. -1.
         24    2    1    2    0    0  0.00000000000E+00  0.00000000000E+00 -0.12481875490E+03  0.15053114717E+03  0.84142169532E+02 0.  0.
         66    2    3    3    0    0 -0.15652024063E+02  0.35004465323E+02 -0.93310668358E+02  0.10090182991E+03  0.20000001200E+01 0.  0.
        -13    1    3    3    0    0  0.15652024063E+02 -0.35004465323E+02 -0.31508086541E+02  0.49629317257E+02  0.10566000000E+00 0.  1.
         13    1    4    4    0    0 -0.11784922586E+02  0.25122084116E+02 -0.67378092625E+02  0.72868525720E+02  0.10566000000E+00 0. -1.
        -13    1    4    4    0    0 -0.59109446350E+00  0.17417140711E+01 -0.37494701860E+01  0.41776370452E+01  0.10566000000E+00 0.  1.
         14    1    4    4    0    0 -0.32760070132E+01  0.81406671358E+01 -0.22183105547E+02  0.23855667148E+02  0.00000000000E+00 0. -1.
<mgrwt>
<rscale>  0 0.84142170E+02</rscale>
<asrwt>0</asrwt>
<pdfrwt beam="1">  1        2 0.21180761E-01 0.84142170E+02</pdfrwt>
<pdfrwt beam="2">  1       -1 0.19778764E-02 0.84142170E+02</pdfrwt>
<totfact> 0.17037077E+05</totfact>
</mgrwt>
</event>
<event>
 8    1  0.1493610E-013  0.7873050E+02  0.7818608E-02  0.1332693E+00
          2   -1    0    0  501    0  0.00000000000E+00  0.00000000000E+00  0.73093734596E+03  0.73093734597E+03  0.25500000000E-02 0. -1.
         -1   -1    0    0    0  501 -0.00000000000E+00 -0.00000000000E+00 -0.21200457723E+01  0.21200517632E+01  0.50400000000E-02 0.  1.
         24    2    1    2    0    0  0.35527136788E-14 -0.35527136788E-14  0.72881730019E+03  0.73305739773E+03  0.78730497969E+02 0.  0.
         66    2    3    3    0    0  0.26882801447E+02 -0.17604213342E+02  0.57594775181E+03  0.57684695209E+03  0.19999949085E+01 0.  0.
        -13    1    3    3    0    0 -0.26882801447E+02  0.17604213342E+02  0.15286954838E+03  0.15621044564E+03  0.10566000000E+00 0.  1.
         13    1    4    4    0    0  0.37573794423E+01 -0.29769022124E+01  0.78547379578E+02  0.78693594718E+02  0.10566000000E+00 0.  1.
        -13    1    4    4    0    0  0.90793499067E+01 -0.56771732287E+01  0.20291387170E+03  0.20319624845E+03  0.10566000000E+00 0.  1.
         14    1    4    4    0    0  0.14046072098E+02 -0.89501379008E+01  0.29448650053E+03  0.29495710892E+03  0.00000000000E+00 0. -1.
<mgrwt>
<rscale>  0 0.78730498E+02</rscale>
<asrwt>0</asrwt>
<pdfrwt beam="1">  1        2 0.11245189E+00 0.78730498E+02</pdfrwt>
<pdfrwt beam="2">  1       -1 0.32616138E-03 0.78730498E+02</pdfrwt>
<totfact> 0.35204784E+05</totfact>
</mgrwt>
</event>
<event>
 8    1  0.1493610E-013  0.7901623E+02  0.7818608E-02  0.1331867E+00
         -1   -1    0    0    0  501 -0.00000000000E+00  0.00000000000E+00  0.32684001528E+02  0.32684001917E+02  0.50400000000E-02 0.  1.
          2   -1    0    0  501    0  0.00000000000E+00 -0.00000000000E+00 -0.47757040904E+02  0.47757040972E+02  0.25500000000E-02 0. -1.
         24    2    1    2    0    0  0.00000000000E+00  0.00000000000E+00 -0.15073039376E+02  0.80441042889E+02  0.79016231655E+02 0.  0.
         66    2    3    3    0    0 -0.19599484624E+02  0.25518137853E+02 -0.30835611006E+02  0.44611097516E+02  0.19999896084E+01 0.  0.
        -13    1    3    3    0    0  0.19599484624E+02 -0.25518137853E+02  0.15762571630E+02  0.35829945373E+02  0.10566000000E+00 0.  1.
         13    1    4    4    0    0 -0.11180976728E+02  0.15957632565E+02 -0.18253961721E+02  0.26699785771E+02  0.10566000000E+00 0. -1.
        -13    1    4    4    0    0 -0.13753876326E+01  0.16866234211E+01 -0.23449143309E+01  0.32009650044E+01  0.10566000000E+00 0. -1.
         14    1    4    4    0    0 -0.70431202637E+01  0.78738818666E+01 -0.10236734955E+02  0.14710346741E+02  0.00000000000E+00 0. -1.
<mgrwt>
<rscale>  0 0.79016232E+02</rscale>
<asrwt>0</asrwt>
<pdfrwt beam="1">  1        2 0.73472371E-02 0.79016232E+02</pdfrwt>
<pdfrwt beam="2">  1       -1 0.50283080E-02 0.79016232E+02</pdfrwt>
<totfact> 0.15305979E+05</totfact>
</mgrwt>
</event>
<event>
 8    1  0.1493610E-013  0.7331392E+02  0.7818608E-02  0.1349173E+00
          2   -1    0    0  501    0  0.00000000000E+00  0.00000000000E+00  0.11183489988E+03  0.11183489991E+03  0.25500000000E-02 0. -1.
         -1   -1    0    0    0  501 -0.00000000000E+00 -0.00000000000E+00 -0.12015323688E+02  0.12015324745E+02  0.50400000000E-02 0.  1.
         24    2    1    2    0    0  0.00000000000E+00  0.17763568394E-14  0.99819576190E+02  0.12385022465E+03  0.73313916520E+02 0.  0.
         66    2    3    3    0    0  0.25464296327E+02  0.10821393092E+02  0.90497218405E+02  0.94653470473E+02  0.19999994103E+01 0.  0.
        -13    1    3    3    0    0 -0.25464296327E+02 -0.10821393092E+02  0.93223577851E+01  0.29196754179E+02  0.10566000000E+00 0.  1.
         13    1    4    4    0    0  0.13040409904E+02  0.53508833472E+01  0.46620282247E+02  0.48704682772E+02  0.10566000000E+00 0. -1.
        -13    1    4    4    0    0  0.11226536846E+02  0.51014583236E+01  0.38451335961E+02  0.40380396331E+02  0.10566000000E+00 0.  1.
        -14    1    4    4    0    0  0.11973495767E+01  0.36905142130E+00  0.54256001966E+01  0.55683913704E+01  0.00000000000E+00 0.  1.
<mgrwt>
<rscale>  0 0.73313917E+02</rscale>
<asrwt>0</asrwt>
<pdfrwt beam="1">  1        2 0.17205369E-01 0.73313917E+02</pdfrwt>
<pdfrwt beam="2">  1       -1 0.18485114E-02 0.73313917E+02</pdfrwt>
<totfact> 0.23076284E+05</totfact>
</mgrwt>
</event>
<event>
 8    1  0.1493610E-013  0.7776930E+02  0.7818608E-02  0.1335504E+00
          2   -1    0    0  501    0  0.00000000000E+00  0.00000000000E+00  0.17879493980E+02  0.17879494161E+02  0.25500000000E-02 0. -1.
         -1   -1    0    0    0  501 -0.00000000000E+00 -0.00000000000E+00 -0.84567037866E+02  0.84567038016E+02  0.50400000000E-02 0.  1.
         24    2    1    2    0    0  0.00000000000E+00  0.00000000000E+00 -0.66687543886E+02  0.10244653218E+03  0.77769296291E+02 0.  0.
         66    2    3    3    0    0  0.38118084877E+02  0.11599466316E+01 -0.23536357062E+02  0.44858599768E+02  0.19999996165E+01 0.  0.
        -13    1    3    3    0    0 -0.38118084877E+02 -0.11599466316E+01 -0.43151186824E+02  0.57587932410E+02  0.10566000000E+00 0.  1.
         13    1    4    4    0    0  0.15718375986E+02 -0.30231796470E-01 -0.10463348031E+02  0.18882824832E+02  0.10566000000E+00 0. -1.
        -13    1    4    4    0    0  0.36813031273E+01  0.48520169907E+00 -0.21657168988E+01  0.42998729196E+01  0.10566000000E+00 0.  1.
         14    1    4    4    0    0  0.18718405764E+02  0.70497672899E+00 -0.10907292133E+02  0.21675902016E+02  0.00000000000E+00 0. -1.
<mgrwt>
<rscale>  0 0.77769296E+02</rscale>
<asrwt>0</asrwt>
<pdfrwt beam="1">  1        2 0.27506914E-02 0.77769296E+02</pdfrwt>
<pdfrwt beam="2">  1       -1 0.13010313E-01 0.77769296E+02</pdfrwt>
<totfact> 0.13166141E+05</totfact>
</mgrwt>
</event>
<event>
 8    1  0.1493610E-013  0.7918434E+02  0.7818608E-02  0.1331382E+00
         -1   -1    0    0    0  501 -0.00000000000E+00  0.00000000000E+00  0.22504421903E+02  0.22504422468E+02  0.50400000000E-02 0.  1.
          2   -1    0    0  501    0  0.00000000000E+00 -0.00000000000E+00 -0.69654753538E+02  0.69654753585E+02  0.25500000000E-02 0. -1.
         24    2    1    2    0    0  0.00000000000E+00  0.00000000000E+00 -0.47150331635E+02  0.92159176053E+02  0.79184341618E+02 0.  0.
         66    2    3    3    0    0  0.13440292187E+02 -0.17067959099E+02 -0.62078064475E+02  0.65800021027E+02  0.19999990836E+01 0.  0.
        -13    1    3    3    0    0 -0.13440292187E+02  0.17067959099E+02  0.14927732840E+02  0.26359155025E+02  0.10566000000E+00 0.  1.
         13    1    4    4    0    0  0.99593449636E+00 -0.16321377433E+01 -0.51488091045E+01  0.54933740419E+01  0.10566000000E+00 0. -1.
        -13    1    4    4    0    0  0.27877403162E+01 -0.44195089492E+01 -0.13733928115E+02  0.14694743989E+02  0.10566000000E+00 0.  1.
         14    1    4    4    0    0  0.96566173743E+01 -0.11016312406E+02 -0.43195327256E+02  0.45611902996E+02  0.00000000000E+00 0. -1.
<mgrwt>
<rscale>  0 0.79184342E+02</rscale>
<asrwt>0</asrwt>
<pdfrwt beam="1">  1        2 0.10716116E-01 0.79184342E+02</pdfrwt>
<pdfrwt beam="2">  1       -1 0.34622188E-02 0.79184342E+02</pdfrwt>
<totfact> 0.16580436E+05</totfact>
</mgrwt>
</event>
<event>
 8    1  0.1493610E-013  0.7770412E+02  0.7818608E-02  0.1335696E+00
          2   -1    0    0  501    0  0.00000000000E+00  0.00000000000E+00  0.76088917076E+02  0.76088917119E+02  0.25500000000E-02 0. -1.
         -1   -1    0    0    0  501 -0.00000000000E+00 -0.00000000000E+00 -0.19838401253E+02  0.19838401893E+02  0.50400000000E-02 0.  1.
         24    2    1    2    0    0  0.00000000000E+00  0.00000000000E+00  0.56250515823E+02  0.95927319012E+02  0.77704118310E+02 0.  0.
         66    2    3    3    0    0 -0.29815191066E+02  0.23958889087E+02  0.36379448974E+02  0.52824599302E+02  0.19999997919E+01 0.  0.
        -13    1    3    3    0    0  0.29815191066E+02 -0.23958889087E+02  0.19871066849E+02  0.43102719710E+02  0.10566000000E+00 0.  1.
         13    1    4    4    0    0 -0.27819651267E+01  0.15972580435E+01  0.28209162537E+01  0.42730897217E+01  0.10566000000E+00 0. -1.
        -13    1    4    4    0    0 -0.98544181625E+01  0.80959392548E+01  0.12496051638E+02  0.17855426635E+02  0.10566000000E+00 0.  1.
         14    1    4    4    0    0 -0.17178807777E+02  0.14265691789E+02  0.21062481083E+02  0.30696082946E+02  0.00000000000E+00 0. -1.
<mgrwt>
<rscale>  0 0.77704118E+02</rscale>
<asrwt>0</asrwt>
<pdfrwt beam="1">  1        2 0.11705987E-01 0.77704118E+02</pdfrwt>
<pdfrwt beam="2">  1       -1 0.30520618E-02 0.77704118E+02</pdfrwt>
<totfact> 0.17829733E+05</totfact>
</mgrwt>
</event>
<event>
 8    1  0.1493610E-013  0.8083404E+02  0.7818608E-02  0.1326701E+00
         -1   -1    0    0    0  501 -0.00000000000E+00  0.00000000000E+00  0.17488509997E+02  0.17488510723E+02  0.50400000000E-02 0.  1.
          2   -1    0    0  501    0  0.00000000000E+00 -0.00000000000E+00 -0.93406204670E+02  0.93406204705E+02  0.25500000000E-02 0. -1.
         24    2    1    2    0    0  0.00000000000E+00 -0.35527136788E-14 -0.75917694673E+02  0.11089471543E+03  0.80834037047E+02 0.  0.
         66    2    3    3    0    0  0.33186982791E+01 -0.23083719134E+02 -0.83226215603E+02  0.86455045022E+02  0.19999997378E+01 0.  0.
        -13    1    3    3    0    0 -0.33186982791E+01  0.23083719134E+02  0.73085209291E+01  0.24439670406E+02  0.10566000000E+00 0.  1.
         13    1    4    4    0    0  0.17539811183E+01 -0.10994891031E+02 -0.38846725500E+02  0.40410930757E+02  0.10566000000E+00 0. -1.
        -13    1    4    4    0    0  0.90701944230E+00 -0.41068504085E+01 -0.17366491360E+02  0.17868830145E+02  0.10566000000E+00 0.  1.
         14    1    4    4    0    0  0.65769771853E+00 -0.79819776944E+01 -0.27012998742E+02  0.28175284120E+02  0.00000000000E+00 0. -1.
<mgrwt>
<rscale>  0 0.80834037E+02</rscale>
<asrwt>0</asrwt>
<pdfrwt beam="1">  1        2 0.14370185E-01 0.80834037E+02</pdfrwt>
<pdfrwt beam="2">  1       -1 0.26905401E-02 0.80834037E+02</pdfrwt>
<totfact> 0.16917078E+05</totfact>
</mgrwt>
</event>
<event>
 8    1  0.1493610E-013  0.7928956E+02  0.7818608E-02  0.1331080E+00
         -1   -1    0    0    0  501 -0.00000000000E+00  0.00000000000E+00  0.42049656772E+01  0.42049686976E+01  0.50400000000E-02 0.  1.
          2   -1    0    0  501    0  0.00000000000E+00 -0.00000000000E+00 -0.37377425499E+03  0.37377425500E+03  0.25500000000E-02 0. -1.
         24    2    1    2    0    0 -0.71054273576E-14  0.35527136788E-14 -0.36956928931E+03  0.37797922370E+03  0.79289557590E+02 0.  0.
         66    2    3    3    0    0 -0.21885348050E+02  0.26187126943E+02 -0.28083379393E+03  0.28290697022E+03  0.19999768149E+01 0.  0.
        -13    1    3    3    0    0  0.21885348050E+02 -0.26187126943E+02 -0.88735495381E+02  0.95072253478E+02  0.10566000000E+00 0.  1.
         13    1    4    4    0    0 -0.10730049317E+02  0.13014344021E+02 -0.13517254038E+03  0.13622090128E+03  0.10566000000E+00 0. -1.
        -13    1    4    4    0    0 -0.24654855180E+01  0.32299411463E+01 -0.38648787094E+02  0.38861948568E+02  0.10566000000E+00 0.  1.
        -14    1    4    4    0    0 -0.86898132144E+01  0.99428417758E+01 -0.10701246645E+03  0.10782412037E+03  0.00000000000E+00 0.  1.
<mgrwt>
<rscale>  0 0.79289558E+02</rscale>
<asrwt>0</asrwt>
<pdfrwt beam="1">  1        2 0.57503705E-01 0.79289558E+02</pdfrwt>
<pdfrwt beam="2">  1       -1 0.64691833E-03 0.79289558E+02</pdfrwt>
<totfact> 0.28236827E+05</totfact>
</mgrwt>
</event>
<event>
 8    1  0.1493610E-013  0.8054378E+02  0.7818608E-02  0.1327515E+00
          2   -1    0    0  501    0  0.00000000000E+00  0.00000000000E+00  0.66326362769E+03  0.66326362770E+03  0.25500000000E-02 0. -1.
         -1   -1    0    0    0  501 -0.00000000000E+00 -0.00000000000E+00 -0.24452169166E+01  0.24452221108E+01  0.50400000000E-02 0.  1.
         24    2    1    2    0    0  0.17763568394E-14 -0.35527136788E-14  0.66081841078E+03  0.66570884981E+03  0.80543781216E+02 0.  0.
         66    2    3    3    0    0 -0.13759896098E+02  0.19692713544E+02  0.59749993993E+03  0.59798604994E+03  0.20000005996E+01 0.  0.
        -13    1    3    3    0    0  0.13759896098E+02 -0.19692713544E+02  0.63318470849E+02  0.67722799868E+02  0.10566000000E+00 0.  1.
         13    1    4    4    0    0 -0.36544533061E+01  0.62906515157E+01  0.19404921659E+03  0.19418557348E+03  0.10566000000E+00 0. -1.
        -13    1    4    4    0    0 -0.43825535570E+00  0.62955915583E+00  0.21774699165E+02  0.21788462549E+02  0.10566000000E+00 0. -1.
         14    1    4    4    0    0 -0.96671874358E+01  0.12772502873E+02  0.38167602417E+03  0.38201201391E+03  0.00000000000E+00 0. -1.
<mgrwt>
<rscale>  0 0.80543781E+02</rscale>
<asrwt>0</asrwt>
<pdfrwt beam="1">  1        2 0.10204064E+00 0.80543781E+02</pdfrwt>
<pdfrwt beam="2">  1       -1 0.37618731E-03 0.80543781E+02</pdfrwt>
<totfact> 0.32447589E+05</totfact>
</mgrwt>
</event>
<event>
 8    1  0.1493610E-013  0.7783867E+02  0.7818608E-02  0.1335299E+00
          2   -1    0    0  501    0  0.00000000000E+00  0.00000000000E+00  0.49979402198E+03  0.49979402199E+03  0.25500000000E-02 0. -1.
         -1   -1    0    0    0  501 -0.00000000000E+00 -0.00000000000E+00 -0.30306754435E+01  0.30306796342E+01  0.50400000000E-02 0.  1.
         24    2    1    2    0    0 -0.88817841970E-15 -0.17763568394E-14  0.49676334654E+03  0.50282470162E+03  0.77838667112E+02 0.  0.
         66    2    3    3    0    0  0.77074256761E+01 -0.15377512453E+02  0.47388476976E+03  0.47420106210E+03  0.19999978320E+01 0.  0.
        -13    1    3    3    0    0 -0.77074256761E+01  0.15377512453E+02  0.22878576780E+02  0.28623639519E+02  0.10566000000E+00 0.  1.
         13    1    4    4    0    0  0.46732927046E+01 -0.88245819275E+01  0.27108564091E+03  0.27126951318E+03  0.10566000000E+00 0. -1.
        -13    1    4    4    0    0  0.18831237955E+01 -0.30015923312E+01  0.86790591040E+02  0.86862958555E+02  0.10566000000E+00 0.  1.
        -14    1    4    4    0    0  0.11510091761E+01 -0.35513381945E+01  0.11600853780E+03  0.11606859036E+03  0.00000000000E+00 0.  1.
<mgrwt>
<rscale>  0 0.77838667E+02</rscale>
<asrwt>0</asrwt>
<pdfrwt beam="1">  1        2 0.76891387E-01 0.77838667E+02</pdfrwt>
<pdfrwt beam="2">  1       -1 0.46625809E-03 0.77838667E+02</pdfrwt>
<totfact> 0.32696972E+05</totfact>
</mgrwt>
</event>
<event>
 8    1  0.1493610E-013  0.7959621E+02  0.7818608E-02  0.1330201E+00
          2   -1    0    0  501    0  0.00000000000E+00  0.00000000000E+00  0.34854262357E+01  0.34854271685E+01  0.25500000000E-02 0. -1.
         -1   -1    0    0    0  501 -0.00000000000E+00 -0.00000000000E+00 -0.45443192579E+03  0.45443192582E+03  0.50400000000E-02 0.  1.
         24    2    1    2    0    0 -0.71054273576E-14 -0.88817841970E-15 -0.45094649956E+03  0.45791735299E+03  0.79596210374E+02 0.  0.
         66    2    3    3    0    0 -0.39008904680E+02 -0.48078871501E+01 -0.26064424992E+03  0.26359862563E+03  0.19999980977E+01 0.  0.
        -13    1    3    3    0    0  0.39008904680E+02  0.48078871501E+01 -0.19030224964E+03  0.19431872736E+03  0.10566000000E+00 0.  1.
         13    1    4    4    0    0 -0.60150775565E+01 -0.37451024569E+00 -0.37365158807E+02  0.37848218883E+02  0.10566000000E+00 0.  1.
        -13    1    4    4    0    0 -0.20831101761E+02 -0.30269422077E+01 -0.14472983394E+03  0.14625263477E+03  0.10566000000E+00 0. -1.
         14    1    4    4    0    0 -0.12162725362E+02 -0.14064346968E+01 -0.78549257171E+02  0.79497771975E+02  0.00000000000E+00 0. -1.
<mgrwt>
<rscale>  0 0.79596210E+02</rscale>
<asrwt>0</asrwt>
<pdfrwt beam="1">  1        2 0.53621985E-03 0.79596210E+02</pdfrwt>
<pdfrwt beam="2">  1       -1 0.69912557E-01 0.79596210E+02</pdfrwt>
<totfact> 0.71650183E+04</totfact>
</mgrwt>
</event>
<event>
 8    1  0.1493610E-013  0.7976022E+02  0.7818608E-02  0.1329733E+00
          2   -1    0    0  501    0  0.00000000000E+00  0.00000000000E+00  0.19812494053E+03  0.19812494054E+03  0.25500000000E-02 0. -1.
         -1   -1    0    0    0  501 -0.00000000000E+00 -0.00000000000E+00 -0.80273737883E+01  0.80273753705E+01  0.50400000000E-02 0.  1.
         24    2    1    2    0    0  0.00000000000E+00  0.35527136788E-14  0.19009756674E+03  0.20615231592E+03  0.79760218635E+02 0.  0.
         66    2    3    3    0    0 -0.10723216234E+01 -0.25539192114E+02  0.17414199673E+03  0.17601941719E+03  0.19999983315E+01 0.  0.
        -13    1    3    3    0    0  0.10723216234E+01  0.25539192114E+02  0.15955570008E+02  0.30132898729E+02  0.10566000000E+00 0.  1.
         13    1    4    4    0    0 -0.31450227623E+00 -0.80018296745E+01  0.51635666388E+02  0.52253051559E+02  0.10566000000E+00 0.  1.
        -13    1    4    4    0    0 -0.15140811971E+00 -0.15004181423E+02  0.10546798297E+03  0.10653006609E+03  0.10566000000E+00 0. -1.
        -14    1    4    4    0    0 -0.60641122742E+00 -0.25331810159E+01  0.17038347370E+02  0.17236299538E+02  0.00000000000E+00 0.  1.
<mgrwt>
<rscale>  0 0.79760219E+02</rscale>
<asrwt>0</asrwt>
<pdfrwt beam="1">  1        2 0.30480761E-01 0.79760219E+02</pdfrwt>
<pdfrwt beam="2">  1       -1 0.12349807E-02 0.79760219E+02</pdfrwt>
<totfact> 0.22161428E+05</totfact>
</mgrwt>
</event>
<event>
 8    1  0.1493610E-013  0.7495044E+02  0.7818608E-02  0.1344025E+00
         -1   -1    0    0    0  501 -0.00000000000E+00  0.00000000000E+00  0.35102107545E+02  0.35102107907E+02  0.50400000000E-02 0.  1.
          2   -1    0    0  501    0  0.00000000000E+00 -0.00000000000E+00 -0.40008769078E+02  0.40008769160E+02  0.25500000000E-02 0. -1.
         24    2    1    2    0    0  0.00000000000E+00  0.00000000000E+00 -0.49066615335E+01  0.75110877067E+02  0.74950440468E+02 0.  0.
         66    2    3    3    0    0  0.14344370043E+02  0.23893705763E+02 -0.27522956719E+02  0.39219678996E+02  0.19999867358E+01 0.  0.
        -13    1    3    3    0    0 -0.14344370043E+02 -0.23893705763E+02  0.22616295186E+02  0.35891198071E+02  0.10566000000E+00 0.  1.
         13    1    4    4    0    0  0.32292114850E+01  0.52189046448E+01 -0.64395483784E+01  0.88962756173E+01  0.10566000000E+00 0.  1.
        -13    1    4    4    0    0  0.50298990328E+01  0.82624725309E+01 -0.10514361487E+02  0.14287452471E+02  0.10566000000E+00 0. -1.
         14    1    4    4    0    0  0.60852595254E+01  0.10412328587E+02 -0.10569046854E+02  0.16035950907E+02  0.00000000000E+00 0. -1.
<mgrwt>
<rscale>  0 0.74950440E+02</rscale>
<asrwt>0</asrwt>
<pdfrwt beam="1">  1        2 0.61551953E-02 0.74950440E+02</pdfrwt>
<pdfrwt beam="2">  1       -1 0.54003243E-02 0.74950440E+02</pdfrwt>
<totfact> 0.17055470E+05</totfact>
</mgrwt>
</event>
<event>
 8    1  0.1493610E-013  0.7648132E+02  0.7818608E-02  0.1339344E+00
         -1   -1    0    0    0  501 -0.00000000000E+00  0.00000000000E+00  0.14867804796E+02  0.14867805650E+02  0.50400000000E-02 0.  1.
          2   -1    0    0  501    0  0.00000000000E+00 -0.00000000000E+00 -0.98356682233E+02  0.98356682266E+02  0.25500000000E-02 0. -1.
         24    2    1    2    0    0 -0.35527136788E-14  0.71054273576E-14 -0.83488877437E+02  0.11322448792E+03  0.76481318034E+02 0.  0.
         66    2    3    3    0    0  0.13166444861E+02 -0.35162439817E+02 -0.31243104119E+02  0.48886439781E+02  0.19999988381E+01 0.  0.
        -13    1    3    3    0    0 -0.13166444861E+02  0.35162439817E+02 -0.52245773318E+02  0.64338048135E+02  0.10566000000E+00 0.  1.
         13    1    4    4    0    0  0.73414787009E+01 -0.21059122887E+02 -0.18022193651E+02  0.28673935801E+02  0.10566000000E+00 0. -1.
        -13    1    4    4    0    0  0.16268963130E+01 -0.51079755259E+01 -0.47069644092E+01  0.71347658386E+01  0.10566000000E+00 0.  1.
         14    1    4    4    0    0  0.41980698467E+01 -0.89953414039E+01 -0.85139460581E+01  0.13077738141E+02  0.00000000000E+00 0. -1.
<mgrwt>
<rscale>  0 0.76481318E+02</rscale>
<asrwt>0</asrwt>
<pdfrwt beam="1">  1        2 0.15131797E-01 0.76481318E+02</pdfrwt>
<pdfrwt beam="2">  1       -1 0.22873547E-02 0.76481318E+02</pdfrwt>
<totfact> 0.19898177E+05</totfact>
</mgrwt>
</event>
<event>
 8    1  0.1493610E-013  0.7936477E+02  0.7818608E-02  0.1330864E+00
          2   -1    0    0  501    0  0.00000000000E+00  0.00000000000E+00  0.13721371351E+03  0.13721371354E+03  0.25500000000E-02 0. -1.
         -1   -1    0    0    0  501 -0.00000000000E+00 -0.00000000000E+00 -0.11476196259E+02  0.11476197366E+02  0.50400000000E-02 0.  1.
         24    2    1    2    0    0 -0.35527136788E-14  0.00000000000E+00  0.12573751725E+03  0.14868991090E+03  0.79364767744E+02 0.  0.
         66    2    3    3    0    0 -0.20731797597E+02  0.25099563873E+02  0.10533791726E+03  0.11027181124E+03  0.20000003180E+01 0.  0.
        -13    1    3    3    0    0  0.20731797597E+02 -0.25099563873E+02  0.20399599988E+02  0.38418099666E+02  0.10566000000E+00 0.  1.
         13    1    4    4    0    0 -0.97038310235E+00  0.95471531805E+00  0.43962295165E+01  0.46033816593E+01  0.10566000000E+00 0.  1.
        -13    1    4    4    0    0 -0.10694756975E+02  0.12336638701E+02  0.50273641807E+02  0.52858497007E+02  0.10566000000E+00 0.  1.
         14    1    4    4    0    0 -0.90666575197E+01  0.11808209854E+02  0.50668045941E+02  0.52809932570E+02  0.00000000000E+00 0. -1.
<mgrwt>
<rscale>  0 0.79364768E+02</rscale>
<asrwt>0</asrwt>
<pdfrwt beam="1">  1        2 0.21109802E-01 0.79364768E+02</pdfrwt>
<pdfrwt beam="2">  1       -1 0.17655688E-02 0.79364768E+02</pdfrwt>
<totfact> 0.19887502E+05</totfact>
</mgrwt>
</event>
<event>
 8    1  0.1493610E-013  0.8094988E+02  0.7818608E-02  0.1326377E+00
          2   -1    0    0  501    0  0.00000000000E+00  0.00000000000E+00  0.51714566184E+02  0.51714566246E+02  0.25500000000E-02 0. -1.
         -1   -1    0    0    0  501 -0.00000000000E+00 -0.00000000000E+00 -0.31678129494E+02  0.31678129895E+02  0.50400000000E-02 0.  1.
         24    2    1    2    0    0 -0.35527136788E-14  0.22204460493E-15  0.20036436690E+02  0.83392696141E+02  0.80949879397E+02 0.  0.
         66    2    3    3    0    0  0.19678154971E+02 -0.11619831819E+01  0.46412109911E+02  0.50464481949E+02  0.20000010010E+01 0.  0.
        -13    1    3    3    0    0 -0.19678154971E+02  0.11619831819E+01 -0.26375673221E+02  0.32928214192E+02  0.10566000000E+00 0.  1.
         13    1    4    4    0    0  0.81791006779E+01 -0.86894900785E+00  0.19123818078E+02  0.20817885152E+02  0.10566000000E+00 0. -1.
        -13    1    4    4    0    0  0.83102892442E+01 -0.76598988705E+00  0.18933060086E+02  0.20691050628E+02  0.10566000000E+00 0.  1.
        -14    1    4    4    0    0  0.31887650489E+01  0.47295571295E+00  0.83552317467E+01  0.89555461690E+01  0.00000000000E+00 0.  1.
<mgrwt>
<rscale>  0 0.80949879E+02</rscale>
<asrwt>0</asrwt>
<pdfrwt beam="1">  1        2 0.79560871E-02 0.80949879E+02</pdfrwt>
<pdfrwt beam="2">  1       -1 0.48735585E-02 0.80949879E+02</pdfrwt>
<totfact> 0.14574899E+05</totfact>
</mgrwt>
</event>
<event>
 8    1  0.1493610E-013  0.8229950E+02  0.7818608E-02  0.1322650E+00
          2   -1    0    0  501    0  0.00000000000E+00  0.00000000000E+00  0.59634011768E+02  0.59634011823E+02  0.25500000000E-02 0. -1.
         -1   -1    0    0    0  501 -0.00000000000E+00 -0.00000000000E+00 -0.28394901350E+02  0.28394901797E+02  0.50400000000E-02 0.  1.
         24    2    1    2    0    0  0.00000000000E+00  0.00000000000E+00  0.31239110418E+02  0.88028913620E+02  0.82299499472E+02 0.  0.
         66    2    3    3    0    0 -0.85208059097E+01  0.60021079240E+01  0.58181048643E+02  0.59141050559E+02  0.20000017873E+01 0.  0.
        -13    1    3    3    0    0  0.85208059097E+01 -0.60021079240E+01 -0.26941938225E+02  0.28887863061E+02  0.10566000000E+00 0.  1.
         13    1    4    4    0    0 -0.38226932086E+01  0.27088889000E+01  0.24987176729E+02  0.25422848530E+02  0.10566000000E+00 0. -1.
        -13    1    4    4    0    0 -0.15437592286E+01  0.67950767162E+00  0.67192969665E+01  0.69285668786E+01  0.10566000000E+00 0.  1.
         14    1    4    4    0    0 -0.31543534725E+01  0.26137113524E+01  0.26474574947E+02  0.26789635151E+02  0.00000000000E+00 0. -1.
<mgrwt>
<rscale>  0 0.82299499E+02</rscale>
<asrwt>0</asrwt>
<pdfrwt beam="1">  1        2 0.91744633E-02 0.82299499E+02</pdfrwt>
<pdfrwt beam="2">  1       -1 0.43684464E-02 0.82299499E+02</pdfrwt>
<totfact> 0.14388329E+05</totfact>
</mgrwt>
</event>
<event>
 8    1  0.1493610E-013  0.7844698E+02  0.7818608E-02  0.1333517E+00
         -1   -1    0    0    0  501 -0.00000000000E+00  0.00000000000E+00  0.11558231276E+01  0.11558341161E+01  0.50400000000E-02 0.  1.
          2   -1    0    0  501    0  0.00000000000E+00 -0.00000000000E+00 -0.13310642916E+04  0.13310642916E+04  0.25500000000E-02 0. -1.
         24    2    1    2    0    0  0.00000000000E+00 -0.17763568394E-14 -0.13299084685E+04  0.13322201257E+04  0.78446981172E+02 0.  0.
         66    2    3    3    0    0 -0.79621757976E+01 -0.12778264731E+02 -0.12799982506E+04  0.12800883570E+04  0.20000034533E+01 0.  0.
        -13    1    3    3    0    0  0.79621757976E+01  0.12778264731E+02 -0.49910217914E+02  0.52131768714E+02  0.10566000000E+00 0.  1.
         13    1    4    4    0    0 -0.42792609209E+01 -0.78145443692E+01 -0.70319476710E+03  0.70325121459E+03  0.10566000000E+00 0. -1.
        -13    1    4    4    0    0 -0.25870282609E+01 -0.39798083778E+01 -0.42534273745E+03  0.42536923614E+03  0.10566000000E+00 0.  1.
        -14    1    4    4    0    0 -0.10958866158E+01 -0.98391198386E+00 -0.15146074602E+03  0.15146790629E+03  0.00000000000E+00 0.  1.
<mgrwt>
<rscale>  0 0.78446981E+02</rscale>
<asrwt>0</asrwt>
<pdfrwt beam="1">  1        2 0.20477790E+00 0.78446981E+02</pdfrwt>
<pdfrwt beam="2">  1       -1 0.17782085E-03 0.78446981E+02</pdfrwt>
<totfact> 0.36245515E+05</totfact>
</mgrwt>
</event>
<event>
 8    1  0.1493610E-013  0.7888232E+02  0.7818608E-02  0.1332254E+00
         -1   -1    0    0    0  501 -0.00000000000E+00  0.00000000000E+00  0.95189372864E+00  0.95190707121E+00  0.50400000000E-02 0.  1.
          2   -1    0    0  501    0  0.00000000000E+00 -0.00000000000E+00 -0.16342097917E+04  0.16342097917E+04  0.25500000000E-02 0. -1.
         24    2    1    2    0    0  0.88817841970E-15  0.35527136788E-14 -0.16332578980E+04  0.16351616988E+04  0.78882316454E+02 0.  0.
         66    2    3    3    0    0  0.64262505129E+01  0.18241901009E+02 -0.15290814999E+04  0.15292051194E+04  0.20000005158E+01 0.  0.
        -13    1    3    3    0    0 -0.64262505129E+01 -0.18241901009E+02 -0.10417639808E+03  0.10595657945E+03  0.10566000000E+00 0.  1.
         13    1    4    4    0    0  0.52646386095E+00  0.18570171136E+01 -0.13003119994E+03  0.13004556816E+03  0.10566000000E+00 0. -1.
        -13    1    4    4    0    0  0.12973857946E+00  0.31982504802E+00 -0.49222366183E+02  0.49223689590E+02  0.10566000000E+00 0.  1.
         14    1    4    4    0    0  0.57700480725E+01  0.16065058848E+02 -0.13498279338E+04  0.13499358616E+04  0.00000000000E+00 0. -1.
<mgrwt>
<rscale>  0 0.78882316E+02</rscale>
<asrwt>0</asrwt>
<pdfrwt beam="1">  1        2 0.25141465E+00 0.78882316E+02</pdfrwt>
<pdfrwt beam="2">  1       -1 0.14644752E-03 0.78882316E+02</pdfrwt>
<totfact> 0.33208852E+05</totfact>
</mgrwt>
</event>
<event>
 8    1  0.1493610E-013  0.8018955E+02  0.7818608E-02  0.1328514E+00
         -1   -1    0    0    0  501 -0.00000000000E+00  0.00000000000E+00  0.16845731677E+02  0.16845732431E+02  0.50400000000E-02 0.  1.
          2   -1    0    0  501    0  0.00000000000E+00 -0.00000000000E+00 -0.95430159900E+02  0.95430159935E+02  0.25500000000E-02 0. -1.
         24    2    1    2    0    0  0.35527136788E-14 -0.35527136788E-14 -0.78584428223E+02  0.11227589237E+03  0.80189548242E+02 0.  0.
         66    2    3    3    0    0 -0.20194508475E+02  0.31282081060E+02 -0.60046058166E+02  0.70681793068E+02  0.20000005075E+01 0.  0.
        -13    1    3    3    0    0  0.20194508475E+02 -0.31282081060E+02 -0.18538370057E+02  0.41594099298E+02  0.10566000000E+00 0.  1.
         13    1    4    4    0    0 -0.54378750445E+00  0.63282150150E+00 -0.14084543287E+01  0.16404497963E+01  0.10566000000E+00 0. -1.
        -13    1    4    4    0    0 -0.17653326533E+01  0.19850542112E+01 -0.44346196685E+01  0.51704792078E+01  0.10566000000E+00 0. -1.
         14    1    4    4    0    0 -0.17885388317E+02  0.28664205347E+02 -0.54202984169E+02  0.63870864064E+02  0.00000000000E+00 0. -1.
<mgrwt>
<rscale>  0 0.80189548E+02</rscale>
<asrwt>0</asrwt>
<pdfrwt beam="1">  1        2 0.14681563E-01 0.80189548E+02</pdfrwt>
<pdfrwt beam="2">  1       -1 0.25916511E-02 0.80189548E+02</pdfrwt>
<totfact> 0.17386567E+05</totfact>
</mgrwt>
</event>
<event>
 8    1  0.1493610E-013  0.8335404E+02  0.7818608E-02  0.1319794E+00
         -1   -1    0    0    0  501 -0.00000000000E+00  0.00000000000E+00  0.14485309476E+02  0.14485310353E+02  0.50400000000E-02 0.  1.
          2   -1    0    0  501    0  0.00000000000E+00 -0.00000000000E+00 -0.11991279188E+03  0.11991279190E+03  0.25500000000E-02 0. -1.
         24    2    1    2    0    0 -0.35527136788E-14 -0.88817841970E-15 -0.10542748240E+03  0.13439810225E+03  0.83354039163E+02 0.  0.
         66    2    3    3    0    0 -0.29967262488E+02 -0.54838818651E+01 -0.69440174587E+01  0.31310208630E+02  0.20000011721E+01 0.  0.
        -13    1    3    3    0    0  0.29967262488E+02  0.54838818651E+01 -0.98483464940E+02  0.10308789362E+03  0.10566000000E+00 0.  1.
         13    1    4    4    0    0 -0.14034837711E+02 -0.25520880674E+01 -0.27624690054E+01  0.14530389606E+02  0.10566000000E+00 0. -1.
        -13    1    4    4    0    0 -0.14731425658E+01 -0.55616250949E+00 -0.16883584717E+00  0.15871784194E+01  0.10566000000E+00 0.  1.
        -14    1    4    4    0    0 -0.14459282211E+02 -0.23756312882E+01 -0.40127126061E+01  0.15192640604E+02  0.00000000000E+00 0.  1.
<mgrwt>
<rscale>  0 0.83354039E+02</rscale>
<asrwt>0</asrwt>
<pdfrwt beam="1">  1        2 0.18448121E-01 0.83354039E+02</pdfrwt>
<pdfrwt beam="2">  1       -1 0.22285093E-02 0.83354039E+02</pdfrwt>
<totfact> 0.16739956E+05</totfact>
</mgrwt>
</event>
<event>
 8    1  0.1493610E-013  0.8089067E+02  0.7818608E-02  0.1326543E+00
         -1   -1    0    0    0  501 -0.00000000000E+00  0.00000000000E+00  0.12883990715E+01  0.12884089293E+01  0.50400000000E-02 0.  1.
          2   -1    0    0  501    0  0.00000000000E+00 -0.00000000000E+00 -0.12696521606E+04  0.12696521606E+04  0.25500000000E-02 0. -1.
         24    2    1    2    0    0  0.00000000000E+00  0.00000000000E+00 -0.12683637616E+04  0.12709405696E+04  0.80890665243E+02 0.  0.
         66    2    3    3    0    0  0.19946483116E+02 -0.67552763788E+01 -0.11766435499E+04  0.11768336923E+04  0.19999962269E+01 0.  0.
        -13    1    3    3    0    0 -0.19946483116E+02  0.67552763788E+01 -0.91720211682E+02  0.94106877233E+02  0.10566000000E+00 0.  1.
         13    1    4    4    0    0  0.53033784629E+01 -0.17655354630E+01 -0.27438511860E+03  0.27444206567E+03  0.10566000000E+00 0. -1.
        -13    1    4    4    0    0  0.13820332487E+02 -0.45638590288E+01 -0.85873107854E+03  0.85885441538E+03  0.10566000000E+00 0.  1.
        -14    1    4    4    0    0  0.82277216693E+00 -0.42588188696E+00 -0.43527352740E+02  0.43537211279E+02  0.00000000000E+00 0.  1.
<mgrwt>
<rscale>  0 0.80890665E+02</rscale>
<asrwt>0</asrwt>
<pdfrwt beam="1">  1        2 0.19533010E+00 0.80890665E+02</pdfrwt>
<pdfrwt beam="2">  1       -1 0.19821702E-03 0.80890665E+02</pdfrwt>
<totfact> 0.33779269E+05</totfact>
</mgrwt>
</event>
<event>
 8    1  0.1493610E-013  0.7865433E+02  0.7818608E-02  0.1332914E+00
          2   -1    0    0  501    0  0.00000000000E+00  0.00000000000E+00  0.21935268898E+03  0.21935268899E+03  0.25500000000E-02 0. -1.
         -1   -1    0    0    0  501 -0.00000000000E+00 -0.00000000000E+00 -0.70508628290E+01  0.70508646303E+01  0.50400000000E-02 0.  1.
         24    2    1    2    0    0  0.00000000000E+00  0.00000000000E+00  0.21230182615E+03  0.22640355362E+03  0.78654330503E+02 0.  0.
         66    2    3    3    0    0  0.24166904146E+02 -0.23744354189E+02  0.16355695717E+03  0.16704104839E+03  0.19999989993E+01 0.  0.
        -13    1    3    3    0    0 -0.24166904146E+02  0.23744354189E+02  0.48744868973E+02  0.59362505230E+02  0.10566000000E+00 0.  1.
         13    1    4    4    0    0  0.34850283973E+01 -0.33833531212E+01  0.24535922340E+02  0.25012299982E+02  0.10566000000E+00 0. -1.
        -13    1    4    4    0    0  0.13076934681E+02 -0.11976424101E+02  0.87513890218E+02  0.89292402252E+02  0.10566000000E+00 0.  1.
         14    1    4    4    0    0  0.76049410681E+01 -0.83845769668E+01  0.51507144616E+02  0.52736346157E+02  0.00000000000E+00 0. -1.
<mgrwt>
<rscale>  0 0.78654331E+02</rscale>
<asrwt>0</asrwt>
<pdfrwt beam="1">  1        2 0.33746568E-01 0.78654331E+02</pdfrwt>
<pdfrwt beam="2">  1       -1 0.10847483E-02 0.78654331E+02</pdfrwt>
<totfact> 0.23823931E+05</totfact>
</mgrwt>
</event>
<event>
 8    1  0.1493610E-013  0.7959939E+02  0.7818608E-02  0.1330192E+00
          2   -1    0    0  501    0  0.00000000000E+00  0.00000000000E+00  0.55334183747E+03  0.55334183747E+03  0.25500000000E-02 0. -1.
         -1   -1    0    0    0  501 -0.00000000000E+00 -0.00000000000E+00 -0.28626324320E+01  0.28626368688E+01  0.50400000000E-02 0.  1.
         24    2    1    2    0    0  0.00000000000E+00  0.00000000000E+00  0.55047920504E+03  0.55620447434E+03  0.79599385059E+02 0.  0.
         66    2    3    3    0    0 -0.26134224250E+01 -0.35761322340E+02  0.39569380298E+03  0.39732013274E+03  0.20000032175E+01 0.  0.
        -13    1    3    3    0    0  0.26134224250E+01  0.35761322340E+02  0.15478540206E+03  0.15888434160E+03  0.10566000000E+00 0.  1.
         13    1    4    4    0    0 -0.23900581725E+01 -0.32088750561E+02  0.35866035440E+03  0.36010090429E+03  0.10566000000E+00 0. -1.
        -13    1    4    4    0    0 -0.13791654985E+00 -0.19535402775E+01  0.17281982097E+02  0.17392912632E+02  0.10566000000E+00 0.  1.
        -14    1    4    4    0    0 -0.85447702731E-01 -0.17190315013E+01  0.19751466487E+02  0.19826315821E+02  0.00000000000E+00 0.  1.
<mgrwt>
<rscale>  0 0.79599385E+02</rscale>
<asrwt>0</asrwt>
<pdfrwt beam="1">  1        2 0.85129484E-01 0.79599385E+02</pdfrwt>
<pdfrwt beam="2">  1       -1 0.44040549E-03 0.79599385E+02</pdfrwt>
<totfact> 0.31833353E+05</totfact>
</mgrwt>
</event>
<event>
 8    1  0.1493610E-013  0.8110720E+02  0.7818608E-02  0.1325938E+00
          2   -1    0    0  501    0  0.00000000000E+00  0.00000000000E+00  0.95526316775E+01  0.95526320178E+01  0.25500000000E-02 0. -1.
         -1   -1    0    0    0  501 -0.00000000000E+00 -0.00000000000E+00 -0.17216140849E+03  0.17216140856E+03  0.50400000000E-02 0.  1.
         24    2    1    2    0    0 -0.88817841970E-15  0.71054273576E-14 -0.16260877681E+03  0.18171404058E+03  0.81107202195E+02 0.  0.
         66    2    3    3    0    0 -0.52593821775E+01  0.34361818916E+02 -0.34669380792E+02  0.49136154347E+02  0.19999998608E+01 0.  0.
        -13    1    3    3    0    0  0.52593821775E+01 -0.34361818916E+02 -0.12793939602E+03  0.13257788623E+03  0.10566000000E+00 0.  1.
         13    1    4    4    0    0 -0.39426430238E+01  0.23541619051E+02 -0.24767336025E+02  0.34397446989E+02  0.10566000000E+00 0. -1.
        -13    1    4    4    0    0 -0.11660330778E+01  0.10403285162E+02 -0.95808878538E+01  0.14191284347E+02  0.10566000000E+00 0.  1.
         14    1    4    4    0    0 -0.15070607584E+00  0.41691470345E+00 -0.32115691295E+00  0.54742301192E+00  0.00000000000E+00 0. -1.
<mgrwt>
<rscale>  0 0.81107202E+02</rscale>
<asrwt>0</asrwt>
<pdfrwt beam="1">  1        2 0.14696358E-02 0.81107202E+02</pdfrwt>
<pdfrwt beam="2">  1       -1 0.26486368E-01 0.81107202E+02</pdfrwt>
<totfact> 0.10044370E+05</totfact>
</mgrwt>
</event>
<event>
 8    1  0.1493610E-013  0.7876621E+02  0.7818608E-02  0.1332590E+00
         -1   -1    0    0    0  501 -0.00000000000E+00  0.00000000000E+00  0.27344652030E+01  0.27344698477E+01  0.50400000000E-02 0.  1.
          2   -1    0    0  501    0  0.00000000000E+00 -0.00000000000E+00 -0.56721426585E+03  0.56721426586E+03  0.25500000000E-02 0. -1.
         24    2    1    2    0    0  0.00000000000E+00 -0.35527136788E-14 -0.56447980065E+03  0.56994873571E+03  0.78766210976E+02 0.  0.
         66    2    3    3    0    0 -0.36514450073E+01  0.23351448623E+02 -0.51014145003E+03  0.51069259074E+03  0.20000002750E+01 0.  0.
        -13    1    3    3    0    0  0.36514450073E+01 -0.23351448623E+02 -0.54338350622E+02  0.59256144962E+02  0.10566000000E+00 0.  1.
         13    1    4    4    0    0 -0.31274188119E+01  0.15318258148E+02 -0.33972196142E+03  0.34008153731E+03  0.10566000000E+00 0.  1.
        -13    1    4    4    0    0 -0.42850706293E+00  0.62174747570E+01 -0.13785669612E+03  0.13799753781E+03  0.10566000000E+00 0. -1.
        -14    1    4    4    0    0 -0.95519132418E-01  0.18157157179E+01 -0.32562792484E+02  0.32613515631E+02  0.00000000000E+00 0.  1.
<mgrwt>
<rscale>  0 0.78766211E+02</rscale>
<asrwt>0</asrwt>
<pdfrwt beam="1">  1        2 0.87263640E-01 0.78766211E+02</pdfrwt>
<pdfrwt beam="2">  1       -1 0.42068776E-03 0.78766211E+02</pdfrwt>
<totfact> 0.32957030E+05</totfact>
</mgrwt>
</event>
<event>
 8    1  0.1493610E-013  0.7920458E+02  0.7818608E-02  0.1331324E+00
          2   -1    0    0  501    0  0.00000000000E+00  0.00000000000E+00  0.11832722698E+02  0.11832722973E+02  0.25500000000E-02 0. -1.
         -1   -1    0    0    0  501 -0.00000000000E+00 -0.00000000000E+00 -0.13254273631E+03  0.13254273641E+03  0.50400000000E-02 0.  1.
         24    2    1    2    0    0  0.35527136788E-14 -0.35527136788E-14 -0.12071001361E+03  0.14437545938E+03  0.79204582473E+02 0.  0.
         66    2    3    3    0    0  0.30794624197E+02 -0.20257527341E+02 -0.34125822266E+02  0.50271741873E+02  0.19999980562E+01 0.  0.
        -13    1    3    3    0    0 -0.30794624197E+02  0.20257527341E+02 -0.86584191347E+02  0.94103717507E+02  0.10566000000E+00 0.  1.
         13    1    4    4    0    0  0.39506340811E+00 -0.41911592080E+00 -0.59098884077E+00  0.83196460082E+00  0.10566000000E+00 0. -1.
        -13    1    4    4    0    0  0.34489396191E+01 -0.20007588911E+01 -0.31837611639E+01  0.51035007417E+01  0.10566000000E+00 0.  1.
         14    1    4    4    0    0  0.26950621170E+02 -0.17837652529E+02 -0.30351072261E+02  0.44336276531E+02  0.00000000000E+00 0. -1.
<mgrwt>
<rscale>  0 0.79204582E+02</rscale>
<asrwt>0</asrwt>
<pdfrwt beam="1">  1        2 0.18204190E-02 0.79204582E+02</pdfrwt>
<pdfrwt beam="2">  1       -1 0.20391189E-01 0.79204582E+02</pdfrwt>
<totfact> 0.11405581E+05</totfact>
</mgrwt>
</event>
<event>
 8    1  0.1493610E-013  0.7809498E+02  0.7818608E-02  0.1334546E+00
         -1   -1    0    0    0  501 -0.00000000000E+00  0.00000000000E+00  0.57863060979E+02  0.57863061198E+02  0.50400000000E-02 0.  1.
          2   -1    0    0  501    0  0.00000000000E+00 -0.00000000000E+00 -0.26350252966E+02  0.26350253090E+02  0.25500000000E-02 0. -1.
         24    2    1    2    0    0  0.00000000000E+00 -0.88817841970E-15  0.31512808012E+02  0.84213314288E+02  0.78094975732E+02 0.  0.
         66    2    3    3    0    0 -0.38530363239E+02 -0.61030610018E+01  0.14763713399E+02  0.41758873068E+02  0.20000004076E+01 0.  0.
        -13    1    3    3    0    0  0.38530363239E+02  0.61030610018E+01  0.16749094614E+02  0.42454441220E+02  0.10566000000E+00 0.  1.
         13    1    4    4    0    0 -0.17622583298E+02 -0.27558156666E+01  0.69589747207E+01  0.19146499818E+02  0.10566000000E+00 0. -1.
        -13    1    4    4    0    0 -0.40462477611E+01 -0.11997184633E+01  0.17135872441E+01  0.45562035308E+01  0.10566000000E+00 0.  1.
        -14    1    4    4    0    0 -0.16861532180E+02 -0.21475268719E+01  0.60911514339E+01  0.18056169719E+02  0.00000000000E+00 0.  1.
<mgrwt>
<rscale>  0 0.78094976E+02</rscale>
<asrwt>0</asrwt>
<pdfrwt beam="1">  1        2 0.40538851E-02 0.78094976E+02</pdfrwt>
<pdfrwt beam="2">  1       -1 0.89020093E-02 0.78094976E+02</pdfrwt>
<totfact> 0.14037085E+05</totfact>
</mgrwt>
</event>
<event>
 8    1  0.1493610E-013  0.7883317E+02  0.7818608E-02  0.1332396E+00
          2   -1    0    0  501    0  0.00000000000E+00  0.00000000000E+00  0.16292197884E+03  0.16292197886E+03  0.25500000000E-02 0. -1.
         -1   -1    0    0    0  501 -0.00000000000E+00 -0.00000000000E+00 -0.95362648795E+01  0.95362662114E+01  0.50400000000E-02 0.  1.
         24    2    1    2    0    0  0.00000000000E+00  0.00000000000E+00  0.15338571396E+03  0.17245824507E+03  0.78833172243E+02 0.  0.
         66    2    3    3    0    0 -0.36303912141E+02 -0.10392592596E+02  0.10126725145E+03  0.10809734610E+03  0.20000001145E+01 0.  0.
        -13    1    3    3    0    0  0.36303912141E+02  0.10392592596E+02  0.52118462512E+02  0.64360898971E+02  0.10566000000E+00 0.  1.
         13    1    4    4    0    0 -0.16891456446E+02 -0.44097641359E+01  0.48746856372E+02  0.51778706925E+02  0.10566000000E+00 0. -1.
        -13    1    4    4    0    0 -0.16586102552E+02 -0.50640206078E+01  0.45640927917E+02  0.48824671712E+02  0.10566000000E+00 0.  1.
         14    1    4    4    0    0 -0.28263531434E+01 -0.91880785277E+00  0.68794671588E+01  0.74939674639E+01  0.00000000000E+00 0. -1.
<mgrwt>
<rscale>  0 0.78833172E+02</rscale>
<asrwt>0</asrwt>
<pdfrwt beam="1">  1        2 0.25064918E-01 0.78833172E+02</pdfrwt>
<pdfrwt beam="2">  1       -1 0.14671179E-02 0.78833172E+02</pdfrwt>
<totfact> 0.21393058E+05</totfact>
</mgrwt>
</event>
<event>
 8    1  0.1493610E-013  0.7997931E+02  0.7818608E-02  0.1329110E+00
         -1   -1    0    0    0  501 -0.00000000000E+00  0.00000000000E+00  0.98973993903E+02  0.98973994031E+02  0.50400000000E-02 0.  1.
          2   -1    0    0  501    0  0.00000000000E+00 -0.00000000000E+00 -0.16157501249E+02  0.16157501451E+02  0.25500000000E-02 0. -1.
         24    2    1    2    0    0  0.00000000000E+00 -0.35527136788E-14  0.82816492654E+02  0.11513149548E+03  0.79979308552E+02 0.  0.
         66    2    3    3    0    0  0.10766537413E+02 -0.17047497904E+02 -0.82372033703E+01  0.21872060376E+02  0.19999982637E+01 0.  0.
        -13    1    3    3    0    0 -0.10766537413E+02  0.17047497904E+02  0.91053696024E+02  0.93259435106E+02  0.10566000000E+00 0.  1.
         13    1    4    4    0    0  0.58580771624E+01 -0.90468470352E+01 -0.35477056147E+01  0.11347241448E+02  0.10566000000E+00 0. -1.
        -13    1    4    4    0    0  0.46289078513E+01 -0.75345731025E+01 -0.41869511183E+01  0.97845952107E+01  0.10566000000E+00 0.  1.
        -14    1    4    4    0    0  0.27955239882E+00 -0.46607776670E+00 -0.50254663732E+00  0.74022371684E+00  0.00000000000E+00 0.  1.
<mgrwt>
<rscale>  0 0.79979309E+02</rscale>
<asrwt>0</asrwt>
<pdfrwt beam="1">  1        2 0.24857694E-02 0.79979309E+02</pdfrwt>
<pdfrwt beam="2">  1       -1 0.15226768E-01 0.79979309E+02</pdfrwt>
<totfact> 0.11886839E+05</totfact>
</mgrwt>
</event>
<event>
 8    1  0.1493610E-013  0.7288518E+02  0.7818608E-02  0.1350548E+00
          2   -1    0    0  501    0  0.00000000000E+00  0.00000000000E+00  0.44253771790E+03  0.44253771790E+03  0.25500000000E-02 0. -1.
         -1   -1    0    0    0  501 -0.00000000000E+00 -0.00000000000E+00 -0.30010129081E+01  0.30010171403E+01  0.50400000000E-02 0.  1.
         24    2    1    2    0    0  0.00000000000E+00 -0.17763568394E-14  0.43953670499E+03  0.44553873504E+03  0.72885179513E+02 0.  0.
         66    2    3    3    0    0 -0.33631800770E+02 -0.13952077986E+02  0.22327598351E+03  0.22623422228E+03  0.20000030354E+01 0.  0.
        -13    1    3    3    0    0  0.33631800770E+02  0.13952077986E+02  0.21626072147E+03  0.21930451277E+03  0.10566000000E+00 0.  1.
         13    1    4    4    0    0 -0.35636409990E+01 -0.12196173014E+01  0.21676010705E+02  0.22001081966E+02  0.10566000000E+00 0. -1.
        -13    1    4    4    0    0 -0.89466269907E+01 -0.45353567521E+01  0.60735288478E+02  0.61558086600E+02  0.10566000000E+00 0.  1.
         14    1    4    4    0    0 -0.21121532781E+02 -0.81971039327E+01  0.14086468433E+03  0.14267505371E+03  0.00000000000E+00 0. -1.
<mgrwt>
<rscale>  0 0.72885180E+02</rscale>
<asrwt>0</asrwt>
<pdfrwt beam="1">  1        2 0.68082686E-01 0.72885180E+02</pdfrwt>
<pdfrwt beam="2">  1       -1 0.46169489E-03 0.72885180E+02</pdfrwt>
<totfact> 0.37256550E+05</totfact>
</mgrwt>
</event>
<event>
 8    1  0.1493610E-013  0.8105902E+02  0.7818608E-02  0.1326073E+00
         -1   -1    0    0    0  501 -0.00000000000E+00  0.00000000000E+00  0.31048457451E+01  0.31048498357E+01  0.50400000000E-02 0.  1.
          2   -1    0    0  501    0  0.00000000000E+00 -0.00000000000E+00 -0.52905694198E+03  0.52905694199E+03  0.25500000000E-02 0. -1.
         24    2    1    2    0    0 -0.71054273576E-14  0.17763568394E-14 -0.52595209623E+03  0.53216179182E+03  0.81059022577E+02 0.  0.
         66    2    3    3    0    0 -0.35721159384E+02  0.10805029246E+02 -0.36649954996E+03  0.36840014930E+03  0.19999991529E+01 0.  0.
        -13    1    3    3    0    0  0.35721159384E+02 -0.10805029246E+02 -0.15945254627E+03  0.16376164252E+03  0.10566000000E+00 0.  1.
         13    1    4    4    0    0 -0.10789565802E+02  0.35789289242E+01 -0.11830365189E+03  0.11884859561E+03  0.10566000000E+00 0. -1.
        -13    1    4    4    0    0 -0.88278243474E+01  0.21254474657E+01 -0.84841379936E+02  0.85325956913E+02  0.10566000000E+00 0.  1.
        -14    1    4    4    0    0 -0.16103769234E+02  0.51006528562E+01 -0.16335451813E+03  0.16422559678E+03  0.00000000000E+00 0.  1.
<mgrwt>
<rscale>  0 0.81059023E+02</rscale>
<asrwt>0</asrwt>
<pdfrwt beam="1">  1        2 0.81393304E-01 0.81059023E+02</pdfrwt>
<pdfrwt beam="2">  1       -1 0.47766931E-03 0.81059023E+02</pdfrwt>
<totfact> 0.29950538E+05</totfact>
</mgrwt>
</event>
<event>
 8    1  0.1493610E-013  0.8034278E+02  0.7818608E-02  0.1328081E+00
         -1   -1    0    0    0  501 -0.00000000000E+00  0.00000000000E+00  0.26781010781E+01  0.26781058206E+01  0.50400000000E-02 0.  1.
          2   -1    0    0  501    0  0.00000000000E+00 -0.00000000000E+00 -0.60256848374E+03  0.60256848375E+03  0.25500000000E-02 0. -1.
         24    2    1    2    0    0  0.00000000000E+00  0.00000000000E+00 -0.59989038266E+03  0.60524658957E+03  0.80342784187E+02 0.  0.
         66    2    3    3    0    0 -0.80163313744E+01 -0.32113624379E+02 -0.47128569865E+03  0.47245079764E+03  0.19999997630E+01 0.  0.
        -13    1    3    3    0    0  0.80163313744E+01  0.32113624379E+02 -0.12860468402E+03  0.13279579193E+03  0.10566000000E+00 0.  1.
         13    1    4    4    0    0 -0.45583542133E+01 -0.16799025718E+02 -0.24470617704E+03  0.24532449960E+03  0.10566000000E+00 0. -1.
        -13    1    4    4    0    0 -0.23207223138E+01 -0.86185901365E+01 -0.13581436824E+03  0.13610738273E+03  0.10566000000E+00 0.  1.
         14    1    4    4    0    0 -0.11372548473E+01 -0.66960085243E+01 -0.90765153369E+02  0.91018915313E+02  0.00000000000E+00 0. -1.
<mgrwt>
<rscale>  0 0.80342784E+02</rscale>
<asrwt>0</asrwt>
<pdfrwt beam="1">  1        2 0.92702736E-01 0.80342784E+02</pdfrwt>
<pdfrwt beam="2">  1       -1 0.41201639E-03 0.80342784E+02</pdfrwt>
<totfact> 0.31845342E+05</totfact>
</mgrwt>
</event>
<event>
 8    1  0.1493610E-013  0.8085626E+02  0.7818608E-02  0.1326639E+00
         -1   -1    0    0    0  501 -0.00000000000E+00  0.00000000000E+00  0.72749919064E+01  0.72749936522E+01  0.50400000000E-02 0.  1.
          2   -1    0    0  501    0  0.00000000000E+00 -0.00000000000E+00 -0.22466467242E+03  0.22466467243E+03  0.25500000000E-02 0. -1.
         24    2    1    2    0    0  0.44408920985E-15  0.00000000000E+00 -0.21738968051E+03  0.23193966608E+03  0.80856264510E+02 0.  0.
         66    2    3    3    0    0 -0.16103260071E+01  0.38734852404E+02 -0.14139793665E+03  0.14663000520E+03  0.19999990642E+01 0.  0.
        -13    1    3    3    0    0  0.16103260071E+01 -0.38734852404E+02 -0.75991743859E+02  0.85309660879E+02  0.10566000000E+00 0.  1.
         13    1    4    4    0    0 -0.79637663008E+00  0.12839000975E+02 -0.45754083873E+02  0.47528112911E+02  0.10566000000E+00 0. -1.
        -13    1    4    4    0    0 -0.36686621594E+00  0.21642718615E+01 -0.91644992331E+01  0.94243235163E+01  0.10566000000E+00 0.  1.
        -14    1    4    4    0    0 -0.44708316108E+00  0.23731579567E+02 -0.86479353544E+02  0.89677568776E+02  0.00000000000E+00 0.  1.
<mgrwt>
<rscale>  0 0.80856265E+02</rscale>
<asrwt>0</asrwt>
<pdfrwt beam="1">  1        2 0.34563790E-01 0.80856265E+02</pdfrwt>
<pdfrwt beam="2">  1       -1 0.11192298E-02 0.80856265E+02</pdfrwt>
<totfact> 0.22341361E+05</totfact>
</mgrwt>
</event>
<event>
 8    1  0.1493610E-013  0.8970636E+02  0.7818608E-02  0.1303564E+00
         -1   -1    0    0    0  501 -0.00000000000E+00  0.00000000000E+00  0.21792589178E+02  0.21792589761E+02  0.50400000000E-02 0.  1.
          2   -1    0    0  501    0  0.00000000000E+00 -0.00000000000E+00 -0.92316131329E+02  0.92316131364E+02  0.25500000000E-02 0. -1.
         24    2    1    2    0    0  0.00000000000E+00  0.00000000000E+00 -0.70523542151E+02  0.11410872112E+03  0.89706355623E+02 0.  0.
         66    2    3    3    0    0 -0.44203842061E+02  0.50182765392E+01 -0.28238189861E+02  0.52730997684E+02  0.19999994324E+01 0.  0.
        -13    1    3    3    0    0  0.44203842061E+02 -0.50182765392E+01 -0.42285352290E+02  0.61377723441E+02  0.10566000000E+00 0.  1.
         13    1    4    4    0    0 -0.28085267010E+02  0.36965577787E+01 -0.17720584400E+02  0.33413725292E+02  0.10566000000E+00 0. -1.
        -13    1    4    4    0    0 -0.14381992985E+02  0.11832238238E+01 -0.90045733226E+01  0.17009857307E+02  0.10566000000E+00 0.  1.
        -14    1    4    4    0    0 -0.17365820669E+01  0.13849493674E+00 -0.15130321385E+01  0.23074150850E+01  0.00000000000E+00 0.  1.
<mgrwt>
<rscale>  0 0.89706356E+02</rscale>
<asrwt>0</asrwt>
<pdfrwt beam="1">  1        2 0.14202482E-01 0.89706356E+02</pdfrwt>
<pdfrwt beam="2">  1       -1 0.33527061E-02 0.89706356E+02</pdfrwt>
<totfact> 0.12722447E+05</totfact>
</mgrwt>
</event>
<event>
 8    1  0.1493610E-013  0.7987876E+02  0.7818608E-02  0.1329396E+00
         -1   -1    0    0    0  501 -0.00000000000E+00  0.00000000000E+00  0.10225042413E+01  0.10225166625E+01  0.50400000000E-02 0.  1.
          2   -1    0    0  501    0  0.00000000000E+00 -0.00000000000E+00 -0.15600367358E+04  0.15600367358E+04  0.25500000000E-02 0. -1.
         24    2    1    2    0    0 -0.17763568394E-14  0.00000000000E+00 -0.15590142316E+04  0.15610592525E+04  0.79878755017E+02 0.  0.
         66    2    3    3    0    0 -0.15886686816E+02  0.12844636017E+02 -0.14501114602E+04  0.14502567422E+04  0.19999996678E+01 0.  0.
        -13    1    3    3    0    0  0.15886686816E+02 -0.12844636017E+02 -0.10890277142E+03  0.11080251026E+03  0.10566000000E+00 0.  1.
         13    1    4    4    0    0 -0.56515098779E+01  0.50608405722E+01 -0.53670255834E+03  0.53675618205E+03  0.10566000000E+00 0. -1.
        -13    1    4    4    0    0 -0.12905581009E+01  0.44258483596E+00 -0.98778719016E+02  0.98788197251E+02  0.10566000000E+00 0.  1.
        -14    1    4    4    0    0 -0.89446188375E+01  0.73412106092E+01 -0.81463018282E+03  0.81471236294E+03  0.00000000000E+00 0.  1.
<mgrwt>
<rscale>  0 0.79878755E+02</rscale>
<asrwt>0</asrwt>
<pdfrwt beam="1">  1        2 0.24000375E+00 0.79878755E+02</pdfrwt>
<pdfrwt beam="2">  1       -1 0.15731055E-03 0.79878755E+02</pdfrwt>
<totfact> 0.32856096E+05</totfact>
</mgrwt>
</event>
<event>
 8    1  0.1493610E-013  0.7854400E+02  0.7818608E-02  0.1333235E+00
         -1   -1    0    0    0  501 -0.00000000000E+00  0.00000000000E+00  0.22370564935E+03  0.22370564941E+03  0.50400000000E-02 0.  1.
          2   -1    0    0  501    0  0.00000000000E+00 -0.00000000000E+00 -0.68942827036E+01  0.68942831752E+01  0.25500000000E-02 0. -1.
         24    2    1    2    0    0  0.00000000000E+00  0.00000000000E+00  0.21681136665E+03  0.23059993258E+03  0.78544001679E+02 0.  0.
         66    2    3    3    0    0  0.28363690331E+02 -0.17587171732E+02  0.47844841488E+02  0.58368967518E+02  0.19999933485E+01 0.  0.
        -13    1    3    3    0    0 -0.28363690331E+02  0.17587171732E+02  0.16896652516E+03  0.17223096507E+03  0.10566000000E+00 0.  1.
         13    1    4    4    0    0  0.10387113260E+02 -0.66435271861E+01  0.17245373639E+02  0.21200062532E+02  0.10566000000E+00 0. -1.
        -13    1    4    4    0    0  0.55015598797E+01 -0.41684566002E+01  0.98975018624E+01  0.12067099846E+02  0.10566000000E+00 0.  1.
         14    1    4    4    0    0  0.12475017191E+02 -0.67751879458E+01  0.20701965987E+02  0.25101805141E+02  0.00000000000E+00 0. -1.
<mgrwt>
<rscale>  0 0.78544002E+02</rscale>
<asrwt>0</asrwt>
<pdfrwt beam="1">  1        2 0.10606590E-02 0.78544002E+02</pdfrwt>
<pdfrwt beam="2">  1       -1 0.34416250E-01 0.78544002E+02</pdfrwt>
<totfact> 0.10077316E+05</totfact>
</mgrwt>
</event>
<event>
 8    1  0.1493610E-013  0.7787450E+02  0.7818608E-02  0.1335194E+00
          2   -1    0    0  501    0  0.00000000000E+00  0.00000000000E+00  0.92828205610E+02  0.92828205645E+02  0.25500000000E-02 0. -1.
         -1   -1    0    0    0  501 -0.00000000000E+00 -0.00000000000E+00 -0.16332421574E+02  0.16332422352E+02  0.50400000000E-02 0.  1.
         24    2    1    2    0    0  0.00000000000E+00  0.00000000000E+00  0.76495784036E+02  0.10916062800E+03  0.77874499867E+02 0.  0.
         66    2    3    3    0    0  0.13029536162E+02 -0.21023733390E+02  0.80380161457E+02  0.84123341198E+02  0.20000000566E+01 0.  0.
        -13    1    3    3    0    0 -0.13029536162E+02  0.21023733390E+02 -0.38843774214E+01  0.25037286799E+02  0.10566000000E+00 0.  1.
         13    1    4    4    0    0  0.10113850422E+02 -0.16445634813E+02  0.61490222917E+02  0.64450039202E+02  0.10566000000E+00 0. -1.
        -13    1    4    4    0    0  0.26462737184E+01 -0.38395840709E+01  0.16951757164E+02  0.17581763433E+02  0.10566000000E+00 0.  1.
         14    1    4    4    0    0  0.26941202110E+00 -0.73851450686E+00  0.19381813762E+01  0.20915385632E+01  0.00000000000E+00 0. -1.
<mgrwt>
<rscale>  0 0.77874500E+02</rscale>
<asrwt>0</asrwt>
<pdfrwt beam="1">  1        2 0.14281262E-01 0.77874500E+02</pdfrwt>
<pdfrwt beam="2">  1       -1 0.25126803E-02 0.77874500E+02</pdfrwt>
<totfact> 0.18664907E+05</totfact>
</mgrwt>
</event>
<event>
 8    1  0.1493610E-013  0.7632866E+02  0.7818608E-02  0.1339805E+00
          2   -1    0    0  501    0  0.00000000000E+00  0.00000000000E+00  0.36706726378E+03  0.36706726379E+03  0.25500000000E-02 0. -1.
         -1   -1    0    0    0  501 -0.00000000000E+00 -0.00000000000E+00 -0.39679802497E+01  0.39679834505E+01  0.50400000000E-02 0.  1.
         24    2    1    2    0    0  0.00000000000E+00  0.88817841970E-15  0.36309928353E+03  0.37103524724E+03  0.76328664299E+02 0.  0.
         66    2    3    3    0    0 -0.17685051478E+02  0.74733524664E+01  0.34185910191E+03  0.34240364717E+03  0.19999995298E+01 0.  0.
        -13    1    3    3    0    0  0.17685051478E+02 -0.74733524664E+01  0.21240181622E+02  0.28631600064E+02  0.10566000000E+00 0.  1.
         13    1    4    4    0    0 -0.11360691112E+02  0.42072029036E+01  0.22346094637E+03  0.22378912301E+03  0.10566000000E+00 0. -1.
        -13    1    4    4    0    0 -0.38004786675E+01  0.17451571183E+01  0.63943484878E+02  0.64080181288E+02  0.10566000000E+00 0.  1.
         14    1    4    4    0    0 -0.25238816985E+01  0.15209924446E+01  0.54454670657E+02  0.54534342879E+02  0.00000000000E+00 0. -1.
<mgrwt>
<rscale>  0 0.76328664E+02</rscale>
<asrwt>0</asrwt>
<pdfrwt beam="1">  1        2 0.56471894E-01 0.76328664E+02</pdfrwt>
<pdfrwt beam="2">  1       -1 0.61045867E-03 0.76328664E+02</pdfrwt>
<totfact> 0.30983630E+05</totfact>
</mgrwt>
</event>
<event>
 8    1  0.1493610E-013  0.7975866E+02  0.7818608E-02  0.1329738E+00
          2   -1    0    0  501    0  0.00000000000E+00  0.00000000000E+00  0.10662026496E+02  0.10662026801E+02  0.25500000000E-02 0. -1.
         -1   -1    0    0    0  501 -0.00000000000E+00 -0.00000000000E+00 -0.14916123953E+03  0.14916123961E+03  0.50400000000E-02 0.  1.
         24    2    1    2    0    0  0.00000000000E+00  0.00000000000E+00 -0.13849921303E+03  0.15982326641E+03  0.79758663959E+02 0.  0.
         66    2    3    3    0    0 -0.42525536717E+01 -0.36744838886E+02 -0.99020711674E+02  0.10572307574E+03  0.20000014687E+01 0.  0.
        -13    1    3    3    0    0  0.42525536717E+01  0.36744838886E+02 -0.39478501359E+02  0.54100190675E+02  0.10566000000E+00 0.  1.
         13    1    4    4    0    0 -0.28855424071E+01 -0.31066115327E+02 -0.83204290556E+02  0.88861662191E+02  0.10566000000E+00 0. -1.
        -13    1    4    4    0    0 -0.54109920704E+00 -0.23805464174E+01 -0.66539775207E+01  0.70884674280E+01  0.10566000000E+00 0.  1.
         14    1    4    4    0    0 -0.82591205750E+00 -0.32981771413E+01 -0.91624435977E+01  0.97729461199E+01  0.00000000000E+00 0. -1.
<mgrwt>
<rscale>  0 0.79758664E+02</rscale>
<asrwt>0</asrwt>
<pdfrwt beam="1">  1        2 0.16403119E-02 0.79758664E+02</pdfrwt>
<pdfrwt beam="2">  1       -1 0.22947882E-01 0.79758664E+02</pdfrwt>
<totfact> 0.10885458E+05</totfact>
</mgrwt>
</event>
<event>
 8    1  0.1493610E-013  0.7969266E+02  0.7818608E-02  0.1329926E+00
         -1   -1    0    0    0  501 -0.00000000000E+00  0.00000000000E+00  0.15642992746E+01  0.15643073938E+01  0.50400000000E-02 0.  1.
          2   -1    0    0  501    0  0.00000000000E+00 -0.00000000000E+00 -0.10149757325E+04  0.10149757325E+04  0.25500000000E-02 0. -1.
         24    2    1    2    0    0  0.00000000000E+00  0.00000000000E+00 -0.10134114332E+04  0.10165400399E+04  0.79692657890E+02 0.  0.
         66    2    3    3    0    0  0.28876530123E+01 -0.17073493340E+02 -0.96443515016E+03  0.96459266092E+03  0.19999841053E+01 0.  0.
        -13    1    3    3    0    0 -0.28876530123E+01  0.17073493340E+02 -0.48976283046E+02  0.51947378950E+02  0.10566000000E+00 0.  1.
         13    1    4    4    0    0  0.72738487391E+00 -0.58521247125E+01 -0.29806227758E+03  0.29812062815E+03  0.10566000000E+00 0. -1.
        -13    1    4    4    0    0  0.23193410349E+00 -0.25120423175E+00 -0.20270057294E+02  0.20273215919E+02  0.10566000000E+00 0. -1.
         14    1    4    4    0    0  0.19283340349E+01 -0.10970164395E+02 -0.64610281529E+03  0.64619881685E+03  0.00000000000E+00 0. -1.
<mgrwt>
<rscale>  0 0.79692658E+02</rscale>
<asrwt>0</asrwt>
<pdfrwt beam="1">  1        2 0.15614959E+00 0.79692658E+02</pdfrwt>
<pdfrwt beam="2">  1       -1 0.24066286E-03 0.79692658E+02</pdfrwt>
<totfact> 0.35604285E+05</totfact>
</mgrwt>
</event>
<event>
 8    1  0.1493610E-013  0.8040566E+02  0.7818608E-02  0.1327904E+00
          2   -1    0    0  501    0  0.00000000000E+00  0.00000000000E+00  0.45717850844E+02  0.45717850915E+02  0.25500000000E-02 0. -1.
         -1   -1    0    0    0  501 -0.00000000000E+00 -0.00000000000E+00 -0.35353096320E+02  0.35353096680E+02  0.50400000000E-02 0.  1.
         24    2    1    2    0    0  0.00000000000E+00  0.00000000000E+00  0.10364754523E+02  0.81070947594E+02  0.80405661539E+02 0.  0.
         66    2    3    3    0    0 -0.13738874386E+02 -0.37724841904E+02  0.36424643548E+01  0.40363199988E+02  0.20000001546E+01 0.  0.
        -13    1    3    3    0    0  0.13738874386E+02  0.37724841904E+02  0.67222901683E+01  0.40707747607E+02  0.10566000000E+00 0.  1.
         13    1    4    4    0    0 -0.66860677844E+01 -0.19305889466E+02  0.13212327147E+01  0.20473829402E+02  0.10566000000E+00 0. -1.
        -13    1    4    4    0    0 -0.57764044399E+01 -0.16099115378E+02  0.20871694916E+01  0.17231245014E+02  0.10566000000E+00 0.  1.
        -14    1    4    4    0    0 -0.12764021620E+01 -0.23198370601E+01  0.23406214854E+00  0.26581255715E+01  0.00000000000E+00 0.  1.
<mgrwt>
<rscale>  0 0.80405662E+02</rscale>
<asrwt>0</asrwt>
<pdfrwt beam="1">  1        2 0.70335155E-02 0.80405662E+02</pdfrwt>
<pdfrwt beam="2">  1       -1 0.54389379E-02 0.80405662E+02</pdfrwt>
<totfact> 0.14455802E+05</totfact>
</mgrwt>
</event>
<event>
 8    1  0.1493610E-013  0.8098563E+02  0.7818608E-02  0.1326277E+00
          2   -1    0    0  501    0  0.00000000000E+00  0.00000000000E+00  0.11113682781E+04  0.11113682782E+04  0.25500000000E-02 0. -1.
         -1   -1    0    0    0  501 -0.00000000000E+00 -0.00000000000E+00 -0.14753554280E+01  0.14753640367E+01  0.50400000000E-02 0.  1.
         24    2    1    2    0    0  0.00000000000E+00  0.00000000000E+00  0.11098929227E+04  0.11128436422E+04  0.80985628685E+02 0.  0.
         66    2    3    3    0    0  0.20952990587E+02 -0.20129224502E+02  0.94235070174E+03  0.94280064625E+03  0.19999999794E+01 0.  0.
        -13    1    3    3    0    0 -0.20952990587E+02  0.20129224502E+02  0.16754222098E+03  0.17004299594E+03  0.10566000000E+00 0.  1.
         13    1    4    4    0    0  0.16121946140E+02 -0.15595304370E+02  0.72819994036E+03  0.72854532801E+03  0.10566000000E+00 0. -1.
        -13    1    4    4    0    0  0.49890062773E+00 -0.90806784636E+00  0.31477764024E+02  0.31494988189E+02  0.10566000000E+00 0.  1.
         14    1    4    4    0    0  0.43321438188E+01 -0.36258522863E+01  0.18267299735E+03  0.18276033004E+03  0.00000000000E+00 0. -1.
<mgrwt>
<rscale>  0 0.80985629E+02</rscale>
<asrwt>0</asrwt>
<pdfrwt beam="1">  1        2 0.17098017E+00 0.80985629E+02</pdfrwt>
<pdfrwt beam="2">  1       -1 0.22697785E-03 0.80985629E+02</pdfrwt>
<totfact> 0.34135540E+05</totfact>
</mgrwt>
</event>
<event>
 8    1  0.1493610E-013  0.7976164E+02  0.7818608E-02  0.1329729E+00
         -1   -1    0    0    0  501 -0.00000000000E+00  0.00000000000E+00  0.22441153803E+01  0.22441210399E+01  0.50400000000E-02 0.  1.
          2   -1    0    0  501    0  0.00000000000E+00 -0.00000000000E+00 -0.70873268057E+03  0.70873268058E+03  0.25500000000E-02 0. -1.
         24    2    1    2    0    0 -0.71054273576E-14  0.71054273576E-14 -0.70648856519E+03  0.71097680162E+03  0.79761642976E+02 0.  0.
         66    2    3    3    0    0 -0.21883720050E+02  0.27129508709E+02 -0.52575013829E+03  0.52690807105E+03  0.19999973656E+01 0.  0.
        -13    1    3    3    0    0  0.21883720050E+02 -0.27129508709E+02 -0.18073842691E+03  0.18406873056E+03  0.10566000000E+00 0.  1.
         13    1    4    4    0    0 -0.13718479427E+02  0.17954175331E+02 -0.34302211862E+03  0.34376552200E+03  0.10566000000E+00 0. -1.
        -13    1    4    4    0    0 -0.58828742128E+01  0.67515242722E+01 -0.13871632059E+03  0.13900510800E+03  0.10566000000E+00 0.  1.
        -14    1    4    4    0    0 -0.22823664105E+01  0.24238091060E+01 -0.44011699077E+02  0.44137441052E+02  0.00000000000E+00 0.  1.
<mgrwt>
<rscale>  0 0.79761643E+02</rscale>
<asrwt>0</asrwt>
<pdfrwt beam="1">  1        2 0.10903562E+00 0.79761643E+02</pdfrwt>
<pdfrwt beam="2">  1       -1 0.34524952E-03 0.79761643E+02</pdfrwt>
<totfact> 0.33806930E+05</totfact>
</mgrwt>
</event>
<event>
 8    1  0.1493610E-013  0.8009657E+02  0.7818608E-02  0.1328778E+00
          2   -1    0    0  501    0  0.00000000000E+00  0.00000000000E+00  0.27904103988E+03  0.27904103989E+03  0.25500000000E-02 0. -1.
         -1   -1    0    0    0  501 -0.00000000000E+00 -0.00000000000E+00 -0.57477734741E+01  0.57477756838E+01  0.50400000000E-02 0.  1.
         24    2    1    2    0    0  0.00000000000E+00 -0.44408920985E-15  0.27329326641E+03  0.28478881558E+03  0.80096566806E+02 0.  0.
         66    2    3    3    0    0 -0.31393261662E+02  0.29422171986E+01  0.22437952768E+03  0.22659295214E+03  0.20000004808E+01 0.  0.
        -13    1    3    3    0    0  0.31393261662E+02 -0.29422171986E+01  0.48913738730E+02  0.58195863431E+02  0.10566000000E+00 0.  1.
         13    1    4    4    0    0 -0.18124502498E+02  0.16055483835E+01  0.12333250436E+03  0.12466753055E+03  0.10566000000E+00 0. -1.
        -13    1    4    4    0    0 -0.12704270710E+02  0.11447896449E+01  0.96430759762E+02  0.97270815920E+02  0.10566000000E+00 0.  1.
         14    1    4    4    0    0 -0.56448845472E+00  0.19187917019E+00  0.46162635525E+01  0.46546056780E+01  0.00000000000E+00 0. -1.
<mgrwt>
<rscale>  0 0.80096567E+02</rscale>
<asrwt>0</asrwt>
<pdfrwt beam="1">  1        2 0.42929389E-01 0.80096567E+02</pdfrwt>
<pdfrwt beam="2">  1       -1 0.88427304E-03 0.80096567E+02</pdfrwt>
<totfact> 0.24755789E+05</totfact>
</mgrwt>
</event>
<event>
 8    1  0.1493610E-013  0.7371773E+02  0.7818608E-02  0.1347888E+00
         -1   -1    0    0    0  501 -0.00000000000E+00  0.00000000000E+00  0.30737304370E+01  0.30737345690E+01  0.50400000000E-02 0.  1.
          2   -1    0    0  501    0  0.00000000000E+00 -0.00000000000E+00 -0.44199551914E+03  0.44199551915E+03  0.25500000000E-02 0. -1.
         24    2    1    2    0    0  0.00000000000E+00  0.35527136788E-14 -0.43892178870E+03  0.44506925372E+03  0.73717731961E+02 0.  0.
         66    2    3    3    0    0 -0.31904673350E+02 -0.15889594251E+02 -0.27567104403E+03  0.27797286181E+03  0.20000001481E+01 0.  0.
        -13    1    3    3    0    0  0.31904673350E+02  0.15889594251E+02 -0.16325074468E+03  0.16709639191E+03  0.10566000000E+00 0.  1.
         13    1    4    4    0    0 -0.52214607083E+01 -0.28518541434E+01 -0.41858244696E+02  0.42279079189E+02  0.10566000000E+00 0. -1.
        -13    1    4    4    0    0 -0.54570628715E+00 -0.24107986256E+00 -0.39856331318E+01  0.40314203885E+01  0.10566000000E+00 0.  1.
         14    1    4    4    0    0 -0.26137506354E+02 -0.12796660245E+02 -0.22982716620E+03  0.23166236223E+03  0.00000000000E+00 0. -1.
<mgrwt>
<rscale>  0 0.73717732E+02</rscale>
<asrwt>0</asrwt>
<pdfrwt beam="1">  1        2 0.67999260E-01 0.73717732E+02</pdfrwt>
<pdfrwt beam="2">  1       -1 0.47288228E-03 0.73717732E+02</pdfrwt>
<totfact> 0.36163955E+05</totfact>
</mgrwt>
</event>
<event>
 8    1  0.1493610E-013  0.7923528E+02  0.7818608E-02  0.1331236E+00
          2   -1    0    0  501    0  0.00000000000E+00  0.00000000000E+00  0.51557559348E+03  0.51557559348E+03  0.25500000000E-02 0. -1.
         -1   -1    0    0    0  501 -0.00000000000E+00 -0.00000000000E+00 -0.30442793782E+01  0.30442835502E+01  0.50400000000E-02 0.  1.
         24    2    1    2    0    0 -0.35527136788E-14 -0.17763568394E-14  0.51253131410E+03  0.51861987703E+03  0.79235275745E+02 0.  0.
         66    2    3    3    0    0  0.19629589958E+02  0.15211102601E+02  0.45825928536E+03  0.45893602066E+03  0.19999988179E+01 0.  0.
        -13    1    3    3    0    0 -0.19629589958E+02 -0.15211102601E+02  0.54272028736E+02  0.59683856372E+02  0.10566000000E+00 0.  1.
         13    1    4    4    0    0  0.35258010026E+01  0.31347044034E+01  0.76850160332E+02  0.76994908608E+02  0.10566000000E+00 0. -1.
        -13    1    4    4    0    0  0.70291893835E+01  0.46895164913E+01  0.15930117340E+03  0.15952515814E+03  0.10566000000E+00 0.  1.
         14    1    4    4    0    0  0.90745995715E+01  0.73868817066E+01  0.22210795163E+03  0.22241595392E+03  0.00000000000E+00 0. -1.
<mgrwt>
<rscale>  0 0.79235276E+02</rscale>
<asrwt>0</asrwt>
<pdfrwt beam="1">  1        2 0.79319323E-01 0.79235276E+02</pdfrwt>
<pdfrwt beam="2">  1       -1 0.46835099E-03 0.79235276E+02</pdfrwt>
<totfact> 0.31526578E+05</totfact>
</mgrwt>
</event>
<event>
 8    1  0.1493610E-013  0.7903173E+02  0.7818608E-02  0.1331822E+00
         -1   -1    0    0    0  501 -0.00000000000E+00  0.00000000000E+00  0.19267411958E+01  0.19267477876E+01  0.50400000000E-02 0.  1.
          2   -1    0    0  501    0  0.00000000000E+00 -0.00000000000E+00 -0.81043622890E+03  0.81043622891E+03  0.25500000000E-02 0. -1.
         24    2    1    2    0    0 -0.17763568394E-14  0.17763568394E-14 -0.80850948771E+03  0.81236297670E+03  0.79031729018E+02 0.  0.
         66    2    3    3    0    0  0.12223237786E+02 -0.15967283219E+02 -0.75386662986E+03  0.75413742601E+03  0.20000023670E+01 0.  0.
        -13    1    3    3    0    0 -0.12223237786E+02  0.15967283219E+02 -0.54642857848E+02  0.58225550691E+02  0.10566000000E+00 0.  1.
         13    1    4    4    0    0  0.60525249296E+00 -0.57271306658E+00 -0.23901275160E+02  0.23916029126E+02  0.10566000000E+00 0. -1.
        -13    1    4    4    0    0  0.86474860640E+00 -0.14473577784E+01 -0.77463197342E+02  0.77481615504E+02  0.10566000000E+00 0.  1.
         14    1    4    4    0    0  0.10753236687E+02 -0.13947212374E+02 -0.65250215736E+03  0.65273978138E+03  0.00000000000E+00 0. -1.
<mgrwt>
<rscale>  0 0.79031729E+02</rscale>
<asrwt>0</asrwt>
<pdfrwt beam="1">  1        2 0.12468223E+00 0.79031729E+02</pdfrwt>
<pdfrwt beam="2">  1       -1 0.29642288E-03 0.79031729E+02</pdfrwt>
<totfact> 0.35547250E+05</totfact>
</mgrwt>
</event>
<event>
 8    1  0.1493610E-013  0.7805402E+02  0.7818608E-02  0.1334666E+00
         -1   -1    0    0    0  501 -0.00000000000E+00  0.00000000000E+00  0.64566891501E+01  0.64566911171E+01  0.50400000000E-02 0.  1.
          2   -1    0    0  501    0  0.00000000000E+00 -0.00000000000E+00 -0.23589602840E+03  0.23589602841E+03  0.25500000000E-02 0. -1.
         24    2    1    2    0    0  0.00000000000E+00  0.35527136788E-14 -0.22943933925E+03  0.24235271953E+03  0.78054021476E+02 0.  0.
         66    2    3    3    0    0 -0.24003772963E+02 -0.28082168654E+02 -0.75975218166E+02  0.84504574351E+02  0.19999995004E+01 0.  0.
        -13    1    3    3    0    0  0.24003772963E+02  0.28082168654E+02 -0.15346412108E+03  0.15784814518E+03  0.10566000000E+00 0.  1.
         13    1    4    4    0    0 -0.11732918769E+02 -0.13406157805E+02 -0.36210712858E+02  0.40356081817E+02  0.10566000000E+00 0. -1.
        -13    1    4    4    0    0 -0.11225739899E+01 -0.20030727585E+01 -0.45255298339E+01  0.50758306859E+01  0.10566000000E+00 0.  1.
        -14    1    4    4    0    0 -0.11148280204E+02 -0.12672938090E+02 -0.35238975475E+02  0.39072661848E+02  0.00000000000E+00 0.  1.
<mgrwt>
<rscale>  0 0.78054021E+02</rscale>
<asrwt>0</asrwt>
<pdfrwt beam="1">  1        2 0.36291690E-01 0.78054021E+02</pdfrwt>
<pdfrwt beam="2">  1       -1 0.99333713E-03 0.78054021E+02</pdfrwt>
<totfact> 0.24941427E+05</totfact>
</mgrwt>
</event>
<event>
 8    1  0.1493610E-013  0.8305851E+02  0.7818608E-02  0.1320589E+00
         -1   -1    0    0    0  501 -0.00000000000E+00  0.00000000000E+00  0.24208655279E+01  0.24208707743E+01  0.50400000000E-02 0.  1.
          2   -1    0    0  501    0  0.00000000000E+00 -0.00000000000E+00 -0.71242177099E+03  0.71242177100E+03  0.25500000000E-02 0. -1.
         24    2    1    2    0    0  0.00000000000E+00  0.00000000000E+00 -0.71000090546E+03  0.71484264177E+03  0.83058513917E+02 0.  0.
         66    2    3    3    0    0  0.99471078362E+01  0.17387218604E+02 -0.66806260285E+03  0.66836584417E+03  0.20000001594E+01 0.  0.
        -13    1    3    3    0    0 -0.99471078362E+01 -0.17387218604E+02 -0.41938302614E+02  0.46476797601E+02  0.10566000000E+00 0.  1.
         13    1    4    4    0    0  0.14520985328E+01  0.20214679719E+01 -0.84113741389E+02  0.84150624343E+02  0.10566000000E+00 0. -1.
        -13    1    4    4    0    0  0.55093442679E+01  0.11196944214E+02 -0.39736278280E+03  0.39755869598E+03  0.10566000000E+00 0.  1.
        -14    1    4    4    0    0  0.29856650355E+01  0.41688064182E+01 -0.18658607866E+03  0.18665652384E+03  0.00000000000E+00 0.  1.
<mgrwt>
<rscale>  0 0.83058514E+02</rscale>
<asrwt>0</asrwt>
<pdfrwt beam="1">  1        2 0.10960318E+00 0.83058514E+02</pdfrwt>
<pdfrwt beam="2">  1       -1 0.37244182E-03 0.83058514E+02</pdfrwt>
<totfact> 0.30458558E+05</totfact>
</mgrwt>
</event>
<event>
 8    1  0.1493610E-013  0.8050123E+02  0.7818608E-02  0.1327635E+00
         -1   -1    0    0    0  501 -0.00000000000E+00  0.00000000000E+00  0.28810340221E+02  0.28810340662E+02  0.50400000000E-02 0.  1.
          2   -1    0    0  501    0  0.00000000000E+00 -0.00000000000E+00 -0.56233703488E+02  0.56233703546E+02  0.25500000000E-02 0. -1.
         24    2    1    2    0    0  0.00000000000E+00  0.22204460493E-15 -0.27423363267E+02  0.85044044208E+02  0.80501233545E+02 0.  0.
         66    2    3    3    0    0 -0.37423848167E+02 -0.10398556779E+01 -0.29263725893E+02  0.47560396972E+02  0.19999988701E+01 0.  0.
        -13    1    3    3    0    0  0.37423848167E+02  0.10398556779E+01  0.18403626261E+01  0.37483647236E+02  0.10566000000E+00 0.  1.
         13    1    4    4    0    0 -0.11271444981E+02 -0.84425151164E+00 -0.81744066476E+01  0.13949563457E+02  0.10566000000E+00 0. -1.
        -13    1    4    4    0    0 -0.13375401587E+02  0.36934147263E+00 -0.10909366489E+02  0.17264507580E+02  0.10566000000E+00 0.  1.
         14    1    4    4    0    0 -0.12777001600E+02 -0.56494563885E+00 -0.10179952756E+02  0.16346325935E+02  0.00000000000E+00 0. -1.
<mgrwt>
<rscale>  0 0.80501234E+02</rscale>
<asrwt>0</asrwt>
<pdfrwt beam="1">  1        2 0.86513390E-02 0.80501234E+02</pdfrwt>
<pdfrwt beam="2">  1       -1 0.44323601E-02 0.80501234E+02</pdfrwt>
<totfact> 0.15078206E+05</totfact>
</mgrwt>
</event>
<event>
 8    1  0.1493610E-013  0.9004557E+02  0.7818608E-02  0.1302741E+00
          2   -1    0    0  501    0  0.00000000000E+00  0.00000000000E+00  0.19290591909E+04  0.19290591909E+04  0.25500000000E-02 0. -1.
         -1   -1    0    0    0  501 -0.00000000000E+00 -0.00000000000E+00 -0.10507918347E+01  0.10508039216E+01  0.50400000000E-02 0.  1.
         24    2    1    2    0    0 -0.35527136788E-14 -0.88817841970E-15  0.19280083990E+04  0.19301099948E+04  0.90045573185E+02 0.  0.
         66    2    3    3    0    0  0.21647477076E+02  0.71533748771E+01  0.17961000567E+04  0.17962458622E+04  0.19999979455E+01 0.  0.
        -13    1    3    3    0    0 -0.21647477076E+02 -0.71533748771E+01  0.13190834237E+03  0.13386413256E+03  0.10566000000E+00 0.  1.
         13    1    4    4    0    0  0.32367704956E+01  0.49947796515E+00  0.28909363673E+03  0.28911220681E+03  0.10566000000E+00 0. -1.
        -13    1    4    4    0    0  0.14263088739E+01  0.58450303550E+00  0.11326372595E+03  0.11327426354E+03  0.10566000000E+00 0.  1.
         14    1    4    4    0    0  0.16984397707E+02  0.60693938765E+01  0.13937426940E+04  0.13938593919E+04  0.00000000000E+00 0. -1.
<mgrwt>
<rscale>  0 0.90045573E+02</rscale>
<asrwt>0</asrwt>
<pdfrwt beam="1">  1        2 0.29677629E+00 0.90045573E+02</pdfrwt>
<pdfrwt beam="2">  1       -1 0.16166233E-03 0.90045573E+02</pdfrwt>
<totfact> 0.21016072E+05</totfact>
</mgrwt>
</event>
<event>
 8    1  0.1493610E-013  0.7958685E+02  0.7818608E-02  0.1330228E+00
         -1   -1    0    0    0  501 -0.00000000000E+00  0.00000000000E+00  0.22388006666E+01  0.22388063396E+01  0.50400000000E-02 0.  1.
          2   -1    0    0  501    0  0.00000000000E+00 -0.00000000000E+00 -0.70730481866E+03  0.70730481867E+03  0.25500000000E-02 0. -1.
         24    2    1    2    0    0  0.00000000000E+00  0.35527136788E-14 -0.70506601800E+03  0.70954362501E+03  0.79586845992E+02 0.  0.
         66    2    3    3    0    0 -0.24569176624E+02 -0.20821665735E+02 -0.56075681304E+03  0.56168442170E+03  0.20000008664E+01 0.  0.
        -13    1    3    3    0    0  0.24569176624E+02  0.20821665735E+02 -0.14430920495E+03  0.14785920330E+03  0.10566000000E+00 0.  1.
         13    1    4    4    0    0 -0.18721048709E+02 -0.15595366108E+02 -0.41784044211E+03  0.41855028292E+03  0.10566000000E+00 0. -1.
        -13    1    4    4    0    0 -0.10559515669E+01 -0.57061460606E+00 -0.19853616720E+02  0.19890145691E+02  0.10566000000E+00 0.  1.
        -14    1    4    4    0    0 -0.47921763489E+01 -0.46556850213E+01 -0.12306275421E+03  0.12324399309E+03  0.00000000000E+00 0.  1.
<mgrwt>
<rscale>  0 0.79586846E+02</rscale>
<asrwt>0</asrwt>
<pdfrwt beam="1">  1        2 0.10881595E+00 0.79586846E+02</pdfrwt>
<pdfrwt beam="2">  1       -1 0.34443187E-03 0.79586846E+02</pdfrwt>
<totfact> 0.33984801E+05</totfact>
</mgrwt>
</event>
<event>
 8    1  0.1493610E-013  0.7976310E+02  0.7818608E-02  0.1329725E+00
         -1   -1    0    0    0  501 -0.00000000000E+00  0.00000000000E+00  0.22904030792E+01  0.22904086244E+01  0.50400000000E-02 0.  1.
          2   -1    0    0  501    0  0.00000000000E+00 -0.00000000000E+00 -0.69443506507E+03  0.69443506507E+03  0.25500000000E-02 0. -1.
         24    2    1    2    0    0  0.00000000000E+00  0.00000000000E+00 -0.69214466199E+03  0.69672547370E+03  0.79763102866E+02 0.  0.
         66    2    3    3    0    0 -0.29066993576E+02  0.22874795568E+02 -0.47596316580E+03  0.47740243149E+03  0.19999997966E+01 0.  0.
        -13    1    3    3    0    0  0.29066993576E+02 -0.22874795568E+02 -0.21618149619E+03  0.21932304221E+03  0.10566000000E+00 0.  1.
         13    1    4    4    0    0 -0.91020028628E+01  0.68932020370E+01 -0.14949796250E+03  0.14993336735E+03  0.10566000000E+00 0. -1.
        -13    1    4    4    0    0 -0.10225454501E+02  0.88019896646E+01 -0.16429098742E+03  0.16484409195E+03  0.10566000000E+00 0.  1.
        -14    1    4    4    0    0 -0.97395362119E+01  0.71796038662E+01 -0.16217421589E+03  0.16262497218E+03  0.00000000000E+00 0.  1.
<mgrwt>
<rscale>  0 0.79763103E+02</rscale>
<asrwt>0</asrwt>
<pdfrwt beam="1">  1        2 0.10683600E+00 0.79763103E+02</pdfrwt>
<pdfrwt beam="2">  1       -1 0.35237068E-03 0.79763103E+02</pdfrwt>
<totfact> 0.33648637E+05</totfact>
</mgrwt>
</event>
<event>
 8    1  0.1493610E-013  0.8041719E+02  0.7818608E-02  0.1327872E+00
         -1   -1    0    0    0  501 -0.00000000000E+00  0.00000000000E+00  0.75690820202E+01  0.75690836981E+01  0.50400000000E-02 0.  1.
          2   -1    0    0  501    0  0.00000000000E+00 -0.00000000000E+00 -0.21359667988E+03  0.21359667990E+03  0.25500000000E-02 0. -1.
         24    2    1    2    0    0  0.00000000000E+00  0.00000000000E+00 -0.20602759786E+03  0.22116576360E+03  0.80417186633E+02 0.  0.
         66    2    3    3    0    0  0.36121047205E+02 -0.16260962942E+02 -0.12164435417E+03  0.12794724641E+03  0.19999986324E+01 0.  0.
        -13    1    3    3    0    0 -0.36121047205E+02  0.16260962942E+02 -0.84383243693E+02  0.93218517190E+02  0.10566000000E+00 0.  1.
         13    1    4    4    0    0  0.10525794226E+02 -0.44536504611E+01 -0.33522555559E+02  0.35417513206E+02  0.10566000000E+00 0. -1.
        -13    1    4    4    0    0  0.68033172885E+01 -0.25297102545E+01 -0.22163137104E+02  0.23321671690E+02  0.10566000000E+00 0.  1.
         14    1    4    4    0    0  0.18791935691E+02 -0.92776022260E+01 -0.65958661508E+02  0.69208061511E+02  0.00000000000E+00 0. -1.
<mgrwt>
<rscale>  0 0.80417187E+02</rscale>
<asrwt>0</asrwt>
<pdfrwt beam="1">  1        2 0.32861023E-01 0.80417187E+02</pdfrwt>
<pdfrwt beam="2">  1       -1 0.11644745E-02 0.80417187E+02</pdfrwt>
<totfact> 0.22263852E+05</totfact>
</mgrwt>
</event>
<event>
 8    1  0.1493610E-013  0.7682352E+02  0.7818608E-02  0.1338315E+00
          2   -1    0    0  501    0  0.00000000000E+00  0.00000000000E+00  0.10102710397E+04  0.10102710397E+04  0.25500000000E-02 0. -1.
         -1   -1    0    0    0  501 -0.00000000000E+00 -0.00000000000E+00 -0.14604586655E+01  0.14604673619E+01  0.50400000000E-02 0.  1.
         24    2    1    2    0    0  0.00000000000E+00  0.00000000000E+00  0.10088105811E+04  0.10117315071E+04  0.76823524921E+02 0.  0.
         66    2    3    3    0    0 -0.21355109429E+02 -0.31733009546E+01  0.92273131691E+03  0.92298602035E+03  0.20000006179E+01 0.  0.
        -13    1    3    3    0    0  0.21355109429E+02  0.31733009546E+01  0.86079264163E+02  0.88745486762E+02  0.10566000000E+00 0.  1.
         13    1    4    4    0    0 -0.81547734751E+01 -0.94863391467E+00  0.31736531934E+03  0.31747150631E+03  0.10566000000E+00 0. -1.
        -13    1    4    4    0    0 -0.77492470092E+01 -0.16077753631E+01  0.34631515467E+03  0.34640559073E+03  0.10566000000E+00 0.  1.
         14    1    4    4    0    0 -0.54510889450E+01 -0.61689167685E+00  0.25905084290E+03  0.25910892330E+03  0.00000000000E+00 0. -1.
<mgrwt>
<rscale>  0 0.76823525E+02</rscale>
<asrwt>0</asrwt>
<pdfrwt beam="1">  1        2 0.15542735E+00 0.76823525E+02</pdfrwt>
<pdfrwt beam="2">  1       -1 0.22468512E-03 0.76823525E+02</pdfrwt>
<totfact> 0.39145583E+05</totfact>
</mgrwt>
</event>
<event>
 8    1  0.1493610E-013  0.7774342E+02  0.7818608E-02  0.1335580E+00
         -1   -1    0    0    0  501 -0.00000000000E+00  0.00000000000E+00  0.15122780638E+03  0.15122780646E+03  0.50400000000E-02 0.  1.
          2   -1    0    0  501    0  0.00000000000E+00 -0.00000000000E+00 -0.99916124618E+01  0.99916127872E+01  0.25500000000E-02 0. -1.
         24    2    1    2    0    0  0.00000000000E+00  0.00000000000E+00  0.14123619391E+03  0.16121941925E+03  0.77743415612E+02 0.  0.
         66    2    3    3    0    0 -0.54609840880E+01 -0.29629341515E+02  0.19814375660E+02  0.36115505088E+02  0.19999997920E+01 0.  0.
        -13    1    3    3    0    0  0.54609840880E+01  0.29629341515E+02  0.12142181825E+03  0.12510391416E+03  0.10566000000E+00 0.  1.
         13    1    4    4    0    0 -0.21747986625E+01 -0.15309206725E+02  0.10446726722E+02  0.18661372485E+02  0.10566000000E+00 0. -1.
        -13    1    4    4    0    0 -0.10163840405E+01 -0.43209866262E+01  0.33806104493E+01  0.55806498713E+01  0.10566000000E+00 0. -1.
         14    1    4    4    0    0 -0.22698013851E+01 -0.99991481629E+01  0.59870384887E+01  0.11873482732E+02  0.00000000000E+00 0. -1.
<mgrwt>
<rscale>  0 0.77743416E+02</rscale>
<asrwt>0</asrwt>
<pdfrwt beam="1">  1        2 0.15371712E-02 0.77743416E+02</pdfrwt>
<pdfrwt beam="2">  1       -1 0.23265817E-01 0.77743416E+02</pdfrwt>
<totfact> 0.11572058E+05</totfact>
</mgrwt>
</event>
<event>
 8    1  0.1493610E-013  0.7915700E+02  0.7818608E-02  0.1331461E+00
          2   -1    0    0  501    0  0.00000000000E+00  0.00000000000E+00  0.94324636895E+02  0.94324636929E+02  0.25500000000E-02 0. -1.
         -1   -1    0    0    0  501 -0.00000000000E+00 -0.00000000000E+00 -0.16607087007E+02  0.16607087772E+02  0.50400000000E-02 0.  1.
         24    2    1    2    0    0 -0.71054273576E-14  0.00000000000E+00  0.77717549888E+02  0.11093172470E+03  0.79156995803E+02 0.  0.
         66    2    3    3    0    0  0.35208914581E+02 -0.15716466702E+02  0.26524220041E+02  0.46842387238E+02  0.20000004488E+01 0.  0.
        -13    1    3    3    0    0 -0.35208914581E+02  0.15716466702E+02  0.51193329847E+02  0.64089337463E+02  0.10566000000E+00 0.  1.
         13    1    4    4    0    0  0.15600424518E+02 -0.70670026347E+01  0.11656540270E+02  0.20717187706E+02  0.10566000000E+00 0. -1.
        -13    1    4    4    0    0  0.18785529568E+02 -0.79477860087E+01  0.14207186652E+02  0.24857971361E+02  0.10566000000E+00 0.  1.
        -14    1    4    4    0    0  0.82296049530E+00 -0.70167805892E+00  0.66049311941E+00  0.12672281704E+01  0.00000000000E+00 0.  1.
<mgrwt>
<rscale>  0 0.79156996E+02</rscale>
<asrwt>0</asrwt>
<pdfrwt beam="1">  1        2 0.14511483E-01 0.79156996E+02</pdfrwt>
<pdfrwt beam="2">  1       -1 0.25549366E-02 0.79156996E+02</pdfrwt>
<totfact> 0.17943946E+05</totfact>
</mgrwt>
</event>
<event>
 8    1  0.1493610E-013  0.7519829E+02  0.7818608E-02  0.1343258E+00
         -1   -1    0    0    0  501 -0.00000000000E+00  0.00000000000E+00  0.27592611157E+02  0.27592611618E+02  0.50400000000E-02 0.  1.
          2   -1    0    0  501    0  0.00000000000E+00 -0.00000000000E+00 -0.51234570371E+02  0.51234570434E+02  0.25500000000E-02 0. -1.
         24    2    1    2    0    0 -0.88817841970E-15  0.17763568394E-14 -0.23641959213E+02  0.78827182052E+02  0.75198287180E+02 0.  0.
         66    2    3    3    0    0 -0.75382855444E+01 -0.10750100825E+02 -0.48731864105E+02  0.50509256488E+02  0.19999987938E+01 0.  0.
        -13    1    3    3    0    0  0.75382855444E+01  0.10750100825E+02  0.25089904892E+02  0.28317925563E+02  0.10566000000E+00 0.  1.
         13    1    4    4    0    0 -0.17525653704E+01 -0.31084212205E+01 -0.12444396182E+02  0.12946348066E+02  0.10566000000E+00 0. -1.
        -13    1    4    4    0    0 -0.18028809124E+01 -0.35450082207E+01 -0.13945292030E+02  0.14501717026E+02  0.10566000000E+00 0.  1.
        -14    1    4    4    0    0 -0.39828392616E+01 -0.40966713841E+01 -0.22342175893E+02  0.23061191397E+02  0.00000000000E+00 0.  1.
<mgrwt>
<rscale>  0 0.75198287E+02</rscale>
<asrwt>0</asrwt>
<pdfrwt beam="1">  1        2 0.78822416E-02 0.75198287E+02</pdfrwt>
<pdfrwt beam="2">  1       -1 0.42450172E-02 0.75198287E+02</pdfrwt>
<totfact> 0.17782503E+05</totfact>
</mgrwt>
</event>
<event>
 8    1  0.1493610E-013  0.7890955E+02  0.7818608E-02  0.1332175E+00
          2   -1    0    0  501    0  0.00000000000E+00  0.00000000000E+00  0.66462084354E+03  0.66462084354E+03  0.25500000000E-02 0. -1.
         -1   -1    0    0    0  501 -0.00000000000E+00 -0.00000000000E+00 -0.23422037235E+01  0.23422091461E+01  0.50400000000E-02 0.  1.
         24    2    1    2    0    0  0.00000000000E+00  0.00000000000E+00  0.66227863981E+03  0.66696305269E+03  0.78909548837E+02 0.  0.
         66    2    3    3    0    0 -0.53207615178E+01  0.20909387492E+02  0.61029627708E+03  0.61068081581E+03  0.19999985861E+01 0.  0.
        -13    1    3    3    0    0  0.53207615178E+01 -0.20909387492E+02  0.51982362736E+02  0.56282236879E+02  0.10566000000E+00 0.  1.
         13    1    4    4    0    0 -0.15352562053E+01  0.81696747226E+01  0.23080315204E+03  0.23095282365E+03  0.10566000000E+00 0. -1.
        -13    1    4    4    0    0 -0.76484195594E+00  0.17883190197E+01  0.67535264530E+02  0.67563349439E+02  0.10566000000E+00 0.  1.
         14    1    4    4    0    0 -0.30206633566E+01  0.10951393750E+02  0.31195786051E+03  0.31216464272E+03  0.00000000000E+00 0. -1.
<mgrwt>
<rscale>  0 0.78909549E+02</rscale>
<asrwt>0</asrwt>
<pdfrwt beam="1">  1        2 0.10224951E+00 0.78909549E+02</pdfrwt>
<pdfrwt beam="2">  1       -1 0.36033892E-03 0.78909549E+02</pdfrwt>
<totfact> 0.34240772E+05</totfact>
</mgrwt>
</event>
<event>
 8    1  0.1493610E-013  0.8098461E+02  0.7818608E-02  0.1326280E+00
         -1   -1    0    0    0  501 -0.00000000000E+00  0.00000000000E+00  0.24695980339E+01  0.24696031768E+01  0.50400000000E-02 0.  1.
          2   -1    0    0  501    0  0.00000000000E+00 -0.00000000000E+00 -0.66392381328E+03  0.66392381328E+03  0.25500000000E-02 0. -1.
         24    2    1    2    0    0  0.17763568394E-14  0.00000000000E+00 -0.66145421525E+03  0.66639341646E+03  0.80984607406E+02 0.  0.
         66    2    3    3    0    0 -0.80470887121E+01 -0.25826654732E+02 -0.57858852772E+03  0.57922401205E+03  0.20000002117E+01 0.  0.
        -13    1    3    3    0    0  0.80470887121E+01  0.25826654732E+02 -0.82865687528E+02  0.87169404408E+02  0.10566000000E+00 0.  1.
         13    1    4    4    0    0 -0.28755304393E+01 -0.91931052879E+01 -0.20655072181E+03  0.20677522507E+03  0.10566000000E+00 0. -1.
        -13    1    4    4    0    0 -0.35750896530E+01 -0.11106241817E+02 -0.26441656316E+03  0.26467387462E+03  0.10566000000E+00 0.  1.
        -14    1    4    4    0    0 -0.15964686198E+01 -0.55273076271E+01 -0.10762124275E+03  0.10777491235E+03  0.00000000000E+00 0.  1.
<mgrwt>
<rscale>  0 0.80984607E+02</rscale>
<asrwt>0</asrwt>
<pdfrwt beam="1">  1        2 0.10214198E+00 0.80984607E+02</pdfrwt>
<pdfrwt beam="2">  1       -1 0.37993909E-03 0.80984607E+02</pdfrwt>
<totfact> 0.31997745E+05</totfact>
</mgrwt>
</event>
<event>
 8    1  0.1493610E-013  0.8148616E+02  0.7818608E-02  0.1324886E+00
         -1   -1    0    0    0  501 -0.00000000000E+00  0.00000000000E+00  0.65056460701E+02  0.65056460896E+02  0.50400000000E-02 0.  1.
          2   -1    0    0  501    0  0.00000000000E+00 -0.00000000000E+00 -0.25516275395E+02  0.25516275523E+02  0.25500000000E-02 0. -1.
         24    2    1    2    0    0  0.00000000000E+00 -0.88817841970E-15  0.39540185305E+02  0.90572736418E+02  0.81486160348E+02 0.  0.
         66    2    3    3    0    0  0.37143013427E+02 -0.58028375781E+01  0.23941182412E+01  0.37722780574E+02  0.20000004345E+01 0.  0.
        -13    1    3    3    0    0 -0.37143013427E+02  0.58028375781E+01  0.37146067064E+02  0.52849955844E+02  0.10566000000E+00 0.  1.
         13    1    4    4    0    0  0.13114777119E+02 -0.21439452414E+01  0.10258990503E+01  0.13328822640E+02  0.10566000000E+00 0. -1.
        -13    1    4    4    0    0  0.22576916907E+02 -0.35659060141E+01  0.16348357900E+01  0.22915425259E+02  0.10566000000E+00 0.  1.
        -14    1    4    4    0    0  0.14513194014E+01 -0.92986322628E-01 -0.26661659914E+00  0.14785326753E+01  0.00000000000E+00 0.  1.
<mgrwt>
<rscale>  0 0.81486160E+02</rscale>
<asrwt>0</asrwt>
<pdfrwt beam="1">  1        2 0.39255809E-02 0.81486160E+02</pdfrwt>
<pdfrwt beam="2">  1       -1 0.10008686E-01 0.81486160E+02</pdfrwt>
<totfact> 0.12370616E+05</totfact>
</mgrwt>
</event>
<event>
 8    1  0.1493610E-013  0.7961795E+02  0.7818608E-02  0.1330139E+00
         -1   -1    0    0    0  501 -0.00000000000E+00  0.00000000000E+00  0.13599496545E+03  0.13599496554E+03  0.50400000000E-02 0.  1.
          2   -1    0    0  501    0  0.00000000000E+00 -0.00000000000E+00 -0.11653037131E+02  0.11653037410E+02  0.25500000000E-02 0. -1.
         24    2    1    2    0    0  0.00000000000E+00  0.00000000000E+00  0.12434192832E+03  0.14764800295E+03  0.79617947966E+02 0.  0.
         66    2    3    3    0    0 -0.97170263318E+01 -0.33121331346E+02  0.25526227753E+02  0.42977104261E+02  0.19999991321E+01 0.  0.
        -13    1    3    3    0    0  0.97170263318E+01  0.33121331346E+02  0.98815700566E+02  0.10467089869E+03  0.10566000000E+00 0.  1.
         13    1    4    4    0    0 -0.28364125040E+00 -0.87547278903E+00  0.87522470099E+00  0.12743968283E+01  0.10566000000E+00 0.  1.
        -13    1    4    4    0    0 -0.49458740812E+01 -0.17527596611E+02  0.12379671371E+02  0.22021483617E+02  0.10566000000E+00 0.  1.
         14    1    4    4    0    0 -0.44875110001E+01 -0.14718261946E+02  0.12271331681E+02  0.19681223816E+02  0.00000000000E+00 0. -1.
<mgrwt>
<rscale>  0 0.79617948E+02</rscale>
<asrwt>0</asrwt>
<pdfrwt beam="1">  1        2 0.17927750E-02 0.79617948E+02</pdfrwt>
<pdfrwt beam="2">  1       -1 0.20922302E-01 0.79617948E+02</pdfrwt>
<totfact> 0.11187573E+05</totfact>
</mgrwt>
</event>
<event>
 8    1  0.1493610E-013  0.8149025E+02  0.7818608E-02  0.1324875E+00
          2   -1    0    0  501    0  0.00000000000E+00  0.00000000000E+00  0.44426259939E+03  0.44426259940E+03  0.25500000000E-02 0. -1.
         -1   -1    0    0    0  501 -0.00000000000E+00 -0.00000000000E+00 -0.37368993038E+01  0.37369027026E+01  0.50400000000E-02 0.  1.
         24    2    1    2    0    0  0.00000000000E+00  0.00000000000E+00  0.44052570009E+03  0.44799950210E+03  0.81490253683E+02 0.  0.
         66    2    3    3    0    0  0.30617946107E+02 -0.26750798082E+02  0.20798406048E+03  0.21193025562E+03  0.20000022180E+01 0.  0.
        -13    1    3    3    0    0 -0.30617946107E+02  0.26750798082E+02  0.23254163960E+03  0.23606924648E+03  0.10566000000E+00 0.  1.
         13    1    4    4    0    0  0.10944440007E+02 -0.93687056480E+01  0.77462530568E+02  0.78790914569E+02  0.10566000000E+00 0.  1.
        -13    1    4    4    0    0  0.29760459435E+01 -0.22034488111E+01  0.17831788494E+02  0.18212519899E+02  0.10566000000E+00 0. -1.
        -14    1    4    4    0    0  0.16697460157E+02 -0.15178643623E+02  0.11268974142E+03  0.11492682115E+03  0.00000000000E+00 0.  1.
<mgrwt>
<rscale>  0 0.81490254E+02</rscale>
<asrwt>0</asrwt>
<pdfrwt beam="1">  1        2 0.68348104E-01 0.81490254E+02</pdfrwt>
<pdfrwt beam="2">  1       -1 0.57490775E-03 0.81490254E+02</pdfrwt>
<totfact> 0.27913306E+05</totfact>
</mgrwt>
</event>
<event>
 8    1  0.1493610E-013  0.7972533E+02  0.7818608E-02  0.1329833E+00
         -1   -1    0    0    0  501 -0.00000000000E+00  0.00000000000E+00  0.31673038779E+01  0.31673078879E+01  0.50400000000E-02 0.  1.
          2   -1    0    0  501    0  0.00000000000E+00 -0.00000000000E+00 -0.50169832035E+03  0.50169832036E+03  0.25500000000E-02 0. -1.
         24    2    1    2    0    0  0.00000000000E+00 -0.35527136788E-14 -0.49853101647E+03  0.50486562824E+03  0.79725329713E+02 0.  0.
         66    2    3    3    0    0 -0.81763308582E+01 -0.29247094090E+02 -0.41269674009E+03  0.41381740441E+03  0.20000011954E+01 0.  0.
        -13    1    3    3    0    0  0.81763308582E+01  0.29247094090E+02 -0.85834276376E+02  0.91048223838E+02  0.10566000000E+00 0.  1.
         13    1    4    4    0    0 -0.11361192120E+01 -0.40605723921E+01 -0.52426201324E+02  0.52595596435E+02  0.10566000000E+00 0. -1.
        -13    1    4    4    0    0 -0.15789393260E+01 -0.64087887598E+01 -0.82430499930E+02  0.82694401899E+02  0.10566000000E+00 0.  1.
         14    1    4    4    0    0 -0.54612723201E+01 -0.18777732938E+02 -0.27784003884E+03  0.27852740607E+03  0.00000000000E+00 0. -1.
<mgrwt>
<rscale>  0 0.79725330E+02</rscale>
<asrwt>0</asrwt>
<pdfrwt beam="1">  1        2 0.77184294E-01 0.79725330E+02</pdfrwt>
<pdfrwt beam="2">  1       -1 0.48727823E-03 0.79725330E+02</pdfrwt>
<totfact> 0.30758640E+05</totfact>
</mgrwt>
</event>
<event>
 8    1  0.1493610E-013  0.8032941E+02  0.7818608E-02  0.1328119E+00
          2   -1    0    0  501    0  0.00000000000E+00  0.00000000000E+00  0.19367782204E+03  0.19367782205E+03  0.25500000000E-02 0. -1.
         -1   -1    0    0    0  501 -0.00000000000E+00 -0.00000000000E+00 -0.83293148089E+01  0.83293163337E+01  0.50400000000E-02 0.  1.
         24    2    1    2    0    0  0.00000000000E+00  0.00000000000E+00  0.18534850723E+03  0.20200713839E+03  0.80329414462E+02 0.  0.
         66    2    3    3    0    0 -0.40047540633E+02  0.27188495922E+01  0.92648563895E+02  0.10098987099E+03  0.19999993776E+01 0.  0.
        -13    1    3    3    0    0  0.40047540633E+02 -0.27188495922E+01  0.92699943333E+02  0.10101726739E+03  0.10566000000E+00 0.  1.
         13    1    4    4    0    0 -0.35430272301E+02  0.25124021515E+01  0.81660967829E+02  0.89051340196E+02  0.10566000000E+00 0. -1.
        -13    1    4    4    0    0 -0.13503547156E+01 -0.22640789864E+00  0.31575180298E+01  0.34432256009E+01  0.10566000000E+00 0.  1.
        -14    1    4    4    0    0 -0.32669136168E+01  0.43285533938E+00  0.78300780364E+01  0.84953051965E+01  0.00000000000E+00 0.  1.
<mgrwt>
<rscale>  0 0.80329414E+02</rscale>
<asrwt>0</asrwt>
<pdfrwt beam="1">  1        2 0.29796588E-01 0.80329414E+02</pdfrwt>
<pdfrwt beam="2">  1       -1 0.12814332E-02 0.80329414E+02</pdfrwt>
<totfact> 0.21579190E+05</totfact>
</mgrwt>
</event>
<event>
 8    1  0.1493610E-013  0.7478781E+02  0.7818608E-02  0.1344529E+00
         -1   -1    0    0    0  501 -0.00000000000E+00  0.00000000000E+00  0.96616792961E+02  0.96616793092E+02  0.50400000000E-02 0.  1.
          2   -1    0    0  501    0  0.00000000000E+00 -0.00000000000E+00 -0.14472680092E+02  0.14472680317E+02  0.25500000000E-02 0. -1.
         24    2    1    2    0    0  0.00000000000E+00  0.00000000000E+00  0.82144112869E+02  0.11108947341E+03  0.74787805312E+02 0.  0.
         66    2    3    3    0    0  0.88369352064E+01 -0.23354017103E+02 -0.19151483628E+00  0.25050713003E+02  0.20000013273E+01 0.  0.
        -13    1    3    3    0    0 -0.88369352064E+01  0.23354017103E+02  0.82335627705E+02  0.86038760407E+02  0.10566000000E+00 0.  1.
         13    1    4    4    0    0  0.51047310008E+01 -0.13748881539E+02 -0.98288405150E-01  0.14666657656E+02  0.10566000000E+00 0. -1.
        -13    1    4    4    0    0  0.26909125515E+01 -0.71513677722E+01  0.48319106311E+00  0.76568733183E+01  0.10566000000E+00 0.  1.
         14    1    4    4    0    0  0.10412916541E+01 -0.24537677921E+01 -0.57641749425E+00  0.27271820281E+01  0.00000000000E+00 0. -1.
<mgrwt>
<rscale>  0 0.74787805E+02</rscale>
<asrwt>0</asrwt>
<pdfrwt beam="1">  1        2 0.22265661E-02 0.74787805E+02</pdfrwt>
<pdfrwt beam="2">  1       -1 0.14864122E-01 0.74787805E+02</pdfrwt>
<totfact> 0.14119783E+05</totfact>
</mgrwt>
</event>
<event>
 8    1  0.1493610E-013  0.7804796E+02  0.7818608E-02  0.1334684E+00
          2   -1    0    0  501    0  0.00000000000E+00  0.00000000000E+00  0.35115758307E+02  0.35115758400E+02  0.25500000000E-02 0. -1.
         -1   -1    0    0    0  501 -0.00000000000E+00 -0.00000000000E+00 -0.43367166277E+02  0.43367166569E+02  0.50400000000E-02 0.  1.
         24    2    1    2    0    0  0.44408920985E-15  0.00000000000E+00 -0.82514079694E+01  0.78482924969E+02  0.78047958194E+02 0.  0.
         66    2    3    3    0    0  0.35527354080E+01 -0.32109803018E+02  0.17838352276E+02  0.36957653959E+02  0.19999988818E+01 0.  0.
        -13    1    3    3    0    0 -0.35527354080E+01  0.32109803018E+02 -0.26089760245E+02  0.41525271010E+02  0.10566000000E+00 0.  1.
         13    1    4    4    0    0  0.23896050890E+01 -0.24718875888E+02  0.13458845317E+02  0.28246853258E+02  0.10566000000E+00 0. -1.
        -13    1    4    4    0    0  0.36290270991E+00 -0.36147818613E+01  0.25455969849E+01  0.44372935813E+01  0.10566000000E+00 0.  1.
        -14    1    4    4    0    0  0.80022760911E+00 -0.37761452688E+01  0.18339099739E+01  0.42735071206E+01  0.00000000000E+00 0.  1.
<mgrwt>
<rscale>  0 0.78047958E+02</rscale>
<asrwt>0</asrwt>
<pdfrwt beam="1">  1        2 0.54024244E-02 0.78047958E+02</pdfrwt>
<pdfrwt beam="2">  1       -1 0.66718718E-02 0.78047958E+02</pdfrwt>
<totfact> 0.14868509E+05</totfact>
</mgrwt>
</event>
<event>
 8    1  0.1493610E-013  0.8174562E+02  0.7818608E-02  0.1324169E+00
         -1   -1    0    0    0  501 -0.00000000000E+00  0.00000000000E+00  0.61423251093E+01  0.61423271771E+01  0.50400000000E-02 0.  1.
          2   -1    0    0  501    0  0.00000000000E+00 -0.00000000000E+00 -0.27197949506E+03  0.27197949507E+03  0.25500000000E-02 0. -1.
         24    2    1    2    0    0  0.00000000000E+00  0.00000000000E+00 -0.26583716995E+03  0.27812182225E+03  0.81745624248E+02 0.  0.
         66    2    3    3    0    0  0.19523388477E+02 -0.30385488042E+02 -0.19792195584E+03  0.20120025146E+03  0.20000005572E+01 0.  0.
        -13    1    3    3    0    0 -0.19523388477E+02  0.30385488042E+02 -0.67915214109E+02  0.76921570789E+02  0.10566000000E+00 0.  1.
         13    1    4    4    0    0  0.44341489479E+01 -0.69310977011E+01 -0.43713904682E+02  0.44481663850E+02  0.10566000000E+00 0.  1.
        -13    1    4    4    0    0  0.79718768738E+01 -0.11199327046E+02 -0.78890520319E+02  0.80079342576E+02  0.10566000000E+00 0. -1.
         14    1    4    4    0    0  0.71173626551E+01 -0.12255063295E+02 -0.75317530836E+02  0.76639245030E+02  0.00000000000E+00 0. -1.
<mgrwt>
<rscale>  0 0.81745624E+02</rscale>
<asrwt>0</asrwt>
<pdfrwt beam="1">  1        2 0.41842990E-01 0.81745624E+02</pdfrwt>
<pdfrwt beam="2">  1       -1 0.94497347E-03 0.81745624E+02</pdfrwt>
<totfact> 0.23247779E+05</totfact>
</mgrwt>
</event>
<event>
 8    1  0.1493610E-013  0.7885801E+02  0.7818608E-02  0.1332324E+00
         -1   -1    0    0    0  501 -0.00000000000E+00  0.00000000000E+00  0.88900746339E+00  0.88902174977E+00  0.50400000000E-02 0.  1.
          2   -1    0    0  501    0  0.00000000000E+00 -0.00000000000E+00 -0.17487297214E+04  0.17487297214E+04  0.25500000000E-02 0. -1.
         24    2    1    2    0    0  0.00000000000E+00  0.00000000000E+00 -0.17478407140E+04  0.17496187432E+04  0.78858005891E+02 0.  0.
         66    2    3    3    0    0  0.84932695002E+01 -0.16376768196E+02 -0.16469906704E+04  0.16470952014E+04  0.20000006536E+01 0.  0.
        -13    1    3    3    0    0 -0.84932695002E+01  0.16376768196E+02 -0.10085004357E+03  0.10252354177E+03  0.10566000000E+00 0.  1.
         13    1    4    4    0    0  0.45842098680E+01 -0.98809511526E+01 -0.91716621696E+03  0.91723090270E+03  0.10566000000E+00 0. -1.
        -13    1    4    4    0    0  0.34287034315E+01 -0.59838909354E+01 -0.64242072710E+03  0.64245775326E+03  0.10566000000E+00 0.  1.
        -14    1    4    4    0    0  0.48035620069E+00 -0.51192610790E+00 -0.87403726329E+02  0.87406545445E+02  0.00000000000E+00 0.  1.
<mgrwt>
<rscale>  0 0.78858006E+02</rscale>
<asrwt>0</asrwt>
<pdfrwt beam="1">  1        2 0.26903259E+00 0.78858006E+02</pdfrwt>
<pdfrwt beam="2">  1       -1 0.13677288E-03 0.78858006E+02</pdfrwt>
<totfact> 0.31975916E+05</totfact>
</mgrwt>
</event>
<event>
 8    1  0.1493610E-013  0.7436384E+02  0.7818608E-02  0.1345852E+00
          2   -1    0    0  501    0  0.00000000000E+00  0.00000000000E+00  0.34078365452E+03  0.34078365453E+03  0.25500000000E-02 0. -1.
         -1   -1    0    0    0  501 -0.00000000000E+00 -0.00000000000E+00 -0.40568106076E+01  0.40568137383E+01  0.50400000000E-02 0.  1.
         24    2    1    2    0    0 -0.17763568394E-14  0.00000000000E+00  0.33672684391E+03  0.34484046826E+03  0.74363842988E+02 0.  0.
         66    2    3    3    0    0  0.10005178353E+02  0.15840990515E+02  0.31726981248E+03  0.31782884464E+03  0.20000012110E+01 0.  0.
        -13    1    3    3    0    0 -0.10005178353E+02 -0.15840990515E+02  0.19457031433E+02  0.27011623620E+02  0.10566000000E+00 0.  1.
         13    1    4    4    0    0  0.45369478909E+01  0.63896567515E+01  0.13497255639E+03  0.13519990293E+03  0.10566000000E+00 0. -1.
        -13    1    4    4    0    0  0.59888152838E-01  0.69681473791E+00  0.10551079572E+02  0.10574761536E+02  0.10566000000E+00 0.  1.
         14    1    4    4    0    0  0.54083423093E+01  0.87545190257E+01  0.17174617651E+03  0.17205418018E+03  0.00000000000E+00 0. -1.
<mgrwt>
<rscale>  0 0.74363843E+02</rscale>
<asrwt>0</asrwt>
<pdfrwt beam="1">  1        2 0.52428272E-01 0.74363843E+02</pdfrwt>
<pdfrwt beam="2">  1       -1 0.62412474E-03 0.74363843E+02</pdfrwt>
<totfact> 0.32294525E+05</totfact>
</mgrwt>
</event>
<event>
 8    1  0.1493610E-013  0.7945741E+02  0.7818608E-02  0.1330598E+00
          2   -1    0    0  501    0  0.00000000000E+00  0.00000000000E+00  0.25122377981E+02  0.25122378110E+02  0.25500000000E-02 0. -1.
         -1   -1    0    0    0  501 -0.00000000000E+00 -0.00000000000E+00 -0.62827246734E+02  0.62827246936E+02  0.50400000000E-02 0.  1.
         24    2    1    2    0    0  0.00000000000E+00  0.00000000000E+00 -0.37704868753E+02  0.87949625046E+02  0.79457406313E+02 0.  0.
         66    2    3    3    0    0  0.32311741962E+02  0.20732802016E+02 -0.76598592299E+01  0.39199122388E+02  0.20000011291E+01 0.  0.
        -13    1    3    3    0    0 -0.32311741962E+02 -0.20732802016E+02 -0.30045009523E+02  0.48750502658E+02  0.10566000000E+00 0.  1.
         13    1    4    4    0    0  0.25548775829E+02  0.16314572499E+02 -0.61090056803E+01  0.30923071268E+02  0.10566000000E+00 0. -1.
        -13    1    4    4    0    0  0.24795162947E+01  0.12516790917E+01 -0.82906793763E+00  0.29005549960E+01  0.10566000000E+00 0.  1.
         14    1    4    4    0    0  0.42834498383E+01  0.31665504254E+01 -0.72178561195E+00  0.53754961244E+01  0.00000000000E+00 0. -1.
<mgrwt>
<rscale>  0 0.79457406E+02</rscale>
<asrwt>0</asrwt>
<pdfrwt beam="1">  1        2 0.38649813E-02 0.79457406E+02</pdfrwt>
<pdfrwt beam="2">  1       -1 0.96657302E-02 0.79457406E+02</pdfrwt>
<totfact> 0.13245478E+05</totfact>
</mgrwt>
</event>
<event>
 8    1  0.1493610E-013  0.8294738E+02  0.7818608E-02  0.1320889E+00
         -1   -1    0    0    0  501 -0.00000000000E+00  0.00000000000E+00  0.12156882363E+03  0.12156882373E+03  0.50400000000E-02 0.  1.
          2   -1    0    0  501    0  0.00000000000E+00 -0.00000000000E+00 -0.14148913528E+02  0.14148913758E+02  0.25500000000E-02 0. -1.
         24    2    1    2    0    0  0.00000000000E+00  0.00000000000E+00  0.10741991010E+03  0.13571773749E+03  0.82947375988E+02 0.  0.
         66    2    3    3    0    0  0.21590050827E+02  0.35317569819E+02  0.57250626930E+02  0.70675988048E+02  0.19999924867E+01 0.  0.
        -13    1    3    3    0    0 -0.21590050827E+02 -0.35317569819E+02  0.50169283167E+02  0.65041749440E+02  0.10566000000E+00 0.  1.
         13    1    4    4    0    0  0.13748202185E+02  0.22733741624E+02  0.37166099319E+02  0.45685513832E+02  0.10566000000E+00 0. -1.
        -13    1    4    4    0    0  0.76404495376E+01  0.12047324757E+02  0.19586036759E+02  0.24230941024E+02  0.10566000000E+00 0.  1.
        -14    1    4    4    0    0  0.20139910449E+00  0.53650343826E+00  0.49849085270E+00  0.75953319136E+00  0.00000000000E+00 0.  1.
<mgrwt>
<rscale>  0 0.82947376E+02</rscale>
<asrwt>0</asrwt>
<pdfrwt beam="1">  1        2 0.21767559E-02 0.82947376E+02</pdfrwt>
<pdfrwt beam="2">  1       -1 0.18702896E-01 0.82947376E+02</pdfrwt>
<totfact> 0.10364683E+05</totfact>
</mgrwt>
</event>
<event>
 8    1  0.1493610E-013  0.7143869E+02  0.7818608E-02  0.1355268E+00
          2   -1    0    0  501    0  0.00000000000E+00  0.00000000000E+00  0.56490180468E+02  0.56490180526E+02  0.25500000000E-02 0. -1.
         -1   -1    0    0    0  501 -0.00000000000E+00 -0.00000000000E+00 -0.22585723885E+02  0.22585724447E+02  0.50400000000E-02 0.  1.
         24    2    1    2    0    0  0.00000000000E+00  0.00000000000E+00  0.33904456584E+02  0.79075904973E+02  0.71438690995E+02 0.  0.
         66    2    3    3    0    0 -0.10824760978E+02  0.33806175263E+02  0.21082498927E+02  0.41334062167E+02  0.19999995157E+01 0.  0.
        -13    1    3    3    0    0  0.10824760978E+02 -0.33806175263E+02  0.12821957656E+02  0.37741842806E+02  0.10566000000E+00 0.  1.
         13    1    4    4    0    0 -0.20880559869E+01  0.73743572502E+01  0.42880684202E+01  0.87829276139E+01  0.10566000000E+00 0. -1.
        -13    1    4    4    0    0 -0.27257756259E+01  0.10531066874E+02  0.68976659949E+01  0.12881078467E+02  0.10566000000E+00 0.  1.
        -14    1    4    4    0    0 -0.60109293656E+01  0.15900751140E+02  0.98967645122E+01  0.19670056087E+02  0.00000000000E+00 0.  1.
<mgrwt>
<rscale>  0 0.71438691E+02</rscale>
<asrwt>0</asrwt>
<pdfrwt beam="1">  1        2 0.86907970E-02 0.71438691E+02</pdfrwt>
<pdfrwt beam="2">  1       -1 0.34747268E-02 0.71438691E+02</pdfrwt>
<totfact> 0.20847523E+05</totfact>
</mgrwt>
</event>
<event>
 8    1  0.1493610E-013  0.7920698E+02  0.7818608E-02  0.1331317E+00
          2   -1    0    0  501    0  0.00000000000E+00  0.00000000000E+00  0.73176553542E+02  0.73176553586E+02  0.25500000000E-02 0. -1.
         -1   -1    0    0    0  501 -0.00000000000E+00 -0.00000000000E+00 -0.21433594363E+02  0.21433594955E+02  0.50400000000E-02 0.  1.
         24    2    1    2    0    0  0.00000000000E+00  0.00000000000E+00  0.51742959179E+02  0.94610148541E+02  0.79206984430E+02 0.  0.
         66    2    3    3    0    0 -0.13316807662E+02  0.34889962017E+02  0.10232439234E+02  0.38773052933E+02  0.20000012938E+01 0.  0.
        -13    1    3    3    0    0  0.13316807662E+02 -0.34889962017E+02  0.41510519945E+02  0.55837095609E+02  0.10566000000E+00 0.  1.
         13    1    4    4    0    0 -0.39086366825E+01  0.10529093944E+02  0.27866849902E+01  0.11572209697E+02  0.10566000000E+00 0. -1.
        -13    1    4    4    0    0 -0.83006076300E+01  0.19877857583E+02  0.59866391058E+01  0.22358003510E+02  0.10566000000E+00 0.  1.
        -14    1    4    4    0    0 -0.11075633496E+01  0.44830104901E+01  0.14591151376E+01  0.48428397261E+01  0.00000000000E+00 0.  1.
<mgrwt>
<rscale>  0 0.79206984E+02</rscale>
<asrwt>0</asrwt>
<pdfrwt beam="1">  1        2 0.11257931E-01 0.79206984E+02</pdfrwt>
<pdfrwt beam="2">  1       -1 0.32974761E-02 0.79206984E+02</pdfrwt>
<totfact> 0.16769203E+05</totfact>
</mgrwt>
</event>
<event>
 8    1  0.1493610E-013  0.8088969E+02  0.7818608E-02  0.1326545E+00
          2   -1    0    0  501    0  0.00000000000E+00  0.00000000000E+00  0.38554305928E+03  0.38554305929E+03  0.25500000000E-02 0. -1.
         -1   -1    0    0    0  501 -0.00000000000E+00 -0.00000000000E+00 -0.42428078112E+01  0.42428108047E+01  0.50400000000E-02 0.  1.
         24    2    1    2    0    0 -0.35527136788E-14 -0.88817841970E-15  0.38130025147E+03  0.38978587009E+03  0.80889694981E+02 0.  0.
         66    2    3    3    0    0 -0.18648072308E+02 -0.62675858170E+01  0.36091250680E+03  0.36145382941E+03  0.19999989166E+01 0.  0.
        -13    1    3    3    0    0  0.18648072308E+02  0.62675858170E+01  0.20387744672E+02  0.28332040689E+02  0.10566000000E+00 0.  1.
         13    1    4    4    0    0 -0.11263746677E+02 -0.45890714078E+01  0.21924334458E+03  0.21958047926E+03  0.10566000000E+00 0. -1.
        -13    1    4    4    0    0 -0.25740194052E+01 -0.23591195937E+00  0.48254419454E+02  0.48323714584E+02  0.10566000000E+00 0.  1.
         14    1    4    4    0    0 -0.48103062254E+01 -0.14426024498E+01  0.93414742769E+02  0.93549635566E+02  0.00000000000E+00 0. -1.
<mgrwt>
<rscale>  0 0.80889695E+02</rscale>
<asrwt>0</asrwt>
<pdfrwt beam="1">  1        2 0.59314329E-01 0.80889695E+02</pdfrwt>
<pdfrwt beam="2">  1       -1 0.65273976E-03 0.80889695E+02</pdfrwt>
<totfact> 0.27095685E+05</totfact>
</mgrwt>
</event>
<event>
 8    1  0.1493610E-013  0.8042118E+02  0.7818608E-02  0.1327860E+00
          2   -1    0    0  501    0  0.00000000000E+00  0.00000000000E+00  0.10565890586E+03  0.10565890589E+03  0.25500000000E-02 0. -1.
         -1   -1    0    0    0  501 -0.00000000000E+00 -0.00000000000E+00 -0.15302936520E+02  0.15302937350E+02  0.50400000000E-02 0.  1.
         24    2    1    2    0    0  0.00000000000E+00 -0.71054273576E-14  0.90355969336E+02  0.12096184324E+03  0.80421180820E+02 0.  0.
         66    2    3    3    0    0 -0.24339101743E+02  0.28020816466E+02  0.68377285364E+02  0.77826802467E+02  0.19999998466E+01 0.  0.
        -13    1    3    3    0    0  0.24339101743E+02 -0.28020816466E+02  0.21978683972E+02  0.43135040770E+02  0.10566000000E+00 0.  1.
         13    1    4    4    0    0 -0.11582425785E+02  0.12915163597E+02  0.32491571357E+02  0.36832966363E+02  0.10566000000E+00 0. -1.
        -13    1    4    4    0    0 -0.10891638790E+00  0.19221592829E+00  0.28085941651E+00  0.37263358689E+00  0.10566000000E+00 0. -1.
         14    1    4    4    0    0 -0.12647759570E+02  0.14913436941E+02  0.35604854591E+02  0.40621202517E+02  0.00000000000E+00 0. -1.
<mgrwt>
<rscale>  0 0.80421181E+02</rscale>
<asrwt>0</asrwt>
<pdfrwt beam="1">  1        2 0.16255216E-01 0.80421181E+02</pdfrwt>
<pdfrwt beam="2">  1       -1 0.23542980E-02 0.80421181E+02</pdfrwt>
<totfact> 0.17752725E+05</totfact>
</mgrwt>
</event>
<event>
 8    1  0.1493610E-013  0.7731087E+02  0.7818608E-02  0.1336861E+00
          2   -1    0    0  501    0  0.00000000000E+00  0.00000000000E+00  0.92996252862E+01  0.92996256358E+01  0.25500000000E-02 0. -1.
         -1   -1    0    0    0  501 -0.00000000000E+00 -0.00000000000E+00 -0.16067772696E+03  0.16067772703E+03  0.50400000000E-02 0.  1.
         24    2    1    2    0    0 -0.17763568394E-14  0.00000000000E+00 -0.15137810167E+03  0.16997735267E+03  0.77310870877E+02 0.  0.
         66    2    3    3    0    0 -0.10959715322E+02  0.35816294336E+02 -0.96518046625E+02  0.10355025652E+03  0.20000001319E+01 0.  0.
        -13    1    3    3    0    0  0.10959715322E+02 -0.35816294336E+02 -0.54860055044E+02  0.66427096154E+02  0.10566000000E+00 0.  1.
         13    1    4    4    0    0 -0.41176123467E+01  0.13822939185E+02 -0.37099641336E+02  0.39804810393E+02  0.10566000000E+00 0. -1.
        -13    1    4    4    0    0 -0.11253471852E+01  0.44219238240E+01 -0.13393376109E+02  0.14149682124E+02  0.10566000000E+00 0.  1.
        -14    1    4    4    0    0 -0.57167557900E+01  0.17571431327E+02 -0.46025029181E+02  0.49595764000E+02  0.00000000000E+00 0.  1.
<mgrwt>
<rscale>  0 0.77310871E+02</rscale>
<asrwt>0</asrwt>
<pdfrwt beam="1">  1        2 0.14307117E-02 0.77310871E+02</pdfrwt>
<pdfrwt beam="2">  1       -1 0.24719648E-01 0.77310871E+02</pdfrwt>
<totfact> 0.11554257E+05</totfact>
</mgrwt>
</event>
<event>
 8    1  0.1493610E-013  0.8005785E+02  0.7818608E-02  0.1328887E+00
         -1   -1    0    0    0  501 -0.00000000000E+00  0.00000000000E+00  0.26552668249E+02  0.26552668727E+02  0.50400000000E-02 0.  1.
          2   -1    0    0  501    0  0.00000000000E+00 -0.00000000000E+00 -0.60344773331E+02  0.60344773384E+02  0.25500000000E-02 0. -1.
         24    2    1    2    0    0  0.35527136788E-14 -0.17763568394E-14 -0.33792105082E+02  0.86897442112E+02  0.80057848333E+02 0.  0.
         66    2    3    3    0    0 -0.30582535421E+02  0.10869644502E+02 -0.42289675815E+02  0.53346577491E+02  0.20000012642E+01 0.  0.
        -13    1    3    3    0    0  0.30582535421E+02 -0.10869644502E+02  0.84975707335E+01  0.33550864621E+02  0.10566000000E+00 0.  1.
         13    1    4    4    0    0 -0.76603538895E+01  0.23274880922E+01 -0.11611562584E+02  0.14104530202E+02  0.10566000000E+00 0.  1.
        -13    1    4    4    0    0 -0.62540227719E+01  0.25240306511E+01 -0.87735215780E+01  0.11066588294E+02  0.10566000000E+00 0. -1.
        -14    1    4    4    0    0 -0.16668158760E+02  0.60181257585E+01 -0.21904591653E+02  0.28175458995E+02  0.00000000000E+00 0.  1.
<mgrwt>
<rscale>  0 0.80057848E+02</rscale>
<asrwt>0</asrwt>
<pdfrwt beam="1">  1        2 0.92838113E-02 0.80057848E+02</pdfrwt>
<pdfrwt beam="2">  1       -1 0.40850259E-02 0.80057848E+02</pdfrwt>
<totfact> 0.15556209E+05</totfact>
</mgrwt>
</event>
<event>
 8    1  0.1493610E-013  0.7943073E+02  0.7818608E-02  0.1330675E+00
          2   -1    0    0  501    0  0.00000000000E+00  0.00000000000E+00  0.81017406335E+02  0.81017406376E+02  0.25500000000E-02 0. -1.
         -1   -1    0    0    0  501 -0.00000000000E+00 -0.00000000000E+00 -0.19468782337E+02  0.19468782989E+02  0.50400000000E-02 0.  1.
         24    2    1    2    0    0 -0.71054273576E-14  0.17763568394E-14  0.61548623998E+02  0.10048618936E+03  0.79430731691E+02 0.  0.
         66    2    3    3    0    0 -0.36463364503E+02  0.11167305801E+02  0.44710773566E+02  0.58799140525E+02  0.19999959846E+01 0.  0.
        -13    1    3    3    0    0  0.36463364503E+02 -0.11167305801E+02  0.16837850433E+02  0.41687048840E+02  0.10566000000E+00 0.  1.
         13    1    4    4    0    0 -0.17527578834E+02  0.53302980700E+01  0.20772528683E+02  0.27697241906E+02  0.10566000000E+00 0. -1.
        -13    1    4    4    0    0 -0.18945873488E+02  0.57943454398E+01  0.23875029011E+02  0.31024969551E+02  0.10566000000E+00 0.  1.
        -14    1    4    4    0    0  0.10087818784E-01  0.42662290755E-01  0.63215871818E-01  0.76929068563E-01  0.00000000000E+00 0.  1.
<mgrwt>
<rscale>  0 0.79430732E+02</rscale>
<asrwt>0</asrwt>
<pdfrwt beam="1">  1        2 0.12464216E-01 0.79430732E+02</pdfrwt>
<pdfrwt beam="2">  1       -1 0.29951974E-02 0.79430732E+02</pdfrwt>
<totfact> 0.17075398E+05</totfact>
</mgrwt>
</event>
<event>
 8    1  0.1493610E-013  0.7812276E+02  0.7818608E-02  0.1334465E+00
          2   -1    0    0  501    0  0.00000000000E+00  0.00000000000E+00  0.11553317241E+03  0.11553317244E+03  0.25500000000E-02 0. -1.
         -1   -1    0    0    0  501 -0.00000000000E+00 -0.00000000000E+00 -0.13206519981E+02  0.13206520943E+02  0.50400000000E-02 0.  1.
         24    2    1    2    0    0  0.00000000000E+00  0.00000000000E+00  0.10232665243E+03  0.12873969338E+03  0.78122755037E+02 0.  0.
         66    2    3    3    0    0 -0.83690706580E+01 -0.25081740528E+02  0.98519526094E+02  0.10202564415E+03  0.19999975782E+01 0.  0.
        -13    1    3    3    0    0  0.83690706580E+01  0.25081740528E+02  0.38071263376E+01  0.26714049236E+02  0.10566000000E+00 0.  1.
         13    1    4    4    0    0 -0.44135034041E+00 -0.78929427037E+00  0.37350351540E+01  0.38444020608E+01  0.10566000000E+00 0.  1.
        -13    1    4    4    0    0  0.39893932411E-01 -0.32666893892E+00  0.11970868815E+01  0.12459876239E+01  0.10566000000E+00 0. -1.
         14    1    4    4    0    0 -0.79676142500E+01 -0.23965777319E+02  0.93587404058E+02  0.96935254462E+02  0.00000000000E+00 0. -1.
<mgrwt>
<rscale>  0 0.78122755E+02</rscale>
<asrwt>0</asrwt>
<pdfrwt beam="1">  1        2 0.17774334E-01 0.78122755E+02</pdfrwt>
<pdfrwt beam="2">  1       -1 0.20317724E-02 0.78122755E+02</pdfrwt>
<totfact> 0.19684477E+05</totfact>
</mgrwt>
</event>
<event>
 8    1  0.1493610E-013  0.8005490E+02  0.7818608E-02  0.1328896E+00
         -1   -1    0    0    0  501 -0.00000000000E+00  0.00000000000E+00  0.14754340864E+03  0.14754340872E+03  0.50400000000E-02 0.  1.
          2   -1    0    0  501    0  0.00000000000E+00 -0.00000000000E+00 -0.10859156127E+02  0.10859156426E+02  0.25500000000E-02 0. -1.
         24    2    1    2    0    0 -0.35527136788E-14  0.35527136788E-14  0.13668425251E+03  0.15840256515E+03  0.80054904669E+02 0.  0.
         66    2    3    3    0    0 -0.25880883667E+02  0.21380453311E+02  0.25340061261E+02  0.42107750079E+02  0.19999972119E+01 0.  0.
        -13    1    3    3    0    0  0.25880883667E+02 -0.21380453311E+02  0.11134419125E+03  0.11629481507E+03  0.10566000000E+00 0.  1.
         13    1    4    4    0    0 -0.80288921620E+01  0.69413515058E+01  0.78603347421E+01  0.13207630233E+02  0.10566000000E+00 0. -1.
        -13    1    4    4    0    0 -0.20933262745E+01  0.23773641351E+01  0.24644097158E+01  0.40147670425E+01  0.10566000000E+00 0.  1.
        -14    1    4    4    0    0 -0.15758665231E+02  0.12061737670E+02  0.15015316803E+02  0.24885352804E+02  0.00000000000E+00 0.  1.
<mgrwt>
<rscale>  0 0.80054905E+02</rscale>
<asrwt>0</asrwt>
<pdfrwt beam="1">  1        2 0.16706395E-02 0.80054905E+02</pdfrwt>
<pdfrwt beam="2">  1       -1 0.22698985E-01 0.80054905E+02</pdfrwt>
<totfact> 0.10813810E+05</totfact>
</mgrwt>
</event>
<event>
 8    1  0.1493610E-013  0.7798170E+02  0.7818608E-02  0.1334879E+00
         -1   -1    0    0    0  501 -0.00000000000E+00  0.00000000000E+00  0.61282483456E+00  0.61284555922E+00  0.50400000000E-02 0.  1.
          2   -1    0    0  501    0  0.00000000000E+00 -0.00000000000E+00 -0.24807423808E+04  0.24807423808E+04  0.25500000000E-02 0. -1.
         24    2    1    2    0    0  0.00000000000E+00  0.00000000000E+00 -0.24801295559E+04  0.24813552263E+04  0.77981696656E+02 0.  0.
         66    2    3    3    0    0  0.59149421110E+01 -0.12745156219E+02 -0.23973204612E+04  0.23973624714E+04  0.20000002165E+01 0.  0.
        -13    1    3    3    0    0 -0.59149421110E+01  0.12745156219E+02 -0.82809094694E+02  0.83992754898E+02  0.10566000000E+00 0.  1.
         13    1    4    4    0    0  0.59566522750E+01 -0.12196430099E+02 -0.22881318413E+04  0.22881721021E+04  0.10566000000E+00 0. -1.
        -13    1    4    4    0    0  0.75444264263E-01 -0.16069863038E+00 -0.44497114510E+02  0.44497594088E+02  0.10566000000E+00 0.  1.
         14    1    4    4    0    0 -0.11715442828E+00 -0.38802748941E+00 -0.64691505457E+02  0.64692775244E+02  0.00000000000E+00 0. -1.
<mgrwt>
<rscale>  0 0.77981697E+02</rscale>
<asrwt>0</asrwt>
<pdfrwt beam="1">  1        2 0.38164463E+00 0.77981697E+02</pdfrwt>
<pdfrwt beam="2">  1       -1 0.94284324E-04 0.77981697E+02</pdfrwt>
<totfact> 0.22722442E+05</totfact>
</mgrwt>
</event>
<event>
 8    1  0.1493610E-013  0.7269376E+02  0.7818608E-02  0.1351165E+00
          2   -1    0    0  501    0  0.00000000000E+00  0.00000000000E+00  0.97415085265E+02  0.97415085298E+02  0.25500000000E-02 0. -1.
         -1   -1    0    0    0  501 -0.00000000000E+00 -0.00000000000E+00 -0.13561511426E+02  0.13561512362E+02  0.50400000000E-02 0.  1.
         24    2    1    2    0    0 -0.35527136788E-14  0.00000000000E+00  0.83853573839E+02  0.11097659766E+03  0.72693764400E+02 0.  0.
         66    2    3    3    0    0  0.27550700655E+02  0.16181580922E+02  0.68321304754E+02  0.75449886376E+02  0.20000008021E+01 0.  0.
        -13    1    3    3    0    0 -0.27550700655E+02 -0.16181580922E+02  0.15532269086E+02  0.35526711285E+02  0.10566000000E+00 0.  1.
         13    1    4    4    0    0  0.10011769755E+02  0.61230597335E+01  0.25782022552E+02  0.28327570404E+02  0.10566000000E+00 0. -1.
        -13    1    4    4    0    0  0.16140799131E+02  0.88073743223E+01  0.38955887557E+02  0.43077460214E+02  0.10566000000E+00 0.  1.
        -14    1    4    4    0    0  0.13981317693E+01  0.12511468660E+01  0.35833946442E+01  0.40448557577E+01  0.00000000000E+00 0.  1.
<mgrwt>
<rscale>  0 0.72693764E+02</rscale>
<asrwt>0</asrwt>
<pdfrwt beam="1">  1        2 0.14986937E-01 0.72693764E+02</pdfrwt>
<pdfrwt beam="2">  1       -1 0.20863864E-02 0.72693764E+02</pdfrwt>
<totfact> 0.22710159E+05</totfact>
</mgrwt>
</event>
<event>
 8    1  0.1493610E-013  0.7673114E+02  0.7818608E-02  0.1338593E+00
          2   -1    0    0  501    0  0.00000000000E+00  0.00000000000E+00  0.62870048551E+03  0.62870048551E+03  0.25500000000E-02 0. -1.
         -1   -1    0    0    0  501 -0.00000000000E+00 -0.00000000000E+00 -0.23412024571E+01  0.23412078820E+01  0.50400000000E-02 0.  1.
         24    2    1    2    0    0 -0.88817841970E-15  0.35527136788E-14  0.62635928305E+03  0.63104169339E+03  0.76731136699E+02 0.  0.
         66    2    3    3    0    0 -0.50160918376E+01  0.21364316054E+02  0.57193583961E+03  0.57236020110E+03  0.19999992648E+01 0.  0.
        -13    1    3    3    0    0  0.50160918376E+01 -0.21364316054E+02  0.54423443437E+02  0.58681492290E+02  0.10566000000E+00 0.  1.
         13    1    4    4    0    0 -0.15652596942E+01  0.96138033148E+01  0.25139946107E+03  0.25158810672E+03  0.10566000000E+00 0. -1.
        -13    1    4    4    0    0 -0.13726284874E+01  0.64788110841E+01  0.17728274631E+03  0.17740643281E+03  0.10566000000E+00 0.  1.
        -14    1    4    4    0    0 -0.20782036560E+01  0.52717016546E+01  0.14325363223E+03  0.14336566157E+03  0.00000000000E+00 0.  1.
<mgrwt>
<rscale>  0 0.76731137E+02</rscale>
<asrwt>0</asrwt>
<pdfrwt beam="1">  1        2 0.96723183E-01 0.76731137E+02</pdfrwt>
<pdfrwt beam="2">  1       -1 0.36018530E-03 0.76731137E+02</pdfrwt>
<totfact> 0.36300190E+05</totfact>
</mgrwt>
</event>
<event>
 8    1  0.1493610E-013  0.7797034E+02  0.7818608E-02  0.1334912E+00
          2   -1    0    0  501    0  0.00000000000E+00  0.00000000000E+00  0.12480837927E+03  0.12480837929E+03  0.25500000000E-02 0. -1.
         -1   -1    0    0    0  501 -0.00000000000E+00 -0.00000000000E+00 -0.12177414445E+02  0.12177415488E+02  0.50400000000E-02 0.  1.
         24    2    1    2    0    0  0.17763568394E-14 -0.10658141036E-13  0.11263096482E+03  0.13698579478E+03  0.77970338816E+02 0.  0.
         66    2    3    3    0    0 -0.75701580842E+01  0.31610161628E+02  0.94088048177E+02  0.99564403394E+02  0.20000004553E+01 0.  0.
        -13    1    3    3    0    0  0.75701580842E+01 -0.31610161628E+02  0.18542916643E+02  0.37421391386E+02  0.10566000000E+00 0.  1.
         13    1    4    4    0    0 -0.15184582685E+01  0.85215189289E+01  0.26194198927E+02  0.27587483065E+02  0.10566000000E+00 0. -1.
        -13    1    4    4    0    0 -0.21814427299E+01  0.93416599370E+01  0.28834680721E+02  0.30388736056E+02  0.10566000000E+00 0.  1.
        -14    1    4    4    0    0 -0.38702570857E+01  0.13746982762E+02  0.39059168529E+02  0.41588184274E+02  0.00000000000E+00 0.  1.
<mgrwt>
<rscale>  0 0.77970339E+02</rscale>
<asrwt>0</asrwt>
<pdfrwt beam="1">  1        2 0.19201290E-01 0.77970339E+02</pdfrwt>
<pdfrwt beam="2">  1       -1 0.18734484E-02 0.77970339E+02</pdfrwt>
<totfact> 0.20247176E+05</totfact>
</mgrwt>
</event>
<event>
 8    1  0.1493610E-013  0.7949341E+02  0.7818608E-02  0.1330495E+00
         -1   -1    0    0    0  501 -0.00000000000E+00  0.00000000000E+00  0.29138573702E+03  0.29138573706E+03  0.50400000000E-02 0.  1.
          2   -1    0    0  501    0  0.00000000000E+00 -0.00000000000E+00 -0.54216808740E+01  0.54216814736E+01  0.25500000000E-02 0. -1.
         24    2    1    2    0    0  0.00000000000E+00 -0.71054273576E-14  0.28596405614E+03  0.29680741853E+03  0.79493410363E+02 0.  0.
         66    2    3    3    0    0  0.11353316671E+02 -0.35089366661E+02  0.87990602913E+02  0.95428023362E+02  0.19999974154E+01 0.  0.
        -13    1    3    3    0    0 -0.11353316671E+02  0.35089366661E+02  0.19797345323E+03  0.20137939517E+03  0.10566000000E+00 0.  1.
         13    1    4    4    0    0  0.27030895670E+01 -0.84760843434E+01  0.20327169476E+02  0.22189089254E+02  0.10566000000E+00 0. -1.
        -13    1    4    4    0    0  0.56621350509E+00 -0.10262888064E+01  0.23538973808E+01  0.26317035096E+01  0.10566000000E+00 0.  1.
        -14    1    4    4    0    0  0.80840135989E+01 -0.25586993511E+02  0.65309536057E+02  0.70607230599E+02  0.00000000000E+00 0.  1.
<mgrwt>
<rscale>  0 0.79493410E+02</rscale>
<asrwt>0</asrwt>
<pdfrwt beam="1">  1        2 0.83410459E-03 0.79493410E+02</pdfrwt>
<pdfrwt beam="2">  1       -1 0.44828586E-01 0.79493410E+02</pdfrwt>
<totfact> 0.88883001E+04</totfact>
</mgrwt>
</event>
<event>
 8    1  0.1493610E-013  0.7925810E+02  0.7818608E-02  0.1331170E+00
          2   -1    0    0  501    0  0.00000000000E+00  0.00000000000E+00  0.46882027253E+03  0.46882027254E+03  0.25500000000E-02 0. -1.
         -1   -1    0    0    0  501 -0.00000000000E+00 -0.00000000000E+00 -0.33498136727E+01  0.33498174642E+01  0.50400000000E-02 0.  1.
         24    2    1    2    0    0  0.00000000000E+00 -0.35527136788E-14  0.46547045886E+03  0.47217009000E+03  0.79258096261E+02 0.  0.
         66    2    3    3    0    0 -0.20095107837E+02 -0.23626306848E+02  0.37958940178E+03  0.38085972442E+03  0.20000013757E+01 0.  0.
        -13    1    3    3    0    0  0.20095107837E+02  0.23626306848E+02  0.85881057078E+02  0.91310365584E+02  0.10566000000E+00 0.  1.
         13    1    4    4    0    0 -0.71823790064E+01 -0.70722279754E+01  0.12409358878E+03  0.12450234101E+03  0.10566000000E+00 0. -1.
        -13    1    4    4    0    0 -0.69839531664E+01 -0.88361117563E+01  0.13964081569E+03  0.14009432909E+03  0.10566000000E+00 0.  1.
         14    1    4    4    0    0 -0.59287756645E+01 -0.77179671162E+01  0.11585499731E+03  0.11626305432E+03  0.00000000000E+00 0. -1.
<mgrwt>
<rscale>  0 0.79258096E+02</rscale>
<asrwt>0</asrwt>
<pdfrwt beam="1">  1        2 0.72126248E-01 0.79258096E+02</pdfrwt>
<pdfrwt beam="2">  1       -1 0.51535587E-03 0.79258096E+02</pdfrwt>
<totfact> 0.30555335E+05</totfact>
</mgrwt>
</event>
<event>
 8    1  0.1493610E-013  0.8275473E+02  0.7818608E-02  0.1321411E+00
         -1   -1    0    0    0  501 -0.00000000000E+00  0.00000000000E+00  0.90382730537E+01  0.90382744589E+01  0.50400000000E-02 0.  1.
          2   -1    0    0  501    0  0.00000000000E+00 -0.00000000000E+00 -0.18942625988E+03  0.18942625990E+03  0.25500000000E-02 0. -1.
         24    2    1    2    0    0  0.00000000000E+00  0.00000000000E+00 -0.18038798683E+03  0.19846453436E+03  0.82754731623E+02 0.  0.
         66    2    3    3    0    0 -0.35523685349E+02 -0.21091337352E+02 -0.94606200919E+02  0.10325265122E+03  0.20000001030E+01 0.  0.
        -13    1    3    3    0    0  0.35523685349E+02  0.21091337352E+02 -0.85781785908E+02  0.95211883133E+02  0.10566000000E+00 0.  1.
         13    1    4    4    0    0 -0.13702071501E+02 -0.88467810871E+01 -0.35921950209E+02  0.39451362079E+02  0.10566000000E+00 0. -1.
        -13    1    4    4    0    0 -0.20114643321E+02 -0.11459099050E+02 -0.53890002122E+02  0.58651967739E+02  0.10566000000E+00 0.  1.
         14    1    4    4    0    0 -0.17069705276E+01 -0.78545721453E+00 -0.47942485883E+01  0.51493214062E+01  0.00000000000E+00 0. -1.
<mgrwt>
<rscale>  0 0.82754732E+02</rscale>
<asrwt>0</asrwt>
<pdfrwt beam="1">  1        2 0.29142499E-01 0.82754732E+02</pdfrwt>
<pdfrwt beam="2">  1       -1 0.13905038E-02 0.82754732E+02</pdfrwt>
<totfact> 0.19793679E+05</totfact>
</mgrwt>
</event>
<event>
 8    1  0.1493610E-013  0.8082945E+02  0.7818608E-02  0.1326714E+00
          2   -1    0    0  501    0  0.00000000000E+00  0.00000000000E+00  0.14462832365E+03  0.14462832367E+03  0.25500000000E-02 0. -1.
         -1   -1    0    0    0  501 -0.00000000000E+00 -0.00000000000E+00 -0.11293429689E+02  0.11293430813E+02  0.50400000000E-02 0.  1.
         24    2    1    2    0    0  0.00000000000E+00  0.71054273576E-14  0.13333489396E+03  0.15592175448E+03  0.80829447444E+02 0.  0.
         66    2    3    3    0    0  0.10844199821E+02  0.38225004881E+02  0.80698177284E+02  0.89971904034E+02  0.20000076424E+01 0.  0.
        -13    1    3    3    0    0 -0.10844199821E+02 -0.38225004881E+02  0.52636716673E+02  0.65949850448E+02  0.10566000000E+00 0.  1.
         13    1    4    4    0    0  0.86767321270E+00  0.37318113471E+01  0.88229701811E+01  0.96195238752E+01  0.10566000000E+00 0. -1.
        -13    1    4    4    0    0  0.27974258244E+01  0.11367926674E+02  0.23763053110E+02  0.26490549358E+02  0.10566000000E+00 0.  1.
         14    1    4    4    0    0  0.71791007837E+01  0.23125266860E+02  0.48112153993E+02  0.53861830801E+02  0.00000000000E+00 0. -1.
<mgrwt>
<rscale>  0 0.80829447E+02</rscale>
<asrwt>0</asrwt>
<pdfrwt beam="1">  1        2 0.22250512E-01 0.80829447E+02</pdfrwt>
<pdfrwt beam="2">  1       -1 0.17374508E-02 0.80829447E+02</pdfrwt>
<totfact> 0.19262088E+05</totfact>
</mgrwt>
</event>
<event>
 8    1  0.1493610E-013  0.8031484E+02  0.7818608E-02  0.1328160E+00
          2   -1    0    0  501    0  0.00000000000E+00  0.00000000000E+00  0.10888917746E+04  0.10888917746E+04  0.25500000000E-02 0. -1.
         -1   -1    0    0    0  501 -0.00000000000E+00 -0.00000000000E+00 -0.14809679759E+01  0.14809765518E+01  0.50400000000E-02 0.  1.
         24    2    1    2    0    0  0.17763568394E-14 -0.35527136788E-14  0.10874108067E+04  0.10903727512E+04  0.80314843573E+02 0.  0.
         66    2    3    3    0    0 -0.13161247532E+02  0.26606439893E+02  0.91072361074E+03  0.91120942502E+03  0.19999989581E+01 0.  0.
        -13    1    3    3    0    0  0.13161247532E+02 -0.26606439893E+02  0.17668719592E+03  0.17916332618E+03  0.10566000000E+00 0.  1.
         13    1    4    4    0    0 -0.22328923404E+01  0.39015677734E+01  0.15671243542E+03  0.15677693267E+03  0.10566000000E+00 0. -1.
        -13    1    4    4    0    0 -0.79223721792E+00  0.20693847014E+01  0.64581545848E+02  0.64619634950E+02  0.10566000000E+00 0.  1.
         14    1    4    4    0    0 -0.10136117974E+02  0.20635487418E+02  0.68942962948E+03  0.68981285740E+03  0.00000000000E+00 0. -1.
<mgrwt>
<rscale>  0 0.80314844E+02</rscale>
<asrwt>0</asrwt>
<pdfrwt beam="1">  1        2 0.16752130E+00 0.80314844E+02</pdfrwt>
<pdfrwt beam="2">  1       -1 0.22784258E-03 0.80314844E+02</pdfrwt>
<totfact> 0.34903887E+05</totfact>
</mgrwt>
</event>
<event>
 8    1  0.1493610E-013  0.7714568E+02  0.7818608E-02  0.1337352E+00
          2   -1    0    0  501    0  0.00000000000E+00  0.00000000000E+00  0.16116018825E+03  0.16116018828E+03  0.25500000000E-02 0. -1.
         -1   -1    0    0    0  501 -0.00000000000E+00 -0.00000000000E+00 -0.92322041562E+01  0.92322055319E+01  0.50400000000E-02 0.  1.
         24    2    1    2    0    0  0.00000000000E+00  0.88817841970E-15  0.15192798410E+03  0.17039239381E+03  0.77145677228E+02 0.  0.
         66    2    3    3    0    0  0.16167833747E+02  0.50802812788E+01  0.15248382573E+03  0.15343573642E+03  0.19999986331E+01 0.  0.
        -13    1    3    3    0    0 -0.16167833747E+02 -0.50802812788E+01 -0.55584163006E+00  0.16956657392E+02  0.10566000000E+00 0.  1.
         13    1    4    4    0    0  0.24440221743E+01  0.92708792251E+00  0.20299760660E+02  0.20467637463E+02  0.10566000000E+00 0.  1.
        -13    1    4    4    0    0  0.83059095114E+01  0.30228308845E+01  0.76127903609E+02  0.76639379638E+02  0.10566000000E+00 0.  1.
         14    1    4    4    0    0  0.54179020613E+01  0.11303624718E+01  0.56056161459E+02  0.56328719315E+02  0.00000000000E+00 0. -1.
<mgrwt>
<rscale>  0 0.77145677E+02</rscale>
<asrwt>0</asrwt>
<pdfrwt beam="1">  1        2 0.24793875E-01 0.77145677E+02</pdfrwt>
<pdfrwt beam="2">  1       -1 0.14203392E-02 0.77145677E+02</pdfrwt>
<totfact> 0.22571119E+05</totfact>
</mgrwt>
</event>
<event>
 8    1  0.1493610E-013  0.7961345E+02  0.7818608E-02  0.1330152E+00
          2   -1    0    0  501    0  0.00000000000E+00  0.00000000000E+00  0.15605675102E+03  0.15605675104E+03  0.25500000000E-02 0. -1.
         -1   -1    0    0    0  501 -0.00000000000E+00 -0.00000000000E+00 -0.10153838566E+02  0.10153839817E+02  0.50400000000E-02 0.  1.
         24    2    1    2    0    0 -0.35527136788E-14  0.22204460493E-15  0.14590291245E+03  0.16621059086E+03  0.79613445164E+02 0.  0.
         66    2    3    3    0    0  0.30479410579E+02  0.12004373550E+01  0.12631132455E+03  0.12995763236E+03  0.19999952051E+01 0.  0.
        -13    1    3    3    0    0 -0.30479410579E+02 -0.12004373550E+01  0.19591587907E+02  0.36252958497E+02  0.10566000000E+00 0.  1.
         13    1    4    4    0    0  0.38081785982E+01  0.54499898935E+00  0.16451562756E+02  0.16895689665E+02  0.10566000000E+00 0. -1.
        -13    1    4    4    0    0  0.13680962912E+01  0.33219517736E+00  0.56256776664E+01  0.58001253728E+01  0.10566000000E+00 0.  1.
        -14    1    4    4    0    0  0.25303135689E+02  0.32324318828E+00  0.10423408413E+03  0.10726181732E+03  0.00000000000E+00 0.  1.
<mgrwt>
<rscale>  0 0.79613445E+02</rscale>
<asrwt>0</asrwt>
<pdfrwt beam="1">  1        2 0.24008730E-01 0.79613445E+02</pdfrwt>
<pdfrwt beam="2">  1       -1 0.15621292E-02 0.79613445E+02</pdfrwt>
<totfact> 0.20550773E+05</totfact>
</mgrwt>
</event>
<event>
 8    1  0.1493610E-013  0.8129530E+02  0.7818608E-02  0.1325415E+00
         -1   -1    0    0    0  501 -0.00000000000E+00  0.00000000000E+00  0.21738423419E+01  0.21738481845E+01  0.50400000000E-02 0.  1.
          2   -1    0    0  501    0  0.00000000000E+00 -0.00000000000E+00 -0.76005021365E+03  0.76005021365E+03  0.25500000000E-02 0. -1.
         24    2    1    2    0    0  0.00000000000E+00  0.00000000000E+00 -0.75787637130E+03  0.76222406183E+03  0.81295302809E+02 0.  0.
         66    2    3    3    0    0 -0.32868918232E+02 -0.20640423463E+01 -0.60215007526E+03  0.60305334687E+03  0.19999968492E+01 0.  0.
        -13    1    3    3    0    0  0.32868918232E+02  0.20640423463E+01 -0.15572629605E+03  0.15917071496E+03  0.10566000000E+00 0.  1.
         13    1    4    4    0    0 -0.16226509923E+02 -0.13109166549E+01 -0.31397532639E+03  0.31439709743E+03  0.10566000000E+00 0. -1.
        -13    1    4    4    0    0 -0.14204643770E+02 -0.67283019663E+00 -0.24856660861E+03  0.24897308025E+03  0.10566000000E+00 0.  1.
         14    1    4    4    0    0 -0.24377645381E+01 -0.80295494738E-01 -0.39608140254E+02  0.39683169199E+02  0.00000000000E+00 0. -1.
<mgrwt>
<rscale>  0 0.81295303E+02</rscale>
<asrwt>0</asrwt>
<pdfrwt beam="1">  1        2 0.11693059E+00 0.81295303E+02</pdfrwt>
<pdfrwt beam="2">  1       -1 0.33443834E-03 0.81295303E+02</pdfrwt>
<totfact> 0.32650091E+05</totfact>
</mgrwt>
</event>
<event>
 8    1  0.1493610E-013  0.8932853E+02  0.7818608E-02  0.1304486E+00
         -1   -1    0    0    0  501 -0.00000000000E+00  0.00000000000E+00  0.73125392203E+01  0.73125409571E+01  0.50400000000E-02 0.  1.
          2   -1    0    0  501    0  0.00000000000E+00 -0.00000000000E+00 -0.27280484209E+03  0.27280484210E+03  0.25500000000E-02 0. -1.
         24    2    1    2    0    0  0.35527136788E-14 -0.71054273576E-14 -0.26549230287E+03  0.28011738306E+03  0.89328525168E+02 0.  0.
         66    2    3    3    0    0  0.25182727405E+02 -0.33098264958E+02 -0.18368869953E+03  0.18834862156E+03  0.20000018477E+01 0.  0.
        -13    1    3    3    0    0 -0.25182727405E+02  0.33098264958E+02 -0.81803603338E+02  0.91768761493E+02  0.10566000000E+00 0.  1.
         13    1    4    4    0    0  0.89014362595E+01 -0.11470394380E+02 -0.61743312011E+02  0.63427543361E+02  0.10566000000E+00 0. -1.
        -13    1    4    4    0    0  0.13128483612E+02 -0.17989617367E+02 -0.98462725998E+02  0.10095000243E+03  0.10566000000E+00 0.  1.
        -14    1    4    4    0    0  0.31528075336E+01 -0.36382532115E+01 -0.23482661522E+02  0.23971075777E+02  0.00000000000E+00 0.  1.
<mgrwt>
<rscale>  0 0.89328525E+02</rscale>
<asrwt>0</asrwt>
<pdfrwt beam="1">  1        2 0.41969968E-01 0.89328525E+02</pdfrwt>
<pdfrwt beam="2">  1       -1 0.11250064E-02 0.89328525E+02</pdfrwt>
<totfact> 0.18409428E+05</totfact>
</mgrwt>
</event>
<event>
 8    1  0.1493610E-013  0.8748595E+02  0.7818608E-02  0.1309057E+00
         -1   -1    0    0    0  501 -0.00000000000E+00  0.00000000000E+00  0.87163660027E+01  0.87163674598E+01  0.50400000000E-02 0.  1.
          2   -1    0    0  501    0  0.00000000000E+00 -0.00000000000E+00 -0.21952354183E+03  0.21952354184E+03  0.25500000000E-02 0. -1.
         24    2    1    2    0    0 -0.35527136788E-14  0.71054273576E-14 -0.21080717582E+03  0.22823990930E+03  0.87485946408E+02 0.  0.
         66    2    3    3    0    0  0.26721270695E+02 -0.34355365478E+02 -0.94662314995E+02  0.10420782754E+03  0.19999989939E+01 0.  0.
        -13    1    3    3    0    0 -0.26721270695E+02  0.34355365478E+02 -0.11614486083E+03  0.12403208176E+03  0.10566000000E+00 0.  1.
         13    1    4    4    0    0  0.13260024303E+02 -0.17732913759E+02 -0.48123471613E+02  0.52973240027E+02  0.10566000000E+00 0. -1.
        -13    1    4    4    0    0  0.59969411216E+01 -0.64283414476E+01 -0.18936928517E+02  0.20878345296E+02  0.10566000000E+00 0.  1.
        -14    1    4    4    0    0  0.74643052708E+01 -0.10194110271E+02 -0.27601914865E+02  0.30356242218E+02  0.00000000000E+00 0.  1.
<mgrwt>
<rscale>  0 0.87485946E+02</rscale>
<asrwt>0</asrwt>
<pdfrwt beam="1">  1        2 0.33772848E-01 0.87485946E+02</pdfrwt>
<pdfrwt beam="2">  1       -1 0.13409797E-02 0.87485946E+02</pdfrwt>
<totfact> 0.17985615E+05</totfact>
</mgrwt>
</event>
<event>
 8    1  0.1493610E-013  0.7869196E+02  0.7818608E-02  0.1332805E+00
         -1   -1    0    0    0  501 -0.00000000000E+00  0.00000000000E+00  0.19357318840E+03  0.19357318846E+03  0.50400000000E-02 0.  1.
          2   -1    0    0  501    0  0.00000000000E+00 -0.00000000000E+00 -0.79975241144E+01  0.79975245210E+01  0.25500000000E-02 0. -1.
         24    2    1    2    0    0  0.00000000000E+00 -0.35527136788E-14  0.18557566428E+03  0.20157071298E+03  0.78691963750E+02 0.  0.
         66    2    3    3    0    0  0.27343397491E+02  0.26020590332E+02  0.12106718837E+03  0.12683058229E+03  0.19999991345E+01 0.  0.
        -13    1    3    3    0    0 -0.27343397491E+02 -0.26020590332E+02  0.64508475913E+02  0.74740130695E+02  0.10566000000E+00 0.  1.
         13    1    4    4    0    0  0.50746346952E+01  0.44248503489E+01  0.20134071146E+02  0.21230242647E+02  0.10566000000E+00 0. -1.
        -13    1    4    4    0    0  0.14159361757E+02  0.14402349219E+02  0.64388475770E+02  0.67481865449E+02  0.10566000000E+00 0.  1.
        -14    1    4    4    0    0  0.81094010389E+01  0.71933907642E+01  0.36544641453E+02  0.38118474193E+02  0.00000000000E+00 0.  1.
<mgrwt>
<rscale>  0 0.78691964E+02</rscale>
<asrwt>0</asrwt>
<pdfrwt beam="1">  1        2 0.12303884E-02 0.78691964E+02</pdfrwt>
<pdfrwt beam="2">  1       -1 0.29780490E-01 0.78691964E+02</pdfrwt>
<totfact> 0.10488879E+05</totfact>
</mgrwt>
</event>
<event>
 8    1  0.1493610E-013  0.7979774E+02  0.7818608E-02  0.1329626E+00
          2   -1    0    0  501    0  0.00000000000E+00  0.00000000000E+00  0.55606822137E+02  0.55606822196E+02  0.25500000000E-02 0. -1.
         -1   -1    0    0    0  501 -0.00000000000E+00 -0.00000000000E+00 -0.28628136087E+02  0.28628136531E+02  0.50400000000E-02 0.  1.
         24    2    1    2    0    0  0.35527136788E-14  0.00000000000E+00  0.26978686050E+02  0.84234958727E+02  0.79797736627E+02 0.  0.
         66    2    3    3    0    0 -0.24774688632E+02  0.38201823058E+01  0.46230695027E+02  0.52627522840E+02  0.20000019657E+01 0.  0.
        -13    1    3    3    0    0  0.24774688632E+02 -0.38201823058E+01 -0.19252008977E+02  0.31607435887E+02  0.10566000000E+00 0.  1.
         13    1    4    4    0    0 -0.16463566359E+01  0.23471198466E+00  0.26010197533E+01  0.30890205051E+01  0.10566000000E+00 0. -1.
        -13    1    4    4    0    0 -0.18399409177E+01 -0.35002204973E-01  0.28461590982E+01  0.33909281005E+01  0.10566000000E+00 0.  1.
         14    1    4    4    0    0 -0.21288391079E+02  0.36204725261E+01  0.40783516176E+02  0.46147574234E+02  0.00000000000E+00 0. -1.
<mgrwt>
<rscale>  0 0.79797737E+02</rscale>
<asrwt>0</asrwt>
<pdfrwt beam="1">  1        2 0.85548957E-02 0.79797737E+02</pdfrwt>
<pdfrwt beam="2">  1       -1 0.44043287E-02 0.79797737E+02</pdfrwt>
<totfact> 0.15404662E+05</totfact>
</mgrwt>
</event>
<event>
 8    1  0.1493610E-013  0.8188550E+02  0.7818608E-02  0.1323784E+00
          2   -1    0    0  501    0  0.00000000000E+00  0.00000000000E+00  0.41534136425E+02  0.41534136503E+02  0.25500000000E-02 0. -1.
         -1   -1    0    0    0  501 -0.00000000000E+00 -0.00000000000E+00 -0.40359780598E+02  0.40359780912E+02  0.50400000000E-02 0.  1.
         24    2    1    2    0    0  0.00000000000E+00  0.00000000000E+00  0.11743558271E+01  0.81893917415E+02  0.81885496872E+02 0.  0.
         66    2    3    3    0    0 -0.14157300076E+02 -0.71792952115E+01  0.38305225627E+02  0.41512187867E+02  0.20000014919E+01 0.  0.
        -13    1    3    3    0    0  0.14157300076E+02  0.71792952115E+01 -0.37130869800E+02  0.40381729548E+02  0.10566000000E+00 0.  1.
         13    1    4    4    0    0 -0.38161678233E+01 -0.14411469997E+01  0.98326054473E+01  0.10645719114E+02  0.10566000000E+00 0. -1.
        -13    1    4    4    0    0 -0.34043718577E+00 -0.78780512601E-01  0.45070898243E+00  0.58000557675E+00  0.10566000000E+00 0. -1.
         14    1    4    4    0    0 -0.10000695067E+02 -0.56593676992E+01  0.28021911197E+02  0.30286463176E+02  0.00000000000E+00 0. -1.
<mgrwt>
<rscale>  0 0.81885497E+02</rscale>
<asrwt>0</asrwt>
<pdfrwt beam="1">  1        2 0.63898671E-02 0.81885497E+02</pdfrwt>
<pdfrwt beam="2">  1       -1 0.62091971E-02 0.81885497E+02</pdfrwt>
<totfact> 0.13470233E+05</totfact>
</mgrwt>
</event>
<event>
 8    1  0.1493610E-013  0.8037368E+02  0.7818608E-02  0.1327994E+00
          2   -1    0    0  501    0  0.00000000000E+00  0.00000000000E+00  0.33158554882E+02  0.33158554980E+02  0.25500000000E-02 0. -1.
         -1   -1    0    0    0  501 -0.00000000000E+00 -0.00000000000E+00 -0.48704845448E+02  0.48704845709E+02  0.50400000000E-02 0.  1.
         24    2    1    2    0    0  0.00000000000E+00 -0.35527136788E-14 -0.15546290566E+02  0.81863400688E+02  0.80373684884E+02 0.  0.
         66    2    3    3    0    0 -0.17545925386E+02  0.31063018564E+02  0.11008618381E+02  0.37389307407E+02  0.20000024532E+01 0.  0.
        -13    1    3    3    0    0  0.17545925386E+02 -0.31063018564E+02 -0.26554908948E+02  0.44474093281E+02  0.10566000000E+00 0.  1.
         13    1    4    4    0    0 -0.11564166239E+02  0.19620200245E+02  0.75950647834E+01  0.24007881447E+02  0.10566000000E+00 0. -1.
        -13    1    4    4    0    0 -0.89362819328E+00  0.12169491664E+01  0.30138034034E+00  0.15432209066E+01  0.10566000000E+00 0.  1.
         14    1    4    4    0    0 -0.50881309530E+01  0.10225869152E+02  0.31121732575E+01  0.11838205054E+02  0.00000000000E+00 0. -1.
<mgrwt>
<rscale>  0 0.80373685E+02</rscale>
<asrwt>0</asrwt>
<pdfrwt beam="1">  1        2 0.51013161E-02 0.80373685E+02</pdfrwt>
<pdfrwt beam="2">  1       -1 0.74930532E-02 0.80373685E+02</pdfrwt>
<totfact> 0.13547599E+05</totfact>
</mgrwt>
</event>
<event>
 8    1  0.1493610E-013  0.8033766E+02  0.7818608E-02  0.1328096E+00
          2   -1    0    0  501    0  0.00000000000E+00  0.00000000000E+00  0.21059508177E+03  0.21059508178E+03  0.25500000000E-02 0. -1.
         -1   -1    0    0    0  501 -0.00000000000E+00 -0.00000000000E+00 -0.76617877803E+01  0.76617894380E+01  0.50400000000E-02 0.  1.
         24    2    1    2    0    0 -0.88817841970E-15  0.00000000000E+00  0.20293329399E+03  0.21825687122E+03  0.80337662567E+02 0.  0.
         66    2    3    3    0    0 -0.40153770909E+01 -0.36286933204E+02  0.14688069936E+03  0.15136315475E+03  0.19999994465E+01 0.  0.
        -13    1    3    3    0    0  0.40153770909E+01  0.36286933204E+02  0.56052594632E+02  0.66893716473E+02  0.10566000000E+00 0.  1.
         13    1    4    4    0    0 -0.12675510978E+01 -0.96271058963E+01  0.35864246463E+02  0.37155661642E+02  0.10566000000E+00 0.  1.
        -13    1    4    4    0    0 -0.13128468361E+01 -0.15204770491E+02  0.63938214207E+02  0.65734427909E+02  0.10566000000E+00 0. -1.
         14    1    4    4    0    0 -0.14349791570E+01 -0.11455056816E+02  0.47078238686E+02  0.48473065197E+02  0.00000000000E+00 0. -1.
<mgrwt>
<rscale>  0 0.80337663E+02</rscale>
<asrwt>0</asrwt>
<pdfrwt beam="1">  1        2 0.32399239E-01 0.80337663E+02</pdfrwt>
<pdfrwt beam="2">  1       -1 0.11787369E-02 0.80337663E+02</pdfrwt>
<totfact> 0.22211381E+05</totfact>
</mgrwt>
</event>
<event>
 8    1  0.1493610E-013  0.7705575E+02  0.7818608E-02  0.1337621E+00
          2   -1    0    0  501    0  0.00000000000E+00  0.00000000000E+00  0.47463131552E+03  0.47463131553E+03  0.25500000000E-02 0. -1.
         -1   -1    0    0    0  501 -0.00000000000E+00 -0.00000000000E+00 -0.31274717658E+01  0.31274758269E+01  0.50400000000E-02 0.  1.
         24    2    1    2    0    0  0.00000000000E+00  0.00000000000E+00  0.47150384376E+03  0.47775879136E+03  0.77055746319E+02 0.  0.
         66    2    3    3    0    0  0.57965013143E+01 -0.28554684157E+02  0.39195551565E+03  0.39304210419E+03  0.20000019334E+01 0.  0.
        -13    1    3    3    0    0 -0.57965013143E+01  0.28554684157E+02  0.79548328111E+02  0.84716687164E+02  0.10566000000E+00 0.  1.
         13    1    4    4    0    0  0.26262864798E+01 -0.13316246758E+02  0.17668974972E+03  0.17721032314E+03  0.10566000000E+00 0. -1.
        -13    1    4    4    0    0  0.11478823438E+01 -0.44749902976E+01  0.56426681290E+02  0.56615587055E+02  0.10566000000E+00 0.  1.
        -14    1    4    4    0    0  0.20223324907E+01 -0.10763447101E+02  0.15883908464E+03  0.15921619399E+03  0.00000000000E+00 0.  1.
<mgrwt>
<rscale>  0 0.77055746E+02</rscale>
<asrwt>0</asrwt>
<pdfrwt beam="1">  1        2 0.73020256E-01 0.77055746E+02</pdfrwt>
<pdfrwt beam="2">  1       -1 0.48114947E-03 0.77055746E+02</pdfrwt>
<totfact> 0.33012796E+05</totfact>
</mgrwt>
</event>
<event>
 8    1  0.1493610E-013  0.8018326E+02  0.7818608E-02  0.1328532E+00
          2   -1    0    0  501    0  0.00000000000E+00  0.00000000000E+00  0.67518872963E+03  0.67518872964E+03  0.25500000000E-02 0. -1.
         -1   -1    0    0    0  501 -0.00000000000E+00 -0.00000000000E+00 -0.23805742939E+01  0.23805796291E+01  0.50400000000E-02 0.  1.
         24    2    1    2    0    0 -0.35527136788E-14  0.35527136788E-14  0.67280815534E+03  0.67756930927E+03  0.80183258662E+02 0.  0.
         66    2    3    3    0    0 -0.19947480981E+02  0.26271197518E+02  0.52879924158E+03  0.52983083689E+03  0.19999996785E+01 0.  0.
        -13    1    3    3    0    0  0.19947480981E+02 -0.26271197518E+02  0.14400891375E+03  0.14773847238E+03  0.10566000000E+00 0.  1.
         13    1    4    4    0    0 -0.55667749100E+01  0.84062651755E+01  0.15986825805E+03  0.16018590878E+03  0.10566000000E+00 0. -1.
        -13    1    4    4    0    0 -0.71693623432E+01  0.96738585306E+01  0.19855725868E+03  0.19892204361E+03  0.10566000000E+00 0.  1.
        -14    1    4    4    0    0 -0.72113437282E+01  0.81910738121E+01  0.17037372485E+03  0.17072288449E+03  0.00000000000E+00 0.  1.
<mgrwt>
<rscale>  0 0.80183259E+02</rscale>
<asrwt>0</asrwt>
<pdfrwt beam="1">  1        2 0.10387514E+00 0.80183259E+02</pdfrwt>
<pdfrwt beam="2">  1       -1 0.36624278E-03 0.80183259E+02</pdfrwt>
<totfact> 0.32972015E+05</totfact>
</mgrwt>
</event>
<event>
 8    1  0.1493610E-013  0.7988191E+02  0.7818608E-02  0.1329387E+00
         -1   -1    0    0    0  501 -0.00000000000E+00  0.00000000000E+00  0.46329505512E+01  0.46329532927E+01  0.50400000000E-02 0.  1.
          2   -1    0    0  501    0  0.00000000000E+00 -0.00000000000E+00 -0.34433336580E+03  0.34433336581E+03  0.25500000000E-02 0. -1.
         24    2    1    2    0    0 -0.35527136788E-14  0.00000000000E+00 -0.33970041525E+03  0.34896631910E+03  0.79881911266E+02 0.  0.
         66    2    3    3    0    0 -0.23370868553E+02  0.40636676990E+01 -0.31019659536E+03  0.31110872483E+03  0.19999999632E+01 0.  0.
        -13    1    3    3    0    0  0.23370868553E+02 -0.40636676990E+01 -0.29503819890E+02  0.37857594274E+02  0.10566000000E+00 0.  1.
         13    1    4    4    0    0 -0.37545953788E+01  0.39957949175E+00 -0.46679076362E+02  0.46831655793E+02  0.10566000000E+00 0. -1.
        -13    1    4    4    0    0 -0.18339123672E+01  0.76657110815E+00 -0.23329374052E+02  0.23414135122E+02  0.10566000000E+00 0.  1.
         14    1    4    4    0    0 -0.17782360807E+02  0.28975170991E+01 -0.24018814495E+03  0.24086293391E+03  0.00000000000E+00 0. -1.
<mgrwt>
<rscale>  0 0.79881911E+02</rscale>
<asrwt>0</asrwt>
<pdfrwt beam="1">  1        2 0.52974344E-01 0.79881911E+02</pdfrwt>
<pdfrwt beam="2">  1       -1 0.71276211E-03 0.79881911E+02</pdfrwt>
<totfact> 0.26896560E+05</totfact>
</mgrwt>
</event>
<event>
 8    1  0.1493610E-013  0.8025073E+02  0.7818608E-02  0.1328341E+00
         -1   -1    0    0    0  501 -0.00000000000E+00  0.00000000000E+00  0.51386874743E+01  0.51386899459E+01  0.50400000000E-02 0.  1.
          2   -1    0    0  501    0  0.00000000000E+00 -0.00000000000E+00 -0.31331821497E+03  0.31331821498E+03  0.25500000000E-02 0. -1.
         24    2    1    2    0    0  0.00000000000E+00  0.00000000000E+00 -0.30817952750E+03  0.31845690493E+03  0.80250726649E+02 0.  0.
         66    2    3    3    0    0  0.16789156541E+02 -0.16983098823E+02 -0.28201898453E+03  0.28303534941E+03  0.19999890051E+01 0.  0.
        -13    1    3    3    0    0 -0.16789156541E+02  0.16983098823E+02 -0.26160542961E+02  0.35421555514E+02  0.10566000000E+00 0.  1.
         13    1    4    4    0    0  0.79010178114E+01 -0.77519125075E+01 -0.13213672242E+03  0.13259955809E+03  0.10566000000E+00 0. -1.
        -13    1    4    4    0    0  0.64068995803E+01 -0.75151364586E+01 -0.11438392137E+03  0.11480948685E+03  0.10566000000E+00 0.  1.
        -14    1    4    4    0    0  0.24812391488E+01 -0.17160498568E+01 -0.35498340750E+02  0.35626304478E+02  0.00000000000E+00 0.  1.
<mgrwt>
<rscale>  0 0.80250727E+02</rscale>
<asrwt>0</asrwt>
<pdfrwt beam="1">  1        2 0.48202787E-01 0.80250727E+02</pdfrwt>
<pdfrwt beam="2">  1       -1 0.79056774E-03 0.80250727E+02</pdfrwt>
<totfact> 0.25686688E+05</totfact>
</mgrwt>
</event>
<event>
 8    1  0.1493610E-013  0.8059188E+02  0.7818608E-02  0.1327380E+00
         -1   -1    0    0    0  501 -0.00000000000E+00  0.00000000000E+00  0.57397089092E+01  0.57397111220E+01  0.50400000000E-02 0.  1.
          2   -1    0    0  501    0  0.00000000000E+00 -0.00000000000E+00 -0.28289976264E+03  0.28289976265E+03  0.25500000000E-02 0. -1.
         24    2    1    2    0    0  0.00000000000E+00  0.35527136788E-14 -0.27716005373E+03  0.28863947377E+03  0.80591875745E+02 0.  0.
         66    2    3    3    0    0 -0.30089182763E+02  0.22135951666E+02 -0.19255425529E+03  0.19615427729E+03  0.19999978928E+01 0.  0.
        -13    1    3    3    0    0  0.30089182763E+02 -0.22135951666E+02 -0.84605798437E+02  0.92485196484E+02  0.10566000000E+00 0.  1.
         13    1    4    4    0    0 -0.19267712786E+02  0.13383109576E+02 -0.11984181729E+03  0.12211643916E+03  0.10566000000E+00 0. -1.
        -13    1    4    4    0    0 -0.44398438106E+01  0.32137495322E+01 -0.30260766250E+02  0.30753301241E+02  0.10566000000E+00 0.  1.
         14    1    4    4    0    0 -0.63816261664E+01  0.55390925586E+01 -0.42451671753E+02  0.43284536887E+02  0.00000000000E+00 0. -1.
<mgrwt>
<rscale>  0 0.80591876E+02</rscale>
<asrwt>0</asrwt>
<pdfrwt beam="1">  1        2 0.43523029E-01 0.80591876E+02</pdfrwt>
<pdfrwt beam="2">  1       -1 0.88303254E-03 0.80591876E+02</pdfrwt>
<totfact> 0.24479902E+05</totfact>
</mgrwt>
</event>
<event>
 8    1  0.1493610E-013  0.7514927E+02  0.7818608E-02  0.1343409E+00
         -1   -1    0    0    0  501 -0.00000000000E+00  0.00000000000E+00  0.72862430689E+01  0.72862448120E+01  0.50400000000E-02 0.  1.
          2   -1    0    0  501    0  0.00000000000E+00 -0.00000000000E+00 -0.19376970438E+03  0.19376970439E+03  0.25500000000E-02 0. -1.
         24    2    1    2    0    0  0.00000000000E+00  0.00000000000E+00 -0.18648346131E+03  0.20105594920E+03  0.75149273912E+02 0.  0.
         66    2    3    3    0    0  0.34954031472E+01  0.12102573474E+02 -0.18794182358E+03  0.18837414679E+03  0.20000007662E+01 0.  0.
        -13    1    3    3    0    0 -0.34954031472E+01 -0.12102573474E+02  0.14583622694E+01  0.12681802411E+02  0.10566000000E+00 0.  1.
         13    1    4    4    0    0  0.12212529776E+01  0.37659663522E+01 -0.48457894105E+02  0.48619467568E+02  0.10566000000E+00 0. -1.
        -13    1    4    4    0    0  0.14606432764E+01  0.44470399929E+01 -0.82015139318E+02  0.82148669404E+02  0.10566000000E+00 0.  1.
         14    1    4    4    0    0  0.81350689324E+00  0.38895671289E+01 -0.57468790153E+02  0.57606009822E+02  0.00000000000E+00 0. -1.
<mgrwt>
<rscale>  0 0.75149274E+02</rscale>
<asrwt>0</asrwt>
<pdfrwt beam="1">  1        2 0.29810720E-01 0.75149274E+02</pdfrwt>
<pdfrwt beam="2">  1       -1 0.11209608E-02 0.75149274E+02</pdfrwt>
<totfact> 0.25721655E+05</totfact>
</mgrwt>
</event>
<event>
 8    1  0.1493610E-013  0.7974074E+02  0.7818608E-02  0.1329789E+00
          2   -1    0    0  501    0  0.00000000000E+00  0.00000000000E+00  0.71770633816E+03  0.71770633817E+03  0.25500000000E-02 0. -1.
         -1   -1    0    0    0  501 -0.00000000000E+00 -0.00000000000E+00 -0.22148952181E+01  0.22149009524E+01  0.50400000000E-02 0.  1.
         24    2    1    2    0    0  0.00000000000E+00  0.35527136788E-14  0.71549144295E+03  0.71992123912E+03  0.79740739955E+02 0.  0.
         66    2    3    3    0    0  0.38471173355E+01  0.26856986018E+02  0.62142616139E+03  0.62202135982E+03  0.19999992847E+01 0.  0.
        -13    1    3    3    0    0 -0.38471173355E+01 -0.26856986018E+02  0.94065281554E+02  0.97899879303E+02  0.10566000000E+00 0.  1.
         13    1    4    4    0    0  0.30840494977E+01  0.15822704067E+02  0.36563120456E+03  0.36598641810E+03  0.10566000000E+00 0. -1.
        -13    1    4    4    0    0  0.67101107949E+00  0.74645012159E+01  0.17967158057E+03  0.17982785397E+03  0.10566000000E+00 0.  1.
         14    1    4    4    0    0  0.92056758323E-01  0.35697807349E+01  0.76123376259E+02  0.76207087742E+02  0.00000000000E+00 0. -1.
<mgrwt>
<rscale>  0 0.79740740E+02</rscale>
<asrwt>0</asrwt>
<pdfrwt beam="1">  1        2 0.11041653E+00 0.79740740E+02</pdfrwt>
<pdfrwt beam="2">  1       -1 0.34075302E-03 0.79740740E+02</pdfrwt>
<totfact> 0.33924503E+05</totfact>
</mgrwt>
</event>
<event>
 8    1  0.1493610E-013  0.8305239E+02  0.7818608E-02  0.1320606E+00
          2   -1    0    0  501    0  0.00000000000E+00  0.00000000000E+00  0.19236622566E+03  0.19236622567E+03  0.25500000000E-02 0. -1.
         -1   -1    0    0    0  501 -0.00000000000E+00 -0.00000000000E+00 -0.89642798640E+01  0.89642812808E+01  0.50400000000E-02 0.  1.
         24    2    1    2    0    0  0.00000000000E+00  0.00000000000E+00  0.18340194579E+03  0.20133050695E+03  0.83052388948E+02 0.  0.
         66    2    3    3    0    0  0.32174977456E+02  0.19756563973E+02  0.13352162515E+03  0.13877166629E+03  0.19999967136E+01 0.  0.
        -13    1    3    3    0    0 -0.32174977456E+02 -0.19756563973E+02  0.49880320641E+02  0.62558840667E+02  0.10566000000E+00 0.  1.
         13    1    4    4    0    0  0.23144773823E+02  0.14273346744E+02  0.97390660764E+02  0.10111558214E+03  0.10566000000E+00 0. -1.
        -13    1    4    4    0    0  0.12179421078E+01  0.39478834764E+00  0.42922529438E+01  0.44803839329E+01  0.10566000000E+00 0.  1.
         14    1    4    4    0    0  0.78122615253E+01  0.50884288808E+01  0.31838711444E+02  0.33175700219E+02  0.00000000000E+00 0. -1.
<mgrwt>
<rscale>  0 0.83052389E+02</rscale>
<asrwt>0</asrwt>
<pdfrwt beam="1">  1        2 0.29594805E-01 0.83052389E+02</pdfrwt>
<pdfrwt beam="2">  1       -1 0.13791200E-02 0.83052389E+02</pdfrwt>
<totfact> 0.19710891E+05</totfact>
</mgrwt>
</event>
<event>
 8    1  0.1493610E-013  0.7804143E+02  0.7818608E-02  0.1334703E+00
         -1   -1    0    0    0  501 -0.00000000000E+00  0.00000000000E+00  0.13754471550E+02  0.13754472473E+02  0.50400000000E-02 0.  1.
          2   -1    0    0  501    0  0.00000000000E+00 -0.00000000000E+00 -0.11069972565E+03  0.11069972568E+03  0.25500000000E-02 0. -1.
         24    2    1    2    0    0  0.00000000000E+00  0.00000000000E+00 -0.96945254097E+02  0.12445419815E+03  0.78041432233E+02 0.  0.
         66    2    3    3    0    0 -0.27870100295E+02  0.21215959979E+02 -0.21172168459E+02  0.40977068829E+02  0.20000010739E+01 0.  0.
        -13    1    3    3    0    0  0.27870100295E+02 -0.21215959979E+02 -0.75773085638E+02  0.83477129320E+02  0.10566000000E+00 0.  1.
         13    1    4    4    0    0 -0.10418492324E+02  0.79529080906E+01 -0.80766530193E+01  0.15396013037E+02  0.10566000000E+00 0. -1.
        -13    1    4    4    0    0 -0.40862376016E+01  0.38259097178E+01 -0.29330197345E+01  0.63204977418E+01  0.10566000000E+00 0.  1.
         14    1    4    4    0    0 -0.13365370370E+02  0.94371421703E+01 -0.10162495705E+02  0.19260558050E+02  0.00000000000E+00 0. -1.
<mgrwt>
<rscale>  0 0.78041432E+02</rscale>
<asrwt>0</asrwt>
<pdfrwt beam="1">  1        2 0.17030726E-01 0.78041432E+02</pdfrwt>
<pdfrwt beam="2">  1       -1 0.21160727E-02 0.78041432E+02</pdfrwt>
<totfact> 0.19494946E+05</totfact>
</mgrwt>
</event>
<event>
 8    1  0.1493610E-013  0.7563556E+02  0.7818608E-02  0.1341914E+00
         -1   -1    0    0    0  501 -0.00000000000E+00  0.00000000000E+00  0.37051309040E+01  0.37051343319E+01  0.50400000000E-02 0.  1.
          2   -1    0    0  501    0  0.00000000000E+00 -0.00000000000E+00 -0.38600087075E+03  0.38600087076E+03  0.25500000000E-02 0. -1.
         24    2    1    2    0    0  0.00000000000E+00 -0.44408920985E-15 -0.38229573985E+03  0.38970600509E+03  0.75635558430E+02 0.  0.
         66    2    3    3    0    0 -0.22851396625E+02 -0.33797187433E+01 -0.34538674853E+03  0.34616414442E+03  0.19999991289E+01 0.  0.
        -13    1    3    3    0    0  0.22851396625E+02  0.33797187433E+01 -0.36908991318E+02  0.43541860671E+02  0.10566000000E+00 0.  1.
         13    1    4    4    0    0 -0.51377909081E+01 -0.12948850555E+01 -0.81389196646E+02  0.81561548032E+02  0.10566000000E+00 0. -1.
        -13    1    4    4    0    0 -0.10354668857E+02 -0.10858467203E+01 -0.16325576672E+03  0.16358745294E+03  0.10566000000E+00 0.  1.
        -14    1    4    4    0    0 -0.73589368606E+01 -0.99898696755E+00 -0.10074178517E+03  0.10101514345E+03  0.00000000000E+00 0.  1.
<mgrwt>
<rscale>  0 0.75635558E+02</rscale>
<asrwt>0</asrwt>
<pdfrwt beam="1">  1        2 0.59384718E-01 0.75635558E+02</pdfrwt>
<pdfrwt beam="2">  1       -1 0.57002071E-03 0.75635558E+02</pdfrwt>
<totfact> 0.32294907E+05</totfact>
</mgrwt>
</event>
<event>
 8    1  0.1493610E-013  0.8041788E+02  0.7818608E-02  0.1327870E+00
         -1   -1    0    0    0  501 -0.00000000000E+00  0.00000000000E+00  0.13610098298E+01  0.13610191616E+01  0.50400000000E-02 0.  1.
          2   -1    0    0  501    0  0.00000000000E+00 -0.00000000000E+00 -0.11879070038E+04  0.11879070038E+04  0.25500000000E-02 0. -1.
         24    2    1    2    0    0 -0.17763568394E-14 -0.22204460493E-15 -0.11865459939E+04  0.11892680229E+04  0.80417875119E+02 0.  0.
         66    2    3    3    0    0  0.10905843996E+02  0.15578584369E+01 -0.11651355514E+04  0.11651893484E+04  0.19999996830E+01 0.  0.
        -13    1    3    3    0    0 -0.10905843996E+02 -0.15578584369E+01 -0.21410442516E+02  0.24078674568E+02  0.10566000000E+00 0.  1.
         13    1    4    4    0    0  0.58215562605E+01  0.38680300606E+00 -0.63977870054E+03  0.63980531176E+03  0.10566000000E+00 0. -1.
        -13    1    4    4    0    0  0.34141712403E+01  0.12343872907E+01 -0.38862532842E+03  0.38864229998E+03  0.10566000000E+00 0.  1.
        -14    1    4    4    0    0  0.16701164948E+01 -0.63331859826E-01 -0.13673152245E+03  0.13674173661E+03  0.00000000000E+00 0.  1.
<mgrwt>
<rscale>  0 0.80417875E+02</rscale>
<asrwt>0</asrwt>
<pdfrwt beam="1">  1        2 0.18275409E+00 0.80417875E+02</pdfrwt>
<pdfrwt beam="2">  1       -1 0.20938780E-03 0.80417875E+02</pdfrwt>
<totfact> 0.34604143E+05</totfact>
</mgrwt>
</event>
<event>
 8    1  0.1493610E-013  0.7998173E+02  0.7818608E-02  0.1329103E+00
         -1   -1    0    0    0  501 -0.00000000000E+00  0.00000000000E+00  0.14780874754E+02  0.14780875614E+02  0.50400000000E-02 0.  1.
          2   -1    0    0  501    0  0.00000000000E+00 -0.00000000000E+00 -0.10819855387E+03  0.10819855390E+03  0.25500000000E-02 0. -1.
         24    2    1    2    0    0  0.35527136788E-14  0.35527136788E-14 -0.93417679118E+02  0.12297942952E+03  0.79981731116E+02 0.  0.
         66    2    3    3    0    0 -0.19379847517E+02 -0.27522492721E+02 -0.79865828413E+02  0.86692656210E+02  0.19999993407E+01 0.  0.
        -13    1    3    3    0    0  0.19379847517E+02  0.27522492721E+02 -0.13551850705E+02  0.36286773305E+02  0.10566000000E+00 0.  1.
         13    1    4    4    0    0 -0.68592431844E+01 -0.10596629720E+02 -0.30624585811E+02  0.33124223744E+02  0.10566000000E+00 0.  1.
        -13    1    4    4    0    0 -0.10900408598E+01 -0.19586429746E+01 -0.58997069159E+01  0.63120659935E+01  0.10566000000E+00 0. -1.
         14    1    4    4    0    0 -0.11430563473E+02 -0.14967220027E+02 -0.43341535686E+02  0.47256366473E+02  0.00000000000E+00 0. -1.
<mgrwt>
<rscale>  0 0.79981731E+02</rscale>
<asrwt>0</asrwt>
<pdfrwt beam="1">  1        2 0.16645931E-01 0.79981731E+02</pdfrwt>
<pdfrwt beam="2">  1       -1 0.22739809E-02 0.79981731E+02</pdfrwt>
<totfact> 0.18138123E+05</totfact>
</mgrwt>
</event>
<event>
 8    1  0.1493610E-013  0.7930371E+02  0.7818608E-02  0.1331039E+00
         -1   -1    0    0    0  501 -0.00000000000E+00  0.00000000000E+00  0.11938112689E+02  0.11938113753E+02  0.50400000000E-02 0.  1.
          2   -1    0    0  501    0  0.00000000000E+00 -0.00000000000E+00 -0.13170168365E+03  0.13170168368E+03  0.25500000000E-02 0. -1.
         24    2    1    2    0    0  0.00000000000E+00  0.00000000000E+00 -0.11976357097E+03  0.14363979743E+03  0.79303710353E+02 0.  0.
         66    2    3    3    0    0 -0.96542276913E+01  0.88075795626E+01 -0.12767856856E+03  0.12836118751E+03  0.20000051214E+01 0.  0.
        -13    1    3    3    0    0  0.96542276913E+01 -0.88075795626E+01  0.79149975941E+01  0.15278609918E+02  0.10566000000E+00 0.  1.
         13    1    4    4    0    0 -0.30639302938E+01  0.26594804626E+01 -0.46555394580E+02  0.46731963727E+02  0.10566000000E+00 0. -1.
        -13    1    4    4    0    0 -0.55373552643E+01  0.47134397376E+01 -0.62730485287E+02  0.63150643432E+02  0.10566000000E+00 0.  1.
        -14    1    4    4    0    0 -0.10529421332E+01  0.14346593623E+01 -0.18392688692E+02  0.18478580355E+02  0.00000000000E+00 0.  1.
<mgrwt>
<rscale>  0 0.79303710E+02</rscale>
<asrwt>0</asrwt>
<pdfrwt beam="1">  1        2 0.20261797E-01 0.79303710E+02</pdfrwt>
<pdfrwt beam="2">  1       -1 0.18366329E-02 0.79303710E+02</pdfrwt>
<totfact> 0.19675730E+05</totfact>
</mgrwt>
</event>
<event>
 8    1  0.1493610E-013  0.8212481E+02  0.7818608E-02  0.1323127E+00
         -1   -1    0    0    0  501 -0.00000000000E+00  0.00000000000E+00  0.16636307181E+01  0.16636383525E+01  0.50400000000E-02 0.  1.
          2   -1    0    0  501    0  0.00000000000E+00 -0.00000000000E+00 -0.10135164625E+04  0.10135164625E+04  0.25500000000E-02 0. -1.
         24    2    1    2    0    0  0.00000000000E+00  0.35527136788E-14 -0.10118528318E+04  0.10151801009E+04  0.82124807387E+02 0.  0.
         66    2    3    3    0    0 -0.14105914311E+02 -0.21529732893E+02 -0.90132947586E+03  0.90169913511E+03  0.19999994945E+01 0.  0.
        -13    1    3    3    0    0  0.14105914311E+02  0.21529732893E+02 -0.11052335593E+03  0.11348096575E+03  0.10566000000E+00 0.  1.
         13    1    4    4    0    0 -0.51486214550E+01 -0.89489693472E+01 -0.35585518597E+03  0.35600493943E+03  0.10566000000E+00 0. -1.
        -13    1    4    4    0    0 -0.32124512559E+01 -0.35846155960E+01 -0.16566553441E+03  0.16573548131E+03  0.10566000000E+00 0.  1.
        -14    1    4    4    0    0 -0.57448415997E+01 -0.89961479501E+01 -0.37980875548E+03  0.37995871437E+03  0.00000000000E+00 0.  1.
<mgrwt>
<rscale>  0 0.82124807E+02</rscale>
<asrwt>0</asrwt>
<pdfrwt beam="1">  1        2 0.15592512E+00 0.82124807E+02</pdfrwt>
<pdfrwt beam="2">  1       -1 0.25594458E-03 0.82124807E+02</pdfrwt>
<totfact> 0.32926690E+05</totfact>
</mgrwt>
</event>
<event>
 8    1  0.1493610E-013  0.7974714E+02  0.7818608E-02  0.1329771E+00
          2   -1    0    0  501    0  0.00000000000E+00  0.00000000000E+00  0.24308905259E+03  0.24308905260E+03  0.25500000000E-02 0. -1.
         -1   -1    0    0    0  501 -0.00000000000E+00 -0.00000000000E+00 -0.65404062845E+01  0.65404082264E+01  0.50400000000E-02 0.  1.
         24    2    1    2    0    0  0.00000000000E+00  0.35527136788E-14  0.23654864631E+03  0.24962946083E+03  0.79747135655E+02 0.  0.
         66    2    3    3    0    0 -0.17412279860E+02 -0.17250082853E+02  0.21669772512E+03  0.21808864467E+03  0.20000027900E+01 0.  0.
        -13    1    3    3    0    0  0.17412279860E+02  0.17250082853E+02  0.19850921183E+02  0.31540816163E+02  0.10566000000E+00 0.  1.
         13    1    4    4    0    0 -0.44145327136E+01 -0.46753328619E+01  0.61312419523E+02  0.61648769559E+02  0.10566000000E+00 0. -1.
        -13    1    4    4    0    0 -0.52301382982E+00 -0.41359972146E+00  0.41692216292E+01  0.42235271072E+01  0.10566000000E+00 0.  1.
         14    1    4    4    0    0 -0.12474733316E+02 -0.12161150270E+02  0.15121608397E+03  0.15221634800E+03  0.00000000000E+00 0. -1.
<mgrwt>
<rscale>  0 0.79747136E+02</rscale>
<asrwt>0</asrwt>
<pdfrwt beam="1">  1        2 0.37398317E-01 0.79747136E+02</pdfrwt>
<pdfrwt beam="2">  1       -1 0.10062165E-02 0.79747136E+02</pdfrwt>
<totfact> 0.23827752E+05</totfact>
</mgrwt>
</event>
<event>
 8    1  0.1493610E-013  0.7309804E+02  0.7818608E-02  0.1349864E+00
          2   -1    0    0  501    0  0.00000000000E+00  0.00000000000E+00  0.87607068914E+02  0.87607068951E+02  0.25500000000E-02 0. -1.
         -1   -1    0    0    0  501 -0.00000000000E+00 -0.00000000000E+00 -0.15247978604E+02  0.15247979437E+02  0.50400000000E-02 0.  1.
         24    2    1    2    0    0  0.00000000000E+00  0.00000000000E+00  0.72359090310E+02  0.10285504839E+03  0.73098037104E+02 0.  0.
         66    2    3    3    0    0  0.11206341575E+02  0.87850284916E+01  0.83528661593E+02  0.84757277703E+02  0.19999997669E+01 0.  0.
        -13    1    3    3    0    0 -0.11206341575E+02 -0.87850284916E+01 -0.11169571283E+02  0.18097770685E+02  0.10566000000E+00 0.  1.
         13    1    4    4    0    0  0.12958161816E+01  0.16466685118E+01  0.12391574833E+02  0.12567933308E+02  0.10566000000E+00 0. -1.
        -13    1    4    4    0    0  0.92804400412E+00  0.11508283588E+01  0.80495890402E+01  0.81849080225E+01  0.10566000000E+00 0.  1.
         14    1    4    4    0    0  0.89824813890E+01  0.59875316210E+01  0.63087497720E+02  0.64004436373E+02  0.00000000000E+00 0. -1.
<mgrwt>
<rscale>  0 0.73098037E+02</rscale>
<asrwt>0</asrwt>
<pdfrwt beam="1">  1        2 0.13478011E-01 0.73098037E+02</pdfrwt>
<pdfrwt beam="2">  1       -1 0.23458429E-02 0.73098037E+02</pdfrwt>
<totfact> 0.21757625E+05</totfact>
</mgrwt>
</event>
<event>
 8    1  0.1493610E-013  0.7896010E+02  0.7818608E-02  0.1332029E+00
          2   -1    0    0  501    0  0.00000000000E+00  0.00000000000E+00  0.62418799760E+02  0.62418799812E+02  0.25500000000E-02 0. -1.
         -1   -1    0    0    0  501 -0.00000000000E+00 -0.00000000000E+00 -0.24971234898E+02  0.24971235407E+02  0.50400000000E-02 0.  1.
         24    2    1    2    0    0  0.35527136788E-14  0.00000000000E+00  0.37447564861E+02  0.87390035219E+02  0.78960104746E+02 0.  0.
         66    2    3    3    0    0  0.17812640734E+02  0.34679482918E+02  0.12029762954E+02  0.40849380698E+02  0.20000003201E+01 0.  0.
        -13    1    3    3    0    0 -0.17812640734E+02 -0.34679482918E+02  0.25417801907E+02  0.46540654521E+02  0.10566000000E+00 0.  1.
         13    1    4    4    0    0  0.95499722460E+01  0.16564256660E+02  0.57567586954E+01  0.19968174762E+02  0.10566000000E+00 0. -1.
        -13    1    4    4    0    0  0.29941782457E+01  0.70539574952E+01  0.25131341065E+01  0.80653844783E+01  0.10566000000E+00 0.  1.
         14    1    4    4    0    0  0.52684902423E+01  0.11061268763E+02  0.37598701521E+01  0.12815821458E+02  0.00000000000E+00 0. -1.
<mgrwt>
<rscale>  0 0.78960105E+02</rscale>
<asrwt>0</asrwt>
<pdfrwt beam="1">  1        2 0.96028922E-02 0.78960105E+02</pdfrwt>
<pdfrwt beam="2">  1       -1 0.38417286E-02 0.78960105E+02</pdfrwt>
<totfact> 0.16277939E+05</totfact>
</mgrwt>
</event>
<event>
 8    1  0.1493610E-013  0.8134785E+02  0.7818608E-02  0.1325269E+00
          2   -1    0    0  501    0  0.00000000000E+00  0.00000000000E+00  0.20990608600E+03  0.20990608601E+03  0.25500000000E-02 0. -1.
         -1   -1    0    0    0  501 -0.00000000000E+00 -0.00000000000E+00 -0.78814673487E+01  0.78814689601E+01  0.50400000000E-02 0.  1.
         24    2    1    2    0    0  0.00000000000E+00  0.00000000000E+00  0.20202461865E+03  0.21778755497E+03  0.81347849148E+02 0.  0.
         66    2    3    3    0    0 -0.12679092635E+02  0.95972021234E+01  0.20122829137E+03  0.20186552684E+03  0.20000003899E+01 0.  0.
        -13    1    3    3    0    0  0.12679092635E+02 -0.95972021234E+01  0.79632728067E+00  0.15922028131E+02  0.10566000000E+00 0.  1.
         13    1    4    4    0    0 -0.65541397889E+00  0.78445782898E+00  0.17995865219E+02  0.18025184343E+02  0.10566000000E+00 0.  1.
        -13    1    4    4    0    0 -0.45191585078E+01  0.27958435650E+01  0.67334551874E+02  0.67544004730E+02  0.10566000000E+00 0. -1.
         14    1    4    4    0    0 -0.75045201480E+01  0.60169007294E+01  0.11589787428E+03  0.11629633777E+03  0.00000000000E+00 0. -1.
<mgrwt>
<rscale>  0 0.81347849E+02</rscale>
<asrwt>0</asrwt>
<pdfrwt beam="1">  1        2 0.32293242E-01 0.81347849E+02</pdfrwt>
<pdfrwt beam="2">  1       -1 0.12125336E-02 0.81347849E+02</pdfrwt>
<totfact> 0.21466114E+05</totfact>
</mgrwt>
</event>
<event>
 8    1  0.1493610E-013  0.8004217E+02  0.7818608E-02  0.1328932E+00
         -1   -1    0    0    0  501 -0.00000000000E+00  0.00000000000E+00  0.96100076808E+00  0.96101398421E+00  0.50400000000E-02 0.  1.
          2   -1    0    0  501    0  0.00000000000E+00 -0.00000000000E+00 -0.16666753622E+04  0.16666753622E+04  0.25500000000E-02 0. -1.
         24    2    1    2    0    0 -0.88817841970E-15  0.17763568394E-14 -0.16657143615E+04  0.16676363762E+04  0.80042172002E+02 0.  0.
         66    2    3    3    0    0 -0.43665662223E+01  0.15013350208E+02 -0.16003601679E+04  0.16004377946E+04  0.19999854386E+01 0.  0.
        -13    1    3    3    0    0  0.43665662223E+01 -0.15013350208E+02 -0.65354193564E+02  0.67198581573E+02  0.10566000000E+00 0.  1.
         13    1    4    4    0    0 -0.29072345692E+01  0.10594432529E+02 -0.11720078150E+04  0.11720593089E+04  0.10566000000E+00 0. -1.
        -13    1    4    4    0    0 -0.87186311130E+00  0.36897882315E+01 -0.33789660872E+03  0.33791789540E+03  0.10566000000E+00 0.  1.
         14    1    4    4    0    0 -0.58746854181E+00  0.72912944728E+00 -0.90455744196E+02  0.90460590354E+02  0.00000000000E+00 0. -1.
<mgrwt>
<rscale>  0 0.80042172E+02</rscale>
<asrwt>0</asrwt>
<pdfrwt beam="1">  1        2 0.25640928E+00 0.80042172E+02</pdfrwt>
<pdfrwt beam="2">  1       -1 0.14784862E-03 0.80042172E+02</pdfrwt>
<totfact> 0.31642346E+05</totfact>
</mgrwt>
</event>
<event>
 8    1  0.1493610E-013  0.7526517E+02  0.7818608E-02  0.1343052E+00
          2   -1    0    0  501    0  0.00000000000E+00  0.00000000000E+00  0.54090137576E+03  0.54090137577E+03  0.25500000000E-02 0. -1.
         -1   -1    0    0    0  501 -0.00000000000E+00 -0.00000000000E+00 -0.26182409945E+01  0.26182458454E+01  0.50400000000E-02 0.  1.
         24    2    1    2    0    0  0.00000000000E+00  0.00000000000E+00  0.53828313477E+03  0.54351962161E+03  0.75265170588E+02 0.  0.
         66    2    3    3    0    0  0.76703429152E+01 -0.34453300940E+02  0.36302643266E+03  0.36474382095E+03  0.20000008679E+01 0.  0.
        -13    1    3    3    0    0 -0.76703429152E+01  0.34453300940E+02  0.17525670210E+03  0.17877580066E+03  0.10566000000E+00 0.  1.
         13    1    4    4    0    0  0.48004087929E+01 -0.19032561386E+02  0.20213259145E+03  0.20308342622E+03  0.10566000000E+00 0. -1.
        -13    1    4    4    0    0  0.18373646234E+01 -0.70598056961E+01  0.72822626572E+02  0.73187176951E+02  0.10566000000E+00 0.  1.
        -14    1    4    4    0    0  0.10325694989E+01 -0.83609338573E+01  0.88071214643E+02  0.88473217775E+02  0.00000000000E+00 0.  1.
<mgrwt>
<rscale>  0 0.75265171E+02</rscale>
<asrwt>0</asrwt>
<pdfrwt beam="1">  1        2 0.83215709E-01 0.75265171E+02</pdfrwt>
<pdfrwt beam="2">  1       -1 0.40280613E-03 0.75265171E+02</pdfrwt>
<totfact> 0.36561342E+05</totfact>
</mgrwt>
</event>
<event>
 8    1  0.1493610E-013  0.7998509E+02  0.7818608E-02  0.1329094E+00
         -1   -1    0    0    0  501 -0.00000000000E+00  0.00000000000E+00  0.55828164518E+01  0.55828187268E+01  0.50400000000E-02 0.  1.
          2   -1    0    0  501    0  0.00000000000E+00 -0.00000000000E+00 -0.28648683580E+03  0.28648683581E+03  0.25500000000E-02 0. -1.
         24    2    1    2    0    0  0.00000000000E+00 -0.17763568394E-14 -0.28090401935E+03  0.29206965454E+03  0.79985092462E+02 0.  0.
         66    2    3    3    0    0  0.82190630744E+01 -0.13324425098E+02 -0.27482064935E+03  0.27527346876E+03  0.19999989143E+01 0.  0.
        -13    1    3    3    0    0 -0.82190630744E+01  0.13324425098E+02 -0.60833700031E+01  0.16796185776E+02  0.10566000000E+00 0.  1.
         13    1    4    4    0    0  0.53354950722E+01 -0.88234088895E+01 -0.19348496517E+03  0.19375954934E+03  0.10566000000E+00 0. -1.
        -13    1    4    4    0    0  0.73987750116E+00 -0.99319093394E+00 -0.22998531668E+02  0.23032096515E+02  0.10566000000E+00 0.  1.
         14    1    4    4    0    0  0.21436905010E+01 -0.35078252744E+01 -0.58337152513E+02  0.58481822907E+02  0.00000000000E+00 0. -1.
<mgrwt>
<rscale>  0 0.79985092E+02</rscale>
<asrwt>0</asrwt>
<pdfrwt beam="1">  1        2 0.44074886E-01 0.79985092E+02</pdfrwt>
<pdfrwt beam="2">  1       -1 0.85889524E-03 0.79985092E+02</pdfrwt>
<totfact> 0.25084636E+05</totfact>
</mgrwt>
</event>
<event>
 8    1  0.1493610E-013  0.8461189E+02  0.7818608E-02  0.1316451E+00
         -1   -1    0    0    0  501 -0.00000000000E+00  0.00000000000E+00  0.13068053134E+03  0.13068053144E+03  0.50400000000E-02 0.  1.
          2   -1    0    0  501    0  0.00000000000E+00 -0.00000000000E+00 -0.13695941306E+02  0.13695941544E+02  0.25500000000E-02 0. -1.
         24    2    1    2    0    0  0.00000000000E+00 -0.71054273576E-14  0.11698459004E+03  0.14437647298E+03  0.84611888321E+02 0.  0.
         66    2    3    3    0    0 -0.15009787352E+02 -0.38236715987E+02  0.41423350144E+02  0.58371517871E+02  0.19999988941E+01 0.  0.
        -13    1    3    3    0    0  0.15009787352E+02  0.38236715987E+02  0.75561239893E+02  0.86004955113E+02  0.10566000000E+00 0.  1.
         13    1    4    4    0    0 -0.74949296489E+00 -0.16166591098E+01  0.20859776749E+01  0.27455041937E+01  0.10566000000E+00 0. -1.
        -13    1    4    4    0    0 -0.28145443759E+01 -0.89873443192E+01  0.96581140861E+01  0.13490157512E+02  0.10566000000E+00 0. -1.
         14    1    4    4    0    0 -0.11445750011E+02 -0.27632712558E+02  0.29679258383E+02  0.42135856165E+02  0.00000000000E+00 0. -1.
<mgrwt>
<rscale>  0 0.84611888E+02</rscale>
<asrwt>0</asrwt>
<pdfrwt beam="1">  1        2 0.21070679E-02 0.84611888E+02</pdfrwt>
<pdfrwt beam="2">  1       -1 0.20104698E-01 0.84611888E+02</pdfrwt>
<totfact> 0.96911269E+04</totfact>
</mgrwt>
</event>
<event>
 8    1  0.1493610E-013  0.8024528E+02  0.7818608E-02  0.1328357E+00
         -1   -1    0    0    0  501 -0.00000000000E+00  0.00000000000E+00  0.40906052922E+02  0.40906053233E+02  0.50400000000E-02 0.  1.
          2   -1    0    0  501    0  0.00000000000E+00 -0.00000000000E+00 -0.39354227118E+02  0.39354227200E+02  0.25500000000E-02 0. -1.
         24    2    1    2    0    0  0.44408920985E-15  0.35527136788E-14  0.15518258045E+01  0.80260280433E+02  0.80245276820E+02 0.  0.
         66    2    3    3    0    0 -0.36582114977E+01 -0.30079702678E+02 -0.25489707011E+02  0.39647146036E+02  0.20000001757E+01 0.  0.
        -13    1    3    3    0    0  0.36582114977E+01  0.30079702678E+02  0.27041532815E+02  0.40613134398E+02  0.10566000000E+00 0.  1.
         13    1    4    4    0    0 -0.18347001891E+01 -0.14026123247E+02 -0.11166058216E+02  0.18021938803E+02  0.10566000000E+00 0. -1.
        -13    1    4    4    0    0 -0.18893440636E+00 -0.66199874355E+01 -0.56326336053E+01  0.86946912092E+01  0.10566000000E+00 0.  1.
        -14    1    4    4    0    0 -0.16345769022E+01 -0.94335919958E+01 -0.86910151899E+01  0.12930516023E+02  0.00000000000E+00 0.  1.
<mgrwt>
<rscale>  0 0.80245277E+02</rscale>
<asrwt>0</asrwt>
<pdfrwt beam="1">  1        2 0.60544965E-02 0.80245277E+02</pdfrwt>
<pdfrwt beam="2">  1       -1 0.62932390E-02 0.80245277E+02</pdfrwt>
<totfact> 0.14087853E+05</totfact>
</mgrwt>
</event>
<event>
 8    1  0.1493610E-013  0.7984151E+02  0.7818608E-02  0.1329502E+00
         -1   -1    0    0    0  501 -0.00000000000E+00  0.00000000000E+00  0.34106380578E+01  0.34106417817E+01  0.50400000000E-02 0.  1.
          2   -1    0    0  501    0  0.00000000000E+00 -0.00000000000E+00 -0.46726319261E+03  0.46726319262E+03  0.25500000000E-02 0. -1.
         24    2    1    2    0    0  0.35527136788E-14  0.00000000000E+00 -0.46385255455E+03  0.47067383440E+03  0.79841505641E+02 0.  0.
         66    2    3    3    0    0 -0.19269842997E+02  0.34073736167E+02 -0.27747333392E+03  0.28022811669E+03  0.20000005728E+01 0.  0.
        -13    1    3    3    0    0  0.19269842997E+02 -0.34073736167E+02 -0.18637922063E+03  0.19044571771E+03  0.10566000000E+00 0.  1.
         13    1    4    4    0    0 -0.15067359289E+02  0.27861727504E+02 -0.22304324351E+03  0.22528115948E+03  0.10566000000E+00 0. -1.
        -13    1    4    4    0    0 -0.61942062164E+00  0.84600762326E+00 -0.88197872959E+01  0.88825234470E+01  0.10566000000E+00 0. -1.
         14    1    4    4    0    0 -0.35830630865E+01  0.53660010399E+01 -0.45610303111E+02  0.46064433765E+02  0.00000000000E+00 0. -1.
<mgrwt>
<rscale>  0 0.79841506E+02</rscale>
<asrwt>0</asrwt>
<pdfrwt beam="1">  1        2 0.71886594E-01 0.79841506E+02</pdfrwt>
<pdfrwt beam="2">  1       -1 0.52471421E-03 0.79841506E+02</pdfrwt>
<totfact> 0.29943935E+05</totfact>
</mgrwt>
</event>
<event>
 8    1  0.1564338E-013  0.8052430E+02  0.7818608E-02  0.1327570E+00
          2   -1    0    0  501    0  0.00000000000E+00  0.00000000000E+00  0.15601488085E+03  0.15601488087E+03  0.25500000000E-02 0. -1.
         -1   -1    0    0    0  501 -0.00000000000E+00 -0.00000000000E+00 -0.10390294058E+02  0.10390295280E+02  0.50400000000E-02 0.  1.
         24    2    1    2    0    0  0.00000000000E+00  0.00000000000E+00  0.14562458679E+03  0.16640517615E+03  0.80524296777E+02 0.  0.
         66    2    3    3    0    0  0.33308192488E+02  0.83969622083E+01  0.11616000075E+03  0.12114904225E+03  0.20000005921E+01 0.  0.
        -13    1    3    3    0    0 -0.33308192488E+02 -0.83969622083E+01  0.29464586043E+02  0.45256133904E+02  0.10566000000E+00 0.  1.
         13    1    4    4    0    0  0.13530850470E+01  0.51862833941E+00  0.56241530597E+01  0.58087930049E+01  0.10566000000E+00 0.  1.
        -13    1    4    4    0    0  0.22635293291E+00  0.59305534112E-01  0.66696244813E+00  0.71467177042E+00  0.10566000000E+00 0. -1.
         14    1    4    4    0    0  0.31728754508E+02  0.78190283348E+01  0.10986888524E+03  0.11462557747E+03  0.00000000000E+00 0. -1.
<mgrwt>
<rscale>  0 0.80524297E+02</rscale>
<asrwt>0</asrwt>
<pdfrwt beam="1">  1        2 0.24002288E-01 0.80524297E+02</pdfrwt>
<pdfrwt beam="2">  1       -1 0.15985070E-02 0.80524297E+02</pdfrwt>
<totfact> 0.19938384E+05</totfact>
</mgrwt>
</event>
<event>
 8    1  0.1493610E-013  0.7451094E+02  0.7818608E-02  0.1345392E+00
          2   -1    0    0  501    0  0.00000000000E+00  0.00000000000E+00  0.11048257851E+02  0.11048258145E+02  0.25500000000E-02 0. -1.
         -1   -1    0    0    0  501 -0.00000000000E+00 -0.00000000000E+00 -0.12562794697E+03  0.12562794707E+03  0.50400000000E-02 0.  1.
         24    2    1    2    0    0  0.00000000000E+00 -0.44408920985E-15 -0.11457968912E+03  0.13667620522E+03  0.74510938216E+02 0.  0.
         66    2    3    3    0    0  0.35654408463E+02  0.38326319772E+01 -0.38984304075E+02  0.53006621050E+02  0.20000000317E+01 0.  0.
        -13    1    3    3    0    0 -0.35654408463E+02 -0.38326319772E+01 -0.75595385045E+02  0.83669584168E+02  0.10566000000E+00 0.  1.
         13    1    4    4    0    0  0.54581334107E+01  0.67884499555E+00 -0.63218634728E+01  0.83802847602E+01  0.10566000000E+00 0. -1.
        -13    1    4    4    0    0  0.74620930767E+01  0.10722098195E+01 -0.91158222134E+01  0.11829701841E+02  0.10566000000E+00 0.  1.
        -14    1    4    4    0    0  0.22734181976E+02  0.20815771621E+01 -0.23546618389E+02  0.32796634449E+02  0.00000000000E+00 0.  1.
<mgrwt>
<rscale>  0 0.74510938E+02</rscale>
<asrwt>0</asrwt>
<pdfrwt beam="1">  1        2 0.16997321E-02 0.74510938E+02</pdfrwt>
<pdfrwt beam="2">  1       -1 0.19327376E-01 0.74510938E+02</pdfrwt>
<totfact> 0.13465685E+05</totfact>
</mgrwt>
</event>
<event>
 8    1  0.1493610E-013  0.8006873E+02  0.7818608E-02  0.1328857E+00
         -1   -1    0    0    0  501 -0.00000000000E+00  0.00000000000E+00  0.18548552792E+01  0.18548621265E+01  0.50400000000E-02 0.  1.
          2   -1    0    0  501    0  0.00000000000E+00 -0.00000000000E+00 -0.86408212854E+03  0.86408212854E+03  0.25500000000E-02 0. -1.
         24    2    1    2    0    0 -0.35527136788E-14  0.35527136788E-14 -0.86222727326E+03  0.86593699067E+03  0.80068727080E+02 0.  0.
         66    2    3    3    0    0  0.26479894040E+02 -0.12628343907E+02 -0.72559652319E+03  0.72619210565E+03  0.19999990422E+01 0.  0.
        -13    1    3    3    0    0 -0.26479894040E+02  0.12628343907E+02 -0.13663075007E+03  0.13974488501E+03  0.10566000000E+00 0.  1.
         13    1    4    4    0    0  0.12669539209E+02 -0.71045948280E+01 -0.35524170738E+03  0.35553856939E+03  0.10566000000E+00 0. -1.
        -13    1    4    4    0    0  0.89660556137E+01 -0.35030198049E+01 -0.23643287388E+03  0.23662877322E+03  0.10566000000E+00 0.  1.
         14    1    4    4    0    0  0.48442992168E+01 -0.20207292741E+01 -0.13392194192E+03  0.13402476305E+03  0.00000000000E+00 0. -1.
<mgrwt>
<rscale>  0 0.80068727E+02</rscale>
<asrwt>0</asrwt>
<pdfrwt beam="1">  1        2 0.13293539E+00 0.80068727E+02</pdfrwt>
<pdfrwt beam="2">  1       -1 0.28536357E-03 0.80068727E+02</pdfrwt>
<totfact> 0.34696323E+05</totfact>
</mgrwt>
</event>
<event>
 8    1  0.1493610E-013  0.7933368E+02  0.7818608E-02  0.1330953E+00
         -1   -1    0    0    0  501 -0.00000000000E+00  0.00000000000E+00  0.44509631695E+02  0.44509631980E+02  0.50400000000E-02 0.  1.
          2   -1    0    0  501    0  0.00000000000E+00 -0.00000000000E+00 -0.35350958212E+02  0.35350958304E+02  0.25500000000E-02 0. -1.
         24    2    1    2    0    0  0.00000000000E+00  0.00000000000E+00  0.91586734832E+01  0.79860590284E+02  0.79333678729E+02 0.  0.
         66    2    3    3    0    0  0.19294270390E+02 -0.12667435857E+02 -0.27861003521E+02  0.36234904609E+02  0.19999984396E+01 0.  0.
        -13    1    3    3    0    0 -0.19294270390E+02  0.12667435857E+02  0.37019677005E+02  0.43625685675E+02  0.10566000000E+00 0.  1.
         13    1    4    4    0    0  0.96893632037E+01 -0.64821713257E+01 -0.13302054794E+02  0.17687796080E+02  0.10566000000E+00 0. -1.
        -13    1    4    4    0    0  0.95804525372E+01 -0.60330184404E+01 -0.14238061105E+02  0.18191094810E+02  0.10566000000E+00 0.  1.
        -14    1    4    4    0    0  0.24454648698E-01 -0.15224609103E+00 -0.32088762258E+00  0.35601371940E+00  0.00000000000E+00 0.  1.
<mgrwt>
<rscale>  0 0.79333679E+02</rscale>
<asrwt>0</asrwt>
<pdfrwt beam="1">  1        2 0.54386090E-02 0.79333679E+02</pdfrwt>
<pdfrwt beam="2">  1       -1 0.68476357E-02 0.79333679E+02</pdfrwt>
<totfact> 0.14228667E+05</totfact>
</mgrwt>
</event>
<event>
 8    1  0.1493610E-013  0.8107777E+02  0.7818608E-02  0.1326020E+00
          2   -1    0    0  501    0  0.00000000000E+00  0.00000000000E+00  0.28221514322E+03  0.28221514323E+03  0.25500000000E-02 0. -1.
         -1   -1    0    0    0  501 -0.00000000000E+00 -0.00000000000E+00 -0.58232196796E+01  0.58232218607E+01  0.50400000000E-02 0.  1.
         24    2    1    2    0    0 -0.71054273576E-14 -0.88817841970E-15  0.27639192354E+03  0.28803836509E+03  0.81077767400E+02 0.  0.
         66    2    3    3    0    0 -0.40124527923E+02 -0.42493177656E+01  0.12529371553E+03  0.13164554533E+03  0.20000034051E+01 0.  0.
        -13    1    3    3    0    0  0.40124527923E+02  0.42493177656E+01  0.15109820801E+03  0.15639281976E+03  0.10566000000E+00 0.  1.
         13    1    4    4    0    0 -0.33721054433E+01 -0.83582719496E+00  0.10787177316E+02  0.11333316404E+02  0.10566000000E+00 0.  1.
        -13    1    4    4    0    0 -0.30331877986E+02 -0.28750857777E+01  0.93350589725E+02  0.98196907825E+02  0.10566000000E+00 0. -1.
        -14    1    4    4    0    0 -0.64205444941E+01 -0.53840479294E+00  0.21155948484E+02  0.22115321105E+02  0.00000000000E+00 0.  1.
<mgrwt>
<rscale>  0 0.81077767E+02</rscale>
<asrwt>0</asrwt>
<pdfrwt beam="1">  1        2 0.43417707E-01 0.81077767E+02</pdfrwt>
<pdfrwt beam="2">  1       -1 0.89588027E-03 0.81077767E+02</pdfrwt>
<totfact> 0.24075258E+05</totfact>
</mgrwt>
</event>
<event>
 8    1  0.1493610E-013  0.8007982E+02  0.7818608E-02  0.1328825E+00
         -1   -1    0    0    0  501 -0.00000000000E+00  0.00000000000E+00  0.82585619518E+01  0.82585634897E+01  0.50400000000E-02 0.  1.
          2   -1    0    0  501    0  0.00000000000E+00 -0.00000000000E+00 -0.19412511355E+03  0.19412511356E+03  0.25500000000E-02 0. -1.
         24    2    1    2    0    0 -0.35527136788E-14 -0.17763568394E-14 -0.18586655159E+03  0.20238367705E+03  0.80079821027E+02 0.  0.
         66    2    3    3    0    0 -0.31404069197E+02 -0.14844111134E+02 -0.14319589847E+03  0.14736223578E+03  0.19999995610E+01 0.  0.
        -13    1    3    3    0    0  0.31404069197E+02  0.14844111134E+02 -0.42670653123E+02  0.55021441271E+02  0.10566000000E+00 0.  1.
         13    1    4    4    0    0 -0.91772705369E+01 -0.42521234873E+01 -0.45444358086E+02  0.46556457066E+02  0.10566000000E+00 0.  1.
        -13    1    4    4    0    0 -0.12742681726E+02 -0.63027914033E+01 -0.56119493056E+02  0.57892225575E+02  0.10566000000E+00 0. -1.
         14    1    4    4    0    0 -0.94841169343E+01 -0.42891962433E+01 -0.41632047329E+02  0.42913553141E+02  0.00000000000E+00 0. -1.
<mgrwt>
<rscale>  0 0.80079821E+02</rscale>
<asrwt>0</asrwt>
<pdfrwt beam="1">  1        2 0.29865399E-01 0.80079821E+02</pdfrwt>
<pdfrwt beam="2">  1       -1 0.12705483E-02 0.80079821E+02</pdfrwt>
<totfact> 0.21774596E+05</totfact>
</mgrwt>
</event>
<event>
 8    1  0.1493610E-013  0.7931232E+02  0.7818608E-02  0.1331014E+00
          2   -1    0    0  501    0  0.00000000000E+00  0.00000000000E+00  0.22952392167E+02  0.22952392308E+02  0.25500000000E-02 0. -1.
         -1   -1    0    0    0  501 -0.00000000000E+00 -0.00000000000E+00 -0.68516217024E+02  0.68516217209E+02  0.50400000000E-02 0.  1.
         24    2    1    2    0    0  0.00000000000E+00 -0.88817841970E-15 -0.45563824857E+02  0.91468609517E+02  0.79312321813E+02 0.  0.
         66    2    3    3    0    0  0.13384971242E+02 -0.71660595758E+01  0.19421812367E+02  0.24732906371E+02  0.19999992417E+01 0.  0.
        -13    1    3    3    0    0 -0.13384971242E+02  0.71660595758E+01 -0.64985637224E+02  0.66735703146E+02  0.10566000000E+00 0.  1.
         13    1    4    4    0    0  0.11773408210E+01 -0.37038719551E+00  0.21747997327E+01  0.25028455798E+01  0.10566000000E+00 0. -1.
        -13    1    4    4    0    0  0.72550917945E+00 -0.54264949669E+00  0.15791874522E+01  0.18236855789E+01  0.10566000000E+00 0.  1.
         14    1    4    4    0    0  0.11482121241E+02 -0.62530228836E+01  0.15667825182E+02  0.20406375212E+02  0.00000000000E+00 0. -1.
<mgrwt>
<rscale>  0 0.79312322E+02</rscale>
<asrwt>0</asrwt>
<pdfrwt beam="1">  1        2 0.35311373E-02 0.79312322E+02</pdfrwt>
<pdfrwt beam="2">  1       -1 0.10540956E-01 0.79312322E+02</pdfrwt>
<totfact> 0.13080002E+05</totfact>
</mgrwt>
</event>
<event>
 8    1  0.1493610E-013  0.8797540E+02  0.7818608E-02  0.1307830E+00
         -1   -1    0    0    0  501 -0.00000000000E+00  0.00000000000E+00  0.32843463723E+03  0.32843463727E+03  0.50400000000E-02 0.  1.
          2   -1    0    0  501    0  0.00000000000E+00 -0.00000000000E+00 -0.58913320620E+01  0.58913326138E+01  0.25500000000E-02 0. -1.
         24    2    1    2    0    0 -0.17763568394E-14  0.00000000000E+00  0.32254330517E+03  0.33432596988E+03  0.87975396726E+02 0.  0.
         66    2    3    3    0    0  0.15708009113E+02 -0.39121172368E+02  0.11393494036E+03  0.12150052801E+03  0.19999983393E+01 0.  0.
        -13    1    3    3    0    0 -0.15708009113E+02  0.39121172368E+02  0.20860836481E+03  0.21282544187E+03  0.10566000000E+00 0.  1.
         13    1    4    4    0    0  0.43900168423E+01 -0.10298543036E+02  0.30116765369E+02  0.32130405489E+02  0.10566000000E+00 0. -1.
        -13    1    4    4    0    0  0.11213237881E+02 -0.27817838703E+02  0.81368519962E+02  0.86720332441E+02  0.10566000000E+00 0.  1.
        -14    1    4    4    0    0  0.10475438942E+00 -0.10047906290E+01  0.24496550298E+01  0.26497900776E+01  0.00000000000E+00 0.  1.
<mgrwt>
<rscale>  0 0.87975397E+02</rscale>
<asrwt>0</asrwt>
<pdfrwt beam="1">  1        2 0.90635857E-03 0.87975397E+02</pdfrwt>
<pdfrwt beam="2">  1       -1 0.50528420E-01 0.87975397E+02</pdfrwt>
<totfact> 0.65153448E+04</totfact>
</mgrwt>
</event>
<event>
 8    1  0.1493610E-013  0.8473905E+02  0.7818608E-02  0.1316116E+00
         -1   -1    0    0    0  501 -0.00000000000E+00  0.00000000000E+00  0.37276966664E+01  0.37277000736E+01  0.50400000000E-02 0.  1.
          2   -1    0    0  501    0  0.00000000000E+00 -0.00000000000E+00 -0.48157774838E+03  0.48157774838E+03  0.25500000000E-02 0. -1.
         24    2    1    2    0    0 -0.35527136788E-14  0.00000000000E+00 -0.47785005171E+03  0.48530544846E+03  0.84739048747E+02 0.  0.
         66    2    3    3    0    0 -0.27639837036E+02 -0.23254400760E+01 -0.42230600147E+03  0.42322066011E+03  0.20000009071E+01 0.  0.
        -13    1    3    3    0    0  0.27639837036E+02  0.23254400760E+01 -0.55544050240E+02  0.62084788347E+02  0.10566000000E+00 0.  1.
         13    1    4    4    0    0 -0.10896074250E+02 -0.13024327991E+01 -0.15832533570E+03  0.15870521054E+03  0.10566000000E+00 0. -1.
        -13    1    4    4    0    0 -0.85577194252E+01 -0.19894644606E+00 -0.12760843201E+03  0.12789525881E+03  0.10566000000E+00 0.  1.
        -14    1    4    4    0    0 -0.81860433615E+01 -0.82406083088E+00 -0.13637223376E+03  0.13662019076E+03  0.00000000000E+00 0.  1.
<mgrwt>
<rscale>  0 0.84739049E+02</rscale>
<asrwt>0</asrwt>
<pdfrwt beam="1">  1        2 0.74088835E-01 0.84739049E+02</pdfrwt>
<pdfrwt beam="2">  1       -1 0.57349244E-03 0.84739049E+02</pdfrwt>
<totfact> 0.25882815E+05</totfact>
</mgrwt>
</event>
<event>
 8    1  0.1493610E-013  0.7936475E+02  0.7818608E-02  0.1330864E+00
         -1   -1    0    0    0  501 -0.00000000000E+00  0.00000000000E+00  0.10672461635E+02  0.10672462825E+02  0.50400000000E-02 0.  1.
          2   -1    0    0  501    0  0.00000000000E+00 -0.00000000000E+00 -0.14754708580E+03  0.14754708583E+03  0.25500000000E-02 0. -1.
         24    2    1    2    0    0  0.00000000000E+00  0.00000000000E+00 -0.13687462417E+03  0.15821954865E+03  0.79364745537E+02 0.  0.
         66    2    3    3    0    0 -0.42489905363E+01  0.34244168217E+02 -0.10744311853E+03  0.11286602987E+03  0.20000005002E+01 0.  0.
        -13    1    3    3    0    0  0.42489905363E+01 -0.34244168217E+02 -0.29431505636E+02  0.45353518778E+02  0.10566000000E+00 0.  1.
         13    1    4    4    0    0 -0.15174898519E+01  0.12202173076E+02 -0.37961402363E+02  0.39903321123E+02  0.10566000000E+00 0. -1.
        -13    1    4    4    0    0 -0.11806642271E+01  0.11659493819E+02 -0.34194416628E+02  0.36147020025E+02  0.10566000000E+00 0.  1.
        -14    1    4    4    0    0 -0.15508364573E+01  0.10382501322E+02 -0.35287299541E+02  0.36815688726E+02  0.00000000000E+00 0.  1.
<mgrwt>
<rscale>  0 0.79364746E+02</rscale>
<asrwt>0</asrwt>
<pdfrwt beam="1">  1        2 0.22699550E-01 0.79364746E+02</pdfrwt>
<pdfrwt beam="2">  1       -1 0.16419174E-02 0.79364746E+02</pdfrwt>
<totfact> 0.20350075E+05</totfact>
</mgrwt>
</event>
<event>
 8    1  0.1493610E-013  0.7235930E+02  0.7818608E-02  0.1352249E+00
         -1   -1    0    0    0  501 -0.00000000000E+00  0.00000000000E+00  0.59044216326E+00  0.59046367353E+00  0.50400000000E-02 0.  1.
          2   -1    0    0  501    0  0.00000000000E+00 -0.00000000000E+00 -0.22168862934E+04  0.22168862934E+04  0.25500000000E-02 0. -1.
         24    2    1    2    0    0  0.88817841970E-15  0.00000000000E+00 -0.22162958513E+04  0.22174767571E+04  0.72359297666E+02 0.  0.
         66    2    3    3    0    0 -0.70152891004E+01 -0.11053600388E+02 -0.21416843207E+04  0.21417252685E+04  0.19999989585E+01 0.  0.
        -13    1    3    3    0    0  0.70152891004E+01  0.11053600388E+02 -0.74611530574E+02  0.75751488575E+02  0.10566000000E+00 0.  1.
         13    1    4    4    0    0 -0.51061429292E+01 -0.73512732828E+01 -0.14309868589E+04  0.14310148551E+04  0.10566000000E+00 0. -1.
        -13    1    4    4    0    0 -0.19061841746E+01 -0.28566783883E+01 -0.58785793902E+03  0.58786797989E+03  0.10566000000E+00 0.  1.
        -14    1    4    4    0    0 -0.29619966659E-02 -0.84564871717E+00 -0.12283952272E+03  0.12284243352E+03  0.00000000000E+00 0.  1.
<mgrwt>
<rscale>  0 0.72359298E+02</rscale>
<asrwt>0</asrwt>
<pdfrwt beam="1">  1        2 0.34105277E+00 0.72359298E+02</pdfrwt>
<pdfrwt beam="2">  1       -1 0.90840686E-04 0.72359298E+02</pdfrwt>
<totfact> 0.32303655E+05</totfact>
</mgrwt>
</event>
<event>
 8    1  0.1493610E-013  0.7853216E+02  0.7818608E-02  0.1333269E+00
         -1   -1    0    0    0  501 -0.00000000000E+00  0.00000000000E+00  0.75123676762E+01  0.75123693668E+01  0.50400000000E-02 0.  1.
          2   -1    0    0  501    0  0.00000000000E+00 -0.00000000000E+00 -0.20523820828E+03  0.20523820830E+03  0.25500000000E-02 0. -1.
         24    2    1    2    0    0  0.00000000000E+00  0.00000000000E+00 -0.19772584061E+03  0.21275057767E+03  0.78532160631E+02 0.  0.
         66    2    3    3    0    0  0.19848352624E+02  0.14484285630E+02 -0.18181206704E+03  0.18347582770E+03  0.19999998164E+01 0.  0.
        -13    1    3    3    0    0 -0.19848352624E+02 -0.14484285630E+02 -0.15913773572E+02  0.29274749964E+02  0.10566000000E+00 0.  1.
         13    1    4    4    0    0  0.10303539969E+01  0.37043537879E+00 -0.75551343329E+01  0.76347934191E+01  0.10566000000E+00 0. -1.
        -13    1    4    4    0    0  0.53504917289E+01  0.36598325980E+01 -0.51112392938E+02  0.51521937195E+02  0.10566000000E+00 0. -1.
         14    1    4    4    0    0  0.13467506899E+02  0.10454017653E+02 -0.12314453976E+03  0.12431909709E+03  0.00000000000E+00 0. -1.
<mgrwt>
<rscale>  0 0.78532161E+02</rscale>
<asrwt>0</asrwt>
<pdfrwt beam="1">  1        2 0.31575105E-01 0.78532161E+02</pdfrwt>
<pdfrwt beam="2">  1       -1 0.11557492E-02 0.78532161E+02</pdfrwt>
<totfact> 0.23371000E+05</totfact>
</mgrwt>
</event>
<event>
 8    1  0.1493610E-013  0.7995271E+02  0.7818608E-02  0.1329186E+00
         -1   -1    0    0    0  501 -0.00000000000E+00  0.00000000000E+00  0.41158391684E+01  0.41158422542E+01  0.50400000000E-02 0.  1.
          2   -1    0    0  501    0  0.00000000000E+00 -0.00000000000E+00 -0.38828250767E+03  0.38828250768E+03  0.25500000000E-02 0. -1.
         24    2    1    2    0    0 -0.35527136788E-14  0.00000000000E+00 -0.38416666850E+03  0.39239834993E+03  0.79952710036E+02 0.  0.
         66    2    3    3    0    0 -0.19181740367E+02  0.74792838023E+01 -0.36023809651E+03  0.36083149118E+03  0.20000005634E+01 0.  0.
        -13    1    3    3    0    0  0.19181740367E+02 -0.74792838023E+01 -0.23928571989E+02  0.31566858747E+02  0.10566000000E+00 0.  1.
         13    1    4    4    0    0 -0.27604090449E+01  0.16491648585E+01 -0.51239207190E+02  0.51340112196E+02  0.10566000000E+00 0. -1.
        -13    1    4    4    0    0 -0.34240163127E+01  0.14614042793E+01 -0.60642318617E+02  0.60756576282E+02  0.10566000000E+00 0.  1.
         14    1    4    4    0    0 -0.12997315009E+02  0.43687146644E+01 -0.24835657070E+03  0.24873480271E+03  0.00000000000E+00 0. -1.
<mgrwt>
<rscale>  0 0.79952710E+02</rscale>
<asrwt>0</asrwt>
<pdfrwt beam="1">  1        2 0.59735742E-01 0.79952710E+02</pdfrwt>
<pdfrwt beam="2">  1       -1 0.63320657E-03 0.79952710E+02</pdfrwt>
<totfact> 0.28003613E+05</totfact>
</mgrwt>
</event>
<event>
 8    1  0.1493610E-013  0.8068036E+02  0.7818608E-02  0.1327132E+00
         -1   -1    0    0    0  501 -0.00000000000E+00  0.00000000000E+00  0.76103939972E+02  0.76103940139E+02  0.50400000000E-02 0.  1.
          2   -1    0    0  501    0  0.00000000000E+00 -0.00000000000E+00 -0.21382994149E+02  0.21382994301E+02  0.25500000000E-02 0. -1.
         24    2    1    2    0    0  0.35527136788E-14  0.00000000000E+00  0.54720945824E+02  0.97486934440E+02  0.80680359907E+02 0.  0.
         66    2    3    3    0    0 -0.21052566783E+02  0.19294780888E+02 -0.70081899320E+01  0.29472255856E+02  0.20000003635E+01 0.  0.
        -13    1    3    3    0    0  0.21052566783E+02 -0.19294780888E+02  0.61729135756E+02  0.68014678584E+02  0.10566000000E+00 0.  1.
         13    1    4    4    0    0 -0.32582379956E+01  0.37069218265E+01 -0.11876620353E+01  0.50773112382E+01  0.10566000000E+00 0. -1.
        -13    1    4    4    0    0 -0.10785291836E+02  0.89596476071E+01 -0.29317417787E+01  0.14324946043E+02  0.10566000000E+00 0.  1.
         14    1    4    4    0    0 -0.70090369511E+01  0.66282114548E+01 -0.28887861180E+01  0.10069998575E+02  0.00000000000E+00 0. -1.
<mgrwt>
<rscale>  0 0.80680360E+02</rscale>
<asrwt>0</asrwt>
<pdfrwt beam="1">  1        2 0.32896914E-02 0.80680360E+02</pdfrwt>
<pdfrwt beam="2">  1       -1 0.11708299E-01 0.80680360E+02</pdfrwt>
<totfact> 0.12282579E+05</totfact>
</mgrwt>
</event>
<event>
 8    1  0.1493610E-013  0.7903819E+02  0.7818608E-02  0.1331803E+00
         -1   -1    0    0    0  501 -0.00000000000E+00  0.00000000000E+00  0.55304117761E+01  0.55304140726E+01  0.50400000000E-02 0.  1.
          2   -1    0    0  501    0  0.00000000000E+00 -0.00000000000E+00 -0.28239459914E+03  0.28239459915E+03  0.25500000000E-02 0. -1.
         24    2    1    2    0    0  0.00000000000E+00  0.00000000000E+00 -0.27686418736E+03  0.28792501322E+03  0.79038186944E+02 0.  0.
         66    2    3    3    0    0 -0.28890106845E+01  0.11485723591E+02 -0.27576908316E+03  0.27603053356E+03  0.20000005897E+01 0.  0.
        -13    1    3    3    0    0  0.28890106845E+01 -0.11485723591E+02 -0.10951042021E+01  0.11894479660E+02  0.10566000000E+00 0.  1.
         13    1    4    4    0    0 -0.15973573133E+01  0.48536034239E+01 -0.11887385274E+03  0.11898366714E+03  0.10566000000E+00 0. -1.
        -13    1    4    4    0    0 -0.45689331339E+00  0.49762075284E+01 -0.12209026287E+03  0.12219253187E+03  0.10566000000E+00 0. -1.
         14    1    4    4    0    0 -0.83476005776E+00  0.16559126388E+01 -0.34804967552E+02  0.34854334556E+02  0.00000000000E+00 0. -1.
<mgrwt>
<rscale>  0 0.79038187E+02</rscale>
<asrwt>0</asrwt>
<pdfrwt beam="1">  1        2 0.43445312E-01 0.79038187E+02</pdfrwt>
<pdfrwt beam="2">  1       -1 0.85083298E-03 0.79038187E+02</pdfrwt>
<totfact> 0.25745846E+05</totfact>
</mgrwt>
</event>
<event>
 8    1  0.1493610E-013  0.7931122E+02  0.7818608E-02  0.1331018E+00
          2   -1    0    0  501    0  0.00000000000E+00  0.00000000000E+00  0.70297090376E+02  0.70297090423E+02  0.25500000000E-02 0. -1.
         -1   -1    0    0    0  501 -0.00000000000E+00 -0.00000000000E+00 -0.22370304088E+02  0.22370304655E+02  0.50400000000E-02 0.  1.
         24    2    1    2    0    0  0.00000000000E+00  0.35527136788E-14  0.47926786289E+02  0.92667395078E+02  0.79311217785E+02 0.  0.
         66    2    3    3    0    0 -0.28010920580E+02 -0.10026557526E+02  0.54567946527E+02  0.62183633812E+02  0.19999996024E+01 0.  0.
        -13    1    3    3    0    0  0.28010920580E+02  0.10026557526E+02 -0.66411602377E+01  0.30483761266E+02  0.10566000000E+00 0.  1.
         13    1    4    4    0    0 -0.43304523574E+01 -0.18416046873E+01  0.78512309034E+01  0.91540874028E+01  0.10566000000E+00 0. -1.
        -13    1    4    4    0    0 -0.85338518997E+01 -0.34030628685E+01  0.18200080662E+02  0.20387779802E+02  0.10566000000E+00 0.  1.
         14    1    4    4    0    0 -0.15146616323E+02 -0.47818899699E+01  0.28516634961E+02  0.32641766607E+02  0.00000000000E+00 0. -1.
<mgrwt>
<rscale>  0 0.79311218E+02</rscale>
<asrwt>0</asrwt>
<pdfrwt beam="1">  1        2 0.10814937E-01 0.79311218E+02</pdfrwt>
<pdfrwt beam="2">  1       -1 0.34415853E-02 0.79311218E+02</pdfrwt>
<totfact> 0.16545746E+05</totfact>
</mgrwt>
</event>
<event>
 8    1  0.1493610E-013  0.7755199E+02  0.7818608E-02  0.1336146E+00
          2   -1    0    0  501    0  0.00000000000E+00  0.00000000000E+00  0.87682532677E+02  0.87682532714E+02  0.25500000000E-02 0. -1.
         -1   -1    0    0    0  501 -0.00000000000E+00 -0.00000000000E+00 -0.17147973785E+02  0.17147974526E+02  0.50400000000E-02 0.  1.
         24    2    1    2    0    0  0.00000000000E+00 -0.88817841970E-15  0.70534558892E+02  0.10483050724E+03  0.77551990626E+02 0.  0.
         66    2    3    3    0    0 -0.36257109458E+02  0.49962577056E+01  0.52497289208E+02  0.64027384332E+02  0.19999982279E+01 0.  0.
        -13    1    3    3    0    0  0.36257109458E+02 -0.49962577056E+01  0.18037269684E+02  0.40803122907E+02  0.10566000000E+00 0.  1.
         13    1    4    4    0    0 -0.14621776203E+02  0.20461151035E+01  0.21911511883E+02  0.26421741869E+02  0.10566000000E+00 0. -1.
        -13    1    4    4    0    0 -0.72409216358E+01  0.72622670952E+00  0.11222631272E+02  0.13375984752E+02  0.10566000000E+00 0.  1.
         14    1    4    4    0    0 -0.14394411620E+02  0.22239158926E+01  0.19363146053E+02  0.24229657712E+02  0.00000000000E+00 0. -1.
<mgrwt>
<rscale>  0 0.77551991E+02</rscale>
<asrwt>0</asrwt>
<pdfrwt beam="1">  1        2 0.13489620E-01 0.77551991E+02</pdfrwt>
<pdfrwt beam="2">  1       -1 0.26381499E-02 0.77551991E+02</pdfrwt>
<totfact> 0.18588101E+05</totfact>
</mgrwt>
</event>
<event>
 8    1  0.1493610E-013  0.7899471E+02  0.7818608E-02  0.1331929E+00
          2   -1    0    0  501    0  0.00000000000E+00  0.00000000000E+00  0.72846559810E+01  0.72846564273E+01  0.25500000000E-02 0. -1.
         -1   -1    0    0    0  501 -0.00000000000E+00 -0.00000000000E+00 -0.21415438191E+03  0.21415438197E+03  0.50400000000E-02 0.  1.
         24    2    1    2    0    0  0.35527136788E-14  0.00000000000E+00 -0.20686972593E+03  0.22143903840E+03  0.78994710077E+02 0.  0.
         66    2    3    3    0    0 -0.22296675103E+02  0.26456090702E+02 -0.50242160722E+02  0.61035572716E+02  0.19999916966E+01 0.  0.
        -13    1    3    3    0    0  0.22296675103E+02 -0.26456090702E+02 -0.15662756521E+03  0.16040346568E+03  0.10566000000E+00 0.  1.
         13    1    4    4    0    0 -0.18466016548E+02  0.21664293755E+02 -0.42028875321E+02  0.50761923879E+02  0.10566000000E+00 0. -1.
        -13    1    4    4    0    0 -0.92198411476E-01  0.98210012989E-01 -0.22552108192E+00  0.28314227470E+00  0.10566000000E+00 0. -1.
        -14    1    4    4    0    0 -0.37384601438E+01  0.46935869339E+01 -0.79877643193E+01  0.99905065623E+01  0.00000000000E+00 0.  1.
<mgrwt>
<rscale>  0 0.78994710E+02</rscale>
<asrwt>0</asrwt>
<pdfrwt beam="1">  1        2 0.11207165E-02 0.78994710E+02</pdfrwt>
<pdfrwt beam="2">  1       -1 0.32946823E-01 0.78994710E+02</pdfrwt>
<totfact> 0.10071239E+05</totfact>
</mgrwt>
</event>
<event>
 8    1  0.1493610E-013  0.7464463E+02  0.7818608E-02  0.1344975E+00
         -1   -1    0    0    0  501 -0.00000000000E+00  0.00000000000E+00  0.20375005878E+02  0.20375006501E+02  0.50400000000E-02 0.  1.
          2   -1    0    0  501    0  0.00000000000E+00 -0.00000000000E+00 -0.68365873480E+02  0.68365873527E+02  0.25500000000E-02 0. -1.
         24    2    1    2    0    0  0.00000000000E+00  0.17763568394E-14 -0.47990867602E+02  0.88740880028E+02  0.74644627502E+02 0.  0.
         66    2    3    3    0    0 -0.17781898870E+02 -0.15911982963E+02 -0.58088379053E+02  0.62830302443E+02  0.19999987053E+01 0.  0.
        -13    1    3    3    0    0  0.17781898870E+02  0.15911982963E+02  0.10097511451E+02  0.25910577585E+02  0.10566000000E+00 0.  1.
         13    1    4    4    0    0 -0.19873366043E+01 -0.13643906314E+01 -0.48391219618E+01  0.54073407486E+01  0.10566000000E+00 0.  1.
        -13    1    4    4    0    0 -0.69950072642E+01 -0.59332926303E+01 -0.23343356271E+02  0.25081019399E+02  0.10566000000E+00 0. -1.
         14    1    4    4    0    0 -0.87995550015E+01 -0.86142997015E+01 -0.29905900821E+02  0.32341942296E+02  0.00000000000E+00 0. -1.
<mgrwt>
<rscale>  0 0.74644628E+02</rscale>
<asrwt>0</asrwt>
<pdfrwt beam="1">  1        2 0.10517827E-01 0.74644628E+02</pdfrwt>
<pdfrwt beam="2">  1       -1 0.31346164E-02 0.74644628E+02</pdfrwt>
<totfact> 0.19351193E+05</totfact>
</mgrwt>
</event>
<event>
 8    1  0.1493610E-013  0.8531840E+02  0.7818608E-02  0.1314602E+00
          2   -1    0    0  501    0  0.00000000000E+00  0.00000000000E+00  0.75639777826E+03  0.75639777826E+03  0.25500000000E-02 0. -1.
         -1   -1    0    0    0  501 -0.00000000000E+00 -0.00000000000E+00 -0.24058837794E+01  0.24058890584E+01  0.50400000000E-02 0.  1.
         24    2    1    2    0    0  0.00000000000E+00  0.17763568394E-14  0.75399189448E+03  0.75880366732E+03  0.85318395437E+02 0.  0.
         66    2    3    3    0    0  0.38379419238E+01  0.14830925390E+02  0.73107201071E+03  0.73123523642E+03  0.19999998380E+01 0.  0.
        -13    1    3    3    0    0 -0.38379419238E+01 -0.14830925390E+02  0.22919883774E+02  0.27568430902E+02  0.10566000000E+00 0.  1.
         13    1    4    4    0    0  0.71372125918E+00  0.45689973255E+01  0.24570516216E+03  0.24574869890E+03  0.10566000000E+00 0. -1.
        -13    1    4    4    0    0  0.21507810501E+01  0.56113285105E+01  0.25708420799E+03  0.25715445559E+03  0.10566000000E+00 0.  1.
        -14    1    4    4    0    0  0.97343961448E+00  0.46505995536E+01  0.22828264056E+03  0.22833208194E+03  0.00000000000E+00 0.  1.
<mgrwt>
<rscale>  0 0.85318395E+02</rscale>
<asrwt>0</asrwt>
<pdfrwt beam="1">  1        2 0.11636900E+00 0.85318395E+02</pdfrwt>
<pdfrwt beam="2">  1       -1 0.37013603E-03 0.85318395E+02</pdfrwt>
<totfact> 0.28757172E+05</totfact>
</mgrwt>
</event>
<event>
 8    1  0.1493610E-013  0.8024105E+02  0.7818608E-02  0.1328369E+00
          2   -1    0    0  501    0  0.00000000000E+00  0.00000000000E+00  0.88785616071E+02  0.88785616107E+02  0.25500000000E-02 0. -1.
         -1   -1    0    0    0  501 -0.00000000000E+00 -0.00000000000E+00 -0.18129697754E+02  0.18129698455E+02  0.50400000000E-02 0.  1.
         24    2    1    2    0    0  0.71054273576E-14  0.00000000000E+00  0.70655918316E+02  0.10691531456E+03  0.80241047443E+02 0.  0.
         66    2    3    3    0    0 -0.30749438965E+02  0.55956785765E+01  0.68815031817E+02  0.75606535561E+02  0.20000000742E+01 0.  0.
        -13    1    3    3    0    0  0.30749438965E+02 -0.55956785765E+01  0.18408864996E+01  0.31308779001E+02  0.10566000000E+00 0.  1.
         13    1    4    4    0    0 -0.19350160171E+02  0.35943952134E+01  0.44509119780E+02  0.48666428709E+02  0.10566000000E+00 0. -1.
        -13    1    4    4    0    0 -0.83535051256E+01  0.18464892984E+01  0.18468887629E+02  0.20354398663E+02  0.10566000000E+00 0.  1.
        -14    1    4    4    0    0 -0.30457736680E+01  0.15479406460E+00  0.58370244066E+01  0.65857081899E+01  0.00000000000E+00 0.  1.
<mgrwt>
<rscale>  0 0.80241047E+02</rscale>
<asrwt>0</asrwt>
<pdfrwt beam="1">  1        2 0.13659326E-01 0.80241047E+02</pdfrwt>
<pdfrwt beam="2">  1       -1 0.27891842E-02 0.80241047E+02</pdfrwt>
<totfact> 0.17019878E+05</totfact>
</mgrwt>
</event>
<event>
 8    1  0.1493610E-013  0.7804775E+02  0.7818608E-02  0.1334685E+00
          2   -1    0    0  501    0  0.00000000000E+00  0.00000000000E+00  0.26552446148E+02  0.26552446271E+02  0.25500000000E-02 0. -1.
         -1   -1    0    0    0  501 -0.00000000000E+00 -0.00000000000E+00 -0.57353009350E+02  0.57353009571E+02  0.50400000000E-02 0.  1.
         24    2    1    2    0    0 -0.17763568394E-14  0.00000000000E+00 -0.30800563201E+02  0.83905455842E+02  0.78047747095E+02 0.  0.
         66    2    3    3    0    0  0.98853009450E+01 -0.12020199949E+02  0.23031658002E+02  0.27868650211E+02  0.20000031570E+01 0.  0.
        -13    1    3    3    0    0 -0.98853009450E+01  0.12020199949E+02 -0.53832221204E+02  0.56036805631E+02  0.10566000000E+00 0.  1.
         13    1    4    4    0    0  0.58884926474E+01 -0.71066987415E+01  0.14291710679E+02  0.17013044138E+02  0.10566000000E+00 0. -1.
        -13    1    4    4    0    0  0.71744179290E+00 -0.70245507891E+00  0.21508363004E+01  0.23760106672E+01  0.10566000000E+00 0.  1.
         14    1    4    4    0    0  0.32793665047E+01 -0.42110461290E+01  0.65891110229E+01  0.84795954058E+01  0.00000000000E+00 0. -1.
<mgrwt>
<rscale>  0 0.78047747E+02</rscale>
<asrwt>0</asrwt>
<pdfrwt beam="1">  1        2 0.40849917E-02 0.78047747E+02</pdfrwt>
<pdfrwt beam="2">  1       -1 0.88235400E-02 0.78047747E+02</pdfrwt>
<totfact> 0.14081728E+05</totfact>
</mgrwt>
</event>
<event>
 8    1  0.1493610E-013  0.8141912E+02  0.7818608E-02  0.1325072E+00
         -1   -1    0    0    0  501 -0.00000000000E+00  0.00000000000E+00  0.14579363189E+02  0.14579364060E+02  0.50400000000E-02 0.  1.
          2   -1    0    0  501    0  0.00000000000E+00 -0.00000000000E+00 -0.11367219290E+03  0.11367219293E+03  0.25500000000E-02 0. -1.
         24    2    1    2    0    0  0.00000000000E+00  0.00000000000E+00 -0.99092829713E+02  0.12825155699E+03  0.81419119193E+02 0.  0.
         66    2    3    3    0    0  0.36100415313E+02 -0.89176620972E+01 -0.75578923251E+02  0.84255197550E+02  0.19999978113E+01 0.  0.
        -13    1    3    3    0    0 -0.36100415313E+02  0.89176620972E+01 -0.23513906462E+02  0.43996359442E+02  0.10566000000E+00 0.  1.
         13    1    4    4    0    0  0.77754476311E+01 -0.16356079967E+01 -0.17533774150E+02  0.19250381798E+02  0.10566000000E+00 0. -1.
        -13    1    4    4    0    0  0.34305356303E+01 -0.57645219015E+00 -0.66536298643E+01  0.75088498617E+01  0.10566000000E+00 0.  1.
         14    1    4    4    0    0  0.24894432051E+02 -0.67056019104E+01 -0.51391519237E+02  0.57495965890E+02  0.00000000000E+00 0. -1.
<mgrwt>
<rscale>  0 0.81419119E+02</rscale>
<asrwt>0</asrwt>
<pdfrwt beam="1">  1        2 0.17488029E-01 0.81419119E+02</pdfrwt>
<pdfrwt beam="2">  1       -1 0.22429791E-02 0.81419119E+02</pdfrwt>
<totfact> 0.17544752E+05</totfact>
</mgrwt>
</event>
<event>
 8    1  0.1493610E-013  0.8065779E+02  0.7818608E-02  0.1327195E+00
         -1   -1    0    0    0  501 -0.00000000000E+00  0.00000000000E+00  0.74226920369E+01  0.74226937480E+01  0.50400000000E-02 0.  1.
          2   -1    0    0  501    0  0.00000000000E+00 -0.00000000000E+00 -0.21911449061E+03  0.21911449063E+03  0.25500000000E-02 0. -1.
         24    2    1    2    0    0  0.00000000000E+00  0.10408340856E-16 -0.21169179858E+03  0.22653718438E+03  0.80657785244E+02 0.  0.
         66    2    3    3    0    0 -0.30229892932E+02  0.16007388631E-01 -0.18077875784E+03  0.18329977078E+03  0.19999996368E+01 0.  0.
        -13    1    3    3    0    0  0.30229892932E+02 -0.16007388631E-01 -0.30913040736E+02  0.43237413596E+02  0.10566000000E+00 0.  1.
         13    1    4    4    0    0 -0.12657781435E+02  0.34546803401E+00 -0.73059088782E+02  0.74148367458E+02  0.10566000000E+00 0. -1.
        -13    1    4    4    0    0 -0.58073128767E+01 -0.20964022313E+00 -0.39319077915E+02  0.39746319125E+02  0.10566000000E+00 0.  1.
        -14    1    4    4    0    0 -0.11764798620E+02 -0.11982042225E+00 -0.68400591143E+02  0.69405084195E+02  0.00000000000E+00 0.  1.
<mgrwt>
<rscale>  0 0.80657785E+02</rscale>
<asrwt>0</asrwt>
<pdfrwt beam="1">  1        2 0.33709917E-01 0.80657785E+02</pdfrwt>
<pdfrwt beam="2">  1       -1 0.11419529E-02 0.80657785E+02</pdfrwt>
<totfact> 0.22288517E+05</totfact>
</mgrwt>
</event>
<event>
 8    1  0.1493610E-013  0.8133972E+02  0.7818608E-02  0.1325292E+00
          2   -1    0    0  501    0  0.00000000000E+00  0.00000000000E+00  0.57803687232E+02  0.57803687289E+02  0.25500000000E-02 0. -1.
         -1   -1    0    0    0  501 -0.00000000000E+00 -0.00000000000E+00 -0.28614743566E+02  0.28614744010E+02  0.50400000000E-02 0.  1.
         24    2    1    2    0    0  0.00000000000E+00  0.00000000000E+00  0.29188943666E+02  0.86418431298E+02  0.81339724832E+02 0.  0.
         66    2    3    3    0    0 -0.28070508483E+01 -0.26709421214E+02  0.47016517698E+02  0.54183259887E+02  0.19999998791E+01 0.  0.
        -13    1    3    3    0    0  0.28070508483E+01  0.26709421214E+02 -0.17827574031E+02  0.32235171411E+02  0.10566000000E+00 0.  1.
         13    1    4    4    0    0 -0.11367123136E+01 -0.58889825171E+01  0.99843480930E+01  0.11647772356E+02  0.10566000000E+00 0. -1.
        -13    1    4    4    0    0 -0.70808245490E+00 -0.48294086526E+01  0.95266092025E+01  0.10704766024E+02  0.10566000000E+00 0. -1.
         14    1    4    4    0    0 -0.96225607980E+00 -0.15991030044E+02  0.27505560402E+02  0.31830721507E+02  0.00000000000E+00 0. -1.
<mgrwt>
<rscale>  0 0.81339725E+02</rscale>
<asrwt>0</asrwt>
<pdfrwt beam="1">  1        2 0.88928749E-02 0.81339725E+02</pdfrwt>
<pdfrwt beam="2">  1       -1 0.44022683E-02 0.81339725E+02</pdfrwt>
<totfact> 0.14749956E+05</totfact>
</mgrwt>
</event>
<event>
 8    1  0.1493610E-013  0.8077314E+02  0.7818608E-02  0.1326872E+00
         -1   -1    0    0    0  501 -0.00000000000E+00  0.00000000000E+00  0.32799702407E+01  0.32799741130E+01  0.50400000000E-02 0.  1.
          2   -1    0    0  501    0  0.00000000000E+00 -0.00000000000E+00 -0.49728323342E+03  0.49728323343E+03  0.25500000000E-02 0. -1.
         24    2    1    2    0    0 -0.71054273576E-14  0.00000000000E+00 -0.49400326318E+03  0.50056320754E+03  0.80773143498E+02 0.  0.
         66    2    3    3    0    0  0.29353709443E+02  0.10406980347E+02 -0.40625467939E+03  0.40745160451E+03  0.19999980098E+01 0.  0.
        -13    1    3    3    0    0 -0.29353709443E+02 -0.10406980347E+02 -0.87748583792E+02  0.93111603034E+02  0.10566000000E+00 0.  1.
         13    1    4    4    0    0  0.54280872534E+00  0.47694423389E+00 -0.97936769963E+01  0.98208650463E+01  0.10566000000E+00 0. -1.
        -13    1    4    4    0    0  0.22175756179E+02  0.74610719323E+01 -0.30350591793E+03  0.30440644727E+03  0.10566000000E+00 0.  1.
         14    1    4    4    0    0  0.66351445384E+01  0.24689641811E+01 -0.92955084465E+02  0.93224292194E+02  0.00000000000E+00 0. -1.
<mgrwt>
<rscale>  0 0.80773143E+02</rscale>
<asrwt>0</asrwt>
<pdfrwt beam="1">  1        2 0.76505053E-01 0.80773143E+02</pdfrwt>
<pdfrwt beam="2">  1       -1 0.50461150E-03 0.80773143E+02</pdfrwt>
<totfact> 0.29645533E+05</totfact>
</mgrwt>
</event>
<event>
 8    1  0.1493610E-013  0.8231483E+02  0.7818608E-02  0.1322608E+00
          2   -1    0    0  501    0  0.00000000000E+00  0.00000000000E+00  0.88160753152E+03  0.88160753152E+03  0.25500000000E-02 0. -1.
         -1   -1    0    0    0  501 -0.00000000000E+00 -0.00000000000E+00 -0.19214105414E+01  0.19214171515E+01  0.50400000000E-02 0.  1.
         24    2    1    2    0    0 -0.88817841970E-15 -0.35527136788E-14  0.87968612098E+03  0.88352894867E+03  0.82314832836E+02 0.  0.
         66    2    3    3    0    0  0.52880869239E+01 -0.17825141066E+02  0.83392588532E+03  0.83413552959E+03  0.20000001109E+01 0.  0.
        -13    1    3    3    0    0 -0.52880869239E+01  0.17825141066E+02  0.45760235654E+02  0.49393419080E+02  0.10566000000E+00 0.  1.
         13    1    4    4    0    0  0.24888629778E+01 -0.11418214493E+02  0.51916934726E+03  0.51930086882E+03  0.10566000000E+00 0. -1.
        -13    1    4    4    0    0  0.13355863948E+00 -0.23477517940E+00  0.12936536337E+02  0.12939787237E+02  0.10566000000E+00 0. -1.
        -14    1    4    4    0    0  0.26656653066E+01 -0.61721513930E+01  0.30182000173E+03  0.30189487354E+03  0.00000000000E+00 0.  1.
<mgrwt>
<rscale>  0 0.82314833E+02</rscale>
<asrwt>0</asrwt>
<pdfrwt beam="1">  1        2 0.13563240E+00 0.82314833E+02</pdfrwt>
<pdfrwt beam="2">  1       -1 0.29560111E-03 0.82314833E+02</pdfrwt>
<totfact> 0.32370472E+05</totfact>
</mgrwt>
</event>
<event>
 8    1  0.1493610E-013  0.7921221E+02  0.7818608E-02  0.1331302E+00
          2   -1    0    0  501    0  0.00000000000E+00  0.00000000000E+00  0.17679211367E+03  0.17679211369E+03  0.25500000000E-02 0. -1.
         -1   -1    0    0    0  501 -0.00000000000E+00 -0.00000000000E+00 -0.88728125587E+01  0.88728139901E+01  0.50400000000E-02 0.  1.
         24    2    1    2    0    0  0.00000000000E+00  0.00000000000E+00  0.16791930111E+03  0.18566492768E+03  0.79212206661E+02 0.  0.
         66    2    3    3    0    0  0.11655117865E+02 -0.33741224453E+02  0.12408786832E+03  0.12913601769E+03  0.20000001270E+01 0.  0.
        -13    1    3    3    0    0 -0.11655117865E+02  0.33741224453E+02  0.43831432794E+02  0.56528909991E+02  0.10566000000E+00 0.  1.
         13    1    4    4    0    0  0.43688817408E+01 -0.12082981151E+02  0.44003393073E+02  0.45840978689E+02  0.10566000000E+00 0. -1.
        -13    1    4    4    0    0  0.30314148145E+00 -0.13886126425E+01  0.62893272238E+01  0.64487937471E+01  0.10566000000E+00 0.  1.
        -14    1    4    4    0    0  0.69830946425E+01 -0.20269630659E+02  0.73795148021E+02  0.76846245252E+02  0.00000000000E+00 0.  1.
<mgrwt>
<rscale>  0 0.79212207E+02</rscale>
<asrwt>0</asrwt>
<pdfrwt beam="1">  1        2 0.27198787E-01 0.79212207E+02</pdfrwt>
<pdfrwt beam="2">  1       -1 0.13650482E-02 0.79212207E+02</pdfrwt>
<totfact> 0.21705624E+05</totfact>
</mgrwt>
</event>
<event>
 8    1  0.1493610E-013  0.8037357E+02  0.7818608E-02  0.1327995E+00
         -1   -1    0    0    0  501 -0.00000000000E+00  0.00000000000E+00  0.19144871116E+01  0.19144937457E+01  0.50400000000E-02 0.  1.
          2   -1    0    0  501    0  0.00000000000E+00 -0.00000000000E+00 -0.84355485686E+03  0.84355485687E+03  0.25500000000E-02 0. -1.
         24    2    1    2    0    0 -0.35527136788E-14  0.00000000000E+00 -0.84164036975E+03  0.84546935061E+03  0.80373570469E+02 0.  0.
         66    2    3    3    0    0 -0.31151653623E+02 -0.72156972899E+01 -0.67669574292E+03  0.67745377724E+03  0.20000002664E+01 0.  0.
        -13    1    3    3    0    0  0.31151653623E+02  0.72156972899E+01 -0.16494462683E+03  0.16801557337E+03  0.10566000000E+00 0.  1.
         13    1    4    4    0    0 -0.51065754999E+01 -0.11656684058E+01 -0.11167422763E+03  0.11179704906E+03  0.10566000000E+00 0. -1.
        -13    1    4    4    0    0 -0.77571142130E+01 -0.17219598543E+01 -0.18570613541E+03  0.18587608200E+03  0.10566000000E+00 0.  1.
         14    1    4    4    0    0 -0.18287963910E+02 -0.43280690297E+01 -0.37931537988E+03  0.37978064618E+03  0.00000000000E+00 0. -1.
<mgrwt>
<rscale>  0 0.80373570E+02</rscale>
<asrwt>0</asrwt>
<pdfrwt beam="1">  1        2 0.12977737E+00 0.80373570E+02</pdfrwt>
<pdfrwt beam="2">  1       -1 0.29453766E-03 0.80373570E+02</pdfrwt>
<totfact> 0.34240384E+05</totfact>
</mgrwt>
</event>
<event>
 8    1  0.1493610E-013  0.7935902E+02  0.7818608E-02  0.1330880E+00
         -1   -1    0    0    0  501 -0.00000000000E+00  0.00000000000E+00  0.34690356159E+02  0.34690356525E+02  0.50400000000E-02 0.  1.
          2   -1    0    0  501    0  0.00000000000E+00 -0.00000000000E+00 -0.45386205790E+02  0.45386205861E+02  0.25500000000E-02 0. -1.
         24    2    1    2    0    0 -0.35527136788E-14  0.00000000000E+00 -0.10695849631E+02  0.80076562386E+02  0.79359023710E+02 0.  0.
         66    2    3    3    0    0 -0.21142072333E+02 -0.16225880919E+02 -0.34979913899E+02  0.44021141497E+02  0.20000220552E+01 0.  0.
        -13    1    3    3    0    0  0.21142072333E+02  0.16225880919E+02  0.24284064268E+02  0.36055420889E+02  0.10566000000E+00 0.  1.
         13    1    4    4    0    0 -0.27468247443E+01 -0.27072313330E+01 -0.46061512640E+01  0.60084890920E+01  0.10566000000E+00 0. -1.
        -13    1    4    4    0    0 -0.17106017196E+02 -0.12261077385E+02 -0.28247273558E+02  0.35225977210E+02  0.10566000000E+00 0.  1.
        -14    1    4    4    0    0 -0.12892303924E+01 -0.12575722009E+01 -0.21264890768E+01  0.27866751943E+01  0.00000000000E+00 0.  1.
<mgrwt>
<rscale>  0 0.79359024E+02</rscale>
<asrwt>0</asrwt>
<pdfrwt beam="1">  1        2 0.69824932E-02 0.79359024E+02</pdfrwt>
<pdfrwt beam="2">  1       -1 0.53369779E-02 0.79359024E+02</pdfrwt>
<totfact> 0.14962817E+05</totfact>
</mgrwt>
</event>
<event>
 8    1  0.1493610E-013  0.8001951E+02  0.7818608E-02  0.1328996E+00
          2   -1    0    0  501    0  0.00000000000E+00  0.00000000000E+00  0.36892289481E+03  0.36892289482E+03  0.25500000000E-02 0. -1.
         -1   -1    0    0    0  501 -0.00000000000E+00 -0.00000000000E+00 -0.43390641440E+01  0.43390670711E+01  0.50400000000E-02 0.  1.
         24    2    1    2    0    0  0.00000000000E+00  0.00000000000E+00  0.36458383066E+03  0.37326196189E+03  0.80019513937E+02 0.  0.
         66    2    3    3    0    0  0.16555868972E+02 -0.81879320550E+01  0.34782829436E+03  0.34832407526E+03  0.20000040317E+01 0.  0.
        -13    1    3    3    0    0 -0.16555868972E+02  0.81879320550E+01  0.16755536298E+02  0.24937886627E+02  0.10566000000E+00 0.  1.
         13    1    4    4    0    0  0.55960249097E+01 -0.24448707541E+01  0.13173727327E+03  0.13187878230E+03  0.10566000000E+00 0. -1.
        -13    1    4    4    0    0  0.40126387071E+01 -0.22745262805E+01  0.79918191970E+02  0.80051254275E+02  0.10566000000E+00 0.  1.
         14    1    4    4    0    0  0.69472053553E+01 -0.34685350204E+01  0.13617282912E+03  0.13639403868E+03  0.00000000000E+00 0. -1.
<mgrwt>
<rscale>  0 0.80019514E+02</rscale>
<asrwt>0</asrwt>
<pdfrwt beam="1">  1        2 0.56757357E-01 0.80019514E+02</pdfrwt>
<pdfrwt beam="2">  1       -1 0.66754869E-03 0.80019514E+02</pdfrwt>
<totfact> 0.27441358E+05</totfact>
</mgrwt>
</event>
<event>
 8    1  0.1493610E-013  0.8003441E+02  0.7818608E-02  0.1328954E+00
          2   -1    0    0  501    0  0.00000000000E+00  0.00000000000E+00  0.36654155251E+03  0.36654155252E+03  0.25500000000E-02 0. -1.
         -1   -1    0    0    0  501 -0.00000000000E+00 -0.00000000000E+00 -0.43688804983E+01  0.43688834054E+01  0.50400000000E-02 0.  1.
         24    2    1    2    0    0  0.00000000000E+00  0.00000000000E+00  0.36217267201E+03  0.37091043593E+03  0.80034412133E+02 0.  0.
         66    2    3    3    0    0 -0.37155131638E+01 -0.34283347036E+02  0.27506333252E+03  0.27722371801E+03  0.20000026466E+01 0.  0.
        -13    1    3    3    0    0  0.37155131638E+01  0.34283347036E+02  0.87109339493E+02  0.93686717912E+02  0.10566000000E+00 0.  1.
         13    1    4    4    0    0 -0.11177835995E+01 -0.12668549932E+02  0.10465915796E+03  0.10542908568E+03  0.10566000000E+00 0. -1.
        -13    1    4    4    0    0 -0.27572108284E+01 -0.20730493319E+02  0.16300897903E+03  0.16434504548E+03  0.10566000000E+00 0.  1.
        -14    1    4    4    0    0  0.15948126401E+00 -0.88430378442E+00  0.73951955284E+01  0.74495868584E+01  0.00000000000E+00 0.  1.
<mgrwt>
<rscale>  0 0.80034412E+02</rscale>
<asrwt>0</asrwt>
<pdfrwt beam="1">  1        2 0.56391015E-01 0.80034412E+02</pdfrwt>
<pdfrwt beam="2">  1       -1 0.67213561E-03 0.80034412E+02</pdfrwt>
<totfact> 0.27365177E+05</totfact>
</mgrwt>
</event>
<event>
 8    1  0.1493610E-013  0.7903957E+02  0.7818608E-02  0.1331799E+00
         -1   -1    0    0    0  501 -0.00000000000E+00  0.00000000000E+00  0.16032027763E+01  0.16032106984E+01  0.50400000000E-02 0.  1.
          2   -1    0    0  501    0  0.00000000000E+00 -0.00000000000E+00 -0.97418081287E+03  0.97418081288E+03  0.25500000000E-02 0. -1.
         24    2    1    2    0    0  0.00000000000E+00  0.00000000000E+00 -0.97257761010E+03  0.97578402358E+03  0.79039566056E+02 0.  0.
         66    2    3    3    0    0  0.14324358981E+02  0.13075707048E+02 -0.91133644316E+03  0.91154499287E+03  0.20000015258E+01 0.  0.
        -13    1    3    3    0    0 -0.14324358981E+02 -0.13075707048E+02 -0.61241166935E+02  0.64239030711E+02  0.10566000000E+00 0.  1.
         13    1    4    4    0    0  0.69381466928E+01  0.57899490741E+01 -0.42760160316E+03  0.42769709326E+03  0.10566000000E+00 0. -1.
        -13    1    4    4    0    0  0.50400061208E-01 -0.38428384850E-02 -0.57994191177E+01  0.58006017853E+01  0.10566000000E+00 0. -1.
         14    1    4    4    0    0  0.73358122275E+01  0.72896008125E+01 -0.47793542089E+03  0.47804729783E+03  0.00000000000E+00 0. -1.
<mgrwt>
<rscale>  0 0.79039566E+02</rscale>
<asrwt>0</asrwt>
<pdfrwt beam="1">  1        2 0.14987350E+00 0.79039566E+02</pdfrwt>
<pdfrwt beam="2">  1       -1 0.24664797E-03 0.79039566E+02</pdfrwt>
<totfact> 0.36304295E+05</totfact>
</mgrwt>
</event>
<event>
 8    1  0.1493610E-013  0.7816733E+02  0.7818608E-02  0.1334334E+00
         -1   -1    0    0    0  501 -0.00000000000E+00  0.00000000000E+00  0.71494562157E+01  0.71494579922E+01  0.50400000000E-02 0.  1.
          2   -1    0    0  501    0  0.00000000000E+00 -0.00000000000E+00 -0.21365716207E+03  0.21365716208E+03  0.25500000000E-02 0. -1.
         24    2    1    2    0    0  0.17763568394E-14  0.00000000000E+00 -0.20650770585E+03  0.22080662008E+03  0.78167326248E+02 0.  0.
         66    2    3    3    0    0  0.14941340802E+02  0.23521340350E+02 -0.18063143062E+03  0.18277913133E+03  0.20000005834E+01 0.  0.
        -13    1    3    3    0    0 -0.14941340802E+02 -0.23521340350E+02 -0.25876275230E+02  0.38027488750E+02  0.10566000000E+00 0.  1.
         13    1    4    4    0    0  0.96637091702E+00  0.16848487094E+01 -0.12699125572E+02  0.12847238702E+02  0.10566000000E+00 0. -1.
        -13    1    4    4    0    0  0.75046783521E+01  0.11476647525E+02 -0.94779901475E+02  0.95766771498E+02  0.10566000000E+00 0.  1.
         14    1    4    4    0    0  0.64702915332E+01  0.10359844116E+02 -0.73152403576E+02  0.74165121126E+02  0.00000000000E+00 0. -1.
<mgrwt>
<rscale>  0 0.78167326E+02</rscale>
<asrwt>0</asrwt>
<pdfrwt beam="1">  1        2 0.32870328E-01 0.78167326E+02</pdfrwt>
<pdfrwt beam="2">  1       -1 0.10999166E-02 0.78167326E+02</pdfrwt>
<totfact> 0.23993558E+05</totfact>
</mgrwt>
</event>
<event>
 8    1  0.1493610E-013  0.7931979E+02  0.7818608E-02  0.1330993E+00
         -1   -1    0    0    0  501 -0.00000000000E+00  0.00000000000E+00  0.26281976676E+01  0.26282025001E+01  0.50400000000E-02 0.  1.
          2   -1    0    0  501    0  0.00000000000E+00 -0.00000000000E+00 -0.59847323110E+03  0.59847323111E+03  0.25500000000E-02 0. -1.
         24    2    1    2    0    0 -0.44408920985E-15  0.00000000000E+00 -0.59584503343E+03  0.60110143361E+03  0.79319793347E+02 0.  0.
         66    2    3    3    0    0  0.34436251474E+01 -0.35940433780E+02 -0.42201653839E+03  0.42356290205E+03  0.19999958553E+01 0.  0.
        -13    1    3    3    0    0 -0.34436251474E+01  0.35940433780E+02 -0.17382849505E+03  0.17753853156E+03  0.10566000000E+00 0.  1.
         13    1    4    4    0    0  0.20419168969E+01 -0.19780274384E+02 -0.23802155152E+03  0.23885078780E+03  0.10566000000E+00 0. -1.
        -13    1    4    4    0    0  0.26039475747E+00 -0.24263576378E+01 -0.32454836890E+02  0.32546622228E+02  0.10566000000E+00 0.  1.
         14    1    4    4    0    0  0.11413134930E+01 -0.13733801758E+02 -0.15154014997E+03  0.15216549202E+03  0.00000000000E+00 0. -1.
<mgrwt>
<rscale>  0 0.79319793E+02</rscale>
<asrwt>0</asrwt>
<pdfrwt beam="1">  1        2 0.92072696E-01 0.79319793E+02</pdfrwt>
<pdfrwt beam="2">  1       -1 0.40433895E-03 0.79319793E+02</pdfrwt>
<totfact> 0.32862542E+05</totfact>
</mgrwt>
</event>
<event>
 8    1  0.1493610E-013  0.7798163E+02  0.7818608E-02  0.1334879E+00
          2   -1    0    0  501    0  0.00000000000E+00  0.00000000000E+00  0.94282343422E+03  0.94282343423E+03  0.25500000000E-02 0. -1.
         -1   -1    0    0    0  501 -0.00000000000E+00 -0.00000000000E+00 -0.16124756362E+01  0.16124835128E+01  0.50400000000E-02 0.  1.
         24    2    1    2    0    0  0.00000000000E+00  0.35527136788E-14  0.94121095859E+03  0.94443591774E+03  0.77981627016E+02 0.  0.
         66    2    3    3    0    0 -0.31529220891E+01  0.19970364002E+02  0.87432560839E+03  0.87456161924E+03  0.20000002951E+01 0.  0.
        -13    1    3    3    0    0  0.31529220891E+01 -0.19970364002E+02  0.66885350195E+02  0.69874298499E+02  0.10566000000E+00 0.  1.
         13    1    4    4    0    0 -0.82189959348E+00  0.77376807874E+01  0.33029503065E+03  0.33038669110E+03  0.10566000000E+00 0. -1.
        -13    1    4    4    0    0 -0.25060537362E+01  0.10899718586E+02  0.48111478670E+03  0.48124477485E+03  0.10566000000E+00 0.  1.
        -14    1    4    4    0    0  0.17503124058E+00  0.13329646289E+01  0.62915791045E+02  0.62930153293E+02  0.00000000000E+00 0.  1.
<mgrwt>
<rscale>  0 0.77981627E+02</rscale>
<asrwt>0</asrwt>
<pdfrwt beam="1">  1        2 0.14504966E+00 0.77981627E+02</pdfrwt>
<pdfrwt beam="2">  1       -1 0.24807395E-03 0.77981627E+02</pdfrwt>
<totfact> 0.37507454E+05</totfact>
</mgrwt>
</event>
<event>
 8    1  0.1493610E-013  0.8060347E+02  0.7818608E-02  0.1327348E+00
          2   -1    0    0  501    0  0.00000000000E+00  0.00000000000E+00  0.36870365869E+03  0.36870365870E+03  0.25500000000E-02 0. -1.
         -1   -1    0    0    0  501 -0.00000000000E+00 -0.00000000000E+00 -0.44052431880E+01  0.44052460711E+01  0.50400000000E-02 0.  1.
         24    2    1    2    0    0  0.00000000000E+00  0.00000000000E+00  0.36429841550E+03  0.37310890477E+03  0.80603469413E+02 0.  0.
         66    2    3    3    0    0 -0.26621158996E+02 -0.29337721349E+02  0.21590834932E+03  0.21952176043E+03  0.19999992539E+01 0.  0.
        -13    1    3    3    0    0  0.26621158996E+02  0.29337721349E+02  0.14839006618E+03  0.15358714434E+03  0.10566000000E+00 0.  1.
         13    1    4    4    0    0 -0.16667607458E+01 -0.17220237378E+01  0.14810639768E+02  0.15003655272E+02  0.10566000000E+00 0. -1.
        -13    1    4    4    0    0 -0.11134752613E+02 -0.13372888934E+02  0.93889912672E+02  0.95488971823E+02  0.10566000000E+00 0.  1.
         14    1    4    4    0    0 -0.13819645637E+02 -0.14242808676E+02  0.10720779688E+03  0.10902913334E+03  0.00000000000E+00 0. -1.
<mgrwt>
<rscale>  0 0.80603469E+02</rscale>
<asrwt>0</asrwt>
<pdfrwt beam="1">  1        2 0.56723648E-01 0.80603469E+02</pdfrwt>
<pdfrwt beam="2">  1       -1 0.67772985E-03 0.80603469E+02</pdfrwt>
<totfact> 0.26918693E+05</totfact>
</mgrwt>
</event>
<event>
 8    1  0.1493610E-013  0.7948829E+02  0.7818608E-02  0.1330510E+00
         -1   -1    0    0    0  501 -0.00000000000E+00  0.00000000000E+00  0.43469209986E+03  0.43469209989E+03  0.50400000000E-02 0.  1.
          2   -1    0    0  501    0  0.00000000000E+00 -0.00000000000E+00 -0.36338288347E+01  0.36338297294E+01  0.25500000000E-02 0. -1.
         24    2    1    2    0    0  0.00000000000E+00  0.35527136788E-14  0.43105827102E+03  0.43832592962E+03  0.79488285657E+02 0.  0.
         66    2    3    3    0    0 -0.30511785541E+02  0.25160606821E+02  0.19535417438E+03  0.19932706450E+03  0.19999996879E+01 0.  0.
        -13    1    3    3    0    0  0.30511785541E+02 -0.25160606821E+02  0.23570409664E+03  0.23899886512E+03  0.10566000000E+00 0.  1.
         13    1    4    4    0    0 -0.11719207302E+02  0.97272563545E+01  0.76715604273E+02  0.78212878984E+02  0.10566000000E+00 0. -1.
        -13    1    4    4    0    0 -0.91896315820E+01  0.74802675884E+01  0.54168972990E+02  0.55449910104E+02  0.10566000000E+00 0.  1.
        -14    1    4    4    0    0 -0.96029466567E+01  0.79530828777E+01  0.64469597121E+02  0.65664275407E+02  0.00000000000E+00 0.  1.
<mgrwt>
<rscale>  0 0.79488286E+02</rscale>
<asrwt>0</asrwt>
<pdfrwt beam="1">  1        2 0.55905106E-03 0.79488286E+02</pdfrwt>
<pdfrwt beam="2">  1       -1 0.66875660E-01 0.79488286E+02</pdfrwt>
<totfact> 0.73720384E+04</totfact>
</mgrwt>
</event>
<event>
 8    1  0.1493610E-013  0.8029490E+02  0.7818608E-02  0.1328217E+00
         -1   -1    0    0    0  501 -0.00000000000E+00  0.00000000000E+00  0.30899101831E+01  0.30899142935E+01  0.50400000000E-02 0.  1.
          2   -1    0    0  501    0  0.00000000000E+00 -0.00000000000E+00 -0.52163869264E+03  0.52163869264E+03  0.25500000000E-02 0. -1.
         24    2    1    2    0    0  0.00000000000E+00  0.00000000000E+00 -0.51854878245E+03  0.52472860694E+03  0.80294901166E+02 0.  0.
         66    2    3    3    0    0 -0.15675302426E+00  0.37557675593E+02 -0.35167102755E+03  0.35367656861E+03  0.20000008586E+01 0.  0.
        -13    1    3    3    0    0  0.15675302426E+00 -0.37557675593E+02 -0.16687775491E+03  0.17105203832E+03  0.10566000000E+00 0.  1.
         13    1    4    4    0    0  0.15007138518E-01  0.26003601970E+02 -0.24749399093E+03  0.24885633256E+03  0.10566000000E+00 0. -1.
        -13    1    4    4    0    0 -0.21549248734E+00  0.10633397177E+02 -0.93327734422E+02  0.93931851621E+02  0.10566000000E+00 0.  1.
        -14    1    4    4    0    0  0.43732324553E-01  0.92067644625E+00 -0.10849302191E+02  0.10888384437E+02  0.00000000000E+00 0.  1.
<mgrwt>
<rscale>  0 0.80294901E+02</rscale>
<asrwt>0</asrwt>
<pdfrwt beam="1">  1        2 0.80252037E-01 0.80294901E+02</pdfrwt>
<pdfrwt beam="2">  1       -1 0.47537153E-03 0.80294901E+02</pdfrwt>
<totfact> 0.30565546E+05</totfact>
</mgrwt>
</event>
<event>
 8    1  0.1493610E-013  0.8287644E+02  0.7818608E-02  0.1321081E+00
         -1   -1    0    0    0  501 -0.00000000000E+00  0.00000000000E+00  0.21278431041E+02  0.21278431638E+02  0.50400000000E-02 0.  1.
          2   -1    0    0  501    0  0.00000000000E+00 -0.00000000000E+00 -0.80697969464E+02  0.80697969505E+02  0.25500000000E-02 0. -1.
         24    2    1    2    0    0 -0.88817841970E-15  0.00000000000E+00 -0.59419538424E+02  0.10197640114E+03  0.82876443236E+02 0.  0.
         66    2    3    3    0    0 -0.77568362009E+01 -0.69354526012E+01 -0.79050824549E+02  0.79757770005E+02  0.20000009274E+01 0.  0.
        -13    1    3    3    0    0  0.77568362009E+01  0.69354526012E+01  0.19631286125E+02  0.22218631137E+02  0.10566000000E+00 0.  1.
         13    1    4    4    0    0 -0.56175938241E+01 -0.50846648532E+01 -0.58244274526E+02  0.58735150091E+02  0.10566000000E+00 0. -1.
        -13    1    4    4    0    0 -0.56265284922E+00 -0.66909278045E+00 -0.99368600617E+01  0.99758014866E+01  0.10566000000E+00 0.  1.
         14    1    4    4    0    0 -0.15765895276E+01 -0.11816949676E+01 -0.10869689961E+02  0.11046818428E+02  0.00000000000E+00 0. -1.
<mgrwt>
<rscale>  0 0.82876443E+02</rscale>
<asrwt>0</asrwt>
<pdfrwt beam="1">  1        2 0.12415072E-01 0.82876443E+02</pdfrwt>
<pdfrwt beam="2">  1       -1 0.32736049E-02 0.82876443E+02</pdfrwt>
<totfact> 0.15210204E+05</totfact>
</mgrwt>
</event>
<event>
 8    1  0.1493610E-013  0.8005874E+02  0.7818608E-02  0.1328885E+00
          2   -1    0    0  501    0  0.00000000000E+00  0.00000000000E+00  0.12443763327E+03  0.12443763330E+03  0.25500000000E-02 0. -1.
         -1   -1    0    0    0  501 -0.00000000000E+00 -0.00000000000E+00 -0.12876735621E+02  0.12876736607E+02  0.50400000000E-02 0.  1.
         24    2    1    2    0    0  0.00000000000E+00  0.00000000000E+00  0.11156089765E+03  0.13731436990E+03  0.80058742793E+02 0.  0.
         66    2    3    3    0    0  0.30916097430E+02  0.17654504793E+02  0.87107455005E+02  0.94123298592E+02  0.20000001518E+01 0.  0.
        -13    1    3    3    0    0 -0.30916097430E+02 -0.17654504793E+02  0.24453442644E+02  0.43191071311E+02  0.10566000000E+00 0.  1.
         13    1    4    4    0    0  0.17465388660E+02  0.88630730965E+01  0.47778890083E+02  0.51637460892E+02  0.10566000000E+00 0. -1.
        -13    1    4    4    0    0  0.10371884213E+02  0.69232853594E+01  0.30475327987E+02  0.32928173989E+02  0.10566000000E+00 0.  1.
         14    1    4    4    0    0  0.30788245578E+01  0.18681463370E+01  0.88532369351E+01  0.95576637115E+01  0.00000000000E+00 0. -1.
<mgrwt>
<rscale>  0 0.80058743E+02</rscale>
<asrwt>0</asrwt>
<pdfrwt beam="1">  1        2 0.19144250E-01 0.80058743E+02</pdfrwt>
<pdfrwt beam="2">  1       -1 0.19810364E-02 0.80058743E+02</pdfrwt>
<totfact> 0.18855284E+05</totfact>
</mgrwt>
</event>
<event>
 8    1  0.1493610E-013  0.8166125E+02  0.7818608E-02  0.1324402E+00
         -1   -1    0    0    0  501 -0.00000000000E+00  0.00000000000E+00  0.37547335219E+02  0.37547335557E+02  0.50400000000E-02 0.  1.
          2   -1    0    0  501    0  0.00000000000E+00 -0.00000000000E+00 -0.44401013217E+02  0.44401013291E+02  0.25500000000E-02 0. -1.
         24    2    1    2    0    0  0.00000000000E+00  0.17763568394E-14 -0.68536779988E+01  0.81948348847E+02  0.81661245256E+02 0.  0.
         66    2    3    3    0    0  0.32286636298E+02  0.81316103730E+01  0.20246105045E+02  0.39018646126E+02  0.20000013207E+01 0.  0.
        -13    1    3    3    0    0 -0.32286636298E+02 -0.81316103730E+01 -0.27099783044E+02  0.42929702722E+02  0.10566000000E+00 0.  1.
         13    1    4    4    0    0  0.11378255500E+02  0.23309946136E+01  0.72624928278E+01  0.13698656877E+02  0.10566000000E+00 0. -1.
        -13    1    4    4    0    0  0.10098454618E+02  0.26071071711E+01  0.69668370981E+01  0.12542877527E+02  0.10566000000E+00 0.  1.
        -14    1    4    4    0    0  0.10809926180E+02  0.31935085883E+01  0.60167751194E+01  0.12777111722E+02  0.00000000000E+00 0.  1.
<mgrwt>
<rscale>  0 0.81661245E+02</rscale>
<asrwt>0</asrwt>
<pdfrwt beam="1">  1        2 0.68309251E-02 0.81661245E+02</pdfrwt>
<pdfrwt beam="2">  1       -1 0.57765132E-02 0.81661245E+02</pdfrwt>
<totfact> 0.13765647E+05</totfact>
</mgrwt>
</event>
<event>
 8    1  0.1493610E-013  0.7825170E+02  0.7818608E-02  0.1334087E+00
         -1   -1    0    0    0  501 -0.00000000000E+00  0.00000000000E+00  0.57746276045E+01  0.57746298039E+01  0.50400000000E-02 0.  1.
          2   -1    0    0  501    0  0.00000000000E+00 -0.00000000000E+00 -0.26509619856E+03  0.26509619858E+03  0.25500000000E-02 0. -1.
         24    2    1    2    0    0  0.35527136788E-14 -0.35527136788E-14 -0.25932157096E+03  0.27087082838E+03  0.78251699678E+02 0.  0.
         66    2    3    3    0    0  0.26039801628E+02  0.29000973326E+02 -0.14052585713E+03  0.14584458909E+03  0.19999805343E+01 0.  0.
        -13    1    3    3    0    0 -0.26039801628E+02 -0.29000973326E+02 -0.11879571383E+03  0.12502623929E+03  0.10566000000E+00 0.  1.
         13    1    4    4    0    0  0.15751405450E+02  0.18126324229E+02 -0.86553479898E+02  0.89823084172E+02  0.10566000000E+00 0. -1.
        -13    1    4    4    0    0  0.34284285109E+01  0.42989698957E+01 -0.18772009788E+02  0.19561052623E+02  0.10566000000E+00 0.  1.
         14    1    4    4    0    0  0.68599676670E+01  0.65756792006E+01 -0.35200367442E+02  0.36460452293E+02  0.00000000000E+00 0. -1.
<mgrwt>
<rscale>  0 0.78251700E+02</rscale>
<asrwt>0</asrwt>
<pdfrwt beam="1">  1        2 0.40784021E-01 0.78251700E+02</pdfrwt>
<pdfrwt beam="2">  1       -1 0.88840462E-03 0.78251700E+02</pdfrwt>
<totfact> 0.25832595E+05</totfact>
</mgrwt>
</event>
<event>
 8    1  0.1493610E-013  0.8073085E+02  0.7818608E-02  0.1326990E+00
         -1   -1    0    0    0  501 -0.00000000000E+00  0.00000000000E+00  0.77077685835E+02  0.77077686000E+02  0.50400000000E-02 0.  1.
          2   -1    0    0  501    0  0.00000000000E+00 -0.00000000000E+00 -0.21139291629E+02  0.21139291783E+02  0.25500000000E-02 0. -1.
         24    2    1    2    0    0  0.35527136788E-14 -0.22204460493E-15  0.55938394206E+02  0.98216977783E+02  0.80730853943E+02 0.  0.
         66    2    3    3    0    0  0.15402283093E+02 -0.44040592075E+00 -0.17370735343E+02  0.23305937734E+02  0.20000013685E+01 0.  0.
        -13    1    3    3    0    0 -0.15402283093E+02  0.44040592075E+00  0.73309129549E+02  0.74911040048E+02  0.10566000000E+00 0.  1.
         13    1    4    4    0    0  0.23729494826E+01 -0.61628250058E+00 -0.27323476668E+01  0.36725442374E+01  0.10566000000E+00 0. -1.
        -13    1    4    4    0    0  0.52258938827E+01  0.62528747199E+00 -0.61072344265E+01  0.80629044191E+01  0.10566000000E+00 0.  1.
        -14    1    4    4    0    0  0.78034397282E+01 -0.44941089217E+00 -0.85311532493E+01  0.11570489078E+02  0.00000000000E+00 0.  1.
<mgrwt>
<rscale>  0 0.80730854E+02</rscale>
<asrwt>0</asrwt>
<pdfrwt beam="1">  1        2 0.32521987E-02 0.80730854E+02</pdfrwt>
<pdfrwt beam="2">  1       -1 0.11858106E-01 0.80730854E+02</pdfrwt>
<totfact> 0.12232224E+05</totfact>
</mgrwt>
</event>
<event>
 8    1  0.1493610E-013  0.7877649E+02  0.7818608E-02  0.1332560E+00
          2   -1    0    0  501    0  0.00000000000E+00  0.00000000000E+00  0.46439667292E+02  0.46439667362E+02  0.25500000000E-02 0. -1.
         -1   -1    0    0    0  501 -0.00000000000E+00 -0.00000000000E+00 -0.33407512326E+02  0.33407512706E+02  0.50400000000E-02 0.  1.
         24    2    1    2    0    0  0.27755575616E-16  0.35527136788E-14  0.13032154966E+02  0.79847180068E+02  0.78776488255E+02 0.  0.
         66    2    3    3    0    0  0.14066209190E+00  0.21660074377E+02  0.39834140079E+02  0.45386533268E+02  0.20000196055E+01 0.  0.
        -13    1    3    3    0    0 -0.14066209190E+00 -0.21660074377E+02 -0.26801985113E+02  0.34460646800E+02  0.10566000000E+00 0.  1.
         13    1    4    4    0    0  0.12230211144E+00  0.85997147318E+01  0.14834067826E+02  0.17147325844E+02  0.10566000000E+00 0. -1.
        -13    1    4    4    0    0  0.46646441831E-01  0.13060203295E+01  0.34701031489E+01  0.37095343226E+01  0.10566000000E+00 0.  1.
         14    1    4    4    0    0 -0.28286461371E-01  0.11754339316E+02  0.21529969104E+02  0.24529673102E+02  0.00000000000E+00 0. -1.
<mgrwt>
<rscale>  0 0.78776488E+02</rscale>
<asrwt>0</asrwt>
<pdfrwt beam="1">  1        2 0.71445642E-02 0.78776488E+02</pdfrwt>
<pdfrwt beam="2">  1       -1 0.51396173E-02 0.78776488E+02</pdfrwt>
<totfact> 0.15342516E+05</totfact>
</mgrwt>
</event>
<event>
 8    1  0.1493610E-013  0.7736688E+02  0.7818608E-02  0.1336694E+00
          2   -1    0    0  501    0  0.00000000000E+00  0.00000000000E+00  0.77204230452E+02  0.77204230494E+02  0.25500000000E-02 0. -1.
         -1   -1    0    0    0  501 -0.00000000000E+00 -0.00000000000E+00 -0.19382465565E+02  0.19382466220E+02  0.50400000000E-02 0.  1.
         24    2    1    2    0    0  0.00000000000E+00 -0.44408920985E-15  0.57821764887E+02  0.96586696715E+02  0.77366875907E+02 0.  0.
         66    2    3    3    0    0 -0.36833550683E+02 -0.31465078699E+01  0.43043004951E+02  0.56774212781E+02  0.19999985028E+01 0.  0.
        -13    1    3    3    0    0  0.36833550683E+02  0.31465078699E+01  0.14778759937E+02  0.39812483934E+02  0.10566000000E+00 0.  1.
         13    1    4    4    0    0 -0.94938691748E+01 -0.88913690109E+00  0.11171773797E+02  0.14688220115E+02  0.10566000000E+00 0. -1.
        -13    1    4    4    0    0 -0.24991773767E+02 -0.25391759783E+01  0.29092077796E+02  0.38436913575E+02  0.10566000000E+00 0.  1.
        -14    1    4    4    0    0 -0.23479077413E+01  0.28180500947E+00  0.27791533581E+01  0.36490790910E+01  0.00000000000E+00 0.  1.
<mgrwt>
<rscale>  0 0.77366876E+02</rscale>
<asrwt>0</asrwt>
<pdfrwt beam="1">  1        2 0.11877574E-01 0.77366876E+02</pdfrwt>
<pdfrwt beam="2">  1       -1 0.29819178E-02 0.77366876E+02</pdfrwt>
<totfact> 0.18105267E+05</totfact>
</mgrwt>
</event>
<event>
 8    1  0.1493610E-013  0.8089127E+02  0.7818608E-02  0.1326541E+00
          2   -1    0    0  501    0  0.00000000000E+00  0.00000000000E+00  0.22841898756E+03  0.22841898757E+03  0.25500000000E-02 0. -1.
         -1   -1    0    0    0  501 -0.00000000000E+00 -0.00000000000E+00 -0.71616158349E+01  0.71616176083E+01  0.50400000000E-02 0.  1.
         24    2    1    2    0    0  0.35527136788E-14  0.00000000000E+00  0.22125737172E+03  0.23558060518E+03  0.80891266497E+02 0.  0.
         66    2    3    3    0    0 -0.31694110824E+02 -0.21914558447E+01  0.18347626027E+03  0.18621723125E+03  0.19999975014E+01 0.  0.
        -13    1    3    3    0    0  0.31694110824E+02  0.21914558447E+01  0.37781111451E+02  0.49363373934E+02  0.10566000000E+00 0.  1.
         13    1    4    4    0    0 -0.88561410143E+01 -0.12694108630E+00  0.55502144587E+02  0.56204506630E+02  0.10566000000E+00 0. -1.
        -13    1    4    4    0    0 -0.99229182046E+01 -0.89378532986E+00  0.54843443698E+02  0.55741166462E+02  0.10566000000E+00 0.  1.
         14    1    4    4    0    0 -0.12915051605E+02 -0.11707294286E+01  0.73130671987E+02  0.74271558154E+02  0.00000000000E+00 0. -1.
<mgrwt>
<rscale>  0 0.80891266E+02</rscale>
<asrwt>0</asrwt>
<pdfrwt beam="1">  1        2 0.35141385E-01 0.80891266E+02</pdfrwt>
<pdfrwt beam="2">  1       -1 0.11017871E-02 0.80891266E+02</pdfrwt>
<totfact> 0.22447489E+05</totfact>
</mgrwt>
</event>
<event>
 8    1  0.1493610E-013  0.8362854E+02  0.7818608E-02  0.1319059E+00
         -1   -1    0    0    0  501 -0.00000000000E+00  0.00000000000E+00  0.55536356176E+01  0.55536379045E+01  0.50400000000E-02 0.  1.
          2   -1    0    0  501    0  0.00000000000E+00 -0.00000000000E+00 -0.31482669629E+03  0.31482669630E+03  0.25500000000E-02 0. -1.
         24    2    1    2    0    0  0.00000000000E+00  0.00000000000E+00 -0.30927306067E+03  0.32038033421E+03  0.83628538715E+02 0.  0.
         66    2    3    3    0    0 -0.80345115592E+01 -0.30500518988E+02 -0.25975215376E+03  0.26166775957E+03  0.19999956355E+01 0.  0.
        -13    1    3    3    0    0  0.80345115592E+01  0.30500518988E+02 -0.49520906919E+02  0.58712574638E+02  0.10566000000E+00 0.  1.
         13    1    4    4    0    0 -0.13847047791E+01 -0.83200214725E+01 -0.66531427324E+02  0.67064015317E+02  0.10566000000E+00 0. -1.
        -13    1    4    4    0    0 -0.14041009934E+01 -0.51643721785E+01 -0.44185456595E+02  0.44508515794E+02  0.10566000000E+00 0. -1.
         14    1    4    4    0    0 -0.52457057867E+01 -0.17016125337E+02 -0.14903526984E+03  0.15009522846E+03  0.00000000000E+00 0. -1.
<mgrwt>
<rscale>  0 0.83628539E+02</rscale>
<asrwt>0</asrwt>
<pdfrwt beam="1">  1        2 0.48434862E-01 0.83628539E+02</pdfrwt>
<pdfrwt beam="2">  1       -1 0.85440591E-03 0.83628539E+02</pdfrwt>
<totfact> 0.23090725E+05</totfact>
</mgrwt>
</event>
<event>
 8    1  0.1493610E-013  0.7919344E+02  0.7818608E-02  0.1331356E+00
         -1   -1    0    0    0  501 -0.00000000000E+00  0.00000000000E+00  0.93890351154E+01  0.93890364681E+01  0.50400000000E-02 0.  1.
          2   -1    0    0  501    0  0.00000000000E+00 -0.00000000000E+00 -0.16699267270E+03  0.16699267272E+03  0.25500000000E-02 0. -1.
         24    2    1    2    0    0 -0.71054273576E-14  0.00000000000E+00 -0.15760363759E+03  0.17638170919E+03  0.79193438845E+02 0.  0.
         66    2    3    3    0    0 -0.20306065715E+02  0.52505911018E+01 -0.15358824884E+03  0.15502662730E+03  0.19999946451E+01 0.  0.
        -13    1    3    3    0    0  0.20306065715E+02 -0.52505911018E+01 -0.40153887483E+01  0.21355081891E+02  0.10566000000E+00 0.  1.
         13    1    4    4    0    0 -0.45437309549E+01  0.16026590490E+01 -0.39112034283E+02  0.39407821518E+02  0.10566000000E+00 0. -1.
        -13    1    4    4    0    0 -0.12007788544E+01  0.10968128167E+00 -0.10130513882E+02  0.10202567098E+02  0.10566000000E+00 0.  1.
        -14    1    4    4    0    0 -0.14561555906E+02  0.35382507711E+01 -0.10434570067E+03  0.10541623868E+03  0.00000000000E+00 0.  1.
<mgrwt>
<rscale>  0 0.79193439E+02</rscale>
<asrwt>0</asrwt>
<pdfrwt beam="1">  1        2 0.25691178E-01 0.79193439E+02</pdfrwt>
<pdfrwt beam="2">  1       -1 0.14444672E-02 0.79193439E+02</pdfrwt>
<totfact> 0.21309589E+05</totfact>
</mgrwt>
</event>
<event>
 8    1  0.1493610E-013  0.8116776E+02  0.7818608E-02  0.1325770E+00
         -1   -1    0    0    0  501 -0.00000000000E+00  0.00000000000E+00  0.24051386258E+03  0.24051386263E+03  0.50400000000E-02 0.  1.
          2   -1    0    0  501    0  0.00000000000E+00 -0.00000000000E+00 -0.68480520468E+01  0.68480525216E+01  0.25500000000E-02 0. -1.
         24    2    1    2    0    0  0.00000000000E+00  0.00000000000E+00  0.23366581053E+03  0.24736191515E+03  0.81167764887E+02 0.  0.
         66    2    3    3    0    0  0.25464416391E+02  0.26744467847E+02  0.65786370012E+02  0.75468864753E+02  0.20000012999E+01 0.  0.
        -13    1    3    3    0    0 -0.25464416391E+02 -0.26744467847E+02  0.16787944052E+03  0.17189305040E+03  0.10566000000E+00 0.  1.
         13    1    4    4    0    0  0.42249110457E+01  0.46048045942E+01  0.10141429840E+02  0.11912760467E+02  0.10566000000E+00 0. -1.
        -13    1    4    4    0    0  0.80329297301E+01  0.92785349556E+01  0.22514824215E+02  0.25642691833E+02  0.10566000000E+00 0.  1.
         14    1    4    4    0    0  0.13206575616E+02  0.12861128297E+02  0.33130115957E+02  0.37913412453E+02  0.00000000000E+00 0. -1.
<mgrwt>
<rscale>  0 0.81167765E+02</rscale>
<asrwt>0</asrwt>
<pdfrwt beam="1">  1        2 0.10535466E-02 0.81167765E+02</pdfrwt>
<pdfrwt beam="2">  1       -1 0.37002131E-01 0.81167765E+02</pdfrwt>
<totfact> 0.90448509E+04</totfact>
</mgrwt>
</event>
<event>
 8    1  0.1493610E-013  0.8018493E+02  0.7818608E-02  0.1328527E+00
         -1   -1    0    0    0  501 -0.00000000000E+00  0.00000000000E+00  0.46329080883E+02  0.46329081157E+02  0.50400000000E-02 0.  1.
          2   -1    0    0  501    0  0.00000000000E+00 -0.00000000000E+00 -0.34695392125E+02  0.34695392219E+02  0.25500000000E-02 0. -1.
         24    2    1    2    0    0 -0.17763568394E-14  0.17763568394E-14  0.11633688758E+02  0.81024473376E+02  0.80184927335E+02 0.  0.
         66    2    3    3    0    0  0.15475738871E+02 -0.15405258833E+02 -0.28125631574E+02  0.35663309252E+02  0.19999955017E+01 0.  0.
        -13    1    3    3    0    0 -0.15475738871E+02  0.15405258833E+02  0.39759320333E+02  0.45361164124E+02  0.10566000000E+00 0.  1.
         13    1    4    4    0    0  0.11035683690E+01 -0.16750869708E+01 -0.28191424757E+01  0.34615759183E+01  0.10566000000E+00 0. -1.
        -13    1    4    4    0    0  0.31450146958E+01 -0.36583981019E+01 -0.58339032073E+01  0.75710359117E+01  0.10566000000E+00 0.  1.
        -14    1    4    4    0    0  0.11227155807E+02 -0.10071773760E+02 -0.19472585891E+02  0.24630697422E+02  0.00000000000E+00 0.  1.
<mgrwt>
<rscale>  0 0.80184927E+02</rscale>
<asrwt>0</asrwt>
<pdfrwt beam="1">  1        2 0.53377527E-02 0.80184927E+02</pdfrwt>
<pdfrwt beam="2">  1       -1 0.71275509E-02 0.80184927E+02</pdfrwt>
<totfact> 0.13760987E+05</totfact>
</mgrwt>
</event>
<event>
 8    1  0.1493610E-013  0.7854220E+02  0.7818608E-02  0.1333240E+00
         -1   -1    0    0    0  501 -0.00000000000E+00  0.00000000000E+00  0.15178784627E+01  0.15178868302E+01  0.50400000000E-02 0.  1.
          2   -1    0    0  501    0  0.00000000000E+00 -0.00000000000E+00 -0.10160333678E+04  0.10160333679E+04  0.25500000000E-02 0. -1.
         24    2    1    2    0    0 -0.17763568394E-14  0.00000000000E+00 -0.10145154894E+04  0.10175512547E+04  0.78542203312E+02 0.  0.
         66    2    3    3    0    0 -0.13394265924E+02  0.13421839825E+02 -0.95274567551E+03  0.95293644822E+03  0.19999995370E+01 0.  0.
        -13    1    3    3    0    0  0.13394265924E+02 -0.13421839825E+02 -0.61769813881E+02  0.64614806468E+02  0.10566000000E+00 0.  1.
         13    1    4    4    0    0 -0.53829181271E+01  0.62261863797E+01 -0.39878870303E+03  0.39887364168E+03  0.10566000000E+00 0. -1.
        -13    1    4    4    0    0 -0.51314849241E+01  0.49994736547E+01 -0.34417222498E+03  0.34424679880E+03  0.10566000000E+00 0.  1.
        -14    1    4    4    0    0 -0.28798628723E+01  0.21961797908E+01 -0.20978474750E+03  0.20981600773E+03  0.00000000000E+00 0.  1.
<mgrwt>
<rscale>  0 0.78542203E+02</rscale>
<asrwt>0</asrwt>
<pdfrwt beam="1">  1        2 0.15631228E+00 0.78542203E+02</pdfrwt>
<pdfrwt beam="2">  1       -1 0.23352122E-03 0.78542203E+02</pdfrwt>
<totfact> 0.36973687E+05</totfact>
</mgrwt>
</event>
<event>
 8    1  0.1493610E-013  0.7940566E+02  0.7818608E-02  0.1330747E+00
          2   -1    0    0  501    0  0.00000000000E+00  0.00000000000E+00  0.21308293194E+02  0.21308293346E+02  0.25500000000E-02 0. -1.
         -1   -1    0    0    0  501 -0.00000000000E+00 -0.00000000000E+00 -0.73976586904E+02  0.73976587076E+02  0.50400000000E-02 0.  1.
         24    2    1    2    0    0  0.00000000000E+00 -0.71054273576E-14 -0.52668293710E+02  0.95284880422E+02  0.79405662737E+02 0.  0.
         66    2    3    3    0    0  0.70849272726E+01 -0.37994914300E+02 -0.15584396885E+02  0.41721494841E+02  0.19999995841E+01 0.  0.
        -13    1    3    3    0    0 -0.70849272726E+01  0.37994914300E+02 -0.37083896825E+02  0.53563385581E+02  0.10566000000E+00 0.  1.
         13    1    4    4    0    0  0.90181349903E+00 -0.34481646071E+01 -0.11095629957E+01  0.37343541372E+01  0.10566000000E+00 0. -1.
        -13    1    4    4    0    0  0.22180869210E+01 -0.13701540083E+02 -0.50692150618E+01  0.14777016465E+02  0.10566000000E+00 0.  1.
        -14    1    4    4    0    0  0.39650268525E+01 -0.20845209610E+02 -0.94056188273E+01  0.23210124238E+02  0.00000000000E+00 0.  1.
<mgrwt>
<rscale>  0 0.79405663E+02</rscale>
<asrwt>0</asrwt>
<pdfrwt beam="1">  1        2 0.32781990E-02 0.79405663E+02</pdfrwt>
<pdfrwt beam="2">  1       -1 0.11381013E-01 0.79405663E+02</pdfrwt>
<totfact> 0.12845929E+05</totfact>
</mgrwt>
</event>
<event>
 8    1  0.1493610E-013  0.7372183E+02  0.7818608E-02  0.1347875E+00
          2   -1    0    0  501    0  0.00000000000E+00  0.00000000000E+00  0.45124231232E+02  0.45124231304E+02  0.25500000000E-02 0. -1.
         -1   -1    0    0    0  501 -0.00000000000E+00 -0.00000000000E+00 -0.30110804265E+02  0.30110804687E+02  0.50400000000E-02 0.  1.
         24    2    1    2    0    0 -0.71054273576E-14 -0.17763568394E-14  0.15013426967E+02  0.75235035991E+02  0.73721826153E+02 0.  0.
         66    2    3    3    0    0 -0.32484718428E+02 -0.11122842022E+02  0.21118077195E+02  0.40360224674E+02  0.20000013251E+01 0.  0.
        -13    1    3    3    0    0  0.32484718428E+02  0.11122842022E+02 -0.61046502282E+01  0.34874811317E+02  0.10566000000E+00 0.  1.
         13    1    4    4    0    0 -0.33264527818E+01 -0.14677914351E+01  0.16822846334E+01  0.40076109380E+01  0.10566000000E+00 0. -1.
        -13    1    4    4    0    0 -0.96927148306E+01 -0.34549540284E+01  0.66488057032E+01  0.12251661497E+02  0.10566000000E+00 0.  1.
         14    1    4    4    0    0 -0.19465550816E+02 -0.62000965582E+01  0.12786986859E+02  0.24100952239E+02  0.00000000000E+00 0. -1.
<mgrwt>
<rscale>  0 0.73721826E+02</rscale>
<asrwt>0</asrwt>
<pdfrwt beam="1">  1        2 0.69421894E-02 0.73721826E+02</pdfrwt>
<pdfrwt beam="2">  1       -1 0.46324315E-02 0.73721826E+02</pdfrwt>
<totfact> 0.18275120E+05</totfact>
</mgrwt>
</event>
<event>
 8    1  0.1493610E-013  0.8039235E+02  0.7818608E-02  0.1327942E+00
          2   -1    0    0  501    0  0.00000000000E+00  0.00000000000E+00  0.61511677522E+03  0.61511677523E+03  0.25500000000E-02 0. -1.
         -1   -1    0    0    0  501 -0.00000000000E+00 -0.00000000000E+00 -0.26267061411E+01  0.26267109764E+01  0.50400000000E-02 0.  1.
         24    2    1    2    0    0  0.44408920985E-15  0.71054273576E-14  0.61249006908E+03  0.61774348621E+03  0.80392350534E+02 0.  0.
         66    2    3    3    0    0 -0.26909276517E+01 -0.32975729248E+02  0.48150489065E+03  0.48264438205E+03  0.19999978469E+01 0.  0.
        -13    1    3    3    0    0  0.26909276517E+01  0.32975729248E+02  0.13098517843E+03  0.13509910415E+03  0.10566000000E+00 0.  1.
         13    1    4    4    0    0 -0.59801529623E+00 -0.11761132318E+02  0.16038533789E+03  0.16081713102E+03  0.10566000000E+00 0.  1.
        -13    1    4    4    0    0 -0.13208586521E+01 -0.15308680254E+02  0.22717944798E+03  0.22769851363E+03  0.10566000000E+00 0. -1.
        -14    1    4    4    0    0 -0.77205370342E+00 -0.59059166767E+01  0.93940104783E+02  0.94128737404E+02  0.00000000000E+00 0.  1.
<mgrwt>
<rscale>  0 0.80392351E+02</rscale>
<asrwt>0</asrwt>
<pdfrwt beam="1">  1        2 0.94633334E-01 0.80392351E+02</pdfrwt>
<pdfrwt beam="2">  1       -1 0.40410908E-03 0.80392351E+02</pdfrwt>
<totfact> 0.31974518E+05</totfact>
</mgrwt>
</event>
<event>
 8    1  0.1493610E-013  0.7944937E+02  0.7818608E-02  0.1330621E+00
          2   -1    0    0  501    0  0.00000000000E+00  0.00000000000E+00  0.11752202270E+02  0.11752202547E+02  0.25500000000E-02 0. -1.
         -1   -1    0    0    0  501 -0.00000000000E+00 -0.00000000000E+00 -0.13427702046E+03  0.13427702056E+03  0.50400000000E-02 0.  1.
         24    2    1    2    0    0  0.35527136788E-14  0.35527136788E-14 -0.12252481819E+03  0.14602922311E+03  0.79449373361E+02 0.  0.
         66    2    3    3    0    0 -0.31116062119E+02  0.24647202993E+02 -0.60210879843E+02  0.72145990814E+02  0.20000004681E+01 0.  0.
        -13    1    3    3    0    0  0.31116062119E+02 -0.24647202993E+02 -0.62313938351E+02  0.73883232292E+02  0.10566000000E+00 0.  1.
         13    1    4    4    0    0 -0.25890903380E+01  0.18151435899E+01 -0.43151907959E+01  0.53507168371E+01  0.10566000000E+00 0. -1.
        -13    1    4    4    0    0 -0.63247920224E+01  0.54307077928E+01 -0.13761049990E+02  0.16089538281E+02  0.10566000000E+00 0.  1.
         14    1    4    4    0    0 -0.22202179758E+02  0.17401351610E+02 -0.42134639058E+02  0.50705735695E+02  0.00000000000E+00 0. -1.
<mgrwt>
<rscale>  0 0.79449373E+02</rscale>
<asrwt>0</asrwt>
<pdfrwt beam="1">  1        2 0.18080312E-02 0.79449373E+02</pdfrwt>
<pdfrwt beam="2">  1       -1 0.20658002E-01 0.79449373E+02</pdfrwt>
<totfact> 0.11282061E+05</totfact>
</mgrwt>
</event>
<event>
 8    1  0.1493610E-013  0.8012815E+02  0.7818608E-02  0.1328688E+00
          2   -1    0    0  501    0  0.00000000000E+00  0.00000000000E+00  0.48960692270E+03  0.48960692271E+03  0.25500000000E-02 0. -1.
         -1   -1    0    0    0  501 -0.00000000000E+00 -0.00000000000E+00 -0.32784038842E+01  0.32784077583E+01  0.50400000000E-02 0.  1.
         24    2    1    2    0    0  0.35527136788E-14 -0.35527136788E-14  0.48632851882E+03  0.49288533047E+03  0.80128152194E+02 0.  0.
         66    2    3    3    0    0 -0.30707721039E+02 -0.22052633032E+02  0.32441866406E+03  0.32662019586E+03  0.19999990770E+01 0.  0.
        -13    1    3    3    0    0  0.30707721039E+02  0.22052633032E+02  0.16190985476E+03  0.16626513461E+03  0.10566000000E+00 0.  1.
         13    1    4    4    0    0 -0.62359369461E+00 -0.57235149913E+00  0.73564105685E+01  0.74057002250E+01  0.10566000000E+00 0. -1.
        -13    1    4    4    0    0 -0.50364423174E+01 -0.43776792335E+01  0.58528735277E+02  0.58908011712E+02  0.10566000000E+00 0. -1.
        -14    1    4    4    0    0 -0.25047685027E+02 -0.17102602299E+02  0.25853351822E+03  0.26030648392E+03  0.00000000000E+00 0.  1.
<mgrwt>
<rscale>  0 0.80128152E+02</rscale>
<asrwt>0</asrwt>
<pdfrwt beam="1">  1        2 0.75324076E-01 0.80128152E+02</pdfrwt>
<pdfrwt beam="2">  1       -1 0.50437057E-03 0.80128152E+02</pdfrwt>
<totfact> 0.30121047E+05</totfact>
</mgrwt>
</event>
<event>
 8    1  0.1493610E-013  0.7936540E+02  0.7818608E-02  0.1330862E+00
          2   -1    0    0  501    0  0.00000000000E+00  0.00000000000E+00  0.89184148161E+02  0.89184148197E+02  0.25500000000E-02 0. -1.
         -1   -1    0    0    0  501 -0.00000000000E+00 -0.00000000000E+00 -0.17656910082E+02  0.17656910801E+02  0.50400000000E-02 0.  1.
         24    2    1    2    0    0  0.71054273576E-14  0.44408920985E-15  0.71527238079E+02  0.10684105900E+03  0.79365396117E+02 0.  0.
         66    2    3    3    0    0 -0.37583535364E+02 -0.20277489194E+01  0.52604384694E+02  0.64713639894E+02  0.20000007759E+01 0.  0.
        -13    1    3    3    0    0  0.37583535364E+02  0.20277489194E+01  0.18922853384E+02  0.42127419105E+02  0.10566000000E+00 0.  1.
         13    1    4    4    0    0 -0.20695906068E+02 -0.14510630247E+01  0.29233712537E+02  0.35847555350E+02  0.10566000000E+00 0. -1.
        -13    1    4    4    0    0 -0.11676062455E+01  0.25566262225E+00  0.15780957191E+01  0.19824777061E+01  0.10566000000E+00 0.  1.
        -14    1    4    4    0    0 -0.15720023051E+02 -0.83234851688E+00  0.21792576438E+02  0.26883606838E+02  0.00000000000E+00 0.  1.
<mgrwt>
<rscale>  0 0.79365396E+02</rscale>
<asrwt>0</asrwt>
<pdfrwt beam="1">  1        2 0.13720638E-01 0.79365396E+02</pdfrwt>
<pdfrwt beam="2">  1       -1 0.27164478E-02 0.79365396E+02</pdfrwt>
<totfact> 0.17550067E+05</totfact>
</mgrwt>
</event>
<event>
 8    1  0.1493610E-013  0.8035926E+02  0.7818608E-02  0.1328035E+00
          2   -1    0    0  501    0  0.00000000000E+00  0.00000000000E+00  0.16043122466E+04  0.16043122466E+04  0.25500000000E-02 0. -1.
         -1   -1    0    0    0  501 -0.00000000000E+00 -0.00000000000E+00 -0.10062833700E+01  0.10062959914E+01  0.50400000000E-02 0.  1.
         24    2    1    2    0    0  0.00000000000E+00  0.00000000000E+00  0.16033059633E+04  0.16053185426E+04  0.80359264963E+02 0.  0.
         66    2    3    3    0    0 -0.48897585362E+01  0.11658575442E+02  0.15635136193E+04  0.15635660107E+04  0.19999941656E+01 0.  0.
        -13    1    3    3    0    0  0.48897585362E+01 -0.11658575442E+02  0.39792344004E+02  0.41752531962E+02  0.10566000000E+00 0.  1.
         13    1    4    4    0    0 -0.10289430271E+01  0.19974203629E+01  0.22972802561E+03  0.22973903745E+03  0.10566000000E+00 0. -1.
        -13    1    4    4    0    0  0.15748727126E-01  0.96682106447E+00  0.10490399867E+03  0.10490850820E+03  0.10566000000E+00 0. -1.
        -14    1    4    4    0    0 -0.38765642362E+01  0.86943340144E+01  0.12288815950E+04  0.12289184650E+04  0.00000000000E+00 0.  1.
<mgrwt>
<rscale>  0 0.80359265E+02</rscale>
<asrwt>0</asrwt>
<pdfrwt beam="1">  1        2 0.24681847E+00 0.80359265E+02</pdfrwt>
<pdfrwt beam="2">  1       -1 0.15481304E-03 0.80359265E+02</pdfrwt>
<totfact> 0.31935794E+05</totfact>
</mgrwt>
</event>
<event>
 8    1  0.1493610E-013  0.7977062E+02  0.7818608E-02  0.1329704E+00
          2   -1    0    0  501    0  0.00000000000E+00  0.00000000000E+00  0.18435295632E+02  0.18435295808E+02  0.25500000000E-02 0. -1.
         -1   -1    0    0    0  501 -0.00000000000E+00 -0.00000000000E+00 -0.86293062165E+02  0.86293062312E+02  0.50400000000E-02 0.  1.
         24    2    1    2    0    0  0.00000000000E+00  0.00000000000E+00 -0.67857766533E+02  0.10472835812E+03  0.79770624390E+02 0.  0.
         66    2    3    3    0    0  0.29881287523E+02  0.16480566487E+02 -0.69059240564E+01  0.34873947514E+02  0.20000030849E+01 0.  0.
        -13    1    3    3    0    0 -0.29881287523E+02 -0.16480566487E+02 -0.60951842477E+02  0.69854410606E+02  0.10566000000E+00 0.  1.
         13    1    4    4    0    0  0.70022816298E+01  0.43775550236E+01 -0.16400420079E+01  0.84199666170E+01  0.10566000000E+00 0. -1.
        -13    1    4    4    0    0  0.13490883367E+02  0.79368619760E+01 -0.30774948809E+01  0.15952424606E+02  0.10566000000E+00 0.  1.
        -14    1    4    4    0    0  0.93881225266E+01  0.41661494876E+01 -0.21883871675E+01  0.10501556291E+02  0.00000000000E+00 0.  1.
<mgrwt>
<rscale>  0 0.79770624E+02</rscale>
<asrwt>0</asrwt>
<pdfrwt beam="1">  1        2 0.28361994E-02 0.79770624E+02</pdfrwt>
<pdfrwt beam="2">  1       -1 0.13275856E-01 0.79770624E+02</pdfrwt>
<totfact> 0.12312665E+05</totfact>
</mgrwt>
</event>
<event>
 8    1  0.1493610E-013  0.8171895E+02  0.7818608E-02  0.1324243E+00
         -1   -1    0    0    0  501 -0.00000000000E+00  0.00000000000E+00  0.42536318638E+01  0.42536348496E+01  0.50400000000E-02 0.  1.
          2   -1    0    0  501    0  0.00000000000E+00 -0.00000000000E+00 -0.39248724402E+03  0.39248724403E+03  0.25500000000E-02 0. -1.
         24    2    1    2    0    0 -0.71054273576E-14  0.00000000000E+00 -0.38823361216E+03  0.39674087888E+03  0.81718953523E+02 0.  0.
         66    2    3    3    0    0  0.32114287968E+02 -0.14286880560E+02 -0.29514662374E+03  0.29723891395E+03  0.20000034894E+01 0.  0.
        -13    1    3    3    0    0 -0.32114287968E+02  0.14286880560E+02 -0.93086988413E+02  0.99501964923E+02  0.10566000000E+00 0.  1.
         13    1    4    4    0    0  0.17930343529E+02 -0.84785345775E+01 -0.17044535391E+03  0.17159549121E+03  0.10566000000E+00 0. -1.
        -13    1    4    4    0    0  0.42522490169E+01 -0.17818648120E+01 -0.41168668614E+02  0.41426164478E+02  0.10566000000E+00 0. -1.
         14    1    4    4    0    0  0.99316954214E+01 -0.40264811706E+01 -0.83532601215E+02  0.84217258269E+02  0.00000000000E+00 0. -1.
<mgrwt>
<rscale>  0 0.81718954E+02</rscale>
<asrwt>0</asrwt>
<pdfrwt beam="1">  1        2 0.60382625E-01 0.81718954E+02</pdfrwt>
<pdfrwt beam="2">  1       -1 0.65440544E-03 0.81718954E+02</pdfrwt>
<totfact> 0.26548506E+05</totfact>
</mgrwt>
</event>
<event>
 8    1  0.1493610E-013  0.7996745E+02  0.7818608E-02  0.1329144E+00
          2   -1    0    0  501    0  0.00000000000E+00  0.00000000000E+00  0.10153813159E+04  0.10153813159E+04  0.25500000000E-02 0. -1.
         -1   -1    0    0    0  501 -0.00000000000E+00 -0.00000000000E+00 -0.15744767446E+01  0.15744848113E+01  0.50400000000E-02 0.  1.
         24    2    1    2    0    0  0.00000000000E+00  0.00000000000E+00  0.10138068391E+04  0.10169558007E+04  0.79967452682E+02 0.  0.
         66    2    3    3    0    0 -0.21557095385E+02  0.16757130454E+02  0.87824227782E+03  0.87866888436E+03  0.19999992873E+01 0.  0.
        -13    1    3    3    0    0  0.21557095385E+02 -0.16757130454E+02  0.13556456130E+03  0.13828691632E+03  0.10566000000E+00 0.  1.
         13    1    4    4    0    0 -0.20472616350E+01  0.13191306221E+01  0.77353362436E+02  0.77391764614E+02  0.10566000000E+00 0.  1.
        -13    1    4    4    0    0 -0.12741180088E+02  0.90397387869E+01  0.49615013371E+03  0.49639603230E+03  0.10566000000E+00 0. -1.
        -14    1    4    4    0    0 -0.67686536618E+01  0.63982610449E+01  0.30473878168E+03  0.30488108744E+03  0.00000000000E+00 0.  1.
<mgrwt>
<rscale>  0 0.79967453E+02</rscale>
<asrwt>0</asrwt>
<pdfrwt beam="1">  1        2 0.15621241E+00 0.79967453E+02</pdfrwt>
<pdfrwt beam="2">  1       -1 0.24222796E-03 0.79967453E+02</pdfrwt>
<totfact> 0.35288031E+05</totfact>
</mgrwt>
</event>
<event>
 8    1  0.1493610E-013  0.7974803E+02  0.7818608E-02  0.1329768E+00
         -1   -1    0    0    0  501 -0.00000000000E+00  0.00000000000E+00  0.22530324831E+01  0.22530381202E+01  0.50400000000E-02 0.  1.
          2   -1    0    0  501    0  0.00000000000E+00 -0.00000000000E+00 -0.70568662576E+03  0.70568662577E+03  0.25500000000E-02 0. -1.
         24    2    1    2    0    0  0.00000000000E+00 -0.22204460493E-15 -0.70343359328E+03  0.70793966389E+03  0.79748025373E+02 0.  0.
         66    2    3    3    0    0  0.17430669548E+02  0.14567522766E+01 -0.66978372017E+03  0.67001506115E+03  0.20000005298E+01 0.  0.
        -13    1    3    3    0    0 -0.17430669548E+02 -0.14567522766E+01 -0.33649873112E+02  0.37924602734E+02  0.10566000000E+00 0.  1.
         13    1    4    4    0    0  0.48192203253E+01  0.15533132898E+00 -0.20555699225E+03  0.20561356287E+03  0.10566000000E+00 0. -1.
        -13    1    4    4    0    0  0.93704938885E+01  0.14135928421E+01 -0.35674482601E+03  0.35687068589E+03  0.10566000000E+00 0. -1.
         14    1    4    4    0    0  0.32409553342E+01 -0.11217189448E+00 -0.10748190191E+03  0.10753081239E+03  0.00000000000E+00 0. -1.
<mgrwt>
<rscale>  0 0.79748025E+02</rscale>
<asrwt>0</asrwt>
<pdfrwt beam="1">  1        2 0.10856700E+00 0.79748025E+02</pdfrwt>
<pdfrwt beam="2">  1       -1 0.34662138E-03 0.79748025E+02</pdfrwt>
<totfact> 0.33789177E+05</totfact>
</mgrwt>
</event>
<event>
 8    1  0.1493610E-013  0.8052122E+02  0.7818608E-02  0.1327579E+00
         -1   -1    0    0    0  501 -0.00000000000E+00  0.00000000000E+00  0.14841375521E+02  0.14841376377E+02  0.50400000000E-02 0.  1.
          2   -1    0    0  501    0  0.00000000000E+00 -0.00000000000E+00 -0.10921606838E+03  0.10921606841E+03  0.25500000000E-02 0. -1.
         24    2    1    2    0    0  0.00000000000E+00 -0.22204460493E-15 -0.94374692857E+02  0.12405744478E+03  0.80521220523E+02 0.  0.
         66    2    3    3    0    0  0.36357497536E+02  0.13525120445E+01 -0.73688061610E+02  0.82204789046E+02  0.20000005818E+01 0.  0.
        -13    1    3    3    0    0 -0.36357497536E+02 -0.13525120445E+01 -0.20686631247E+02  0.41852655738E+02  0.10566000000E+00 0.  1.
         13    1    4    4    0    0  0.27315837033E+02  0.15173016323E+01 -0.54649972981E+02  0.61115365236E+02  0.10566000000E+00 0. -1.
        -13    1    4    4    0    0  0.52719861035E+01 -0.42453135679E+00 -0.10793884036E+02  0.12020530810E+02  0.10566000000E+00 0.  1.
         14    1    4    4    0    0  0.37696744000E+01  0.25974176892E+00 -0.82442045931E+01  0.90688929998E+01  0.00000000000E+00 0. -1.
<mgrwt>
<rscale>  0 0.80521221E+02</rscale>
<asrwt>0</asrwt>
<pdfrwt beam="1">  1        2 0.16802472E-01 0.80521221E+02</pdfrwt>
<pdfrwt beam="2">  1       -1 0.22832887E-02 0.80521221E+02</pdfrwt>
<totfact> 0.17863199E+05</totfact>
</mgrwt>
</event>
<event>
 8    1  0.1493610E-013  0.8031788E+02  0.7818608E-02  0.1328152E+00
          2   -1    0    0  501    0  0.00000000000E+00  0.00000000000E+00  0.41445926449E+03  0.41445926450E+03  0.25500000000E-02 0. -1.
         -1   -1    0    0    0  501 -0.00000000000E+00 -0.00000000000E+00 -0.38911901940E+01  0.38911934580E+01  0.50400000000E-02 0.  1.
         24    2    1    2    0    0 -0.17763568394E-14 -0.22204460493E-15  0.41056807430E+03  0.41835045796E+03  0.80317881202E+02 0.  0.
         66    2    3    3    0    0 -0.14396459697E+02  0.12478265253E+01  0.40043570145E+03  0.40070134278E+03  0.19999979553E+01 0.  0.
        -13    1    3    3    0    0  0.14396459697E+02 -0.12478265253E+01  0.10132372851E+02  0.17649115175E+02  0.10566000000E+00 0.  1.
         13    1    4    4    0    0 -0.75688259267E+01  0.98881936772E+00  0.23327722887E+03  0.23340210274E+03  0.10566000000E+00 0. -1.
        -13    1    4    4    0    0 -0.33598160688E+01  0.27317908414E+00  0.88982226617E+02  0.89046116190E+02  0.10566000000E+00 0.  1.
        -14    1    4    4    0    0 -0.34678177012E+01 -0.14171926582E-01  0.78176245964E+02  0.78253123858E+02  0.00000000000E+00 0.  1.
<mgrwt>
<rscale>  0 0.80317881E+02</rscale>
<asrwt>0</asrwt>
<pdfrwt beam="1">  1        2 0.63762912E-01 0.80317881E+02</pdfrwt>
<pdfrwt beam="2">  1       -1 0.59864538E-03 0.80317881E+02</pdfrwt>
<totfact> 0.28309937E+05</totfact>
</mgrwt>
</event>
<event>
 8    1  0.1493610E-013  0.8148060E+02  0.7818608E-02  0.1324901E+00
         -1   -1    0    0    0  501 -0.00000000000E+00  0.00000000000E+00  0.63537253184E+01  0.63537273173E+01  0.50400000000E-02 0.  1.
          2   -1    0    0  501    0  0.00000000000E+00 -0.00000000000E+00 -0.26122811100E+03  0.26122811101E+03  0.25500000000E-02 0. -1.
         24    2    1    2    0    0  0.35527136788E-14  0.00000000000E+00 -0.25487438568E+03  0.26758183833E+03  0.81480597244E+02 0.  0.
         66    2    3    3    0    0 -0.21906742316E+02 -0.23141668406E+02 -0.21074373374E+03  0.21314868868E+03  0.20000003522E+01 0.  0.
        -13    1    3    3    0    0  0.21906742316E+02  0.23141668406E+02 -0.44130651940E+02  0.54433149644E+02  0.10566000000E+00 0.  1.
         13    1    4    4    0    0 -0.87155610410E+01 -0.96801491526E+01 -0.88841364276E+02  0.89791232658E+02  0.10566000000E+00 0. -1.
        -13    1    4    4    0    0 -0.10055889328E+01 -0.10330532325E+01 -0.11711136879E+02  0.11800012674E+02  0.10566000000E+00 0.  1.
         14    1    4    4    0    0 -0.12185592342E+02 -0.12428466021E+02 -0.11019123258E+03  0.11155744335E+03  0.00000000000E+00 0. -1.
<mgrwt>
<rscale>  0 0.81480597E+02</rscale>
<asrwt>0</asrwt>
<pdfrwt beam="1">  1        2 0.40188932E-01 0.81480597E+02</pdfrwt>
<pdfrwt beam="2">  1       -1 0.97749656E-03 0.81480597E+02</pdfrwt>
<totfact> 0.23106936E+05</totfact>
</mgrwt>
</event>
<event>
 8    1  0.1493610E-013  0.8098770E+02  0.7818608E-02  0.1326272E+00
         -1   -1    0    0    0  501 -0.00000000000E+00  0.00000000000E+00  0.18031508525E+01  0.18031578961E+01  0.50400000000E-02 0.  1.
          2   -1    0    0  501    0  0.00000000000E+00 -0.00000000000E+00 -0.90937957023E+03  0.90937957023E+03  0.25500000000E-02 0. -1.
         24    2    1    2    0    0  0.00000000000E+00 -0.35527136788E-14 -0.90757641937E+03  0.91118272813E+03  0.80987696793E+02 0.  0.
         66    2    3    3    0    0  0.46168030120E+01  0.27615131162E+02 -0.78282024465E+03  0.78332333412E+03  0.20000020167E+01 0.  0.
        -13    1    3    3    0    0 -0.46168030120E+01 -0.27615131162E+02 -0.12475617473E+03  0.12785939401E+03  0.10566000000E+00 0.  1.
         13    1    4    4    0    0  0.16272397146E+01  0.90120252294E+01 -0.26488359760E+03  0.26504187584E+03  0.10566000000E+00 0. -1.
        -13    1    4    4    0    0  0.13207415610E+01  0.55189015657E+01 -0.14145613004E+03  0.14156994922E+03  0.10566000000E+00 0.  1.
         14    1    4    4    0    0  0.16688217364E+01  0.13084204367E+02 -0.37648051700E+03  0.37671150905E+03  0.00000000000E+00 0. -1.
<mgrwt>
<rscale>  0 0.80987697E+02</rscale>
<asrwt>0</asrwt>
<pdfrwt beam="1">  1        2 0.13990418E+00 0.80987697E+02</pdfrwt>
<pdfrwt beam="2">  1       -1 0.27740909E-03 0.80987697E+02</pdfrwt>
<totfact> 0.33887537E+05</totfact>
</mgrwt>
</event>
<event>
 8    1  0.1493610E-013  0.8052730E+02  0.7818608E-02  0.1327562E+00
          2   -1    0    0  501    0  0.00000000000E+00  0.00000000000E+00  0.20893253862E+02  0.20893254017E+02  0.25500000000E-02 0. -1.
         -1   -1    0    0    0  501 -0.00000000000E+00 -0.00000000000E+00 -0.77592589250E+02  0.77592589414E+02  0.50400000000E-02 0.  1.
         24    2    1    2    0    0  0.00000000000E+00  0.00000000000E+00 -0.56699335388E+02  0.98485843431E+02  0.80527304207E+02 0.  0.
         66    2    3    3    0    0  0.15396572203E+02  0.37176629491E+02 -0.28339863716E+02  0.49257528272E+02  0.20000000238E+01 0.  0.
        -13    1    3    3    0    0 -0.15396572203E+02 -0.37176629491E+02 -0.28359471672E+02  0.49228315159E+02  0.10566000000E+00 0.  1.
         13    1    4    4    0    0  0.41957372355E+01  0.10718382489E+02 -0.87380864382E+01  0.14451756045E+02  0.10566000000E+00 0. -1.
        -13    1    4    4    0    0  0.40594466062E+01  0.91792623869E+01 -0.75759758530E+01  0.12575553223E+02  0.10566000000E+00 0.  1.
         14    1    4    4    0    0  0.71413883609E+01  0.17278984615E+02 -0.12025801425E+02  0.22230219004E+02  0.00000000000E+00 0. -1.
<mgrwt>
<rscale>  0 0.80527304E+02</rscale>
<asrwt>0</asrwt>
<pdfrwt beam="1">  1        2 0.32143468E-02 0.80527304E+02</pdfrwt>
<pdfrwt beam="2">  1       -1 0.11937321E-01 0.80527304E+02</pdfrwt>
<totfact> 0.12291955E+05</totfact>
</mgrwt>
</event>
<event>
 8    1  0.1493610E-013  0.7805270E+02  0.7818608E-02  0.1334670E+00
          2   -1    0    0  501    0  0.00000000000E+00  0.00000000000E+00  0.89472903370E+02  0.89472903407E+02  0.25500000000E-02 0. -1.
         -1   -1    0    0    0  501 -0.00000000000E+00 -0.00000000000E+00 -0.17022538906E+02  0.17022539652E+02  0.50400000000E-02 0.  1.
         24    2    1    2    0    0  0.00000000000E+00  0.17763568394E-14  0.72450364464E+02  0.10649544306E+03  0.78052700667E+02 0.  0.
         66    2    3    3    0    0  0.26172699967E+02  0.85724065233E+01  0.73926098252E+02  0.78914918564E+02  0.19999980054E+01 0.  0.
        -13    1    3    3    0    0 -0.26172699967E+02 -0.85724065233E+01 -0.14757337882E+01  0.27580524495E+02  0.10566000000E+00 0.  1.
         13    1    4    4    0    0  0.49843244299E+01  0.13541405875E+01  0.14594721134E+02  0.15482061742E+02  0.10566000000E+00 0. -1.
        -13    1    4    4    0    0  0.24749049050E+00  0.34507635227E-01  0.43145270724E+00  0.50966439346E+00  0.10566000000E+00 0. -1.
         14    1    4    4    0    0  0.20940885047E+02  0.71837583006E+01  0.58899924410E+02  0.62923192429E+02  0.00000000000E+00 0. -1.
<mgrwt>
<rscale>  0 0.78052701E+02</rscale>
<asrwt>0</asrwt>
<pdfrwt beam="1">  1        2 0.13765062E-01 0.78052701E+02</pdfrwt>
<pdfrwt beam="2">  1       -1 0.26188522E-02 0.78052701E+02</pdfrwt>
<totfact> 0.18368654E+05</totfact>
</mgrwt>
</event>
<event>
 8    1  0.1493610E-013  0.7950310E+02  0.7818608E-02  0.1330467E+00
          2   -1    0    0  501    0  0.00000000000E+00  0.00000000000E+00  0.22409770260E+02  0.22409770405E+02  0.25500000000E-02 0. -1.
         -1   -1    0    0    0  501 -0.00000000000E+00 -0.00000000000E+00 -0.70513256973E+02  0.70513257154E+02  0.50400000000E-02 0.  1.
         24    2    1    2    0    0  0.00000000000E+00  0.00000000000E+00 -0.48103486713E+02  0.92923027559E+02  0.79503104447E+02 0.  0.
         66    2    3    3    0    0  0.24660423515E+00 -0.16975738438E+02  0.17911370530E+02  0.24759921335E+02  0.20000002724E+01 0.  0.
        -13    1    3    3    0    0 -0.24660423515E+00  0.16975738438E+02 -0.66014857244E+02  0.68163106224E+02  0.10566000000E+00 0.  1.
         13    1    4    4    0    0  0.37821558796E+00 -0.13303078005E+02  0.14951922460E+02  0.20017144670E+02  0.10566000000E+00 0. -1.
        -13    1    4    4    0    0 -0.14777810776E-01 -0.15682129342E+01  0.98652942550E+00  0.18557786866E+01  0.10566000000E+00 0.  1.
         14    1    4    4    0    0 -0.11683354203E+00 -0.21044474988E+01  0.19729186442E+01  0.28869979786E+01  0.00000000000E+00 0. -1.
<mgrwt>
<rscale>  0 0.79503104E+02</rscale>
<asrwt>0</asrwt>
<pdfrwt beam="1">  1        2 0.34476570E-02 0.79503104E+02</pdfrwt>
<pdfrwt beam="2">  1       -1 0.10848193E-01 0.79503104E+02</pdfrwt>
<totfact> 0.12929699E+05</totfact>
</mgrwt>
</event>
<event>
 8    1  0.1493610E-013  0.8366034E+02  0.7818608E-02  0.1318974E+00
         -1   -1    0    0    0  501 -0.00000000000E+00  0.00000000000E+00  0.47562046606E+01  0.47562073310E+01  0.50400000000E-02 0.  1.
          2   -1    0    0  501    0  0.00000000000E+00 -0.00000000000E+00 -0.36789050837E+03  0.36789050838E+03  0.25500000000E-02 0. -1.
         24    2    1    2    0    0 -0.35527136788E-14  0.00000000000E+00 -0.36313430371E+03  0.37264671571E+03  0.83660338267E+02 0.  0.
         66    2    3    3    0    0  0.23985909511E+02 -0.27852219389E+02 -0.27038668800E+03  0.27288098330E+03  0.20000045391E+01 0.  0.
        -13    1    3    3    0    0 -0.23985909511E+02  0.27852219389E+02 -0.92747615716E+02  0.99765732419E+02  0.10566000000E+00 0.  1.
         13    1    4    4    0    0  0.26388140786E+01 -0.27327261200E+01 -0.30677876419E+02  0.30912366415E+02  0.10566000000E+00 0. -1.
        -13    1    4    4    0    0  0.51630926887E+01 -0.53728207775E+01 -0.56521615505E+02  0.57010778915E+02  0.10566000000E+00 0.  1.
         14    1    4    4    0    0  0.16184002744E+02 -0.19746672491E+02 -0.18318719607E+03  0.18495783796E+03  0.00000000000E+00 0. -1.
<mgrwt>
<rscale>  0 0.83660338E+02</rscale>
<asrwt>0</asrwt>
<pdfrwt beam="1">  1        2 0.56598518E-01 0.83660338E+02</pdfrwt>
<pdfrwt beam="2">  1       -1 0.73172429E-03 0.83660338E+02</pdfrwt>
<totfact> 0.24396835E+05</totfact>
</mgrwt>
</event>
<event>
 8    1  0.1493610E-013  0.7806308E+02  0.7818608E-02  0.1334640E+00
         -1   -1    0    0    0  501 -0.00000000000E+00  0.00000000000E+00  0.16391617841E+02  0.16391618616E+02  0.50400000000E-02 0.  1.
          2   -1    0    0  501    0  0.00000000000E+00 -0.00000000000E+00 -0.92941468429E+02  0.92941468464E+02  0.25500000000E-02 0. -1.
         24    2    1    2    0    0  0.00000000000E+00  0.00000000000E+00 -0.76549850589E+02  0.10933308708E+03  0.78063079015E+02 0.  0.
         66    2    3    3    0    0 -0.22848394107E+02  0.16408708458E+02 -0.76145574513E+02  0.81200020597E+02  0.20000001269E+01 0.  0.
        -13    1    3    3    0    0  0.22848394107E+02 -0.16408708458E+02 -0.40427607535E+00  0.28133066483E+02  0.10566000000E+00 0.  1.
         13    1    4    4    0    0 -0.12737971094E+02  0.84876509428E+01 -0.42656404541E+02  0.45319710265E+02  0.10566000000E+00 0. -1.
        -13    1    4    4    0    0 -0.57753215013E+00  0.72182294605E+00 -0.22333717005E+01  0.24194389717E+01  0.10566000000E+00 0.  1.
        -14    1    4    4    0    0 -0.95328908628E+01  0.71992345694E+01 -0.31255798272E+02  0.33460871360E+02  0.00000000000E+00 0.  1.
<mgrwt>
<rscale>  0 0.78063079E+02</rscale>
<asrwt>0</asrwt>
<pdfrwt beam="1">  1        2 0.14298687E-01 0.78063079E+02</pdfrwt>
<pdfrwt beam="2">  1       -1 0.25217875E-02 0.78063079E+02</pdfrwt>
<totfact> 0.18550616E+05</totfact>
</mgrwt>
</event>
<event>
 8    1  0.1493610E-013  0.8040007E+02  0.7818608E-02  0.1327920E+00
          2   -1    0    0  501    0  0.00000000000E+00  0.00000000000E+00  0.23942699711E+03  0.23942699712E+03  0.25500000000E-02 0. -1.
         -1   -1    0    0    0  501 -0.00000000000E+00 -0.00000000000E+00 -0.67496260352E+01  0.67496279169E+01  0.50400000000E-02 0.  1.
         24    2    1    2    0    0  0.00000000000E+00  0.17763568394E-14  0.23267737107E+03  0.24617662504E+03  0.80400072798E+02 0.  0.
         66    2    3    3    0    0  0.32077764182E+02  0.14416612294E+02  0.17587878414E+03  0.17937159299E+03  0.19999993338E+01 0.  0.
        -13    1    3    3    0    0 -0.32077764182E+02 -0.14416612294E+02  0.56798586930E+02  0.66805032042E+02  0.10566000000E+00 0.  1.
         13    1    4    4    0    0  0.15088375990E+02  0.73830884847E+01  0.80985261914E+02  0.82709085940E+02  0.10566000000E+00 0. -1.
        -13    1    4    4    0    0  0.77759412876E+01  0.35082570840E+01  0.45747107967E+02  0.46535816121E+02  0.10566000000E+00 0.  1.
         14    1    4    4    0    0  0.92134469038E+01  0.35252667252E+01  0.49146414260E+02  0.50126690933E+02  0.00000000000E+00 0. -1.
<mgrwt>
<rscale>  0 0.80400073E+02</rscale>
<asrwt>0</asrwt>
<pdfrwt beam="1">  1        2 0.36834918E-01 0.80400073E+02</pdfrwt>
<pdfrwt beam="2">  1       -1 0.10384043E-02 0.80400073E+02</pdfrwt>
<totfact> 0.23196011E+05</totfact>
</mgrwt>
</event>
<event>
 8    1  0.1493610E-013  0.8178160E+02  0.7818608E-02  0.1324070E+00
          2   -1    0    0  501    0  0.00000000000E+00  0.00000000000E+00  0.58234268473E+03  0.58234268474E+03  0.25500000000E-02 0. -1.
         -1   -1    0    0    0  501 -0.00000000000E+00 -0.00000000000E+00 -0.28712584203E+01  0.28712628437E+01  0.50400000000E-02 0.  1.
         24    2    1    2    0    0  0.00000000000E+00  0.71054273576E-14  0.57947142631E+03  0.58521394758E+03  0.81781602650E+02 0.  0.
         66    2    3    3    0    0  0.99322303002E+01 -0.38285638910E+02  0.36344761790E+03  0.36559897471E+03  0.20000011781E+01 0.  0.
        -13    1    3    3    0    0 -0.99322303002E+01  0.38285638910E+02  0.21602380841E+03  0.21961497287E+03  0.10566000000E+00 0.  1.
         13    1    4    4    0    0  0.58105171905E+01 -0.20864755878E+02  0.19055114927E+03  0.19177813171E+03  0.10566000000E+00 0.  1.
        -13    1    4    4    0    0  0.23486504668E+01 -0.99808545569E+01  0.98895472987E+02  0.99425647386E+02  0.10566000000E+00 0. -1.
        -14    1    4    4    0    0  0.17730626429E+01 -0.74400284757E+01  0.74000995642E+02  0.74395195617E+02  0.00000000000E+00 0.  1.
<mgrwt>
<rscale>  0 0.81781603E+02</rscale>
<asrwt>0</asrwt>
<pdfrwt beam="1">  1        2 0.89591200E-01 0.81781603E+02</pdfrwt>
<pdfrwt beam="2">  1       -1 0.44173232E-03 0.81781603E+02</pdfrwt>
<totfact> 0.30114590E+05</totfact>
</mgrwt>
</event>
<event>
 8    1  0.1493610E-013  0.7827305E+02  0.7818608E-02  0.1334025E+00
          2   -1    0    0  501    0  0.00000000000E+00  0.00000000000E+00  0.11170112740E+03  0.11170112743E+03  0.25500000000E-02 0. -1.
         -1   -1    0    0    0  501 -0.00000000000E+00 -0.00000000000E+00 -0.13712195474E+02  0.13712196400E+02  0.50400000000E-02 0.  1.
         24    2    1    2    0    0 -0.35527136788E-14  0.00000000000E+00  0.97988931926E+02  0.12541332383E+03  0.78273054200E+02 0.  0.
         66    2    3    3    0    0 -0.22455846451E+02  0.31940433946E+02  0.52682334592E+02  0.65603999418E+02  0.20000002639E+01 0.  0.
        -13    1    3    3    0    0  0.22455846451E+02 -0.31940433946E+02  0.45306597334E+02  0.59809324411E+02  0.10566000000E+00 0.  1.
         13    1    4    4    0    0 -0.61915048687E+01  0.96686640070E+01  0.15004411632E+02  0.18893420248E+02  0.10566000000E+00 0. -1.
        -13    1    4    4    0    0 -0.12143104411E+02  0.16144638870E+02  0.26736374374E+02  0.33510434609E+02  0.10566000000E+00 0.  1.
         14    1    4    4    0    0 -0.41212371712E+01  0.61271310686E+01  0.10941548587E+02  0.13200144561E+02  0.00000000000E+00 0. -1.
<mgrwt>
<rscale>  0 0.78273054E+02</rscale>
<asrwt>0</asrwt>
<pdfrwt beam="1">  1        2 0.17184788E-01 0.78273054E+02</pdfrwt>
<pdfrwt beam="2">  1       -1 0.21095687E-02 0.78273054E+02</pdfrwt>
<totfact> 0.19392111E+05</totfact>
</mgrwt>
</event>
<event>
 8    1  0.1493610E-013  0.8015849E+02  0.7818608E-02  0.1328602E+00
          2   -1    0    0  501    0  0.00000000000E+00  0.00000000000E+00  0.22828298774E+03  0.22828298775E+03  0.25500000000E-02 0. -1.
         -1   -1    0    0    0  501 -0.00000000000E+00 -0.00000000000E+00 -0.70366424418E+01  0.70366442468E+01  0.50400000000E-02 0.  1.
         24    2    1    2    0    0  0.00000000000E+00  0.00000000000E+00  0.22124634530E+03  0.23531963200E+03  0.80158492359E+02 0.  0.
         66    2    3    3    0    0 -0.37754803693E+02  0.93850100553E+01  0.13867141168E+03  0.14403910592E+03  0.20000002773E+01 0.  0.
        -13    1    3    3    0    0  0.37754803693E+02 -0.93850100553E+01  0.82574933621E+02  0.91280526084E+02  0.10566000000E+00 0.  1.
         13    1    4    4    0    0 -0.12369475132E+02  0.33884292431E+01  0.46381176796E+02  0.48121825535E+02  0.10566000000E+00 0. -1.
        -13    1    4    4    0    0 -0.37488055933E+01  0.11709599478E+01  0.15623754839E+02  0.16110169766E+02  0.10566000000E+00 0.  1.
         14    1    4    4    0    0 -0.21636522968E+02  0.48256208643E+01  0.76666480041E+02  0.79807110615E+02  0.00000000000E+00 0. -1.
<mgrwt>
<rscale>  0 0.80158492E+02</rscale>
<asrwt>0</asrwt>
<pdfrwt beam="1">  1        2 0.35120453E-01 0.80158492E+02</pdfrwt>
<pdfrwt beam="2">  1       -1 0.10825607E-02 0.80158492E+02</pdfrwt>
<totfact> 0.22987292E+05</totfact>
</mgrwt>
</event>
<event>
 8    1  0.1493610E-013  0.7917159E+02  0.7818608E-02  0.1331419E+00
         -1   -1    0    0    0  501 -0.00000000000E+00  0.00000000000E+00  0.11145331085E+03  0.11145331096E+03  0.50400000000E-02 0.  1.
          2   -1    0    0  501    0  0.00000000000E+00 -0.00000000000E+00 -0.14060013445E+02  0.14060013677E+02  0.25500000000E-02 0. -1.
         24    2    1    2    0    0  0.00000000000E+00  0.71054273576E-14  0.97393297400E+02  0.12551332464E+03  0.79171587598E+02 0.  0.
         66    2    3    3    0    0  0.55445681248E+01  0.37120350145E+02  0.28903527128E+02  0.47413885288E+02  0.20000017684E+01 0.  0.
        -13    1    3    3    0    0 -0.55445681248E+01 -0.37120350145E+02  0.68489770272E+02  0.78099439348E+02  0.10566000000E+00 0.  1.
         13    1    4    4    0    0  0.35464362271E+01  0.20177429924E+02  0.16724056488E+02  0.26446381939E+02  0.10566000000E+00 0. -1.
        -13    1    4    4    0    0  0.15542125736E+01  0.12862340599E+02  0.94928631763E+01  0.16061786879E+02  0.10566000000E+00 0.  1.
         14    1    4    4    0    0  0.44391932409E+00  0.40805796217E+01  0.26866074642E+01  0.49057164698E+01  0.00000000000E+00 0. -1.
<mgrwt>
<rscale>  0 0.79171588E+02</rscale>
<asrwt>0</asrwt>
<pdfrwt beam="1">  1        2 0.21630791E-02 0.79171588E+02</pdfrwt>
<pdfrwt beam="2">  1       -1 0.17146663E-01 0.79171588E+02</pdfrwt>
<totfact> 0.11881433E+05</totfact>
</mgrwt>
</event>
<event>
 8    1  0.1493610E-013  0.7781677E+02  0.7818608E-02  0.1335364E+00
          2   -1    0    0  501    0  0.00000000000E+00  0.00000000000E+00  0.21569031013E+03  0.21569031015E+03  0.25500000000E-02 0. -1.
         -1   -1    0    0    0  501 -0.00000000000E+00 -0.00000000000E+00 -0.70186837361E+01  0.70186855457E+01  0.50400000000E-02 0.  1.
         24    2    1    2    0    0  0.00000000000E+00  0.00000000000E+00  0.20867162640E+03  0.22270899570E+03  0.77816766187E+02 0.  0.
         66    2    3    3    0    0 -0.22298309468E+02  0.19595652289E+01  0.19539540940E+03  0.19668355424E+03  0.19999985810E+01 0.  0.
        -13    1    3    3    0    0  0.22298309468E+02 -0.19595652289E+01  0.13276217002E+02  0.26025441455E+02  0.10566000000E+00 0.  1.
         13    1    4    4    0    0 -0.12076069133E+02  0.79254604328E+00  0.10228830988E+03  0.10300179162E+03  0.10566000000E+00 0. -1.
        -13    1    4    4    0    0 -0.30162545742E+01  0.89571416150E+00  0.28963053430E+02  0.29133652767E+02  0.10566000000E+00 0.  1.
         14    1    4    4    0    0 -0.72059857606E+01  0.27130502408E+00  0.64144046091E+02  0.64548109857E+02  0.00000000000E+00 0. -1.
<mgrwt>
<rscale>  0 0.77816766E+02</rscale>
<asrwt>0</asrwt>
<pdfrwt beam="1">  1        2 0.33183126E-01 0.77816766E+02</pdfrwt>
<pdfrwt beam="2">  1       -1 0.10797976E-02 0.77816766E+02</pdfrwt>
<totfact> 0.24359444E+05</totfact>
</mgrwt>
</event>
<event>
 8    1  0.1493610E-013  0.7902774E+02  0.7818608E-02  0.1331833E+00
          2   -1    0    0  501    0  0.00000000000E+00  0.00000000000E+00  0.14564059682E+02  0.14564059906E+02  0.25500000000E-02 0. -1.
         -1   -1    0    0    0  501 -0.00000000000E+00 -0.00000000000E+00 -0.10720541071E+03  0.10720541083E+03  0.50400000000E-02 0.  1.
         24    2    1    2    0    0  0.00000000000E+00  0.00000000000E+00 -0.92641351029E+02  0.12176947074E+03  0.79027742488E+02 0.  0.
         66    2    3    3    0    0  0.35303969381E+02  0.10064924311E+02 -0.23932791576E+02  0.43868570474E+02  0.20000018329E+01 0.  0.
        -13    1    3    3    0    0 -0.35303969381E+02 -0.10064924311E+02 -0.68708559453E+02  0.77900900262E+02  0.10566000000E+00 0.  1.
         13    1    4    4    0    0  0.64541428352E+01  0.18914617483E+01 -0.43564921473E+01  0.80139737426E+01  0.10566000000E+00 0. -1.
        -13    1    4    4    0    0  0.23853931168E+02  0.62428118132E+01 -0.15510311215E+02  0.29130115852E+02  0.10566000000E+00 0.  1.
        -14    1    4    4    0    0  0.49958953775E+01  0.19306507493E+01 -0.40659882142E+01  0.67244808793E+01  0.00000000000E+00 0.  1.
<mgrwt>
<rscale>  0 0.79027742E+02</rscale>
<asrwt>0</asrwt>
<pdfrwt beam="1">  1        2 0.22406247E-02 0.79027742E+02</pdfrwt>
<pdfrwt beam="2">  1       -1 0.16493140E-01 0.79027742E+02</pdfrwt>
<totfact> 0.12037965E+05</totfact>
</mgrwt>
</event>
<event>
 8    1  0.1493610E-013  0.8029697E+02  0.7818608E-02  0.1328211E+00
          2   -1    0    0  501    0  0.00000000000E+00  0.00000000000E+00  0.29497650750E+03  0.29497650751E+03  0.25500000000E-02 0. -1.
         -1   -1    0    0    0  501 -0.00000000000E+00 -0.00000000000E+00 -0.54645052043E+01  0.54645075285E+01  0.50400000000E-02 0.  1.
         24    2    1    2    0    0  0.00000000000E+00  0.71054273576E-14  0.28951200230E+03  0.30044101504E+03  0.80296974069E+02 0.  0.
         66    2    3    3    0    0  0.29243114442E+01  0.39721612547E+02  0.16299838387E+03  0.16780593328E+03  0.20000002094E+01 0.  0.
        -13    1    3    3    0    0 -0.29243114442E+01 -0.39721612547E+02  0.12651361843E+03  0.13263508176E+03  0.10566000000E+00 0.  1.
         13    1    4    4    0    0  0.10266909698E+01  0.20356892670E+02  0.86478104323E+02  0.88847796061E+02  0.10566000000E+00 0. -1.
        -13    1    4    4    0    0  0.92014643219E+00  0.67012133617E+01  0.25968446414E+02  0.26835131883E+02  0.10566000000E+00 0.  1.
        -14    1    4    4    0    0  0.97747404221E+00  0.12663506515E+02  0.50551833130E+02  0.52123005339E+02  0.00000000000E+00 0.  1.
<mgrwt>
<rscale>  0 0.80296974E+02</rscale>
<asrwt>0</asrwt>
<pdfrwt beam="1">  1        2 0.45380985E-01 0.80296974E+02</pdfrwt>
<pdfrwt beam="2">  1       -1 0.84069359E-03 0.80296974E+02</pdfrwt>
<totfact> 0.25093986E+05</totfact>
</mgrwt>
</event>
<event>
 8    1  0.1493610E-013  0.8022779E+02  0.7818608E-02  0.1328406E+00
          2   -1    0    0  501    0  0.00000000000E+00  0.00000000000E+00  0.57094050705E+02  0.57094050762E+02  0.25500000000E-02 0. -1.
         -1   -1    0    0    0  501 -0.00000000000E+00 -0.00000000000E+00 -0.28183754972E+02  0.28183755422E+02  0.50400000000E-02 0.  1.
         24    2    1    2    0    0  0.00000000000E+00  0.71054273576E-14  0.28910295733E+02  0.85277806184E+02  0.80227794611E+02 0.  0.
         66    2    3    3    0    0  0.77078096294E+01  0.37938498488E+02  0.25529970123E+02  0.46416800509E+02  0.19999995485E+01 0.  0.
        -13    1    3    3    0    0 -0.77078096294E+01 -0.37938498488E+02  0.33803256104E+01  0.38861005675E+02  0.10566000000E+00 0.  1.
         13    1    4    4    0    0  0.46138269376E+01  0.26314955466E+02  0.17996324105E+02  0.32212468480E+02  0.10566000000E+00 0. -1.
        -13    1    4    4    0    0  0.13524613714E+01  0.43693440890E+01  0.30910635845E+01  0.55214271387E+01  0.10566000000E+00 0.  1.
         14    1    4    4    0    0  0.17415213204E+01  0.72541989327E+01  0.44425824329E+01  0.86829048905E+01  0.00000000000E+00 0. -1.
<mgrwt>
<rscale>  0 0.80227795E+02</rscale>
<asrwt>0</asrwt>
<pdfrwt beam="1">  1        2 0.87837000E-02 0.80227795E+02</pdfrwt>
<pdfrwt beam="2">  1       -1 0.43359624E-02 0.80227795E+02</pdfrwt>
<totfact> 0.15271368E+05</totfact>
</mgrwt>
</event>
<event>
 8    1  0.1493610E-013  0.8086407E+02  0.7818608E-02  0.1326617E+00
          2   -1    0    0  501    0  0.00000000000E+00  0.00000000000E+00  0.21906441478E+02  0.21906441626E+02  0.25500000000E-02 0. -1.
         -1   -1    0    0    0  501 -0.00000000000E+00 -0.00000000000E+00 -0.74624140429E+02  0.74624140600E+02  0.50400000000E-02 0.  1.
         24    2    1    2    0    0 -0.17763568394E-14  0.71054273576E-14 -0.52717698951E+02  0.96530582226E+02  0.80864068177E+02 0.  0.
         66    2    3    3    0    0 -0.15127509500E+02  0.36845663421E+02 -0.34497613426E+02  0.52730729062E+02  0.19999996798E+01 0.  0.
        -13    1    3    3    0    0  0.15127509500E+02 -0.36845663421E+02 -0.18220085526E+02  0.43799853164E+02  0.10566000000E+00 0.  1.
         13    1    4    4    0    0 -0.28112395646E+01  0.69052655871E+01 -0.73006422124E+01  0.10435339068E+02  0.10566000000E+00 0.  1.
        -13    1    4    4    0    0 -0.79176115786E+01  0.20306465268E+02 -0.18665490911E+02  0.28695867643E+02  0.10566000000E+00 0. -1.
        -14    1    4    4    0    0 -0.43986583566E+01  0.96339325655E+01 -0.85314803025E+01  0.13599522351E+02  0.00000000000E+00 0.  1.
<mgrwt>
<rscale>  0 0.80864068E+02</rscale>
<asrwt>0</asrwt>
<pdfrwt beam="1">  1        2 0.33702218E-02 0.80864068E+02</pdfrwt>
<pdfrwt beam="2">  1       -1 0.11480637E-01 0.80864068E+02</pdfrwt>
<totfact> 0.12262528E+05</totfact>
</mgrwt>
</event>
<event>
 8    1  0.1493610E-013  0.7819340E+02  0.7818608E-02  0.1334258E+00
         -1   -1    0    0    0  501 -0.00000000000E+00  0.00000000000E+00  0.15190489848E+03  0.15190489857E+03  0.50400000000E-02 0.  1.
          2   -1    0    0  501    0  0.00000000000E+00 -0.00000000000E+00 -0.10062557647E+02  0.10062557970E+02  0.25500000000E-02 0. -1.
         24    2    1    2    0    0  0.00000000000E+00  0.00000000000E+00  0.14184234084E+03  0.16196745654E+03  0.78193396929E+02 0.  0.
         66    2    3    3    0    0 -0.26147975265E+02  0.23435700786E+02  0.35475118487E+02  0.49954306255E+02  0.19999999914E+01 0.  0.
        -13    1    3    3    0    0  0.26147975265E+02 -0.23435700786E+02  0.10636722235E+03  0.11201315028E+03  0.10566000000E+00 0.  1.
         13    1    4    4    0    0 -0.53635796462E+01  0.47742448560E+01  0.81265851414E+01  0.10844996573E+02  0.10566000000E+00 0. -1.
        -13    1    4    4    0    0 -0.10695828332E+02  0.10369019614E+02  0.14693818684E+02  0.20924549769E+02  0.10566000000E+00 0.  1.
         14    1    4    4    0    0 -0.10088567286E+02  0.82924363160E+01  0.12654714662E+02  0.18184759913E+02  0.00000000000E+00 0. -1.
<mgrwt>
<rscale>  0 0.78193397E+02</rscale>
<asrwt>0</asrwt>
<pdfrwt beam="1">  1        2 0.15480859E-02 0.78193397E+02</pdfrwt>
<pdfrwt beam="2">  1       -1 0.23369984E-01 0.78193397E+02</pdfrwt>
<totfact> 0.11391577E+05</totfact>
</mgrwt>
</event>
<event>
 8    1  0.1493610E-013  0.7981872E+02  0.7818608E-02  0.1329567E+00
         -1   -1    0    0    0  501 -0.00000000000E+00  0.00000000000E+00  0.44331167686E+01  0.44331196336E+01  0.50400000000E-02 0.  1.
          2   -1    0    0  501    0  0.00000000000E+00 -0.00000000000E+00 -0.35928596619E+03  0.35928596620E+03  0.25500000000E-02 0. -1.
         24    2    1    2    0    0  0.00000000000E+00  0.00000000000E+00 -0.35485284943E+03  0.36371908584E+03  0.79818723722E+02 0.  0.
         66    2    3    3    0    0  0.29648820361E+02 -0.26657090911E+02 -0.18231488115E+03  0.18663431883E+03  0.20000080982E+01 0.  0.
        -13    1    3    3    0    0 -0.29648820361E+02  0.26657090911E+02 -0.17253796828E+03  0.17708476701E+03  0.10566000000E+00 0.  1.
         13    1    4    4    0    0  0.13892481692E+02 -0.13385740362E+02 -0.90151402167E+02  0.92192546170E+02  0.10566000000E+00 0. -1.
        -13    1    4    4    0    0  0.80509145733E+01 -0.71924934111E+01 -0.49594088201E+02  0.50755629593E+02  0.10566000000E+00 0.  1.
        -14    1    4    4    0    0  0.77054240954E+01 -0.60788571383E+01 -0.42569390778E+02  0.43686143064E+02  0.00000000000E+00 0.  1.
<mgrwt>
<rscale>  0 0.79818724E+02</rscale>
<asrwt>0</asrwt>
<pdfrwt beam="1">  1        2 0.55274741E-01 0.79818724E+02</pdfrwt>
<pdfrwt beam="2">  1       -1 0.68201847E-03 0.79818724E+02</pdfrwt>
<totfact> 0.27364094E+05</totfact>
</mgrwt>
</event>
<event>
 8    1  0.1493610E-013  0.8174227E+02  0.7818608E-02  0.1324179E+00
         -1   -1    0    0    0  501 -0.00000000000E+00  0.00000000000E+00  0.10370703126E+02  0.10370704351E+02  0.50400000000E-02 0.  1.
          2   -1    0    0  501    0  0.00000000000E+00 -0.00000000000E+00 -0.16107390559E+03  0.16107390561E+03  0.25500000000E-02 0. -1.
         24    2    1    2    0    0  0.00000000000E+00  0.00000000000E+00 -0.15070320246E+03  0.17144460996E+03  0.81742272122E+02 0.  0.
         66    2    3    3    0    0 -0.80250842209E+01 -0.34418539096E+02 -0.11834972743E+03  0.12353014115E+03  0.19999950503E+01 0.  0.
        -13    1    3    3    0    0  0.80250842209E+01  0.34418539096E+02 -0.32353475030E+02  0.47914468805E+02  0.10566000000E+00 0.  1.
         13    1    4    4    0    0 -0.19812533401E+01 -0.87624855382E+01 -0.28665313900E+02  0.30040271347E+02  0.10566000000E+00 0. -1.
        -13    1    4    4    0    0 -0.24871507609E+01 -0.12906714885E+02 -0.42814664342E+02  0.44787005424E+02  0.10566000000E+00 0.  1.
        -14    1    4    4    0    0 -0.35566801200E+01 -0.12749338673E+02 -0.46869749190E+02  0.48702864384E+02  0.00000000000E+00 0.  1.
<mgrwt>
<rscale>  0 0.81742272E+02</rscale>
<asrwt>0</asrwt>
<pdfrwt beam="1">  1        2 0.24780599E-01 0.81742272E+02</pdfrwt>
<pdfrwt beam="2">  1       -1 0.15954930E-02 0.81742272E+02</pdfrwt>
<totfact> 0.19361111E+05</totfact>
</mgrwt>
</event>
<event>
 8    1  0.1493610E-013  0.7689128E+02  0.7818608E-02  0.1338112E+00
         -1   -1    0    0    0  501 -0.00000000000E+00  0.00000000000E+00  0.15883130777E+03  0.15883130785E+03  0.50400000000E-02 0.  1.
          2   -1    0    0  501    0  0.00000000000E+00 -0.00000000000E+00 -0.93058934465E+01  0.93058937958E+01  0.25500000000E-02 0. -1.
         24    2    1    2    0    0  0.00000000000E+00  0.00000000000E+00  0.14952541432E+03  0.16813720164E+03  0.76891280705E+02 0.  0.
         66    2    3    3    0    0 -0.20688785279E+02 -0.16709858576E+02  0.14181658109E+02  0.30205375295E+02  0.20000150162E+01 0.  0.
        -13    1    3    3    0    0  0.20688785279E+02  0.16709858576E+02  0.13534375621E+03  0.13793182635E+03  0.10566000000E+00 0.  1.
         13    1    4    4    0    0 -0.91261723684E+01 -0.72538393371E+01  0.59869243205E+01  0.13105709980E+02  0.10566000000E+00 0. -1.
        -13    1    4    4    0    0 -0.66693509434E+01 -0.62492297372E+01  0.45920188068E+01  0.10228925411E+02  0.10566000000E+00 0.  1.
        -14    1    4    4    0    0 -0.48932619677E+01 -0.32067895014E+01  0.36027149815E+01  0.68707399040E+01  0.00000000000E+00 0.  1.
<mgrwt>
<rscale>  0 0.76891281E+02</rscale>
<asrwt>0</asrwt>
<pdfrwt beam="1">  1        2 0.14316760E-02 0.76891281E+02</pdfrwt>
<pdfrwt beam="2">  1       -1 0.24435585E-01 0.76891281E+02</pdfrwt>
<totfact> 0.11749826E+05</totfact>
</mgrwt>
</event>
<event>
 8    1  0.1493610E-013  0.7979088E+02  0.7818608E-02  0.1329646E+00
         -1   -1    0    0    0  501 -0.00000000000E+00  0.00000000000E+00  0.54955962610E+01  0.54955985721E+01  0.50400000000E-02 0.  1.
          2   -1    0    0  501    0  0.00000000000E+00 -0.00000000000E+00 -0.28962204434E+03  0.28962204435E+03  0.25500000000E-02 0. -1.
         24    2    1    2    0    0 -0.17763568394E-14  0.17763568394E-14 -0.28412644808E+03  0.29511764292E+03  0.79790880849E+02 0.  0.
         66    2    3    3    0    0  0.12505942792E+02 -0.11601807874E+02 -0.27543880661E+03  0.27597379719E+03  0.19999992605E+01 0.  0.
        -13    1    3    3    0    0 -0.12505942792E+02  0.11601807874E+02 -0.86876414644E+01  0.19143845730E+02  0.10566000000E+00 0.  1.
         13    1    4    4    0    0  0.28953052132E+01 -0.23169901949E+01 -0.51373587113E+02  0.51507357268E+02  0.10566000000E+00 0. -1.
        -13    1    4    4    0    0  0.74249606605E+00 -0.49253000616E+00 -0.11688468309E+02  0.11722855525E+02  0.10566000000E+00 0.  1.
         14    1    4    4    0    0  0.88681415132E+01 -0.87922876732E+01 -0.21237675119E+03  0.21274358440E+03  0.00000000000E+00 0. -1.
<mgrwt>
<rscale>  0 0.79790881E+02</rscale>
<asrwt>0</asrwt>
<pdfrwt beam="1">  1        2 0.44557226E-01 0.79790881E+02</pdfrwt>
<pdfrwt beam="2">  1       -1 0.84547675E-03 0.79790881E+02</pdfrwt>
<totfact> 0.25344839E+05</totfact>
</mgrwt>
</event>
<event>
 8    1  0.1493610E-013  0.7892909E+02  0.7818608E-02  0.1332118E+00
          2   -1    0    0  501    0  0.00000000000E+00  0.00000000000E+00  0.22593366073E+03  0.22593366074E+03  0.25500000000E-02 0. -1.
         -1   -1    0    0    0  501 -0.00000000000E+00 -0.00000000000E+00 -0.68933950212E+01  0.68933968636E+01  0.50400000000E-02 0.  1.
         24    2    1    2    0    0  0.00000000000E+00  0.41633363423E-16  0.21904026571E+03  0.23282705761E+03  0.78929086860E+02 0.  0.
         66    2    3    3    0    0  0.15303021564E+02  0.10949524110E+00  0.21681351517E+03  0.21736212825E+03  0.19999946754E+01 0.  0.
        -13    1    3    3    0    0 -0.15303021564E+02 -0.10949524110E+00  0.22267505434E+01  0.15464929363E+02  0.10566000000E+00 0.  1.
         13    1    4    4    0    0  0.85535975202E+01 -0.14603589997E+00  0.12985769211E+03  0.13013922053E+03  0.10566000000E+00 0.  1.
        -13    1    4    4    0    0  0.29299787148E+01 -0.35121394277E+00  0.37175536582E+02  0.37292624079E+02  0.10566000000E+00 0. -1.
         14    1    4    4    0    0  0.38194453285E+01  0.60674508384E+00  0.49780286475E+02  0.49930283634E+02  0.00000000000E+00 0. -1.
<mgrwt>
<rscale>  0 0.78929087E+02</rscale>
<asrwt>0</asrwt>
<pdfrwt beam="1">  1        2 0.34759032E-01 0.78929087E+02</pdfrwt>
<pdfrwt beam="2">  1       -1 0.10605222E-02 0.78929087E+02</pdfrwt>
<totfact> 0.23853947E+05</totfact>
</mgrwt>
</event>
<event>
 8    1  0.1493610E-013  0.8066017E+02  0.7818608E-02  0.1327188E+00
          2   -1    0    0  501    0  0.00000000000E+00  0.00000000000E+00  0.30444009378E+02  0.30444009485E+02  0.25500000000E-02 0. -1.
         -1   -1    0    0    0  501 -0.00000000000E+00 -0.00000000000E+00 -0.53426468746E+02  0.53426468984E+02  0.50400000000E-02 0.  1.
         24    2    1    2    0    0  0.00000000000E+00  0.00000000000E+00 -0.22982459368E+02  0.83870478469E+02  0.80660174312E+02 0.  0.
         66    2    3    3    0    0 -0.77551024393E+01 -0.14468025558E+02  0.26777757765E+02  0.31472427451E+02  0.20000003401E+01 0.  0.
        -13    1    3    3    0    0  0.77551024393E+01  0.14468025558E+02 -0.49760217132E+02  0.52398051018E+02  0.10566000000E+00 0.  1.
         13    1    4    4    0    0 -0.26846168239E+01 -0.51161786836E+01  0.79992588894E+01  0.98682196281E+01  0.10566000000E+00 0.  1.
        -13    1    4    4    0    0 -0.76496999088E+00 -0.22233668047E+01  0.42435195519E+01  0.48525417317E+01  0.10566000000E+00 0. -1.
        -14    1    4    4    0    0 -0.43055156245E+01 -0.71284800700E+01  0.14534979323E+02  0.16751666091E+02  0.00000000000E+00 0.  1.
<mgrwt>
<rscale>  0 0.80660174E+02</rscale>
<asrwt>0</asrwt>
<pdfrwt beam="1">  1        2 0.46836938E-02 0.80660174E+02</pdfrwt>
<pdfrwt beam="2">  1       -1 0.82194568E-02 0.80660174E+02</pdfrwt>
<totfact> 0.13187055E+05</totfact>
</mgrwt>
</event>
<event>
 8    1  0.1493610E-013  0.7829122E+02  0.7818608E-02  0.1333972E+00
         -1   -1    0    0    0  501 -0.00000000000E+00  0.00000000000E+00  0.33929054521E+01  0.33929091955E+01  0.50400000000E-02 0.  1.
          2   -1    0    0  501    0  0.00000000000E+00 -0.00000000000E+00 -0.45164175163E+03  0.45164175164E+03  0.25500000000E-02 0. -1.
         24    2    1    2    0    0  0.00000000000E+00  0.00000000000E+00 -0.44824884618E+03  0.45503466083E+03  0.78291215723E+02 0.  0.
         66    2    3    3    0    0  0.17138821335E+02  0.27552122358E+02 -0.35127648832E+03  0.35277759263E+03  0.19999945019E+01 0.  0.
        -13    1    3    3    0    0 -0.17138821335E+02 -0.27552122358E+02 -0.96972357859E+02  0.10225706820E+03  0.10566000000E+00 0.  1.
         13    1    4    4    0    0  0.88633310167E+01  0.12805468735E+02 -0.17104793567E+03  0.17175548354E+03  0.10566000000E+00 0. -1.
        -13    1    4    4    0    0  0.58177509498E+01  0.11068716312E+02 -0.13459587160E+03  0.13517552487E+03  0.10566000000E+00 0.  1.
        -14    1    4    4    0    0  0.24577393686E+01  0.36779373113E+01 -0.45632681048E+02  0.45846584227E+02  0.00000000000E+00 0.  1.
<mgrwt>
<rscale>  0 0.78291216E+02</rscale>
<asrwt>0</asrwt>
<pdfrwt beam="1">  1        2 0.69483299E-01 0.78291216E+02</pdfrwt>
<pdfrwt beam="2">  1       -1 0.52198610E-03 0.78291216E+02</pdfrwt>
<totfact> 0.31159286E+05</totfact>
</mgrwt>
</event>
<event>
 8    1  0.1493610E-013  0.7957448E+02  0.7818608E-02  0.1330263E+00
         -1   -1    0    0    0  501 -0.00000000000E+00  0.00000000000E+00  0.97358941573E+01  0.97358954618E+01  0.50400000000E-02 0.  1.
          2   -1    0    0  501    0  0.00000000000E+00 -0.00000000000E+00 -0.16259672389E+03  0.16259672391E+03  0.25500000000E-02 0. -1.
         24    2    1    2    0    0  0.00000000000E+00  0.00000000000E+00 -0.15286082973E+03  0.17233261937E+03  0.79574483555E+02 0.  0.
         66    2    3    3    0    0  0.32523395197E+02  0.21691023739E+02 -0.92207387279E+02  0.10017222170E+03  0.19999966096E+01 0.  0.
        -13    1    3    3    0    0 -0.32523395197E+02 -0.21691023739E+02 -0.60653442456E+02  0.72160397669E+02  0.10566000000E+00 0.  1.
         13    1    4    4    0    0  0.20805111513E+02  0.13919824901E+02 -0.61061836470E+02  0.65993736274E+02  0.10566000000E+00 0. -1.
        -13    1    4    4    0    0  0.26660947987E+01  0.15130004534E+01 -0.64804324722E+01  0.71696862491E+01  0.10566000000E+00 0.  1.
         14    1    4    4    0    0  0.90521888858E+01  0.62581983844E+01 -0.24665118337E+02  0.27008799182E+02  0.00000000000E+00 0. -1.
<mgrwt>
<rscale>  0 0.79574484E+02</rscale>
<asrwt>0</asrwt>
<pdfrwt beam="1">  1        2 0.25014879E-01 0.79574484E+02</pdfrwt>
<pdfrwt beam="2">  1       -1 0.14978301E-02 0.79574484E+02</pdfrwt>
<totfact> 0.20855976E+05</totfact>
</mgrwt>
</event>
<event>
 8    1  0.1493610E-013  0.7931236E+02  0.7818608E-02  0.1331014E+00
          2   -1    0    0  501    0  0.00000000000E+00  0.00000000000E+00  0.46835841724E+03  0.46835841725E+03  0.25500000000E-02 0. -1.
         -1   -1    0    0    0  501 -0.00000000000E+00 -0.00000000000E+00 -0.33577095761E+01  0.33577133587E+01  0.50400000000E-02 0.  1.
         24    2    1    2    0    0  0.11102230246E-15  0.00000000000E+00  0.46500070766E+03  0.47171613061E+03  0.79312355567E+02 0.  0.
         66    2    3    3    0    0  0.54983674050E+00 -0.15493321496E+02  0.44957223052E+03  0.44984390158E+03  0.20000011332E+01 0.  0.
        -13    1    3    3    0    0 -0.54983674050E+00  0.15493321496E+02  0.15428477142E+02  0.21872229022E+02  0.10566000000E+00 0.  1.
         13    1    4    4    0    0 -0.25194895521E+00 -0.16183102079E+01  0.56011325426E+02  0.56035365139E+02  0.10566000000E+00 0. -1.
        -13    1    4    4    0    0 -0.13305099568E+00 -0.57798749653E+01  0.15035103908E+03  0.15046219051E+03  0.10566000000E+00 0.  1.
         14    1    4    4    0    0  0.93483669139E+00 -0.80951363226E+01  0.24320986602E+03  0.24334634593E+03  0.00000000000E+00 0. -1.
<mgrwt>
<rscale>  0 0.79312356E+02</rscale>
<asrwt>0</asrwt>
<pdfrwt beam="1">  1        2 0.72055107E-01 0.79312356E+02</pdfrwt>
<pdfrwt beam="2">  1       -1 0.51657124E-03 0.79312356E+02</pdfrwt>
<totfact> 0.30490987E+05</totfact>
</mgrwt>
</event>
<event>
 8    1  0.1493610E-013  0.7767788E+02  0.7818608E-02  0.1335773E+00
         -1   -1    0    0    0  501 -0.00000000000E+00  0.00000000000E+00  0.17743459820E+02  0.17743460536E+02  0.50400000000E-02 0.  1.
          2   -1    0    0  501    0  0.00000000000E+00 -0.00000000000E+00 -0.85015178867E+02  0.85015178905E+02  0.25500000000E-02 0. -1.
         24    2    1    2    0    0  0.00000000000E+00  0.00000000000E+00 -0.67271719047E+02  0.10275863944E+03  0.77677884860E+02 0.  0.
         66    2    3    3    0    0 -0.19953077721E+02  0.37081182360E+01 -0.77424948183E+02  0.80065585938E+02  0.19999997837E+01 0.  0.
        -13    1    3    3    0    0  0.19953077721E+02 -0.37081182360E+01  0.10153229136E+02  0.22693053503E+02  0.10566000000E+00 0.  1.
         13    1    4    4    0    0 -0.31390103819E+01  0.74648291171E+00 -0.14247170780E+02  0.14608342212E+02  0.10566000000E+00 0.  1.
        -13    1    4    4    0    0 -0.12859988815E+02  0.17171294550E+01 -0.47283124421E+02  0.49030937834E+02  0.10566000000E+00 0.  1.
         14    1    4    4    0    0 -0.39540785234E+01  0.12445058693E+01 -0.15894652982E+02  0.16426305892E+02  0.00000000000E+00 0. -1.
<mgrwt>
<rscale>  0 0.77677885E+02</rscale>
<asrwt>0</asrwt>
<pdfrwt beam="1">  1        2 0.13079258E-01 0.77677885E+02</pdfrwt>
<pdfrwt beam="2">  1       -1 0.27297632E-02 0.77677885E+02</pdfrwt>
<totfact> 0.18358036E+05</totfact>
</mgrwt>
</event>
<event>
 8    1  0.1493610E-013  0.7797086E+02  0.7818608E-02  0.1334910E+00
          2   -1    0    0  501    0  0.00000000000E+00  0.00000000000E+00  0.46560676167E+03  0.46560676167E+03  0.25500000000E-02 0. -1.
         -1   -1    0    0    0  501 -0.00000000000E+00 -0.00000000000E+00 -0.32642624376E+01  0.32642663284E+01  0.50400000000E-02 0.  1.
         24    2    1    2    0    0  0.00000000000E+00  0.00000000000E+00  0.46234249923E+03  0.46887102800E+03  0.77970855493E+02 0.  0.
         66    2    3    3    0    0 -0.18573684672E+02  0.32744278361E+02  0.29166390716E+03  0.29409012949E+03  0.19999999652E+01 0.  0.
        -13    1    3    3    0    0  0.18573684672E+02 -0.32744278361E+02  0.17067859207E+03  0.17478089851E+03  0.10566000000E+00 0.  1.
         13    1    4    4    0    0 -0.75488724044E+01  0.14166775975E+02  0.12431042070E+03  0.12534262992E+03  0.10566000000E+00 0. -1.
        -13    1    4    4    0    0 -0.10357089879E+02  0.16689971973E+02  0.15225670772E+03  0.15351853531E+03  0.10566000000E+00 0.  1.
        -14    1    4    4    0    0 -0.66772238799E+00  0.18875304122E+01  0.15096778742E+02  0.15228964266E+02  0.00000000000E+00 0.  1.
<mgrwt>
<rscale>  0 0.77970855E+02</rscale>
<asrwt>0</asrwt>
<pdfrwt beam="1">  1        2 0.71631757E-01 0.77970855E+02</pdfrwt>
<pdfrwt beam="2">  1       -1 0.50219489E-03 0.77970855E+02</pdfrwt>
<totfact> 0.31813834E+05</totfact>
</mgrwt>
</event>
<event>
 8    1  0.1493610E-013  0.7950763E+02  0.7818608E-02  0.1330455E+00
         -1   -1    0    0    0  501 -0.00000000000E+00  0.00000000000E+00  0.57392126599E+01  0.57392148729E+01  0.50400000000E-02 0.  1.
          2   -1    0    0  501    0  0.00000000000E+00 -0.00000000000E+00 -0.27536278828E+03  0.27536278829E+03  0.25500000000E-02 0. -1.
         24    2    1    2    0    0  0.00000000000E+00 -0.35527136788E-14 -0.26962357562E+03  0.28110200316E+03  0.79507632671E+02 0.  0.
         66    2    3    3    0    0 -0.34455994975E+02  0.18605979168E+02 -0.11118953835E+03  0.11790043032E+03  0.19999949268E+01 0.  0.
        -13    1    3    3    0    0  0.34455994975E+02 -0.18605979168E+02 -0.15843403726E+03  0.16320157284E+03  0.10566000000E+00 0.  1.
         13    1    4    4    0    0 -0.63690474309E+00  0.62113340427E+00 -0.27066280292E+01  0.28510443143E+01  0.10566000000E+00 0.  1.
        -13    1    4    4    0    0 -0.14294184852E+02  0.74793075199E+01 -0.46802644301E+02  0.49505175882E+02  0.10566000000E+00 0. -1.
         14    1    4    4    0    0 -0.19524905380E+02  0.10505538244E+02 -0.61680266023E+02  0.65544210123E+02  0.00000000000E+00 0. -1.
<mgrwt>
<rscale>  0 0.79507633E+02</rscale>
<asrwt>0</asrwt>
<pdfrwt beam="1">  1        2 0.42363496E-01 0.79507633E+02</pdfrwt>
<pdfrwt beam="2">  1       -1 0.88295618E-03 0.79507633E+02</pdfrwt>
<totfact> 0.25118878E+05</totfact>
</mgrwt>
</event>
<event>
 8    1  0.1493610E-013  0.8101498E+02  0.7818608E-02  0.1326196E+00
         -1   -1    0    0    0  501 -0.00000000000E+00  0.00000000000E+00  0.10900080398E+01  0.10900196918E+01  0.50400000000E-02 0.  1.
          2   -1    0    0  501    0  0.00000000000E+00 -0.00000000000E+00 -0.15053539243E+04  0.15053539243E+04  0.25500000000E-02 0. -1.
         24    2    1    2    0    0  0.17763568394E-14  0.00000000000E+00 -0.15042639163E+04  0.15064439440E+04  0.81014977836E+02 0.  0.
         66    2    3    3    0    0  0.14361215154E+02  0.98395616638E+01 -0.14321944020E+04  0.14323015976E+04  0.19999970469E+01 0.  0.
        -13    1    3    3    0    0 -0.14361215154E+02 -0.98395616638E+01 -0.72069514335E+02  0.74142346435E+02  0.10566000000E+00 0.  1.
         13    1    4    4    0    0  0.62097172084E+01  0.46997143357E+01 -0.59874913805E+03  0.59879979073E+03  0.10566000000E+00 0.  1.
        -13    1    4    4    0    0  0.64678932441E+01  0.36561766538E+01 -0.60915668859E+03  0.60920200565E+03  0.10566000000E+00 0. -1.
        -14    1    4    4    0    0  0.16836047018E+01  0.14836706742E+01 -0.22428857533E+03  0.22429980122E+03  0.00000000000E+00 0.  1.
<mgrwt>
<rscale>  0 0.81014978E+02</rscale>
<asrwt>0</asrwt>
<pdfrwt beam="1">  1        2 0.23159125E+00 0.81014978E+02</pdfrwt>
<pdfrwt beam="2">  1       -1 0.16769565E-03 0.81014978E+02</pdfrwt>
<totfact> 0.32135537E+05</totfact>
</mgrwt>
</event>
<event>
 8    1  0.1493610E-013  0.8002967E+02  0.7818608E-02  0.1328967E+00
          2   -1    0    0  501    0  0.00000000000E+00  0.00000000000E+00  0.81258108985E+02  0.81258109025E+02  0.25500000000E-02 0. -1.
         -1   -1    0    0    0  501 -0.00000000000E+00 -0.00000000000E+00 -0.19704951188E+02  0.19704951832E+02  0.50400000000E-02 0.  1.
         24    2    1    2    0    0 -0.88817841970E-15  0.00000000000E+00  0.61553157797E+02  0.10096306086E+03  0.80029672140E+02 0.  0.
         66    2    3    3    0    0 -0.66113596613E+01  0.17466281311E+02  0.75406148849E+02  0.77710155996E+02  0.20000003217E+01 0.  0.
        -13    1    3    3    0    0  0.66113596613E+01 -0.17466281311E+02 -0.13852991052E+02  0.23252904862E+02  0.10566000000E+00 0.  1.
         13    1    4    4    0    0 -0.82394140975E+00  0.23084689677E+01  0.11491474487E+02  0.11750449282E+02  0.10566000000E+00 0. -1.
        -13    1    4    4    0    0 -0.17574303208E+01  0.63353311290E+01  0.24143238862E+02  0.25022632329E+02  0.10566000000E+00 0.  1.
         14    1    4    4    0    0 -0.40299879307E+01  0.88224812139E+01  0.39771435499E+02  0.40937074385E+02  0.00000000000E+00 0. -1.
<mgrwt>
<rscale>  0 0.80029672E+02</rscale>
<asrwt>0</asrwt>
<pdfrwt beam="1">  1        2 0.12501247E-01 0.80029672E+02</pdfrwt>
<pdfrwt beam="2">  1       -1 0.30315311E-02 0.80029672E+02</pdfrwt>
<totfact> 0.16746165E+05</totfact>
</mgrwt>
</event>
<event>
 8    1  0.1493610E-013  0.7949304E+02  0.7818608E-02  0.1330496E+00
         -1   -1    0    0    0  501 -0.00000000000E+00  0.00000000000E+00  0.73902169639E+00  0.73903888215E+00  0.50400000000E-02 0.  1.
          2   -1    0    0  501    0  0.00000000000E+00 -0.00000000000E+00 -0.21376469538E+04  0.21376469538E+04  0.25500000000E-02 0. -1.
         24    2    1    2    0    0 -0.17763568394E-14  0.88817841970E-15 -0.21369079321E+04  0.21383859927E+04  0.79493040062E+02 0.  0.
         66    2    3    3    0    0 -0.10660782936E+02 -0.53098675489E+01 -0.20884805058E+04  0.20885154225E+04  0.19999991688E+01 0.  0.
        -13    1    3    3    0    0  0.10660782936E+02  0.53098675489E+01 -0.48427426245E+02  0.49870570108E+02  0.10566000000E+00 0.  1.
         13    1    4    4    0    0 -0.14596708791E+01 -0.50129931493E+00 -0.26684988018E+03  0.26685436414E+03  0.10566000000E+00 0. -1.
        -13    1    4    4    0    0 -0.17883342968E+01 -0.29528015004E+00 -0.37581200600E+03  0.37581639180E+03  0.10566000000E+00 0.  1.
        -14    1    4    4    0    0 -0.74127777601E+01 -0.45132880839E+01 -0.14458186196E+04  0.14458446666E+04  0.00000000000E+00 0.  1.
<mgrwt>
<rscale>  0 0.79493040E+02</rscale>
<asrwt>0</asrwt>
<pdfrwt beam="1">  1        2 0.32886381E+00 0.79493040E+02</pdfrwt>
<pdfrwt beam="2">  1       -1 0.11369868E-03 0.79493040E+02</pdfrwt>
<totfact> 0.26383288E+05</totfact>
</mgrwt>
</event>
<event>
 8    1  0.1493610E-013  0.7640699E+02  0.7818608E-02  0.1339569E+00
          2   -1    0    0  501    0  0.00000000000E+00  0.00000000000E+00  0.59501515138E+02  0.59501515192E+02  0.25500000000E-02 0. -1.
         -1   -1    0    0    0  501 -0.00000000000E+00 -0.00000000000E+00 -0.24528906658E+02  0.24528907176E+02  0.50400000000E-02 0.  1.
         24    2    1    2    0    0  0.00000000000E+00  0.00000000000E+00  0.34972608480E+02  0.84030422368E+02  0.76406992740E+02 0.  0.
         66    2    3    3    0    0  0.25961015949E+02 -0.17260369227E+02  0.41733426204E+02  0.52130351596E+02  0.19999999561E+01 0.  0.
        -13    1    3    3    0    0 -0.25961015949E+02  0.17260369227E+02 -0.67608177243E+01  0.31900070773E+02  0.10566000000E+00 0.  1.
         13    1    4    4    0    0  0.17482192782E+02 -0.11061502856E+02  0.28086185606E+02  0.34883074632E+02  0.10566000000E+00 0. -1.
        -13    1    4    4    0    0  0.13720707695E+01 -0.72490245873E+00  0.24148825797E+01  0.28724351482E+01  0.10566000000E+00 0.  1.
        -14    1    4    4    0    0  0.71067523977E+01 -0.54739639131E+01  0.11232358018E+02  0.14374841815E+02  0.00000000000E+00 0.  1.
<mgrwt>
<rscale>  0 0.76406993E+02</rscale>
<asrwt>0</asrwt>
<pdfrwt beam="1">  1        2 0.91540793E-02 0.76406993E+02</pdfrwt>
<pdfrwt beam="2">  1       -1 0.37736780E-02 0.76406993E+02</pdfrwt>
<totfact> 0.17599106E+05</totfact>
</mgrwt>
</event>
<event>
 8    1  0.1493610E-013  0.8147298E+02  0.7818608E-02  0.1324923E+00
          2   -1    0    0  501    0  0.00000000000E+00  0.00000000000E+00  0.59852703477E+03  0.59852703477E+03  0.25500000000E-02 0. -1.
         -1   -1    0    0    0  501 -0.00000000000E+00 -0.00000000000E+00 -0.27725735614E+01  0.27725781423E+01  0.50400000000E-02 0.  1.
         24    2    1    2    0    0  0.35527136788E-14  0.35527136788E-14  0.59575446121E+03  0.60129961292E+03  0.81472979847E+02 0.  0.
         66    2    3    3    0    0  0.16028102396E+02  0.14469738013E+02  0.55277832306E+03  0.55320353201E+03  0.19999993997E+01 0.  0.
        -13    1    3    3    0    0 -0.16028102396E+02 -0.14469738013E+02  0.42976138146E+02  0.48096080907E+02  0.10566000000E+00 0.  1.
         13    1    4    4    0    0  0.15338645545E+01  0.98219100526E+00  0.41166403147E+02  0.41206811958E+02  0.10566000000E+00 0. -1.
        -13    1    4    4    0    0  0.77870685211E+01  0.70056410642E+01  0.25356858971E+03  0.25378486616E+03  0.10566000000E+00 0.  1.
         14    1    4    4    0    0  0.67071693200E+01  0.64819059434E+01  0.25804333021E+03  0.25821185389E+03  0.00000000000E+00 0. -1.
<mgrwt>
<rscale>  0 0.81472980E+02</rscale>
<asrwt>0</asrwt>
<pdfrwt beam="1">  1        2 0.92081031E-01 0.81472980E+02</pdfrwt>
<pdfrwt beam="2">  1       -1 0.42655037E-03 0.81472980E+02</pdfrwt>
<totfact> 0.30649874E+05</totfact>
</mgrwt>
</event>
<event>
 8    1  0.1493610E-013  0.8992112E+02  0.7818608E-02  0.1303043E+00
         -1   -1    0    0    0  501 -0.00000000000E+00  0.00000000000E+00  0.95163328682E+02  0.95163328815E+02  0.50400000000E-02 0.  1.
          2   -1    0    0  501    0  0.00000000000E+00 -0.00000000000E+00 -0.21241919313E+02  0.21241919466E+02  0.25500000000E-02 0. -1.
         24    2    1    2    0    0  0.35527136788E-14  0.00000000000E+00  0.73921409369E+02  0.11640524828E+03  0.89921115786E+02 0.  0.
         66    2    3    3    0    0 -0.24341606527E+02  0.15410035718E+01 -0.11880781515E+02  0.27203703312E+02  0.20000010464E+01 0.  0.
        -13    1    3    3    0    0  0.24341606527E+02 -0.15410035718E+01  0.85802190884E+02  0.89201544969E+02  0.10566000000E+00 0.  1.
         13    1    4    4    0    0 -0.13915715969E+02  0.13126420321E+01 -0.72621632907E+01  0.15751836710E+02  0.10566000000E+00 0. -1.
        -13    1    4    4    0    0 -0.17445412243E+01  0.94248528579E-01 -0.38422277214E+00  0.17919536944E+01  0.10566000000E+00 0.  1.
        -14    1    4    4    0    0 -0.86813493333E+01  0.13411301111E+00 -0.42343954518E+01  0.96599129079E+01  0.00000000000E+00 0.  1.
<mgrwt>
<rscale>  0 0.89921116E+02</rscale>
<asrwt>0</asrwt>
<pdfrwt beam="1">  1        2 0.32679876E-02 0.89921116E+02</pdfrwt>
<pdfrwt beam="2">  1       -1 0.14640512E-01 0.89921116E+02</pdfrwt>
<totfact> 0.89584637E+04</totfact>
</mgrwt>
</event>
<event>
 8    1  0.1493610E-013  0.8030036E+02  0.7818608E-02  0.1328201E+00
          2   -1    0    0  501    0  0.00000000000E+00  0.00000000000E+00  0.76542717430E+01  0.76542721677E+01  0.25500000000E-02 0. -1.
         -1   -1    0    0    0  501 -0.00000000000E+00 -0.00000000000E+00 -0.21060618928E+03  0.21060618934E+03  0.50400000000E-02 0.  1.
         24    2    1    2    0    0  0.00000000000E+00  0.35527136788E-14 -0.20295191754E+03  0.21826046151E+03  0.80300362551E+02 0.  0.
         66    2    3    3    0    0 -0.52505885434E+01  0.29245423761E+02 -0.28243601375E+02  0.41043446549E+02  0.19999987371E+01 0.  0.
        -13    1    3    3    0    0  0.52505885434E+01 -0.29245423761E+02 -0.17470831616E+03  0.17721701496E+03  0.10566000000E+00 0.  1.
         13    1    4    4    0    0 -0.51769316716E+01  0.27951314102E+02 -0.26562398733E+02  0.38905639335E+02  0.10566000000E+00 0. -1.
        -13    1    4    4    0    0 -0.12546745792E+00  0.53985821055E+00 -0.69734524166E+00  0.89701917045E+00  0.10566000000E+00 0.  1.
         14    1    4    4    0    0  0.51810586132E-01  0.75425144797E+00 -0.98385740040E+00  0.12407880431E+01  0.00000000000E+00 0. -1.
<mgrwt>
<rscale>  0 0.80300363E+02</rscale>
<asrwt>0</asrwt>
<pdfrwt beam="1">  1        2 0.11775805E-02 0.80300363E+02</pdfrwt>
<pdfrwt beam="2">  1       -1 0.32400948E-01 0.80300363E+02</pdfrwt>
<totfact> 0.97100857E+04</totfact>
</mgrwt>
</event>
<event>
 8    1  0.1493610E-013  0.8112851E+02  0.7818608E-02  0.1325879E+00
          2   -1    0    0  501    0  0.00000000000E+00  0.00000000000E+00  0.67210832116E+03  0.67210832117E+03  0.25500000000E-02 0. -1.
         -1   -1    0    0    0  501 -0.00000000000E+00 -0.00000000000E+00 -0.24482023642E+01  0.24482075520E+01  0.50400000000E-02 0.  1.
         24    2    1    2    0    0  0.00000000000E+00  0.17763568394E-14  0.66966011880E+03  0.67455652872E+03  0.81128513662E+02 0.  0.
         66    2    3    3    0    0  0.12263186214E+02  0.11766098013E+02  0.64105643742E+03  0.64128479070E+03  0.20000059201E+01 0.  0.
        -13    1    3    3    0    0 -0.12263186214E+02 -0.11766098013E+02  0.28603681380E+02  0.33271738023E+02  0.10566000000E+00 0.  1.
         13    1    4    4    0    0  0.48771980684E+01  0.41139693071E+01  0.24230259471E+03  0.24238661344E+03  0.10566000000E+00 0. -1.
        -13    1    4    4    0    0  0.58309946911E+01  0.52496242675E+01  0.30294617656E+03  0.30304777860E+03  0.10566000000E+00 0.  1.
        -14    1    4    4    0    0  0.15549934548E+01  0.24025044387E+01  0.95807666144E+02  0.95850398665E+02  0.00000000000E+00 0.  1.
<mgrwt>
<rscale>  0 0.81128514E+02</rscale>
<asrwt>0</asrwt>
<pdfrwt beam="1">  1        2 0.10340131E+00 0.81128514E+02</pdfrwt>
<pdfrwt beam="2">  1       -1 0.37664682E-03 0.81128514E+02</pdfrwt>
<totfact> 0.31946176E+05</totfact>
</mgrwt>
</event>
<event>
 8    1  0.1493610E-013  0.7952986E+02  0.7818608E-02  0.1330391E+00
         -1   -1    0    0    0  501 -0.00000000000E+00  0.00000000000E+00  0.67521763178E+01  0.67521781988E+01  0.50400000000E-02 0.  1.
          2   -1    0    0  501    0  0.00000000000E+00 -0.00000000000E+00 -0.23418368941E+03  0.23418368943E+03  0.25500000000E-02 0. -1.
         24    2    1    2    0    0 -0.71054273576E-14  0.00000000000E+00 -0.22743151310E+03  0.24093586763E+03  0.79529863321E+02 0.  0.
         66    2    3    3    0    0 -0.32531132632E+02  0.21945440776E+02 -0.13279572425E+03  0.13848675511E+03  0.20000000295E+01 0.  0.
        -13    1    3    3    0    0  0.32531132632E+02 -0.21945440776E+02 -0.94635788842E+02  0.10244911251E+03  0.10566000000E+00 0.  1.
         13    1    4    4    0    0 -0.20404847805E+02  0.13396471213E+02 -0.81025794179E+02  0.84622773184E+02  0.10566000000E+00 0. -1.
        -13    1    4    4    0    0 -0.63476259914E+00  0.24157955129E+00 -0.20976830725E+01  0.22074244144E+01  0.10566000000E+00 0.  1.
        -14    1    4    4    0    0 -0.11491522228E+02  0.83073900125E+01 -0.49672247003E+02  0.51656557514E+02  0.00000000000E+00 0.  1.
<mgrwt>
<rscale>  0 0.79529863E+02</rscale>
<asrwt>0</asrwt>
<pdfrwt beam="1">  1        2 0.36028254E-01 0.79529863E+02</pdfrwt>
<pdfrwt beam="2">  1       -1 0.10387967E-02 0.79529863E+02</pdfrwt>
<totfact> 0.23682242E+05</totfact>
</mgrwt>
</event>
<event>
 8    1  0.1493610E-013  0.7904919E+02  0.7818608E-02  0.1331772E+00
         -1   -1    0    0    0  501 -0.00000000000E+00  0.00000000000E+00  0.36834960034E+02  0.36834960379E+02  0.50400000000E-02 0.  1.
          2   -1    0    0  501    0  0.00000000000E+00 -0.00000000000E+00 -0.42410625964E+02  0.42410626041E+02  0.25500000000E-02 0. -1.
         24    2    1    2    0    0  0.00000000000E+00  0.00000000000E+00 -0.55756659297E+01  0.79245586420E+02  0.79049193016E+02 0.  0.
         66    2    3    3    0    0  0.27806678893E+02  0.23216303876E+02 -0.18576136880E+02  0.40758815112E+02  0.19999978010E+01 0.  0.
        -13    1    3    3    0    0 -0.27806678893E+02 -0.23216303876E+02  0.13000470951E+02  0.38486771308E+02  0.10566000000E+00 0.  1.
         13    1    4    4    0    0  0.16819564101E+02  0.13807499175E+02 -0.11640188606E+02  0.24678936866E+02  0.10566000000E+00 0. -1.
        -13    1    4    4    0    0  0.97399267502E+01  0.86959631915E+01 -0.64478641688E+01  0.14562694301E+02  0.10566000000E+00 0.  1.
         14    1    4    4    0    0  0.12471880414E+01  0.71284150971E+00 -0.48808410604E+00  0.15171839451E+01  0.00000000000E+00 0. -1.
<mgrwt>
<rscale>  0 0.79049193E+02</rscale>
<asrwt>0</asrwt>
<pdfrwt beam="1">  1        2 0.65247117E-02 0.79049193E+02</pdfrwt>
<pdfrwt beam="2">  1       -1 0.56669170E-02 0.79049193E+02</pdfrwt>
<totfact> 0.14911976E+05</totfact>
</mgrwt>
</event>
<event>
 8    1  0.1493610E-013  0.7573691E+02  0.7818608E-02  0.1341604E+00
         -1   -1    0    0    0  501 -0.00000000000E+00  0.00000000000E+00  0.32216468504E+01  0.32216507927E+01  0.50400000000E-02 0.  1.
          2   -1    0    0  501    0  0.00000000000E+00 -0.00000000000E+00 -0.44511987747E+03  0.44511987748E+03  0.25500000000E-02 0. -1.
         24    2    1    2    0    0  0.00000000000E+00 -0.35527136788E-14 -0.44189823062E+03  0.44834152827E+03  0.75736911389E+02 0.  0.
         66    2    3    3    0    0  0.17609127548E+02  0.31502679390E+02 -0.28847193079E+03  0.29072763033E+03  0.19999998214E+01 0.  0.
        -13    1    3    3    0    0 -0.17609127548E+02 -0.31502679390E+02 -0.15342629983E+03  0.15761389795E+03  0.10566000000E+00 0.  1.
         13    1    4    4    0    0  0.68377033317E+01  0.11782312205E+02 -0.11491596162E+03  0.11572063976E+03  0.10566000000E+00 0. -1.
        -13    1    4    4    0    0  0.39247992167E+01  0.71753449940E+01 -0.66612790351E+02  0.67113073444E+02  0.10566000000E+00 0.  1.
        -14    1    4    4    0    0  0.68466249999E+01  0.12545022192E+02 -0.10694317882E+03  0.10789391712E+03  0.00000000000E+00 0.  1.
<mgrwt>
<rscale>  0 0.75736911E+02</rscale>
<asrwt>0</asrwt>
<pdfrwt beam="1">  1        2 0.68479932E-01 0.75736911E+02</pdfrwt>
<pdfrwt beam="2">  1       -1 0.49563864E-03 0.75736911E+02</pdfrwt>
<totfact> 0.33799685E+05</totfact>
</mgrwt>
</event>
<event>
 8    1  0.1493610E-013  0.7783726E+02  0.7818608E-02  0.1335303E+00
         -1   -1    0    0    0  501 -0.00000000000E+00  0.00000000000E+00  0.16982265500E+02  0.16982266248E+02  0.50400000000E-02 0.  1.
          2   -1    0    0  501    0  0.00000000000E+00 -0.00000000000E+00 -0.89190676892E+02  0.89190676929E+02  0.25500000000E-02 0. -1.
         24    2    1    2    0    0  0.00000000000E+00  0.00000000000E+00 -0.72208411392E+02  0.10617294318E+03  0.77837260917E+02 0.  0.
         66    2    3    3    0    0  0.92062219688E+01  0.35296754137E+02 -0.17724107432E+02  0.40604918062E+02  0.20000027564E+01 0.  0.
        -13    1    3    3    0    0 -0.92062219688E+01 -0.35296754137E+02 -0.54484303959E+02  0.65568025115E+02  0.10566000000E+00 0.  1.
         13    1    4    4    0    0  0.43493687365E+01  0.16731503921E+02 -0.81504258985E+01  0.19112844849E+02  0.10566000000E+00 0. -1.
        -13    1    4    4    0    0  0.32830218931E+01  0.14296443706E+02 -0.77513692869E+01  0.16591004347E+02  0.10566000000E+00 0.  1.
         14    1    4    4    0    0  0.15738313392E+01  0.42688065088E+01 -0.18223122469E+01  0.49010688649E+01  0.00000000000E+00 0. -1.
<mgrwt>
<rscale>  0 0.77837261E+02</rscale>
<asrwt>0</asrwt>
<pdfrwt beam="1">  1        2 0.13721642E-01 0.77837261E+02</pdfrwt>
<pdfrwt beam="2">  1       -1 0.26126563E-02 0.77837261E+02</pdfrwt>
<totfact> 0.18489586E+05</totfact>
</mgrwt>
</event>
<event>
 8    1  0.1493610E-013  0.7984534E+02  0.7818608E-02  0.1329491E+00
         -1   -1    0    0    0  501 -0.00000000000E+00  0.00000000000E+00  0.92059559700E+02  0.92059559838E+02  0.50400000000E-02 0.  1.
          2   -1    0    0  501    0  0.00000000000E+00 -0.00000000000E+00 -0.17312919603E+02  0.17312919791E+02  0.25500000000E-02 0. -1.
         24    2    1    2    0    0  0.00000000000E+00  0.35527136788E-14  0.74746640097E+02  0.10937247963E+03  0.79845344851E+02 0.  0.
         66    2    3    3    0    0 -0.16891426375E+02  0.31000747743E+02  0.11937201338E+02  0.37321085424E+02  0.19999989665E+01 0.  0.
        -13    1    3    3    0    0  0.16891426375E+02 -0.31000747743E+02  0.62809438759E+02  0.72051394205E+02  0.10566000000E+00 0.  1.
         13    1    4    4    0    0 -0.57821814997E+01  0.12123204524E+02  0.46431882804E+01  0.14211828604E+02  0.10566000000E+00 0. -1.
        -13    1    4    4    0    0 -0.12314918145E+01  0.20383334143E+01  0.47935863416E+00  0.24315270784E+01  0.10566000000E+00 0.  1.
        -14    1    4    4    0    0 -0.98777530603E+01  0.16839209805E+02  0.68146544232E+01  0.20677729742E+02  0.00000000000E+00 0.  1.
<mgrwt>
<rscale>  0 0.79845345E+02</rscale>
<asrwt>0</asrwt>
<pdfrwt beam="1">  1        2 0.26635261E-02 0.79845345E+02</pdfrwt>
<pdfrwt beam="2">  1       -1 0.14163009E-01 0.79845345E+02</pdfrwt>
<totfact> 0.12120522E+05</totfact>
</mgrwt>
</event>
<event>
 8    1  0.1493610E-013  0.7905173E+02  0.7818608E-02  0.1331764E+00
          2   -1    0    0  501    0  0.00000000000E+00  0.00000000000E+00  0.41470985229E+03  0.41470985230E+03  0.25500000000E-02 0. -1.
         -1   -1    0    0    0  501 -0.00000000000E+00 -0.00000000000E+00 -0.37671958708E+01  0.37671992422E+01  0.50400000000E-02 0.  1.
         24    2    1    2    0    0  0.00000000000E+00  0.00000000000E+00  0.41094265642E+03  0.41847705154E+03  0.79051728639E+02 0.  0.
         66    2    3    3    0    0  0.69086856313E+00  0.21501907030E+02  0.38097378114E+03  0.38158594211E+03  0.19999988275E+01 0.  0.
        -13    1    3    3    0    0 -0.69086856313E+00 -0.21501907030E+02  0.29968875275E+02  0.36891109425E+02  0.10566000000E+00 0.  1.
         13    1    4    4    0    0  0.22849122912E+00  0.10263065097E+02  0.19484499921E+03  0.19511526746E+03  0.10566000000E+00 0. -1.
        -13    1    4    4    0    0  0.12355381532E+00  0.45538272043E+00  0.10118282970E+02  0.10129829874E+02  0.10566000000E+00 0. -1.
         14    1    4    4    0    0  0.33882351869E+00  0.10783459213E+02  0.17601049896E+03  0.17634084478E+03  0.00000000000E+00 0. -1.
<mgrwt>
<rscale>  0 0.79051729E+02</rscale>
<asrwt>0</asrwt>
<pdfrwt beam="1">  1        2 0.63801518E-01 0.79051729E+02</pdfrwt>
<pdfrwt beam="2">  1       -1 0.57956884E-03 0.79051729E+02</pdfrwt>
<totfact> 0.29514952E+05</totfact>
</mgrwt>
</event>
<event>
 8    1  0.1493610E-013  0.8003177E+02  0.7818608E-02  0.1328961E+00
         -1   -1    0    0    0  501 -0.00000000000E+00  0.00000000000E+00  0.95084103197E+02  0.95084103331E+02  0.50400000000E-02 0.  1.
          2   -1    0    0  501    0  0.00000000000E+00 -0.00000000000E+00 -0.16840575532E+02  0.16840575725E+02  0.25500000000E-02 0. -1.
         24    2    1    2    0    0  0.00000000000E+00  0.00000000000E+00  0.78243527665E+02  0.11192467906E+03  0.80031769693E+02 0.  0.
         66    2    3    3    0    0  0.16976667178E+02  0.16433950192E+02 -0.59755767191E+01  0.24453823025E+02  0.19999990072E+01 0.  0.
        -13    1    3    3    0    0 -0.16976667178E+02 -0.16433950192E+02  0.84219104384E+02  0.87470856031E+02  0.10566000000E+00 0.  1.
         13    1    4    4    0    0  0.71811416483E+00  0.91114452150E+00 -0.47186393654E+00  0.12568579486E+01  0.10566000000E+00 0. -1.
        -13    1    4    4    0    0  0.16185761828E+02  0.15202065422E+02 -0.54204312051E+01  0.22857688369E+02  0.10566000000E+00 0.  1.
        -14    1    4    4    0    0  0.72791184906E-01  0.32074024823E+00 -0.83281577446E-01  0.33927670798E+00  0.00000000000E+00 0.  1.
<mgrwt>
<rscale>  0 0.80031770E+02</rscale>
<asrwt>0</asrwt>
<pdfrwt beam="1">  1        2 0.25908578E-02 0.80031770E+02</pdfrwt>
<pdfrwt beam="2">  1       -1 0.14628323E-01 0.80031770E+02</pdfrwt>
<totfact> 0.11968918E+05</totfact>
</mgrwt>
</event>
<event>
 8    1  0.1493610E-013  0.8042108E+02  0.7818608E-02  0.1327861E+00
         -1   -1    0    0    0  501 -0.00000000000E+00  0.00000000000E+00  0.21127462424E+01  0.21127522539E+01  0.50400000000E-02 0.  1.
          2   -1    0    0  501    0  0.00000000000E+00 -0.00000000000E+00 -0.76530016270E+03  0.76530016271E+03  0.25500000000E-02 0. -1.
         24    2    1    2    0    0 -0.17763568394E-14  0.00000000000E+00 -0.76318741646E+03  0.76741291496E+03  0.80421075630E+02 0.  0.
         66    2    3    3    0    0 -0.11130152476E+02  0.11563222458E+02 -0.73338640906E+03  0.73356473017E+03  0.19999856170E+01 0.  0.
        -13    1    3    3    0    0  0.11130152476E+02 -0.11563222458E+02 -0.29801007398E+02  0.33848184792E+02  0.10566000000E+00 0.  1.
         13    1    4    4    0    0 -0.47387966638E+01  0.44293552391E+01 -0.31130193117E+03  0.31136952146E+03  0.10566000000E+00 0. -1.
        -13    1    4    4    0    0 -0.12770990519E+01  0.77246588441E+00 -0.58631341976E+02  0.58650431469E+02  0.10566000000E+00 0.  1.
         14    1    4    4    0    0 -0.51142567605E+01  0.63614013345E+01 -0.36345313591E+03  0.36354477724E+03  0.00000000000E+00 0. -1.
<mgrwt>
<rscale>  0 0.80421076E+02</rscale>
<asrwt>0</asrwt>
<pdfrwt beam="1">  1        2 0.11773827E+00 0.80421076E+02</pdfrwt>
<pdfrwt beam="2">  1       -1 0.32503896E-03 0.80421076E+02</pdfrwt>
<totfact> 0.33626337E+05</totfact>
</mgrwt>
</event>
<event>
 8    1  0.1493610E-013  0.7438509E+02  0.7818608E-02  0.1345786E+00
         -1   -1    0    0    0  501 -0.00000000000E+00  0.00000000000E+00  0.12876639676E+02  0.12876640662E+02  0.50400000000E-02 0.  1.
          2   -1    0    0  501    0  0.00000000000E+00 -0.00000000000E+00 -0.10742595145E+03  0.10742595148E+03  0.25500000000E-02 0. -1.
         24    2    1    2    0    0  0.71054273576E-14 -0.35527136788E-14 -0.94549311779E+02  0.12030259215E+03  0.74385088019E+02 0.  0.
         66    2    3    3    0    0 -0.24063267058E+02  0.25802223096E+02 -0.66203064201E+02  0.75044261931E+02  0.20000002321E+01 0.  0.
        -13    1    3    3    0    0  0.24063267058E+02 -0.25802223096E+02 -0.28346247577E+02  0.45258330216E+02  0.10566000000E+00 0.  1.
         13    1    4    4    0    0 -0.27429160959E+01  0.31589389358E+01 -0.89864237562E+01  0.99130953729E+01  0.10566000000E+00 0.  1.
        -13    1    4    4    0    0 -0.18000485524E+01  0.22304872422E+01 -0.49215689976E+01  0.56963368547E+01  0.10566000000E+00 0. -1.
         14    1    4    4    0    0 -0.19520302410E+02  0.20412796918E+02 -0.52295071448E+02  0.59434829704E+02  0.00000000000E+00 0. -1.
<mgrwt>
<rscale>  0 0.74385088E+02</rscale>
<asrwt>0</asrwt>
<pdfrwt beam="1">  1        2 0.16527069E-01 0.74385088E+02</pdfrwt>
<pdfrwt beam="2">  1       -1 0.19810216E-02 0.74385088E+02</pdfrwt>
<totfact> 0.21955946E+05</totfact>
</mgrwt>
</event>
<event>
 8    1  0.1493610E-013  0.7917137E+02  0.7818608E-02  0.1331420E+00
          2   -1    0    0  501    0  0.00000000000E+00  0.00000000000E+00  0.14839053955E+04  0.14839053955E+04  0.25500000000E-02 0. -1.
         -1   -1    0    0    0  501 -0.00000000000E+00 -0.00000000000E+00 -0.10560090628E+01  0.10560210899E+01  0.50400000000E-02 0.  1.
         24    2    1    2    0    0 -0.44408920985E-15  0.00000000000E+00  0.14828493864E+04  0.14849614166E+04  0.79171370519E+02 0.  0.
         66    2    3    3    0    0 -0.37494356011E+01  0.14463608851E+02  0.14289421815E+04  0.14290216976E+04  0.20000008963E+01 0.  0.
        -13    1    3    3    0    0  0.37494356011E+01 -0.14463608851E+02  0.53907204912E+02  0.55939718928E+02  0.10566000000E+00 0.  1.
         13    1    4    4    0    0 -0.13012442330E+01  0.42781818860E+01  0.48434086417E+03  0.48436151782E+03  0.10566000000E+00 0. -1.
        -13    1    4    4    0    0 -0.12577100088E+01  0.59757332140E+01  0.60033437518E+03  0.60036544238E+03  0.10566000000E+00 0.  1.
         14    1    4    4    0    0 -0.11904813593E+01  0.42096937507E+01  0.34426694215E+03  0.34429473743E+03  0.00000000000E+00 0. -1.
<mgrwt>
<rscale>  0 0.79171371E+02</rscale>
<asrwt>0</asrwt>
<pdfrwt beam="1">  1        2 0.22829342E+00 0.79171371E+02</pdfrwt>
<pdfrwt beam="2">  1       -1 0.16246366E-03 0.79171371E+02</pdfrwt>
<totfact> 0.34299327E+05</totfact>
</mgrwt>
</event>
<event>
 8    1  0.1493610E-013  0.8003491E+02  0.7818608E-02  0.1328952E+00
          2   -1    0    0  501    0  0.00000000000E+00  0.00000000000E+00  0.60615664715E+02  0.60615664769E+02  0.25500000000E-02 0. -1.
         -1   -1    0    0    0  501 -0.00000000000E+00 -0.00000000000E+00 -0.26418857316E+02  0.26418857797E+02  0.50400000000E-02 0.  1.
         24    2    1    2    0    0 -0.71054273576E-14  0.00000000000E+00  0.34196807399E+02  0.87034522565E+02  0.80034907896E+02 0.  0.
         66    2    3    3    0    0  0.35491968795E+02  0.11160426734E+01  0.37115490087E+02  0.51405106729E+02  0.19999982923E+01 0.  0.
        -13    1    3    3    0    0 -0.35491968795E+02 -0.11160426734E+01 -0.29186826883E+01  0.35629415837E+02  0.10566000000E+00 0.  1.
         13    1    4    4    0    0  0.68492772522E+01  0.71199406689E+00  0.73499898281E+01  0.10072390428E+02  0.10566000000E+00 0. -1.
        -13    1    4    4    0    0  0.20659170777E+02  0.67223587494E+00  0.20780740354E+02  0.29310468641E+02  0.10566000000E+00 0.  1.
        -14    1    4    4    0    0  0.79835207657E+01 -0.26818726843E+00  0.89847599055E+01  0.12022247660E+02  0.00000000000E+00 0.  1.
<mgrwt>
<rscale>  0 0.80034908E+02</rscale>
<asrwt>0</asrwt>
<pdfrwt beam="1">  1        2 0.93254869E-02 0.80034908E+02</pdfrwt>
<pdfrwt beam="2">  1       -1 0.40644396E-02 0.80034908E+02</pdfrwt>
<totfact> 0.15584502E+05</totfact>
</mgrwt>
</event>
<event>
 8    1  0.1493610E-013  0.7810463E+02  0.7818608E-02  0.1334518E+00
          2   -1    0    0  501    0  0.00000000000E+00  0.00000000000E+00  0.19329757081E+03  0.19329757083E+03  0.25500000000E-02 0. -1.
         -1   -1    0    0    0  501 -0.00000000000E+00 -0.00000000000E+00 -0.78898207620E+01  0.78898223718E+01  0.50400000000E-02 0.  1.
         24    2    1    2    0    0  0.00000000000E+00  0.00000000000E+00  0.18540775005E+03  0.20118739320E+03  0.78104631132E+02 0.  0.
         66    2    3    3    0    0 -0.27451896536E+02  0.16235724792E+02  0.15069998959E+03  0.15405094040E+03  0.19999977504E+01 0.  0.
        -13    1    3    3    0    0  0.27451896536E+02 -0.16235724792E+02  0.34707760459E+02  0.47136452805E+02  0.10566000000E+00 0.  1.
         13    1    4    4    0    0 -0.10039800423E+02  0.55341015728E+01  0.54279678069E+02  0.55477188898E+02  0.10566000000E+00 0. -1.
        -13    1    4    4    0    0 -0.67497833817E+01  0.46014921643E+01  0.35612011600E+02  0.36537102239E+02  0.10566000000E+00 0.  1.
        -14    1    4    4    0    0 -0.10662312731E+02  0.61001310550E+01  0.60808299923E+02  0.62036649258E+02  0.00000000000E+00 0.  1.
<mgrwt>
<rscale>  0 0.78104631E+02</rscale>
<asrwt>0</asrwt>
<pdfrwt beam="1">  1        2 0.29738086E-01 0.78104631E+02</pdfrwt>
<pdfrwt beam="2">  1       -1 0.12138188E-02 0.78104631E+02</pdfrwt>
<totfact> 0.23222696E+05</totfact>
</mgrwt>
</event>
<event>
 8    1  0.1493610E-013  0.8043555E+02  0.7818608E-02  0.1327820E+00
         -1   -1    0    0    0  501 -0.00000000000E+00  0.00000000000E+00  0.20077969485E+01  0.20078032743E+01  0.50400000000E-02 0.  1.
          2   -1    0    0  501    0  0.00000000000E+00 -0.00000000000E+00 -0.80559286144E+03  0.80559286144E+03  0.25500000000E-02 0. -1.
         24    2    1    2    0    0 -0.35527136788E-14  0.35527136788E-14 -0.80358506449E+03  0.80760066471E+03  0.80435550472E+02 0.  0.
         66    2    3    3    0    0  0.23760673300E+02  0.20602088499E+02 -0.65333963513E+03  0.65409914729E+03  0.20000002550E+01 0.  0.
        -13    1    3    3    0    0 -0.23760673300E+02 -0.20602088499E+02 -0.15024542935E+03  0.15350151743E+03  0.10566000000E+00 0.  1.
         13    1    4    4    0    0  0.12462265743E+02  0.11471765098E+02 -0.36331721901E+03  0.36371186708E+03  0.10566000000E+00 0.  1.
        -13    1    4    4    0    0  0.38962878955E+01  0.34391612177E+01 -0.11058146526E+03  0.11070357046E+03  0.10566000000E+00 0. -1.
        -14    1    4    4    0    0  0.74021196619E+01  0.56911621836E+01 -0.17944095087E+03  0.17968370975E+03  0.00000000000E+00 0.  1.
<mgrwt>
<rscale>  0 0.80435550E+02</rscale>
<asrwt>0</asrwt>
<pdfrwt beam="1">  1        2 0.12393711E+00 0.80435550E+02</pdfrwt>
<pdfrwt beam="2">  1       -1 0.30889297E-03 0.80435550E+02</pdfrwt>
<totfact> 0.33924560E+05</totfact>
</mgrwt>
</event>
<event>
 8    1  0.1493610E-013  0.7851539E+02  0.7818608E-02  0.1333318E+00
         -1   -1    0    0    0  501 -0.00000000000E+00  0.00000000000E+00  0.18039983845E+03  0.18039983852E+03  0.50400000000E-02 0.  1.
          2   -1    0    0  501    0  0.00000000000E+00 -0.00000000000E+00 -0.85430594855E+01  0.85430598660E+01  0.25500000000E-02 0. -1.
         24    2    1    2    0    0  0.00000000000E+00  0.00000000000E+00  0.17185677897E+03  0.18894289839E+03  0.78515389413E+02 0.  0.
         66    2    3    3    0    0 -0.38678678682E+02 -0.24508446819E+01  0.71323466992E+02  0.81197806599E+02  0.20000070966E+01 0.  0.
        -13    1    3    3    0    0  0.38678678682E+02  0.24508446819E+01  0.10053331197E+03  0.10774509179E+03  0.10566000000E+00 0.  1.
         13    1    4    4    0    0 -0.12759489721E+02 -0.50800759605E+00  0.24442750510E+02  0.27577560918E+02  0.10566000000E+00 0. -1.
        -13    1    4    4    0    0 -0.13357913915E+01  0.14874243927E+00  0.22009311980E+01  0.25810317953E+01  0.10566000000E+00 0.  1.
         14    1    4    4    0    0 -0.24583397569E+02 -0.20915795251E+01  0.44679785284E+02  0.51039213885E+02  0.00000000000E+00 0. -1.
<mgrwt>
<rscale>  0 0.78515389E+02</rscale>
<asrwt>0</asrwt>
<pdfrwt beam="1">  1        2 0.13143169E-02 0.78515389E+02</pdfrwt>
<pdfrwt beam="2">  1       -1 0.27753820E-01 0.78515389E+02</pdfrwt>
<totfact> 0.10765900E+05</totfact>
</mgrwt>
</event>
<event>
 8    1  0.1493610E-013  0.8009848E+02  0.7818608E-02  0.1328772E+00
         -1   -1    0    0    0  501 -0.00000000000E+00  0.00000000000E+00  0.23022130773E+01  0.23022185941E+01  0.50400000000E-02 0.  1.
          2   -1    0    0  501    0  0.00000000000E+00 -0.00000000000E+00 -0.69669480633E+03  0.69669480633E+03  0.25500000000E-02 0. -1.
         24    2    1    2    0    0 -0.11102230246E-15  0.00000000000E+00 -0.69439259325E+03  0.69899702492E+03  0.80098484973E+02 0.  0.
         66    2    3    3    0    0 -0.47040153679E+00 -0.29975525207E+02 -0.57882387844E+03  0.57960317083E+03  0.19999987175E+01 0.  0.
        -13    1    3    3    0    0  0.47040153679E+00  0.29975525207E+02 -0.11556871481E+03  0.11939385410E+03  0.10566000000E+00 0.  1.
         13    1    4    4    0    0 -0.83084746333E-01 -0.35826496222E+01 -0.75970160005E+02  0.76054708313E+02  0.10566000000E+00 0. -1.
        -13    1    4    4    0    0 -0.82726301649E+00 -0.17805745837E+02 -0.33025568447E+03  0.33073638632E+03  0.10566000000E+00 0.  1.
         14    1    4    4    0    0  0.43994622604E+00 -0.85871297477E+01 -0.17259803397E+03  0.17281207620E+03  0.00000000000E+00 0. -1.
<mgrwt>
<rscale>  0 0.80098485E+02</rscale>
<asrwt>0</asrwt>
<pdfrwt beam="1">  1        2 0.10718365E+00 0.80098485E+02</pdfrwt>
<pdfrwt beam="2">  1       -1 0.35418761E-03 0.80098485E+02</pdfrwt>
<totfact> 0.33308638E+05</totfact>
</mgrwt>
</event>
<event>
 8    1  0.1493610E-013  0.7822463E+02  0.7818608E-02  0.1334167E+00
         -1   -1    0    0    0  501 -0.00000000000E+00  0.00000000000E+00  0.16349568680E+02  0.16349569457E+02  0.50400000000E-02 0.  1.
          2   -1    0    0  501    0  0.00000000000E+00 -0.00000000000E+00 -0.93566573637E+02  0.93566573671E+02  0.25500000000E-02 0. -1.
         24    2    1    2    0    0  0.00000000000E+00  0.00000000000E+00 -0.77217004956E+02  0.10991614313E+03  0.78224629534E+02 0.  0.
         66    2    3    3    0    0 -0.32353066658E+02 -0.15462093338E+02 -0.60491126092E+02  0.70348941554E+02  0.19999973308E+01 0.  0.
        -13    1    3    3    0    0  0.32353066658E+02  0.15462093338E+02 -0.16725878865E+02  0.39567201574E+02  0.10566000000E+00 0.  1.
         13    1    4    4    0    0 -0.14291289649E+02 -0.65419911007E+01 -0.27868913139E+02  0.31995719886E+02  0.10566000000E+00 0. -1.
        -13    1    4    4    0    0 -0.16458902976E+02 -0.81202575002E+01 -0.29160533522E+02  0.34455506793E+02  0.10566000000E+00 0.  1.
        -14    1    4    4    0    0 -0.16028740327E+01 -0.79984473687E+00 -0.34616794300E+01  0.38977148746E+01  0.00000000000E+00 0.  1.
<mgrwt>
<rscale>  0 0.78224630E+02</rscale>
<asrwt>0</asrwt>
<pdfrwt beam="1">  1        2 0.14394857E-01 0.78224630E+02</pdfrwt>
<pdfrwt beam="2">  1       -1 0.25153184E-02 0.78224630E+02</pdfrwt>
<totfact> 0.18481800E+05</totfact>
</mgrwt>
</event>
<event>
 8    1  0.1493610E-013  0.7738974E+02  0.7818608E-02  0.1336627E+00
         -1   -1    0    0    0  501 -0.00000000000E+00  0.00000000000E+00  0.60156695186E+02  0.60156695398E+02  0.50400000000E-02 0.  1.
          2   -1    0    0  501    0  0.00000000000E+00 -0.00000000000E+00 -0.24889883322E+02  0.24889883452E+02  0.25500000000E-02 0. -1.
         24    2    1    2    0    0  0.00000000000E+00  0.35527136788E-14  0.35266811865E+02  0.85046578850E+02  0.77389744508E+02 0.  0.
         66    2    3    3    0    0  0.14822393014E+02 -0.31584997713E+02 -0.67692229964E+00  0.34953878734E+02  0.19999999014E+01 0.  0.
        -13    1    3    3    0    0 -0.14822393014E+02  0.31584997713E+02  0.35943734164E+02  0.50092700116E+02  0.10566000000E+00 0.  1.
         13    1    4    4    0    0  0.34335084608E+01 -0.85337729362E+01 -0.75819788943E+00  0.92304002596E+01  0.10566000000E+00 0. -1.
        -13    1    4    4    0    0  0.72222783633E+00 -0.12000338962E+01 -0.86173212704E-01  0.14072257310E+01  0.10566000000E+00 0.  1.
         14    1    4    4    0    0  0.10666656717E+02 -0.21851190880E+02  0.16744880249E+00  0.24316252744E+02  0.00000000000E+00 0. -1.
<mgrwt>
<rscale>  0 0.77389745E+02</rscale>
<asrwt>0</asrwt>
<pdfrwt beam="1">  1        2 0.38292128E-02 0.77389745E+02</pdfrwt>
<pdfrwt beam="2">  1       -1 0.92548762E-02 0.77389745E+02</pdfrwt>
<totfact> 0.14242652E+05</totfact>
</mgrwt>
</event>
<event>
 8    1  0.1493610E-013  0.7610446E+02  0.7818608E-02  0.1340485E+00
         -1   -1    0    0    0  501 -0.00000000000E+00  0.00000000000E+00  0.23199286824E+01  0.23199341570E+01  0.50400000000E-02 0.  1.
          2   -1    0    0  501    0  0.00000000000E+00 -0.00000000000E+00 -0.62414440133E+03  0.62414440134E+03  0.25500000000E-02 0. -1.
         24    2    1    2    0    0 -0.88817841970E-15  0.00000000000E+00 -0.62182447265E+03  0.62646433549E+03  0.76104460187E+02 0.  0.
         66    2    3    3    0    0  0.67014901264E+01  0.31587255272E+02 -0.47643737066E+03  0.47753453574E+03  0.19999996492E+01 0.  0.
        -13    1    3    3    0    0 -0.67014901264E+01 -0.31587255272E+02 -0.14538710199E+03  0.14892979976E+03  0.10566000000E+00 0.  1.
         13    1    4    4    0    0  0.25517750516E+01  0.13024110766E+02 -0.19500926956E+03  0.19546039342E+03  0.10566000000E+00 0. -1.
        -13    1    4    4    0    0  0.15054424318E+01  0.58363046076E+01 -0.79664855236E+02  0.79892609997E+02  0.10566000000E+00 0.  1.
        -14    1    4    4    0    0  0.26442726430E+01  0.12726839898E+02 -0.20176324586E+03  0.20218153232E+03  0.00000000000E+00 0.  1.
<mgrwt>
<rscale>  0 0.76104460E+02</rscale>
<asrwt>0</asrwt>
<pdfrwt beam="1">  1        2 0.96022082E-01 0.76104460E+02</pdfrwt>
<pdfrwt beam="2">  1       -1 0.35691303E-03 0.76104460E+02</pdfrwt>
<totfact> 0.37007853E+05</totfact>
</mgrwt>
</event>
<event>
 8    1  0.1493610E-013  0.8193224E+02  0.7818608E-02  0.1323656E+00
         -1   -1    0    0    0  501 -0.00000000000E+00  0.00000000000E+00  0.27774393241E+01  0.27774438970E+01  0.50400000000E-02 0.  1.
          2   -1    0    0  501    0  0.00000000000E+00 -0.00000000000E+00 -0.60423336678E+03  0.60423336678E+03  0.25500000000E-02 0. -1.
         24    2    1    2    0    0  0.00000000000E+00  0.00000000000E+00 -0.60145592745E+03  0.60701081068E+03  0.81932237937E+02 0.  0.
         66    2    3    3    0    0 -0.33410751515E+02  0.16463766279E+02 -0.42682916235E+03  0.42845591108E+03  0.19999973279E+01 0.  0.
        -13    1    3    3    0    0  0.33410751515E+02 -0.16463766279E+02 -0.17462676510E+03  0.17855489960E+03  0.10566000000E+00 0.  1.
         13    1    4    4    0    0 -0.96094938234E+01  0.45065652830E+01 -0.11909097008E+03  0.11956304538E+03  0.10566000000E+00 0. -1.
        -13    1    4    4    0    0 -0.11737891565E+02  0.67701850329E+01 -0.15786606727E+03  0.15844658363E+03  0.10566000000E+00 0.  1.
        -14    1    4    4    0    0 -0.12063366127E+02  0.51870159636E+01 -0.14987212500E+03  0.15044628207E+03  0.00000000000E+00 0.  1.
<mgrwt>
<rscale>  0 0.81932238E+02</rscale>
<asrwt>0</asrwt>
<pdfrwt beam="1">  1        2 0.92958875E-01 0.81932238E+02</pdfrwt>
<pdfrwt beam="2">  1       -1 0.42729919E-03 0.81932238E+02</pdfrwt>
<totfact> 0.30283705E+05</totfact>
</mgrwt>
</event>
<event>
 8    1  0.1493610E-013  0.7889891E+02  0.7818608E-02  0.1332206E+00
          2   -1    0    0  501    0  0.00000000000E+00  0.00000000000E+00  0.53895246844E+03  0.53895246845E+03  0.25500000000E-02 0. -1.
         -1   -1    0    0    0  501 -0.00000000000E+00 -0.00000000000E+00 -0.28875614790E+01  0.28875658774E+01  0.50400000000E-02 0.  1.
         24    2    1    2    0    0  0.00000000000E+00 -0.88817841970E-15  0.53606490696E+03  0.54184003433E+03  0.78898912037E+02 0.  0.
         66    2    3    3    0    0 -0.28880975980E+02 -0.78227613330E+01  0.44449341318E+03  0.44550387286E+03  0.20000008747E+01 0.  0.
        -13    1    3    3    0    0  0.28880975980E+02  0.78227613330E+01  0.91571493787E+02  0.96336161471E+02  0.10566000000E+00 0.  1.
         13    1    4    4    0    0 -0.59277261900E+01 -0.88567918877E+00  0.88864557194E+02  0.89066509165E+02  0.10566000000E+00 0. -1.
        -13    1    4    4    0    0 -0.43753380472E+01 -0.15324934096E+01  0.72632317546E+02  0.72780195350E+02  0.10566000000E+00 0.  1.
         14    1    4    4    0    0 -0.18577911743E+02 -0.54045887346E+01  0.28299653844E+03  0.28365716834E+03  0.00000000000E+00 0. -1.
<mgrwt>
<rscale>  0 0.78898912E+02</rscale>
<asrwt>0</asrwt>
<pdfrwt beam="1">  1        2 0.82915727E-01 0.78898912E+02</pdfrwt>
<pdfrwt beam="2">  1       -1 0.44424077E-03 0.78898912E+02</pdfrwt>
<totfact> 0.32316005E+05</totfact>
</mgrwt>
</event>
<event>
 8    1  0.1493610E-013  0.8021477E+02  0.7818608E-02  0.1328443E+00
          2   -1    0    0  501    0  0.00000000000E+00  0.00000000000E+00  0.17403490049E+03  0.17403490051E+03  0.25500000000E-02 0. -1.
         -1   -1    0    0    0  501 -0.00000000000E+00 -0.00000000000E+00 -0.92429865848E+01  0.92429879589E+01  0.50400000000E-02 0.  1.
         24    2    1    2    0    0  0.00000000000E+00 -0.17763568394E-14  0.16479191391E+03  0.18327788847E+03  0.80214771163E+02 0.  0.
         66    2    3    3    0    0 -0.27714177855E+02  0.97125749072E+01  0.14477701116E+03  0.14773893433E+03  0.19999976848E+01 0.  0.
        -13    1    3    3    0    0  0.27714177855E+02 -0.97125749072E+01  0.20014902750E+02  0.35538954143E+02  0.10566000000E+00 0.  1.
         13    1    4    4    0    0 -0.10014474686E+02  0.32100404982E+01  0.50901390629E+02  0.51976502337E+02  0.10566000000E+00 0. -1.
        -13    1    4    4    0    0 -0.87790951014E+01  0.38174720591E+01  0.45057588285E+02  0.46063467410E+02  0.10566000000E+00 0.  1.
        -14    1    4    4    0    0 -0.89206080670E+01  0.26850623499E+01  0.48818032246E+02  0.49698964581E+02  0.00000000000E+00 0.  1.
<mgrwt>
<rscale>  0 0.80214771E+02</rscale>
<asrwt>0</asrwt>
<pdfrwt beam="1">  1        2 0.26774599E-01 0.80214771E+02</pdfrwt>
<pdfrwt beam="2">  1       -1 0.14219981E-02 0.80214771E+02</pdfrwt>
<totfact> 0.20885052E+05</totfact>
</mgrwt>
</event>
<event>
 8    1  0.1493610E-013  0.8085400E+02  0.7818608E-02  0.1326645E+00
          2   -1    0    0  501    0  0.00000000000E+00  0.00000000000E+00  0.48087829673E+02  0.48087829741E+02  0.25500000000E-02 0. -1.
         -1   -1    0    0    0  501 -0.00000000000E+00 -0.00000000000E+00 -0.33986605776E+02  0.33986606149E+02  0.50400000000E-02 0.  1.
         24    2    1    2    0    0 -0.35527136788E-14  0.00000000000E+00  0.14101223897E+02  0.82074435890E+02  0.80853995023E+02 0.  0.
         66    2    3    3    0    0 -0.17478084465E+02  0.35928700436E+02  0.96585346688E+00  0.40016094601E+02  0.20000006486E+01 0.  0.
        -13    1    3    3    0    0  0.17478084465E+02 -0.35928700436E+02  0.13135370430E+02  0.42058341289E+02  0.10566000000E+00 0.  1.
         13    1    4    4    0    0 -0.46692717706E+01  0.11132651640E+02  0.68008070531E+00  0.12091803224E+02  0.10566000000E+00 0.  1.
        -13    1    4    4    0    0 -0.36331792801E+01  0.62225291708E+01  0.11288867188E+00  0.72072025676E+01  0.10566000000E+00 0. -1.
         14    1    4    4    0    0 -0.91756334142E+01  0.18573519626E+02  0.17288408969E+00  0.20717088810E+02  0.00000000000E+00 0. -1.
<mgrwt>
<rscale>  0 0.80853995E+02</rscale>
<asrwt>0</asrwt>
<pdfrwt beam="1">  1        2 0.73981277E-02 0.80853995E+02</pdfrwt>
<pdfrwt beam="2">  1       -1 0.52287086E-02 0.80853995E+02</pdfrwt>
<totfact> 0.14391689E+05</totfact>
</mgrwt>
</event>
<event>
 8    1  0.1493610E-013  0.7588704E+02  0.7818608E-02  0.1341146E+00
          2   -1    0    0  501    0  0.00000000000E+00  0.00000000000E+00  0.14814534174E+04  0.14814534174E+04  0.25500000000E-02 0. -1.
         -1   -1    0    0    0  501 -0.00000000000E+00 -0.00000000000E+00 -0.97181649005E+00  0.97182955909E+00  0.50400000000E-02 0.  1.
         24    2    1    2    0    0  0.00000000000E+00  0.11102230246E-15  0.14804816009E+04  0.14824252469E+04  0.75887035752E+02 0.  0.
         66    2    3    3    0    0  0.20781032331E+02 -0.54514805517E+00  0.13602068613E+04  0.13603671762E+04  0.19999998120E+01 0.  0.
        -13    1    3    3    0    0 -0.20781032331E+02  0.54514805517E+00  0.12027473952E+03  0.12205807069E+03  0.10566000000E+00 0.  1.
         13    1    4    4    0    0  0.10740439629E+02  0.50350413649E+00  0.69426281021E+03  0.69434607464E+03  0.10566000000E+00 0. -1.
        -13    1    4    4    0    0  0.47973752917E+01 -0.66472438716E+00  0.34457972706E+03  0.34461377821E+03  0.10566000000E+00 0.  1.
         14    1    4    4    0    0  0.52432174096E+01 -0.38392780450E+00  0.32136432407E+03  0.32140732337E+03  0.00000000000E+00 0. -1.
<mgrwt>
<rscale>  0 0.75887036E+02</rscale>
<asrwt>0</asrwt>
<pdfrwt beam="1">  1        2 0.22791557E+00 0.75887036E+02</pdfrwt>
<pdfrwt beam="2">  1       -1 0.14951146E-03 0.75887036E+02</pdfrwt>
<totfact> 0.38300826E+05</totfact>
</mgrwt>
</event>
<event>
 8    1  0.1493610E-013  0.7977065E+02  0.7818608E-02  0.1329704E+00
         -1   -1    0    0    0  501 -0.00000000000E+00  0.00000000000E+00  0.71037834987E+01  0.71037852866E+01  0.50400000000E-02 0.  1.
          2   -1    0    0  501    0  0.00000000000E+00 -0.00000000000E+00 -0.22394246869E+03  0.22394246870E+03  0.25500000000E-02 0. -1.
         24    2    1    2    0    0 -0.35527136788E-14  0.00000000000E+00 -0.21683868519E+03  0.23104625399E+03  0.79770646780E+02 0.  0.
         66    2    3    3    0    0 -0.29151272400E+02 -0.59258350878E+01 -0.18533273460E+03  0.18771556867E+03  0.20000001481E+01 0.  0.
        -13    1    3    3    0    0  0.29151272400E+02  0.59258350878E+01 -0.31505950584E+02  0.43330685320E+02  0.10566000000E+00 0.  1.
         13    1    4    4    0    0 -0.12879408288E+02 -0.25319748105E+01 -0.81676308215E+02  0.82724364863E+02  0.10566000000E+00 0. -1.
        -13    1    4    4    0    0 -0.70845333251E+01 -0.73432806980E+00 -0.44634333551E+02  0.45199167534E+02  0.10566000000E+00 0.  1.
        -14    1    4    4    0    0 -0.91873307871E+01 -0.26595322076E+01 -0.59022092837E+02  0.59792036271E+02  0.00000000000E+00 0.  1.
<mgrwt>
<rscale>  0 0.79770647E+02</rscale>
<asrwt>0</asrwt>
<pdfrwt beam="1">  1        2 0.34452682E-01 0.79770647E+02</pdfrwt>
<pdfrwt beam="2">  1       -1 0.10928901E-02 0.79770647E+02</pdfrwt>
<totfact> 0.23124968E+05</totfact>
</mgrwt>
</event>
<event>
 8    1  0.1493610E-013  0.8057709E+02  0.7818608E-02  0.1327422E+00
          2   -1    0    0  501    0  0.00000000000E+00  0.00000000000E+00  0.24419279721E+03  0.24419279722E+03  0.25500000000E-02 0. -1.
         -1   -1    0    0    0  501 -0.00000000000E+00 -0.00000000000E+00 -0.66470695207E+01  0.66470714314E+01  0.50400000000E-02 0.  1.
         24    2    1    2    0    0  0.00000000000E+00  0.00000000000E+00  0.23754572769E+03  0.25083986865E+03  0.80577087085E+02 0.  0.
         66    2    3    3    0    0 -0.35980403542E+02 -0.18053917575E+02  0.11637810548E+03  0.12316004560E+03  0.20000046717E+01 0.  0.
        -13    1    3    3    0    0  0.35980403542E+02  0.18053917575E+02  0.12116762220E+03  0.12767982305E+03  0.10566000000E+00 0.  1.
         13    1    4    4    0    0 -0.21343382194E+02 -0.10384582477E+02  0.67556312911E+02  0.71604791005E+02  0.10566000000E+00 0. -1.
        -13    1    4    4    0    0 -0.43511854889E+01 -0.19635807274E+01  0.12795572799E+02  0.13657463591E+02  0.10566000000E+00 0.  1.
         14    1    4    4    0    0 -0.10285835859E+02 -0.57057543710E+01  0.36026219772E+02  0.37897791008E+02  0.00000000000E+00 0. -1.
<mgrwt>
<rscale>  0 0.80577087E+02</rscale>
<asrwt>0</asrwt>
<pdfrwt beam="1">  1        2 0.37568124E-01 0.80577087E+02</pdfrwt>
<pdfrwt beam="2">  1       -1 0.10226262E-02 0.80577087E+02</pdfrwt>
<totfact> 0.23225118E+05</totfact>
</mgrwt>
</event>
<event>
 8    1  0.1493610E-013  0.7969554E+02  0.7818608E-02  0.1329918E+00
          2   -1    0    0  501    0  0.00000000000E+00  0.00000000000E+00  0.18544703858E+03  0.18544703860E+03  0.25500000000E-02 0. -1.
         -1   -1    0    0    0  501 -0.00000000000E+00 -0.00000000000E+00 -0.85622542856E+01  0.85622557690E+01  0.50400000000E-02 0.  1.
         24    2    1    2    0    0  0.00000000000E+00  0.00000000000E+00  0.17688478430E+03  0.19400929437E+03  0.79695541819E+02 0.  0.
         66    2    3    3    0    0  0.20063420347E+01  0.20782615243E+02  0.17104812148E+03  0.17232934276E+03  0.20000030495E+01 0.  0.
        -13    1    3    3    0    0 -0.20063420347E+01 -0.20782615243E+02  0.58366628216E+01  0.21679951606E+02  0.10566000000E+00 0.  1.
         13    1    4    4    0    0  0.27441892039E+00  0.79099738261E+01  0.67039626963E+02  0.67505301563E+02  0.10566000000E+00 0. -1.
        -13    1    4    4    0    0  0.12750513763E+01  0.11020589841E+02  0.85281496212E+02  0.86000139050E+02  0.10566000000E+00 0.  1.
        -14    1    4    4    0    0  0.45687173802E+00  0.18520515762E+01  0.18726998302E+02  0.18823902152E+02  0.00000000000E+00 0.  1.
<mgrwt>
<rscale>  0 0.79695542E+02</rscale>
<asrwt>0</asrwt>
<pdfrwt beam="1">  1        2 0.28530313E-01 0.79695542E+02</pdfrwt>
<pdfrwt beam="2">  1       -1 0.13172700E-02 0.79695542E+02</pdfrwt>
<totfact> 0.21709207E+05</totfact>
</mgrwt>
</event>
<event>
 8    1  0.1493610E-013  0.7813709E+02  0.7818608E-02  0.1334423E+00
          2   -1    0    0  501    0  0.00000000000E+00  0.00000000000E+00  0.18954620411E+03  0.18954620413E+03  0.25500000000E-02 0. -1.
         -1   -1    0    0    0  501 -0.00000000000E+00 -0.00000000000E+00 -0.80526599576E+01  0.80526615348E+01  0.50400000000E-02 0.  1.
         24    2    1    2    0    0 -0.35527136788E-14  0.00000000000E+00  0.18149354415E+03  0.19759886566E+03  0.78137091972E+02 0.  0.
         66    2    3    3    0    0 -0.25020852959E+02  0.27856332455E+02  0.11877591116E+03  0.12455414653E+03  0.20000014119E+01 0.  0.
        -13    1    3    3    0    0  0.25020852959E+02 -0.27856332455E+02  0.62717632996E+02  0.73044719134E+02  0.10566000000E+00 0.  1.
         13    1    4    4    0    0 -0.19182204018E+02  0.21957929879E+02  0.90983163486E+02  0.95540854285E+02  0.10566000000E+00 0. -1.
        -13    1    4    4    0    0 -0.56724952402E+01  0.58521345642E+01  0.27086724229E+02  0.28286506937E+02  0.10566000000E+00 0.  1.
         14    1    4    4    0    0 -0.16615370101E+00  0.46268012376E-01  0.70602344067E+00  0.72678530538E+00  0.00000000000E+00 0. -1.
<mgrwt>
<rscale>  0 0.78137092E+02</rscale>
<asrwt>0</asrwt>
<pdfrwt beam="1">  1        2 0.29160954E-01 0.78137092E+02</pdfrwt>
<pdfrwt beam="2">  1       -1 0.12388709E-02 0.78137092E+02</pdfrwt>
<totfact> 0.23041825E+05</totfact>
</mgrwt>
</event>
<event>
 8    1  0.1493610E-013  0.7935092E+02  0.7818608E-02  0.1330904E+00
          2   -1    0    0  501    0  0.00000000000E+00  0.00000000000E+00  0.72935836633E+03  0.72935836633E+03  0.25500000000E-02 0. -1.
         -1   -1    0    0    0  501 -0.00000000000E+00 -0.00000000000E+00 -0.21582531035E+01  0.21582589882E+01  0.50400000000E-02 0.  1.
         24    2    1    2    0    0 -0.17763568394E-14  0.35527136788E-14  0.72720011322E+03  0.73151662532E+03  0.79350919635E+02 0.  0.
         66    2    3    3    0    0  0.12258256348E+02 -0.24929224151E+02  0.62464230980E+03  0.62526294174E+03  0.20000164847E+01 0.  0.
        -13    1    3    3    0    0 -0.12258256348E+02  0.24929224151E+02  0.10255780343E+03  0.10625368358E+03  0.10566000000E+00 0.  1.
         13    1    4    4    0    0  0.24911323139E+01 -0.54443678119E+01  0.14973233810E+03  0.14985203075E+03  0.10566000000E+00 0. -1.
        -13    1    4    4    0    0  0.38849628902E+01 -0.70650148797E+01  0.16780182033E+03  0.16799544470E+03  0.10566000000E+00 0.  1.
        -14    1    4    4    0    0  0.58821611440E+01 -0.12419841459E+02  0.30710815137E+03  0.30741546630E+03  0.00000000000E+00 0.  1.
<mgrwt>
<rscale>  0 0.79350920E+02</rscale>
<asrwt>0</asrwt>
<pdfrwt beam="1">  1        2 0.11220906E+00 0.79350920E+02</pdfrwt>
<pdfrwt beam="2">  1       -1 0.33203915E-03 0.79350920E+02</pdfrwt>
<totfact> 0.34478902E+05</totfact>
</mgrwt>
</event>
<event>
 8    1  0.1493610E-013  0.7864391E+02  0.7818608E-02  0.1332944E+00
          2   -1    0    0  501    0  0.00000000000E+00  0.00000000000E+00  0.59188645857E+03  0.59188645858E+03  0.25500000000E-02 0. -1.
         -1   -1    0    0    0  501 -0.00000000000E+00 -0.00000000000E+00 -0.26123505037E+01  0.26123553655E+01  0.50400000000E-02 0.  1.
         24    2    1    2    0    0  0.71054273576E-14  0.00000000000E+00  0.58927410807E+03  0.59449881394E+03  0.78643914830E+02 0.  0.
         66    2    3    3    0    0  0.32764508810E+02  0.13918422141E+02  0.42063467090E+03  0.42214305847E+03  0.19999845342E+01 0.  0.
        -13    1    3    3    0    0 -0.32764508810E+02 -0.13918422141E+02  0.16863943717E+03  0.17235575547E+03  0.10566000000E+00 0.  1.
         13    1    4    4    0    0  0.18157267321E+02  0.67862579984E+01  0.23135849570E+03  0.23216912876E+03  0.10566000000E+00 0. -1.
        -13    1    4    4    0    0  0.93597219624E+01  0.48693941615E+01  0.12153458327E+03  0.12199172713E+03  0.10566000000E+00 0.  1.
        -14    1    4    4    0    0  0.52475195263E+01  0.22627699809E+01  0.67741591930E+02  0.67982202571E+02  0.00000000000E+00 0.  1.
<mgrwt>
<rscale>  0 0.78643915E+02</rscale>
<asrwt>0</asrwt>
<pdfrwt beam="1">  1        2 0.91059393E-01 0.78643915E+02</pdfrwt>
<pdfrwt beam="2">  1       -1 0.40190073E-03 0.78643915E+02</pdfrwt>
<totfact> 0.33497567E+05</totfact>
</mgrwt>
</event>
<event>
 8    1  0.1493610E-013  0.7974662E+02  0.7818608E-02  0.1329772E+00
         -1   -1    0    0    0  501 -0.00000000000E+00  0.00000000000E+00  0.10836792149E+03  0.10836792161E+03  0.50400000000E-02 0.  1.
          2   -1    0    0  501    0  0.00000000000E+00 -0.00000000000E+00 -0.14671138745E+02  0.14671138967E+02  0.25500000000E-02 0. -1.
         24    2    1    2    0    0  0.71054273576E-14  0.00000000000E+00  0.93696782748E+02  0.12303906058E+03  0.79746619555E+02 0.  0.
         66    2    3    3    0    0 -0.31372890761E+02  0.14670550884E+02  0.16471294739E+02  0.38402954215E+02  0.20000010270E+01 0.  0.
        -13    1    3    3    0    0  0.31372890761E+02 -0.14670550884E+02  0.77225488010E+02  0.84636106363E+02  0.10566000000E+00 0.  1.
         13    1    4    4    0    0 -0.20379316007E+02  0.92237564156E+01  0.11347031813E+02  0.25083071947E+02  0.10566000000E+00 0. -1.
        -13    1    4    4    0    0 -0.88206749739E+01  0.44748982920E+01  0.38021522703E+01  0.10597006542E+02  0.10566000000E+00 0.  1.
        -14    1    4    4    0    0 -0.21728997805E+01  0.97189617669E+00  0.13221106555E+01  0.27228757261E+01  0.00000000000E+00 0.  1.
<mgrwt>
<rscale>  0 0.79746620E+02</rscale>
<asrwt>0</asrwt>
<pdfrwt beam="1">  1        2 0.22570982E-02 0.79746620E+02</pdfrwt>
<pdfrwt beam="2">  1       -1 0.16671988E-01 0.79746620E+02</pdfrwt>
<totfact> 0.11740738E+05</totfact>
</mgrwt>
</event>
<event>
 8    1  0.1879241E-013  0.8000047E+02  0.7818608E-02  0.1329050E+00
          2   -1    0    0  501    0  0.00000000000E+00  0.00000000000E+00  0.50488485474E+03  0.50488485475E+03  0.25500000000E-02 0. -1.
         -1   -1    0    0    0  501 -0.00000000000E+00 -0.00000000000E+00 -0.31690746635E+01  0.31690786712E+01  0.50400000000E-02 0.  1.
         24    2    1    2    0    0 -0.17763568394E-14 -0.35527136788E-14  0.50171578008E+03  0.50805393342E+03  0.80000470520E+02 0.  0.
         66    2    3    3    0    0  0.99768075976E+01  0.28528274530E+02  0.41717955901E+03  0.41827763937E+03  0.19999999338E+01 0.  0.
        -13    1    3    3    0    0 -0.99768075976E+01 -0.28528274530E+02  0.84536221061E+02  0.89776294047E+02  0.10566000000E+00 0.  1.
         13    1    4    4    0    0  0.37543542472E+01  0.11536231156E+02  0.17448079154E+03  0.17490207999E+03  0.10566000000E+00 0. -1.
        -13    1    4    4    0    0  0.92087631886E+00  0.38863435640E+01  0.51188893305E+02  0.51344577526E+02  0.10566000000E+00 0.  1.
         14    1    4    4    0    0  0.53015770316E+01  0.13105699810E+02  0.19150987417E+03  0.19203098185E+03  0.00000000000E+00 0. -1.
<mgrwt>
<rscale>  0 0.80000471E+02</rscale>
<asrwt>0</asrwt>
<pdfrwt beam="1">  1        2 0.77674592E-01 0.80000471E+02</pdfrwt>
<pdfrwt beam="2">  1       -1 0.48755027E-03 0.80000471E+02</pdfrwt>
<totfact> 0.30545090E+05</totfact>
</mgrwt>
</event>
<event>
 8    1  0.1493610E-013  0.7958525E+02  0.7818608E-02  0.1330233E+00
         -1   -1    0    0    0  501 -0.00000000000E+00  0.00000000000E+00  0.37038940672E+01  0.37038974963E+01  0.50400000000E-02 0.  1.
          2   -1    0    0  501    0  0.00000000000E+00 -0.00000000000E+00 -0.42751010630E+03  0.42751010631E+03  0.25500000000E-02 0. -1.
         24    2    1    2    0    0  0.00000000000E+00 -0.17763568394E-14 -0.42380621223E+03  0.43121400380E+03  0.79585247059E+02 0.  0.
         66    2    3    3    0    0  0.18629240177E+02  0.12488493274E+02 -0.38997002802E+03  0.39061955122E+03  0.19999985940E+01 0.  0.
        -13    1    3    3    0    0 -0.18629240177E+02 -0.12488493274E+02 -0.33836184217E+02  0.40594452580E+02  0.10566000000E+00 0.  1.
         13    1    4    4    0    0  0.45584232975E+01  0.26184070738E+01 -0.99350200207E+02  0.99489239236E+02  0.10566000000E+00 0. -1.
        -13    1    4    4    0    0  0.97705159214E+01  0.62649499391E+01 -0.19025905776E+03  0.19061278237E+03  0.10566000000E+00 0.  1.
         14    1    4    4    0    0  0.43003009579E+01  0.36051362613E+01 -0.10036077005E+03  0.10051752962E+03  0.00000000000E+00 0. -1.
<mgrwt>
<rscale>  0 0.79585247E+02</rscale>
<asrwt>0</asrwt>
<pdfrwt beam="1">  1        2 0.65770747E-01 0.79585247E+02</pdfrwt>
<pdfrwt beam="2">  1       -1 0.56983046E-03 0.79585247E+02</pdfrwt>
<totfact> 0.29306349E+05</totfact>
</mgrwt>
</event>
<event>
 8    1  0.1493610E-013  0.8045010E+02  0.7818608E-02  0.1327779E+00
          2   -1    0    0  501    0  0.00000000000E+00  0.00000000000E+00  0.50009218483E+03  0.50009218483E+03  0.25500000000E-02 0. -1.
         -1   -1    0    0    0  501 -0.00000000000E+00 -0.00000000000E+00 -0.32355108534E+01  0.32355147788E+01  0.50400000000E-02 0.  1.
         24    2    1    2    0    0  0.00000000000E+00  0.00000000000E+00  0.49685667397E+03  0.50332769961E+03  0.80450100838E+02 0.  0.
         66    2    3    3    0    0 -0.38445388398E+02  0.73867175009E+01  0.30573019580E+03  0.30823297055E+03  0.20000065172E+01 0.  0.
        -13    1    3    3    0    0  0.38445388398E+02 -0.73867175009E+01  0.19112647817E+03  0.19509472906E+03  0.10566000000E+00 0.  1.
         13    1    4    4    0    0 -0.16608004811E+02  0.27975769146E+01  0.12536628516E+03  0.12649256452E+03  0.10566000000E+00 0. -1.
        -13    1    4    4    0    0 -0.13867058276E+02  0.31277830872E+01  0.11273288882E+03  0.11362567367E+03  0.10566000000E+00 0.  1.
         14    1    4    4    0    0 -0.79703253116E+01  0.14613574991E+01  0.67631021822E+02  0.68114732356E+02  0.00000000000E+00 0. -1.
<mgrwt>
<rscale>  0 0.80450101E+02</rscale>
<asrwt>0</asrwt>
<pdfrwt beam="1">  1        2 0.76937272E-01 0.80450101E+02</pdfrwt>
<pdfrwt beam="2">  1       -1 0.49777112E-03 0.80450101E+02</pdfrwt>
<totfact> 0.30010959E+05</totfact>
</mgrwt>
</event>
<event>
 8    1  0.1493610E-013  0.7920578E+02  0.7818608E-02  0.1331321E+00
          2   -1    0    0  501    0  0.00000000000E+00  0.00000000000E+00  0.70071727165E+03  0.70071727166E+03  0.25500000000E-02 0. -1.
         -1   -1    0    0    0  501 -0.00000000000E+00 -0.00000000000E+00 -0.22382594308E+01  0.22382651052E+01  0.50400000000E-02 0.  1.
         24    2    1    2    0    0  0.35527136788E-14  0.00000000000E+00  0.69847901222E+03  0.70295553676E+03  0.79205783569E+02 0.  0.
         66    2    3    3    0    0 -0.24263733156E+02 -0.15921464771E+02  0.58829158007E+03  0.58901036067E+03  0.20000012021E+01 0.  0.
        -13    1    3    3    0    0  0.24263733156E+02  0.15921464771E+02  0.11018743215E+03  0.11394517609E+03  0.10566000000E+00 0.  1.
         13    1    4    4    0    0 -0.22891491130E+01 -0.90053109070E+00  0.47296861206E+02  0.47360905860E+02  0.10566000000E+00 0.  1.
        -13    1    4    4    0    0 -0.97684367268E+01 -0.63562427103E+01  0.23840171794E+03  0.23868643543E+03  0.10566000000E+00 0. -1.
        -14    1    4    4    0    0 -0.12206147317E+02 -0.86646909703E+01  0.30259300093E+03  0.30296301938E+03  0.00000000000E+00 0.  1.
<mgrwt>
<rscale>  0 0.79205784E+02</rscale>
<asrwt>0</asrwt>
<pdfrwt beam="1">  1        2 0.10780268E+00 0.79205784E+02</pdfrwt>
<pdfrwt beam="2">  1       -1 0.34434796E-03 0.79205784E+02</pdfrwt>
<totfact> 0.34338254E+05</totfact>
</mgrwt>
</event>
<event>
 8    1  0.1493610E-013  0.8024094E+02  0.7818608E-02  0.1328369E+00
         -1   -1    0    0    0  501 -0.00000000000E+00  0.00000000000E+00  0.88359154126E+01  0.88359168500E+01  0.50400000000E-02 0.  1.
          2   -1    0    0  501    0  0.00000000000E+00 -0.00000000000E+00 -0.18217150261E+03  0.18217150263E+03  0.25500000000E-02 0. -1.
         24    2    1    2    0    0  0.00000000000E+00  0.00000000000E+00 -0.17333558719E+03  0.19100741948E+03  0.80240940339E+02 0.  0.
         66    2    3    3    0    0  0.34609544227E+02  0.18659681399E+02 -0.68032068891E+02  0.78602586871E+02  0.20000009408E+01 0.  0.
        -13    1    3    3    0    0 -0.34609544227E+02 -0.18659681399E+02 -0.10530351830E+03  0.11240483260E+03  0.10566000000E+00 0.  1.
         13    1    4    4    0    0  0.30684521516E+02  0.16453198955E+02 -0.59135527227E+02  0.68624116468E+02  0.10566000000E+00 0. -1.
        -13    1    4    4    0    0  0.69108054840E+00  0.33237410220E+00 -0.13235305895E+01  0.15332847501E+01  0.10566000000E+00 0.  1.
        -14    1    4    4    0    0  0.32339421631E+01  0.18741083415E+01 -0.75730110742E+01  0.84451856533E+01  0.00000000000E+00 0.  1.
<mgrwt>
<rscale>  0 0.80240940E+02</rscale>
<asrwt>0</asrwt>
<pdfrwt beam="1">  1        2 0.28026382E-01 0.80240940E+02</pdfrwt>
<pdfrwt beam="2">  1       -1 0.13593719E-02 0.80240940E+02</pdfrwt>
<totfact> 0.21192210E+05</totfact>
</mgrwt>
</event>
<event>
 8    1  0.1493610E-013  0.8203602E+02  0.7818608E-02  0.1323371E+00
          2   -1    0    0  501    0  0.00000000000E+00  0.00000000000E+00  0.85351549232E+03  0.85351549232E+03  0.25500000000E-02 0. -1.
         -1   -1    0    0    0  501 -0.00000000000E+00 -0.00000000000E+00 -0.19712286851E+01  0.19712351282E+01  0.50400000000E-02 0.  1.
         24    2    1    2    0    0  0.88817841970E-15  0.00000000000E+00  0.85154426363E+03  0.85548672745E+03  0.82036015974E+02 0.  0.
         66    2    3    3    0    0  0.68372107071E+01 -0.20768679068E+02  0.78762643683E+03  0.78793241428E+03  0.20000001586E+01 0.  0.
        -13    1    3    3    0    0 -0.68372107071E+01  0.20768679068E+02  0.63917826802E+02  0.67554313168E+02  0.10566000000E+00 0.  1.
         13    1    4    4    0    0  0.26345267914E+01 -0.73386321481E+01  0.26576157906E+03  0.26587595664E+03  0.10566000000E+00 0. -1.
        -13    1    4    4    0    0  0.22605638012E+01 -0.62561808630E+01  0.22310276185E+03  0.22320193426E+03  0.10566000000E+00 0.  1.
        -14    1    4    4    0    0  0.19421201144E+01 -0.71738660569E+01  0.29876209593E+03  0.29885452339E+03  0.00000000000E+00 0.  1.
<mgrwt>
<rscale>  0 0.82036016E+02</rscale>
<asrwt>0</asrwt>
<pdfrwt beam="1">  1        2 0.13131008E+00 0.82036016E+02</pdfrwt>
<pdfrwt beam="2">  1       -1 0.30326645E-03 0.82036016E+02</pdfrwt>
<totfact> 0.32519340E+05</totfact>
</mgrwt>
</event>
<event>
 8    1  0.1493610E-013  0.7093977E+02  0.7818608E-02  0.1356926E+00
          2   -1    0    0  501    0  0.00000000000E+00  0.00000000000E+00  0.18055644215E+02  0.18055644395E+02  0.25500000000E-02 0. -1.
         -1   -1    0    0    0  501 -0.00000000000E+00 -0.00000000000E+00 -0.69679751222E+02  0.69679751405E+02  0.50400000000E-02 0.  1.
         24    2    1    2    0    0  0.00000000000E+00 -0.17763568394E-14 -0.51624107007E+02  0.87735395800E+02  0.70939772003E+02 0.  0.
         66    2    3    3    0    0 -0.23562977527E+02 -0.10579570897E+02  0.41819417272E+01  0.26241758164E+02  0.20000011510E+01 0.  0.
        -13    1    3    3    0    0  0.23562977527E+02  0.10579570897E+02 -0.55806048734E+02  0.61493637636E+02  0.10566000000E+00 0.  1.
         13    1    4    4    0    0 -0.68398186906E+01 -0.28312836161E+01  0.66942583027E+00  0.74336116130E+01  0.10566000000E+00 0. -1.
        -13    1    4    4    0    0 -0.21473297885E+01 -0.11171516915E+01  0.89187832518E+00  0.25817947449E+01  0.10566000000E+00 0.  1.
        -14    1    4    4    0    0 -0.14575829048E+02 -0.66311355894E+01  0.26206375718E+01  0.16226351806E+02  0.00000000000E+00 0.  1.
<mgrwt>
<rscale>  0 0.70939772E+02</rscale>
<asrwt>0</asrwt>
<pdfrwt beam="1">  1        2 0.27777915E-02 0.70939772E+02</pdfrwt>
<pdfrwt beam="2">  1       -1 0.10719962E-01 0.70939772E+02</pdfrwt>
<totfact> 0.17135157E+05</totfact>
</mgrwt>
</event>
<event>
 8    1  0.1493610E-013  0.7940700E+02  0.7818608E-02  0.1330743E+00
         -1   -1    0    0    0  501 -0.00000000000E+00  0.00000000000E+00  0.16503569551E+01  0.16503646508E+01  0.50400000000E-02 0.  1.
          2   -1    0    0  501    0  0.00000000000E+00 -0.00000000000E+00 -0.95516566569E+03  0.95516566569E+03  0.25500000000E-02 0. -1.
         24    2    1    2    0    0  0.00000000000E+00  0.35527136788E-14 -0.95351530874E+03  0.95681603035E+03  0.79407001781E+02 0.  0.
         66    2    3    3    0    0 -0.18048536348E+02 -0.16518500536E+02 -0.85345046963E+03  0.85380344027E+03  0.19999961102E+01 0.  0.
        -13    1    3    3    0    0  0.18048536348E+02  0.16518500536E+02 -0.10006483910E+03  0.10301259007E+03  0.10566000000E+00 0.  1.
         13    1    4    4    0    0 -0.80215600607E+01 -0.65655743655E+01 -0.36383594235E+03  0.36398359345E+03  0.10566000000E+00 0. -1.
        -13    1    4    4    0    0 -0.61322396324E+01 -0.55649750102E+01 -0.30264155721E+03  0.30275484575E+03  0.10566000000E+00 0.  1.
        -14    1    4    4    0    0 -0.38947366548E+01 -0.43879511600E+01 -0.18697297007E+03  0.18706500107E+03  0.00000000000E+00 0.  1.
<mgrwt>
<rscale>  0 0.79407002E+02</rscale>
<asrwt>0</asrwt>
<pdfrwt beam="1">  1        2 0.14694812E+00 0.79407002E+02</pdfrwt>
<pdfrwt beam="2">  1       -1 0.25390243E-03 0.79407002E+02</pdfrwt>
<totfact> 0.35823175E+05</totfact>
</mgrwt>
</event>
<event>
 8    1  0.1493610E-013  0.8088194E+02  0.7818608E-02  0.1326567E+00
          2   -1    0    0  501    0  0.00000000000E+00  0.00000000000E+00  0.83585053862E+02  0.83585053900E+02  0.25500000000E-02 0. -1.
         -1   -1    0    0    0  501 -0.00000000000E+00 -0.00000000000E+00 -0.19566559395E+02  0.19566560044E+02  0.50400000000E-02 0.  1.
         24    2    1    2    0    0 -0.35527136788E-14  0.00000000000E+00  0.64018494466E+02  0.10315161394E+03  0.80881937574E+02 0.  0.
         66    2    3    3    0    0 -0.31793990639E+02 -0.20541308050E+02  0.50094639571E+02  0.62819392628E+02  0.19999998178E+01 0.  0.
        -13    1    3    3    0    0  0.31793990639E+02  0.20541308050E+02  0.13923854895E+02  0.40332221316E+02  0.10566000000E+00 0.  1.
         13    1    4    4    0    0 -0.22393917600E+02 -0.14371298129E+02  0.35818577927E+02  0.44620661628E+02  0.10566000000E+00 0. -1.
        -13    1    4    4    0    0 -0.82737547834E+01 -0.56426590242E+01  0.12271054998E+02  0.15839336283E+02  0.10566000000E+00 0.  1.
         14    1    4    4    0    0 -0.11263182549E+01 -0.52735089722E+00  0.20050066467E+01  0.23593947176E+01  0.00000000000E+00 0. -1.
<mgrwt>
<rscale>  0 0.80881938E+02</rscale>
<asrwt>0</asrwt>
<pdfrwt beam="1">  1        2 0.12859239E-01 0.80881938E+02</pdfrwt>
<pdfrwt beam="2">  1       -1 0.30102399E-02 0.80881938E+02</pdfrwt>
<totfact> 0.16394809E+05</totfact>
</mgrwt>
</event>
<event>
 8    1  0.1493610E-013  0.8920734E+02  0.7818608E-02  0.1304783E+00
          2   -1    0    0  501    0  0.00000000000E+00  0.00000000000E+00  0.39425334435E+02  0.39425334518E+02  0.25500000000E-02 0. -1.
         -1   -1    0    0    0  501 -0.00000000000E+00 -0.00000000000E+00 -0.50462154947E+02  0.50462155199E+02  0.50400000000E-02 0.  1.
         24    2    1    2    0    0  0.00000000000E+00 -0.71054273576E-14 -0.11036820512E+02  0.89887489716E+02  0.89207339387E+02 0.  0.
         66    2    3    3    0    0  0.11731957909E+02 -0.32542148398E+02 -0.33857680731E+02  0.48445565486E+02  0.20000029939E+01 0.  0.
        -13    1    3    3    0    0 -0.11731957909E+02  0.32542148398E+02  0.22820860219E+02  0.41441924231E+02  0.10566000000E+00 0.  1.
         13    1    4    4    0    0  0.56840319393E+01 -0.17257013372E+02 -0.16663852312E+02  0.24653759704E+02  0.10566000000E+00 0. -1.
        -13    1    4    4    0    0  0.27770036713E+01 -0.75583916566E+01 -0.85432108158E+01  0.11740470557E+02  0.10566000000E+00 0.  1.
         14    1    4    4    0    0  0.32709222982E+01 -0.77267433691E+01 -0.86506176037E+01  0.12051335225E+02  0.00000000000E+00 0. -1.
<mgrwt>
<rscale>  0 0.89207339E+02</rscale>
<asrwt>0</asrwt>
<pdfrwt beam="1">  1        2 0.60654361E-02 0.89207339E+02</pdfrwt>
<pdfrwt beam="2">  1       -1 0.77634085E-02 0.89207339E+02</pdfrwt>
<totfact> 0.10487515E+05</totfact>
</mgrwt>
</event>
<event>
 8    1  0.1493610E-013  0.8091833E+02  0.7818608E-02  0.1326465E+00
         -1   -1    0    0    0  501 -0.00000000000E+00  0.00000000000E+00  0.23842160717E+02  0.23842161249E+02  0.50400000000E-02 0.  1.
          2   -1    0    0  501    0  0.00000000000E+00 -0.00000000000E+00 -0.68657535646E+02  0.68657535694E+02  0.25500000000E-02 0. -1.
         24    2    1    2    0    0  0.71054273576E-14  0.35527136788E-14 -0.44815374930E+02  0.92499696943E+02  0.80918329842E+02 0.  0.
         66    2    3    3    0    0  0.35223163515E+02  0.18633596257E+02 -0.30262944201E+02  0.50077219863E+02  0.20000000099E+01 0.  0.
        -13    1    3    3    0    0 -0.35223163515E+02 -0.18633596257E+02 -0.14552430729E+02  0.42422477080E+02  0.10566000000E+00 0.  1.
         13    1    4    4    0    0  0.25341138386E+02  0.13716914368E+02 -0.21929617575E+02  0.36211135380E+02  0.10566000000E+00 0. -1.
        -13    1    4    4    0    0  0.30817100943E+00  0.99241461649E-01 -0.11224260869E+00  0.35858147968E+00  0.10566000000E+00 0. -1.
         14    1    4    4    0    0  0.95738541193E+01  0.48174404275E+01 -0.82210840168E+01  0.13507503003E+02  0.00000000000E+00 0. -1.
<mgrwt>
<rscale>  0 0.80918330E+02</rscale>
<asrwt>0</asrwt>
<pdfrwt beam="1">  1        2 0.10562698E-01 0.80918330E+02</pdfrwt>
<pdfrwt beam="2">  1       -1 0.36680248E-02 0.80918330E+02</pdfrwt>
<totfact> 0.15581029E+05</totfact>
</mgrwt>
</event>
<event>
 8    1  0.1493610E-013  0.8253486E+02  0.7818608E-02  0.1322008E+00
         -1   -1    0    0    0  501 -0.00000000000E+00  0.00000000000E+00  0.15541932937E+02  0.15541933754E+02  0.50400000000E-02 0.  1.
          2   -1    0    0  501    0  0.00000000000E+00 -0.00000000000E+00 -0.10957458887E+03  0.10957458890E+03  0.25500000000E-02 0. -1.
         24    2    1    2    0    0  0.35527136788E-14 -0.35527136788E-14 -0.94032655930E+02  0.12511652265E+03  0.82534864505E+02 0.  0.
         66    2    3    3    0    0  0.29014932617E+02 -0.27750042877E+02 -0.32737463938E+02  0.51842769370E+02  0.19999990976E+01 0.  0.
        -13    1    3    3    0    0 -0.29014932617E+02  0.27750042877E+02 -0.61295191991E+02  0.73273753280E+02  0.10566000000E+00 0.  1.
         13    1    4    4    0    0  0.19660413474E+02 -0.19392506272E+02 -0.22658994148E+02  0.35721734802E+02  0.10566000000E+00 0. -1.
        -13    1    4    4    0    0  0.64992520005E+01 -0.60690902410E+01 -0.66240589969E+01  0.11088888788E+02  0.10566000000E+00 0.  1.
        -14    1    4    4    0    0  0.28552671430E+01 -0.22884463644E+01 -0.34544107935E+01  0.50321457800E+01  0.00000000000E+00 0.  1.
<mgrwt>
<rscale>  0 0.82534865E+02</rscale>
<asrwt>0</asrwt>
<pdfrwt beam="1">  1        2 0.16857629E-01 0.82534865E+02</pdfrwt>
<pdfrwt beam="2">  1       -1 0.23910667E-02 0.82534865E+02</pdfrwt>
<totfact> 0.16735493E+05</totfact>
</mgrwt>
</event>
<event>
 8    1  0.1493610E-013  0.8000379E+02  0.7818608E-02  0.1329041E+00
          2   -1    0    0  501    0  0.00000000000E+00  0.00000000000E+00  0.19519904476E+02  0.19519904643E+02  0.25500000000E-02 0. -1.
         -1   -1    0    0    0  501 -0.00000000000E+00 -0.00000000000E+00 -0.81975378462E+02  0.81975378617E+02  0.50400000000E-02 0.  1.
         24    2    1    2    0    0  0.00000000000E+00  0.35527136788E-14 -0.62455473985E+02  0.10149528326E+03  0.80003789243E+02 0.  0.
         66    2    3    3    0    0 -0.65240451403E+00 -0.19822933974E+02  0.12786766151E+02  0.23682815057E+02  0.19999993564E+01 0.  0.
        -13    1    3    3    0    0  0.65240451403E+00  0.19822933974E+02 -0.75242240136E+02  0.77812468202E+02  0.10566000000E+00 0.  1.
         13    1    4    4    0    0  0.40623823850E+00 -0.14777579751E+01  0.10109732080E+01  0.18390293642E+01  0.10566000000E+00 0. -1.
        -13    1    4    4    0    0 -0.79678472690E+00 -0.65820914491E+01  0.43476517293E+01  0.79291886937E+01  0.10566000000E+00 0.  1.
         14    1    4    4    0    0 -0.26185802563E+00 -0.11763084550E+02  0.74281412135E+01  0.13914596999E+02  0.00000000000E+00 0. -1.
<mgrwt>
<rscale>  0 0.80003789E+02</rscale>
<asrwt>0</asrwt>
<pdfrwt beam="1">  1        2 0.30030623E-02 0.80003789E+02</pdfrwt>
<pdfrwt beam="2">  1       -1 0.12611597E-01 0.80003789E+02</pdfrwt>
<totfact> 0.12353020E+05</totfact>
</mgrwt>
</event>
<event>
 8    1  0.1493610E-013  0.7839158E+02  0.7818608E-02  0.1333679E+00
         -1   -1    0    0    0  501 -0.00000000000E+00  0.00000000000E+00  0.35018916645E+01  0.35018952913E+01  0.50400000000E-02 0.  1.
          2   -1    0    0  501    0  0.00000000000E+00 -0.00000000000E+00 -0.43870835065E+03  0.43870835066E+03  0.25500000000E-02 0. -1.
         24    2    1    2    0    0 -0.71054273576E-14  0.00000000000E+00 -0.43520645898E+03  0.44221024595E+03  0.78391579135E+02 0.  0.
         66    2    3    3    0    0  0.33188259966E+02  0.12933181549E+02 -0.30967394979E+03  0.31172212460E+03  0.20000002497E+01 0.  0.
        -13    1    3    3    0    0 -0.33188259966E+02 -0.12933181549E+02 -0.12553250919E+03  0.13048812135E+03  0.10566000000E+00 0.  1.
         13    1    4    4    0    0  0.64636597435E+01  0.24146695823E+01 -0.56445836232E+02  0.56866098147E+02  0.10566000000E+00 0.  1.
        -13    1    4    4    0    0  0.14456507031E+02  0.51692227068E+01 -0.13022114710E+03  0.13112310923E+03  0.10566000000E+00 0. -1.
        -14    1    4    4    0    0  0.12268093191E+02  0.53492892602E+01 -0.12300696646E+03  0.12373291722E+03  0.00000000000E+00 0.  1.
<mgrwt>
<rscale>  0 0.78391579E+02</rscale>
<asrwt>0</asrwt>
<pdfrwt beam="1">  1        2 0.67493549E-01 0.78391579E+02</pdfrwt>
<pdfrwt beam="2">  1       -1 0.53875319E-03 0.78391579E+02</pdfrwt>
<totfact> 0.30753318E+05</totfact>
</mgrwt>
</event>
<event>
 8    1  0.1493610E-013  0.8226570E+02  0.7818608E-02  0.1322742E+00
          2   -1    0    0  501    0  0.00000000000E+00  0.00000000000E+00  0.17562161467E+03  0.17562161469E+03  0.25500000000E-02 0. -1.
         -1   -1    0    0    0  501 -0.00000000000E+00 -0.00000000000E+00 -0.96338436604E+01  0.96338449788E+01  0.50400000000E-02 0.  1.
         24    2    1    2    0    0 -0.71054273576E-14  0.71054273576E-14  0.16598777101E+03  0.18525545966E+03  0.82265698877E+02 0.  0.
         66    2    3    3    0    0 -0.32327994808E+02  0.25126528107E+02  0.74779575063E+02  0.85278523152E+02  0.20000003448E+01 0.  0.
        -13    1    3    3    0    0  0.32327994808E+02 -0.25126528107E+02  0.91208195944E+02  0.99976936512E+02  0.10566000000E+00 0.  1.
         13    1    4    4    0    0 -0.68137438594E+01  0.51615566878E+01  0.14970946223E+02  0.17239755441E+02  0.10566000000E+00 0. -1.
        -13    1    4    4    0    0 -0.14268420207E+02  0.10197906426E+02  0.32881853606E+02  0.37266775703E+02  0.10566000000E+00 0.  1.
         14    1    4    4    0    0 -0.11245830742E+02  0.97670649933E+01  0.26926775234E+02  0.30771992008E+02  0.00000000000E+00 0. -1.
<mgrwt>
<rscale>  0 0.82265699E+02</rscale>
<asrwt>0</asrwt>
<pdfrwt beam="1">  1        2 0.27018708E-01 0.82265699E+02</pdfrwt>
<pdfrwt beam="2">  1       -1 0.14821300E-02 0.82265699E+02</pdfrwt>
<totfact> 0.19593401E+05</totfact>
</mgrwt>
</event>
<event>
 8    1  0.1493610E-013  0.7962642E+02  0.7818608E-02  0.1330115E+00
         -1   -1    0    0    0  501 -0.00000000000E+00  0.00000000000E+00  0.25652698398E+02  0.25652698893E+02  0.50400000000E-02 0.  1.
          2   -1    0    0  501    0  0.00000000000E+00 -0.00000000000E+00 -0.61790447432E+02  0.61790447484E+02  0.25500000000E-02 0. -1.
         24    2    1    2    0    0  0.00000000000E+00  0.00000000000E+00 -0.36137749034E+02  0.87443146377E+02  0.79626421137E+02 0.  0.
         66    2    3    3    0    0  0.21758213268E+02  0.33029477876E+02 -0.22831708618E+02  0.45712724274E+02  0.19999971844E+01 0.  0.
        -13    1    3    3    0    0 -0.21758213268E+02 -0.33029477876E+02 -0.13306040415E+02  0.41730422103E+02  0.10566000000E+00 0.  1.
         13    1    4    4    0    0  0.11022492743E+02  0.16971245339E+02 -0.11966429136E+02  0.23510106442E+02  0.10566000000E+00 0. -1.
        -13    1    4    4    0    0  0.96297969282E+01  0.14016011871E+02 -0.99755167693E+01  0.19715569393E+02  0.10566000000E+00 0.  1.
         14    1    4    4    0    0  0.11059235975E+01  0.20422206647E+01 -0.88976271299E+00  0.24870484379E+01  0.00000000000E+00 0. -1.
<mgrwt>
<rscale>  0 0.79626421E+02</rscale>
<asrwt>0</asrwt>
<pdfrwt beam="1">  1        2 0.95062227E-02 0.79626421E+02</pdfrwt>
<pdfrwt beam="2">  1       -1 0.39465691E-02 0.79626421E+02</pdfrwt>
<totfact> 0.15873409E+05</totfact>
</mgrwt>
</event>
<event>
 8    1  0.1493610E-013  0.7704401E+02  0.7818608E-02  0.1337656E+00
          2   -1    0    0  501    0  0.00000000000E+00  0.00000000000E+00  0.13289772500E+04  0.13289772500E+04  0.25500000000E-02 0. -1.
         -1   -1    0    0    0  501 -0.00000000000E+00 -0.00000000000E+00 -0.11166009827E+01  0.11166123572E+01  0.50400000000E-02 0.  1.
         24    2    1    2    0    0  0.17763568394E-14  0.00000000000E+00  0.13278606490E+04  0.13300938624E+04  0.77044010009E+02 0.  0.
         66    2    3    3    0    0  0.13390432183E+02  0.18174605679E+02  0.12027057848E+04  0.12029192927E+04  0.20000015860E+01 0.  0.
        -13    1    3    3    0    0 -0.13390432183E+02 -0.18174605679E+02  0.12515486428E+03  0.12717456972E+03  0.10566000000E+00 0.  1.
         13    1    4    4    0    0  0.14787947094E+01  0.28963192667E+01  0.16235165954E+03  0.16238426037E+03  0.10566000000E+00 0. -1.
        -13    1    4    4    0    0  0.44363752245E+00  0.90853621256E+00  0.56628122858E+02  0.56637246709E+02  0.10566000000E+00 0.  1.
         14    1    4    4    0    0  0.11467999952E+02  0.14369750200E+02  0.98372600236E+03  0.98389778558E+03  0.00000000000E+00 0. -1.
<mgrwt>
<rscale>  0 0.77044010E+02</rscale>
<asrwt>0</asrwt>
<pdfrwt beam="1">  1        2 0.20445852E+00 0.77044010E+02</pdfrwt>
<pdfrwt beam="2">  1       -1 0.17178524E-03 0.77044010E+02</pdfrwt>
<totfact> 0.37992486E+05</totfact>
</mgrwt>
</event>
<event>
 8    1  0.1493610E-013  0.8209293E+02  0.7818608E-02  0.1323215E+00
         -1   -1    0    0    0  501 -0.00000000000E+00  0.00000000000E+00  0.52747671923E+02  0.52747672163E+02  0.50400000000E-02 0.  1.
          2   -1    0    0  501    0  0.00000000000E+00 -0.00000000000E+00 -0.31940977120E+02  0.31940977221E+02  0.25500000000E-02 0. -1.
         24    2    1    2    0    0 -0.88817841970E-15 -0.35527136788E-14  0.20806694803E+02  0.84688649385E+02  0.82092927747E+02 0.  0.
         66    2    3    3    0    0 -0.45059071306E+01 -0.31903041687E+02 -0.15784280900E+02  0.35933978482E+02  0.20000045164E+01 0.  0.
        -13    1    3    3    0    0  0.45059071306E+01  0.31903041687E+02  0.36590975703E+02  0.48754670903E+02  0.10566000000E+00 0.  1.
         13    1    4    4    0    0 -0.35270697274E+01 -0.22235161240E+02 -0.11273768133E+02  0.25178396061E+02  0.10566000000E+00 0. -1.
        -13    1    4    4    0    0 -0.49097734290E+00 -0.20013889791E+01 -0.68812590865E+00  0.21751546839E+01  0.10566000000E+00 0.  1.
         14    1    4    4    0    0 -0.48786006038E+00 -0.76664914673E+01 -0.38223868586E+01  0.85804277373E+01  0.00000000000E+00 0. -1.
<mgrwt>
<rscale>  0 0.82092928E+02</rscale>
<asrwt>0</asrwt>
<pdfrwt beam="1">  1        2 0.49139965E-02 0.82092928E+02</pdfrwt>
<pdfrwt beam="2">  1       -1 0.81150264E-02 0.82092928E+02</pdfrwt>
<totfact> 0.12672865E+05</totfact>
</mgrwt>
</event>
<event>
 8    1  0.1493610E-013  0.8683439E+02  0.7818608E-02  0.1310704E+00
         -1   -1    0    0    0  501 -0.00000000000E+00  0.00000000000E+00  0.12333556708E+02  0.12333557738E+02  0.50400000000E-02 0.  1.
          2   -1    0    0  501    0  0.00000000000E+00 -0.00000000000E+00 -0.15283934044E+03  0.15283934046E+03  0.25500000000E-02 0. -1.
         24    2    1    2    0    0  0.00000000000E+00  0.00000000000E+00 -0.14050578373E+03  0.16517289820E+03  0.86834388565E+02 0.  0.
         66    2    3    3    0    0 -0.10813031829E+02  0.49682447172E+01 -0.14966832445E+03  0.15015396250E+03  0.19999994547E+01 0.  0.
        -13    1    3    3    0    0  0.10813031829E+02 -0.49682447172E+01  0.91625407220E+01  0.15018935695E+02  0.10566000000E+00 0.  1.
         13    1    4    4    0    0 -0.77841386436E+00  0.18544482994E+00 -0.10043342987E+02  0.10075724307E+02  0.10566000000E+00 0. -1.
        -13    1    4    4    0    0 -0.38637051706E+01  0.26185889218E+01 -0.51670137463E+02  0.51880627358E+02  0.10566000000E+00 0.  1.
         14    1    4    4    0    0 -0.61709127940E+01  0.21642109655E+01 -0.87954844004E+02  0.88197610839E+02  0.00000000000E+00 0. -1.
<mgrwt>
<rscale>  0 0.86834389E+02</rscale>
<asrwt>0</asrwt>
<pdfrwt beam="1">  1        2 0.23513743E-01 0.86834389E+02</pdfrwt>
<pdfrwt beam="2">  1       -1 0.18974705E-02 0.86834389E+02</pdfrwt>
<totfact> 0.16197925E+05</totfact>
</mgrwt>
</event>
<event>
 8    1  0.1493610E-013  0.7972201E+02  0.7818608E-02  0.1329842E+00
         -1   -1    0    0    0  501 -0.00000000000E+00  0.00000000000E+00  0.16217076187E+01  0.16217154504E+01  0.50400000000E-02 0.  1.
          2   -1    0    0  501    0  0.00000000000E+00 -0.00000000000E+00 -0.97976704394E+03  0.97976704395E+03  0.25500000000E-02 0. -1.
         24    2    1    2    0    0  0.00000000000E+00  0.27755575616E-16 -0.97814533633E+03  0.98138875940E+03  0.79722005101E+02 0.  0.
         66    2    3    3    0    0  0.11176649487E+02 -0.78327091089E-01 -0.96006665025E+03  0.96013379097E+03  0.19999995575E+01 0.  0.
        -13    1    3    3    0    0 -0.11176649487E+02  0.78327091089E-01 -0.18078686072E+02  0.21254968431E+02  0.10566000000E+00 0.  1.
         13    1    4    4    0    0  0.60513130814E+01 -0.83335159139E+00 -0.53903848709E+03  0.53907310691E+03  0.10566000000E+00 0.  1.
        -13    1    4    4    0    0  0.42741812976E+01  0.35244457596E+00 -0.34912813650E+03  0.34915449260E+03  0.10566000000E+00 0. -1.
         14    1    4    4    0    0  0.85115510786E+00  0.40257992434E+00 -0.71900026669E+02  0.71906191463E+02  0.00000000000E+00 0. -1.
<mgrwt>
<rscale>  0 0.79722005E+02</rscale>
<asrwt>0</asrwt>
<pdfrwt beam="1">  1        2 0.15073292E+00 0.79722005E+02</pdfrwt>
<pdfrwt beam="2">  1       -1 0.24949487E-03 0.79722005E+02</pdfrwt>
<totfact> 0.35515364E+05</totfact>
</mgrwt>
</event>
<event>
 8    1  0.1493610E-013  0.8040244E+02  0.7818608E-02  0.1327913E+00
          2   -1    0    0  501    0  0.00000000000E+00  0.00000000000E+00  0.12861424396E+04  0.12861424396E+04  0.25500000000E-02 0. -1.
         -1   -1    0    0    0  501 -0.00000000000E+00 -0.00000000000E+00 -0.12565727874E+01  0.12565828948E+01  0.50400000000E-02 0.  1.
         24    2    1    2    0    0  0.00000000000E+00 -0.17763568394E-14  0.12848858668E+04  0.12873990225E+04  0.80402440213E+02 0.  0.
         66    2    3    3    0    0  0.17254807444E+02  0.14150007486E+02  0.11777872083E+04  0.11780002798E+04  0.20000001133E+01 0.  0.
        -13    1    3    3    0    0 -0.17254807444E+02 -0.14150007486E+02  0.10709865844E+03  0.10939874266E+03  0.10566000000E+00 0.  1.
         13    1    4    4    0    0  0.89138411223E+01  0.76706695724E+01  0.60417320933E+03  0.60428765813E+03  0.10566000000E+00 0. -1.
        -13    1    4    4    0    0  0.34984144729E+01  0.19790220760E+01  0.22612150660E+03  0.22615725136E+03  0.10566000000E+00 0.  1.
        -14    1    4    4    0    0  0.48425518484E+01  0.45003158373E+01  0.34749249241E+03  0.34755537032E+03  0.00000000000E+00 0.  1.
<mgrwt>
<rscale>  0 0.80402440E+02</rscale>
<asrwt>0</asrwt>
<pdfrwt beam="1">  1        2 0.19786891E+00 0.80402440E+02</pdfrwt>
<pdfrwt beam="2">  1       -1 0.19331885E-03 0.80402440E+02</pdfrwt>
<totfact> 0.34237519E+05</totfact>
</mgrwt>
</event>
<event>
 8    1  0.1493610E-013  0.8400707E+02  0.7818608E-02  0.1318050E+00
          2   -1    0    0  501    0  0.00000000000E+00  0.00000000000E+00  0.23601881659E+03  0.23601881660E+03  0.25500000000E-02 0. -1.
         -1   -1    0    0    0  501 -0.00000000000E+00 -0.00000000000E+00 -0.74752368399E+01  0.74752385390E+01  0.50400000000E-02 0.  1.
         24    2    1    2    0    0  0.00000000000E+00  0.00000000000E+00  0.22854357975E+03  0.24349405514E+03  0.84007065446E+02 0.  0.
         66    2    3    3    0    0 -0.11209932069E+02  0.56761177135E+01  0.23043587669E+03  0.23078685871E+03  0.19999999717E+01 0.  0.
        -13    1    3    3    0    0  0.11209932069E+02 -0.56761177135E+01 -0.18922969413E+01  0.12707196427E+02  0.10566000000E+00 0.  1.
         13    1    4    4    0    0 -0.54503947145E+01  0.28301314460E+01  0.11331110427E+03  0.11347746015E+03  0.10566000000E+00 0. -1.
        -13    1    4    4    0    0 -0.50483637806E+01  0.19300860290E+01  0.93402468163E+02  0.93558769936E+02  0.10566000000E+00 0.  1.
        -14    1    4    4    0    0 -0.71117357406E+00  0.91590023852E+00  0.23722304251E+02  0.23750628625E+02  0.00000000000E+00 0.  1.
<mgrwt>
<rscale>  0 0.84007065E+02</rscale>
<asrwt>0</asrwt>
<pdfrwt beam="1">  1        2 0.36310589E-01 0.84007065E+02</pdfrwt>
<pdfrwt beam="2">  1       -1 0.11500365E-02 0.84007065E+02</pdfrwt>
<totfact> 0.20554326E+05</totfact>
</mgrwt>
</event>
<event>
 8    1  0.1493610E-013  0.7807063E+02  0.7818608E-02  0.1334618E+00
         -1   -1    0    0    0  501 -0.00000000000E+00  0.00000000000E+00  0.20012757557E+02  0.20012758192E+02  0.50400000000E-02 0.  1.
          2   -1    0    0  501    0  0.00000000000E+00 -0.00000000000E+00 -0.76139213567E+02  0.76139213609E+02  0.25500000000E-02 0. -1.
         24    2    1    2    0    0 -0.88817841970E-15  0.00000000000E+00 -0.56126456009E+02  0.96151971801E+02  0.78070625828E+02 0.  0.
         66    2    3    3    0    0  0.54880050605E+01 -0.26572547039E+02 -0.62600144140E+02  0.68256842160E+02  0.19999998918E+01 0.  0.
        -13    1    3    3    0    0 -0.54880050605E+01  0.26572547039E+02  0.64736881310E+01  0.27895129642E+02  0.10566000000E+00 0.  1.
         13    1    4    4    0    0  0.78562583849E+00 -0.33025740875E+01 -0.68475804169E+01  0.76436068164E+01  0.10566000000E+00 0. -1.
        -13    1    4    4    0    0  0.29771682276E+01 -0.12960472388E+02 -0.32752582380E+02  0.35349401576E+02  0.10566000000E+00 0.  1.
        -14    1    4    4    0    0  0.17252109944E+01 -0.10309500563E+02 -0.22999981343E+02  0.25263833767E+02  0.00000000000E+00 0.  1.
<mgrwt>
<rscale>  0 0.78070626E+02</rscale>
<asrwt>0</asrwt>
<pdfrwt beam="1">  1        2 0.11713725E-01 0.78070626E+02</pdfrwt>
<pdfrwt beam="2">  1       -1 0.30788859E-02 0.78070626E+02</pdfrwt>
<totfact> 0.17608309E+05</totfact>
</mgrwt>
</event>
<event>
 8    1  0.1493610E-013  0.7930307E+02  0.7818608E-02  0.1331041E+00
         -1   -1    0    0    0  501 -0.00000000000E+00  0.00000000000E+00  0.13905830311E+03  0.13905830320E+03  0.50400000000E-02 0.  1.
          2   -1    0    0  501    0  0.00000000000E+00 -0.00000000000E+00 -0.11306367043E+02  0.11306367330E+02  0.25500000000E-02 0. -1.
         24    2    1    2    0    0  0.00000000000E+00  0.00000000000E+00  0.12775193606E+03  0.15036467053E+03  0.79303070401E+02 0.  0.
         66    2    3    3    0    0 -0.19441219877E+02  0.11385697022E+02  0.21077640878E+01  0.22716465517E+02  0.20000022851E+01 0.  0.
        -13    1    3    3    0    0  0.19441219877E+02 -0.11385697022E+02  0.12564417198E+03  0.12764820501E+03  0.10566000000E+00 0.  1.
         13    1    4    4    0    0 -0.75333573188E+01  0.48126370769E+01  0.94603161159E+00  0.89899437135E+01  0.10566000000E+00 0. -1.
        -13    1    4    4    0    0 -0.35602474161E+01  0.18909292394E+01  0.99700344145E+00  0.41540528343E+01  0.10566000000E+00 0.  1.
         14    1    4    4    0    0 -0.83476151423E+01  0.46821307061E+01  0.16472903473E+00  0.95724689693E+01  0.00000000000E+00 0. -1.
<mgrwt>
<rscale>  0 0.79303070E+02</rscale>
<asrwt>0</asrwt>
<pdfrwt beam="1">  1        2 0.17394410E-02 0.79303070E+02</pdfrwt>
<pdfrwt beam="2">  1       -1 0.21393586E-01 0.79303070E+02</pdfrwt>
<totfact> 0.11238755E+05</totfact>
</mgrwt>
</event>
<event>
 8    1  0.1493610E-013  0.7856309E+02  0.7818608E-02  0.1333179E+00
          2   -1    0    0  501    0  0.00000000000E+00  0.00000000000E+00  0.40115299505E+03  0.40115299506E+03  0.25500000000E-02 0. -1.
         -1   -1    0    0    0  501 -0.00000000000E+00 -0.00000000000E+00 -0.38465101959E+01  0.38465134978E+01  0.50400000000E-02 0.  1.
         24    2    1    2    0    0  0.00000000000E+00 -0.35527136788E-14  0.39730648485E+03  0.40499950856E+03  0.78563089447E+02 0.  0.
         66    2    3    3    0    0  0.22190856666E+02 -0.27201230448E+02  0.28935485733E+03  0.29148340350E+03  0.19999998407E+01 0.  0.
        -13    1    3    3    0    0 -0.22190856666E+02  0.27201230448E+02  0.10795162752E+03  0.11351610505E+03  0.10566000000E+00 0.  1.
         13    1    4    4    0    0  0.12266533519E+02 -0.15946900762E+02  0.16858909601E+03  0.16978535257E+03  0.10566000000E+00 0. -1.
        -13    1    4    4    0    0  0.75692235142E+01 -0.90589789630E+01  0.93046772712E+02  0.93792703984E+02  0.10566000000E+00 0.  1.
         14    1    4    4    0    0  0.23550996331E+01 -0.21953507229E+01  0.27718988605E+02  0.27905346949E+02  0.00000000000E+00 0. -1.
<mgrwt>
<rscale>  0 0.78563089E+02</rscale>
<asrwt>0</asrwt>
<pdfrwt beam="1">  1        2 0.61715829E-01 0.78563089E+02</pdfrwt>
<pdfrwt beam="2">  1       -1 0.59177122E-03 0.78563089E+02</pdfrwt>
<totfact> 0.29651968E+05</totfact>
</mgrwt>
</event>
<event>
 8    1  0.1493610E-013  0.7930967E+02  0.7818608E-02  0.1331022E+00
         -1   -1    0    0    0  501 -0.00000000000E+00  0.00000000000E+00  0.25005420334E+03  0.25005420339E+03  0.50400000000E-02 0.  1.
          2   -1    0    0  501    0  0.00000000000E+00 -0.00000000000E+00 -0.62886605070E+01  0.62886610240E+01  0.25500000000E-02 0. -1.
         24    2    1    2    0    0  0.35527136788E-14  0.00000000000E+00  0.24376554284E+03  0.25634286442E+03  0.79309673205E+02 0.  0.
         66    2    3    3    0    0  0.23771421265E+02 -0.22928536191E+02  0.51168544238E+02  0.60934539944E+02  0.19999994736E+01 0.  0.
        -13    1    3    3    0    0 -0.23771421265E+02  0.22928536191E+02  0.19259699860E+03  0.19540832447E+03  0.10566000000E+00 0.  1.
         13    1    4    4    0    0  0.96224326264E+01 -0.88679204622E+01  0.21197628458E+02  0.24911480069E+02  0.10566000000E+00 0. -1.
        -13    1    4    4    0    0  0.28063263206E+00 -0.44504704103E+00  0.60860365079E+00  0.81140864074E+00  0.10566000000E+00 0.  1.
         14    1    4    4    0    0  0.13868356007E+02 -0.13615568687E+02  0.29362312130E+02  0.35211651234E+02  0.00000000000E+00 0. -1.
<mgrwt>
<rscale>  0 0.79309673E+02</rscale>
<asrwt>0</asrwt>
<pdfrwt beam="1">  1        2 0.96748645E-03 0.79309673E+02</pdfrwt>
<pdfrwt beam="2">  1       -1 0.38469871E-01 0.79309673E+02</pdfrwt>
<totfact> 0.94674575E+04</totfact>
</mgrwt>
</event>
<event>
 8    1  0.1493610E-013  0.7847723E+02  0.7818608E-02  0.1333429E+00
          2   -1    0    0  501    0  0.00000000000E+00  0.00000000000E+00  0.16223066632E+04  0.16223066632E+04  0.25500000000E-02 0. -1.
         -1   -1    0    0    0  501 -0.00000000000E+00 -0.00000000000E+00 -0.94905492470E+00  0.94906830718E+00  0.50400000000E-02 0.  1.
         24    2    1    2    0    0  0.00000000000E+00  0.83266726847E-16  0.16213576083E+04  0.16232557315E+04  0.78477232146E+02 0.  0.
         66    2    3    3    0    0 -0.15882965567E+02  0.23429522529E+00  0.15527742426E+04  0.15528567777E+04  0.20000000541E+01 0.  0.
        -13    1    3    3    0    0  0.15882965567E+02 -0.23429522529E+00  0.68583365656E+02  0.70398953814E+02  0.10566000000E+00 0.  1.
         13    1    4    4    0    0 -0.10612450900E+02  0.71815369262E+00  0.10063263392E+04  0.10063825575E+04  0.10566000000E+00 0. -1.
        -13    1    4    4    0    0 -0.22194587623E+01  0.14299782469E+00  0.25236442664E+03  0.25237424877E+03  0.10566000000E+00 0.  1.
         14    1    4    4    0    0 -0.30510559048E+01 -0.62685629201E+00  0.29408347676E+03  0.29409997143E+03  0.00000000000E+00 0. -1.
<mgrwt>
<rscale>  0 0.78477232E+02</rscale>
<asrwt>0</asrwt>
<pdfrwt beam="1">  1        2 0.24958612E+00 0.78477232E+02</pdfrwt>
<pdfrwt beam="2">  1       -1 0.14600920E-03 0.78477232E+02</pdfrwt>
<totfact> 0.33779845E+05</totfact>
</mgrwt>
</event>
<event>
 8    1  0.1493610E-013  0.7926739E+02  0.7818608E-02  0.1331143E+00
         -1   -1    0    0    0  501 -0.00000000000E+00  0.00000000000E+00  0.14796660568E+02  0.14796661426E+02  0.50400000000E-02 0.  1.
          2   -1    0    0  501    0  0.00000000000E+00 -0.00000000000E+00 -0.10616110606E+03  0.10616110609E+03  0.25500000000E-02 0. -1.
         24    2    1    2    0    0  0.00000000000E+00  0.00000000000E+00 -0.91364445489E+02  0.12095776751E+03  0.79267393185E+02 0.  0.
         66    2    3    3    0    0 -0.21061235290E+02  0.27256856575E+02 -0.15874661504E+02  0.37980478377E+02  0.19999994030E+01 0.  0.
        -13    1    3    3    0    0  0.21061235290E+02 -0.27256856575E+02 -0.75489783984E+02  0.82977289136E+02  0.10566000000E+00 0.  1.
         13    1    4    4    0    0 -0.87594714329E+01  0.10452008210E+02 -0.64637773468E+01  0.15091865260E+02  0.10566000000E+00 0.  1.
        -13    1    4    4    0    0 -0.36905529883E+01  0.47868969842E+01 -0.21402394658E+01  0.64129831672E+01  0.10566000000E+00 0. -1.
         14    1    4    4    0    0 -0.86112108687E+01  0.12017951381E+02 -0.72706446917E+01  0.16475629950E+02  0.00000000000E+00 0. -1.
<mgrwt>
<rscale>  0 0.79267393E+02</rscale>
<asrwt>0</asrwt>
<pdfrwt beam="1">  1        2 0.16332477E-01 0.79267393E+02</pdfrwt>
<pdfrwt beam="2">  1       -1 0.22764095E-02 0.79267393E+02</pdfrwt>
<totfact> 0.18477253E+05</totfact>
</mgrwt>
</event>
<event>
 8    1  0.1493610E-013  0.7878925E+02  0.7818608E-02  0.1332523E+00
         -1   -1    0    0    0  501 -0.00000000000E+00  0.00000000000E+00  0.58183513014E+02  0.58183513233E+02  0.50400000000E-02 0.  1.
          2   -1    0    0  501    0  0.00000000000E+00 -0.00000000000E+00 -0.26673127814E+02  0.26673127936E+02  0.25500000000E-02 0. -1.
         24    2    1    2    0    0  0.44408920985E-15  0.00000000000E+00  0.31510385200E+02  0.84856641169E+02  0.78789245300E+02 0.  0.
         66    2    3    3    0    0  0.38812541876E+01  0.38303715849E+02  0.69041824768E+01  0.39165119434E+02  0.20000156808E+01 0.  0.
        -13    1    3    3    0    0 -0.38812541876E+01 -0.38303715849E+02  0.24606202723E+02  0.45691521734E+02  0.10566000000E+00 0.  1.
         13    1    4    4    0    0  0.28016935908E+01  0.24561065766E+02  0.47757523500E+01  0.25177657022E+02  0.10566000000E+00 0. -1.
        -13    1    4    4    0    0  0.17102848452E-01  0.33592133026E+01  0.88880978828E+00  0.34764570176E+01  0.10566000000E+00 0.  1.
         14    1    4    4    0    0  0.10624577483E+01  0.10383436780E+02  0.12396203386E+01  0.10511005395E+02  0.00000000000E+00 0. -1.
<mgrwt>
<rscale>  0 0.78789245E+02</rscale>
<asrwt>0</asrwt>
<pdfrwt beam="1">  1        2 0.41035582E-02 0.78789245E+02</pdfrwt>
<pdfrwt beam="2">  1       -1 0.89513097E-02 0.78789245E+02</pdfrwt>
<totfact> 0.13724391E+05</totfact>
</mgrwt>
</event>
<event>
 8    1  0.1493610E-013  0.8122992E+02  0.7818608E-02  0.1325597E+00
         -1   -1    0    0    0  501 -0.00000000000E+00  0.00000000000E+00  0.72302898892E+01  0.72302916458E+01  0.50400000000E-02 0.  1.
          2   -1    0    0  501    0  0.00000000000E+00 -0.00000000000E+00 -0.22814782561E+03  0.22814782562E+03  0.25500000000E-02 0. -1.
         24    2    1    2    0    0 -0.17763568394E-14  0.00000000000E+00 -0.22091753572E+03  0.23537811727E+03  0.81229923678E+02 0.  0.
         66    2    3    3    0    0 -0.91522666942E+01 -0.28810210238E+02 -0.18901880291E+03  0.19143118884E+03  0.20000016504E+01 0.  0.
        -13    1    3    3    0    0  0.91522666942E+01  0.28810210238E+02 -0.31898732807E+02  0.43946928429E+02  0.10566000000E+00 0.  1.
         13    1    4    4    0    0 -0.19402046019E+01 -0.75967479074E+01 -0.45827502510E+02  0.46493506246E+02  0.10566000000E+00 0. -1.
        -13    1    4    4    0    0 -0.18076008348E+01 -0.67917367541E+01 -0.45697172939E+02  0.46234596219E+02  0.10566000000E+00 0.  1.
         14    1    4    4    0    0 -0.54044612575E+01 -0.14421725577E+02 -0.97494127464E+02  0.98703086376E+02  0.00000000000E+00 0. -1.
<mgrwt>
<rscale>  0 0.81229924E+02</rscale>
<asrwt>0</asrwt>
<pdfrwt beam="1">  1        2 0.35099660E-01 0.81229924E+02</pdfrwt>
<pdfrwt beam="2">  1       -1 0.11123526E-02 0.81229924E+02</pdfrwt>
<totfact> 0.22192238E+05</totfact>
</mgrwt>
</event>
<event>
 8    1  0.1493610E-013  0.8126734E+02  0.7818608E-02  0.1325493E+00
         -1   -1    0    0    0  501 -0.00000000000E+00  0.00000000000E+00  0.19786530604E+01  0.19786594793E+01  0.50400000000E-02 0.  1.
          2   -1    0    0  501    0  0.00000000000E+00 -0.00000000000E+00 -0.83445275705E+03  0.83445275705E+03  0.25500000000E-02 0. -1.
         24    2    1    2    0    0  0.00000000000E+00  0.00000000000E+00 -0.83247410398E+03  0.83643141653E+03  0.81267341229E+02 0.  0.
         66    2    3    3    0    0  0.10172791139E+02  0.27812278825E+01 -0.82010967341E+03  0.82017991765E+03  0.19999999481E+01 0.  0.
        -13    1    3    3    0    0 -0.10172791139E+02 -0.27812278825E+01 -0.12364430577E+02  0.16251498874E+02  0.10566000000E+00 0.  1.
         13    1    4    4    0    0  0.11064362376E+01  0.60319786554E+00 -0.10574869848E+03  0.10575625960E+03  0.10566000000E+00 0. -1.
        -13    1    4    4    0    0  0.51905580939E+01  0.20521950713E+01 -0.41223327031E+03  0.41227106825E+03  0.10566000000E+00 0.  1.
        -14    1    4    4    0    0  0.38757968078E+01  0.12583494569E+00 -0.30212770461E+03  0.30215258981E+03  0.00000000000E+00 0.  1.
<mgrwt>
<rscale>  0 0.81267341E+02</rscale>
<asrwt>0</asrwt>
<pdfrwt beam="1">  1        2 0.12837707E+00 0.81267341E+02</pdfrwt>
<pdfrwt beam="2">  1       -1 0.30440932E-03 0.81267341E+02</pdfrwt>
<totfact> 0.33216257E+05</totfact>
</mgrwt>
</event>
<event>
 8    1  0.1493610E-013  0.7687659E+02  0.7818608E-02  0.1338156E+00
         -1   -1    0    0    0  501 -0.00000000000E+00  0.00000000000E+00  0.23656614281E+03  0.23656614287E+03  0.50400000000E-02 0.  1.
          2   -1    0    0  501    0  0.00000000000E+00 -0.00000000000E+00 -0.62456213517E+01  0.62456218723E+01  0.25500000000E-02 0. -1.
         24    2    1    2    0    0  0.35527136788E-14 -0.35527136788E-14  0.23032052146E+03  0.24281176474E+03  0.76876592598E+02 0.  0.
         66    2    3    3    0    0 -0.19818748604E+02  0.30951226654E+02  0.15051341872E+03  0.15494854126E+03  0.19999993019E+01 0.  0.
        -13    1    3    3    0    0  0.19818748604E+02 -0.30951226654E+02  0.79807102743E+02  0.87863223478E+02  0.10566000000E+00 0.  1.
         13    1    4    4    0    0 -0.10725581790E+02  0.16940866501E+02  0.79662054829E+02  0.82146729735E+02  0.10566000000E+00 0. -1.
        -13    1    4    4    0    0 -0.85267902283E+01  0.12708618285E+02  0.63932201290E+02  0.65738517295E+02  0.10566000000E+00 0.  1.
        -14    1    4    4    0    0 -0.56637658538E+00  0.13017418668E+01  0.69191625974E+01  0.70632942296E+01  0.00000000000E+00 0.  1.
<mgrwt>
<rscale>  0 0.76876593E+02</rscale>
<asrwt>0</asrwt>
<pdfrwt beam="1">  1        2 0.96086491E-03 0.76876593E+02</pdfrwt>
<pdfrwt beam="2">  1       -1 0.36394790E-01 0.76876593E+02</pdfrwt>
<totfact> 0.10448841E+05</totfact>
</mgrwt>
</event>
<event>
 8    1  0.1493610E-013  0.7821620E+02  0.7818608E-02  0.1334191E+00
          2   -1    0    0  501    0  0.00000000000E+00  0.00000000000E+00  0.81034552739E+01  0.81034556751E+01  0.25500000000E-02 0. -1.
         -1   -1    0    0    0  501 -0.00000000000E+00 -0.00000000000E+00 -0.18873964985E+03  0.18873964992E+03  0.50400000000E-02 0.  1.
         24    2    1    2    0    0 -0.35527136788E-14 -0.44408920985E-15 -0.18063619458E+03  0.19684310560E+03  0.78216196714E+02 0.  0.
         66    2    3    3    0    0  0.31089155943E+02  0.18493894795E+01 -0.30956094728E+02  0.43957202667E+02  0.20000017108E+01 0.  0.
        -13    1    3    3    0    0 -0.31089155943E+02 -0.18493894795E+01 -0.14968009985E+03  0.15288590293E+03  0.10566000000E+00 0.  1.
         13    1    4    4    0    0  0.99800918073E+01  0.13747600919E+01 -0.98727582186E+01  0.14105839807E+02  0.10566000000E+00 0. -1.
        -13    1    4    4    0    0  0.15591063530E+02  0.33631024436E-01 -0.15249330695E+02  0.21809072509E+02  0.10566000000E+00 0.  1.
        -14    1    4    4    0    0  0.55180006051E+01  0.44099836324E+00 -0.58340058145E+01  0.80422903503E+01  0.00000000000E+00 0.  1.
<mgrwt>
<rscale>  0 0.78216197E+02</rscale>
<asrwt>0</asrwt>
<pdfrwt beam="1">  1        2 0.12466856E-02 0.78216197E+02</pdfrwt>
<pdfrwt beam="2">  1       -1 0.29036866E-01 0.78216197E+02</pdfrwt>
<totfact> 0.10730947E+05</totfact>
</mgrwt>
</event>
<event>
 8    1  0.1493610E-013  0.7937204E+02  0.7818608E-02  0.1330843E+00
          2   -1    0    0  501    0  0.00000000000E+00  0.00000000000E+00  0.11644240614E+03  0.11644240617E+03  0.25500000000E-02 0. -1.
         -1   -1    0    0    0  501 -0.00000000000E+00 -0.00000000000E+00 -0.13525830477E+02  0.13525831416E+02  0.50400000000E-02 0.  1.
         24    2    1    2    0    0  0.00000000000E+00  0.00000000000E+00  0.10291657566E+03  0.12996823758E+03  0.79372043152E+02 0.  0.
         66    2    3    3    0    0  0.22377620290E+02 -0.28023318076E+02  0.79226838399E+02  0.86988253153E+02  0.20000045141E+01 0.  0.
        -13    1    3    3    0    0 -0.22377620290E+02  0.28023318076E+02  0.23689737262E+02  0.42979984428E+02  0.10566000000E+00 0.  1.
         13    1    4    4    0    0  0.17625264578E+02 -0.22102783148E+02  0.64332719676E+02  0.70270142730E+02  0.10566000000E+00 0. -1.
        -13    1    4    4    0    0  0.39419470611E+01 -0.49503943694E+01  0.12355954367E+02  0.13882583455E+02  0.10566000000E+00 0.  1.
         14    1    4    4    0    0  0.81040865161E+00 -0.97014055909E+00  0.25381643562E+01  0.28355269679E+01  0.00000000000E+00 0. -1.
<mgrwt>
<rscale>  0 0.79372043E+02</rscale>
<asrwt>0</asrwt>
<pdfrwt beam="1">  1        2 0.17914217E-01 0.79372043E+02</pdfrwt>
<pdfrwt beam="2">  1       -1 0.20808970E-02 0.79372043E+02</pdfrwt>
<totfact> 0.18913428E+05</totfact>
</mgrwt>
</event>
<event>
 8    1  0.1493610E-013  0.8089281E+02  0.7818608E-02  0.1326537E+00
          2   -1    0    0  501    0  0.00000000000E+00  0.00000000000E+00  0.39538420613E+03  0.39538420614E+03  0.25500000000E-02 0. -1.
         -1   -1    0    0    0  501 -0.00000000000E+00 -0.00000000000E+00 -0.41375230064E+01  0.41375260761E+01  0.50400000000E-02 0.  1.
         24    2    1    2    0    0  0.00000000000E+00  0.00000000000E+00  0.39124668313E+03  0.39952173222E+03  0.80892814615E+02 0.  0.
         66    2    3    3    0    0 -0.25096357066E+02  0.10551177059E+02  0.34331187513E+03  0.34439540949E+03  0.20000000428E+01 0.  0.
        -13    1    3    3    0    0  0.25096357066E+02 -0.10551177059E+02  0.47934808002E+02  0.55126322728E+02  0.10566000000E+00 0.  1.
         13    1    4    4    0    0 -0.48684895698E+01  0.26724877410E+01  0.67645740853E+02  0.67873424851E+02  0.10566000000E+00 0.  1.
        -13    1    4    4    0    0 -0.17868896295E+02  0.73283968915E+01  0.24642192718E+03  0.24717762887E+03  0.10566000000E+00 0. -1.
         14    1    4    4    0    0 -0.23589712017E+01  0.55029242627E+00  0.29244207091E+02  0.29344355766E+02  0.00000000000E+00 0. -1.
<mgrwt>
<rscale>  0 0.80892815E+02</rscale>
<asrwt>0</asrwt>
<pdfrwt beam="1">  1        2 0.60828331E-01 0.80892815E+02</pdfrwt>
<pdfrwt beam="2">  1       -1 0.63654232E-03 0.80892815E+02</pdfrwt>
<totfact> 0.27334436E+05</totfact>
</mgrwt>
</event>
<event>
 8    1  0.1493610E-013  0.7437246E+02  0.7818608E-02  0.1345825E+00
         -1   -1    0    0    0  501 -0.00000000000E+00  0.00000000000E+00  0.64842665793E+02  0.64842665989E+02  0.50400000000E-02 0.  1.
          2   -1    0    0  501    0  0.00000000000E+00 -0.00000000000E+00 -0.21325706077E+02  0.21325706229E+02  0.25500000000E-02 0. -1.
         24    2    1    2    0    0  0.00000000000E+00  0.00000000000E+00  0.43516959716E+02  0.86168372218E+02  0.74372458530E+02 0.  0.
         66    2    3    3    0    0 -0.33264930256E+02 -0.80186303890E+01  0.49861043733E+01  0.34636906144E+02  0.20000030539E+01 0.  0.
        -13    1    3    3    0    0  0.33264930256E+02  0.80186303890E+01  0.38530855343E+02  0.51531466074E+02  0.10566000000E+00 0.  1.
         13    1    4    4    0    0 -0.16808392371E+02 -0.41214107560E+01  0.32399265870E+01  0.17607281705E+02  0.10566000000E+00 0. -1.
        -13    1    4    4    0    0 -0.56429890959E+01 -0.16490900689E+01  0.94978886337E+00  0.59561805642E+01  0.10566000000E+00 0.  1.
        -14    1    4    4    0    0 -0.10813548789E+02 -0.22481295641E+01  0.79638892292E+00  0.11073443876E+02  0.00000000000E+00 0.  1.
<mgrwt>
<rscale>  0 0.74372459E+02</rscale>
<asrwt>0</asrwt>
<pdfrwt beam="1">  1        2 0.32808779E-02 0.74372459E+02</pdfrwt>
<pdfrwt beam="2">  1       -1 0.99757947E-02 0.74372459E+02</pdfrwt>
<totfact> 0.15470292E+05</totfact>
</mgrwt>
</event>
<event>
 8    1  0.1493610E-013  0.7890855E+02  0.7818608E-02  0.1332178E+00
          2   -1    0    0  501    0  0.00000000000E+00  0.00000000000E+00  0.79894045610E+02  0.79894045650E+02  0.25500000000E-02 0. -1.
         -1   -1    0    0    0  501 -0.00000000000E+00 -0.00000000000E+00 -0.19483802284E+02  0.19483802935E+02  0.50400000000E-02 0.  1.
         24    2    1    2    0    0  0.00000000000E+00 -0.35527136788E-14  0.60410243326E+02  0.99377848586E+02  0.78908550176E+02 0.  0.
         66    2    3    3    0    0  0.41775135512E+01  0.30253238353E+02  0.61632051508E+02  0.68812933576E+02  0.20000009681E+01 0.  0.
        -13    1    3    3    0    0 -0.41775135512E+01 -0.30253238353E+02 -0.12218081824E+01  0.30564915010E+02  0.10566000000E+00 0.  1.
         13    1    4    4    0    0  0.70762532401E+00  0.37507735115E+01  0.68817863318E+01  0.78701450232E+01  0.10566000000E+00 0. -1.
        -13    1    4    4    0    0  0.30335996922E+01  0.19339901923E+02  0.40916860939E+02  0.45358959497E+02  0.10566000000E+00 0.  1.
        -14    1    4    4    0    0  0.43628853496E+00  0.71625629181E+01  0.13833404238E+02  0.15583829056E+02  0.00000000000E+00 0.  1.
<mgrwt>
<rscale>  0 0.78908550E+02</rscale>
<asrwt>0</asrwt>
<pdfrwt beam="1">  1        2 0.12291392E-01 0.78908550E+02</pdfrwt>
<pdfrwt beam="2">  1       -1 0.29975081E-02 0.78908550E+02</pdfrwt>
<totfact> 0.17319116E+05</totfact>
</mgrwt>
</event>
<event>
 8    1  0.1493610E-013  0.7994696E+02  0.7818608E-02  0.1329202E+00
         -1   -1    0    0    0  501 -0.00000000000E+00  0.00000000000E+00  0.58486285145E+01  0.58486306861E+01  0.50400000000E-02 0.  1.
          2   -1    0    0  501    0  0.00000000000E+00 -0.00000000000E+00 -0.27320573133E+03  0.27320573135E+03  0.25500000000E-02 0. -1.
         24    2    1    2    0    0  0.00000000000E+00  0.00000000000E+00 -0.26735710282E+03  0.27905436203E+03  0.79946960799E+02 0.  0.
         66    2    3    3    0    0 -0.51752109467E+00  0.37474042926E+02 -0.18203973975E+03  0.18586833665E+03  0.19999998696E+01 0.  0.
        -13    1    3    3    0    0  0.51752109467E+00 -0.37474042926E+02 -0.85317363072E+02  0.93186025384E+02  0.10566000000E+00 0.  1.
         13    1    4    4    0    0  0.30310262466E+00  0.38946371796E+01 -0.21455060971E+02  0.21808046113E+02  0.10566000000E+00 0. -1.
        -13    1    4    4    0    0 -0.53829939595E+00  0.20417517387E+02 -0.97037001658E+02  0.99163277666E+02  0.10566000000E+00 0.  1.
         14    1    4    4    0    0 -0.28232432338E+00  0.13161888359E+02 -0.63547677117E+02  0.64897012868E+02  0.00000000000E+00 0. -1.
<mgrwt>
<rscale>  0 0.79946961E+02</rscale>
<asrwt>0</asrwt>
<pdfrwt beam="1">  1        2 0.42031641E-01 0.79946961E+02</pdfrwt>
<pdfrwt beam="2">  1       -1 0.89978938E-03 0.79946961E+02</pdfrwt>
<totfact> 0.24687879E+05</totfact>
</mgrwt>
</event>
<event>
 8    1  0.1493610E-013  0.8434834E+02  0.7818608E-02  0.1317146E+00
         -1   -1    0    0    0  501 -0.00000000000E+00  0.00000000000E+00  0.10366224286E+01  0.10366346806E+01  0.50400000000E-02 0.  1.
          2   -1    0    0  501    0  0.00000000000E+00 -0.00000000000E+00 -0.17158128429E+04  0.17158128429E+04  0.25500000000E-02 0. -1.
         24    2    1    2    0    0  0.44408920985E-15  0.00000000000E+00 -0.17147762205E+04  0.17168494776E+04  0.84348339530E+02 0.  0.
         66    2    3    3    0    0 -0.34290390683E+01 -0.22102481328E+02 -0.15850543995E+04  0.15852134643E+04  0.20000177012E+01 0.  0.
        -13    1    3    3    0    0  0.34290390683E+01  0.22102481328E+02 -0.12972182100E+03  0.13163601330E+03  0.10566000000E+00 0.  1.
         13    1    4    4    0    0 -0.20258639701E+01 -0.14742651278E+02 -0.10742839421E+04  0.10743870110E+04  0.10566000000E+00 0. -1.
        -13    1    4    4    0    0 -0.88579604405E-01 -0.25982729072E+01 -0.15824896585E+03  0.15827035486E+03  0.10566000000E+00 0.  1.
         14    1    4    4    0    0 -0.13145954938E+01 -0.47615571428E+01 -0.35252149149E+03  0.35255609844E+03  0.00000000000E+00 0. -1.
<mgrwt>
<rscale>  0 0.84348340E+02</rscale>
<asrwt>0</asrwt>
<pdfrwt beam="1">  1        2 0.26396893E+00 0.84348340E+02</pdfrwt>
<pdfrwt beam="2">  1       -1 0.15948269E-03 0.84348340E+02</pdfrwt>
<totfact> 0.27143504E+05</totfact>
</mgrwt>
</event>
<event>
 8    1  0.1493610E-013  0.8222480E+02  0.7818608E-02  0.1322854E+00
          2   -1    0    0  501    0  0.00000000000E+00  0.00000000000E+00  0.98456083242E+03  0.98456083243E+03  0.25500000000E-02 0. -1.
         -1   -1    0    0    0  501 -0.00000000000E+00 -0.00000000000E+00 -0.17167304796E+01  0.17167378779E+01  0.50400000000E-02 0.  1.
         24    2    1    2    0    0 -0.17763568394E-14  0.00000000000E+00  0.98284410194E+03  0.98627757030E+03  0.82224795288E+02 0.  0.
         66    2    3    3    0    0  0.11806778209E+02  0.22285331802E+02  0.88079571512E+03  0.88115896851E+03  0.19999980798E+01 0.  0.
        -13    1    3    3    0    0 -0.11806778209E+02 -0.22285331802E+02  0.10204838682E+03  0.10511860179E+03  0.10566000000E+00 0.  1.
         13    1    4    4    0    0  0.21796131367E+00  0.43483766433E+00  0.12094898418E+02  0.12105136212E+02  0.10566000000E+00 0. -1.
        -13    1    4    4    0    0  0.65084167297E+01  0.11379741139E+02  0.47754478859E+03  0.47772470552E+03  0.10566000000E+00 0. -1.
         14    1    4    4    0    0  0.50804001651E+01  0.10470752999E+02  0.39115602811E+03  0.39132912678E+03  0.00000000000E+00 0. -1.
<mgrwt>
<rscale>  0 0.82224795E+02</rscale>
<asrwt>0</asrwt>
<pdfrwt beam="1">  1        2 0.15147081E+00 0.82224795E+02</pdfrwt>
<pdfrwt beam="2">  1       -1 0.26411310E-03 0.82224795E+02</pdfrwt>
<totfact> 0.32782033E+05</totfact>
</mgrwt>
</event>
<event>
 8    1  0.1493610E-013  0.7979643E+02  0.7818608E-02  0.1329630E+00
          2   -1    0    0  501    0  0.00000000000E+00  0.00000000000E+00  0.84515939308E+02  0.84515939347E+02  0.25500000000E-02 0. -1.
         -1   -1    0    0    0  501 -0.00000000000E+00 -0.00000000000E+00 -0.18835118361E+02  0.18835119036E+02  0.50400000000E-02 0.  1.
         24    2    1    2    0    0 -0.35527136788E-14  0.22204460493E-15  0.65680820947E+02  0.10335105838E+03  0.79796434936E+02 0.  0.
         66    2    3    3    0    0 -0.19981104372E+02  0.12856858001E+01  0.77520706126E+02  0.80089683423E+02  0.19999981381E+01 0.  0.
        -13    1    3    3    0    0  0.19981104372E+02 -0.12856858001E+01 -0.11839885179E+02  0.23261374959E+02  0.10566000000E+00 0.  1.
         13    1    4    4    0    0 -0.14229431493E+02  0.29582673984E+00  0.53578090667E+02  0.55436334633E+02  0.10566000000E+00 0. -1.
        -13    1    4    4    0    0 -0.72456992585E+00  0.28130699986E+00  0.38676041827E+01  0.39463478503E+01  0.10566000000E+00 0.  1.
         14    1    4    4    0    0 -0.50271029535E+01  0.70855206043E+00  0.20075011277E+02  0.20707000939E+02  0.00000000000E+00 0. -1.
<mgrwt>
<rscale>  0 0.79796435E+02</rscale>
<asrwt>0</asrwt>
<pdfrwt beam="1">  1        2 0.13002452E-01 0.79796435E+02</pdfrwt>
<pdfrwt beam="2">  1       -1 0.28977106E-02 0.79796435E+02</pdfrwt>
<totfact> 0.17051902E+05</totfact>
</mgrwt>
</event>
<event>
 8    1  0.1493610E-013  0.8029574E+02  0.7818608E-02  0.1328214E+00
          2   -1    0    0  501    0  0.00000000000E+00  0.00000000000E+00  0.42667439556E+03  0.42667439557E+03  0.25500000000E-02 0. -1.
         -1   -1    0    0    0  501 -0.00000000000E+00 -0.00000000000E+00 -0.37777064118E+01  0.37777097739E+01  0.50400000000E-02 0.  1.
         24    2    1    2    0    0  0.00000000000E+00  0.00000000000E+00  0.42289668915E+03  0.43045210534E+03  0.80295736502E+02 0.  0.
         66    2    3    3    0    0  0.36462728131E+02 -0.61641133248E+01  0.29502920289E+03  0.29734450961E+03  0.20000001463E+01 0.  0.
        -13    1    3    3    0    0 -0.36462728131E+02  0.61641133248E+01  0.12786748626E+03  0.13310759574E+03  0.10566000000E+00 0.  1.
         13    1    4    4    0    0  0.16203144747E+02 -0.29433183191E+01  0.13299393411E+03  0.13400971121E+03  0.10566000000E+00 0. -1.
        -13    1    4    4    0    0  0.95644382268E+01 -0.21508707376E+01  0.79889793261E+02  0.80489098360E+02  0.10566000000E+00 0.  1.
        -14    1    4    4    0    0  0.10695145157E+02 -0.10699242681E+01  0.82145475514E+02  0.82845700041E+02  0.00000000000E+00 0.  1.
<mgrwt>
<rscale>  0 0.80295737E+02</rscale>
<asrwt>0</asrwt>
<pdfrwt beam="1">  1        2 0.65642235E-01 0.80295737E+02</pdfrwt>
<pdfrwt beam="2">  1       -1 0.58118568E-03 0.80295737E+02</pdfrwt>
<totfact> 0.28615144E+05</totfact>
</mgrwt>
</event>
<event>
 8    1  0.1493610E-013  0.7948182E+02  0.7818608E-02  0.1330528E+00
         -1   -1    0    0    0  501 -0.00000000000E+00  0.00000000000E+00  0.51150815254E+02  0.51150815502E+02  0.50400000000E-02 0.  1.
          2   -1    0    0  501    0  0.00000000000E+00 -0.00000000000E+00 -0.30876146919E+02  0.30876147024E+02  0.25500000000E-02 0. -1.
         24    2    1    2    0    0  0.71054273576E-14 -0.17763568394E-14  0.20274668335E+02  0.82026962526E+02  0.79481824370E+02 0.  0.
         66    2    3    3    0    0 -0.33722618351E+02  0.88269101910E+01 -0.94973969506E+01  0.36184663638E+02  0.20000004547E+01 0.  0.
        -13    1    3    3    0    0  0.33722618351E+02 -0.88269101910E+01  0.29772065286E+02  0.45842298888E+02  0.10566000000E+00 0.  1.
         13    1    4    4    0    0 -0.18951756085E+02  0.53081939719E+01 -0.56284707457E+01  0.20470389076E+02  0.10566000000E+00 0. -1.
        -13    1    4    4    0    0 -0.95580703890E+01  0.28373782670E+01 -0.23966642585E+01  0.10254881208E+02  0.10566000000E+00 0.  1.
        -14    1    4    4    0    0 -0.52127918766E+01  0.68133795221E+00 -0.14722619464E+01  0.54593933539E+01  0.00000000000E+00 0.  1.
<mgrwt>
<rscale>  0 0.79481824E+02</rscale>
<asrwt>0</asrwt>
<pdfrwt beam="1">  1        2 0.47501765E-02 0.79481824E+02</pdfrwt>
<pdfrwt beam="2">  1       -1 0.78693562E-02 0.79481824E+02</pdfrwt>
<totfact> 0.13780190E+05</totfact>
</mgrwt>
</event>
<event>
 8    1  0.1493610E-013  0.7872117E+02  0.7818608E-02  0.1332720E+00
          2   -1    0    0  501    0  0.00000000000E+00  0.00000000000E+00  0.71311335900E+02  0.71311335945E+02  0.25500000000E-02 0. -1.
         -1   -1    0    0    0  501 -0.00000000000E+00 -0.00000000000E+00 -0.21725235440E+02  0.21725236024E+02  0.50400000000E-02 0.  1.
         24    2    1    2    0    0 -0.26645352591E-14  0.17763568394E-14  0.49586100460E+02  0.93036571970E+02  0.78721168468E+02 0.  0.
         66    2    3    3    0    0 -0.76398499144E+01  0.10682747585E+02  0.68629371391E+02  0.69903354847E+02  0.19999996632E+01 0.  0.
        -13    1    3    3    0    0  0.76398499144E+01 -0.10682747585E+02 -0.19043270930E+02  0.23133217123E+02  0.10566000000E+00 0.  1.
         13    1    4    4    0    0 -0.36478026859E+01  0.41914813797E+01  0.27295518523E+02  0.27855546594E+02  0.10566000000E+00 0. -1.
        -13    1    4    4    0    0 -0.34885467722E+01  0.62126469994E+01  0.38856228555E+02  0.39504235253E+02  0.10566000000E+00 0.  1.
        -14    1    4    4    0    0 -0.50350045629E+00  0.27861920630E+00  0.24776243127E+01  0.25435730000E+01  0.00000000000E+00 0.  1.
<mgrwt>
<rscale>  0 0.78721168E+02</rscale>
<asrwt>0</asrwt>
<pdfrwt beam="1">  1        2 0.10970975E-01 0.78721168E+02</pdfrwt>
<pdfrwt beam="2">  1       -1 0.33423440E-02 0.78721168E+02</pdfrwt>
<totfact> 0.16942096E+05</totfact>
</mgrwt>
</event>
<event>
 8    1  0.1493610E-013  0.8215892E+02  0.7818608E-02  0.1323034E+00
         -1   -1    0    0    0  501 -0.00000000000E+00  0.00000000000E+00  0.26734844198E+01  0.26734891704E+01  0.50400000000E-02 0.  1.
          2   -1    0    0  501    0  0.00000000000E+00 -0.00000000000E+00 -0.63120640720E+03  0.63120640721E+03  0.25500000000E-02 0. -1.
         24    2    1    2    0    0  0.00000000000E+00  0.00000000000E+00 -0.62853292278E+03  0.63387989638E+03  0.82158919239E+02 0.  0.
         66    2    3    3    0    0 -0.21372823937E+02  0.15122194280E+02 -0.55843578102E+03  0.55905277022E+03  0.19999988664E+01 0.  0.
        -13    1    3    3    0    0  0.21372823937E+02 -0.15122194280E+02 -0.70097141756E+02  0.74827126160E+02  0.10566000000E+00 0.  1.
         13    1    4    4    0    0 -0.13840611557E+02  0.96392568852E+01 -0.36802360120E+03  0.36840990758E+03  0.10566000000E+00 0. -1.
        -13    1    4    4    0    0 -0.55144037643E+01  0.34201141613E+01 -0.13113199804E+03  0.13129248990E+03  0.10566000000E+00 0.  1.
        -14    1    4    4    0    0 -0.20178086154E+01  0.20628232335E+01 -0.59280181789E+02  0.59350372738E+02  0.00000000000E+00 0.  1.
<mgrwt>
<rscale>  0 0.82158919E+02</rscale>
<asrwt>0</asrwt>
<pdfrwt beam="1">  1        2 0.97108559E-01 0.82158919E+02</pdfrwt>
<pdfrwt beam="2">  1       -1 0.41130617E-03 0.82158919E+02</pdfrwt>
<totfact> 0.30423566E+05</totfact>
</mgrwt>
</event>
<event>
 8    1  0.1493610E-013  0.8014270E+02  0.7818608E-02  0.1328647E+00
          2   -1    0    0  501    0  0.00000000000E+00  0.00000000000E+00  0.38910767665E+03  0.38910767666E+03  0.25500000000E-02 0. -1.
         -1   -1    0    0    0  501 -0.00000000000E+00 -0.00000000000E+00 -0.41266531747E+01  0.41266562524E+01  0.50400000000E-02 0.  1.
         24    2    1    2    0    0  0.00000000000E+00 -0.44408920985E-15  0.38498102347E+03  0.39323433291E+03  0.80142698630E+02 0.  0.
         66    2    3    3    0    0 -0.37752908530E+02  0.35324962290E+01  0.25581815711E+03  0.25862074577E+03  0.20000003856E+01 0.  0.
        -13    1    3    3    0    0  0.37752908530E+02 -0.35324962290E+01  0.12916286636E+03  0.13461358714E+03  0.10566000000E+00 0.  1.
         13    1    4    4    0    0 -0.27104276243E+02  0.17797465016E+01  0.18254959272E+03  0.18455940576E+03  0.10566000000E+00 0. -1.
        -13    1    4    4    0    0 -0.26709406122E+01  0.63070745924E+00  0.19598767134E+02  0.19790264093E+02  0.10566000000E+00 0.  1.
         14    1    4    4    0    0 -0.79776916745E+01  0.11220422682E+01  0.53669797261E+02  0.54271075918E+02  0.00000000000E+00 0. -1.
<mgrwt>
<rscale>  0 0.80142699E+02</rscale>
<asrwt>0</asrwt>
<pdfrwt beam="1">  1        2 0.59862737E-01 0.80142699E+02</pdfrwt>
<pdfrwt beam="2">  1       -1 0.63486978E-03 0.80142699E+02</pdfrwt>
<totfact> 0.27851284E+05</totfact>
</mgrwt>
</event>
<event>
 8    1  0.1493610E-013  0.8061235E+02  0.7818608E-02  0.1327323E+00
         -1   -1    0    0    0  501 -0.00000000000E+00  0.00000000000E+00  0.35589811984E+02  0.35589812341E+02  0.50400000000E-02 0.  1.
          2   -1    0    0  501    0  0.00000000000E+00 -0.00000000000E+00 -0.45647547811E+02  0.45647547883E+02  0.25500000000E-02 0. -1.
         24    2    1    2    0    0 -0.35527136788E-14  0.35527136788E-14 -0.10057735827E+02  0.81237360224E+02  0.80612347976E+02 0.  0.
         66    2    3    3    0    0  0.25975743390E+02  0.28228085830E+02 -0.17416198279E+02  0.42176866014E+02  0.19999975041E+01 0.  0.
        -13    1    3    3    0    0 -0.25975743390E+02 -0.28228085830E+02  0.73584624517E+01  0.39060494210E+02  0.10566000000E+00 0.  1.
         13    1    4    4    0    0  0.11113779793E+02  0.12571160497E+02 -0.77221666606E+01  0.18471415741E+02  0.10566000000E+00 0. -1.
        -13    1    4    4    0    0  0.21606633082E+01  0.16455523566E+01 -0.10819160491E+01  0.29254084950E+01  0.10566000000E+00 0.  1.
        -14    1    4    4    0    0  0.12701300289E+02  0.14011372976E+02 -0.86121155691E+01  0.20780041778E+02  0.00000000000E+00 0.  1.
<mgrwt>
<rscale>  0 0.80612348E+02</rscale>
<asrwt>0</asrwt>
<pdfrwt beam="1">  1        2 0.70226997E-02 0.80612348E+02</pdfrwt>
<pdfrwt beam="2">  1       -1 0.54753557E-02 0.80612348E+02</pdfrwt>
<totfact> 0.14349347E+05</totfact>
</mgrwt>
</event>
<event>
 8    1  0.1493610E-013  0.7491617E+02  0.7818608E-02  0.1344131E+00
          2   -1    0    0  501    0  0.00000000000E+00  0.00000000000E+00  0.29148826580E+03  0.29148826581E+03  0.25500000000E-02 0. -1.
         -1   -1    0    0    0  501 -0.00000000000E+00 -0.00000000000E+00 -0.48135997735E+01  0.48136024120E+01  0.50400000000E-02 0.  1.
         24    2    1    2    0    0  0.00000000000E+00  0.00000000000E+00  0.28667466602E+03  0.29630186822E+03  0.74916172961E+02 0.  0.
         66    2    3    3    0    0  0.16933676587E+02 -0.25186938434E+02  0.23008885296E+03  0.23209052440E+03  0.19999979847E+01 0.  0.
        -13    1    3    3    0    0 -0.16933676587E+02  0.25186938434E+02  0.56585813068E+02  0.64211343819E+02  0.10566000000E+00 0.  1.
         13    1    4    4    0    0  0.16076020319E+02 -0.23688695081E+02  0.21914732793E+03  0.22100940072E+03  0.10566000000E+00 0. -1.
        -13    1    4    4    0    0  0.67622267175E+00 -0.13130646526E+01  0.97432126728E+01  0.98550886910E+01  0.10566000000E+00 0.  1.
         14    1    4    4    0    0  0.18143359692E+00 -0.18517870027E+00  0.11983123526E+01  0.12260349896E+01  0.00000000000E+00 0. -1.
<mgrwt>
<rscale>  0 0.74916173E+02</rscale>
<asrwt>0</asrwt>
<pdfrwt beam="1">  1        2 0.44844333E-01 0.74916173E+02</pdfrwt>
<pdfrwt beam="2">  1       -1 0.74055428E-03 0.74916173E+02</pdfrwt>
<totfact> 0.29953803E+05</totfact>
</mgrwt>
</event>
<event>
 8    1  0.1493610E-013  0.7981067E+02  0.7818608E-02  0.1329590E+00
          2   -1    0    0  501    0  0.00000000000E+00  0.00000000000E+00  0.10348150965E+02  0.10348151279E+02  0.25500000000E-02 0. -1.
         -1   -1    0    0    0  501 -0.00000000000E+00 -0.00000000000E+00 -0.15388603478E+03  0.15388603486E+03  0.50400000000E-02 0.  1.
         24    2    1    2    0    0 -0.35527136788E-14 -0.35527136788E-14 -0.14353788381E+03  0.16423418614E+03  0.79810674770E+02 0.  0.
         66    2    3    3    0    0 -0.27276938606E+02 -0.29081381263E+02 -0.70125886971E+02  0.80693234742E+02  0.19999984404E+01 0.  0.
        -13    1    3    3    0    0  0.27276938606E+02  0.29081381263E+02 -0.73411996841E+02  0.83540951396E+02  0.10566000000E+00 0.  1.
         13    1    4    4    0    0 -0.48173653402E+01 -0.42162111311E+01 -0.11262209688E+02  0.12954998117E+02  0.10566000000E+00 0. -1.
        -13    1    4    4    0    0 -0.20288640881E+02 -0.22061930071E+02 -0.52490728975E+02  0.60445392708E+02  0.10566000000E+00 0.  1.
        -14    1    4    4    0    0 -0.21709323851E+01 -0.28032400617E+01 -0.63729483075E+01  0.72928439168E+01  0.00000000000E+00 0.  1.
<mgrwt>
<rscale>  0 0.79810675E+02</rscale>
<asrwt>0</asrwt>
<pdfrwt beam="1">  1        2 0.15920234E-02 0.79810675E+02</pdfrwt>
<pdfrwt beam="2">  1       -1 0.23674773E-01 0.79810675E+02</pdfrwt>
<totfact> 0.10781097E+05</totfact>
</mgrwt>
</event>
<event>
 8    1  0.1493610E-013  0.7965496E+02  0.7818608E-02  0.1330033E+00
          2   -1    0    0  501    0  0.00000000000E+00  0.00000000000E+00  0.73748380657E+03  0.73748380657E+03  0.25500000000E-02 0. -1.
         -1   -1    0    0    0  501 -0.00000000000E+00 -0.00000000000E+00 -0.21508621252E+01  0.21508680302E+01  0.50400000000E-02 0.  1.
         24    2    1    2    0    0 -0.17763568394E-14 -0.35527136788E-14  0.73533294444E+03  0.73963467460E+03  0.79654960245E+02 0.  0.
         66    2    3    3    0    0 -0.12603499671E+02 -0.24757403732E+02  0.63256576288E+03  0.63317866485E+03  0.20000002570E+01 0.  0.
        -13    1    3    3    0    0  0.12603499671E+02  0.24757403732E+02  0.10276718156E+03  0.10645600976E+03  0.10566000000E+00 0.  1.
         13    1    4    4    0    0 -0.70872556121E+01 -0.13071405643E+02  0.33140978326E+03  0.33174319351E+03  0.10566000000E+00 0. -1.
        -13    1    4    4    0    0 -0.38703484570E+01 -0.92774538466E+01  0.23760221846E+03  0.23781479376E+03  0.10566000000E+00 0.  1.
        -14    1    4    4    0    0 -0.16458956015E+01 -0.24085442422E+01  0.63553761165E+02  0.63620677581E+02  0.00000000000E+00 0.  1.
<mgrwt>
<rscale>  0 0.79654960E+02</rscale>
<asrwt>0</asrwt>
<pdfrwt beam="1">  1        2 0.11345917E+00 0.79654960E+02</pdfrwt>
<pdfrwt beam="2">  1       -1 0.33090196E-03 0.79654960E+02</pdfrwt>
<totfact> 0.34217925E+05</totfact>
</mgrwt>
</event>
<event>
 8    1  0.1493610E-013  0.7934837E+02  0.7818608E-02  0.1330911E+00
         -1   -1    0    0    0  501 -0.00000000000E+00  0.00000000000E+00  0.57848949370E+02  0.57848949590E+02  0.50400000000E-02 0.  1.
          2   -1    0    0  501    0  0.00000000000E+00 -0.00000000000E+00 -0.27209501061E+02  0.27209501181E+02  0.25500000000E-02 0. -1.
         24    2    1    2    0    0  0.00000000000E+00  0.00000000000E+00  0.30639448309E+02  0.85058450770E+02  0.79348372729E+02 0.  0.
         66    2    3    3    0    0 -0.32454570068E+02 -0.19363499420E+02  0.24751830008E+01  0.37925858729E+02  0.20000003364E+01 0.  0.
        -13    1    3    3    0    0  0.32454570068E+02  0.19363499420E+02  0.28164265308E+02  0.47132592041E+02  0.10566000000E+00 0.  1.
         13    1    4    4    0    0 -0.19726009190E+02 -0.10825179887E+02  0.13505288472E+01  0.22541851085E+02  0.10566000000E+00 0.  1.
        -13    1    4    4    0    0 -0.75229672259E+01 -0.54031182487E+01  0.52529372219E+00  0.92777055472E+01  0.10566000000E+00 0. -1.
         14    1    4    4    0    0 -0.52055936522E+01 -0.31352012849E+01  0.59936043145E+00  0.61063020966E+01  0.00000000000E+00 0. -1.
<mgrwt>
<rscale>  0 0.79348373E+02</rscale>
<asrwt>0</asrwt>
<pdfrwt beam="1">  1        2 0.41860772E-02 0.79348373E+02</pdfrwt>
<pdfrwt beam="2">  1       -1 0.88998383E-02 0.79348373E+02</pdfrwt>
<totfact> 0.13506405E+05</totfact>
</mgrwt>
</event>
<event>
 8    1  0.1493610E-013  0.7973665E+02  0.7818608E-02  0.1329800E+00
         -1   -1    0    0    0  501 -0.00000000000E+00  0.00000000000E+00  0.33853148437E+01  0.33853185954E+01  0.50400000000E-02 0.  1.
          2   -1    0    0  501    0  0.00000000000E+00 -0.00000000000E+00 -0.46952278874E+03  0.46952278875E+03  0.25500000000E-02 0. -1.
         24    2    1    2    0    0  0.00000000000E+00 -0.35527136788E-14 -0.46613747390E+03  0.47290810735E+03  0.79736650417E+02 0.  0.
         66    2    3    3    0    0 -0.35120574521E+02  0.16747030094E+02 -0.28408258670E+03  0.28674175461E+03  0.20000004900E+01 0.  0.
        -13    1    3    3    0    0  0.35120574521E+02 -0.16747030094E+02 -0.18205488720E+03  0.18616635273E+03  0.10566000000E+00 0.  1.
         13    1    4    4    0    0 -0.20542911833E+02  0.10300516987E+02 -0.16934174259E+03  0.17089396954E+03  0.10566000000E+00 0. -1.
        -13    1    4    4    0    0 -0.30546517150E+01  0.89124039999E+00 -0.23233684310E+02  0.23450809308E+02  0.10566000000E+00 0.  1.
        -14    1    4    4    0    0 -0.11523010973E+02  0.55552727075E+01 -0.91507159795E+02  0.92396975765E+02  0.00000000000E+00 0.  1.
<mgrwt>
<rscale>  0 0.79736650E+02</rscale>
<asrwt>0</asrwt>
<pdfrwt beam="1">  1        2 0.72234224E-01 0.79736650E+02</pdfrwt>
<pdfrwt beam="2">  1       -1 0.52081833E-03 0.79736650E+02</pdfrwt>
<totfact> 0.30094523E+05</totfact>
</mgrwt>
</event>
<event>
 8    1  0.1493610E-013  0.7866811E+02  0.7818608E-02  0.1332874E+00
         -1   -1    0    0    0  501 -0.00000000000E+00  0.00000000000E+00  0.35018740009E+01  0.35018776277E+01  0.50400000000E-02 0.  1.
          2   -1    0    0  501    0  0.00000000000E+00 -0.00000000000E+00 -0.44181117457E+03  0.44181117457E+03  0.25500000000E-02 0. -1.
         24    2    1    2    0    0  0.00000000000E+00  0.71054273576E-14 -0.43830930056E+03  0.44531305220E+03  0.78668109795E+02 0.  0.
         66    2    3    3    0    0  0.23974621885E+02 -0.31090577788E+02 -0.20832472193E+03  0.21200140634E+03  0.19999999985E+01 0.  0.
        -13    1    3    3    0    0 -0.23974621885E+02  0.31090577788E+02 -0.22998457863E+03  0.23331164586E+03  0.10566000000E+00 0.  1.
         13    1    4    4    0    0  0.10148402997E+02 -0.14067767032E+02 -0.90573206196E+02  0.92219352619E+02  0.10566000000E+00 0. -1.
        -13    1    4    4    0    0  0.91622467407E+01 -0.10388298614E+02 -0.74103645932E+02  0.75387167462E+02  0.10566000000E+00 0.  1.
        -14    1    4    4    0    0  0.46639721473E+01 -0.66345121429E+01 -0.43647869803E+02  0.44394886259E+02  0.00000000000E+00 0.  1.
<mgrwt>
<rscale>  0 0.78668110E+02</rscale>
<asrwt>0</asrwt>
<pdfrwt beam="1">  1        2 0.67970906E-01 0.78668110E+02</pdfrwt>
<pdfrwt beam="2">  1       -1 0.53875048E-03 0.78668110E+02</pdfrwt>
<totfact> 0.30545234E+05</totfact>
</mgrwt>
</event>
<event>
 8    1  0.1493610E-013  0.8168219E+02  0.7818608E-02  0.1324344E+00
          2   -1    0    0  501    0  0.00000000000E+00  0.00000000000E+00  0.59888412148E+02  0.59888412202E+02  0.25500000000E-02 0. -1.
         -1   -1    0    0    0  501 -0.00000000000E+00 -0.00000000000E+00 -0.27851714751E+02  0.27851715207E+02  0.50400000000E-02 0.  1.
         24    2    1    2    0    0  0.00000000000E+00  0.88817841970E-15  0.32036697397E+02  0.87740127410E+02  0.81682188865E+02 0.  0.
         66    2    3    3    0    0  0.16310993851E+02  0.45469518377E+01  0.55920771376E+02  0.58462432055E+02  0.19999997839E+01 0.  0.
        -13    1    3    3    0    0 -0.16310993851E+02 -0.45469518377E+01 -0.23884073979E+02  0.29277695355E+02  0.10566000000E+00 0.  1.
         13    1    4    4    0    0  0.36395160549E+01  0.79693256084E+00  0.12047422654E+02  0.12610818184E+02  0.10566000000E+00 0. -1.
        -13    1    4    4    0    0  0.36348749078E+01  0.15970289522E+01  0.15242049315E+02  0.15751001506E+02  0.10566000000E+00 0.  1.
        -14    1    4    4    0    0  0.90366028882E+01  0.21529903247E+01  0.28631299406E+02  0.30100612366E+02  0.00000000000E+00 0.  1.
<mgrwt>
<rscale>  0 0.81682189E+02</rscale>
<asrwt>0</asrwt>
<pdfrwt beam="1">  1        2 0.92136018E-02 0.81682189E+02</pdfrwt>
<pdfrwt beam="2">  1       -1 0.42848793E-02 0.81682189E+02</pdfrwt>
<totfact> 0.14701793E+05</totfact>
</mgrwt>
</event>
<event>
 8    1  0.1493610E-013  0.7993550E+02  0.7818608E-02  0.1329235E+00
         -1   -1    0    0    0  501 -0.00000000000E+00  0.00000000000E+00  0.10721959786E+02  0.10721960971E+02  0.50400000000E-02 0.  1.
          2   -1    0    0  501    0  0.00000000000E+00 -0.00000000000E+00 -0.14898589796E+03  0.14898589799E+03  0.25500000000E-02 0. -1.
         24    2    1    2    0    0  0.00000000000E+00  0.00000000000E+00 -0.13826393818E+03  0.15970785896E+03  0.79935496572E+02 0.  0.
         66    2    3    3    0    0  0.12100466537E+02  0.24171256073E+02 -0.12792820712E+03  0.13076810410E+03  0.19999908673E+01 0.  0.
        -13    1    3    3    0    0 -0.12100466537E+02 -0.24171256073E+02 -0.10335731061E+02  0.28939754856E+02  0.10566000000E+00 0.  1.
         13    1    4    4    0    0  0.74604865215E+00  0.16630808517E+01 -0.90784021566E+01  0.92601823018E+01  0.10566000000E+00 0. -1.
        -13    1    4    4    0    0  0.97462528445E+01  0.17784576031E+02 -0.96441573338E+02  0.98550843837E+02  0.10566000000E+00 0.  1.
        -14    1    4    4    0    0  0.16081650405E+01  0.47235991894E+01 -0.22408231623E+02  0.22957077963E+02  0.00000000000E+00 0.  1.
<mgrwt>
<rscale>  0 0.79935497E+02</rscale>
<asrwt>0</asrwt>
<pdfrwt beam="1">  1        2 0.22920906E-01 0.79935497E+02</pdfrwt>
<pdfrwt beam="2">  1       -1 0.16495325E-02 0.79935497E+02</pdfrwt>
<totfact> 0.20029150E+05</totfact>
</mgrwt>
</event>
<event>
 8    1  0.1493610E-013  0.7977232E+02  0.7818608E-02  0.1329699E+00
          2   -1    0    0  501    0  0.00000000000E+00  0.00000000000E+00  0.44334178747E+03  0.44334178747E+03  0.25500000000E-02 0. -1.
         -1   -1    0    0    0  501 -0.00000000000E+00 -0.00000000000E+00 -0.35884394058E+01  0.35884429452E+01  0.50400000000E-02 0.  1.
         24    2    1    2    0    0  0.83266726847E-16 -0.35527136788E-14  0.43975334806E+03  0.44693023042E+03  0.79772324347E+02 0.  0.
         66    2    3    3    0    0  0.34133983523E-01 -0.13345863357E+02  0.43044966615E+03  0.43066115254E+03  0.19999959814E+01 0.  0.
        -13    1    3    3    0    0 -0.34133983523E-01  0.13345863357E+02  0.93036819077E+01  0.16269077877E+02  0.10566000000E+00 0.  1.
         13    1    4    4    0    0 -0.50252448613E+00 -0.95648528290E+01  0.30084752116E+03  0.30099996859E+03  0.10566000000E+00 0. -1.
        -13    1    4    4    0    0 -0.12590128891E+00 -0.11023196234E+01  0.46050348473E+02  0.46063833082E+02  0.10566000000E+00 0.  1.
         14    1    4    4    0    0  0.66255975857E+00 -0.26786909050E+01  0.83551796518E+02  0.83597350866E+02  0.00000000000E+00 0. -1.
<mgrwt>
<rscale>  0 0.79772324E+02</rscale>
<asrwt>0</asrwt>
<pdfrwt beam="1">  1        2 0.68206435E-01 0.79772324E+02</pdfrwt>
<pdfrwt beam="2">  1       -1 0.55206783E-03 0.79772324E+02</pdfrwt>
<totfact> 0.29489687E+05</totfact>
</mgrwt>
</event>
<event>
 8    1  0.1493610E-013  0.7421483E+02  0.7818608E-02  0.1346320E+00
         -1   -1    0    0    0  501 -0.00000000000E+00  0.00000000000E+00  0.22488610409E+02  0.22488610974E+02  0.50400000000E-02 0.  1.
          2   -1    0    0  501    0  0.00000000000E+00 -0.00000000000E+00 -0.61229218747E+02  0.61229218800E+02  0.25500000000E-02 0. -1.
         24    2    1    2    0    0 -0.35527136788E-14  0.00000000000E+00 -0.38740608338E+02  0.83717829774E+02  0.74214825256E+02 0.  0.
         66    2    3    3    0    0 -0.28098157289E+02  0.27429752538E+01 -0.46502664877E+02  0.54438296956E+02  0.19999946419E+01 0.  0.
        -13    1    3    3    0    0  0.28098157289E+02 -0.27429752538E+01  0.77620565383E+01  0.29279532818E+02  0.10566000000E+00 0.  1.
         13    1    4    4    0    0 -0.21259069459E+02  0.24594647572E+01 -0.35201077401E+02  0.41196165057E+02  0.10566000000E+00 0. -1.
        -13    1    4    4    0    0 -0.47545453465E+01 -0.15976796101E+00 -0.74410170391E+01  0.88323907219E+01  0.10566000000E+00 0.  1.
         14    1    4    4    0    0 -0.20845424844E+01  0.44327845768E+00 -0.38605704363E+01  0.44097411777E+01  0.00000000000E+00 0. -1.
<mgrwt>
<rscale>  0 0.74214825E+02</rscale>
<asrwt>0</asrwt>
<pdfrwt beam="1">  1        2 0.94198798E-02 0.74214825E+02</pdfrwt>
<pdfrwt beam="2">  1       -1 0.34597863E-02 0.74214825E+02</pdfrwt>
<totfact> 0.19158864E+05</totfact>
</mgrwt>
</event>
<event>
 8    1  0.1493610E-013  0.7939466E+02  0.7818608E-02  0.1330778E+00
          2   -1    0    0  501    0  0.00000000000E+00  0.00000000000E+00  0.14525678375E+03  0.14525678377E+03  0.25500000000E-02 0. -1.
         -1   -1    0    0    0  501 -0.00000000000E+00 -0.00000000000E+00 -0.10848912085E+02  0.10848913256E+02  0.50400000000E-02 0.  1.
         24    2    1    2    0    0 -0.35527136788E-14  0.35527136788E-14  0.13440787166E+03  0.15610569703E+03  0.79394664046E+02 0.  0.
         66    2    3    3    0    0 -0.18341186235E+02  0.28620547057E+02  0.10746176100E+03  0.11272783550E+03  0.19999984012E+01 0.  0.
        -13    1    3    3    0    0  0.18341186235E+02 -0.28620547057E+02  0.26946110661E+02  0.43377861521E+02  0.10566000000E+00 0.  1.
         13    1    4    4    0    0 -0.12194715267E+02  0.19549362723E+02  0.74630052176E+02  0.78105982582E+02  0.10566000000E+00 0. -1.
        -13    1    4    4    0    0 -0.41833814467E+01  0.67527828825E+01  0.23207485691E+02  0.24529559986E+02  0.10566000000E+00 0.  1.
         14    1    4    4    0    0 -0.19630895214E+01  0.23184014515E+01  0.96242231346E+01  0.10092292936E+02  0.00000000000E+00 0. -1.
<mgrwt>
<rscale>  0 0.79394664E+02</rscale>
<asrwt>0</asrwt>
<pdfrwt beam="1">  1        2 0.22347195E-01 0.79394664E+02</pdfrwt>
<pdfrwt beam="2">  1       -1 0.16690637E-02 0.79394664E+02</pdfrwt>
<totfact> 0.20228391E+05</totfact>
</mgrwt>
</event>
<event>
 8    1  0.1493610E-013  0.8196999E+02  0.7818608E-02  0.1323552E+00
         -1   -1    0    0    0  501 -0.00000000000E+00  0.00000000000E+00  0.21952542114E+02  0.21952542692E+02  0.50400000000E-02 0.  1.
          2   -1    0    0  501    0  0.00000000000E+00 -0.00000000000E+00 -0.76518226308E+02  0.76518226350E+02  0.25500000000E-02 0. -1.
         24    2    1    2    0    0  0.71054273576E-14 -0.17763568394E-14 -0.54565684194E+02  0.98470769042E+02  0.81969985142E+02 0.  0.
         66    2    3    3    0    0 -0.38017010251E+02  0.13080227099E+02 -0.36710632205E+02  0.54479867086E+02  0.19999978680E+01 0.  0.
        -13    1    3    3    0    0  0.38017010251E+02 -0.13080227099E+02 -0.17855051989E+02  0.43990901956E+02  0.10566000000E+00 0.  1.
         13    1    4    4    0    0 -0.37253960871E+02  0.12742026196E+02 -0.35935840391E+02  0.53306778376E+02  0.10566000000E+00 0. -1.
        -13    1    4    4    0    0 -0.19147284702E+00  0.60555044671E-02 -0.16934663079E+00  0.27666014755E+00  0.10566000000E+00 0. -1.
         14    1    4    4    0    0 -0.57157653241E+00  0.33214539834E+00 -0.60544518357E+00  0.89642856288E+00  0.00000000000E+00 0. -1.
<mgrwt>
<rscale>  0 0.81969985E+02</rscale>
<asrwt>0</asrwt>
<pdfrwt beam="1">  1        2 0.11772035E-01 0.81969985E+02</pdfrwt>
<pdfrwt beam="2">  1       -1 0.33773143E-02 0.81969985E+02</pdfrwt>
<totfact> 0.15456731E+05</totfact>
</mgrwt>
</event>
<event>
 8    1  0.1493610E-013  0.8037500E+02  0.7818608E-02  0.1327991E+00
         -1   -1    0    0    0  501 -0.00000000000E+00  0.00000000000E+00  0.11428224929E+01  0.11428336064E+01  0.50400000000E-02 0.  1.
          2   -1    0    0  501    0  0.00000000000E+00 -0.00000000000E+00 -0.14131915961E+04  0.14131915961E+04  0.25500000000E-02 0. -1.
         24    2    1    2    0    0  0.44408920985E-15 -0.17763568394E-14 -0.14120487736E+04  0.14143344297E+04  0.80374996198E+02 0.  0.
         66    2    3    3    0    0  0.19316357599E+01 -0.11025039546E+02 -0.13851882792E+04  0.13852349445E+04  0.20000008514E+01 0.  0.
        -13    1    3    3    0    0 -0.19316357599E+01  0.11025039546E+02 -0.26860494394E+02  0.29099485165E+02  0.10566000000E+00 0.  1.
         13    1    4    4    0    0  0.70277469083E+00 -0.65476791124E+01 -0.78609353240E+03  0.78612112225E+03  0.10566000000E+00 0. -1.
        -13    1    4    4    0    0  0.88000674352E+00 -0.40491226756E+01 -0.48393998164E+03  0.48395773245E+03  0.10566000000E+00 0.  1.
        -14    1    4    4    0    0  0.34885432556E+00 -0.42823775842E+00 -0.11515476515E+03  0.11515608982E+03  0.00000000000E+00 0.  1.
<mgrwt>
<rscale>  0 0.80374996E+02</rscale>
<asrwt>0</asrwt>
<pdfrwt beam="1">  1        2 0.21741269E+00 0.80374996E+02</pdfrwt>
<pdfrwt beam="2">  1       -1 0.17582083E-03 0.80374996E+02</pdfrwt>
<totfact> 0.33512181E+05</totfact>
</mgrwt>
</event>
<event>
 8    1  0.1493610E-013  0.7681540E+02  0.7818608E-02  0.1338340E+00
         -1   -1    0    0    0  501 -0.00000000000E+00  0.00000000000E+00  0.15363612373E+02  0.15363613199E+02  0.50400000000E-02 0.  1.
          2   -1    0    0  501    0  0.00000000000E+00 -0.00000000000E+00 -0.96015914585E+02  0.96015914619E+02  0.25500000000E-02 0. -1.
         24    2    1    2    0    0 -0.71054273576E-14  0.35527136788E-14 -0.80652302212E+02  0.11137952782E+03  0.76815397967E+02 0.  0.
         66    2    3    3    0    0 -0.34765398465E+02  0.14443740913E+02 -0.51193463048E+02  0.63576923800E+02  0.19999997426E+01 0.  0.
        -13    1    3    3    0    0  0.34765398465E+02 -0.14443740913E+02 -0.29458839164E+02  0.47802604018E+02  0.10566000000E+00 0.  1.
         13    1    4    4    0    0 -0.66148626010E+01  0.29640385032E+01 -0.98081644981E+01  0.12196441544E+02  0.10566000000E+00 0.  1.
        -13    1    4    4    0    0 -0.57655354487E+01  0.30534714658E+01 -0.93176838062E+01  0.11375213517E+02  0.10566000000E+00 0.  1.
         14    1    4    4    0    0 -0.22385000415E+02  0.84262309437E+01 -0.32067614744E+02  0.40005268739E+02  0.00000000000E+00 0. -1.
<mgrwt>
<rscale>  0 0.76815398E+02</rscale>
<asrwt>0</asrwt>
<pdfrwt beam="1">  1        2 0.14771679E-01 0.76815398E+02</pdfrwt>
<pdfrwt beam="2">  1       -1 0.23636328E-02 0.76815398E+02</pdfrwt>
<totfact> 0.19538822E+05</totfact>
</mgrwt>
</event>
<event>
 8    1  0.1493610E-013  0.7874449E+02  0.7818608E-02  0.1332653E+00
          2   -1    0    0  501    0  0.00000000000E+00  0.00000000000E+00  0.64235225063E+03  0.64235225063E+03  0.25500000000E-02 0. -1.
         -1   -1    0    0    0  501 -0.00000000000E+00 -0.00000000000E+00 -0.24132738406E+01  0.24132791035E+01  0.50400000000E-02 0.  1.
         24    2    1    2    0    0  0.00000000000E+00  0.00000000000E+00  0.63993897679E+03  0.64476552974E+03  0.78744487583E+02 0.  0.
         66    2    3    3    0    0  0.30878388016E+02  0.79904123274E+01  0.50882947715E+03  0.50983208838E+03  0.19999987701E+01 0.  0.
        -13    1    3    3    0    0 -0.30878388016E+02 -0.79904123274E+01  0.13110949964E+03  0.13493344135E+03  0.10566000000E+00 0.  1.
         13    1    4    4    0    0  0.14132190337E+02  0.37219593166E+01  0.22393173875E+03  0.22440812500E+03  0.10566000000E+00 0. -1.
        -13    1    4    4    0    0  0.94099620296E+01  0.18689497282E+01  0.15283598108E+03  0.15313682978E+03  0.10566000000E+00 0.  1.
         14    1    4    4    0    0  0.73362356501E+01  0.23995032826E+01  0.13206175732E+03  0.13228713360E+03  0.00000000000E+00 0. -1.
<mgrwt>
<rscale>  0 0.78744488E+02</rscale>
<asrwt>0</asrwt>
<pdfrwt beam="1">  1        2 0.98823538E-01 0.78744488E+02</pdfrwt>
<pdfrwt beam="2">  1       -1 0.37127287E-03 0.78744488E+02</pdfrwt>
<totfact> 0.34132574E+05</totfact>
</mgrwt>
</event>
<event>
 8    1  0.1493610E-013  0.7609663E+02  0.7818608E-02  0.1340508E+00
          2   -1    0    0  501    0  0.00000000000E+00  0.00000000000E+00  0.12588638568E+02  0.12588638827E+02  0.25500000000E-02 0. -1.
         -1   -1    0    0    0  501 -0.00000000000E+00 -0.00000000000E+00 -0.11499848071E+03  0.11499848082E+03  0.50400000000E-02 0.  1.
         24    2    1    2    0    0  0.00000000000E+00  0.00000000000E+00 -0.10240984214E+03  0.12758711965E+03  0.76096631545E+02 0.  0.
         66    2    3    3    0    0  0.30308007502E+02  0.22834662018E+02 -0.47246981470E+02  0.60632288084E+02  0.19999980218E+01 0.  0.
        -13    1    3    3    0    0 -0.30308007502E+02 -0.22834662018E+02 -0.55162860674E+02  0.66954831565E+02  0.10566000000E+00 0.  1.
         13    1    4    4    0    0  0.26446087793E+02  0.20515942630E+02 -0.41341658901E+02  0.53192512502E+02  0.10566000000E+00 0. -1.
        -13    1    4    4    0    0  0.30257323926E+01  0.17763906849E+01 -0.48640262596E+01  0.59983777696E+01  0.10566000000E+00 0.  1.
         14    1    4    4    0    0  0.83618731635E+00  0.54232870267E+00 -0.10412963090E+01  0.14413978122E+01  0.00000000000E+00 0. -1.
<mgrwt>
<rscale>  0 0.76096632E+02</rscale>
<asrwt>0</asrwt>
<pdfrwt beam="1">  1        2 0.19367137E-02 0.76096632E+02</pdfrwt>
<pdfrwt beam="2">  1       -1 0.17692073E-01 0.76096632E+02</pdfrwt>
<totfact> 0.13029930E+05</totfact>
</mgrwt>
</event>
<event>
 8    1  0.1493610E-013  0.7709053E+02  0.7818608E-02  0.1337517E+00
         -1   -1    0    0    0  501 -0.00000000000E+00  0.00000000000E+00  0.12711754790E+02  0.12711755789E+02  0.50400000000E-02 0.  1.
          2   -1    0    0  501    0  0.00000000000E+00 -0.00000000000E+00 -0.11687902177E+03  0.11687902180E+03  0.25500000000E-02 0. -1.
         24    2    1    2    0    0  0.00000000000E+00  0.00000000000E+00 -0.10416726698E+03  0.12959077759E+03  0.77090532009E+02 0.  0.
         66    2    3    3    0    0 -0.20378616335E+02 -0.22129090355E+02 -0.92559210378E+02  0.97345734777E+02  0.20000024957E+01 0.  0.
        -13    1    3    3    0    0  0.20378616335E+02  0.22129090355E+02 -0.11608056601E+02  0.32245042809E+02  0.10566000000E+00 0.  1.
         13    1    4    4    0    0 -0.90752920590E+01 -0.98628672550E+01 -0.43694385523E+02  0.45703911941E+02  0.10566000000E+00 0. -1.
        -13    1    4    4    0    0 -0.20164123959E+01 -0.24760379827E+01 -0.10310227443E+02  0.10793916667E+02  0.10566000000E+00 0. -1.
         14    1    4    4    0    0 -0.92869118797E+01 -0.97901851170E+01 -0.38554597412E+02  0.40847906170E+02  0.00000000000E+00 0. -1.
<mgrwt>
<rscale>  0 0.77090532E+02</rscale>
<asrwt>0</asrwt>
<pdfrwt beam="1">  1        2 0.17981387E-01 0.77090532E+02</pdfrwt>
<pdfrwt beam="2">  1       -1 0.19556547E-02 0.77090532E+02</pdfrwt>
<totfact> 0.20462705E+05</totfact>
</mgrwt>
</event>
<event>
 8    1  0.1493610E-013  0.7939128E+02  0.7818608E-02  0.1330788E+00
         -1   -1    0    0    0  501 -0.00000000000E+00  0.00000000000E+00  0.12612556543E+02  0.12612557550E+02  0.50400000000E-02 0.  1.
          2   -1    0    0  501    0  0.00000000000E+00 -0.00000000000E+00 -0.12493453140E+03  0.12493453143E+03  0.25500000000E-02 0. -1.
         24    2    1    2    0    0 -0.35527136788E-14  0.00000000000E+00 -0.11232197486E+03  0.13754708898E+03  0.79391281953E+02 0.  0.
         66    2    3    3    0    0  0.20835645597E+02 -0.16712841865E+01 -0.11461157925E+03  0.11651923196E+03  0.20000000062E+01 0.  0.
        -13    1    3    3    0    0 -0.20835645597E+02  0.16712841865E+01  0.22896043965E+01  0.21027857014E+02  0.10566000000E+00 0.  1.
         13    1    4    4    0    0  0.67414994059E+01 -0.51364403626E+00 -0.35483515612E+02  0.36122052664E+02  0.10566000000E+00 0. -1.
        -13    1    4    4    0    0  0.74688667672E+01 -0.60473474918E-01 -0.38524729633E+02  0.39242242356E+02  0.10566000000E+00 0.  1.
        -14    1    4    4    0    0  0.66252794235E+01 -0.10971666753E+01 -0.40603334007E+02  0.41154936941E+02  0.00000000000E+00 0.  1.
<mgrwt>
<rscale>  0 0.79391282E+02</rscale>
<asrwt>0</asrwt>
<pdfrwt beam="1">  1        2 0.19220696E-01 0.79391282E+02</pdfrwt>
<pdfrwt beam="2">  1       -1 0.19403935E-02 0.79391282E+02</pdfrwt>
<totfact> 0.19303733E+05</totfact>
</mgrwt>
</event>
<event>
 8    1  0.1493610E-013  0.7578593E+02  0.7818608E-02  0.1341454E+00
         -1   -1    0    0    0  501 -0.00000000000E+00  0.00000000000E+00  0.84965925789E+02  0.84965925938E+02  0.50400000000E-02 0.  1.
          2   -1    0    0  501    0  0.00000000000E+00 -0.00000000000E+00 -0.16899444335E+02  0.16899444527E+02  0.25500000000E-02 0. -1.
         24    2    1    2    0    0  0.35527136788E-14 -0.17763568394E-14  0.68066481454E+02  0.10186537047E+03  0.75785934067E+02 0.  0.
         66    2    3    3    0    0 -0.18318508892E+02  0.90923054333E+01 -0.87788990288E+01  0.22345175221E+02  0.20000003382E+01 0.  0.
        -13    1    3    3    0    0  0.18318508892E+02 -0.90923054333E+01  0.76845380483E+02  0.79520195245E+02  0.10566000000E+00 0.  1.
         13    1    4    4    0    0 -0.34799504698E+01  0.17217141185E+01 -0.10387961694E+01  0.40205243806E+01  0.10566000000E+00 0. -1.
        -13    1    4    4    0    0 -0.14136665061E+02  0.67688485140E+01 -0.74592732499E+01  0.17358413830E+02  0.10566000000E+00 0.  1.
        -14    1    4    4    0    0 -0.70189336134E+00  0.60174280087E+00 -0.28082960951E+00  0.96623700957E+00  0.00000000000E+00 0.  1.
<mgrwt>
<rscale>  0 0.75785934E+02</rscale>
<asrwt>0</asrwt>
<pdfrwt beam="1">  1        2 0.25999145E-02 0.75785934E+02</pdfrwt>
<pdfrwt beam="2">  1       -1 0.13071681E-01 0.75785934E+02</pdfrwt>
<totfact> 0.14022497E+05</totfact>
</mgrwt>
</event>
<event>
 8    1  0.1493610E-013  0.7759921E+02  0.7818608E-02  0.1336006E+00
          2   -1    0    0  501    0  0.00000000000E+00  0.00000000000E+00  0.74418281728E+03  0.74418281729E+03  0.25500000000E-02 0. -1.
         -1   -1    0    0    0  501 -0.00000000000E+00 -0.00000000000E+00 -0.20228992117E+01  0.20229054902E+01  0.50400000000E-02 0.  1.
         24    2    1    2    0    0  0.17763568394E-14 -0.35527136788E-14  0.74215991807E+03  0.74620572278E+03  0.77599205630E+02 0.  0.
         66    2    3    3    0    0  0.10936887496E+02 -0.21597088765E+02  0.66257842803E+03  0.66302354637E+03  0.19999986253E+01 0.  0.
        -13    1    3    3    0    0 -0.10936887496E+02  0.21597088765E+02  0.79581490037E+02  0.83182176407E+02  0.10566000000E+00 0.  1.
         13    1    4    4    0    0  0.56146360851E+00 -0.77702988294E+00  0.30380710155E+02  0.30396015041E+02  0.10566000000E+00 0. -1.
        -13    1    4    4    0    0  0.42362504656E+01 -0.10213265748E+02  0.29459291765E+03  0.29480036450E+03  0.10566000000E+00 0.  1.
        -14    1    4    4    0    0  0.61391734215E+01 -0.10606793134E+02  0.33760480022E+03  0.33782716683E+03  0.00000000000E+00 0.  1.
<mgrwt>
<rscale>  0 0.77599206E+02</rscale>
<asrwt>0</asrwt>
<pdfrwt beam="1">  1        2 0.11448989E+00 0.77599206E+02</pdfrwt>
<pdfrwt beam="2">  1       -1 0.31121512E-03 0.77599206E+02</pdfrwt>
<totfact> 0.36687859E+05</totfact>
</mgrwt>
</event>
<event>
 8    1  0.1493610E-013  0.7993166E+02  0.7818608E-02  0.1329245E+00
          2   -1    0    0  501    0  0.00000000000E+00  0.00000000000E+00  0.11192257280E+04  0.11192257280E+04  0.25500000000E-02 0. -1.
         -1   -1    0    0    0  501 -0.00000000000E+00 -0.00000000000E+00 -0.14271138996E+01  0.14271227992E+01  0.50400000000E-02 0.  1.
         24    2    1    2    0    0  0.35527136788E-14  0.00000000000E+00  0.11177986141E+04  0.11206528508E+04  0.79931660348E+02 0.  0.
         66    2    3    3    0    0 -0.17199440078E+02  0.16003828876E+02  0.10121050427E+04  0.10123796524E+04  0.19999995392E+01 0.  0.
        -13    1    3    3    0    0  0.17199440078E+02 -0.16003828876E+02  0.10569357139E+03  0.10827319832E+03  0.10566000000E+00 0.  1.
         13    1    4    4    0    0 -0.67692627226E+01  0.71183021800E+01  0.39782016104E+03  0.39794143393E+03  0.10566000000E+00 0. -1.
        -13    1    4    4    0    0 -0.19759317816E+01  0.17389098490E+01  0.13232770927E+03  0.13235392672E+03  0.10566000000E+00 0. -1.
         14    1    4    4    0    0 -0.84542455739E+01  0.71466168468E+01  0.48195717235E+03  0.48208429178E+03  0.00000000000E+00 0. -1.
<mgrwt>
<rscale>  0 0.79931660E+02</rscale>
<asrwt>0</asrwt>
<pdfrwt beam="1">  1        2 0.17218841E+00 0.79931660E+02</pdfrwt>
<pdfrwt beam="2">  1       -1 0.21955688E-03 0.79931660E+02</pdfrwt>
<totfact> 0.35306374E+05</totfact>
</mgrwt>
</event>
<event>
 8    1  0.1493610E-013  0.8084522E+02  0.7818608E-02  0.1326670E+00
          2   -1    0    0  501    0  0.00000000000E+00  0.00000000000E+00  0.10235765441E+03  0.10235765444E+03  0.25500000000E-02 0. -1.
         -1   -1    0    0    0  501 -0.00000000000E+00 -0.00000000000E+00 -0.15963508919E+02  0.15963509714E+02  0.50400000000E-02 0.  1.
         24    2    1    2    0    0  0.00000000000E+00  0.35527136788E-14  0.86394145494E+02  0.11832116416E+03  0.80845219477E+02 0.  0.
         66    2    3    3    0    0 -0.29836482941E+02 -0.23313924706E+02  0.22617603450E+02  0.44150999816E+02  0.19999998788E+01 0.  0.
        -13    1    3    3    0    0  0.29836482941E+02  0.23313924706E+02  0.63776542045E+02  0.74170164343E+02  0.10566000000E+00 0.  1.
         13    1    4    4    0    0 -0.13186856820E+02 -0.95196365589E+01  0.10272754206E+02  0.19236873863E+02  0.10566000000E+00 0. -1.
        -13    1    4    4    0    0 -0.13521464332E+02 -0.10918968492E+02  0.10242375594E+02  0.20173529500E+02  0.10566000000E+00 0.  1.
        -14    1    4    4    0    0 -0.31281617888E+01 -0.28753196544E+01  0.21024736492E+01  0.47405964537E+01  0.00000000000E+00 0.  1.
<mgrwt>
<rscale>  0 0.80845219E+02</rscale>
<asrwt>0</asrwt>
<pdfrwt beam="1">  1        2 0.15747331E-01 0.80845219E+02</pdfrwt>
<pdfrwt beam="2">  1       -1 0.24559246E-02 0.80845219E+02</pdfrwt>
<totfact> 0.17347006E+05</totfact>
</mgrwt>
</event>
<event>
 8    1  0.1493610E-013  0.7972498E+02  0.7818608E-02  0.1329834E+00
         -1   -1    0    0    0  501 -0.00000000000E+00  0.00000000000E+00  0.31383715167E+03  0.31383715171E+03  0.50400000000E-02 0.  1.
          2   -1    0    0  501    0  0.00000000000E+00 -0.00000000000E+00 -0.50631932276E+01  0.50631938697E+01  0.25500000000E-02 0. -1.
         24    2    1    2    0    0  0.00000000000E+00  0.00000000000E+00  0.30877395844E+03  0.31890034558E+03  0.79724983530E+02 0.  0.
         66    2    3    3    0    0 -0.35889540703E+02  0.17250521145E+02  0.15917203679E+03  0.16408953931E+03  0.20000009107E+01 0.  0.
        -13    1    3    3    0    0  0.35889540703E+02 -0.17250521145E+02  0.14960192165E+03  0.15481080627E+03  0.10566000000E+00 0.  1.
         13    1    4    4    0    0 -0.18930629214E+02  0.86813672401E+01  0.82380526812E+02  0.84972332093E+02  0.10566000000E+00 0. -1.
        -13    1    4    4    0    0 -0.56524932892E+01  0.35166198032E+01  0.26803203014E+02  0.27617750652E+02  0.10566000000E+00 0.  1.
        -14    1    4    4    0    0 -0.11306418200E+02  0.50525341021E+01  0.49988306965E+02  0.51499456566E+02  0.00000000000E+00 0.  1.
<mgrwt>
<rscale>  0 0.79724984E+02</rscale>
<asrwt>0</asrwt>
<pdfrwt beam="1">  1        2 0.77895270E-03 0.79724984E+02</pdfrwt>
<pdfrwt beam="2">  1       -1 0.48282648E-01 0.79724984E+02</pdfrwt>
<totfact> 0.85591999E+04</totfact>
</mgrwt>
</event>
<event>
 8    1  0.1493610E-013  0.7997760E+02  0.7818608E-02  0.1329115E+00
         -1   -1    0    0    0  501 -0.00000000000E+00  0.00000000000E+00  0.13035197871E+03  0.13035197881E+03  0.50400000000E-02 0.  1.
          2   -1    0    0  501    0  0.00000000000E+00 -0.00000000000E+00 -0.12267585325E+02  0.12267585590E+02  0.25500000000E-02 0. -1.
         24    2    1    2    0    0  0.35527136788E-14 -0.71054273576E-14  0.11808439339E+03  0.14261956440E+03  0.79977598040E+02 0.  0.
         66    2    3    3    0    0 -0.18359466854E+02 -0.35211544994E+02  0.67088969570E+02  0.77986234467E+02  0.20000010857E+01 0.  0.
        -13    1    3    3    0    0  0.18359466854E+02  0.35211544994E+02  0.50995423819E+02  0.64633329935E+02  0.10566000000E+00 0.  1.
         13    1    4    4    0    0 -0.14169049406E+02 -0.28521982500E+02  0.53551935600E+02  0.62306391465E+02  0.10566000000E+00 0. -1.
        -13    1    4    4    0    0 -0.13227805404E+01 -0.19061372992E+01  0.35840521728E+01  0.42707963865E+01  0.10566000000E+00 0.  1.
        -14    1    4    4    0    0 -0.28676369078E+01 -0.47834251945E+01  0.99529817972E+01  0.11409046616E+02  0.00000000000E+00 0.  1.
<mgrwt>
<rscale>  0 0.79977598E+02</rscale>
<asrwt>0</asrwt>
<pdfrwt beam="1">  1        2 0.18873208E-02 0.79977598E+02</pdfrwt>
<pdfrwt beam="2">  1       -1 0.20054151E-01 0.79977598E+02</pdfrwt>
<totfact> 0.11174448E+05</totfact>
</mgrwt>
</event>
<event>
 8    1  0.1493610E-013  0.8009338E+02  0.7818608E-02  0.1328787E+00
         -1   -1    0    0    0  501 -0.00000000000E+00  0.00000000000E+00  0.12220500980E+03  0.12220500991E+03  0.50400000000E-02 0.  1.
          2   -1    0    0  501    0  0.00000000000E+00 -0.00000000000E+00 -0.13123335970E+02  0.13123336218E+02  0.25500000000E-02 0. -1.
         24    2    1    2    0    0 -0.22204460493E-15  0.71054273576E-14  0.10908167383E+03  0.13532834613E+03  0.80093381117E+02 0.  0.
         66    2    3    3    0    0  0.10051230362E+01 -0.30868499233E+02  0.11568454464E+02  0.33040939114E+02  0.20000004111E+01 0.  0.
        -13    1    3    3    0    0 -0.10051230362E+01  0.30868499233E+02  0.97513219370E+02  0.10228740701E+03  0.10566000000E+00 0.  1.
         13    1    4    4    0    0  0.56798331759E-01 -0.11114994390E+02  0.47317590856E+01  0.12080854043E+02  0.10566000000E+00 0. -1.
        -13    1    4    4    0    0  0.78764055119E+00 -0.17987819283E+02  0.58547180293E+01  0.18933327954E+02  0.10566000000E+00 0.  1.
        -14    1    4    4    0    0  0.16068415327E+00 -0.17656855608E+01  0.98197734911E+00  0.20267571169E+01  0.00000000000E+00 0.  1.
<mgrwt>
<rscale>  0 0.80093381E+02</rscale>
<asrwt>0</asrwt>
<pdfrwt beam="1">  1        2 0.20189747E-02 0.80093381E+02</pdfrwt>
<pdfrwt beam="2">  1       -1 0.18800772E-01 0.80093381E+02</pdfrwt>
<totfact> 0.11303729E+05</totfact>
</mgrwt>
</event>
<event>
 8    1  0.1493610E-013  0.7126083E+02  0.7818608E-02  0.1355857E+00
         -1   -1    0    0    0  501 -0.00000000000E+00  0.00000000000E+00  0.19793028291E+02  0.19793028933E+02  0.50400000000E-02 0.  1.
          2   -1    0    0  501    0  0.00000000000E+00 -0.00000000000E+00 -0.64140080322E+02  0.64140080373E+02  0.25500000000E-02 0. -1.
         24    2    1    2    0    0  0.17763568394E-14  0.00000000000E+00 -0.44347052031E+02  0.83933109305E+02  0.71260829449E+02 0.  0.
         66    2    3    3    0    0  0.82543159147E+01  0.11151100220E+02 -0.60809401327E+02  0.62404038826E+02  0.20000011601E+01 0.  0.
        -13    1    3    3    0    0 -0.82543159147E+01 -0.11151100220E+02  0.16462349296E+02  0.21529070480E+02  0.10566000000E+00 0.  1.
         13    1    4    4    0    0  0.32600886502E+01  0.55558553326E+01 -0.29299890654E+02  0.29999841047E+02  0.10566000000E+00 0. -1.
        -13    1    4    4    0    0  0.32730115545E+01  0.43093652848E+01 -0.22791106333E+02  0.23424963729E+02  0.10566000000E+00 0.  1.
        -14    1    4    4    0    0  0.17212157099E+01  0.12858796021E+01 -0.87184043410E+01  0.89792340500E+01  0.00000000000E+00 0.  1.
<mgrwt>
<rscale>  0 0.71260829E+02</rscale>
<asrwt>0</asrwt>
<pdfrwt beam="1">  1        2 0.98677046E-02 0.71260829E+02</pdfrwt>
<pdfrwt beam="2">  1       -1 0.30450814E-02 0.71260829E+02</pdfrwt>
<totfact> 0.21585133E+05</totfact>
</mgrwt>
</event>
<event>
 8    1  0.1493610E-013  0.8145139E+02  0.7818608E-02  0.1324982E+00
          2   -1    0    0  501    0  0.00000000000E+00  0.00000000000E+00  0.19879362938E+04  0.19879362938E+04  0.25500000000E-02 0. -1.
         -1   -1    0    0    0  501 -0.00000000000E+00 -0.00000000000E+00 -0.83431596488E+00  0.83433118775E+00  0.50400000000E-02 0.  1.
         24    2    1    2    0    0  0.00000000000E+00 -0.44408920985E-15  0.19871019779E+04  0.19887706250E+04  0.81451387370E+02 0.  0.
         66    2    3    3    0    0  0.10016042463E+02  0.33148967770E+01  0.19539644861E+04  0.19539939925E+04  0.19999998785E+01 0.  0.
        -13    1    3    3    0    0 -0.10016042463E+02 -0.33148967770E+01  0.33137491738E+02  0.34776632528E+02  0.10566000000E+00 0.  1.
         13    1    4    4    0    0  0.50846570163E+01  0.15203827907E+01  0.10516596811E+04  0.10516730772E+04  0.10566000000E+00 0. -1.
        -13    1    4    4    0    0  0.67264542881E+00  0.69819871097E+00  0.19513853804E+03  0.19514097501E+03  0.10566000000E+00 0.  1.
        -14    1    4    4    0    0  0.42587400177E+01  0.10963152754E+01  0.70716626704E+03  0.70717994034E+03  0.00000000000E+00 0.  1.
<mgrwt>
<rscale>  0 0.81451387E+02</rscale>
<asrwt>0</asrwt>
<pdfrwt beam="1">  1        2 0.30583348E+00 0.81451387E+02</pdfrwt>
<pdfrwt beam="2">  1       -1 0.12835868E-03 0.81451387E+02</pdfrwt>
<totfact> 0.26636497E+05</totfact>
</mgrwt>
</event>
<event>
 8    1  0.1493610E-013  0.7965526E+02  0.7818608E-02  0.1330033E+00
         -1   -1    0    0    0  501 -0.00000000000E+00  0.00000000000E+00  0.21126845558E+01  0.21126905675E+01  0.50400000000E-02 0.  1.
          2   -1    0    0  501    0  0.00000000000E+00 -0.00000000000E+00 -0.75081619830E+03  0.75081619830E+03  0.25500000000E-02 0. -1.
         24    2    1    2    0    0 -0.35527136788E-14  0.00000000000E+00 -0.74870351374E+03  0.75292888887E+03  0.79655258489E+02 0.  0.
         66    2    3    3    0    0  0.16131312418E+02  0.16946741664E+01 -0.71815657733E+03  0.71834250934E+03  0.19999998146E+01 0.  0.
        -13    1    3    3    0    0 -0.16131312418E+02 -0.16946741664E+01 -0.30546936406E+02  0.34586379525E+02  0.10566000000E+00 0.  1.
         13    1    4    4    0    0  0.26456734222E+01  0.41968496049E+00 -0.11751074346E+03  0.11754131919E+03  0.10566000000E+00 0. -1.
        -13    1    4    4    0    0  0.54085492588E-01 -0.62646282382E-01 -0.11325102976E+02  0.11325898253E+02  0.10566000000E+00 0.  1.
        -14    1    4    4    0    0  0.13431553503E+02  0.13376354883E+01 -0.58932073090E+03  0.58947529190E+03  0.00000000000E+00 0.  1.
<mgrwt>
<rscale>  0 0.79655258E+02</rscale>
<asrwt>0</asrwt>
<pdfrwt beam="1">  1        2 0.11550997E+00 0.79655258E+02</pdfrwt>
<pdfrwt beam="2">  1       -1 0.32502945E-03 0.79655258E+02</pdfrwt>
<totfact> 0.34343350E+05</totfact>
</mgrwt>
</event>
<event>
 8    1  0.1493610E-013  0.7918202E+02  0.7818608E-02  0.1331389E+00
          2   -1    0    0  501    0  0.00000000000E+00  0.00000000000E+00  0.59753352190E+01  0.59753357631E+01  0.25500000000E-02 0. -1.
         -1   -1    0    0    0  501 -0.00000000000E+00 -0.00000000000E+00 -0.26231966886E+03  0.26231966891E+03  0.50400000000E-02 0.  1.
         24    2    1    2    0    0  0.17763568394E-14  0.00000000000E+00 -0.25634433364E+03  0.26829500468E+03  0.79182019057E+02 0.  0.
         66    2    3    3    0    0 -0.15642380785E+02 -0.33947156443E+02 -0.17221718729E+03  0.17623805803E+03  0.19999985217E+01 0.  0.
        -13    1    3    3    0    0  0.15642380785E+02  0.33947156443E+02 -0.84127146354E+02  0.92056946641E+02  0.10566000000E+00 0.  1.
         13    1    4    4    0    0 -0.83615848702E+01 -0.18865853473E+02 -0.98380542896E+02  0.10052153457E+03  0.10566000000E+00 0. -1.
        -13    1    4    4    0    0 -0.63588925175E+01 -0.12601890488E+02 -0.61408976998E+02  0.63010449752E+02  0.10566000000E+00 0.  1.
        -14    1    4    4    0    0 -0.92190339696E+00 -0.24794124822E+01 -0.12427667397E+02  0.12706073707E+02  0.00000000000E+00 0.  1.
<mgrwt>
<rscale>  0 0.79182019E+02</rscale>
<asrwt>0</asrwt>
<pdfrwt beam="1">  1        2 0.91928259E-03 0.79182019E+02</pdfrwt>
<pdfrwt beam="2">  1       -1 0.40356863E-01 0.79182019E+02</pdfrwt>
<totfact> 0.93445317E+04</totfact>
</mgrwt>
</event>
<event>
 8    1  0.1493610E-013  0.8028082E+02  0.7818608E-02  0.1328256E+00
          2   -1    0    0  501    0  0.00000000000E+00  0.00000000000E+00  0.12543898817E+02  0.12543899076E+02  0.25500000000E-02 0. -1.
         -1   -1    0    0    0  501 -0.00000000000E+00 -0.00000000000E+00 -0.12844910078E+03  0.12844910088E+03  0.50400000000E-02 0.  1.
         24    2    1    2    0    0  0.00000000000E+00  0.35527136788E-14 -0.11590520196E+03  0.14099299995E+03  0.80280820837E+02 0.  0.
         66    2    3    3    0    0 -0.18342386056E+02  0.29525350515E+02 -0.22817087297E+02  0.41627021344E+02  0.19999959981E+01 0.  0.
        -13    1    3    3    0    0  0.18342386056E+02 -0.29525350515E+02 -0.93088114664E+02  0.99365978610E+02  0.10566000000E+00 0.  1.
         13    1    4    4    0    0 -0.71639555846E+01  0.11567371560E+02 -0.91623794357E+01  0.16403862514E+02  0.10566000000E+00 0. -1.
        -13    1    4    4    0    0 -0.91634130560E+01  0.15121463279E+02 -0.12009429129E+02  0.21374385198E+02  0.10566000000E+00 0.  1.
         14    1    4    4    0    0 -0.20150174159E+01  0.28365156761E+01 -0.16452787319E+01  0.38487736323E+01  0.00000000000E+00 0. -1.
<mgrwt>
<rscale>  0 0.80280821E+02</rscale>
<asrwt>0</asrwt>
<pdfrwt beam="1">  1        2 0.19298307E-02 0.80280821E+02</pdfrwt>
<pdfrwt beam="2">  1       -1 0.19761399E-01 0.80280821E+02</pdfrwt>
<totfact> 0.11107250E+05</totfact>
</mgrwt>
</event>
<event>
 8    1  0.1493610E-013  0.7817651E+02  0.7818608E-02  0.1334307E+00
          2   -1    0    0  501    0  0.00000000000E+00  0.00000000000E+00  0.63755866313E+01  0.63755871413E+01  0.25500000000E-02 0. -1.
         -1   -1    0    0    0  501 -0.00000000000E+00 -0.00000000000E+00 -0.23964721596E+03  0.23964721601E+03  0.50400000000E-02 0.  1.
         24    2    1    2    0    0 -0.44408920985E-15  0.00000000000E+00 -0.23327162932E+03  0.24602280315E+03  0.78176509401E+02 0.  0.
         66    2    3    3    0    0  0.33559172197E+01  0.34476699924E+02 -0.59892662267E+02  0.69217310023E+02  0.19999988321E+01 0.  0.
        -13    1    3    3    0    0 -0.33559172197E+01 -0.34476699924E+02 -0.17337896706E+03  0.17680549313E+03  0.10566000000E+00 0.  1.
         13    1    4    4    0    0  0.43605828911E+00  0.21680916265E+01 -0.31162973297E+01  0.38227269344E+01  0.10566000000E+00 0. -1.
        -13    1    4    4    0    0  0.43941098215E+00  0.64379319658E+01 -0.10829487442E+02  0.12606705053E+02  0.10566000000E+00 0. -1.
         14    1    4    4    0    0  0.24804479484E+01  0.25870676332E+02 -0.45946877496E+02  0.52787878036E+02  0.00000000000E+00 0. -1.
<mgrwt>
<rscale>  0 0.78176509E+02</rscale>
<asrwt>0</asrwt>
<pdfrwt beam="1">  1        2 0.98085971E-03 0.78176509E+02</pdfrwt>
<pdfrwt beam="2">  1       -1 0.36868796E-01 0.78176509E+02</pdfrwt>
<totfact> 0.99675772E+04</totfact>
</mgrwt>
</event>
<event>
 8    1  0.1493610E-013  0.8242894E+02  0.7818608E-02  0.1322296E+00
          2   -1    0    0  501    0  0.00000000000E+00  0.00000000000E+00  0.27438509585E+03  0.27438509586E+03  0.25500000000E-02 0. -1.
         -1   -1    0    0    0  501 -0.00000000000E+00 -0.00000000000E+00 -0.61906869861E+01  0.61906890377E+01  0.50400000000E-02 0.  1.
         24    2    1    2    0    0 -0.35527136788E-14 -0.71054273576E-14  0.26819440886E+03  0.28057578490E+03  0.82428939858E+02 0.  0.
         66    2    3    3    0    0  0.21099875650E+02  0.30502800414E+02  0.19516110798E+03  0.19866424855E+03  0.19999993645E+01 0.  0.
        -13    1    3    3    0    0 -0.21099875650E+02 -0.30502800414E+02  0.73033300885E+02  0.81911536353E+02  0.10566000000E+00 0.  1.
         13    1    4    4    0    0  0.12389479147E+02  0.18455279533E+02  0.11248115047E+03  0.11465651709E+03  0.10566000000E+00 0.  1.
        -13    1    4    4    0    0  0.27370333236E+01  0.41838489040E+01  0.27314179125E+02  0.27768174019E+02  0.10566000000E+00 0. -1.
        -14    1    4    4    0    0  0.59733631788E+01  0.78636719769E+01  0.55365778383E+02  0.56239557435E+02  0.00000000000E+00 0.  1.
<mgrwt>
<rscale>  0 0.82428940E+02</rscale>
<asrwt>0</asrwt>
<pdfrwt beam="1">  1        2 0.42213080E-01 0.82428940E+02</pdfrwt>
<pdfrwt beam="2">  1       -1 0.95241380E-03 0.82428940E+02</pdfrwt>
<totfact> 0.22816793E+05</totfact>
</mgrwt>
</event>
<event>
 8    1  0.1493610E-013  0.8001266E+02  0.7818608E-02  0.1329016E+00
         -1   -1    0    0    0  501 -0.00000000000E+00  0.00000000000E+00  0.78392755211E+01  0.78392771412E+01  0.50400000000E-02 0.  1.
          2   -1    0    0  501    0  0.00000000000E+00 -0.00000000000E+00 -0.20416508042E+03  0.20416508044E+03  0.25500000000E-02 0. -1.
         24    2    1    2    0    0  0.00000000000E+00  0.00000000000E+00 -0.19632580490E+03  0.21200435758E+03  0.80012661263E+02 0.  0.
         66    2    3    3    0    0 -0.26033307294E+02 -0.17350161651E+02 -0.16418562890E+03  0.16715167343E+03  0.19999987457E+01 0.  0.
        -13    1    3    3    0    0  0.26033307294E+02  0.17350161651E+02 -0.32140175998E+02  0.44852684147E+02  0.10566000000E+00 0.  1.
         13    1    4    4    0    0 -0.80172436127E+01 -0.56242018370E+01 -0.55845892019E+02  0.56698171583E+02  0.10566000000E+00 0. -1.
        -13    1    4    4    0    0 -0.13249628716E+02 -0.83858863131E+01 -0.78023049898E+02  0.79583184341E+02  0.10566000000E+00 0.  1.
        -14    1    4    4    0    0 -0.47664349653E+01 -0.33400735008E+01 -0.30316686983E+02  0.30870317505E+02  0.00000000000E+00 0.  1.
<mgrwt>
<rscale>  0 0.80012661E+02</rscale>
<asrwt>0</asrwt>
<pdfrwt beam="1">  1        2 0.31410008E-01 0.80012661E+02</pdfrwt>
<pdfrwt beam="2">  1       -1 0.12060427E-02 0.80012661E+02</pdfrwt>
<totfact> 0.22208049E+05</totfact>
</mgrwt>
</event>
<event>
 8    1  0.1493610E-013  0.8082319E+02  0.7818608E-02  0.1326731E+00
         -1   -1    0    0    0  501 -0.00000000000E+00  0.00000000000E+00  0.17864865747E+02  0.17864866457E+02  0.50400000000E-02 0.  1.
          2   -1    0    0  501    0  0.00000000000E+00 -0.00000000000E+00 -0.91413885297E+02  0.91413885332E+02  0.25500000000E-02 0. -1.
         24    2    1    2    0    0  0.35527136788E-14  0.00000000000E+00 -0.73549019550E+02  0.10927875179E+03  0.80823185510E+02 0.  0.
         66    2    3    3    0    0  0.20575305310E+02 -0.29723686557E+02 -0.61143687834E+02  0.71059069031E+02  0.19999996475E+01 0.  0.
        -13    1    3    3    0    0 -0.20575305310E+02  0.29723686557E+02 -0.12405331716E+02  0.38219682758E+02  0.10566000000E+00 0.  1.
         13    1    4    4    0    0  0.17292530841E+02 -0.25312385265E+02 -0.51122894529E+02  0.59609646700E+02  0.10566000000E+00 0. -1.
        -13    1    4    4    0    0  0.30108546319E+00 -0.54168063126E+00 -0.15209869947E+01  0.16457933759E+01  0.10566000000E+00 0.  1.
        -14    1    4    4    0    0  0.29816890052E+01 -0.38696206610E+01 -0.84998063099E+01  0.98036289551E+01  0.00000000000E+00 0.  1.
<mgrwt>
<rscale>  0 0.80823186E+02</rscale>
<asrwt>0</asrwt>
<pdfrwt beam="1">  1        2 0.14063674E-01 0.80823186E+02</pdfrwt>
<pdfrwt beam="2">  1       -1 0.27484410E-02 0.80823186E+02</pdfrwt>
<totfact> 0.16824078E+05</totfact>
</mgrwt>
</event>
<event>
 8    1  0.1493610E-013  0.8024544E+02  0.7818608E-02  0.1328356E+00
         -1   -1    0    0    0  501 -0.00000000000E+00  0.00000000000E+00  0.12001365573E+02  0.12001366631E+02  0.50400000000E-02 0.  1.
          2   -1    0    0  501    0  0.00000000000E+00 -0.00000000000E+00 -0.13413745731E+03  0.13413745734E+03  0.25500000000E-02 0. -1.
         24    2    1    2    0    0  0.00000000000E+00  0.00000000000E+00 -0.12213609174E+03  0.14613882397E+03  0.80245442023E+02 0.  0.
         66    2    3    3    0    0  0.42419274183E+01 -0.12113037906E+02 -0.13028812288E+03  0.13093400857E+03  0.20000006463E+01 0.  0.
        -13    1    3    3    0    0 -0.42419274183E+01  0.12113037906E+02  0.81520311372E+01  0.15204815396E+02  0.10566000000E+00 0.  1.
         13    1    4    4    0    0  0.68763302138E+00 -0.20621477649E+01 -0.27957794259E+02  0.28042373588E+02  0.10566000000E+00 0. -1.
        -13    1    4    4    0    0  0.34892300963E+01 -0.87572639756E+01 -0.88437808143E+02  0.88938863677E+02  0.10566000000E+00 0.  1.
        -14    1    4    4    0    0  0.65064300658E-01 -0.12936261651E+01 -0.13892520475E+02  0.13952771308E+02  0.00000000000E+00 0.  1.
<mgrwt>
<rscale>  0 0.80245442E+02</rscale>
<asrwt>0</asrwt>
<pdfrwt beam="1">  1        2 0.20636531E-01 0.80245442E+02</pdfrwt>
<pdfrwt beam="2">  1       -1 0.18463641E-02 0.80245442E+02</pdfrwt>
<totfact> 0.19176290E+05</totfact>
</mgrwt>
</event>
<event>
 8    1  0.1493610E-013  0.7930724E+02  0.7818608E-02  0.1331029E+00
         -1   -1    0    0    0  501 -0.00000000000E+00  0.00000000000E+00  0.65174094670E+02  0.65174094865E+02  0.50400000000E-02 0.  1.
          2   -1    0    0  501    0  0.00000000000E+00 -0.00000000000E+00 -0.24126298250E+02  0.24126298385E+02  0.25500000000E-02 0. -1.
         24    2    1    2    0    0  0.17763568394E-14 -0.35527136788E-14  0.41047796419E+02  0.89300393250E+02  0.79307242063E+02 0.  0.
         66    2    3    3    0    0  0.13902350940E+02 -0.31419888117E+02 -0.16976316156E+01  0.34458187670E+02  0.20000033685E+01 0.  0.
        -13    1    3    3    0    0 -0.13902350940E+02  0.31419888117E+02  0.42745428035E+02  0.54842205580E+02  0.10566000000E+00 0.  1.
         13    1    4    4    0    0  0.11755269372E+02 -0.27015245310E+02 -0.15296150600E+01  0.29501876609E+02  0.10566000000E+00 0. -1.
        -13    1    4    4    0    0  0.70372938132E+00 -0.17268925356E+01 -0.38342983992E+00  0.19067184767E+01  0.10566000000E+00 0.  1.
        -14    1    4    4    0    0  0.14433521862E+01 -0.26777502714E+01  0.21541328439E+00  0.30495925846E+01  0.00000000000E+00 0.  1.
<mgrwt>
<rscale>  0 0.79307242E+02</rscale>
<asrwt>0</asrwt>
<pdfrwt beam="1">  1        2 0.37117382E-02 0.79307242E+02</pdfrwt>
<pdfrwt beam="2">  1       -1 0.10026784E-01 0.79307242E+02</pdfrwt>
<totfact> 0.13211299E+05</totfact>
</mgrwt>
</event>
<event>
 8    1  0.1493610E-013  0.7973227E+02  0.7818608E-02  0.1329813E+00
         -1   -1    0    0    0  501 -0.00000000000E+00  0.00000000000E+00  0.16617412519E+02  0.16617413283E+02  0.50400000000E-02 0.  1.
          2   -1    0    0  501    0  0.00000000000E+00 -0.00000000000E+00 -0.95641169543E+02  0.95641169577E+02  0.25500000000E-02 0. -1.
         24    2    1    2    0    0 -0.88817841970E-15  0.00000000000E+00 -0.79023757024E+02  0.11225858286E+03  0.79732272334E+02 0.  0.
         66    2    3    3    0    0 -0.74505587335E+01  0.26436958357E+02 -0.80169465411E+02  0.84767722482E+02  0.19999994796E+01 0.  0.
        -13    1    3    3    0    0  0.74505587335E+01 -0.26436958357E+02  0.11457083865E+01  0.27490860378E+02  0.10566000000E+00 0.  1.
         13    1    4    4    0    0 -0.42561196460E+01  0.17898231114E+02 -0.52146463047E+02  0.55296708797E+02  0.10566000000E+00 0. -1.
        -13    1    4    4    0    0 -0.24351957682E+01  0.61768238101E+01 -0.20730229437E+02  0.21767795188E+02  0.10566000000E+00 0.  1.
         14    1    4    4    0    0 -0.75924331937E+00  0.23619034326E+01 -0.72927729265E+01  0.77032184963E+01  0.00000000000E+00 0. -1.
<mgrwt>
<rscale>  0 0.79732272E+02</rscale>
<asrwt>0</asrwt>
<pdfrwt beam="1">  1        2 0.14714026E-01 0.79732272E+02</pdfrwt>
<pdfrwt beam="2">  1       -1 0.25565251E-02 0.79732272E+02</pdfrwt>
<totfact> 0.17666014E+05</totfact>
</mgrwt>
</event>
<event>
 8    1  0.1493610E-013  0.7937969E+02  0.7818608E-02  0.1330821E+00
         -1   -1    0    0    0  501 -0.00000000000E+00  0.00000000000E+00  0.22001856022E+01  0.22001913748E+01  0.50400000000E-02 0.  1.
          2   -1    0    0  501    0  0.00000000000E+00 -0.00000000000E+00 -0.71597665431E+03  0.71597665431E+03  0.25500000000E-02 0. -1.
         24    2    1    2    0    0  0.35527136788E-14 -0.35527136788E-14 -0.71377646870E+03  0.71817684568E+03  0.79379685080E+02 0.  0.
         66    2    3    3    0    0 -0.17716068630E+02  0.31221185081E+02 -0.50975933403E+03  0.51102563548E+03  0.20000000202E+01 0.  0.
        -13    1    3    3    0    0  0.17716068630E+02 -0.31221185081E+02 -0.20401713467E+03  0.20715121020E+03  0.10566000000E+00 0.  1.
         13    1    4    4    0    0 -0.86542226902E+01  0.15499426518E+02 -0.26019929219E+03  0.26080416142E+03  0.10566000000E+00 0. -1.
        -13    1    4    4    0    0 -0.17615141317E+01  0.26732461748E+01 -0.39106044713E+02  0.39237011536E+02  0.10566000000E+00 0.  1.
         14    1    4    4    0    0 -0.73003318081E+01  0.13048512388E+02 -0.21045399713E+03  0.21098446253E+03  0.00000000000E+00 0. -1.
<mgrwt>
<rscale>  0 0.79379685E+02</rscale>
<asrwt>0</asrwt>
<pdfrwt beam="1">  1        2 0.11015007E+00 0.79379685E+02</pdfrwt>
<pdfrwt beam="2">  1       -1 0.33849111E-03 0.79379685E+02</pdfrwt>
<totfact> 0.34308579E+05</totfact>
</mgrwt>
</event>
<event>
 8    1  0.1493610E-013  0.7964013E+02  0.7818608E-02  0.1330076E+00
          2   -1    0    0  501    0  0.00000000000E+00  0.00000000000E+00  0.12360274758E+04  0.12360274758E+04  0.25500000000E-02 0. -1.
         -1   -1    0    0    0  501 -0.00000000000E+00 -0.00000000000E+00 -0.12828448922E+01  0.12828547927E+01  0.50400000000E-02 0.  1.
         24    2    1    2    0    0 -0.35527136788E-14 -0.27755575616E-16  0.12347446309E+04  0.12373103306E+04  0.79640132108E+02 0.  0.
         66    2    3    3    0    0  0.19981938130E+02  0.48805599238E-01  0.11524322262E+04  0.11526071821E+04  0.19999989028E+01 0.  0.
        -13    1    3    3    0    0 -0.19981938130E+02 -0.48805599238E-01  0.82312404726E+02  0.84703148520E+02  0.10566000000E+00 0.  1.
         13    1    4    4    0    0  0.35018257214E+00 -0.11727683965E+00  0.30547133942E+02  0.30549548897E+02  0.10566000000E+00 0.  1.
        -13    1    4    4    0    0  0.50934923784E+00  0.18845230139E+00  0.29738671870E+02  0.29743818174E+02  0.10566000000E+00 0.  1.
         14    1    4    4    0    0  0.19122406320E+02 -0.22369862505E-01  0.10921464204E+04  0.10923138150E+04  0.00000000000E+00 0. -1.
<mgrwt>
<rscale>  0 0.79640132E+02</rscale>
<asrwt>0</asrwt>
<pdfrwt beam="1">  1        2 0.19015905E+00 0.79640132E+02</pdfrwt>
<pdfrwt beam="2">  1       -1 0.19736050E-03 0.79640132E+02</pdfrwt>
<totfact> 0.35319754E+05</totfact>
</mgrwt>
</event>
<event>
 8    1  0.1493610E-013  0.7830487E+02  0.7818608E-02  0.1333932E+00
          2   -1    0    0  501    0  0.00000000000E+00  0.00000000000E+00  0.96627525937E+03  0.96627525938E+03  0.25500000000E-02 0. -1.
         -1   -1    0    0    0  501 -0.00000000000E+00 -0.00000000000E+00 -0.15864106571E+01  0.15864186631E+01  0.50400000000E-02 0.  1.
         24    2    1    2    0    0  0.88817841970E-15  0.00000000000E+00  0.96468884872E+03  0.96786167804E+03  0.78304872011E+02 0.  0.
         66    2    3    3    0    0  0.56346787915E+01 -0.22120409700E+02  0.87544069949E+03  0.87574053261E+03  0.20000018650E+01 0.  0.
        -13    1    3    3    0    0 -0.56346787915E+01  0.22120409700E+02  0.89248149225E+02  0.92121145426E+02  0.10566000000E+00 0.  1.
         13    1    4    4    0    0  0.29226636664E+01 -0.12736126530E+02  0.51688848573E+03  0.51705364202E+03  0.10566000000E+00 0. -1.
        -13    1    4    4    0    0  0.24408265630E+01 -0.67467851372E+01  0.25911034793E+03  0.25920968407E+03  0.10566000000E+00 0.  1.
        -14    1    4    4    0    0  0.27118856209E+00 -0.26374980329E+01  0.99441865830E+02  0.99477206529E+02  0.00000000000E+00 0.  1.
<mgrwt>
<rscale>  0 0.78304872E+02</rscale>
<asrwt>0</asrwt>
<pdfrwt beam="1">  1        2 0.14865739E+00 0.78304872E+02</pdfrwt>
<pdfrwt beam="2">  1       -1 0.24406435E-03 0.78304872E+02</pdfrwt>
<totfact> 0.37174748E+05</totfact>
</mgrwt>
</event>
<event>
 8    1  0.1493610E-013  0.7839307E+02  0.7818608E-02  0.1333675E+00
          2   -1    0    0  501    0  0.00000000000E+00  0.00000000000E+00  0.34113310685E+03  0.34113310686E+03  0.25500000000E-02 0. -1.
         -1   -1    0    0    0  501 -0.00000000000E+00 -0.00000000000E+00 -0.45037197247E+01  0.45037225448E+01  0.50400000000E-02 0.  1.
         24    2    1    2    0    0  0.00000000000E+00  0.35527136788E-14  0.33662938712E+03  0.34563682940E+03  0.78393070894E+02 0.  0.
         66    2    3    3    0    0  0.23320937502E+02 -0.30794506846E+02  0.13978372415E+03  0.14503674472E+03  0.20000011966E+01 0.  0.
        -13    1    3    3    0    0 -0.23320937502E+02  0.30794506846E+02  0.19684566297E+03  0.20060008468E+03  0.10566000000E+00 0.  1.
         13    1    4    4    0    0  0.40110924768E+01 -0.49182820715E+01  0.23197440980E+02  0.24050172420E+02  0.10566000000E+00 0. -1.
        -13    1    4    4    0    0  0.13517421796E+02 -0.18034577300E+02  0.84252297016E+02  0.87214834672E+02  0.10566000000E+00 0.  1.
        -14    1    4    4    0    0  0.57924232287E+01 -0.78416474742E+01  0.32333986153E+02  0.33771737629E+02  0.00000000000E+00 0.  1.
<mgrwt>
<rscale>  0 0.78393071E+02</rscale>
<asrwt>0</asrwt>
<pdfrwt beam="1">  1        2 0.52482019E-01 0.78393071E+02</pdfrwt>
<pdfrwt beam="2">  1       -1 0.69288015E-03 0.78393071E+02</pdfrwt>
<totfact> 0.28158368E+05</totfact>
</mgrwt>
</event>
<event>
 8    1  0.1493610E-013  0.7698817E+02  0.7818608E-02  0.1337823E+00
          2   -1    0    0  501    0  0.00000000000E+00  0.00000000000E+00  0.17587380174E+02  0.17587380358E+02  0.25500000000E-02 0. -1.
         -1   -1    0    0    0  501 -0.00000000000E+00 -0.00000000000E+00 -0.84253295258E+02  0.84253295409E+02  0.50400000000E-02 0.  1.
         24    2    1    2    0    0  0.00000000000E+00  0.00000000000E+00 -0.66665915085E+02  0.10184067577E+03  0.76988174460E+02 0.  0.
         66    2    3    3    0    0  0.22627066679E+02  0.16829711645E+02  0.12548870963E+01  0.28298375875E+02  0.19999987340E+01 0.  0.
        -13    1    3    3    0    0 -0.22627066679E+02 -0.16829711645E+02 -0.67920802181E+02  0.73542299893E+02  0.10566000000E+00 0.  1.
         13    1    4    4    0    0  0.14716790177E+02  0.10333599071E+02  0.10161846077E+01  0.18011412440E+02  0.10566000000E+00 0. -1.
        -13    1    4    4    0    0  0.28676600363E+01  0.21771485440E+01  0.53199757899E+00  0.36411035863E+01  0.10566000000E+00 0.  1.
        -14    1    4    4    0    0  0.50426164659E+01  0.43189640302E+01 -0.29329509036E+00  0.66458598485E+01  0.00000000000E+00 0.  1.
<mgrwt>
<rscale>  0 0.76988174E+02</rscale>
<asrwt>0</asrwt>
<pdfrwt beam="1">  1        2 0.27057509E-02 0.76988174E+02</pdfrwt>
<pdfrwt beam="2">  1       -1 0.12962045E-01 0.76988174E+02</pdfrwt>
<totfact> 0.13509333E+05</totfact>
</mgrwt>
</event>
<event>
 8    1  0.1493610E-013  0.7937991E+02  0.7818608E-02  0.1330820E+00
         -1   -1    0    0    0  501 -0.00000000000E+00  0.00000000000E+00  0.28893184225E+01  0.28893228183E+01  0.50400000000E-02 0.  1.
          2   -1    0    0  501    0  0.00000000000E+00 -0.00000000000E+00 -0.54521206239E+03  0.54521206239E+03  0.25500000000E-02 0. -1.
         24    2    1    2    0    0  0.00000000000E+00  0.00000000000E+00 -0.54232274396E+03  0.54810138521E+03  0.79379908348E+02 0.  0.
         66    2    3    3    0    0 -0.19113165632E+02  0.21527638998E+02 -0.45973823850E+03  0.46064302913E+03  0.20000018431E+01 0.  0.
        -13    1    3    3    0    0  0.19113165632E+02 -0.21527638998E+02 -0.82584505466E+02  0.87458356081E+02  0.10566000000E+00 0.  1.
         13    1    4    4    0    0 -0.17236309335E+02  0.19398407205E+02 -0.41598344904E+03  0.41679206998E+03  0.10566000000E+00 0. -1.
        -13    1    4    4    0    0 -0.56796226940E+00  0.90890265692E+00 -0.19915104554E+02  0.19944203133E+02  0.10566000000E+00 0. -1.
         14    1    4    4    0    0 -0.13088940270E+01  0.12203291361E+01 -0.23839684907E+02  0.23906756017E+02  0.00000000000E+00 0. -1.
<mgrwt>
<rscale>  0 0.79379908E+02</rscale>
<asrwt>0</asrwt>
<pdfrwt beam="1">  1        2 0.83878697E-01 0.79379908E+02</pdfrwt>
<pdfrwt beam="2">  1       -1 0.44451130E-03 0.79379908E+02</pdfrwt>
<totfact> 0.31920628E+05</totfact>
</mgrwt>
</event>
<event>
 8    1  0.1493610E-013  0.7841741E+02  0.7818608E-02  0.1333604E+00
         -1   -1    0    0    0  501 -0.00000000000E+00  0.00000000000E+00  0.51347345922E+01  0.51347370657E+01  0.50400000000E-02 0.  1.
          2   -1    0    0  501    0  0.00000000000E+00 -0.00000000000E+00 -0.29939663994E+03  0.29939663995E+03  0.25500000000E-02 0. -1.
         24    2    1    2    0    0  0.88817841970E-15  0.00000000000E+00 -0.29426190534E+03  0.30453137701E+03  0.78417412917E+02 0.  0.
         66    2    3    3    0    0  0.60079381734E+01 -0.34925866264E+02 -0.21214027783E+03  0.21508930456E+03  0.20000004973E+01 0.  0.
        -13    1    3    3    0    0 -0.60079381734E+01  0.34925866264E+02 -0.82121627510E+02  0.89442072451E+02  0.10566000000E+00 0.  1.
         13    1    4    4    0    0  0.43662334765E+01 -0.21157061966E+02 -0.13163003528E+03  0.13339101400E+03  0.10566000000E+00 0. -1.
        -13    1    4    4    0    0  0.49467910050E+00 -0.23224719570E+01 -0.13343133851E+02  0.13553190340E+02  0.10566000000E+00 0.  1.
        -14    1    4    4    0    0  0.11470255964E+01 -0.11446332341E+02 -0.67167108705E+02  0.68145100217E+02  0.00000000000E+00 0.  1.
<mgrwt>
<rscale>  0 0.78417413E+02</rscale>
<asrwt>0</asrwt>
<pdfrwt beam="1">  1        2 0.46061008E-01 0.78417413E+02</pdfrwt>
<pdfrwt beam="2">  1       -1 0.78995960E-03 0.78417413E+02</pdfrwt>
<totfact> 0.26844682E+05</totfact>
</mgrwt>
</event>
<event>
 8    1  0.1493610E-013  0.8074401E+02  0.7818608E-02  0.1326953E+00
         -1   -1    0    0    0  501 -0.00000000000E+00  0.00000000000E+00  0.11042449058E+01  0.11042564075E+01  0.50400000000E-02 0.  1.
          2   -1    0    0  501    0  0.00000000000E+00 -0.00000000000E+00 -0.14760223891E+04  0.14760223891E+04  0.25500000000E-02 0. -1.
         24    2    1    2    0    0  0.00000000000E+00  0.00000000000E+00 -0.14749181442E+04  0.14771266455E+04  0.80744007835E+02 0.  0.
         66    2    3    3    0    0  0.91171207980E+01 -0.10006881406E+02 -0.14332329058E+04  0.14332982320E+04  0.20000000600E+01 0.  0.
        -13    1    3    3    0    0 -0.91171207980E+01  0.10006881406E+02 -0.41685238341E+02  0.43828413463E+02  0.10566000000E+00 0.  1.
         13    1    4    4    0    0  0.62105804954E+01 -0.71448030540E+01 -0.99108080612E+03  0.99112602374E+03  0.10566000000E+00 0. -1.
        -13    1    4    4    0    0  0.74016385575E+00 -0.31391438424E+00 -0.12023792315E+03  0.12024065749E+03  0.10566000000E+00 0.  1.
        -14    1    4    4    0    0  0.21663764469E+01 -0.25481639673E+01 -0.32191417656E+03  0.32193155079E+03  0.00000000000E+00 0.  1.
<mgrwt>
<rscale>  0 0.80744008E+02</rscale>
<asrwt>0</asrwt>
<pdfrwt beam="1">  1        2 0.22707879E+00 0.80744008E+02</pdfrwt>
<pdfrwt beam="2">  1       -1 0.16988590E-03 0.80744008E+02</pdfrwt>
<totfact> 0.32652253E+05</totfact>
</mgrwt>
</event>
<event>
 8    1  0.1493610E-013  0.7921203E+02  0.7818608E-02  0.1331303E+00
         -1   -1    0    0    0  501 -0.00000000000E+00  0.00000000000E+00  0.21458261240E+01  0.21458320428E+01  0.50400000000E-02 0.  1.
          2   -1    0    0  501    0  0.00000000000E+00 -0.00000000000E+00 -0.73101655076E+03  0.73101655076E+03  0.25500000000E-02 0. -1.
         24    2    1    2    0    0  0.00000000000E+00  0.00000000000E+00 -0.72887072463E+03  0.73316238281E+03  0.79212034012E+02 0.  0.
         66    2    3    3    0    0  0.26702345689E+02  0.12981676250E+02 -0.60692809286E+03  0.60765718056E+03  0.19999988363E+01 0.  0.
        -13    1    3    3    0    0 -0.26702345689E+02 -0.12981676250E+02 -0.12194263177E+03  0.12550520225E+03  0.10566000000E+00 0.  1.
         13    1    4    4    0    0  0.12068664987E+02  0.58375457324E+01 -0.26366837676E+03  0.26400900303E+03  0.10566000000E+00 0.  1.
        -13    1    4    4    0    0  0.97838698603E+01  0.41005034183E+01 -0.22170127392E+03  0.22195495998E+03  0.10566000000E+00 0. -1.
        -14    1    4    4    0    0  0.48498108410E+01  0.30436270995E+01 -0.12155844219E+03  0.12169321755E+03  0.00000000000E+00 0.  1.
<mgrwt>
<rscale>  0 0.79212034E+02</rscale>
<asrwt>0</asrwt>
<pdfrwt beam="1">  1        2 0.11246389E+00 0.79212034E+02</pdfrwt>
<pdfrwt beam="2">  1       -1 0.33012814E-03 0.79212034E+02</pdfrwt>
<totfact> 0.34652787E+05</totfact>
</mgrwt>
</event>
<event>
 8    1  0.1493610E-013  0.8059775E+02  0.7818608E-02  0.1327364E+00
          2   -1    0    0  501    0  0.00000000000E+00  0.00000000000E+00  0.10365683416E+04  0.10365683417E+04  0.25500000000E-02 0. -1.
         -1   -1    0    0    0  501 -0.00000000000E+00 -0.00000000000E+00 -0.15667035161E+01  0.15667116228E+01  0.50400000000E-02 0.  1.
         24    2    1    2    0    0  0.88817841970E-15 -0.35527136788E-14  0.10350016381E+04  0.10381350533E+04  0.80597753692E+02 0.  0.
         66    2    3    3    0    0  0.73229897028E+01 -0.16288424123E+02  0.98277515438E+03  0.98293944015E+03  0.20000011939E+01 0.  0.
        -13    1    3    3    0    0 -0.73229897028E+01  0.16288424123E+02  0.52226483758E+02  0.55195613126E+02  0.10566000000E+00 0.  1.
         13    1    4    4    0    0  0.10419953489E+01 -0.15428153124E+01  0.11563230879E+03  0.11564734340E+03  0.10566000000E+00 0.  1.
        -13    1    4    4    0    0  0.50335891501E+01 -0.12262455938E+02  0.68783329643E+03  0.68796101611E+03  0.10566000000E+00 0. -1.
        -14    1    4    4    0    0  0.12474052039E+01 -0.24831528726E+01  0.17930954916E+03  0.17933108065E+03  0.00000000000E+00 0.  1.
<mgrwt>
<rscale>  0 0.80597754E+02</rscale>
<asrwt>0</asrwt>
<pdfrwt beam="1">  1        2 0.15947224E+00 0.80597754E+02</pdfrwt>
<pdfrwt beam="2">  1       -1 0.24103165E-03 0.80597754E+02</pdfrwt>
<totfact> 0.34592473E+05</totfact>
</mgrwt>
</event>
<event>
 8    1  0.1493610E-013  0.8150792E+02  0.7818608E-02  0.1324826E+00
          2   -1    0    0  501    0  0.00000000000E+00  0.00000000000E+00  0.28878600836E+03  0.28878600837E+03  0.25500000000E-02 0. -1.
         -1   -1    0    0    0  501 -0.00000000000E+00 -0.00000000000E+00 -0.57512647201E+01  0.57512669284E+01  0.50400000000E-02 0.  1.
         24    2    1    2    0    0  0.71054273576E-14 -0.17763568394E-14  0.28303474364E+03  0.29453727530E+03  0.81507916386E+02 0.  0.
         66    2    3    3    0    0 -0.32585098502E+02  0.13515387245E+02  0.21516609013E+03  0.21804793205E+03  0.19999986279E+01 0.  0.
        -13    1    3    3    0    0  0.32585098502E+02 -0.13515387245E+02  0.67868653507E+02  0.76489343242E+02  0.10566000000E+00 0.  1.
         13    1    4    4    0    0 -0.19358882613E+02  0.83471879239E+01  0.12778387582E+03  0.12951128123E+03  0.10566000000E+00 0. -1.
        -13    1    4    4    0    0 -0.83487899914E+01  0.28708304381E+01  0.51411097046E+02  0.52163742439E+02  0.10566000000E+00 0.  1.
         14    1    4    4    0    0 -0.48774258978E+01  0.22973688831E+01  0.35971117268E+02  0.36372908389E+02  0.00000000000E+00 0. -1.
<mgrwt>
<rscale>  0 0.81507916E+02</rscale>
<asrwt>0</asrwt>
<pdfrwt beam="1">  1        2 0.44428624E-01 0.81507916E+02</pdfrwt>
<pdfrwt beam="2">  1       -1 0.88480998E-03 0.81507916E+02</pdfrwt>
<totfact> 0.23941982E+05</totfact>
</mgrwt>
</event>
<event>
 8    1  0.1493610E-013  0.8109551E+02  0.7818608E-02  0.1325971E+00
          2   -1    0    0  501    0  0.00000000000E+00  0.00000000000E+00  0.10352802862E+03  0.10352802865E+03  0.25500000000E-02 0. -1.
         -1   -1    0    0    0  501 -0.00000000000E+00 -0.00000000000E+00 -0.15880921170E+02  0.15880921970E+02  0.50400000000E-02 0.  1.
         24    2    1    2    0    0 -0.35527136788E-14  0.44408920985E-15  0.87647107453E+02  0.11940895062E+03  0.81095511863E+02 0.  0.
         66    2    3    3    0    0  0.25631429214E+02 -0.17846176366E+01  0.89991141551E+02  0.93608549783E+02  0.20000028026E+01 0.  0.
        -13    1    3    3    0    0 -0.25631429214E+02  0.17846176366E+01 -0.23440340985E+01  0.25800400840E+02  0.10566000000E+00 0.  1.
         13    1    4    4    0    0  0.12001679959E+02 -0.10226412395E+01  0.40847927080E+02  0.42586974860E+02  0.10566000000E+00 0. -1.
        -13    1    4    4    0    0  0.42499179443E+01 -0.76137446463E+00  0.14305980171E+02  0.14943685165E+02  0.10566000000E+00 0.  1.
        -14    1    4    4    0    0  0.93798313102E+01 -0.60193242342E-03  0.34837234300E+02  0.36077889759E+02  0.00000000000E+00 0.  1.
<mgrwt>
<rscale>  0 0.81095512E+02</rscale>
<asrwt>0</asrwt>
<pdfrwt beam="1">  1        2 0.15927389E-01 0.81095512E+02</pdfrwt>
<pdfrwt beam="2">  1       -1 0.24432186E-02 0.81095512E+02</pdfrwt>
<totfact> 0.17259449E+05</totfact>
</mgrwt>
</event>
<event>
 8    1  0.1493610E-013  0.8111849E+02  0.7818608E-02  0.1325907E+00
         -1   -1    0    0    0  501 -0.00000000000E+00  0.00000000000E+00  0.42788782545E+01  0.42788812227E+01  0.50400000000E-02 0.  1.
          2   -1    0    0  501    0  0.00000000000E+00 -0.00000000000E+00 -0.38445866672E+03  0.38445866673E+03  0.25500000000E-02 0. -1.
         24    2    1    2    0    0  0.00000000000E+00  0.35527136788E-14 -0.38017978847E+03  0.38873754795E+03  0.81118491292E+02 0.  0.
         66    2    3    3    0    0  0.20428171611E+02  0.28395816913E+02 -0.28834793941E+03  0.29046887400E+03  0.19999981032E+01 0.  0.
        -13    1    3    3    0    0 -0.20428171611E+02 -0.28395816913E+02 -0.91831849062E+02  0.98268673949E+02  0.10566000000E+00 0.  1.
         13    1    4    4    0    0  0.11588228497E+02  0.15677053891E+02 -0.15894286927E+03  0.16013401860E+03  0.10566000000E+00 0. -1.
        -13    1    4    4    0    0  0.15597526216E+01  0.18034963183E+01 -0.23188060273E+02  0.23310571217E+02  0.10566000000E+00 0.  1.
        -14    1    4    4    0    0  0.72801904917E+01  0.10915266704E+02 -0.10621700986E+03  0.10702428418E+03  0.00000000000E+00 0.  1.
<mgrwt>
<rscale>  0 0.81118491E+02</rscale>
<asrwt>0</asrwt>
<pdfrwt beam="1">  1        2 0.59147460E-01 0.81118491E+02</pdfrwt>
<pdfrwt beam="2">  1       -1 0.65828949E-03 0.81118491E+02</pdfrwt>
<totfact> 0.26869415E+05</totfact>
</mgrwt>
</event>
<event>
 8    1  0.1493610E-013  0.8161128E+02  0.7818608E-02  0.1324540E+00
         -1   -1    0    0    0  501 -0.00000000000E+00  0.00000000000E+00  0.17462749366E+01  0.17462822097E+01  0.50400000000E-02 0.  1.
          2   -1    0    0  501    0  0.00000000000E+00 -0.00000000000E+00 -0.95351359039E+03  0.95351359039E+03  0.25500000000E-02 0. -1.
         24    2    1    2    0    0  0.00000000000E+00  0.35527136788E-14 -0.95176731545E+03  0.95525987260E+03  0.81611282555E+02 0.  0.
         66    2    3    3    0    0  0.16945750667E+02  0.21575763941E+02 -0.82934615104E+03  0.82980221156E+03  0.20000003165E+01 0.  0.
        -13    1    3    3    0    0 -0.16945750667E+02 -0.21575763941E+02 -0.12242116441E+03  0.12545766104E+03  0.10566000000E+00 0.  1.
         13    1    4    4    0    0  0.58806506365E+01  0.81205917997E+01 -0.29127287625E+03  0.29144540770E+03  0.10566000000E+00 0. -1.
        -13    1    4    4    0    0  0.44640789178E+01  0.63809820149E+01 -0.23289314689E+03  0.23302333352E+03  0.10566000000E+00 0.  1.
         14    1    4    4    0    0  0.66010211124E+01  0.70741901263E+01 -0.30518012790E+03  0.30533347034E+03  0.00000000000E+00 0. -1.
<mgrwt>
<rscale>  0 0.81611283E+02</rscale>
<asrwt>0</asrwt>
<pdfrwt beam="1">  1        2 0.14669398E+00 0.81611283E+02</pdfrwt>
<pdfrwt beam="2">  1       -1 0.26865901E-03 0.81611283E+02</pdfrwt>
<totfact> 0.33359157E+05</totfact>
</mgrwt>
</event>
<event>
 8    1  0.1493610E-013  0.7957741E+02  0.7818608E-02  0.1330255E+00
          2   -1    0    0  501    0  0.00000000000E+00  0.00000000000E+00  0.16440977520E+04  0.16440977520E+04  0.25500000000E-02 0. -1.
         -1   -1    0    0    0  501 -0.00000000000E+00 -0.00000000000E+00 -0.96291737961E+00  0.96293056943E+00  0.50400000000E-02 0.  1.
         24    2    1    2    0    0  0.00000000000E+00  0.00000000000E+00  0.16431348346E+04  0.16450606826E+04  0.79577412621E+02 0.  0.
         66    2    3    3    0    0  0.17346962724E+02 -0.40195663548E+01  0.15570662752E+04  0.15571693740E+04  0.20000190914E+01 0.  0.
        -13    1    3    3    0    0 -0.17346962724E+02  0.40195663548E+01  0.86068559451E+02  0.87891308554E+02  0.10566000000E+00 0.  1.
         13    1    4    4    0    0  0.28547354530E+01 -0.10254181077E+01  0.28130213120E+03  0.28131850486E+03  0.10566000000E+00 0. -1.
        -13    1    4    4    0    0  0.59143903550E+01 -0.15428688320E+01  0.46976684197E+03  0.46980661706E+03  0.10566000000E+00 0.  1.
         14    1    4    4    0    0  0.85778369165E+01 -0.14512794152E+01  0.80599730203E+03  0.80604425212E+03  0.00000000000E+00 0. -1.
<mgrwt>
<rscale>  0 0.79577413E+02</rscale>
<asrwt>0</asrwt>
<pdfrwt beam="1">  1        2 0.25293664E+00 0.79577413E+02</pdfrwt>
<pdfrwt beam="2">  1       -1 0.14814302E-03 0.79577413E+02</pdfrwt>
<totfact> 0.32359509E+05</totfact>
</mgrwt>
</event>
<event>
 8    1  0.1493610E-013  0.7808224E+02  0.7818608E-02  0.1334584E+00
          2   -1    0    0  501    0  0.00000000000E+00  0.00000000000E+00  0.78021447837E+03  0.78021447837E+03  0.25500000000E-02 0. -1.
         -1   -1    0    0    0  501 -0.00000000000E+00 -0.00000000000E+00 -0.19535735315E+01  0.19535800328E+01  0.50400000000E-02 0.  1.
         24    2    1    2    0    0  0.00000000000E+00  0.17763568394E-14  0.77826090484E+03  0.78216805841E+03  0.78082236086E+02 0.  0.
         66    2    3    3    0    0 -0.39139114045E+01  0.11737157060E+02  0.76003955198E+03  0.76014288140E+03  0.20000010734E+01 0.  0.
        -13    1    3    3    0    0  0.39139114045E+01 -0.11737157060E+02  0.18221352857E+02  0.22025177010E+02  0.10566000000E+00 0.  1.
         13    1    4    4    0    0 -0.28017704330E+01  0.60911131164E+01  0.43653091785E+03  0.43658241488E+03  0.10566000000E+00 0. -1.
        -13    1    4    4    0    0  0.37513022229E-02  0.85837470237E+00  0.41868045870E+02  0.41876977568E+02  0.10566000000E+00 0.  1.
         14    1    4    4    0    0 -0.11158922738E+01  0.47876692416E+01  0.28164058826E+03  0.28168348895E+03  0.00000000000E+00 0. -1.
<mgrwt>
<rscale>  0 0.78082236E+02</rscale>
<asrwt>0</asrwt>
<pdfrwt beam="1">  1        2 0.12003305E+00 0.78082236E+02</pdfrwt>
<pdfrwt beam="2">  1       -1 0.30055015E-03 0.78082236E+02</pdfrwt>
<totfact> 0.36435790E+05</totfact>
</mgrwt>
</event>
<event>
 8    1  0.1493610E-013  0.8332431E+02  0.7818608E-02  0.1319874E+00
         -1   -1    0    0    0  501 -0.00000000000E+00  0.00000000000E+00  0.29988269811E+02  0.29988270234E+02  0.50400000000E-02 0.  1.
          2   -1    0    0  501    0  0.00000000000E+00 -0.00000000000E+00 -0.57880468964E+02  0.57880469020E+02  0.25500000000E-02 0. -1.
         24    2    1    2    0    0  0.00000000000E+00  0.00000000000E+00 -0.27892199153E+02  0.87868739254E+02  0.83324309565E+02 0.  0.
         66    2    3    3    0    0  0.13889750524E+02 -0.16801714337E+02 -0.51364356728E+02  0.55834755432E+02  0.19999994343E+01 0.  0.
        -13    1    3    3    0    0 -0.13889750524E+02  0.16801714337E+02  0.23472157575E+02  0.32033983823E+02  0.10566000000E+00 0.  1.
         13    1    4    4    0    0  0.15037886162E+01 -0.22134359407E+01 -0.57826041134E+01  0.63726253016E+01  0.10566000000E+00 0. -1.
        -13    1    4    4    0    0  0.11399373451E+02 -0.12788937067E+02 -0.39969824642E+02  0.43486787331E+02  0.10566000000E+00 0.  1.
        -14    1    4    4    0    0  0.98658845698E+00 -0.17993413291E+01 -0.56119279725E+01  0.59753427994E+01  0.00000000000E+00 0.  1.
<mgrwt>
<rscale>  0 0.83324310E+02</rscale>
<asrwt>0</asrwt>
<pdfrwt beam="1">  1        2 0.89046875E-02 0.83324310E+02</pdfrwt>
<pdfrwt beam="2">  1       -1 0.46135800E-02 0.83324310E+02</pdfrwt>
<totfact> 0.13812956E+05</totfact>
</mgrwt>
</event>
<event>
 8    1  0.1493610E-013  0.7921582E+02  0.7818608E-02  0.1331292E+00
         -1   -1    0    0    0  501 -0.00000000000E+00  0.00000000000E+00  0.70613637868E+01  0.70613655854E+01  0.50400000000E-02 0.  1.
          2   -1    0    0  501    0  0.00000000000E+00 -0.00000000000E+00 -0.22216476919E+03  0.22216476920E+03  0.25500000000E-02 0. -1.
         24    2    1    2    0    0  0.17763568394E-14  0.35527136788E-14 -0.21510340540E+03  0.22922613479E+03  0.79215818210E+02 0.  0.
         66    2    3    3    0    0 -0.13293820342E+02 -0.24613283882E+02 -0.18865593799E+03  0.19072913361E+03  0.20000171112E+01 0.  0.
        -13    1    3    3    0    0  0.13293820342E+02  0.24613283882E+02 -0.26447467412E+02  0.38497001173E+02  0.10566000000E+00 0.  1.
         13    1    4    4    0    0 -0.60303210150E+01 -0.98881115347E+01 -0.75411994050E+02  0.76296261585E+02  0.10566000000E+00 0. -1.
        -13    1    4    4    0    0 -0.16264753335E+01 -0.43288273775E+01 -0.31289621173E+02  0.31629665279E+02  0.10566000000E+00 0.  1.
         14    1    4    4    0    0 -0.56370239934E+01 -0.10396344970E+02 -0.81954322765E+02  0.82803206750E+02  0.00000000000E+00 0. -1.
<mgrwt>
<rscale>  0 0.79215818E+02</rscale>
<asrwt>0</asrwt>
<pdfrwt beam="1">  1        2 0.34179190E-01 0.79215818E+02</pdfrwt>
<pdfrwt beam="2">  1       -1 0.10863640E-02 0.79215818E+02</pdfrwt>
<totfact> 0.23487491E+05</totfact>
</mgrwt>
</event>
<event>
 8    1  0.1493610E-013  0.7950872E+02  0.7818608E-02  0.1330451E+00
          2   -1    0    0  501    0  0.00000000000E+00  0.00000000000E+00  0.19465940664E+02  0.19465940832E+02  0.25500000000E-02 0. -1.
         -1   -1    0    0    0  501 -0.00000000000E+00 -0.00000000000E+00 -0.81188430380E+02  0.81188430537E+02  0.50400000000E-02 0.  1.
         24    2    1    2    0    0  0.00000000000E+00  0.00000000000E+00 -0.61722489716E+02  0.10065437137E+03  0.79508721149E+02 0.  0.
         66    2    3    3    0    0  0.19328896561E+02 -0.22384747028E+02  0.27021791871E+01  0.29765498694E+02  0.19999995988E+01 0.  0.
        -13    1    3    3    0    0 -0.19328896561E+02  0.22384747028E+02 -0.64424668903E+02  0.70888872674E+02  0.10566000000E+00 0.  1.
         13    1    4    4    0    0  0.80919680232E+01 -0.91122005624E+01  0.15840649332E+01  0.12289530964E+02  0.10566000000E+00 0. -1.
        -13    1    4    4    0    0  0.53302638921E+01 -0.72566158388E+01  0.37379421835E+00  0.90122734503E+01  0.10566000000E+00 0.  1.
         14    1    4    4    0    0  0.59066646453E+01 -0.60159306267E+01  0.74432003556E+00  0.84636942792E+01  0.00000000000E+00 0. -1.
<mgrwt>
<rscale>  0 0.79508721E+02</rscale>
<asrwt>0</asrwt>
<pdfrwt beam="1">  1        2 0.29947602E-02 0.79508721E+02</pdfrwt>
<pdfrwt beam="2">  1       -1 0.12490528E-01 0.79508721E+02</pdfrwt>
<totfact> 0.12568437E+05</totfact>
</mgrwt>
</event>
<event>
 8    1  0.1493610E-013  0.7998358E+02  0.7818608E-02  0.1329098E+00
         -1   -1    0    0    0  501 -0.00000000000E+00  0.00000000000E+00  0.87802330454E+02  0.87802330598E+02  0.50400000000E-02 0.  1.
          2   -1    0    0  501    0  0.00000000000E+00 -0.00000000000E+00 -0.18215273237E+02  0.18215273415E+02  0.25500000000E-02 0. -1.
         24    2    1    2    0    0  0.00000000000E+00 -0.44408920985E-15  0.69587057217E+02  0.10601760401E+03  0.79983584745E+02 0.  0.
         66    2    3    3    0    0  0.18062991627E+02  0.19724331394E+01 -0.12368873854E+02  0.22071502492E+02  0.20000057141E+01 0.  0.
        -13    1    3    3    0    0 -0.18062991627E+02 -0.19724331394E+01  0.81955931071E+02  0.83946101522E+02  0.10566000000E+00 0.  1.
         13    1    4    4    0    0  0.14466443136E+02  0.15206694828E+01 -0.94516023317E+01  0.17347459853E+02  0.10566000000E+00 0. -1.
        -13    1    4    4    0    0  0.50312226594E+00 -0.82561302589E-01 -0.15693232308E+00  0.54381998197E+00  0.10566000000E+00 0. -1.
        -14    1    4    4    0    0  0.30934262254E+01  0.53432495916E+00 -0.27603391989E+01  0.41802226576E+01  0.00000000000E+00 0.  1.
<mgrwt>
<rscale>  0 0.79983585E+02</rscale>
<asrwt>0</asrwt>
<pdfrwt beam="1">  1        2 0.28023497E-02 0.79983585E+02</pdfrwt>
<pdfrwt beam="2">  1       -1 0.13508051E-01 0.79983585E+02</pdfrwt>
<totfact> 0.12187966E+05</totfact>
</mgrwt>
</event>
<event>
 8    1  0.1493610E-013  0.7291250E+02  0.7818608E-02  0.1350460E+00
         -1   -1    0    0    0  501 -0.00000000000E+00  0.00000000000E+00  0.26019978514E+01  0.26020027325E+01  0.50400000000E-02 0.  1.
          2   -1    0    0  501    0  0.00000000000E+00 -0.00000000000E+00 -0.51078322921E+03  0.51078322922E+03  0.25500000000E-02 0. -1.
         24    2    1    2    0    0 -0.35527136788E-14  0.17763568394E-14 -0.50818123136E+03  0.51338523195E+03  0.72912498778E+02 0.  0.
         66    2    3    3    0    0  0.19414794061E+02 -0.79617387496E+01 -0.46395162016E+03  0.46443022012E+03  0.20000000031E+01 0.  0.
        -13    1    3    3    0    0 -0.19414794061E+02  0.79617387496E+01 -0.44229611206E+02  0.48955011836E+02  0.10566000000E+00 0.  1.
         13    1    4    4    0    0  0.44255793471E+01 -0.19974581549E+01 -0.11778734795E+03  0.11788742975E+03  0.10566000000E+00 0. -1.
        -13    1    4    4    0    0  0.24978677076E+01 -0.46112171289E+00 -0.53333536816E+02  0.53394094146E+02  0.10566000000E+00 0.  1.
         14    1    4    4    0    0  0.12491347006E+02 -0.55031588818E+01 -0.29283073538E+03  0.29314869622E+03  0.00000000000E+00 0. -1.
<mgrwt>
<rscale>  0 0.72912499E+02</rscale>
<asrwt>0</asrwt>
<pdfrwt beam="1">  1        2 0.78581956E-01 0.72912499E+02</pdfrwt>
<pdfrwt beam="2">  1       -1 0.40030815E-03 0.72912499E+02</pdfrwt>
<totfact> 0.38994585E+05</totfact>
</mgrwt>
</event>
<event>
 8    1  0.1493610E-013  0.7679799E+02  0.7818608E-02  0.1338392E+00
         -1   -1    0    0    0  501 -0.00000000000E+00  0.00000000000E+00  0.14037570061E+03  0.14037570070E+03  0.50400000000E-02 0.  1.
          2   -1    0    0  501    0  0.00000000000E+00 -0.00000000000E+00 -0.10503830767E+02  0.10503831077E+02  0.25500000000E-02 0. -1.
         24    2    1    2    0    0  0.00000000000E+00  0.00000000000E+00  0.12987186985E+03  0.15087953178E+03  0.76797985214E+02 0.  0.
         66    2    3    3    0    0 -0.81549977017E+01  0.25295868877E+02  0.10602108584E+02  0.28684310576E+02  0.19999992570E+01 0.  0.
        -13    1    3    3    0    0  0.81549977017E+01 -0.25295868877E+02  0.11926976126E+03  0.12219522120E+03  0.10566000000E+00 0.  1.
         13    1    4    4    0    0 -0.40296941801E+01  0.11730666972E+02  0.44300033879E+01  0.13171297462E+02  0.10566000000E+00 0. -1.
        -13    1    4    4    0    0 -0.36033957107E+01  0.12836212041E+02  0.57054466928E+01  0.14502278656E+02  0.10566000000E+00 0.  1.
        -14    1    4    4    0    0 -0.52190781089E+00  0.72898986365E+00  0.46665850366E+00  0.10107344574E+01  0.00000000000E+00 0.  1.
<mgrwt>
<rscale>  0 0.76797985E+02</rscale>
<asrwt>0</asrwt>
<pdfrwt beam="1">  1        2 0.16159740E-02 0.76797985E+02</pdfrwt>
<pdfrwt beam="2">  1       -1 0.21596261E-01 0.76797985E+02</pdfrwt>
<totfact> 0.12157971E+05</totfact>
</mgrwt>
</event>
<event>
 8    1  0.1493610E-013  0.7770111E+02  0.7818608E-02  0.1335705E+00
          2   -1    0    0  501    0  0.00000000000E+00  0.00000000000E+00  0.41890668096E+03  0.41890668096E+03  0.25500000000E-02 0. -1.
         -1   -1    0    0    0  501 -0.00000000000E+00 -0.00000000000E+00 -0.36031052111E+01  0.36031087361E+01  0.50400000000E-02 0.  1.
         24    2    1    2    0    0 -0.35527136788E-14 -0.17763568394E-14  0.41530357575E+03  0.42250978970E+03  0.77701109167E+02 0.  0.
         66    2    3    3    0    0 -0.29708430367E+02 -0.15122366369E+02  0.31600788391E+03  0.31776761872E+03  0.20000044113E+01 0.  0.
        -13    1    3    3    0    0  0.29708430367E+02  0.15122366369E+02  0.99295691840E+02  0.10474217098E+03  0.10566000000E+00 0.  1.
         13    1    4    4    0    0 -0.11298668466E+02 -0.59643801166E+01  0.12183878550E+03  0.12250687554E+03  0.10566000000E+00 0. -1.
        -13    1    4    4    0    0 -0.13828826644E+02 -0.62248920403E+01  0.14594126619E+03  0.14672712793E+03  0.10566000000E+00 0.  1.
        -14    1    4    4    0    0 -0.45809352572E+01 -0.29330942119E+01  0.48227832214E+02  0.48533615254E+02  0.00000000000E+00 0.  1.
<mgrwt>
<rscale>  0 0.77701109E+02</rscale>
<asrwt>0</asrwt>
<pdfrwt beam="1">  1        2 0.64447158E-01 0.77701109E+02</pdfrwt>
<pdfrwt beam="2">  1       -1 0.55432435E-03 0.77701109E+02</pdfrwt>
<totfact> 0.30977834E+05</totfact>
</mgrwt>
</event>
<event>
 8    1  0.1493610E-013  0.8019970E+02  0.7818608E-02  0.1328486E+00
         -1   -1    0    0    0  501 -0.00000000000E+00  0.00000000000E+00  0.26825090973E+01  0.26825138320E+01  0.50400000000E-02 0.  1.
          2   -1    0    0  501    0  0.00000000000E+00 -0.00000000000E+00 -0.59943748111E+03  0.59943748112E+03  0.25500000000E-02 0. -1.
         24    2    1    2    0    0  0.35527136788E-14  0.00000000000E+00 -0.59675497201E+03  0.60211999495E+03  0.80199698837E+02 0.  0.
         66    2    3    3    0    0  0.18519551847E+02 -0.89765431136E+01 -0.55672910625E+03  0.55711295971E+03  0.20000005657E+01 0.  0.
        -13    1    3    3    0    0 -0.18519551847E+02  0.89765431136E+01 -0.40025865761E+02  0.45007035238E+02  0.10566000000E+00 0.  1.
         13    1    4    4    0    0  0.15300251578E+02 -0.80346252623E+01 -0.46868431643E+03  0.46900282785E+03  0.10566000000E+00 0. -1.
        -13    1    4    4    0    0  0.96808781146E+00 -0.34139997257E+00 -0.32806141361E+02  0.32822367724E+02  0.10566000000E+00 0.  1.
         14    1    4    4    0    0  0.22512124575E+01 -0.60051787867E+00 -0.55238648459E+02  0.55287764133E+02  0.00000000000E+00 0. -1.
<mgrwt>
<rscale>  0 0.80199699E+02</rscale>
<asrwt>0</asrwt>
<pdfrwt beam="1">  1        2 0.92221044E-01 0.80199699E+02</pdfrwt>
<pdfrwt beam="2">  1       -1 0.41269455E-03 0.80199699E+02</pdfrwt>
<totfact> 0.31947159E+05</totfact>
</mgrwt>
</event>
<event>
 8    1  0.1493610E-013  0.7983400E+02  0.7818608E-02  0.1329523E+00
         -1   -1    0    0    0  501 -0.00000000000E+00  0.00000000000E+00  0.63748244674E+01  0.63748264598E+01  0.50400000000E-02 0.  1.
          2   -1    0    0  501    0  0.00000000000E+00 -0.00000000000E+00 -0.24994676535E+03  0.24994676536E+03  0.25500000000E-02 0. -1.
         24    2    1    2    0    0  0.17763568394E-14  0.00000000000E+00 -0.24357194088E+03  0.25632159182E+03  0.79834003089E+02 0.  0.
         66    2    3    3    0    0  0.87152134536E+01 -0.10927519728E+02 -0.24182301348E+03  0.24223487666E+03  0.19999967272E+01 0.  0.
        -13    1    3    3    0    0 -0.87152134536E+01  0.10927519728E+02 -0.17489273964E+01  0.14086715161E+02  0.10566000000E+00 0.  1.
         13    1    4    4    0    0  0.52460294800E+01 -0.64901621006E+01 -0.12875326025E+03  0.12902347158E+03  0.10566000000E+00 0. -1.
        -13    1    4    4    0    0  0.72233860929E+00 -0.89352073093E+00 -0.27633115488E+02  0.27657194145E+02  0.10566000000E+00 0.  1.
         14    1    4    4    0    0  0.27468453643E+01 -0.35438368966E+01 -0.85436637740E+02  0.85554210929E+02  0.00000000000E+00 0. -1.
<mgrwt>
<rscale>  0 0.79834003E+02</rscale>
<asrwt>0</asrwt>
<pdfrwt beam="1">  1        2 0.38453341E-01 0.79834003E+02</pdfrwt>
<pdfrwt beam="2">  1       -1 0.98074258E-03 0.79834003E+02</pdfrwt>
<totfact> 0.23997217E+05</totfact>
</mgrwt>
</event>
<event>
 8    1  0.1493610E-013  0.7401388E+02  0.7818608E-02  0.1346952E+00
         -1   -1    0    0    0  501 -0.00000000000E+00  0.00000000000E+00  0.51741387034E+01  0.51741411581E+01  0.50400000000E-02 0.  1.
          2   -1    0    0  501    0  0.00000000000E+00 -0.00000000000E+00 -0.26468427648E+03  0.26468427649E+03  0.25500000000E-02 0. -1.
         24    2    1    2    0    0  0.88817841970E-15 -0.71054273576E-14 -0.25951013777E+03  0.26985841765E+03  0.74013876860E+02 0.  0.
         66    2    3    3    0    0 -0.53186617731E+01  0.31098188894E+02 -0.20018368360E+03  0.20266448307E+03  0.20000003917E+01 0.  0.
        -13    1    3    3    0    0  0.53186617731E+01 -0.31098188894E+02 -0.59326454175E+02  0.67193934581E+02  0.10566000000E+00 0.  1.
         13    1    4    4    0    0 -0.17247915884E+01  0.87230172111E+01 -0.55210153088E+02  0.55921714059E+02  0.10566000000E+00 0. -1.
        -13    1    4    4    0    0 -0.23855894474E+01  0.13077144776E+02 -0.89683125182E+02  0.90662985055E+02  0.10566000000E+00 0.  1.
         14    1    4    4    0    0 -0.12082807373E+01  0.92980269075E+01 -0.55290405330E+02  0.56079783953E+02  0.00000000000E+00 0. -1.
<mgrwt>
<rscale>  0 0.74013877E+02</rscale>
<asrwt>0</asrwt>
<pdfrwt beam="1">  1        2 0.40720647E-01 0.74013877E+02</pdfrwt>
<pdfrwt beam="2">  1       -1 0.79602174E-03 0.74013877E+02</pdfrwt>
<totfact> 0.29859674E+05</totfact>
</mgrwt>
</event>
<event>
 8    1  0.1493610E-013  0.7820971E+02  0.7818608E-02  0.1334210E+00
          2   -1    0    0  501    0  0.00000000000E+00  0.00000000000E+00  0.62128366999E+02  0.62128367052E+02  0.25500000000E-02 0. -1.
         -1   -1    0    0    0  501 -0.00000000000E+00 -0.00000000000E+00 -0.24613386999E+02  0.24613387515E+02  0.50400000000E-02 0.  1.
         24    2    1    2    0    0  0.17763568394E-14  0.35527136788E-14  0.37514980000E+02  0.86741754567E+02  0.78209706948E+02 0.  0.
         66    2    3    3    0    0 -0.14008552237E+02  0.24832957296E+02  0.48411110685E+02  0.56218777455E+02  0.19999992337E+01 0.  0.
        -13    1    3    3    0    0  0.14008552237E+02 -0.24832957296E+02 -0.10896130685E+02  0.30522977112E+02  0.10566000000E+00 0.  1.
         13    1    4    4    0    0 -0.21035378706E+01  0.26758227149E+01  0.65135435280E+01  0.73499872177E+01  0.10566000000E+00 0. -1.
        -13    1    4    4    0    0 -0.17311519839E+01  0.32429135783E+01  0.60666170379E+01  0.70942499243E+01  0.10566000000E+00 0.  1.
         14    1    4    4    0    0 -0.10173862382E+02  0.18914221002E+02  0.35830950120E+02  0.41774540313E+02  0.00000000000E+00 0. -1.
<mgrwt>
<rscale>  0 0.78209707E+02</rscale>
<asrwt>0</asrwt>
<pdfrwt beam="1">  1        2 0.95582102E-02 0.78209707E+02</pdfrwt>
<pdfrwt beam="2">  1       -1 0.37866750E-02 0.78209707E+02</pdfrwt>
<totfact> 0.16686698E+05</totfact>
</mgrwt>
</event>
<event>
 8    1  0.1493610E-013  0.8082246E+02  0.7818608E-02  0.1326733E+00
          2   -1    0    0  501    0  0.00000000000E+00  0.00000000000E+00  0.26029571482E+03  0.26029571483E+03  0.25500000000E-02 0. -1.
         -1   -1    0    0    0  501 -0.00000000000E+00 -0.00000000000E+00 -0.62738921048E+01  0.62738941292E+01  0.50400000000E-02 0.  1.
         24    2    1    2    0    0  0.00000000000E+00  0.00000000000E+00  0.25402182271E+03  0.26656960896E+03  0.80822459789E+02 0.  0.
         66    2    3    3    0    0  0.36661359592E+02  0.53729169435E+01  0.18007986971E+03  0.18386321802E+03  0.19999859003E+01 0.  0.
        -13    1    3    3    0    0 -0.36661359592E+02 -0.53729169435E+01  0.73941952999E+02  0.82706390932E+02  0.10566000000E+00 0.  1.
         13    1    4    4    0    0  0.16281649429E+02  0.20304253225E+01  0.75509068001E+02  0.77271244648E+02  0.10566000000E+00 0.  1.
        -13    1    4    4    0    0  0.34654011409E+01  0.59000927944E+00  0.16908917604E+02  0.17270778054E+02  0.10566000000E+00 0. -1.
        -14    1    4    4    0    0  0.16914309022E+02  0.27524823416E+01  0.87661884106E+02  0.89321195322E+02  0.00000000000E+00 0.  1.
<mgrwt>
<rscale>  0 0.80822460E+02</rscale>
<asrwt>0</asrwt>
<pdfrwt beam="1">  1        2 0.40045493E-01 0.80822460E+02</pdfrwt>
<pdfrwt beam="2">  1       -1 0.96521437E-03 0.80822460E+02</pdfrwt>
<totfact> 0.23574763E+05</totfact>
</mgrwt>
</event>
<event>
 8    1  0.1493610E-013  0.7964055E+02  0.7818608E-02  0.1330075E+00
         -1   -1    0    0    0  501 -0.00000000000E+00  0.00000000000E+00  0.16060033380E+01  0.16060112463E+01  0.50400000000E-02 0.  1.
          2   -1    0    0  501    0  0.00000000000E+00 -0.00000000000E+00 -0.98732690463E+03  0.98732690463E+03  0.25500000000E-02 0. -1.
         24    2    1    2    0    0  0.00000000000E+00  0.00000000000E+00 -0.98572090129E+03  0.98893291588E+03  0.79640547877E+02 0.  0.
         66    2    3    3    0    0  0.11029427185E+02  0.10198969230E+02 -0.95076365184E+03  0.95088442457E+03  0.19999997950E+01 0.  0.
        -13    1    3    3    0    0 -0.11029427185E+02 -0.10198969230E+02 -0.34957249453E+02  0.38048491307E+02  0.10566000000E+00 0.  1.
         13    1    4    4    0    0  0.67157098111E+01  0.65032059513E+01 -0.56327223033E+03  0.56334981057E+03  0.10566000000E+00 0. -1.
        -13    1    4    4    0    0  0.39964054721E+01  0.31568914754E+01 -0.36026818243E+03  0.36030419323E+03  0.10566000000E+00 0.  1.
         14    1    4    4    0    0  0.31731190168E+00  0.53887180325E+00 -0.27223239070E+02  0.27230420766E+02  0.00000000000E+00 0. -1.
<mgrwt>
<rscale>  0 0.79640548E+02</rscale>
<asrwt>0</asrwt>
<pdfrwt beam="1">  1        2 0.15189596E+00 0.79640548E+02</pdfrwt>
<pdfrwt beam="2">  1       -1 0.24707883E-03 0.79640548E+02</pdfrwt>
<totfact> 0.35624340E+05</totfact>
</mgrwt>
</event>
<event>
 8    1  0.1493610E-013  0.7985304E+02  0.7818608E-02  0.1329469E+00
          2   -1    0    0  501    0  0.00000000000E+00  0.00000000000E+00  0.13738507621E+03  0.13738507623E+03  0.25500000000E-02 0. -1.
         -1   -1    0    0    0  501 -0.00000000000E+00 -0.00000000000E+00 -0.11603348718E+02  0.11603349813E+02  0.50400000000E-02 0.  1.
         24    2    1    2    0    0  0.00000000000E+00  0.00000000000E+00  0.12578172749E+03  0.14898842604E+03  0.79853040799E+02 0.  0.
         66    2    3    3    0    0 -0.11823906017E+02 -0.22577379363E+02  0.12021244807E+03  0.12290067318E+03  0.19999957659E+01 0.  0.
        -13    1    3    3    0    0  0.11823906017E+02  0.22577379363E+02  0.55692794153E+01  0.26087752867E+02  0.10566000000E+00 0.  1.
         13    1    4    4    0    0 -0.30932422555E+01 -0.52500459197E+01  0.28086568070E+02  0.28740173969E+02  0.10566000000E+00 0. -1.
        -13    1    4    4    0    0 -0.43145040414E+01 -0.68292762300E+01  0.37838124976E+02  0.38690939827E+02  0.10566000000E+00 0.  1.
         14    1    4    4    0    0 -0.44161597199E+01 -0.10498057214E+02  0.54287755027E+02  0.55469559380E+02  0.00000000000E+00 0. -1.
<mgrwt>
<rscale>  0 0.79853041E+02</rscale>
<asrwt>0</asrwt>
<pdfrwt beam="1">  1        2 0.21136165E-01 0.79853041E+02</pdfrwt>
<pdfrwt beam="2">  1       -1 0.17851307E-02 0.79853041E+02</pdfrwt>
<totfact> 0.19573686E+05</totfact>
</mgrwt>
</event>
<event>
 8    1  0.1493610E-013  0.8116312E+02  0.7818608E-02  0.1325783E+00
         -1   -1    0    0    0  501 -0.00000000000E+00  0.00000000000E+00  0.84916804434E+01  0.84916819391E+01  0.50400000000E-02 0.  1.
          2   -1    0    0  501    0  0.00000000000E+00 -0.00000000000E+00 -0.19393837219E+03  0.19393837221E+03  0.25500000000E-02 0. -1.
         24    2    1    2    0    0  0.00000000000E+00  0.00000000000E+00 -0.18544669175E+03  0.20243005415E+03  0.81163115649E+02 0.  0.
         66    2    3    3    0    0 -0.12929176394E+02  0.75163039115E+01 -0.18680458951E+03  0.18741294800E+03  0.19999979641E+01 0.  0.
        -13    1    3    3    0    0  0.12929176394E+02 -0.75163039115E+01  0.13578977545E+01  0.15017106148E+02  0.10566000000E+00 0.  1.
         13    1    4    4    0    0 -0.66142073847E+01  0.30906666391E+01 -0.84217105896E+02  0.84533023423E+02  0.10566000000E+00 0. -1.
        -13    1    4    4    0    0 -0.25014076996E+01  0.13098592418E+01 -0.36453520550E+02  0.36562864989E+02  0.10566000000E+00 0. -1.
        -14    1    4    4    0    0 -0.38135613096E+01  0.31157780307E+01 -0.66133963060E+02  0.66317059589E+02  0.00000000000E+00 0.  1.
<mgrwt>
<rscale>  0 0.81163116E+02</rscale>
<asrwt>0</asrwt>
<pdfrwt beam="1">  1        2 0.29836669E-01 0.81163116E+02</pdfrwt>
<pdfrwt beam="2">  1       -1 0.13064126E-02 0.81163116E+02</pdfrwt>
<totfact> 0.21008100E+05</totfact>
</mgrwt>
</event>
<event>
 8    1  0.1493610E-013  0.8199088E+02  0.7818608E-02  0.1323495E+00
          2   -1    0    0  501    0  0.00000000000E+00  0.00000000000E+00  0.14248541756E+02  0.14248541985E+02  0.25500000000E-02 0. -1.
         -1   -1    0    0    0  501 -0.00000000000E+00 -0.00000000000E+00 -0.11795073080E+03  0.11795073090E+03  0.50400000000E-02 0.  1.
         24    2    1    2    0    0  0.00000000000E+00  0.00000000000E+00 -0.10370218904E+03  0.13219927289E+03  0.81990875959E+02 0.  0.
         66    2    3    3    0    0  0.19888417551E+02  0.67070009798E+01  0.48516010076E+01  0.21634949924E+02  0.20000027624E+01 0.  0.
        -13    1    3    3    0    0 -0.19888417551E+02 -0.67070009798E+01 -0.10855379005E+03  0.11056432296E+03  0.10566000000E+00 0.  1.
         13    1    4    4    0    0  0.89535688598E+01  0.22389696835E+01  0.15133326200E+01  0.93531128629E+01  0.10566000000E+00 0. -1.
        -13    1    4    4    0    0  0.25934719178E+01  0.10875956913E+01  0.64595879975E+00  0.28874535118E+01  0.10566000000E+00 0.  1.
         14    1    4    4    0    0  0.83413767738E+01  0.33804356050E+01  0.26923095878E+01  0.93943835497E+01  0.00000000000E+00 0. -1.
<mgrwt>
<rscale>  0 0.81990876E+02</rscale>
<asrwt>0</asrwt>
<pdfrwt beam="1">  1        2 0.21920834E-02 0.81990876E+02</pdfrwt>
<pdfrwt beam="2">  1       -1 0.18146266E-01 0.81990876E+02</pdfrwt>
<totfact> 0.10745796E+05</totfact>
</mgrwt>
</event>
<event>
 8    1  0.1493610E-013  0.7873985E+02  0.7818608E-02  0.1332666E+00
          2   -1    0    0  501    0  0.00000000000E+00  0.00000000000E+00  0.60810388701E+01  0.60810394047E+01  0.25500000000E-02 0. -1.
         -1   -1    0    0    0  501 -0.00000000000E+00 -0.00000000000E+00 -0.25488915495E+03  0.25488915500E+03  0.50400000000E-02 0.  1.
         24    2    1    2    0    0  0.00000000000E+00  0.44408920985E-15 -0.24880811608E+03  0.26097019440E+03  0.78739848490E+02 0.  0.
         66    2    3    3    0    0  0.36919666760E+02  0.30316405698E+01 -0.80547799567E+02  0.88680328437E+02  0.19999995739E+01 0.  0.
        -13    1    3    3    0    0 -0.36919666760E+02 -0.30316405698E+01 -0.16826031651E+03  0.17228986597E+03  0.10566000000E+00 0.  1.
         13    1    4    4    0    0  0.98944547820E+01  0.61381925203E+00 -0.20047985452E+02  0.22365372660E+02  0.10566000000E+00 0. -1.
        -13    1    4    4    0    0  0.21228678374E+02  0.14575684939E+01 -0.47694393535E+02  0.52225928715E+02  0.10566000000E+00 0.  1.
         14    1    4    4    0    0  0.57965336042E+01  0.96025282389E+00 -0.12805420580E+02  0.14089027062E+02  0.00000000000E+00 0. -1.
<mgrwt>
<rscale>  0 0.78739848E+02</rscale>
<asrwt>0</asrwt>
<pdfrwt beam="1">  1        2 0.93554468E-03 0.78739848E+02</pdfrwt>
<pdfrwt beam="2">  1       -1 0.39213708E-01 0.78739848E+02</pdfrwt>
<totfact> 0.95782751E+04</totfact>
</mgrwt>
</event>
<event>
 8    1  0.1493610E-013  0.7771325E+02  0.7818608E-02  0.1335669E+00
         -1   -1    0    0    0  501 -0.00000000000E+00  0.00000000000E+00  0.41024530453E+01  0.41024561412E+01  0.50400000000E-02 0.  1.
          2   -1    0    0  501    0  0.00000000000E+00 -0.00000000000E+00 -0.36803266098E+03  0.36803266099E+03  0.25500000000E-02 0. -1.
         24    2    1    2    0    0  0.00000000000E+00  0.00000000000E+00 -0.36393020793E+03  0.37213511713E+03  0.77713249540E+02 0.  0.
         66    2    3    3    0    0 -0.62539552005E+01  0.20402355913E+02 -0.33743457588E+03  0.33811456798E+03  0.19999998573E+01 0.  0.
        -13    1    3    3    0    0  0.62539552005E+01 -0.20402355913E+02 -0.26495632059E+02  0.34020549153E+02  0.10566000000E+00 0.  1.
         13    1    4    4    0    0 -0.21801494353E+01  0.68852120597E+01 -0.11906257298E+03  0.11928145977E+03  0.10566000000E+00 0. -1.
        -13    1    4    4    0    0 -0.14927742801E+01  0.64216739140E+01 -0.11140865084E+03  0.11160360620E+03  0.10566000000E+00 0.  1.
         14    1    4    4    0    0 -0.25810314851E+01  0.70954699390E+01 -0.10696335206E+03  0.10722950200E+03  0.00000000000E+00 0. -1.
<mgrwt>
<rscale>  0 0.77713250E+02</rscale>
<asrwt>0</asrwt>
<pdfrwt beam="1">  1        2 0.56620384E-01 0.77713250E+02</pdfrwt>
<pdfrwt beam="2">  1       -1 0.63114715E-03 0.77713250E+02</pdfrwt>
<totfact> 0.29593534E+05</totfact>
</mgrwt>
</event>
<event>
 8    1  0.1493610E-013  0.8234956E+02  0.7818608E-02  0.1322513E+00
         -1   -1    0    0    0  501 -0.00000000000E+00  0.00000000000E+00  0.41563354165E+01  0.41563384723E+01  0.50400000000E-02 0.  1.
          2   -1    0    0  501    0  0.00000000000E+00 -0.00000000000E+00 -0.40789819750E+03  0.40789819751E+03  0.25500000000E-02 0. -1.
         24    2    1    2    0    0 -0.22204460493E-15 -0.35527136788E-14 -0.40374186209E+03  0.41205453598E+03  0.82349556303E+02 0.  0.
         66    2    3    3    0    0 -0.12046474057E+01 -0.26423204501E+02 -0.35972375560E+03  0.36070045363E+03  0.19999989636E+01 0.  0.
        -13    1    3    3    0    0  0.12046474057E+01  0.26423204501E+02 -0.44018106486E+02  0.51354082351E+02  0.10566000000E+00 0.  1.
         13    1    4    4    0    0 -0.11461420449E+01 -0.20052251047E+02 -0.28208452092E+03  0.28279868196E+03  0.10566000000E+00 0. -1.
        -13    1    4    4    0    0 -0.11655481049E+00 -0.22760911723E+01 -0.25402386645E+02  0.25504638546E+02  0.10566000000E+00 0.  1.
         14    1    4    4    0    0  0.58049449662E-01 -0.40948622814E+01 -0.52236848037E+02  0.52397133124E+02  0.00000000000E+00 0. -1.
<mgrwt>
<rscale>  0 0.82349556E+02</rscale>
<asrwt>0</asrwt>
<pdfrwt beam="1">  1        2 0.62753537E-01 0.82349556E+02</pdfrwt>
<pdfrwt beam="2">  1       -1 0.63943678E-03 0.82349556E+02</pdfrwt>
<totfact> 0.26372770E+05</totfact>
</mgrwt>
</event>
<event>
 8    1  0.1493610E-013  0.8297054E+02  0.7818608E-02  0.1320827E+00
          2   -1    0    0  501    0  0.00000000000E+00  0.00000000000E+00  0.42106191522E+03  0.42106191523E+03  0.25500000000E-02 0. -1.
         -1   -1    0    0    0  501 -0.00000000000E+00 -0.00000000000E+00 -0.40873493959E+01  0.40873525032E+01  0.50400000000E-02 0.  1.
         24    2    1    2    0    0  0.00000000000E+00  0.00000000000E+00  0.41697456582E+03  0.42514926773E+03  0.82970544821E+02 0.  0.
         66    2    3    3    0    0 -0.35659237874E+02 -0.21152249315E+02  0.20781516901E+03  0.21192013431E+03  0.19999903557E+01 0.  0.
        -13    1    3    3    0    0  0.35659237874E+02  0.21152249315E+02  0.20915939682E+03  0.21322913342E+03  0.10566000000E+00 0.  1.
         13    1    4    4    0    0 -0.20467039185E+02 -0.12136825625E+02  0.11962939982E+03  0.12197297526E+03  0.10566000000E+00 0. -1.
        -13    1    4    4    0    0 -0.12959261017E+02 -0.73782244564E+01  0.72311086330E+02  0.73832817991E+02  0.10566000000E+00 0.  1.
         14    1    4    4    0    0 -0.22329376718E+01 -0.16371992332E+01  0.15874682856E+02  0.16114341059E+02  0.00000000000E+00 0. -1.
<mgrwt>
<rscale>  0 0.82970545E+02</rscale>
<asrwt>0</asrwt>
<pdfrwt beam="1">  1        2 0.64778690E-01 0.82970545E+02</pdfrwt>
<pdfrwt beam="2">  1       -1 0.62882387E-03 0.82970545E+02</pdfrwt>
<totfact> 0.26145268E+05</totfact>
</mgrwt>
</event>
<event>
 8    1  0.1493610E-013  0.7073854E+02  0.7818608E-02  0.1357599E+00
         -1   -1    0    0    0  501 -0.00000000000E+00  0.00000000000E+00  0.16644133255E+01  0.16644209563E+01  0.50400000000E-02 0.  1.
          2   -1    0    0  501    0  0.00000000000E+00 -0.00000000000E+00 -0.75160565046E+03  0.75160565047E+03  0.25500000000E-02 0. -1.
         24    2    1    2    0    0  0.00000000000E+00  0.71054273576E-14 -0.74994123714E+03  0.75327007142E+03  0.70738542134E+02 0.  0.
         66    2    3    3    0    0 -0.16336256833E+02 -0.18057853401E+02 -0.64801247715E+03  0.64847292150E+03  0.20000029606E+01 0.  0.
        -13    1    3    3    0    0  0.16336256833E+02  0.18057853401E+02 -0.10192875998E+03  0.10479714993E+03  0.10566000000E+00 0.  1.
         13    1    4    4    0    0 -0.60310869257E+00 -0.10535715700E+01 -0.36787093097E+02  0.36807270147E+02  0.10566000000E+00 0. -1.
        -13    1    4    4    0    0 -0.13843951718E+01 -0.16562877040E+01 -0.66977074421E+02  0.67011935512E+02  0.10566000000E+00 0.  1.
         14    1    4    4    0    0 -0.14348752969E+02 -0.15347994127E+02 -0.54424830964E+03  0.54465371584E+03  0.00000000000E+00 0. -1.
<mgrwt>
<rscale>  0 0.70738542E+02</rscale>
<asrwt>0</asrwt>
<pdfrwt beam="1">  1        2 0.11563137E+00 0.70738542E+02</pdfrwt>
<pdfrwt beam="2">  1       -1 0.25606478E-03 0.70738542E+02</pdfrwt>
<totfact> 0.46668117E+05</totfact>
</mgrwt>
</event>
<event>
 8    1  0.1493610E-013  0.7940984E+02  0.7818608E-02  0.1330735E+00
         -1   -1    0    0    0  501 -0.00000000000E+00  0.00000000000E+00  0.42315371667E+01  0.42315401681E+01  0.50400000000E-02 0.  1.
          2   -1    0    0  501    0  0.00000000000E+00 -0.00000000000E+00 -0.37255490729E+03  0.37255490730E+03  0.25500000000E-02 0. -1.
         24    2    1    2    0    0  0.44408920985E-15  0.00000000000E+00 -0.36832337012E+03  0.37678644746E+03  0.79409835761E+02 0.  0.
         66    2    3    3    0    0  0.38746140360E+01 -0.15794283367E+02 -0.35601254236E+03  0.35638939706E+03  0.19999992277E+01 0.  0.
        -13    1    3    3    0    0 -0.38746140360E+01  0.15794283367E+02 -0.12310827757E+02  0.20397050402E+02  0.10566000000E+00 0.  1.
         13    1    4    4    0    0  0.20034382689E+01 -0.10965388103E+02 -0.25385387378E+03  0.25409851219E+03  0.10566000000E+00 0. -1.
        -13    1    4    4    0    0  0.52286983284E+00 -0.19227719515E+01 -0.38864544960E+02  0.38915735427E+02  0.10566000000E+00 0. -1.
         14    1    4    4    0    0  0.13483059342E+01 -0.29061233127E+01 -0.63294123625E+02  0.63375149444E+02  0.00000000000E+00 0. -1.
<mgrwt>
<rscale>  0 0.79409836E+02</rscale>
<asrwt>0</asrwt>
<pdfrwt beam="1">  1        2 0.57316114E-01 0.79409836E+02</pdfrwt>
<pdfrwt beam="2">  1       -1 0.65100625E-03 0.79409836E+02</pdfrwt>
<totfact> 0.28092633E+05</totfact>
</mgrwt>
</event>
<event>
 8    1  0.1493610E-013  0.7993397E+02  0.7818608E-02  0.1329239E+00
         -1   -1    0    0    0  501 -0.00000000000E+00  0.00000000000E+00  0.11156266392E+03  0.11156266404E+03  0.50400000000E-02 0.  1.
          2   -1    0    0  501    0  0.00000000000E+00 -0.00000000000E+00 -0.14318049272E+02  0.14318049499E+02  0.25500000000E-02 0. -1.
         24    2    1    2    0    0 -0.88817841970E-15  0.00000000000E+00  0.97244614652E+02  0.12588071354E+03  0.79933966258E+02 0.  0.
         66    2    3    3    0    0  0.69517244418E+01  0.17175513955E+02 -0.70704296401E+01  0.19932781126E+02  0.20000089520E+01 0.  0.
        -13    1    3    3    0    0 -0.69517244418E+01 -0.17175513955E+02  0.10431504429E+03  0.10594793241E+03  0.10566000000E+00 0.  1.
         13    1    4    4    0    0  0.13398237322E+01  0.42702356746E+01 -0.11759538435E+01  0.46286144610E+01  0.10566000000E+00 0.  1.
        -13    1    4    4    0    0  0.33579554928E+01  0.90681025102E+01 -0.41790608974E+01  0.10534802430E+02  0.10566000000E+00 0. -1.
         14    1    4    4    0    0  0.22539452169E+01  0.38371757701E+01 -0.17154148992E+01  0.47693642351E+01  0.00000000000E+00 0. -1.
<mgrwt>
<rscale>  0 0.79933966E+02</rscale>
<asrwt>0</asrwt>
<pdfrwt beam="1">  1        2 0.22027769E-02 0.79933966E+02</pdfrwt>
<pdfrwt beam="2">  1       -1 0.17163486E-01 0.79933966E+02</pdfrwt>
<totfact> 0.11597267E+05</totfact>
</mgrwt>
</event>
<event>
 8    1  0.1493610E-013  0.7530945E+02  0.7818608E-02  0.1342915E+00
         -1   -1    0    0    0  501 -0.00000000000E+00  0.00000000000E+00  0.19137499244E+01  0.19137565610E+01  0.50400000000E-02 0.  1.
          2   -1    0    0  501    0  0.00000000000E+00 -0.00000000000E+00 -0.74088869172E+03  0.74088869172E+03  0.25500000000E-02 0. -1.
         24    2    1    2    0    0  0.00000000000E+00  0.35527136788E-14 -0.73897494179E+03  0.74280244828E+03  0.75309445469E+02 0.  0.
         66    2    3    3    0    0  0.24503189566E+02  0.22472017903E+02 -0.54354240737E+03  0.54456197672E+03  0.19999999610E+01 0.  0.
        -13    1    3    3    0    0 -0.24503189566E+02 -0.22472017903E+02 -0.19543253443E+03  0.19824047156E+03  0.10566000000E+00 0.  1.
         13    1    4    4    0    0  0.14413403598E+02  0.12740487053E+02 -0.32359727880E+03  0.32416859229E+03  0.10566000000E+00 0. -1.
        -13    1    4    4    0    0  0.99890134088E+01  0.95415722942E+01 -0.21774837748E+03  0.21818613396E+03  0.10566000000E+00 0.  1.
         14    1    4    4    0    0  0.10077255968E+00  0.18995855616E+00 -0.21967510770E+01  0.22072504743E+01  0.00000000000E+00 0. -1.
<mgrwt>
<rscale>  0 0.75309445E+02</rscale>
<asrwt>0</asrwt>
<pdfrwt beam="1">  1        2 0.11398265E+00 0.75309445E+02</pdfrwt>
<pdfrwt beam="2">  1       -1 0.29442417E-03 0.75309445E+02</pdfrwt>
<totfact> 0.39607036E+05</totfact>
</mgrwt>
</event>
<event>
 8    1  0.1493610E-013  0.7665541E+02  0.7818608E-02  0.1338820E+00
         -1   -1    0    0    0  501 -0.00000000000E+00  0.00000000000E+00  0.14104957821E+02  0.14104958721E+02  0.50400000000E-02 0.  1.
          2   -1    0    0  501    0  0.00000000000E+00 -0.00000000000E+00 -0.10414869416E+03  0.10414869419E+03  0.25500000000E-02 0. -1.
         24    2    1    2    0    0  0.00000000000E+00  0.00000000000E+00 -0.90043736335E+02  0.11825365291E+03  0.76655410592E+02 0.  0.
         66    2    3    3    0    0 -0.11753948237E+02  0.26117815796E+02 -0.84283249348E+02  0.89039102159E+02  0.19999978937E+01 0.  0.
        -13    1    3    3    0    0  0.11753948237E+02 -0.26117815796E+02 -0.57604869871E+01  0.29214550749E+02  0.10566000000E+00 0.  1.
         13    1    4    4    0    0 -0.19706594982E+01  0.35221330763E+01 -0.12211726866E+02  0.12861817809E+02  0.10566000000E+00 0.  1.
        -13    1    4    4    0    0 -0.50435221862E+01  0.10619951013E+02 -0.36411687876E+02  0.38262810320E+02  0.10566000000E+00 0. -1.
        -14    1    4    4    0    0 -0.47397665522E+01  0.11975731707E+02 -0.35659834606E+02  0.37914474030E+02  0.00000000000E+00 0.  1.
<mgrwt>
<rscale>  0 0.76655411E+02</rscale>
<asrwt>0</asrwt>
<pdfrwt beam="1">  1        2 0.16022876E-01 0.76655411E+02</pdfrwt>
<pdfrwt beam="2">  1       -1 0.21699936E-02 0.76655411E+02</pdfrwt>
<totfact> 0.20095381E+05</totfact>
</mgrwt>
</event>
<event>
 8    1  0.1493610E-013  0.7851943E+02  0.7818608E-02  0.1333306E+00
          2   -1    0    0  501    0  0.00000000000E+00  0.00000000000E+00  0.57069888869E+03  0.57069888870E+03  0.25500000000E-02 0. -1.
         -1   -1    0    0    0  501 -0.00000000000E+00 -0.00000000000E+00 -0.27007652248E+01  0.27007699275E+01  0.50400000000E-02 0.  1.
         24    2    1    2    0    0  0.00000000000E+00 -0.17763568394E-14  0.56799812347E+03  0.57339965862E+03  0.78519425935E+02 0.  0.
         66    2    3    3    0    0 -0.35633660837E+02  0.61842560712E+01  0.39524963687E+03  0.39690588085E+03  0.19999998605E+01 0.  0.
        -13    1    3    3    0    0  0.35633660837E+02 -0.61842560712E+01  0.17274848660E+03  0.17649377778E+03  0.10566000000E+00 0.  1.
         13    1    4    4    0    0 -0.63123293099E+01  0.13347824296E+01  0.78102683779E+02  0.78368791767E+02  0.10566000000E+00 0. -1.
        -13    1    4    4    0    0 -0.18994918661E+01  0.26349182611E+00  0.19304057527E+02  0.19399363349E+02  0.10566000000E+00 0. -1.
         14    1    4    4    0    0 -0.27421839661E+02  0.45859818155E+01  0.29784289556E+03  0.29913772573E+03  0.00000000000E+00 0. -1.
<mgrwt>
<rscale>  0 0.78519426E+02</rscale>
<asrwt>0</asrwt>
<pdfrwt beam="1">  1        2 0.87799944E-01 0.78519426E+02</pdfrwt>
<pdfrwt beam="2">  1       -1 0.41550216E-03 0.78519426E+02</pdfrwt>
<totfact> 0.33286369E+05</totfact>
</mgrwt>
</event>
<event>
 8    1  0.1493610E-013  0.8234065E+02  0.7818608E-02  0.1322537E+00
          2   -1    0    0  501    0  0.00000000000E+00  0.00000000000E+00  0.46486528581E+03  0.46486528581E+03  0.25500000000E-02 0. -1.
         -1   -1    0    0    0  501 -0.00000000000E+00 -0.00000000000E+00 -0.36462067261E+01  0.36462102094E+01  0.50400000000E-02 0.  1.
         24    2    1    2    0    0  0.00000000000E+00  0.00000000000E+00  0.46121907908E+03  0.46851149602E+03  0.82340652158E+02 0.  0.
         66    2    3    3    0    0 -0.39776786295E+02 -0.84983844203E+01  0.26608481574E+03  0.26918310577E+03  0.20000002977E+01 0.  0.
        -13    1    3    3    0    0  0.39776786295E+02  0.84983844203E+01  0.19513426334E+03  0.19932839025E+03  0.10566000000E+00 0.  1.
         13    1    4    4    0    0 -0.25282736864E+02 -0.51616713756E+01  0.17392934865E+03  0.17583312862E+03  0.10566000000E+00 0. -1.
        -13    1    4    4    0    0 -0.16745509676E+01 -0.55897278724E+00  0.10756262766E+02  0.10900684577E+02  0.10566000000E+00 0.  1.
         14    1    4    4    0    0 -0.12819498463E+02 -0.27777402575E+01  0.81399204324E+02  0.82449292576E+02  0.00000000000E+00 0. -1.
<mgrwt>
<rscale>  0 0.82340652E+02</rscale>
<asrwt>0</asrwt>
<pdfrwt beam="1">  1        2 0.71517704E-01 0.82340652E+02</pdfrwt>
<pdfrwt beam="2">  1       -1 0.56095540E-03 0.82340652E+02</pdfrwt>
<totfact> 0.27581276E+05</totfact>
</mgrwt>
</event>
<event>
 8    1  0.1493610E-013  0.8085968E+02  0.7818608E-02  0.1326629E+00
          2   -1    0    0  501    0  0.00000000000E+00  0.00000000000E+00  0.18593404040E+02  0.18593404215E+02  0.25500000000E-02 0. -1.
         -1   -1    0    0    0  501 -0.00000000000E+00 -0.00000000000E+00 -0.87911387614E+02  0.87911387759E+02  0.50400000000E-02 0.  1.
         24    2    1    2    0    0  0.88817841970E-15  0.71054273576E-14 -0.69317983574E+02  0.10650479197E+03  0.80859680104E+02 0.  0.
         66    2    3    3    0    0  0.51615766107E+01  0.39146915871E+02 -0.45968100045E+02  0.60631584977E+02  0.19999949239E+01 0.  0.
        -13    1    3    3    0    0 -0.51615766107E+01 -0.39146915871E+02 -0.23349883529E+02  0.45873206997E+02  0.10566000000E+00 0.  1.
         13    1    4    4    0    0  0.30905164178E+01  0.24086282138E+02 -0.28274187058E+02  0.37271183196E+02  0.10566000000E+00 0. -1.
        -13    1    4    4    0    0 -0.15699413587E-01  0.33744701286E+01 -0.41736674700E+01  0.53682361448E+01  0.10566000000E+00 0.  1.
        -14    1    4    4    0    0  0.20867596064E+01  0.11686163604E+02 -0.13520245517E+02  0.17992165636E+02  0.00000000000E+00 0.  1.
<mgrwt>
<rscale>  0 0.80859680E+02</rscale>
<asrwt>0</asrwt>
<pdfrwt beam="1">  1        2 0.28605238E-02 0.80859680E+02</pdfrwt>
<pdfrwt beam="2">  1       -1 0.13524829E-01 0.80859680E+02</pdfrwt>
<totfact> 0.11860274E+05</totfact>
</mgrwt>
</event>
<event>
 8    1  0.1493610E-013  0.8004940E+02  0.7818608E-02  0.1328911E+00
          2   -1    0    0  501    0  0.00000000000E+00  0.00000000000E+00  0.61248989633E+03  0.61248989633E+03  0.25500000000E-02 0. -1.
         -1   -1    0    0    0  501 -0.00000000000E+00 -0.00000000000E+00 -0.26155130446E+01  0.26155179006E+01  0.50400000000E-02 0.  1.
         24    2    1    2    0    0  0.35527136788E-14  0.88817841970E-15  0.60987438328E+03  0.61510541423E+03  0.80049404960E+02 0.  0.
         66    2    3    3    0    0 -0.18092117409E+02 -0.41768986069E+01  0.57736455617E+03  0.57766651445E+03  0.19999990219E+01 0.  0.
        -13    1    3    3    0    0  0.18092117409E+02  0.41768986069E+01  0.32509827109E+02  0.37438899783E+02  0.10566000000E+00 0.  1.
         13    1    4    4    0    0 -0.64157214544E+00 -0.39774194077E+00  0.33901341461E+02  0.33909909029E+02  0.10566000000E+00 0. -1.
        -13    1    4    4    0    0 -0.12916221133E+02 -0.26671799133E+01  0.39761651076E+03  0.39783519629E+03  0.10566000000E+00 0.  1.
         14    1    4    4    0    0 -0.45343241311E+01 -0.11119767528E+01  0.14584670395E+03  0.14592140913E+03  0.00000000000E+00 0. -1.
<mgrwt>
<rscale>  0 0.80049405E+02</rscale>
<asrwt>0</asrwt>
<pdfrwt beam="1">  1        2 0.94229150E-01 0.80049405E+02</pdfrwt>
<pdfrwt beam="2">  1       -1 0.40238727E-03 0.80049405E+02</pdfrwt>
<totfact> 0.32294627E+05</totfact>
</mgrwt>
</event>
<event>
 8    1  0.1493610E-013  0.7918506E+02  0.7818608E-02  0.1331380E+00
         -1   -1    0    0    0  501 -0.00000000000E+00  0.00000000000E+00  0.72331885958E+01  0.72331903517E+01  0.50400000000E-02 0.  1.
          2   -1    0    0  501    0  0.00000000000E+00 -0.00000000000E+00 -0.21671883508E+03  0.21671883510E+03  0.25500000000E-02 0. -1.
         24    2    1    2    0    0  0.35527136788E-14 -0.17763568394E-14 -0.20948564648E+03  0.22395202545E+03  0.79185059315E+02 0.  0.
         66    2    3    3    0    0 -0.23660452707E+02 -0.15085255988E+02 -0.18370494860E+03  0.18584641539E+03  0.20000006182E+01 0.  0.
        -13    1    3    3    0    0  0.23660452707E+02  0.15085255988E+02 -0.25780697889E+02  0.38105610062E+02  0.10566000000E+00 0.  1.
         13    1    4    4    0    0 -0.17833830865E+02 -0.11146391885E+02 -0.13760613710E+03  0.13920397878E+03  0.10566000000E+00 0. -1.
        -13    1    4    4    0    0 -0.37184040369E+01 -0.25677744980E+01 -0.32530950303E+02  0.32843475548E+02  0.10566000000E+00 0.  1.
        -14    1    4    4    0    0 -0.21082178044E+01 -0.13710896049E+01 -0.13567861190E+02  0.13798961059E+02  0.00000000000E+00 0.  1.
<mgrwt>
<rscale>  0 0.79185059E+02</rscale>
<asrwt>0</asrwt>
<pdfrwt beam="1">  1        2 0.33341354E-01 0.79185059E+02</pdfrwt>
<pdfrwt beam="2">  1       -1 0.11127986E-02 0.79185059E+02</pdfrwt>
<totfact> 0.23306832E+05</totfact>
</mgrwt>
</event>
<event>
 8    1  0.1493610E-013  0.7798149E+02  0.7818608E-02  0.1334879E+00
          2   -1    0    0  501    0  0.00000000000E+00  0.00000000000E+00  0.14238947646E+03  0.14238947649E+03  0.25500000000E-02 0. -1.
         -1   -1    0    0    0  501 -0.00000000000E+00 -0.00000000000E+00 -0.10676899336E+02  0.10676900525E+02  0.50400000000E-02 0.  1.
         24    2    1    2    0    0  0.17763568394E-14  0.00000000000E+00  0.13171257713E+03  0.15306637701E+03  0.77981490098E+02 0.  0.
         66    2    3    3    0    0 -0.13527656726E+02  0.35473846967E+02  0.48688708966E+02  0.61773632701E+02  0.20000002894E+01 0.  0.
        -13    1    3    3    0    0  0.13527656726E+02 -0.35473846967E+02  0.83023868164E+02  0.91292744312E+02  0.10566000000E+00 0.  1.
         13    1    4    4    0    0 -0.14840320519E+01  0.47037199552E+01  0.68906737042E+01  0.84746610954E+01  0.10566000000E+00 0. -1.
        -13    1    4    4    0    0 -0.10181891681E+02  0.25040969929E+02  0.33547150348E+02  0.43082984503E+02  0.10566000000E+00 0.  1.
        -14    1    4    4    0    0 -0.18617329933E+01  0.57291570836E+01  0.82508849130E+01  0.10215987102E+02  0.00000000000E+00 0.  1.
<mgrwt>
<rscale>  0 0.77981490E+02</rscale>
<asrwt>0</asrwt>
<pdfrwt beam="1">  1        2 0.21906073E-01 0.77981490E+02</pdfrwt>
<pdfrwt beam="2">  1       -1 0.16426000E-02 0.77981490E+02</pdfrwt>
<totfact> 0.21081021E+05</totfact>
</mgrwt>
</event>
<event>
 8    1  0.1493610E-013  0.8048500E+02  0.7818608E-02  0.1327681E+00
          2   -1    0    0  501    0  0.00000000000E+00  0.00000000000E+00  0.25855471379E+03  0.25855471380E+03  0.25500000000E-02 0. -1.
         -1   -1    0    0    0  501 -0.00000000000E+00 -0.00000000000E+00 -0.62635045924E+01  0.62635066201E+01  0.50400000000E-02 0.  1.
         24    2    1    2    0    0 -0.17763568394E-14  0.35527136788E-14  0.25229120920E+03  0.26481822043E+03  0.80485002513E+02 0.  0.
         66    2    3    3    0    0  0.14728342760E+02 -0.29853168518E+02  0.20047858710E+03  0.20323336251E+03  0.20000005889E+01 0.  0.
        -13    1    3    3    0    0 -0.14728342760E+02  0.29853168518E+02  0.51812622105E+02  0.61584857915E+02  0.10566000000E+00 0.  1.
         13    1    4    4    0    0  0.51354387029E+01 -0.11841744419E+02  0.75075255276E+02  0.76176799358E+02  0.10566000000E+00 0. -1.
        -13    1    4    4    0    0  0.27056402468E+01 -0.44475271529E+01  0.30231820333E+02  0.30676947561E+02  0.10566000000E+00 0.  1.
        -14    1    4    4    0    0  0.68872638099E+01 -0.13563896947E+02  0.95171511486E+02  0.96379615592E+02  0.00000000000E+00 0.  1.
<mgrwt>
<rscale>  0 0.80485003E+02</rscale>
<asrwt>0</asrwt>
<pdfrwt beam="1">  1        2 0.39777657E-01 0.80485003E+02</pdfrwt>
<pdfrwt beam="2">  1       -1 0.96361605E-03 0.80485003E+02</pdfrwt>
<totfact> 0.23777813E+05</totfact>
</mgrwt>
</event>
<event>
 8    1  0.1493610E-013  0.7917313E+02  0.7818608E-02  0.1331414E+00
         -1   -1    0    0    0  501 -0.00000000000E+00  0.00000000000E+00  0.29579825503E+03  0.29579825508E+03  0.50400000000E-02 0.  1.
          2   -1    0    0  501    0  0.00000000000E+00 -0.00000000000E+00 -0.52978535755E+01  0.52978541892E+01  0.25500000000E-02 0. -1.
         24    2    1    2    0    0  0.00000000000E+00  0.00000000000E+00  0.29050040146E+03  0.30109610927E+03  0.79173125286E+02 0.  0.
         66    2    3    3    0    0 -0.37788976953E+02 -0.54408097825E+01  0.10591553073E+03  0.11260421327E+03  0.20000015099E+01 0.  0.
        -13    1    3    3    0    0  0.37788976953E+02  0.54408097825E+01  0.18458487073E+03  0.18849189600E+03  0.10566000000E+00 0.  1.
         13    1    4    4    0    0 -0.26944666923E+02 -0.32958569446E+01  0.76781439812E+02  0.81438801638E+02  0.10566000000E+00 0. -1.
        -13    1    4    4    0    0 -0.77202061162E+01 -0.12954586796E+01  0.20417269285E+02  0.21866774905E+02  0.10566000000E+00 0.  1.
         14    1    4    4    0    0 -0.31241039143E+01 -0.84949415829E+00  0.87168216287E+01  0.92986367226E+01  0.00000000000E+00 0. -1.
<mgrwt>
<rscale>  0 0.79173125E+02</rscale>
<asrwt>0</asrwt>
<pdfrwt beam="1">  1        2 0.81505417E-03 0.79173125E+02</pdfrwt>
<pdfrwt beam="2">  1       -1 0.45507440E-01 0.79173125E+02</pdfrwt>
<totfact> 0.89270905E+04</totfact>
</mgrwt>
</event>
<event>
 8    1  0.1493610E-013  0.8068177E+02  0.7818608E-02  0.1327128E+00
          2   -1    0    0  501    0  0.00000000000E+00  0.00000000000E+00  0.13617840013E+04  0.13617840013E+04  0.25500000000E-02 0. -1.
         -1   -1    0    0    0  501 -0.00000000000E+00 -0.00000000000E+00 -0.11950352076E+01  0.11950458355E+01  0.50400000000E-02 0.  1.
         24    2    1    2    0    0  0.00000000000E+00  0.00000000000E+00  0.13605889661E+04  0.13629790471E+04  0.80681771699E+02 0.  0.
         66    2    3    3    0    0  0.19874993212E+02 -0.37632785503E+01  0.12698493673E+04  0.12700120445E+04  0.19999998059E+01 0.  0.
        -13    1    3    3    0    0 -0.19874993212E+02  0.37632785503E+01  0.90739598748E+02  0.92967002563E+02  0.10566000000E+00 0.  1.
         13    1    4    4    0    0  0.11357854113E+02 -0.16427385711E+01  0.74057202135E+03  0.74066094093E+03  0.10566000000E+00 0. -1.
        -13    1    4    4    0    0  0.43156158493E+01 -0.71052072538E+00  0.24129835181E+03  0.24133801012E+03  0.10566000000E+00 0.  1.
        -14    1    4    4    0    0  0.42015232497E+01 -0.14100192538E+01  0.28797899414E+03  0.28801309349E+03  0.00000000000E+00 0.  1.
<mgrwt>
<rscale>  0 0.80681772E+02</rscale>
<asrwt>0</asrwt>
<pdfrwt beam="1">  1        2 0.20950370E+00 0.80681772E+02</pdfrwt>
<pdfrwt beam="2">  1       -1 0.18385373E-03 0.80681772E+02</pdfrwt>
<totfact> 0.33516939E+05</totfact>
</mgrwt>
</event>
<event>
 8    1  0.1493610E-013  0.7914315E+02  0.7818608E-02  0.1331501E+00
         -1   -1    0    0    0  501 -0.00000000000E+00  0.00000000000E+00  0.51262470609E+01  0.51262495385E+01  0.50400000000E-02 0.  1.
          2   -1    0    0  501    0  0.00000000000E+00 -0.00000000000E+00 -0.30546892717E+03  0.30546892718E+03  0.25500000000E-02 0. -1.
         24    2    1    2    0    0 -0.22204460493E-15  0.35527136788E-14 -0.30034268011E+03  0.31059517672E+03  0.79143150722E+02 0.  0.
         66    2    3    3    0    0 -0.15950652314E+01  0.22376394191E+02 -0.27807817810E+03  0.27898874599E+03  0.19999998981E+01 0.  0.
        -13    1    3    3    0    0  0.15950652314E+01 -0.22376394191E+02 -0.22264502006E+02  0.31606430733E+02  0.10566000000E+00 0.  1.
         13    1    4    4    0    0 -0.11665090345E+01  0.13183228743E+02 -0.15802015719E+03  0.15857345145E+03  0.10566000000E+00 0. -1.
        -13    1    4    4    0    0  0.18839229258E+00  0.60021850959E+01 -0.80882024180E+02  0.81104714518E+02  0.10566000000E+00 0.  1.
        -14    1    4    4    0    0 -0.61694848951E+00  0.31909803518E+01 -0.39175996737E+02  0.39310580019E+02  0.00000000000E+00 0.  1.
<mgrwt>
<rscale>  0 0.79143151E+02</rscale>
<asrwt>0</asrwt>
<pdfrwt beam="1">  1        2 0.46995205E-01 0.79143151E+02</pdfrwt>
<pdfrwt beam="2">  1       -1 0.78865382E-03 0.79143151E+02</pdfrwt>
<totfact> 0.26395960E+05</totfact>
</mgrwt>
</event>
<event>
 8    1  0.1493610E-013  0.8091297E+02  0.7818608E-02  0.1326480E+00
         -1   -1    0    0    0  501 -0.00000000000E+00  0.00000000000E+00  0.21679738760E+01  0.21679797344E+01  0.50400000000E-02 0.  1.
          2   -1    0    0  501    0  0.00000000000E+00 -0.00000000000E+00 -0.75495600718E+03  0.75495600719E+03  0.25500000000E-02 0. -1.
         24    2    1    2    0    0  0.00000000000E+00  0.00000000000E+00 -0.75278803330E+03  0.75712398692E+03  0.80912968565E+02 0.  0.
         66    2    3    3    0    0  0.28773664504E+02  0.22266685823E+01 -0.64159096995E+03  0.64224283144E+03  0.19999975478E+01 0.  0.
        -13    1    3    3    0    0 -0.28773664504E+02 -0.22266685823E+01 -0.11119706335E+03  0.11488115548E+03  0.10566000000E+00 0.  1.
         13    1    4    4    0    0  0.22922680799E+01  0.45967259213E+00 -0.61169730288E+02  0.61214482432E+02  0.10566000000E+00 0.  1.
        -13    1    4    4    0    0  0.33550531650E+01 -0.30192948822E-01 -0.75312371194E+02  0.75387145537E+02  0.10566000000E+00 0. -1.
         14    1    4    4    0    0  0.23126343259E+02  0.17971889390E+01 -0.50510886847E+03  0.50564120347E+03  0.00000000000E+00 0. -1.
<mgrwt>
<rscale>  0 0.80912969E+02</rscale>
<asrwt>0</asrwt>
<pdfrwt beam="1">  1        2 0.11614687E+00 0.80912969E+02</pdfrwt>
<pdfrwt beam="2">  1       -1 0.33353550E-03 0.80912969E+02</pdfrwt>
<totfact> 0.33009175E+05</totfact>
</mgrwt>
</event>
<event>
 8    1  0.1493610E-013  0.8006074E+02  0.7818608E-02  0.1328879E+00
         -1   -1    0    0    0  501 -0.00000000000E+00  0.00000000000E+00  0.15991569762E+01  0.15991649184E+01  0.50400000000E-02 0.  1.
          2   -1    0    0  501    0  0.00000000000E+00 -0.00000000000E+00 -0.10020445705E+04  0.10020445705E+04  0.25500000000E-02 0. -1.
         24    2    1    2    0    0 -0.35527136788E-14  0.88817841970E-15 -0.10004454135E+04  0.10036437354E+04  0.80060740754E+02 0.  0.
         66    2    3    3    0    0 -0.22791513197E+02  0.65328048058E+01 -0.90447724635E+03  0.90479015235E+03  0.20000002122E+01 0.  0.
        -13    1    3    3    0    0  0.22791513197E+02 -0.65328048058E+01 -0.95968167141E+02  0.98853583045E+02  0.10566000000E+00 0.  1.
         13    1    4    4    0    0 -0.46812012457E+01  0.79192419845E+00 -0.17830822666E+03  0.17837145413E+03  0.10566000000E+00 0. -1.
        -13    1    4    4    0    0 -0.35262463168E+01  0.10500171254E+01 -0.12226997362E+03  0.12232536352E+03  0.10566000000E+00 0.  1.
         14    1    4    4    0    0 -0.14584065634E+02  0.46908634820E+01 -0.60389904607E+03  0.60409333469E+03  0.00000000000E+00 0. -1.
<mgrwt>
<rscale>  0 0.80060741E+02</rscale>
<asrwt>0</asrwt>
<pdfrwt beam="1">  1        2 0.15416020E+00 0.80060741E+02</pdfrwt>
<pdfrwt beam="2">  1       -1 0.24602556E-03 0.80060741E+02</pdfrwt>
<totfact> 0.35164774E+05</totfact>
</mgrwt>
</event>
<event>
 8    1  0.1493610E-013  0.8043216E+02  0.7818608E-02  0.1327829E+00
         -1   -1    0    0    0  501 -0.00000000000E+00  0.00000000000E+00  0.24043103898E+02  0.24043104427E+02  0.50400000000E-02 0.  1.
          2   -1    0    0  501    0  0.00000000000E+00 -0.00000000000E+00 -0.67268070065E+02  0.67268070113E+02  0.25500000000E-02 0. -1.
         24    2    1    2    0    0  0.00000000000E+00  0.00000000000E+00 -0.43224966166E+02  0.91311174540E+02  0.80432163317E+02 0.  0.
         66    2    3    3    0    0  0.16800070222E+00 -0.23556661414E+02 -0.58593787784E+02  0.63183672639E+02  0.20000000203E+01 0.  0.
        -13    1    3    3    0    0 -0.16800070222E+00  0.23556661414E+02  0.15368821618E+02  0.28127501901E+02  0.10566000000E+00 0.  1.
         13    1    4    4    0    0 -0.18086150114E+00 -0.14336320684E+02 -0.36297626354E+02  0.39026806744E+02  0.10566000000E+00 0. -1.
        -13    1    4    4    0    0  0.67262882642E+00 -0.58162542714E+01 -0.14857762220E+02  0.15970144192E+02  0.10566000000E+00 0.  1.
        -14    1    4    4    0    0 -0.32376662306E+00 -0.34040864592E+01 -0.74383992093E+01  0.81867217031E+01  0.00000000000E+00 0.  1.
<mgrwt>
<rscale>  0 0.80432163E+02</rscale>
<asrwt>0</asrwt>
<pdfrwt beam="1">  1        2 0.10348934E-01 0.80432163E+02</pdfrwt>
<pdfrwt beam="2">  1       -1 0.36989392E-02 0.80432163E+02</pdfrwt>
<totfact> 0.15759546E+05</totfact>
</mgrwt>
</event>
<event>
 8    1  0.1493610E-013  0.7632739E+02  0.7818608E-02  0.1339809E+00
         -1   -1    0    0    0  501 -0.00000000000E+00  0.00000000000E+00  0.72718361712E+01  0.72718379178E+01  0.50400000000E-02 0.  1.
          2   -1    0    0  501    0  0.00000000000E+00 -0.00000000000E+00 -0.20028880626E+03  0.20028880627E+03  0.25500000000E-02 0. -1.
         24    2    1    2    0    0  0.00000000000E+00 -0.35527136788E-14 -0.19301697009E+03  0.20756064419E+03  0.76327388766E+02 0.  0.
         66    2    3    3    0    0  0.34466406361E+02  0.16183427167E+02 -0.10242349225E+03  0.10929047643E+03  0.19999975759E+01 0.  0.
        -13    1    3    3    0    0 -0.34466406361E+02 -0.16183427167E+02 -0.90593477832E+02  0.98270167762E+02  0.10566000000E+00 0.  1.
         13    1    4    4    0    0  0.67203163180E+01  0.33984718982E+01 -0.20808012483E+02  0.22129094201E+02  0.10566000000E+00 0. -1.
        -13    1    4    4    0    0  0.21230678628E+01  0.58208527099E+00 -0.53259872128E+01  0.57639868354E+01  0.10566000000E+00 0.  1.
        -14    1    4    4    0    0  0.25623022180E+02  0.12202869997E+02 -0.76289492557E+02  0.81397395391E+02  0.00000000000E+00 0.  1.
<mgrwt>
<rscale>  0 0.76327389E+02</rscale>
<asrwt>0</asrwt>
<pdfrwt beam="1">  1        2 0.30813658E-01 0.76327389E+02</pdfrwt>
<pdfrwt beam="2">  1       -1 0.11187443E-02 0.76327389E+02</pdfrwt>
<totfact> 0.24975646E+05</totfact>
</mgrwt>
</event>
<event>
 8    1  0.1493610E-013  0.8202976E+02  0.7818608E-02  0.1323388E+00
         -1   -1    0    0    0  501 -0.00000000000E+00  0.00000000000E+00  0.70066800013E+01  0.70066818140E+01  0.50400000000E-02 0.  1.
          2   -1    0    0  501    0  0.00000000000E+00 -0.00000000000E+00 -0.24008803799E+03  0.24008803801E+03  0.25500000000E-02 0. -1.
         24    2    1    2    0    0  0.00000000000E+00  0.00000000000E+00 -0.23308135799E+03  0.24709471982E+03  0.82029757527E+02 0.  0.
         66    2    3    3    0    0  0.25164045671E+02  0.51954274733E+01 -0.21281324006E+03  0.21436813384E+03  0.20000004621E+01 0.  0.
        -13    1    3    3    0    0 -0.25164045671E+02 -0.51954274733E+01 -0.20268117933E+02  0.32726585977E+02  0.10566000000E+00 0.  1.
         13    1    4    4    0    0  0.12249226432E+02  0.24086429390E+01 -0.99476328886E+02  0.10025665206E+03  0.10566000000E+00 0. -1.
        -13    1    4    4    0    0  0.11474595061E+02  0.28758771453E+01 -0.10117818217E+03  0.10186742714E+03  0.10566000000E+00 0.  1.
        -14    1    4    4    0    0  0.14402241787E+01 -0.89092610984E-01 -0.12158729006E+02  0.12244054648E+02  0.00000000000E+00 0.  1.
<mgrwt>
<rscale>  0 0.82029758E+02</rscale>
<asrwt>0</asrwt>
<pdfrwt beam="1">  1        2 0.36936615E-01 0.82029758E+02</pdfrwt>
<pdfrwt beam="2">  1       -1 0.10779511E-02 0.82029758E+02</pdfrwt>
<totfact> 0.22023159E+05</totfact>
</mgrwt>
</event>
<event>
 8    1  0.1493610E-013  0.7617169E+02  0.7818608E-02  0.1340281E+00
         -1   -1    0    0    0  501 -0.00000000000E+00  0.00000000000E+00  0.70047442409E+01  0.70047460540E+01  0.50400000000E-02 0.  1.
          2   -1    0    0  501    0  0.00000000000E+00 -0.00000000000E+00 -0.20707840069E+03  0.20707840071E+03  0.25500000000E-02 0. -1.
         24    2    1    2    0    0  0.88817841970E-15  0.00000000000E+00 -0.20007365645E+03  0.21408314676E+03  0.76171685826E+02 0.  0.
         66    2    3    3    0    0 -0.48734922386E+01  0.21123047661E+02 -0.18802603988E+03  0.18928213270E+03  0.20000048292E+01 0.  0.
        -13    1    3    3    0    0  0.48734922386E+01 -0.21123047661E+02 -0.12047616569E+02  0.24801014054E+02  0.10566000000E+00 0.  1.
         13    1    4    4    0    0 -0.11315444359E+01  0.63261435430E+01 -0.54456465452E+02  0.54834462508E+02  0.10566000000E+00 0. -1.
        -13    1    4    4    0    0 -0.11579227330E+01  0.76201422057E+01 -0.65449202264E+02  0.65901567457E+02  0.10566000000E+00 0.  1.
         14    1    4    4    0    0 -0.25840250697E+01  0.71767619127E+01 -0.68120372164E+02  0.68546102740E+02  0.00000000000E+00 0. -1.
<mgrwt>
<rscale>  0 0.76171686E+02</rscale>
<asrwt>0</asrwt>
<pdfrwt beam="1">  1        2 0.31858211E-01 0.76171686E+02</pdfrwt>
<pdfrwt beam="2">  1       -1 0.10776533E-02 0.76171686E+02</pdfrwt>
<totfact> 0.25401421E+05</totfact>
</mgrwt>
</event>
<event>
 8    1  0.1493610E-013  0.7954254E+02  0.7818608E-02  0.1330355E+00
         -1   -1    0    0    0  501 -0.00000000000E+00  0.00000000000E+00  0.20568719833E+02  0.20568720451E+02  0.50400000000E-02 0.  1.
          2   -1    0    0  501    0  0.00000000000E+00 -0.00000000000E+00 -0.76900941444E+02  0.76900941486E+02  0.25500000000E-02 0. -1.
         24    2    1    2    0    0  0.17763568394E-14  0.00000000000E+00 -0.56332221610E+02  0.97469661937E+02  0.79542540861E+02 0.  0.
         66    2    3    3    0    0  0.13880042534E+02  0.30777727710E+02 -0.53882493997E+02  0.63617979066E+02  0.19999993564E+01 0.  0.
        -13    1    3    3    0    0 -0.13880042534E+02 -0.30777727710E+02 -0.24497276135E+01  0.33851682871E+02  0.10566000000E+00 0.  1.
         13    1    4    4    0    0  0.35240704943E+00  0.62544252551E+00 -0.81012419048E+00  0.10875818686E+01  0.10566000000E+00 0.  1.
        -13    1    4    4    0    0  0.36023029544E+01  0.85567620416E+01 -0.15745716073E+02  0.18279318967E+02  0.10566000000E+00 0.  1.
         14    1    4    4    0    0  0.99253325306E+01  0.21595523143E+02 -0.37326653733E+02  0.44251078230E+02  0.00000000000E+00 0. -1.
<mgrwt>
<rscale>  0 0.79542541E+02</rscale>
<asrwt>0</asrwt>
<pdfrwt beam="1">  1        2 0.11830914E-01 0.79542541E+02</pdfrwt>
<pdfrwt beam="2">  1       -1 0.31644185E-02 0.79542541E+02</pdfrwt>
<totfact> 0.16786051E+05</totfact>
</mgrwt>
</event>
<event>
 8    1  0.1493610E-013  0.7994000E+02  0.7818608E-02  0.1329222E+00
          2   -1    0    0  501    0  0.00000000000E+00  0.00000000000E+00  0.25191009940E+03  0.25191009941E+03  0.25500000000E-02 0. -1.
         -1   -1    0    0    0  501 -0.00000000000E+00 -0.00000000000E+00 -0.63419469879E+01  0.63419489906E+01  0.50400000000E-02 0.  1.
         24    2    1    2    0    0  0.00000000000E+00  0.35527136788E-14  0.24556815241E+03  0.25825204840E+03  0.79939996407E+02 0.  0.
         66    2    3    3    0    0  0.23931541622E+02 -0.31895060546E+02  0.13049350572E+03  0.13646453243E+03  0.20000011538E+01 0.  0.
        -13    1    3    3    0    0 -0.23931541622E+02  0.31895060546E+02  0.11507464669E+03  0.12178751597E+03  0.10566000000E+00 0.  1.
         13    1    4    4    0    0  0.10767811841E+02 -0.14733339805E+02  0.60369891240E+02  0.63067836542E+02  0.10566000000E+00 0. -1.
        -13    1    4    4    0    0  0.83666152903E+01 -0.10139023594E+02  0.44223093952E+02  0.46135596383E+02  0.10566000000E+00 0.  1.
        -14    1    4    4    0    0  0.47971144914E+01 -0.70226971468E+01  0.25900520530E+02  0.27261099508E+02  0.00000000000E+00 0.  1.
<mgrwt>
<rscale>  0 0.79939996E+02</rscale>
<asrwt>0</asrwt>
<pdfrwt beam="1">  1        2 0.38755402E-01 0.79939996E+02</pdfrwt>
<pdfrwt beam="2">  1       -1 0.97568425E-03 0.79939996E+02</pdfrwt>
<totfact> 0.23980803E+05</totfact>
</mgrwt>
</event>
<event>
 8    1  0.1493610E-013  0.8014433E+02  0.7818608E-02  0.1328642E+00
         -1   -1    0    0    0  501 -0.00000000000E+00  0.00000000000E+00  0.42057932032E+02  0.42057932334E+02  0.50400000000E-02 0.  1.
          2   -1    0    0  501    0  0.00000000000E+00 -0.00000000000E+00 -0.38180159158E+02  0.38180159243E+02  0.25500000000E-02 0. -1.
         24    2    1    2    0    0 -0.71054273576E-14 -0.88817841970E-15  0.38777728743E+01  0.80238091577E+02  0.80144333658E+02 0.  0.
         66    2    3    3    0    0  0.34136628739E+02 -0.70796028869E+01 -0.17789393551E+02  0.39190467241E+02  0.20000002365E+01 0.  0.
        -13    1    3    3    0    0 -0.34136628739E+02  0.70796028869E+01  0.21667166425E+02  0.41047624336E+02  0.10566000000E+00 0.  1.
         13    1    4    4    0    0  0.47096166662E+01 -0.56443943098E+00 -0.27355452036E+01  0.54766278503E+01  0.10566000000E+00 0.  1.
        -13    1    4    4    0    0  0.11353004082E+02 -0.22593444690E+01 -0.51593176822E+01  0.12673794306E+02  0.10566000000E+00 0. -1.
         14    1    4    4    0    0  0.18074007990E+02 -0.42558189869E+01 -0.98945306651E+01  0.21040045085E+02  0.00000000000E+00 0. -1.
<mgrwt>
<rscale>  0 0.80144334E+02</rscale>
<asrwt>0</asrwt>
<pdfrwt beam="1">  1        2 0.58738707E-02 0.80144334E+02</pdfrwt>
<pdfrwt beam="2">  1       -1 0.64704511E-02 0.80144334E+02</pdfrwt>
<totfact> 0.14049714E+05</totfact>
</mgrwt>
</event>
<event>
 8    1  0.1493610E-013  0.7966242E+02  0.7818608E-02  0.1330012E+00
          2   -1    0    0  501    0  0.00000000000E+00  0.00000000000E+00  0.19407810382E+03  0.19407810384E+03  0.25500000000E-02 0. -1.
         -1   -1    0    0    0  501 -0.00000000000E+00 -0.00000000000E+00 -0.81746741397E+01  0.81746756934E+01  0.50400000000E-02 0.  1.
         24    2    1    2    0    0  0.00000000000E+00 -0.44408920985E-15  0.18590342968E+03  0.20225277953E+03  0.79662423142E+02 0.  0.
         66    2    3    3    0    0  0.18887977109E+02 -0.20022183655E+01  0.18182556204E+03  0.18282587226E+03  0.19999998495E+01 0.  0.
        -13    1    3    3    0    0 -0.18887977109E+02  0.20022183655E+01  0.40778676456E+01  0.19426907274E+02  0.10566000000E+00 0.  1.
         13    1    4    4    0    0  0.63986704307E+01 -0.13360555692E+01  0.67145667799E+02  0.67463174369E+02  0.10566000000E+00 0. -1.
        -13    1    4    4    0    0  0.71165892382E+00  0.10635719364E+00  0.61198044252E+01  0.61628678807E+01  0.10566000000E+00 0.  1.
         14    1    4    4    0    0  0.11777647755E+02 -0.77251998991E+00  0.10856008981E+03  0.10919983001E+03  0.00000000000E+00 0. -1.
<mgrwt>
<rscale>  0 0.79662423E+02</rscale>
<asrwt>0</asrwt>
<pdfrwt beam="1">  1        2 0.29858169E-01 0.79662423E+02</pdfrwt>
<pdfrwt beam="2">  1       -1 0.12576424E-02 0.79662423E+02</pdfrwt>
<totfact> 0.22075200E+05</totfact>
</mgrwt>
</event>
<event>
 8    1  0.1493610E-013  0.7467505E+02  0.7818608E-02  0.1344880E+00
          2   -1    0    0  501    0  0.00000000000E+00  0.00000000000E+00  0.55645127252E+02  0.55645127310E+02  0.25500000000E-02 0. -1.
         -1   -1    0    0    0  501 -0.00000000000E+00 -0.00000000000E+00 -0.25053242928E+02  0.25053243435E+02  0.50400000000E-02 0.  1.
         24    2    1    2    0    0  0.00000000000E+00  0.00000000000E+00  0.30591884324E+02  0.80698370745E+02  0.74675053762E+02 0.  0.
         66    2    3    3    0    0  0.26261922799E+02  0.20865423880E+02  0.32966061965E+02  0.47072452374E+02  0.20000070503E+01 0.  0.
        -13    1    3    3    0    0 -0.26261922799E+02 -0.20865423880E+02 -0.23741776414E+01  0.33625918371E+02  0.10566000000E+00 0.  1.
         13    1    4    4    0    0  0.10680893265E+02  0.89189411618E+01  0.12924814568E+02  0.18991866366E+02  0.10566000000E+00 0. -1.
        -13    1    4    4    0    0  0.56315368586E+01  0.50025942983E+01  0.74559014632E+01  0.10599140898E+02  0.10566000000E+00 0.  1.
        -14    1    4    4    0    0  0.99494926754E+01  0.69438884194E+01  0.12585345934E+02  0.17481445110E+02  0.00000000000E+00 0.  1.
<mgrwt>
<rscale>  0 0.74675054E+02</rscale>
<asrwt>0</asrwt>
<pdfrwt beam="1">  1        2 0.85607888E-02 0.74675054E+02</pdfrwt>
<pdfrwt beam="2">  1       -1 0.38543451E-02 0.74675054E+02</pdfrwt>
<totfact> 0.18446663E+05</totfact>
</mgrwt>
</event>
<event>
 8    1  0.1493610E-013  0.7635766E+02  0.7818608E-02  0.1339718E+00
          2   -1    0    0  501    0  0.00000000000E+00  0.00000000000E+00  0.16847194249E+02  0.16847194442E+02  0.25500000000E-02 0. -1.
         -1   -1    0    0    0  501 -0.00000000000E+00 -0.00000000000E+00 -0.86520218541E+02  0.86520218688E+02  0.50400000000E-02 0.  1.
         24    2    1    2    0    0  0.00000000000E+00  0.00000000000E+00 -0.69673024292E+02  0.10336741313E+03  0.76357657004E+02 0.  0.
         66    2    3    3    0    0  0.31306094682E+01  0.19720870533E+02  0.91494097300E+01  0.22055048022E+02  0.19999986517E+01 0.  0.
        -13    1    3    3    0    0 -0.31306094682E+01 -0.19720870533E+02 -0.78822434022E+02  0.81312365108E+02  0.10566000000E+00 0.  1.
         13    1    4    4    0    0  0.20238505646E+01  0.15163283385E+02  0.72333024701E+01  0.16921966871E+02  0.10566000000E+00 0. -1.
        -13    1    4    4    0    0  0.11382690954E+01  0.32665947230E+01  0.15402648760E+01  0.37881232215E+01  0.10566000000E+00 0.  1.
         14    1    4    4    0    0 -0.31510191795E-01  0.12909924249E+01  0.37584238398E+00  0.13449579290E+01  0.00000000000E+00 0. -1.
<mgrwt>
<rscale>  0 0.76357657E+02</rscale>
<asrwt>0</asrwt>
<pdfrwt beam="1">  1        2 0.25918761E-02 0.76357657E+02</pdfrwt>
<pdfrwt beam="2">  1       -1 0.13310803E-01 0.76357657E+02</pdfrwt>
<totfact> 0.13714051E+05</totfact>
</mgrwt>
</event>
<event>
 8    1  0.1493610E-013  0.8507559E+02  0.7818608E-02  0.1315235E+00
         -1   -1    0    0    0  501 -0.00000000000E+00  0.00000000000E+00  0.13558807789E+03  0.13558807799E+03  0.50400000000E-02 0.  1.
          2   -1    0    0  501    0  0.00000000000E+00 -0.00000000000E+00 -0.13345301882E+02  0.13345302125E+02  0.25500000000E-02 0. -1.
         24    2    1    2    0    0  0.35527136788E-14  0.00000000000E+00  0.12224277601E+03  0.14893338011E+03  0.85075586538E+02 0.  0.
         66    2    3    3    0    0  0.31199485705E+02 -0.23547626601E+02  0.31884934985E+02  0.50483142806E+02  0.20000004376E+01 0.  0.
        -13    1    3    3    0    0 -0.31199485705E+02  0.23547626601E+02  0.90357841027E+02  0.98450237307E+02  0.10566000000E+00 0.  1.
         13    1    4    4    0    0  0.11599783546E+02 -0.79663094284E+01  0.11270544270E+02  0.18029237267E+02  0.10566000000E+00 0. -1.
        -13    1    4    4    0    0  0.17014970903E+02 -0.13395902108E+02  0.18313015201E+02  0.28360837751E+02  0.10566000000E+00 0.  1.
        -14    1    4    4    0    0  0.25847312551E+01 -0.21854150641E+01  0.23013755138E+01  0.40930677883E+01  0.00000000000E+00 0.  1.
<mgrwt>
<rscale>  0 0.85075587E+02</rscale>
<asrwt>0</asrwt>
<pdfrwt beam="1">  1        2 0.20531235E-02 0.85075587E+02</pdfrwt>
<pdfrwt beam="2">  1       -1 0.20859703E-01 0.85075587E+02</pdfrwt>
<totfact> 0.94725783E+04</totfact>
</mgrwt>
</event>
<event>
 8    1  0.1493610E-013  0.7886460E+02  0.7818608E-02  0.1332305E+00
          2   -1    0    0  501    0  0.00000000000E+00  0.00000000000E+00  0.13746608964E+03  0.13746608967E+03  0.25500000000E-02 0. -1.
         -1   -1    0    0    0  501 -0.00000000000E+00 -0.00000000000E+00 -0.11311198700E+02  0.11311199823E+02  0.50400000000E-02 0.  1.
         24    2    1    2    0    0  0.00000000000E+00  0.00000000000E+00  0.12615489094E+03  0.14877728949E+03  0.78864601431E+02 0.  0.
         66    2    3    3    0    0  0.14226102080E+02  0.36493330178E+01  0.13210263444E+03  0.13293158254E+03  0.20000000251E+01 0.  0.
        -13    1    3    3    0    0 -0.14226102080E+02 -0.36493330178E+01 -0.59477434959E+01  0.15845706945E+02  0.10566000000E+00 0.  1.
         13    1    4    4    0    0  0.88182417236E+01  0.22826830678E+01  0.81462590925E+02  0.81970341669E+02  0.10566000000E+00 0. -1.
        -13    1    4    4    0    0  0.11739219297E+01  0.77993966167E+00  0.14750187092E+02  0.14817745506E+02  0.10566000000E+00 0.  1.
         14    1    4    4    0    0  0.42339384263E+01  0.58671028831E+00  0.35889856422E+02  0.36143495370E+02  0.00000000000E+00 0. -1.
<mgrwt>
<rscale>  0 0.78864601E+02</rscale>
<asrwt>0</asrwt>
<pdfrwt beam="1">  1        2 0.21148630E-01 0.78864601E+02</pdfrwt>
<pdfrwt beam="2">  1       -1 0.17401844E-02 0.78864601E+02</pdfrwt>
<totfact> 0.20235787E+05</totfact>
</mgrwt>
</event>
<event>
 8    1  0.1493610E-013  0.7912349E+02  0.7818608E-02  0.1331557E+00
         -1   -1    0    0    0  501 -0.00000000000E+00  0.00000000000E+00  0.81801458512E+02  0.81801458667E+02  0.50400000000E-02 0.  1.
          2   -1    0    0  501    0  0.00000000000E+00 -0.00000000000E+00 -0.19133296845E+02  0.19133297015E+02  0.25500000000E-02 0. -1.
         24    2    1    2    0    0  0.00000000000E+00  0.00000000000E+00  0.62668161667E+02  0.10093475568E+03  0.79123488408E+02 0.  0.
         66    2    3    3    0    0 -0.22548894324E+02  0.32397655667E+02  0.34225259181E+02  0.52282205966E+02  0.19999916819E+01 0.  0.
        -13    1    3    3    0    0  0.22548894324E+02 -0.32397655667E+02  0.28442902486E+02  0.48652549716E+02  0.10566000000E+00 0.  1.
         13    1    4    4    0    0 -0.54199734833E+01  0.81584553942E+01  0.81130143169E+01  0.12718831405E+02  0.10566000000E+00 0.  1.
        -13    1    4    4    0    0 -0.14809582028E+01  0.15037840691E+01  0.16129835105E+01  0.26584739166E+01  0.10566000000E+00 0. -1.
         14    1    4    4    0    0 -0.15647962638E+02  0.22735416204E+02  0.24499261354E+02  0.36904900644E+02  0.00000000000E+00 0. -1.
<mgrwt>
<rscale>  0 0.79123488E+02</rscale>
<asrwt>0</asrwt>
<pdfrwt beam="1">  1        2 0.29435841E-02 0.79123488E+02</pdfrwt>
<pdfrwt beam="2">  1       -1 0.12584840E-01 0.79123488E+02</pdfrwt>
<totfact> 0.12700830E+05</totfact>
</mgrwt>
</event>
<event>
 8    1  0.1493610E-013  0.8003533E+02  0.7818608E-02  0.1328951E+00
          2   -1    0    0  501    0  0.00000000000E+00  0.00000000000E+00  0.73363581280E+03  0.73363581281E+03  0.25500000000E-02 0. -1.
         -1   -1    0    0    0  501 -0.00000000000E+00 -0.00000000000E+00 -0.21828425379E+01  0.21828483564E+01  0.50400000000E-02 0.  1.
         24    2    1    2    0    0  0.00000000000E+00  0.00000000000E+00  0.73145297026E+03  0.73581866116E+03  0.80035332244E+02 0.  0.
         66    2    3    3    0    0  0.28483849473E+02 -0.57927354535E+01  0.61849141301E+03  0.61917728752E+03  0.19999860755E+01 0.  0.
        -13    1    3    3    0    0 -0.28483849473E+02  0.57927354535E+01  0.11296155725E+03  0.11664137365E+03  0.10566000000E+00 0.  1.
         13    1    4    4    0    0  0.10426642483E+02 -0.23805188061E+01  0.23988259038E+03  0.24012090720E+03  0.10566000000E+00 0. -1.
        -13    1    4    4    0    0  0.77965959497E+01 -0.99516825064E+00  0.15482220963E+03  0.15502162761E+03  0.10566000000E+00 0.  1.
        -14    1    4    4    0    0  0.10260611040E+02 -0.24170483968E+01  0.22378661300E+03  0.22403475271E+03  0.00000000000E+00 0.  1.
<mgrwt>
<rscale>  0 0.80035332E+02</rscale>
<asrwt>0</asrwt>
<pdfrwt beam="1">  1        2 0.11286717E+00 0.80035332E+02</pdfrwt>
<pdfrwt beam="2">  1       -1 0.33582201E-03 0.80035332E+02</pdfrwt>
<totfact> 0.33759952E+05</totfact>
</mgrwt>
</event>
<event>
 8    1  0.1493610E-013  0.8025948E+02  0.7818608E-02  0.1328317E+00
         -1   -1    0    0    0  501 -0.00000000000E+00  0.00000000000E+00  0.16243891503E+01  0.16243969691E+01  0.50400000000E-02 0.  1.
          2   -1    0    0  501    0  0.00000000000E+00 -0.00000000000E+00 -0.99138315878E+03  0.99138315878E+03  0.25500000000E-02 0. -1.
         24    2    1    2    0    0  0.00000000000E+00  0.00000000000E+00 -0.98975876963E+03  0.99300755575E+03  0.80259477462E+02 0.  0.
         66    2    3    3    0    0 -0.23639185314E+02 -0.10189702999E+01 -0.89582098435E+03  0.89613564006E+03  0.19999998289E+01 0.  0.
        -13    1    3    3    0    0  0.23639185314E+02  0.10189702999E+01 -0.93937785276E+02  0.96871915690E+02  0.10566000000E+00 0.  1.
         13    1    4    4    0    0 -0.59381658603E+01 -0.89468798406E+00 -0.23218049632E+03  0.23225816739E+03  0.10566000000E+00 0. -1.
        -13    1    4    4    0    0 -0.35293022749E+01  0.15955589507E+00 -0.14798793548E+03  0.14803013762E+03  0.10566000000E+00 0.  1.
         14    1    4    4    0    0 -0.14171717179E+02 -0.28383821088E+00 -0.51565255255E+03  0.51584733505E+03  0.00000000000E+00 0. -1.
<mgrwt>
<rscale>  0 0.80259477E+02</rscale>
<asrwt>0</asrwt>
<pdfrwt beam="1">  1        2 0.15252000E+00 0.80259477E+02</pdfrwt>
<pdfrwt beam="2">  1       -1 0.24990742E-03 0.80259477E+02</pdfrwt>
<totfact> 0.34922603E+05</totfact>
</mgrwt>
</event>
<event>
 8    1  0.1493610E-013  0.7921063E+02  0.7818608E-02  0.1331307E+00
          2   -1    0    0  501    0  0.00000000000E+00  0.00000000000E+00  0.26300524270E+02  0.26300524394E+02  0.25500000000E-02 0. -1.
         -1   -1    0    0    0  501 -0.00000000000E+00 -0.00000000000E+00 -0.59640677665E+02  0.59640677878E+02  0.50400000000E-02 0.  1.
         24    2    1    2    0    0  0.00000000000E+00  0.00000000000E+00 -0.33340153395E+02  0.85941202272E+02  0.79210633248E+02 0.  0.
         66    2    3    3    0    0 -0.37985549509E+02  0.49560621683E+01 -0.58792695982E+01  0.38807606752E+02  0.20000017671E+01 0.  0.
        -13    1    3    3    0    0  0.37985549509E+02 -0.49560621683E+01 -0.27460883797E+02  0.47133595520E+02  0.10566000000E+00 0.  1.
         13    1    4    4    0    0 -0.99297055238E+01  0.17191547560E+01 -0.12551277696E+01  0.10155838450E+02  0.10566000000E+00 0. -1.
        -13    1    4    4    0    0 -0.24170029214E+02  0.23228902147E+01 -0.41080526849E+01  0.24626680492E+02  0.10566000000E+00 0.  1.
        -14    1    4    4    0    0 -0.38858147714E+01  0.91401719763E+00 -0.51608914373E+00  0.40250878102E+01  0.00000000000E+00 0.  1.
<mgrwt>
<rscale>  0 0.79210633E+02</rscale>
<asrwt>0</asrwt>
<pdfrwt beam="1">  1        2 0.40462345E-02 0.79210633E+02</pdfrwt>
<pdfrwt beam="2">  1       -1 0.91754889E-02 0.79210633E+02</pdfrwt>
<totfact> 0.13482743E+05</totfact>
</mgrwt>
</event>
<event>
 8    1  0.1493610E-013  0.7594153E+02  0.7818608E-02  0.1340980E+00
         -1   -1    0    0    0  501 -0.00000000000E+00  0.00000000000E+00  0.14971760344E+02  0.14971761192E+02  0.50400000000E-02 0.  1.
          2   -1    0    0  501    0  0.00000000000E+00 -0.00000000000E+00 -0.96299889630E+02  0.96299889664E+02  0.25500000000E-02 0. -1.
         24    2    1    2    0    0 -0.35527136788E-14  0.00000000000E+00 -0.81328129286E+02  0.11127165086E+03  0.75941527973E+02 0.  0.
         66    2    3    3    0    0  0.26638241058E+02  0.23101419316E+02 -0.20152716383E+02  0.40662063907E+02  0.20000006242E+01 0.  0.
        -13    1    3    3    0    0 -0.26638241058E+02 -0.23101419316E+02 -0.61175412904E+02  0.70609586949E+02  0.10566000000E+00 0.  1.
         13    1    4    4    0    0  0.79478030855E+01  0.68672197349E+01 -0.61749224863E+01  0.12184708143E+02  0.10566000000E+00 0. -1.
        -13    1    4    4    0    0  0.17712799288E+02  0.15486411053E+02 -0.12853734442E+02  0.26810480023E+02  0.10566000000E+00 0.  1.
        -14    1    4    4    0    0  0.97763868483E+00  0.74778852801E+00 -0.11240594547E+01  0.16668757418E+01  0.00000000000E+00 0.  1.
<mgrwt>
<rscale>  0 0.75941528E+02</rscale>
<asrwt>0</asrwt>
<pdfrwt beam="1">  1        2 0.14815367E-01 0.75941528E+02</pdfrwt>
<pdfrwt beam="2">  1       -1 0.23033479E-02 0.75941528E+02</pdfrwt>
<totfact> 0.20160427E+05</totfact>
</mgrwt>
</event>
<event>
 8    1  0.1493610E-013  0.8073457E+02  0.7818608E-02  0.1326980E+00
         -1   -1    0    0    0  501 -0.00000000000E+00  0.00000000000E+00  0.32696860646E+01  0.32696899490E+01  0.50400000000E-02 0.  1.
          2   -1    0    0  501    0  0.00000000000E+00 -0.00000000000E+00 -0.49837101727E+03  0.49837101728E+03  0.25500000000E-02 0. -1.
         24    2    1    2    0    0  0.35527136788E-14 -0.35527136788E-14 -0.49510133121E+03  0.50164070723E+03  0.80734571185E+02 0.  0.
         66    2    3    3    0    0 -0.22947144937E+02  0.27887318841E+02 -0.35941290061E+03  0.36122833108E+03  0.20000095887E+01 0.  0.
        -13    1    3    3    0    0  0.22947144937E+02 -0.27887318841E+02 -0.13568843060E+03  0.14041237614E+03  0.10566000000E+00 0.  1.
         13    1    4    4    0    0 -0.15893151493E+02  0.19156836895E+02 -0.24968525040E+03  0.25092292063E+03  0.10566000000E+00 0. -1.
        -13    1    4    4    0    0 -0.60445761987E+01  0.68690065796E+01 -0.90583486678E+02  0.91044491187E+02  0.10566000000E+00 0.  1.
        -14    1    4    4    0    0 -0.10094172450E+01  0.18614753667E+01 -0.19144163534E+02  0.19260919270E+02  0.00000000000E+00 0.  1.
<mgrwt>
<rscale>  0 0.80734571E+02</rscale>
<asrwt>0</asrwt>
<pdfrwt beam="1">  1        2 0.76672404E-01 0.80734571E+02</pdfrwt>
<pdfrwt beam="2">  1       -1 0.50302932E-03 0.80734571E+02</pdfrwt>
<totfact> 0.29703237E+05</totfact>
</mgrwt>
</event>
<event>
 8    1  0.1493610E-013  0.7813035E+02  0.7818608E-02  0.1334443E+00
         -1   -1    0    0    0  501 -0.00000000000E+00  0.00000000000E+00  0.12399287842E+01  0.12399390274E+01  0.50400000000E-02 0.  1.
          2   -1    0    0  501    0  0.00000000000E+00 -0.00000000000E+00 -0.12307815821E+04  0.12307815821E+04  0.25500000000E-02 0. -1.
         24    2    1    2    0    0  0.00000000000E+00  0.00000000000E+00 -0.12295416533E+04  0.12320215211E+04  0.78130348066E+02 0.  0.
         66    2    3    3    0    0 -0.18462973845E+02  0.80315019231E+01 -0.11425902041E+04  0.11427693384E+04  0.19999994802E+01 0.  0.
        -13    1    3    3    0    0  0.18462973845E+02 -0.80315019231E+01 -0.86951449248E+02  0.89252182700E+02  0.10566000000E+00 0.  1.
         13    1    4    4    0    0 -0.98424637894E+01  0.48818304171E+01 -0.60792033179E+03  0.60801961097E+03  0.10566000000E+00 0. -1.
        -13    1    4    4    0    0 -0.79450475697E+01  0.25901509352E+01 -0.47755746843E+03  0.47763058893E+03  0.10566000000E+00 0.  1.
         14    1    4    4    0    0 -0.67546248577E+00  0.55952057072E+00 -0.57112403837E+02  0.57119138516E+02  0.00000000000E+00 0. -1.
<mgrwt>
<rscale>  0 0.78130348E+02</rscale>
<asrwt>0</asrwt>
<pdfrwt beam="1">  1        2 0.18935004E+00 0.78130348E+02</pdfrwt>
<pdfrwt beam="2">  1       -1 0.19076005E-03 0.78130348E+02</pdfrwt>
<totfact> 0.37138394E+05</totfact>
</mgrwt>
</event>
<event>
 8    1  0.1493610E-013  0.7999010E+02  0.7818608E-02  0.1329080E+00
          2   -1    0    0  501    0  0.00000000000E+00  0.00000000000E+00  0.46713708914E+02  0.46713708984E+02  0.25500000000E-02 0. -1.
         -1   -1    0    0    0  501 -0.00000000000E+00 -0.00000000000E+00 -0.34242707771E+02  0.34242708142E+02  0.50400000000E-02 0.  1.
         24    2    1    2    0    0  0.35527136788E-14 -0.88817841970E-15  0.12471001143E+02  0.80956417126E+02  0.79990096915E+02 0.  0.
         66    2    3    3    0    0  0.22122819929E+02 -0.30035496237E+01  0.39793458259E+02  0.45672308822E+02  0.20000002376E+01 0.  0.
        -13    1    3    3    0    0 -0.22122819929E+02  0.30035496237E+01 -0.27322457116E+02  0.35284108305E+02  0.10566000000E+00 0.  1.
         13    1    4    4    0    0  0.11865552377E+02 -0.71315838881E+00  0.21265829034E+02  0.24362811345E+02  0.10566000000E+00 0.  1.
        -13    1    4    4    0    0  0.35068935394E+01 -0.71949626933E+00  0.57827635931E+01  0.68020214633E+01  0.10566000000E+00 0. -1.
        -14    1    4    4    0    0  0.67503740122E+01 -0.15708949656E+01  0.12744865632E+02  0.14507476013E+02  0.00000000000E+00 0.  1.
<mgrwt>
<rscale>  0 0.79990097E+02</rscale>
<asrwt>0</asrwt>
<pdfrwt beam="1">  1        2 0.71867245E-02 0.79990097E+02</pdfrwt>
<pdfrwt beam="2">  1       -1 0.52681089E-02 0.79990097E+02</pdfrwt>
<totfact> 0.14730653E+05</totfact>
</mgrwt>
</event>
<event>
 8    1  0.1493610E-013  0.8268958E+02  0.7818608E-02  0.1321588E+00
          2   -1    0    0  501    0  0.00000000000E+00  0.00000000000E+00  0.10651014710E+03  0.10651014713E+03  0.25500000000E-02 0. -1.
         -1   -1    0    0    0  501 -0.00000000000E+00 -0.00000000000E+00 -0.16049097786E+02  0.16049098578E+02  0.50400000000E-02 0.  1.
         24    2    1    2    0    0  0.71054273576E-14  0.00000000000E+00  0.90461049318E+02  0.12255924571E+03  0.82689583781E+02 0.  0.
         66    2    3    3    0    0  0.36402973777E+02  0.17381823779E+02  0.31993227742E+02  0.51525439524E+02  0.19999997702E+01 0.  0.
        -13    1    3    3    0    0 -0.36402973777E+02 -0.17381823779E+02  0.58467821576E+02  0.71033806189E+02  0.10566000000E+00 0.  1.
         13    1    4    4    0    0  0.26371112651E+02  0.12460398198E+02  0.23256774646E+02  0.37303965428E+02  0.10566000000E+00 0. -1.
        -13    1    4    4    0    0  0.60789280517E+01  0.35245944713E+01  0.55855757242E+01  0.89769678986E+01  0.10566000000E+00 0.  1.
         14    1    4    4    0    0  0.39529330741E+01  0.13968311102E+01  0.31508773714E+01  0.52445061968E+01  0.00000000000E+00 0. -1.
<mgrwt>
<rscale>  0 0.82689584E+02</rscale>
<asrwt>0</asrwt>
<pdfrwt beam="1">  1        2 0.16386176E-01 0.82689584E+02</pdfrwt>
<pdfrwt beam="2">  1       -1 0.24690921E-02 0.82689584E+02</pdfrwt>
<totfact> 0.16515090E+05</totfact>
</mgrwt>
</event>
<event>
 8    1  0.1493610E-013  0.7615777E+02  0.7818608E-02  0.1340323E+00
         -1   -1    0    0    0  501 -0.00000000000E+00  0.00000000000E+00  0.34583436315E+02  0.34583436683E+02  0.50400000000E-02 0.  1.
          2   -1    0    0  501    0  0.00000000000E+00 -0.00000000000E+00 -0.41927629635E+02  0.41927629713E+02  0.25500000000E-02 0. -1.
         24    2    1    2    0    0 -0.35527136788E-14  0.00000000000E+00 -0.73441933199E+01  0.76511066395E+02  0.76157771143E+02 0.  0.
         66    2    3    3    0    0  0.24903806595E+02 -0.62102182857E+01 -0.31898188280E+02  0.40990984377E+02  0.19999976378E+01 0.  0.
        -13    1    3    3    0    0 -0.24903806595E+02  0.62102182857E+01  0.24553994960E+02  0.35520082019E+02  0.10566000000E+00 0.  1.
         13    1    4    4    0    0  0.52528381682E+01 -0.97889046680E+00 -0.76527532089E+01  0.93341486532E+01  0.10566000000E+00 0. -1.
        -13    1    4    4    0    0  0.15199341323E+02 -0.39558903962E+01 -0.19270122372E+02  0.24859964315E+02  0.10566000000E+00 0.  1.
        -14    1    4    4    0    0  0.44516271033E+01 -0.12754374227E+01 -0.49753126996E+01  0.67968714086E+01  0.00000000000E+00 0.  1.
<mgrwt>
<rscale>  0 0.76157771E+02</rscale>
<asrwt>0</asrwt>
<pdfrwt beam="1">  1        2 0.64504046E-02 0.76157771E+02</pdfrwt>
<pdfrwt beam="2">  1       -1 0.53205287E-02 0.76157771E+02</pdfrwt>
<totfact> 0.16479678E+05</totfact>
</mgrwt>
</event>
<event>
 8    1  0.1493610E-013  0.7772201E+02  0.7818608E-02  0.1335643E+00
         -1   -1    0    0    0  501 -0.00000000000E+00  0.00000000000E+00  0.27696290810E+01  0.27696336668E+01  0.50400000000E-02 0.  1.
          2   -1    0    0  501    0  0.00000000000E+00 -0.00000000000E+00 -0.54526309256E+03  0.54526309257E+03  0.25500000000E-02 0. -1.
         24    2    1    2    0    0  0.88817841970E-15  0.35527136788E-14 -0.54249346348E+03  0.54803272624E+03  0.77722011713E+02 0.  0.
         66    2    3    3    0    0  0.57208689059E+01  0.30359964586E+02 -0.43734877472E+03  0.43844316227E+03  0.20000010466E+01 0.  0.
        -13    1    3    3    0    0 -0.57208689059E+01 -0.30359964586E+02 -0.10514468877E+03  0.10958956397E+03  0.10566000000E+00 0.  1.
         13    1    4    4    0    0  0.75888357543E+00  0.60943092814E+01 -0.77877890938E+02  0.78119738677E+02  0.10566000000E+00 0. -1.
        -13    1    4    4    0    0  0.89753851405E+00  0.37318835455E+01 -0.55331415027E+02  0.55464485782E+02  0.10566000000E+00 0.  1.
         14    1    4    4    0    0  0.40644468164E+01  0.20533771759E+02 -0.30413946875E+03  0.30485893781E+03  0.00000000000E+00 0. -1.
<mgrwt>
<rscale>  0 0.77722012E+02</rscale>
<asrwt>0</asrwt>
<pdfrwt beam="1">  1        2 0.83886544E-01 0.77722012E+02</pdfrwt>
<pdfrwt beam="2">  1       -1 0.42609757E-03 0.77722012E+02</pdfrwt>
<totfact> 0.33721835E+05</totfact>
</mgrwt>
</event>
<event>
 8    1  0.1493610E-013  0.7828560E+02  0.7818608E-02  0.1333988E+00
         -1   -1    0    0    0  501 -0.00000000000E+00  0.00000000000E+00  0.48615551684E+01  0.48615577809E+01  0.50400000000E-02 0.  1.
          2   -1    0    0  501    0  0.00000000000E+00 -0.00000000000E+00 -0.31515808686E+03  0.31515808687E+03  0.25500000000E-02 0. -1.
         24    2    1    2    0    0 -0.71054273576E-14  0.88817841970E-15 -0.31029653169E+03  0.32001964465E+03  0.78285601377E+02 0.  0.
         66    2    3    3    0    0  0.37108065906E+02 -0.70521766429E+01 -0.19681929523E+03  0.20042099872E+03  0.20000001566E+01 0.  0.
        -13    1    3    3    0    0 -0.37108065906E+02  0.70521766429E+01 -0.11347723646E+03  0.11959864594E+03  0.10566000000E+00 0.  1.
         13    1    4    4    0    0  0.61736654479E+01 -0.83630289117E+00 -0.29606032702E+02  0.30254617565E+02  0.10566000000E+00 0.  1.
        -13    1    4    4    0    0  0.14858939134E+02 -0.29055185794E+01 -0.77985292855E+02  0.79441470128E+02  0.10566000000E+00 0. -1.
        -14    1    4    4    0    0  0.16075461324E+02 -0.33103551724E+01 -0.89227969673E+02  0.90724911022E+02  0.00000000000E+00 0.  1.
<mgrwt>
<rscale>  0 0.78285601E+02</rscale>
<asrwt>0</asrwt>
<pdfrwt beam="1">  1        2 0.48485844E-01 0.78285601E+02</pdfrwt>
<pdfrwt beam="2">  1       -1 0.74793201E-03 0.78285601E+02</pdfrwt>
<totfact> 0.27466994E+05</totfact>
</mgrwt>
</event>
<event>
 8    1  0.1493610E-013  0.7996660E+02  0.7818608E-02  0.1329146E+00
         -1   -1    0    0    0  501 -0.00000000000E+00  0.00000000000E+00  0.10128710866E+02  0.10128712120E+02  0.50400000000E-02 0.  1.
          2   -1    0    0  501    0  0.00000000000E+00 -0.00000000000E+00 -0.15783492304E+03  0.15783492307E+03  0.25500000000E-02 0. -1.
         24    2    1    2    0    0  0.88817841970E-15 -0.88817841970E-15 -0.14770621218E+03  0.16796363519E+03  0.79966603207E+02 0.  0.
         66    2    3    3    0    0 -0.79332829481E+01  0.75223891150E+01 -0.15462581403E+03  0.15502472603E+03  0.19999993577E+01 0.  0.
        -13    1    3    3    0    0  0.79332829481E+01 -0.75223891150E+01  0.69196018559E+01  0.12938909158E+02  0.10566000000E+00 0.  1.
         13    1    4    4    0    0 -0.16668496358E+01  0.14218047785E+01 -0.26609396577E+02  0.26699645443E+02  0.10566000000E+00 0. -1.
        -13    1    4    4    0    0 -0.78691916037E-01  0.22952278244E+00 -0.87643588396E+01  0.87683534960E+01  0.10566000000E+00 0.  1.
        -14    1    4    4    0    0 -0.61877413963E+01  0.58710615540E+01 -0.11925205862E+03  0.11955672709E+03  0.00000000000E+00 0.  1.
<mgrwt>
<rscale>  0 0.79966603E+02</rscale>
<asrwt>0</asrwt>
<pdfrwt beam="1">  1        2 0.24282294E-01 0.79966603E+02</pdfrwt>
<pdfrwt beam="2">  1       -1 0.15582634E-02 0.79966603E+02</pdfrwt>
<totfact> 0.20386338E+05</totfact>
</mgrwt>
</event>
<event>
 8    1  0.1493610E-013  0.8127823E+02  0.7818608E-02  0.1325463E+00
          2   -1    0    0  501    0  0.00000000000E+00  0.00000000000E+00  0.64455439064E+02  0.64455439114E+02  0.25500000000E-02 0. -1.
         -1   -1    0    0    0  501 -0.00000000000E+00 -0.00000000000E+00 -0.25622939430E+02  0.25622939926E+02  0.50400000000E-02 0.  1.
         24    2    1    2    0    0  0.35527136788E-14 -0.22204460493E-15  0.38832499633E+02  0.90078379040E+02  0.81278234126E+02 0.  0.
         66    2    3    3    0    0  0.22320503979E+02 -0.13048750995E+01  0.57005176517E+02  0.61265795920E+02  0.20000007621E+01 0.  0.
        -13    1    3    3    0    0 -0.22320503979E+02  0.13048750995E+01 -0.18172676883E+02  0.28812583120E+02  0.10566000000E+00 0.  1.
         13    1    4    4    0    0  0.76634821494E+01 -0.13641870187E+00  0.19840297752E+02  0.21269606194E+02  0.10566000000E+00 0. -1.
        -13    1    4    4    0    0  0.12198191815E+02 -0.15116680990E+01  0.30483464604E+02  0.32868431698E+02  0.10566000000E+00 0.  1.
        -14    1    4    4    0    0  0.24588300151E+01  0.34321170128E+00  0.66814141601E+01  0.71277580272E+01  0.00000000000E+00 0.  1.
<mgrwt>
<rscale>  0 0.81278234E+02</rscale>
<asrwt>0</asrwt>
<pdfrwt beam="1">  1        2 0.99162213E-02 0.81278234E+02</pdfrwt>
<pdfrwt beam="2">  1       -1 0.39419908E-02 0.81278234E+02</pdfrwt>
<totfact> 0.15161924E+05</totfact>
</mgrwt>
</event>
<event>
 8    1  0.1493610E-013  0.7912141E+02  0.7818608E-02  0.1331563E+00
          2   -1    0    0  501    0  0.00000000000E+00  0.00000000000E+00  0.39856866273E+02  0.39856866355E+02  0.25500000000E-02 0. -1.
         -1   -1    0    0    0  501 -0.00000000000E+00 -0.00000000000E+00 -0.39266743399E+02  0.39266743722E+02  0.50400000000E-02 0.  1.
         24    2    1    2    0    0 -0.35527136788E-14  0.00000000000E+00  0.59012287411E+00  0.79123610077E+02  0.79121409407E+02 0.  0.
         66    2    3    3    0    0 -0.30901600695E+02  0.24416037874E+02  0.37583756647E+01  0.39612841662E+02  0.20000014828E+01 0.  0.
        -13    1    3    3    0    0  0.30901600695E+02 -0.24416037874E+02 -0.31682527906E+01  0.39510768415E+02  0.10566000000E+00 0.  1.
         13    1    4    4    0    0 -0.26402744564E+02  0.20134000676E+02  0.33610959483E+01  0.33373507962E+02  0.10566000000E+00 0. -1.
        -13    1    4    4    0    0 -0.37669055658E+01  0.35666574060E+01  0.17266913482E+00  0.51914931628E+01  0.10566000000E+00 0.  1.
         14    1    4    4    0    0 -0.73195056542E+00  0.71537979186E+00  0.22461058158E+00  0.10478405366E+01  0.00000000000E+00 0. -1.
<mgrwt>
<rscale>  0 0.79121409E+02</rscale>
<asrwt>0</asrwt>
<pdfrwt beam="1">  1        2 0.61318256E-02 0.79121409E+02</pdfrwt>
<pdfrwt beam="2">  1       -1 0.60410375E-02 0.79121409E+02</pdfrwt>
<totfact> 0.14686010E+05</totfact>
</mgrwt>
</event>
<event>
 8    1  0.2105982E-013  0.7897623E+02  0.7818608E-02  0.1331982E+00
         -1   -1    0    0    0  501 -0.00000000000E+00  0.00000000000E+00  0.36260093661E+01  0.36260128688E+01  0.50400000000E-02 0.  1.
          2   -1    0    0  501    0  0.00000000000E+00 -0.00000000000E+00 -0.43003486058E+03  0.43003486059E+03  0.25500000000E-02 0. -1.
         24    2    1    2    0    0  0.00000000000E+00  0.17763568394E-14 -0.42640885122E+03  0.43366087346E+03  0.78976229167E+02 0.  0.
         66    2    3    3    0    0  0.32133044275E+02  0.91339626563E+01 -0.32869743487E+03  0.33039667900E+03  0.19999994933E+01 0.  0.
        -13    1    3    3    0    0 -0.32133044275E+02 -0.91339626563E+01 -0.97711416353E+02  0.10326419446E+03  0.10566000000E+00 0.  1.
         13    1    4    4    0    0  0.77041850938E+01  0.25598382611E+01 -0.76055673958E+02  0.76487802590E+02  0.10566000000E+00 0. -1.
        -13    1    4    4    0    0  0.90911327796E+00  0.40082817854E+00 -0.82089505362E+01  0.82695334283E+01  0.10566000000E+00 0. -1.
         14    1    4    4    0    0  0.23519745904E+02  0.61732962167E+01 -0.24443281037E+03  0.24563934298E+03  0.00000000000E+00 0. -1.
<mgrwt>
<rscale>  0 0.78976229E+02</rscale>
<asrwt>0</asrwt>
<pdfrwt beam="1">  1        2 0.66159169E-01 0.78976229E+02</pdfrwt>
<pdfrwt beam="2">  1       -1 0.55784821E-03 0.78976229E+02</pdfrwt>
<totfact> 0.29959600E+05</totfact>
</mgrwt>
</event>
<event>
 8    1  0.1493610E-013  0.7859161E+02  0.7818608E-02  0.1333096E+00
          2   -1    0    0  501    0  0.00000000000E+00  0.00000000000E+00  0.19618745111E+02  0.19618745277E+02  0.25500000000E-02 0. -1.
         -1   -1    0    0    0  501 -0.00000000000E+00 -0.00000000000E+00 -0.78708409147E+02  0.78708409308E+02  0.50400000000E-02 0.  1.
         24    2    1    2    0    0  0.00000000000E+00  0.00000000000E+00 -0.59089664036E+02  0.98327154584E+02  0.78591608539E+02 0.  0.
         66    2    3    3    0    0  0.18209267793E+02  0.85814701332E+01  0.12621796645E+02  0.23843842224E+02  0.19999995648E+01 0.  0.
        -13    1    3    3    0    0 -0.18209267793E+02 -0.85814701332E+01 -0.71711460681E+02  0.74483312360E+02  0.10566000000E+00 0.  1.
         13    1    4    4    0    0  0.12510901196E+02  0.50046220043E+01  0.84076503755E+01  0.15882966946E+02  0.10566000000E+00 0. -1.
        -13    1    4    4    0    0  0.23991020656E+01  0.14527845579E+01  0.14329254758E+01  0.31513034046E+01  0.10566000000E+00 0.  1.
         14    1    4    4    0    0  0.32992645310E+01  0.21240635710E+01  0.27812207936E+01  0.48095718731E+01  0.00000000000E+00 0. -1.
<mgrwt>
<rscale>  0 0.78591609E+02</rscale>
<asrwt>0</asrwt>
<pdfrwt beam="1">  1        2 0.30182685E-02 0.78591609E+02</pdfrwt>
<pdfrwt beam="2">  1       -1 0.12108986E-01 0.78591609E+02</pdfrwt>
<totfact> 0.13014363E+05</totfact>
</mgrwt>
</event>
<event>
 8    1  0.1493610E-013  0.8007364E+02  0.7818608E-02  0.1328843E+00
          2   -1    0    0  501    0  0.00000000000E+00  0.00000000000E+00  0.34256851577E+02  0.34256851672E+02  0.25500000000E-02 0. -1.
         -1   -1    0    0    0  501 -0.00000000000E+00 -0.00000000000E+00 -0.46792010164E+02  0.46792010436E+02  0.50400000000E-02 0.  1.
         24    2    1    2    0    0 -0.17763568394E-14  0.00000000000E+00 -0.12535158588E+02  0.81048862108E+02  0.80073640158E+02 0.  0.
         66    2    3    3    0    0 -0.13639488720E+02 -0.15097724744E+02  0.28600478098E+02  0.35156284117E+02  0.20000051252E+01 0.  0.
        -13    1    3    3    0    0  0.13639488720E+02  0.15097724744E+02 -0.41135636686E+02  0.45892577990E+02  0.10566000000E+00 0.  1.
         13    1    4    4    0    0 -0.30257054897E+01 -0.29643628839E+01  0.48405049911E+01  0.64330392213E+01  0.10566000000E+00 0. -1.
        -13    1    4    4    0    0 -0.30821290178E+01 -0.40512717261E+01  0.73717425035E+01  0.89591335214E+01  0.10566000000E+00 0.  1.
        -14    1    4    4    0    0 -0.75316542120E+01 -0.80820901343E+01  0.16388230604E+02  0.19764111375E+02  0.00000000000E+00 0.  1.
<mgrwt>
<rscale>  0 0.80073640E+02</rscale>
<asrwt>0</asrwt>
<pdfrwt beam="1">  1        2 0.52702849E-02 0.80073640E+02</pdfrwt>
<pdfrwt beam="2">  1       -1 0.71987709E-02 0.80073640E+02</pdfrwt>
<totfact> 0.13779118E+05</totfact>
</mgrwt>
</event>
<event>
 8    1  0.1493610E-013  0.8113065E+02  0.7818608E-02  0.1325873E+00
         -1   -1    0    0    0  501 -0.00000000000E+00  0.00000000000E+00  0.28109862210E+02  0.28109862662E+02  0.50400000000E-02 0.  1.
          2   -1    0    0  501    0  0.00000000000E+00 -0.00000000000E+00 -0.58539795777E+02  0.58539795833E+02  0.25500000000E-02 0. -1.
         24    2    1    2    0    0  0.00000000000E+00 -0.88817841970E-15 -0.30429933567E+02  0.86649658494E+02  0.81130650560E+02 0.  0.
         66    2    3    3    0    0 -0.27888814623E+02 -0.79069849743E+01 -0.45493530813E+02  0.53981179520E+02  0.20000009921E+01 0.  0.
        -13    1    3    3    0    0  0.27888814623E+02  0.79069849743E+01  0.15063597246E+02  0.32668478975E+02  0.10566000000E+00 0.  1.
         13    1    4    4    0    0 -0.33748630115E+01 -0.10514159342E+01 -0.53968786248E+01  0.64523359134E+01  0.10566000000E+00 0. -1.
        -13    1    4    4    0    0 -0.16806713035E+02 -0.51018418992E+01 -0.26231990121E+02  0.31569334227E+02  0.10566000000E+00 0.  1.
        -14    1    4    4    0    0 -0.77072385765E+01 -0.17537271409E+01 -0.13864662068E+02  0.15959509379E+02  0.00000000000E+00 0.  1.
<mgrwt>
<rscale>  0 0.81130651E+02</rscale>
<asrwt>0</asrwt>
<pdfrwt beam="1">  1        2 0.90061224E-02 0.81130651E+02</pdfrwt>
<pdfrwt beam="2">  1       -1 0.43245943E-02 0.81130651E+02</pdfrwt>
<totfact> 0.14897281E+05</totfact>
</mgrwt>
</event>
<event>
 8    1  0.1493610E-013  0.7922737E+02  0.7818608E-02  0.1331258E+00
         -1   -1    0    0    0  501 -0.00000000000E+00  0.00000000000E+00  0.14255567878E+02  0.14255568769E+02  0.50400000000E-02 0.  1.
          2   -1    0    0  501    0  0.00000000000E+00 -0.00000000000E+00 -0.11007937547E+03  0.11007937550E+03  0.25500000000E-02 0. -1.
         24    2    1    2    0    0  0.00000000000E+00  0.35527136788E-14 -0.95823807592E+02  0.12433494427E+03  0.79227370681E+02 0.  0.
         66    2    3    3    0    0 -0.13297693397E+02  0.21877432578E+02 -0.95329981106E+02  0.98728192532E+02  0.19999992751E+01 0.  0.
        -13    1    3    3    0    0  0.13297693397E+02 -0.21877432578E+02 -0.49382648539E+00  0.25606751737E+02  0.10566000000E+00 0.  1.
         13    1    4    4    0    0 -0.71106826578E+01  0.10198526896E+02 -0.45785485473E+02  0.47443583367E+02  0.10566000000E+00 0. -1.
        -13    1    4    4    0    0 -0.18175460193E+01  0.36478277059E+01 -0.13827262100E+02  0.14415771285E+02  0.10566000000E+00 0.  1.
         14    1    4    4    0    0 -0.43694647198E+01  0.80310779762E+01 -0.35717233533E+02  0.36868837880E+02  0.00000000000E+00 0. -1.
<mgrwt>
<rscale>  0 0.79227371E+02</rscale>
<asrwt>0</asrwt>
<pdfrwt beam="1">  1        2 0.16935288E-01 0.79227371E+02</pdfrwt>
<pdfrwt beam="2">  1       -1 0.21931644E-02 0.79227371E+02</pdfrwt>
<totfact> 0.18695972E+05</totfact>
</mgrwt>
</event>
<event>
 8    1  0.1493610E-013  0.7953648E+02  0.7818608E-02  0.1330372E+00
         -1   -1    0    0    0  501 -0.00000000000E+00  0.00000000000E+00  0.19081882417E+02  0.19081883083E+02  0.50400000000E-02 0.  1.
          2   -1    0    0  501    0  0.00000000000E+00 -0.00000000000E+00 -0.82880337730E+02  0.82880337769E+02  0.25500000000E-02 0. -1.
         24    2    1    2    0    0 -0.17763568394E-14  0.00000000000E+00 -0.63798455313E+02  0.10196222085E+03  0.79536479559E+02 0.  0.
         66    2    3    3    0    0  0.11690737792E+02 -0.26521998433E+02 -0.66778587355E+02  0.72824923413E+02  0.19999975043E+01 0.  0.
        -13    1    3    3    0    0 -0.11690737792E+02  0.26521998433E+02  0.29801320420E+01  0.29137297439E+02  0.10566000000E+00 0.  1.
         13    1    4    4    0    0  0.50107772170E+01 -0.12634637968E+02 -0.30700065753E+02  0.33574501727E+02  0.10566000000E+00 0. -1.
        -13    1    4    4    0    0  0.32509236585E+01 -0.63180252581E+01 -0.15203878692E+02  0.16782581420E+02  0.10566000000E+00 0.  1.
         14    1    4    4    0    0  0.34290369168E+01 -0.75693352073E+01 -0.20874642909E+02  0.22467840266E+02  0.00000000000E+00 0. -1.
<mgrwt>
<rscale>  0 0.79536480E+02</rscale>
<asrwt>0</asrwt>
<pdfrwt beam="1">  1        2 0.12750821E-01 0.79536480E+02</pdfrwt>
<pdfrwt beam="2">  1       -1 0.29356743E-02 0.79536480E+02</pdfrwt>
<totfact> 0.17114732E+05</totfact>
</mgrwt>
</event>
<event>
 8    1  0.1493610E-013  0.7843711E+02  0.7818608E-02  0.1333546E+00
          2   -1    0    0  501    0  0.00000000000E+00  0.00000000000E+00  0.89413228262E+01  0.89413231898E+01  0.25500000000E-02 0. -1.
         -1   -1    0    0    0  501 -0.00000000000E+00 -0.00000000000E+00 -0.17202097705E+03  0.17202097712E+03  0.50400000000E-02 0.  1.
         24    2    1    2    0    0  0.00000000000E+00 -0.44408920985E-15 -0.16307965422E+03  0.18096230031E+03  0.78437111835E+02 0.  0.
         66    2    3    3    0    0 -0.38442677103E+02  0.24341184456E+01 -0.64903912074E+02  0.75500212974E+02  0.20000002643E+01 0.  0.
        -13    1    3    3    0    0  0.38442677103E+02 -0.24341184456E+01 -0.98175742146E+02  0.10546208734E+03  0.10566000000E+00 0.  1.
         13    1    4    4    0    0 -0.14745760051E+02  0.13576752943E+01 -0.23523908941E+02  0.27796873522E+02  0.10566000000E+00 0. -1.
        -13    1    4    4    0    0 -0.13217527334E+02  0.22147423590E+00 -0.23071767262E+02  0.26590782018E+02  0.10566000000E+00 0.  1.
         14    1    4    4    0    0 -0.10479389718E+02  0.85496891548E+00 -0.18308235871E+02  0.21112557434E+02  0.00000000000E+00 0. -1.
<mgrwt>
<rscale>  0 0.78437112E+02</rscale>
<asrwt>0</asrwt>
<pdfrwt beam="1">  1        2 0.13755883E-02 0.78437112E+02</pdfrwt>
<pdfrwt beam="2">  1       -1 0.26464763E-01 0.78437112E+02</pdfrwt>
<totfact> 0.10936921E+05</totfact>
</mgrwt>
</event>
<event>
 8    1  0.1493610E-013  0.8319291E+02  0.7818608E-02  0.1320227E+00
         -1   -1    0    0    0  501 -0.00000000000E+00  0.00000000000E+00  0.14098872972E+02  0.14098873873E+02  0.50400000000E-02 0.  1.
          2   -1    0    0  501    0  0.00000000000E+00 -0.00000000000E+00 -0.12272363837E+03  0.12272363839E+03  0.25500000000E-02 0. -1.
         24    2    1    2    0    0  0.00000000000E+00  0.00000000000E+00 -0.10862476539E+03  0.13682251227E+03  0.83192909589E+02 0.  0.
         66    2    3    3    0    0  0.65226220928E+00  0.41269731743E+02 -0.46179263544E+02  0.61968867936E+02  0.20000019113E+01 0.  0.
        -13    1    3    3    0    0 -0.65226220928E+00 -0.41269731743E+02 -0.62445501849E+02  0.74853644330E+02  0.10566000000E+00 0.  1.
         13    1    4    4    0    0  0.26948653065E+00  0.80213746748E+00 -0.92395037252E+00  0.12573368019E+01  0.10566000000E+00 0. -1.
        -13    1    4    4    0    0  0.63841517835E-01  0.68528896003E+01 -0.76141187728E+01  0.10244615187E+02  0.10566000000E+00 0. -1.
         14    1    4    4    0    0  0.31893416079E+00  0.33614704676E+02 -0.37641194399E+02  0.50466915947E+02  0.00000000000E+00 0. -1.
<mgrwt>
<rscale>  0 0.83192910E+02</rscale>
<asrwt>0</asrwt>
<pdfrwt beam="1">  1        2 0.18880559E-01 0.83192910E+02</pdfrwt>
<pdfrwt beam="2">  1       -1 0.21690575E-02 0.83192910E+02</pdfrwt>
<totfact> 0.16945509E+05</totfact>
</mgrwt>
</event>
<event>
 8    1  0.1493610E-013  0.8611984E+02  0.7818608E-02  0.1312530E+00
          2   -1    0    0  501    0  0.00000000000E+00  0.00000000000E+00  0.91650725799E+01  0.91650729346E+01  0.25500000000E-02 0. -1.
         -1   -1    0    0    0  501 -0.00000000000E+00 -0.00000000000E+00 -0.20230679803E+03  0.20230679810E+03  0.50400000000E-02 0.  1.
         24    2    1    2    0    0  0.17763568394E-14 -0.35527136788E-14 -0.19314172545E+03  0.21147187103E+03  0.86119835846E+02 0.  0.
         66    2    3    3    0    0 -0.13191322844E+02  0.26065669621E+02 -0.19021039294E+02  0.34917475323E+02  0.20000039748E+01 0.  0.
        -13    1    3    3    0    0  0.13191322844E+02 -0.26065669621E+02 -0.17412068616E+03  0.17655439571E+03  0.10566000000E+00 0.  1.
         13    1    4    4    0    0 -0.41019898879E+01  0.92108557578E+01 -0.73005586420E+01  0.12448915830E+02  0.10566000000E+00 0. -1.
        -13    1    4    4    0    0 -0.57695428984E+01  0.98129993698E+01 -0.68921468504E+01  0.13307720847E+02  0.10566000000E+00 0.  1.
         14    1    4    4    0    0 -0.33197900577E+01  0.70418144937E+01 -0.48283338015E+01  0.91608386455E+01  0.00000000000E+00 0. -1.
<mgrwt>
<rscale>  0 0.86119836E+02</rscale>
<asrwt>0</asrwt>
<pdfrwt beam="1">  1        2 0.14100114E-02 0.86119836E+02</pdfrwt>
<pdfrwt beam="2">  1       -1 0.31124119E-01 0.86119836E+02</pdfrwt>
<totfact> 0.82253458E+04</totfact>
</mgrwt>
</event>
<event>
 8    1  0.1493610E-013  0.7878002E+02  0.7818608E-02  0.1332550E+00
          2   -1    0    0  501    0  0.00000000000E+00  0.00000000000E+00  0.22034198299E+03  0.22034198301E+03  0.25500000000E-02 0. -1.
         -1   -1    0    0    0  501 -0.00000000000E+00 -0.00000000000E+00 -0.70416562537E+01  0.70416580574E+01  0.50400000000E-02 0.  1.
         24    2    1    2    0    0  0.00000000000E+00 -0.44408920985E-15  0.21330032674E+03  0.22738364107E+03  0.78780015467E+02 0.  0.
         66    2    3    3    0    0 -0.36639449224E+02  0.30953104668E+01  0.14728525341E+03  0.15181889229E+03  0.19999996958E+01 0.  0.
        -13    1    3    3    0    0  0.36639449224E+02 -0.30953104668E+01  0.66015073333E+02  0.75564748776E+02  0.10566000000E+00 0.  1.
         13    1    4    4    0    0 -0.25544718491E+02  0.22311857474E+01  0.10349304973E+03  0.10662238667E+03  0.10566000000E+00 0. -1.
        -13    1    4    4    0    0 -0.75882429755E+01  0.84419652778E+00  0.31654006295E+02  0.32561962131E+02  0.10566000000E+00 0.  1.
         14    1    4    4    0    0 -0.35064877577E+01  0.19928191645E-01  0.12138197381E+02  0.12634543490E+02  0.00000000000E+00 0. -1.
<mgrwt>
<rscale>  0 0.78780015E+02</rscale>
<asrwt>0</asrwt>
<pdfrwt beam="1">  1        2 0.33898766E-01 0.78780015E+02</pdfrwt>
<pdfrwt beam="2">  1       -1 0.10833319E-02 0.78780015E+02</pdfrwt>
<totfact> 0.23761719E+05</totfact>
</mgrwt>
</event>
<event>
 8    1  0.1493610E-013  0.8094192E+02  0.7818608E-02  0.1326399E+00
         -1   -1    0    0    0  501 -0.00000000000E+00  0.00000000000E+00  0.18660539587E+01  0.18660607649E+01  0.50400000000E-02 0.  1.
          2   -1    0    0  501    0  0.00000000000E+00 -0.00000000000E+00 -0.87773212076E+03  0.87773212077E+03  0.25500000000E-02 0. -1.
         24    2    1    2    0    0  0.00000000000E+00  0.35527136788E-14 -0.87586606680E+03  0.87959818153E+03  0.80941917289E+02 0.  0.
         66    2    3    3    0    0  0.13574268693E+02  0.31658042061E+02 -0.66857071843E+03  0.66946045284E+03  0.19999945150E+01 0.  0.
        -13    1    3    3    0    0 -0.13574268693E+02 -0.31658042061E+02 -0.20729534837E+03  0.21013772869E+03  0.10566000000E+00 0.  1.
         13    1    4    4    0    0  0.33957583892E+01  0.98026665183E+01 -0.19895767798E+03  0.19922799060E+03  0.10566000000E+00 0. -1.
        -13    1    4    4    0    0  0.27322583695E+01  0.56665966469E+01 -0.13046346620E+03  0.13061509380E+03  0.10566000000E+00 0.  1.
         14    1    4    4    0    0  0.74462519342E+01  0.16188778896E+02 -0.33914957426E+03  0.33961736844E+03  0.00000000000E+00 0. -1.
<mgrwt>
<rscale>  0 0.80941917E+02</rscale>
<asrwt>0</asrwt>
<pdfrwt beam="1">  1        2 0.13503538E+00 0.80941917E+02</pdfrwt>
<pdfrwt beam="2">  1       -1 0.28708645E-03 0.80941917E+02</pdfrwt>
<totfact> 0.33800246E+05</totfact>
</mgrwt>
</event>
<event>
 8    1  0.1493610E-013  0.8211450E+02  0.7818608E-02  0.1323156E+00
         -1   -1    0    0    0  501 -0.00000000000E+00  0.00000000000E+00  0.58277255956E+01  0.58277277749E+01  0.50400000000E-02 0.  1.
          2   -1    0    0  501    0  0.00000000000E+00 -0.00000000000E+00 -0.28925478071E+03  0.28925478073E+03  0.25500000000E-02 0. -1.
         24    2    1    2    0    0 -0.35527136788E-14  0.00000000000E+00 -0.28342705512E+03  0.29508250850E+03  0.82114500849E+02 0.  0.
         66    2    3    3    0    0 -0.20003445367E+02  0.20865691609E+02 -0.24645407336E+03  0.24815141586E+03  0.20000002213E+01 0.  0.
        -13    1    3    3    0    0  0.20003445367E+02 -0.20865691609E+02 -0.36972981754E+02  0.46931092644E+02  0.10566000000E+00 0.  1.
         13    1    4    4    0    0 -0.13301450887E+02  0.14418855350E+02 -0.17351940870E+03  0.17462482168E+03  0.10566000000E+00 0. -1.
        -13    1    4    4    0    0 -0.45593919923E+01  0.46518339303E+01 -0.51608681706E+02  0.52018216095E+02  0.10566000000E+00 0.  1.
        -14    1    4    4    0    0 -0.21426024882E+01  0.17950023291E+01 -0.21325982954E+02  0.21508378082E+02  0.00000000000E+00 0.  1.
<mgrwt>
<rscale>  0 0.82114501E+02</rscale>
<asrwt>0</asrwt>
<pdfrwt beam="1">  1        2 0.44500724E-01 0.82114501E+02</pdfrwt>
<pdfrwt beam="2">  1       -1 0.89657357E-03 0.82114501E+02</pdfrwt>
<totfact> 0.23493638E+05</totfact>
</mgrwt>
</event>
<event>
 8    1  0.1493610E-013  0.8031302E+02  0.7818608E-02  0.1328165E+00
          2   -1    0    0  501    0  0.00000000000E+00  0.00000000000E+00  0.19349209177E+02  0.19349209345E+02  0.25500000000E-02 0. -1.
         -1   -1    0    0    0  501 -0.00000000000E+00 -0.00000000000E+00 -0.83339069729E+02  0.83339069881E+02  0.50400000000E-02 0.  1.
         24    2    1    2    0    0  0.35527136788E-14  0.00000000000E+00 -0.63989860552E+02  0.10268827923E+03  0.80313015365E+02 0.  0.
         66    2    3    3    0    0  0.24839601038E+02 -0.27046120793E+02 -0.52712324308E+02  0.64273537037E+02  0.19999999263E+01 0.  0.
        -13    1    3    3    0    0 -0.24839601038E+02  0.27046120793E+02 -0.11277536244E+02  0.38414742189E+02  0.10566000000E+00 0.  1.
         13    1    4    4    0    0  0.66591429699E+01 -0.62704775341E+01 -0.13709849271E+02  0.16481328971E+02  0.10566000000E+00 0. -1.
        -13    1    4    4    0    0  0.14668216993E+02 -0.16245806290E+02 -0.30789476156E+02  0.37776789405E+02  0.10566000000E+00 0.  1.
        -14    1    4    4    0    0  0.35122410743E+01 -0.45298369691E+01 -0.82129988812E+01  0.10015418661E+02  0.00000000000E+00 0.  1.
<mgrwt>
<rscale>  0 0.80313015E+02</rscale>
<asrwt>0</asrwt>
<pdfrwt beam="1">  1        2 0.29768015E-02 0.80313015E+02</pdfrwt>
<pdfrwt beam="2">  1       -1 0.12821395E-01 0.80313015E+02</pdfrwt>
<totfact> 0.12194724E+05</totfact>
</mgrwt>
</event>
<event>
 8    1  0.1493610E-013  0.7816534E+02  0.7818608E-02  0.1334340E+00
         -1   -1    0    0    0  501 -0.00000000000E+00  0.00000000000E+00  0.21874215143E+03  0.21874215149E+03  0.50400000000E-02 0.  1.
          2   -1    0    0  501    0  0.00000000000E+00 -0.00000000000E+00 -0.69829030160E+01  0.69829034816E+01  0.25500000000E-02 0. -1.
         24    2    1    2    0    0  0.71054273576E-14  0.17763568394E-14  0.21175924842E+03  0.22572505497E+03  0.78165344957E+02 0.  0.
         66    2    3    3    0    0  0.35617782812E+02  0.12782904751E+02  0.78036915272E+02  0.86751306905E+02  0.19999995516E+01 0.  0.
        -13    1    3    3    0    0 -0.35617782812E+02 -0.12782904751E+02  0.13372233314E+03  0.13897374807E+03  0.10566000000E+00 0.  1.
         13    1    4    4    0    0  0.12292422305E+02  0.38733682846E+01  0.27166893809E+02  0.30069218667E+02  0.10566000000E+00 0. -1.
        -13    1    4    4    0    0  0.90200195169E+00  0.49610235510E+00  0.17169724691E+01  0.20047153321E+01  0.10566000000E+00 0. -1.
        -14    1    4    4    0    0  0.22423358555E+02  0.84134341115E+01  0.49153048994E+02  0.54677372905E+02  0.00000000000E+00 0.  1.
<mgrwt>
<rscale>  0 0.78165345E+02</rscale>
<asrwt>0</asrwt>
<pdfrwt beam="1">  1        2 0.10742927E-02 0.78165345E+02</pdfrwt>
<pdfrwt beam="2">  1       -1 0.33652643E-01 0.78165345E+02</pdfrwt>
<totfact> 0.10276266E+05</totfact>
</mgrwt>
</event>
<event>
 8    1  0.1493610E-013  0.7885526E+02  0.7818608E-02  0.1332332E+00
          2   -1    0    0  501    0  0.00000000000E+00  0.00000000000E+00  0.16200873691E+03  0.16200873693E+03  0.25500000000E-02 0. -1.
         -1   -1    0    0    0  501 -0.00000000000E+00 -0.00000000000E+00 -0.95953958598E+01  0.95953971834E+01  0.50400000000E-02 0.  1.
         24    2    1    2    0    0  0.00000000000E+00  0.00000000000E+00  0.15241334105E+03  0.17160413412E+03  0.78855261808E+02 0.  0.
         66    2    3    3    0    0  0.85440263503E+01 -0.94432597720E+01  0.15740028679E+03  0.15792728019E+03  0.20000012725E+01 0.  0.
        -13    1    3    3    0    0 -0.85440263503E+01  0.94432597720E+01 -0.49869457402E+01  0.13676853924E+02  0.10566000000E+00 0.  1.
         13    1    4    4    0    0  0.22100758765E+01 -0.21961789817E+01  0.39361274443E+02  0.39484537825E+02  0.10566000000E+00 0. -1.
        -13    1    4    4    0    0  0.23903050048E+01 -0.17715927501E+01  0.41655460222E+02  0.41761712480E+02  0.10566000000E+00 0.  1.
        -14    1    4    4    0    0  0.39436454690E+01 -0.54754880402E+01  0.76383552128E+02  0.76681029887E+02  0.00000000000E+00 0.  1.
<mgrwt>
<rscale>  0 0.78855262E+02</rscale>
<asrwt>0</asrwt>
<pdfrwt beam="1">  1        2 0.24924422E-01 0.78855262E+02</pdfrwt>
<pdfrwt beam="2">  1       -1 0.14762148E-02 0.78855262E+02</pdfrwt>
<totfact> 0.21337737E+05</totfact>
</mgrwt>
</event>
<event>
 8    1  0.1493610E-013  0.7910022E+02  0.7818608E-02  0.1331624E+00
          2   -1    0    0  501    0  0.00000000000E+00  0.00000000000E+00  0.77333277648E+03  0.77333277649E+03  0.25500000000E-02 0. -1.
         -1   -1    0    0    0  501 -0.00000000000E+00 -0.00000000000E+00 -0.20226851969E+01  0.20226914761E+01  0.50400000000E-02 0.  1.
         24    2    1    2    0    0  0.35527136788E-14  0.00000000000E+00  0.77131009129E+03  0.77535546796E+03  0.79100219853E+02 0.  0.
         66    2    3    3    0    0 -0.23491806704E+02  0.43620357777E+01  0.69452424414E+03  0.69493799583E+03  0.20000027977E+01 0.  0.
        -13    1    3    3    0    0  0.23491806704E+02 -0.43620357777E+01  0.76785847144E+02  0.80417472131E+02  0.10566000000E+00 0.  1.
         13    1    4    4    0    0 -0.31072051049E+01  0.50165324630E+00  0.82512814324E+02  0.82572889445E+02  0.10566000000E+00 0. -1.
        -13    1    4    4    0    0 -0.11526159820E+02  0.28902364976E+01  0.36101775755E+03  0.36121328639E+03  0.10566000000E+00 0.  1.
        -14    1    4    4    0    0 -0.88584417794E+01  0.97014603376E+00  0.25099367226E+03  0.25115182000E+03  0.00000000000E+00 0.  1.
<mgrwt>
<rscale>  0 0.79100220E+02</rscale>
<asrwt>0</asrwt>
<pdfrwt beam="1">  1        2 0.11897423E+00 0.79100220E+02</pdfrwt>
<pdfrwt beam="2">  1       -1 0.31118294E-03 0.79100220E+02</pdfrwt>
<totfact> 0.35174219E+05</totfact>
</mgrwt>
</event>
<event>
 8    1  0.1493610E-013  0.7913318E+02  0.7818608E-02  0.1331529E+00
          2   -1    0    0  501    0  0.00000000000E+00  0.00000000000E+00  0.55675449775E+03  0.55675449775E+03  0.25500000000E-02 0. -1.
         -1   -1    0    0    0  501 -0.00000000000E+00 -0.00000000000E+00 -0.28118564463E+01  0.28118609631E+01  0.50400000000E-02 0.  1.
         24    2    1    2    0    0  0.00000000000E+00  0.00000000000E+00  0.55394264130E+03  0.55956635871E+03  0.79133178600E+02 0.  0.
         66    2    3    3    0    0  0.53618167331E+01  0.19156553089E+02  0.51879111798E+03  0.51917621932E+03  0.20000006826E+01 0.  0.
        -13    1    3    3    0    0 -0.53618167331E+01 -0.19156553089E+02  0.35151523315E+02  0.40390139395E+02  0.10566000000E+00 0.  1.
         13    1    4    4    0    0 -0.41291721617E-01  0.11376985326E+01  0.26297978695E+02  0.26322821096E+02  0.10566000000E+00 0. -1.
        -13    1    4    4    0    0  0.15353726568E+01  0.36662868083E+01  0.10318565036E+03  0.10326223236E+03  0.10566000000E+00 0.  1.
         14    1    4    4    0    0  0.38677357979E+01  0.14352567748E+02  0.38930748893E+03  0.38959116586E+03  0.00000000000E+00 0. -1.
<mgrwt>
<rscale>  0 0.79133179E+02</rscale>
<asrwt>0</asrwt>
<pdfrwt beam="1">  1        2 0.85654524E-01 0.79133179E+02</pdfrwt>
<pdfrwt beam="2">  1       -1 0.43259372E-03 0.79133179E+02</pdfrwt>
<totfact> 0.32382870E+05</totfact>
</mgrwt>
</event>
<event>
 8    1  0.1493610E-013  0.8283546E+02  0.7818608E-02  0.1321192E+00
         -1   -1    0    0    0  501 -0.00000000000E+00  0.00000000000E+00  0.13816340000E+03  0.13816340009E+03  0.50400000000E-02 0.  1.
          2   -1    0    0  501    0  0.00000000000E+00 -0.00000000000E+00 -0.12415939493E+02  0.12415939755E+02  0.25500000000E-02 0. -1.
         24    2    1    2    0    0  0.88817841970E-15 -0.35527136788E-14  0.12574746051E+03  0.15057933985E+03  0.82835462001E+02 0.  0.
         66    2    3    3    0    0  0.69299293169E+01 -0.24156038604E+02  0.31187449172E+01  0.25402060868E+02  0.20000012740E+01 0.  0.
        -13    1    3    3    0    0 -0.69299293169E+01  0.24156038604E+02  0.12262871559E+03  0.12517727898E+03  0.10566000000E+00 0.  1.
         13    1    4    4    0    0  0.28812820532E+01 -0.87501958779E+01  0.12704459607E+01  0.93001565119E+01  0.10566000000E+00 0. -1.
        -13    1    4    4    0    0  0.14429946405E+01 -0.67717120072E+01  0.14477130375E+01  0.70742741052E+01  0.10566000000E+00 0.  1.
         14    1    4    4    0    0  0.26056526232E+01 -0.86341307192E+01  0.40058591905E+00  0.90276302510E+01  0.00000000000E+00 0. -1.
<mgrwt>
<rscale>  0 0.82835462E+02</rscale>
<asrwt>0</asrwt>
<pdfrwt beam="1">  1        2 0.19101446E-02 0.82835462E+02</pdfrwt>
<pdfrwt beam="2">  1       -1 0.21255908E-01 0.82835462E+02</pdfrwt>
<totfact> 0.10084986E+05</totfact>
</mgrwt>
</event>
<event>
 8    1  0.1493610E-013  0.8091981E+02  0.7818608E-02  0.1326461E+00
          2   -1    0    0  501    0  0.00000000000E+00  0.00000000000E+00  0.32376001915E+03  0.32376001916E+03  0.25500000000E-02 0. -1.
         -1   -1    0    0    0  501 -0.00000000000E+00 -0.00000000000E+00 -0.50562249104E+01  0.50562274223E+01  0.50400000000E-02 0.  1.
         24    2    1    2    0    0  0.00000000000E+00  0.88817841970E-15  0.31870379424E+03  0.32881624659E+03  0.80919809403E+02 0.  0.
         66    2    3    3    0    0  0.37632662720E+02 -0.76714149655E+01  0.21083732772E+03  0.21431623054E+03  0.20000001532E+01 0.  0.
        -13    1    3    3    0    0 -0.37632662720E+02  0.76714149655E+01  0.10786646652E+03  0.11450001605E+03  0.10566000000E+00 0.  1.
         13    1    4    4    0    0  0.12864147029E+02 -0.33590109371E+01  0.73277203680E+02  0.74473679757E+02  0.10566000000E+00 0.  1.
        -13    1    4    4    0    0  0.98201023446E+01 -0.12713562112E+01  0.52755769089E+02  0.53677118896E+02  0.10566000000E+00 0. -1.
         14    1    4    4    0    0  0.14948413346E+02 -0.30410478171E+01  0.84804354949E+02  0.86165431884E+02  0.00000000000E+00 0. -1.
<mgrwt>
<rscale>  0 0.80919809E+02</rscale>
<asrwt>0</asrwt>
<pdfrwt beam="1">  1        2 0.49809227E-01 0.80919809E+02</pdfrwt>
<pdfrwt beam="2">  1       -1 0.77788105E-03 0.80919809E+02</pdfrwt>
<totfact> 0.25432918E+05</totfact>
</mgrwt>
</event>
<event>
 8    1  0.1493610E-013  0.8197508E+02  0.7818608E-02  0.1323538E+00
          2   -1    0    0  501    0  0.00000000000E+00  0.00000000000E+00  0.18915046107E+03  0.18915046109E+03  0.25500000000E-02 0. -1.
         -1   -1    0    0    0  501 -0.00000000000E+00 -0.00000000000E+00 -0.88817036598E+01  0.88817050897E+01  0.50400000000E-02 0.  1.
         24    2    1    2    0    0 -0.17763568394E-14  0.00000000000E+00  0.18026875741E+03  0.19803216618E+03  0.81975081229E+02 0.  0.
         66    2    3    3    0    0 -0.94117241636E+01  0.33544437221E+02  0.38141629390E+02  0.51697134474E+02  0.20000000300E+01 0.  0.
        -13    1    3    3    0    0  0.94117241636E+01 -0.33544437221E+02  0.14212712802E+03  0.14633503171E+03  0.10566000000E+00 0.  1.
         13    1    4    4    0    0 -0.10234571512E+01  0.25010938038E+01  0.30681065561E+01  0.40899115676E+01  0.10566000000E+00 0. -1.
        -13    1    4    4    0    0 -0.14117994367E+01  0.54283321296E+01  0.53168828663E+01  0.77291897899E+01  0.10566000000E+00 0.  1.
         14    1    4    4    0    0 -0.69764675758E+01  0.25615011287E+02  0.29756639967E+02  0.39878033116E+02  0.00000000000E+00 0. -1.
<mgrwt>
<rscale>  0 0.81975081E+02</rscale>
<asrwt>0</asrwt>
<pdfrwt beam="1">  1        2 0.29100067E-01 0.81975081E+02</pdfrwt>
<pdfrwt beam="2">  1       -1 0.13664162E-02 0.81975081E+02</pdfrwt>
<totfact> 0.20286159E+05</totfact>
</mgrwt>
</event>
<event>
 8    1  0.1493610E-013  0.8573568E+02  0.7818608E-02  0.1313520E+00
         -1   -1    0    0    0  501 -0.00000000000E+00  0.00000000000E+00  0.42932048162E+01  0.42932077745E+01  0.50400000000E-02 0.  1.
          2   -1    0    0  501    0  0.00000000000E+00 -0.00000000000E+00 -0.42803711562E+03  0.42803711563E+03  0.25500000000E-02 0. -1.
         24    2    1    2    0    0  0.35527136788E-14  0.00000000000E+00 -0.42374391080E+03  0.43233032340E+03  0.85735678627E+02 0.  0.
         66    2    3    3    0    0  0.26894341983E+02 -0.28815477204E+02 -0.29666789170E+03  0.29928159867E+03  0.19999950655E+01 0.  0.
        -13    1    3    3    0    0 -0.26894341983E+02  0.28815477204E+02 -0.12707601911E+03  0.13304872473E+03  0.10566000000E+00 0.  1.
         13    1    4    4    0    0  0.14597106816E+02 -0.16427700575E+02 -0.16475537064E+03  0.16621458478E+03  0.10566000000E+00 0. -1.
        -13    1    4    4    0    0  0.77019267443E+01 -0.76206273353E+01 -0.85826589390E+02  0.86507850782E+02  0.10566000000E+00 0.  1.
        -14    1    4    4    0    0  0.45953084226E+01 -0.47671492938E+01 -0.46085931662E+02  0.46559163105E+02  0.00000000000E+00 0.  1.
<mgrwt>
<rscale>  0 0.85735679E+02</rscale>
<asrwt>0</asrwt>
<pdfrwt beam="1">  1        2 0.65851830E-01 0.85735679E+02</pdfrwt>
<pdfrwt beam="2">  1       -1 0.66049362E-03 0.85735679E+02</pdfrwt>
<totfact> 0.24126427E+05</totfact>
</mgrwt>
</event>
<event>
 8    1  0.1493610E-013  0.7622055E+02  0.7818608E-02  0.1340132E+00
          2   -1    0    0  501    0  0.00000000000E+00  0.00000000000E+00  0.25595624513E+03  0.25595624514E+03  0.25500000000E-02 0. -1.
         -1   -1    0    0    0  501 -0.00000000000E+00 -0.00000000000E+00 -0.56743796730E+01  0.56743819112E+01  0.50400000000E-02 0.  1.
         24    2    1    2    0    0  0.00000000000E+00  0.00000000000E+00  0.25028186546E+03  0.26163062705E+03  0.76220553895E+02 0.  0.
         66    2    3    3    0    0  0.20472492208E+02  0.26021767100E+02  0.18982197127E+03  0.19269830322E+03  0.19999965935E+01 0.  0.
        -13    1    3    3    0    0 -0.20472492208E+02 -0.26021767100E+02  0.60459894187E+02  0.68932323835E+02  0.10566000000E+00 0.  1.
         13    1    4    4    0    0  0.94711935343E+01  0.12724632555E+02  0.93869527080E+02  0.95200415224E+02  0.10566000000E+00 0. -1.
        -13    1    4    4    0    0  0.42349026879E+01  0.57412434894E+01  0.37779461691E+02  0.38447303771E+02  0.10566000000E+00 0.  1.
        -14    1    4    4    0    0  0.67663959854E+01  0.75558910548E+01  0.58172982501E+02  0.59050584225E+02  0.00000000000E+00 0.  1.
<mgrwt>
<rscale>  0 0.76220554E+02</rscale>
<asrwt>0</asrwt>
<pdfrwt beam="1">  1        2 0.39377888E-01 0.76220554E+02</pdfrwt>
<pdfrwt beam="2">  1       -1 0.87298157E-03 0.76220554E+02</pdfrwt>
<totfact> 0.27326619E+05</totfact>
</mgrwt>
</event>
<event>
 8    1  0.1493610E-013  0.8997168E+02  0.7818608E-02  0.1302920E+00
         -1   -1    0    0    0  501 -0.00000000000E+00  0.00000000000E+00  0.25615034659E+01  0.25615084242E+01  0.50400000000E-02 0.  1.
          2   -1    0    0  501    0  0.00000000000E+00 -0.00000000000E+00 -0.79005321336E+03  0.79005321336E+03  0.25500000000E-02 0. -1.
         24    2    1    2    0    0  0.00000000000E+00  0.88817841970E-15 -0.78749170989E+03  0.79261472179E+03  0.89971684677E+02 0.  0.
         66    2    3    3    0    0 -0.11944112232E+02  0.62587756695E+01 -0.77181807627E+03  0.77193845412E+03  0.19999982864E+01 0.  0.
        -13    1    3    3    0    0  0.11944112232E+02 -0.62587756695E+01 -0.15673633621E+02  0.20676267671E+02  0.10566000000E+00 0.  1.
         13    1    4    4    0    0 -0.31040242606E+01  0.17458233098E+01 -0.19542941599E+03  0.19546189056E+03  0.10566000000E+00 0.  1.
        -13    1    4    4    0    0 -0.82112890620E+01  0.46077823338E+01 -0.54677092571E+03  0.54685200310E+03  0.10566000000E+00 0. -1.
        -14    1    4    4    0    0 -0.62879890910E+00 -0.94829974116E-01 -0.29617734569E+02  0.29624560449E+02  0.00000000000E+00 0.  1.
<mgrwt>
<rscale>  0 0.89971685E+02</rscale>
<asrwt>0</asrwt>
<pdfrwt beam="1">  1        2 0.12154645E+00 0.89971685E+02</pdfrwt>
<pdfrwt beam="2">  1       -1 0.39407847E-03 0.89971685E+02</pdfrwt>
<totfact> 0.25226950E+05</totfact>
</mgrwt>
</event>
<event>
 8    1  0.1493610E-013  0.8214515E+02  0.7818608E-02  0.1323072E+00
          2   -1    0    0  501    0  0.00000000000E+00  0.00000000000E+00  0.55393197089E+03  0.55393197089E+03  0.25500000000E-02 0. -1.
         -1   -1    0    0    0  501 -0.00000000000E+00 -0.00000000000E+00 -0.30454193477E+01  0.30454235182E+01  0.50400000000E-02 0.  1.
         24    2    1    2    0    0  0.00000000000E+00  0.00000000000E+00  0.55088655154E+03  0.55697739441E+03  0.82145147258E+02 0.  0.
         66    2    3    3    0    0 -0.26106423488E+02 -0.11929246584E+02  0.47457362878E+03  0.47544503510E+03  0.19999981399E+01 0.  0.
        -13    1    3    3    0    0  0.26106423488E+02  0.11929246584E+02  0.76312922758E+02  0.81532359313E+02  0.10566000000E+00 0.  1.
         13    1    4    4    0    0 -0.53997610027E+01 -0.22131132413E+01  0.10621415303E+03  0.10637439897E+03  0.10566000000E+00 0. -1.
        -13    1    4    4    0    0 -0.15041459916E+02 -0.65737412145E+01  0.26010631093E+03  0.26062379734E+03  0.10566000000E+00 0.  1.
         14    1    4    4    0    0 -0.56652025690E+01 -0.31423921280E+01  0.10825316482E+03  0.10844683878E+03  0.00000000000E+00 0. -1.
<mgrwt>
<rscale>  0 0.82145147E+02</rscale>
<asrwt>0</asrwt>
<pdfrwt beam="1">  1        2 0.85220199E-01 0.82145147E+02</pdfrwt>
<pdfrwt beam="2">  1       -1 0.46852695E-03 0.82145147E+02</pdfrwt>
<totfact> 0.29334785E+05</totfact>
</mgrwt>
</event>
<event>
 8    1  0.1493610E-013  0.7873562E+02  0.7818608E-02  0.1332678E+00
          2   -1    0    0  501    0  0.00000000000E+00  0.00000000000E+00  0.72487270831E+03  0.72487270832E+03  0.25500000000E-02 0. -1.
         -1   -1    0    0    0  501 -0.00000000000E+00 -0.00000000000E+00 -0.21380613262E+01  0.21380672665E+01  0.50400000000E-02 0.  1.
         24    2    1    2    0    0  0.35527136788E-14  0.00000000000E+00  0.72273464698E+03  0.72701077558E+03  0.78735620020E+02 0.  0.
         66    2    3    3    0    0  0.20624645530E+02 -0.23308196527E+02  0.58381474451E+03  0.58464716192E+03  0.19999999227E+01 0.  0.
        -13    1    3    3    0    0 -0.20624645530E+02  0.23308196527E+02  0.13891990247E+03  0.14236361367E+03  0.10566000000E+00 0.  1.
         13    1    4    4    0    0  0.10151190606E+02 -0.11574204761E+02  0.29997364454E+03  0.30036845285E+03  0.10566000000E+00 0. -1.
        -13    1    4    4    0    0  0.57770011282E+01 -0.56890434371E+01  0.14917435771E+03  0.14939457527E+03  0.10566000000E+00 0. -1.
         14    1    4    4    0    0  0.46964537953E+01 -0.60449483294E+01  0.13466674226E+03  0.13488413380E+03  0.00000000000E+00 0. -1.
<mgrwt>
<rscale>  0 0.78735620E+02</rscale>
<asrwt>0</asrwt>
<pdfrwt beam="1">  1        2 0.11151896E+00 0.78735620E+02</pdfrwt>
<pdfrwt beam="2">  1       -1 0.32893274E-03 0.78735620E+02</pdfrwt>
<totfact> 0.35136263E+05</totfact>
</mgrwt>
</event>
<event>
 8    1  0.1493610E-013  0.8020328E+02  0.7818608E-02  0.1328476E+00
          2   -1    0    0  501    0  0.00000000000E+00  0.00000000000E+00  0.33613004920E+02  0.33613005016E+02  0.25500000000E-02 0. -1.
         -1   -1    0    0    0  501 -0.00000000000E+00 -0.00000000000E+00 -0.47842837720E+02  0.47842837985E+02  0.50400000000E-02 0.  1.
         24    2    1    2    0    0 -0.17763568394E-14  0.00000000000E+00 -0.14229832800E+02  0.81455843001E+02  0.80203280591E+02 0.  0.
         66    2    3    3    0    0 -0.14982034055E+02  0.35587533969E+02  0.37815472567E+01  0.38848861250E+02  0.20000005777E+01 0.  0.
        -13    1    3    3    0    0  0.14982034055E+02 -0.35587533969E+02 -0.18011380057E+02  0.42606981752E+02  0.10566000000E+00 0.  1.
         13    1    4    4    0    0 -0.64391595100E+01  0.15366888578E+02  0.24914560205E+01  0.16847034068E+02  0.10566000000E+00 0. -1.
        -13    1    4    4    0    0 -0.43845182647E+01  0.94409987640E+01  0.64297748060E+00  0.10429815058E+02  0.10566000000E+00 0.  1.
         14    1    4    4    0    0 -0.41583562801E+01  0.10779646628E+02  0.64711375565E+00  0.11572012123E+02  0.00000000000E+00 0. -1.
<mgrwt>
<rscale>  0 0.80203281E+02</rscale>
<asrwt>0</asrwt>
<pdfrwt beam="1">  1        2 0.51712315E-02 0.80203281E+02</pdfrwt>
<pdfrwt beam="2">  1       -1 0.73604366E-02 0.80203281E+02</pdfrwt>
<totfact> 0.13665177E+05</totfact>
</mgrwt>
</event>
<event>
 8    1  0.1493610E-013  0.8229266E+02  0.7818608E-02  0.1322668E+00
         -1   -1    0    0    0  501 -0.00000000000E+00  0.00000000000E+00  0.45593297281E+01  0.45593325138E+01  0.50400000000E-02 0.  1.
          2   -1    0    0  501    0  0.00000000000E+00 -0.00000000000E+00 -0.37133093103E+03  0.37133093104E+03  0.25500000000E-02 0. -1.
         24    2    1    2    0    0  0.00000000000E+00  0.71054273576E-14 -0.36677160130E+03  0.37589026355E+03  0.82292664996E+02 0.  0.
         66    2    3    3    0    0  0.20443781947E+01  0.39919305651E+02 -0.22761086118E+03  0.23110264944E+03  0.20000009930E+01 0.  0.
        -13    1    3    3    0    0 -0.20443781947E+01 -0.39919305651E+02 -0.13916074012E+03  0.14478761411E+03  0.10566000000E+00 0.  1.
         13    1    4    4    0    0  0.32160833780E+00  0.60909717198E+01 -0.34321227879E+02  0.34859162577E+02  0.10566000000E+00 0. -1.
        -13    1    4    4    0    0  0.14257106999E+00  0.10707291237E+02 -0.56898659196E+02  0.57897625120E+02  0.10566000000E+00 0.  1.
        -14    1    4    4    0    0  0.15801987869E+01  0.23121042695E+02 -0.13639097411E+03  0.13834586174E+03  0.00000000000E+00 0.  1.
<mgrwt>
<rscale>  0 0.82292665E+02</rscale>
<asrwt>0</asrwt>
<pdfrwt beam="1">  1        2 0.57127812E-01 0.82292665E+02</pdfrwt>
<pdfrwt beam="2">  1       -1 0.70143585E-03 0.82292665E+02</pdfrwt>
<totfact> 0.25559548E+05</totfact>
</mgrwt>
</event>
<event>
 8    1  0.1493610E-013  0.8230860E+02  0.7818608E-02  0.1322625E+00
          2   -1    0    0  501    0  0.00000000000E+00  0.00000000000E+00  0.24848336607E+03  0.24848336608E+03  0.25500000000E-02 0. -1.
         -1   -1    0    0    0  501 -0.00000000000E+00 -0.00000000000E+00 -0.68160544894E+01  0.68160563528E+01  0.50400000000E-02 0.  1.
         24    2    1    2    0    0  0.00000000000E+00  0.00000000000E+00  0.24166731158E+03  0.25529942244E+03  0.82308599852E+02 0.  0.
         66    2    3    3    0    0  0.33165934948E+02  0.20054051317E+02  0.16360603050E+03  0.16814600034E+03  0.19999997192E+01 0.  0.
        -13    1    3    3    0    0 -0.33165934948E+02 -0.20054051317E+02  0.78061281077E+02  0.87153422093E+02  0.10566000000E+00 0.  1.
         13    1    4    4    0    0  0.73491727163E+01  0.51603114140E+01  0.39293092162E+02  0.40306294908E+02  0.10566000000E+00 0. -1.
        -13    1    4    4    0    0  0.18706670590E+02  0.10287414600E+02  0.88970132481E+02  0.91495716082E+02  0.10566000000E+00 0.  1.
        -14    1    4    4    0    0  0.71100916416E+01  0.46063253030E+01  0.35342805862E+02  0.36343989353E+02  0.00000000000E+00 0.  1.
<mgrwt>
<rscale>  0 0.82308600E+02</rscale>
<asrwt>0</asrwt>
<pdfrwt beam="1">  1        2 0.38228214E-01 0.82308600E+02</pdfrwt>
<pdfrwt beam="2">  1       -1 0.10486238E-02 0.82308600E+02</pdfrwt>
<totfact> 0.22097587E+05</totfact>
</mgrwt>
</event>
<event>
 8    1  0.1493610E-013  0.8164317E+02  0.7818608E-02  0.1324452E+00
         -1   -1    0    0    0  501 -0.00000000000E+00  0.00000000000E+00  0.62595575606E+02  0.62595575809E+02  0.50400000000E-02 0.  1.
          2   -1    0    0  501    0  0.00000000000E+00 -0.00000000000E+00 -0.26621715456E+02  0.26621715579E+02  0.25500000000E-02 0. -1.
         24    2    1    2    0    0  0.00000000000E+00  0.71054273576E-14  0.35973860150E+02  0.89217291387E+02  0.81643165473E+02 0.  0.
         66    2    3    3    0    0  0.11197215893E+02 -0.37397534992E+02  0.50473944684E+01  0.39413569531E+02  0.20000012459E+01 0.  0.
        -13    1    3    3    0    0 -0.11197215893E+02  0.37397534992E+02  0.30926465681E+02  0.49803721857E+02  0.10566000000E+00 0.  1.
         13    1    4    4    0    0  0.81465812942E+01 -0.26350216167E+02  0.38083288616E+01  0.27842686860E+02  0.10566000000E+00 0. -1.
        -13    1    4    4    0    0  0.83306076453E+00 -0.45880212653E+01  0.74866191248E+00  0.47239377708E+01  0.10566000000E+00 0.  1.
        -14    1    4    4    0    0  0.22175738340E+01 -0.64592975596E+01  0.49040369425E+00  0.68469448994E+01  0.00000000000E+00 0.  1.
<mgrwt>
<rscale>  0 0.81643165E+02</rscale>
<asrwt>0</asrwt>
<pdfrwt beam="1">  1        2 0.40956486E-02 0.81643165E+02</pdfrwt>
<pdfrwt beam="2">  1       -1 0.96300885E-02 0.81643165E+02</pdfrwt>
<totfact> 0.12408245E+05</totfact>
</mgrwt>
</event>
<event>
 8    1  0.1493610E-013  0.7910305E+02  0.7818608E-02  0.1331616E+00
         -1   -1    0    0    0  501 -0.00000000000E+00  0.00000000000E+00  0.55697663531E+01  0.55697686334E+01  0.50400000000E-02 0.  1.
          2   -1    0    0  501    0  0.00000000000E+00 -0.00000000000E+00 -0.28085970360E+03  0.28085970361E+03  0.25500000000E-02 0. -1.
         24    2    1    2    0    0  0.00000000000E+00  0.35527136788E-14 -0.27528993725E+03  0.28642947225E+03  0.79103053172E+02 0.  0.
         66    2    3    3    0    0 -0.86876730804E+01  0.21634144420E+02 -0.25330941500E+03  0.25438783698E+03  0.20000015066E+01 0.  0.
        -13    1    3    3    0    0  0.86876730804E+01 -0.21634144420E+02 -0.21980522247E+02  0.32041635267E+02  0.10566000000E+00 0.  1.
         13    1    4    4    0    0 -0.16498830666E+01  0.41916341084E+01 -0.44176672378E+02  0.44405871876E+02  0.10566000000E+00 0. -1.
        -13    1    4    4    0    0 -0.44798013464E+00  0.46924997037E+00 -0.69059705622E+01  0.69371806361E+01  0.10566000000E+00 0.  1.
         14    1    4    4    0    0 -0.65898098791E+01  0.16973260341E+02 -0.20222677206E+03  0.20304478447E+03  0.00000000000E+00 0. -1.
<mgrwt>
<rscale>  0 0.79103053E+02</rscale>
<asrwt>0</asrwt>
<pdfrwt beam="1">  1        2 0.43209174E-01 0.79103053E+02</pdfrwt>
<pdfrwt beam="2">  1       -1 0.85688753E-03 0.79103053E+02</pdfrwt>
<totfact> 0.25639929E+05</totfact>
</mgrwt>
</event>
<event>
 8    1  0.1493610E-013  0.8062126E+02  0.7818608E-02  0.1327298E+00
         -1   -1    0    0    0  501 -0.00000000000E+00  0.00000000000E+00  0.71594226042E+02  0.71594226219E+02  0.50400000000E-02 0.  1.
          2   -1    0    0  501    0  0.00000000000E+00 -0.00000000000E+00 -0.22696621042E+02  0.22696621185E+02  0.25500000000E-02 0. -1.
         24    2    1    2    0    0 -0.35527136788E-14  0.00000000000E+00  0.48897605000E+02  0.94290847404E+02  0.80621263507E+02 0.  0.
         66    2    3    3    0    0 -0.18739628065E+02  0.35419138383E+02  0.29321752888E+02  0.49693603389E+02  0.20000003759E+01 0.  0.
        -13    1    3    3    0    0  0.18739628065E+02 -0.35419138383E+02  0.19575852112E+02  0.44597244016E+02  0.10566000000E+00 0.  1.
         13    1    4    4    0    0 -0.78381407870E+01  0.13942488742E+02  0.12008265292E+02  0.20000976043E+02  0.10566000000E+00 0. -1.
        -13    1    4    4    0    0 -0.97837722945E+01  0.19974978800E+02  0.15760784569E+02  0.27260511232E+02  0.10566000000E+00 0.  1.
        -14    1    4    4    0    0 -0.11177149835E+01  0.15016708415E+01  0.15527030260E+01  0.24321161131E+01  0.00000000000E+00 0.  1.
<mgrwt>
<rscale>  0 0.80621264E+02</rscale>
<asrwt>0</asrwt>
<pdfrwt beam="1">  1        2 0.34917879E-02 0.80621264E+02</pdfrwt>
<pdfrwt beam="2">  1       -1 0.11014496E-01 0.80621264E+02</pdfrwt>
<totfact> 0.12456649E+05</totfact>
</mgrwt>
</event>
<event>
 8    1  0.1493610E-013  0.8378728E+02  0.7818608E-02  0.1318635E+00
         -1   -1    0    0    0  501 -0.00000000000E+00  0.00000000000E+00  0.31852663304E+01  0.31852703177E+01  0.50400000000E-02 0.  1.
          2   -1    0    0  501    0  0.00000000000E+00 -0.00000000000E+00 -0.55099820763E+03  0.55099820764E+03  0.25500000000E-02 0. -1.
         24    2    1    2    0    0  0.44408920985E-15  0.00000000000E+00 -0.54781294130E+03  0.55418347795E+03  0.83787281741E+02 0.  0.
         66    2    3    3    0    0 -0.22887651785E+01  0.20127220107E+02 -0.51642693528E+03  0.51682794324E+03  0.20000010042E+01 0.  0.
        -13    1    3    3    0    0  0.22887651785E+01 -0.20127220107E+02 -0.31386006024E+02  0.37355534710E+02  0.10566000000E+00 0.  1.
         13    1    4    4    0    0 -0.62866961266E+00  0.99510693918E+01 -0.25421035304E+03  0.25440584460E+03  0.10566000000E+00 0. -1.
        -13    1    4    4    0    0 -0.82191365301E-01  0.49460034639E+00 -0.80450610614E+01  0.80613619470E+01  0.10566000000E+00 0.  1.
         14    1    4    4    0    0 -0.15779042006E+01  0.96815503691E+01 -0.25417152117E+03  0.25436073670E+03  0.00000000000E+00 0. -1.
<mgrwt>
<rscale>  0 0.83787282E+02</rscale>
<asrwt>0</asrwt>
<pdfrwt beam="1">  1        2 0.84768880E-01 0.83787282E+02</pdfrwt>
<pdfrwt beam="2">  1       -1 0.49004172E-03 0.83787282E+02</pdfrwt>
<totfact> 0.27811671E+05</totfact>
</mgrwt>
</event>
<event>
 8    1  0.1493610E-013  0.7980286E+02  0.7818608E-02  0.1329612E+00
          2   -1    0    0  501    0  0.00000000000E+00  0.00000000000E+00  0.11064109633E+02  0.11064109927E+02  0.25500000000E-02 0. -1.
         -1   -1    0    0    0  501 -0.00000000000E+00 -0.00000000000E+00 -0.14389987085E+03  0.14389987094E+03  0.50400000000E-02 0.  1.
         24    2    1    2    0    0  0.00000000000E+00  0.35527136788E-14 -0.13283576122E+03  0.15496398087E+03  0.79802856513E+02 0.  0.
         66    2    3    3    0    0  0.18280539338E+02  0.19383346000E+02 -0.88479226621E+01  0.28145656108E+02  0.20000004240E+01 0.  0.
        -13    1    3    3    0    0 -0.18280539338E+02 -0.19383346000E+02 -0.12398783856E+03  0.12681832476E+03  0.10566000000E+00 0.  1.
         13    1    4    4    0    0  0.46088760465E+01  0.46368709517E+01 -0.15765156527E+01  0.67259851527E+01  0.10566000000E+00 0. -1.
        -13    1    4    4    0    0  0.11617940310E+02  0.12771532989E+02 -0.58057202573E+01  0.18215546758E+02  0.10566000000E+00 0.  1.
        -14    1    4    4    0    0  0.20537229812E+01  0.19749420595E+01 -0.14656867522E+01  0.32041241981E+01  0.00000000000E+00 0.  1.
<mgrwt>
<rscale>  0 0.79802857E+02</rscale>
<asrwt>0</asrwt>
<pdfrwt beam="1">  1        2 0.17021708E-02 0.79802857E+02</pdfrwt>
<pdfrwt beam="2">  1       -1 0.22138441E-01 0.79802857E+02</pdfrwt>
<totfact> 0.10968911E+05</totfact>
</mgrwt>
</event>
<event>
 8    1  0.1493610E-013  0.7721935E+02  0.7818608E-02  0.1337133E+00
          2   -1    0    0  501    0  0.00000000000E+00  0.00000000000E+00  0.88896516974E+02  0.88896517011E+02  0.25500000000E-02 0. -1.
         -1   -1    0    0    0  501 -0.00000000000E+00 -0.00000000000E+00 -0.16769013146E+02  0.16769013903E+02  0.50400000000E-02 0.  1.
         24    2    1    2    0    0  0.17763568394E-14  0.00000000000E+00  0.72127503828E+02  0.10566553091E+03  0.77219347412E+02 0.  0.
         66    2    3    3    0    0  0.15481459966E+02 -0.12363287916E+01  0.84419025797E+02  0.85859047432E+02  0.19999994541E+01 0.  0.
        -13    1    3    3    0    0 -0.15481459966E+02  0.12363287916E+01 -0.12291521969E+02  0.19806483482E+02  0.10566000000E+00 0.  1.
         13    1    4    4    0    0  0.49621617538E+01 -0.28637615632E+00  0.25331026284E+02  0.25814281264E+02  0.10566000000E+00 0. -1.
        -13    1    4    4    0    0  0.43976309100E+01 -0.86999220918E+00  0.21650186326E+02  0.22109676073E+02  0.10566000000E+00 0.  1.
         14    1    4    4    0    0  0.61216673022E+01 -0.79960426125E-01  0.37437813187E+02  0.37935090095E+02  0.00000000000E+00 0. -1.
<mgrwt>
<rscale>  0 0.77219347E+02</rscale>
<asrwt>0</asrwt>
<pdfrwt beam="1">  1        2 0.13676387E-01 0.77219347E+02</pdfrwt>
<pdfrwt beam="2">  1       -1 0.25798483E-02 0.77219347E+02</pdfrwt>
<totfact> 0.18871755E+05</totfact>
</mgrwt>
</event>
<event>
 8    1  0.1493610E-013  0.8439726E+02  0.7818608E-02  0.1317016E+00
         -1   -1    0    0    0  501 -0.00000000000E+00  0.00000000000E+00  0.54736207127E+02  0.54736207359E+02  0.50400000000E-02 0.  1.
          2   -1    0    0  501    0  0.00000000000E+00 -0.00000000000E+00 -0.32532839698E+02  0.32532839798E+02  0.25500000000E-02 0. -1.
         24    2    1    2    0    0  0.00000000000E+00  0.00000000000E+00  0.22203367429E+02  0.87269047156E+02  0.84397257458E+02 0.  0.
         66    2    3    3    0    0 -0.20528506352E+02 -0.22756287056E+02 -0.18851256465E+02  0.36036621089E+02  0.20000039039E+01 0.  0.
        -13    1    3    3    0    0  0.20528506352E+02  0.22756287056E+02  0.41054623894E+02  0.51232426067E+02  0.10566000000E+00 0.  1.
         13    1    4    4    0    0 -0.78975192552E+01 -0.91194975101E+01 -0.83157000151E+01  0.14652579159E+02  0.10566000000E+00 0. -1.
        -13    1    4    4    0    0 -0.72390382880E+01 -0.80301040037E+01 -0.56619874959E+01  0.12204733184E+02  0.10566000000E+00 0.  1.
        -14    1    4    4    0    0 -0.53919488087E+01 -0.56066855418E+01 -0.48735689542E+01  0.91793087470E+01  0.00000000000E+00 0.  1.
<mgrwt>
<rscale>  0 0.84397257E+02</rscale>
<asrwt>0</asrwt>
<pdfrwt beam="1">  1        2 0.50050523E-02 0.84397257E+02</pdfrwt>
<pdfrwt beam="2">  1       -1 0.84209549E-02 0.84397257E+02</pdfrwt>
<totfact> 0.11768053E+05</totfact>
</mgrwt>
</event>
<event>
 8    1  0.1493610E-013  0.7461068E+02  0.7818608E-02  0.1345081E+00
          2   -1    0    0  501    0  0.00000000000E+00  0.00000000000E+00  0.34280978840E+02  0.34280978935E+02  0.25500000000E-02 0. -1.
         -1   -1    0    0    0  501 -0.00000000000E+00 -0.00000000000E+00 -0.40596521971E+02  0.40596522284E+02  0.50400000000E-02 0.  1.
         24    2    1    2    0    0  0.71054273576E-14  0.00000000000E+00 -0.63155431316E+01  0.74877501219E+02  0.74610683576E+02 0.  0.
         66    2    3    3    0    0 -0.36202268291E+02 -0.59180482928E+01  0.35011817580E+01  0.36903736899E+02  0.19999996007E+01 0.  0.
        -13    1    3    3    0    0  0.36202268291E+02  0.59180482928E+01 -0.98167248896E+01  0.37973764320E+02  0.10566000000E+00 0.  1.
         13    1    4    4    0    0 -0.13417921821E+02 -0.13123318031E+01  0.12499067497E+01  0.13540172513E+02  0.10566000000E+00 0. -1.
        -13    1    4    4    0    0 -0.13624600191E+02 -0.25665476493E+01  0.10771640538E+01  0.13906413759E+02  0.10566000000E+00 0.  1.
         14    1    4    4    0    0 -0.91597462787E+01 -0.20391688404E+01  0.11741109545E+01  0.94571506270E+01  0.00000000000E+00 0. -1.
<mgrwt>
<rscale>  0 0.74610684E+02</rscale>
<asrwt>0</asrwt>
<pdfrwt beam="1">  1        2 0.52739968E-02 0.74610684E+02</pdfrwt>
<pdfrwt beam="2">  1       -1 0.62456188E-02 0.74610684E+02</pdfrwt>
<totfact> 0.16758237E+05</totfact>
</mgrwt>
</event>
<event>
 8    1  0.1493610E-013  0.8030823E+02  0.7818608E-02  0.1328179E+00
          2   -1    0    0  501    0  0.00000000000E+00  0.00000000000E+00  0.11366452514E+02  0.11366452800E+02  0.25500000000E-02 0. -1.
         -1   -1    0    0    0  501 -0.00000000000E+00 -0.00000000000E+00 -0.14185190140E+03  0.14185190149E+03  0.50400000000E-02 0.  1.
         24    2    1    2    0    0  0.35527136788E-14  0.00000000000E+00 -0.13048544889E+03  0.15321835429E+03  0.80308229469E+02 0.  0.
         66    2    3    3    0    0 -0.31695297411E+02 -0.23622238921E+02 -0.52099937114E+02  0.65429393314E+02  0.20000031328E+01 0.  0.
        -13    1    3    3    0    0  0.31695297411E+02  0.23622238921E+02 -0.78385511776E+02  0.87788960980E+02  0.10566000000E+00 0.  1.
         13    1    4    4    0    0 -0.25017965744E+01 -0.23880576236E+01 -0.47380747047E+01  0.58670538822E+01  0.10566000000E+00 0.  1.
        -13    1    4    4    0    0 -0.35119635960E+01 -0.30235656812E+01 -0.60768725728E+01  0.76429956189E+01  0.10566000000E+00 0.  1.
         14    1    4    4    0    0 -0.25681537240E+02 -0.18210615616E+02 -0.41284989837E+02  0.51919343813E+02  0.00000000000E+00 0. -1.
<mgrwt>
<rscale>  0 0.80308229E+02</rscale>
<asrwt>0</asrwt>
<pdfrwt beam="1">  1        2 0.17486851E-02 0.80308229E+02</pdfrwt>
<pdfrwt beam="2">  1       -1 0.21823368E-01 0.80308229E+02</pdfrwt>
<totfact> 0.10834085E+05</totfact>
</mgrwt>
</event>
<event>
 8    1  0.1493610E-013  0.7849505E+02  0.7818608E-02  0.1333377E+00
         -1   -1    0    0    0  501 -0.00000000000E+00  0.00000000000E+00  0.39353926880E+01  0.39353959153E+01  0.50400000000E-02 0.  1.
          2   -1    0    0  501    0  0.00000000000E+00 -0.00000000000E+00 -0.39141395942E+03  0.39141395943E+03  0.25500000000E-02 0. -1.
         24    2    1    2    0    0  0.00000000000E+00  0.00000000000E+00 -0.38747856674E+03  0.39534935535E+03  0.78495051398E+02 0.  0.
         66    2    3    3    0    0  0.25361825000E+02  0.17585935578E+02 -0.31577535100E+03  0.31728624237E+03  0.19999995133E+01 0.  0.
        -13    1    3    3    0    0 -0.25361825000E+02 -0.17585935578E+02 -0.71703215734E+02  0.78063112980E+02  0.10566000000E+00 0.  1.
         13    1    4    4    0    0  0.43151134237E+01  0.32340194721E+01 -0.61171576521E+02  0.61408892059E+02  0.10566000000E+00 0. -1.
        -13    1    4    4    0    0  0.81091210731E+01  0.48986276640E+01 -0.94489980019E+02  0.94963792498E+02  0.10566000000E+00 0.  1.
        -14    1    4    4    0    0  0.12937590503E+02  0.94532884416E+01 -0.16011379446E+03  0.16091355781E+03  0.00000000000E+00 0.  1.
<mgrwt>
<rscale>  0 0.78495051E+02</rscale>
<asrwt>0</asrwt>
<pdfrwt beam="1">  1        2 0.60217502E-01 0.78495051E+02</pdfrwt>
<pdfrwt beam="2">  1       -1 0.60544559E-03 0.78495051E+02</pdfrwt>
<totfact> 0.29464590E+05</totfact>
</mgrwt>
</event>
<event>
 8    1  0.1493610E-013  0.8009302E+02  0.7818608E-02  0.1328788E+00
         -1   -1    0    0    0  501 -0.00000000000E+00  0.00000000000E+00  0.45017523172E+01  0.45017551385E+01  0.50400000000E-02 0.  1.
          2   -1    0    0  501    0  0.00000000000E+00 -0.00000000000E+00 -0.35624400771E+03  0.35624400772E+03  0.25500000000E-02 0. -1.
         24    2    1    2    0    0  0.00000000000E+00  0.00000000000E+00 -0.35174225539E+03  0.36074576286E+03  0.80093015869E+02 0.  0.
         66    2    3    3    0    0 -0.18366116532E+02 -0.11855699179E+02 -0.32697459118E+03  0.32771062711E+03  0.20000005750E+01 0.  0.
        -13    1    3    3    0    0  0.18366116532E+02  0.11855699179E+02 -0.24767664215E+02  0.33035135752E+02  0.10566000000E+00 0.  1.
         13    1    4    4    0    0 -0.53790510751E+01 -0.39481470294E+01 -0.10020860250E+03  0.10043055926E+03  0.10566000000E+00 0. -1.
        -13    1    4    4    0    0 -0.24853418541E+01 -0.22243240780E+01 -0.49390171329E+02  0.49502774970E+02  0.10566000000E+00 0.  1.
        -14    1    4    4    0    0 -0.10501723603E+02 -0.56832280714E+01 -0.17737581735E+03  0.17777729287E+03  0.00000000000E+00 0.  1.
<mgrwt>
<rscale>  0 0.80093016E+02</rscale>
<asrwt>0</asrwt>
<pdfrwt beam="1">  1        2 0.54806748E-01 0.80093016E+02</pdfrwt>
<pdfrwt beam="2">  1       -1 0.69257778E-03 0.80093016E+02</pdfrwt>
<totfact> 0.27037728E+05</totfact>
</mgrwt>
</event>
<event>
 8    1  0.1493610E-013  0.8079466E+02  0.7818608E-02  0.1326811E+00
          2   -1    0    0  501    0  0.00000000000E+00  0.00000000000E+00  0.71003797413E+03  0.71003797413E+03  0.25500000000E-02 0. -1.
         -1   -1    0    0    0  501 -0.00000000000E+00 -0.00000000000E+00 -0.22983872260E+01  0.22983927519E+01  0.50400000000E-02 0.  1.
         24    2    1    2    0    0  0.00000000000E+00 -0.17763568394E-14  0.70773958690E+03  0.71233636688E+03  0.80794657731E+02 0.  0.
         66    2    3    3    0    0 -0.29838904272E+02  0.13514632870E+02  0.56215351298E+03  0.56311062650E+03  0.20000024198E+01 0.  0.
        -13    1    3    3    0    0  0.29838904272E+02 -0.13514632870E+02  0.14558607392E+03  0.14922574038E+03  0.10566000000E+00 0.  1.
         13    1    4    4    0    0 -0.94752673809E+01  0.43948816431E+01  0.18085606046E+03  0.18115744933E+03  0.10566000000E+00 0. -1.
        -13    1    4    4    0    0 -0.60144142051E+01  0.35110289907E+01  0.11880573791E+03  0.11900972661E+03  0.10566000000E+00 0.  1.
         14    1    4    4    0    0 -0.14349222685E+02  0.56087222367E+01  0.26249171461E+03  0.26294345057E+03  0.00000000000E+00 0. -1.
<mgrwt>
<rscale>  0 0.80794658E+02</rscale>
<asrwt>0</asrwt>
<pdfrwt beam="1">  1        2 0.10923659E+00 0.80794658E+02</pdfrwt>
<pdfrwt beam="2">  1       -1 0.35359854E-03 0.80794658E+02</pdfrwt>
<totfact> 0.32707954E+05</totfact>
</mgrwt>
</event>
<event>
 8    1  0.1493610E-013  0.8010123E+02  0.7818608E-02  0.1328764E+00
         -1   -1    0    0    0  501 -0.00000000000E+00  0.00000000000E+00  0.30680894767E+01  0.30680936163E+01  0.50400000000E-02 0.  1.
          2   -1    0    0  501    0  0.00000000000E+00 -0.00000000000E+00 -0.52281749775E+03  0.52281749776E+03  0.25500000000E-02 0. -1.
         24    2    1    2    0    0  0.35527136788E-14  0.00000000000E+00 -0.51974940828E+03  0.52588559138E+03  0.80101234777E+02 0.  0.
         66    2    3    3    0    0 -0.26311863411E+02  0.26495420858E+02 -0.35465932068E+03  0.35662523078E+03  0.20000001401E+01 0.  0.
        -13    1    3    3    0    0  0.26311863411E+02 -0.26495420858E+02 -0.16509008760E+03  0.16926036060E+03  0.10566000000E+00 0.  1.
         13    1    4    4    0    0 -0.17670028447E+02  0.18818850479E+02 -0.24003086164E+03  0.24141500522E+03  0.10566000000E+00 0. -1.
        -13    1    4    4    0    0 -0.30200977586E+01  0.25393508584E+01 -0.38507642972E+02  0.38709417776E+02  0.10566000000E+00 0. -1.
         14    1    4    4    0    0 -0.56217372048E+01  0.51372195203E+01 -0.76120816068E+02  0.76500807790E+02  0.00000000000E+00 0. -1.
<mgrwt>
<rscale>  0 0.80101235E+02</rscale>
<asrwt>0</asrwt>
<pdfrwt beam="1">  1        2 0.80433391E-01 0.80101235E+02</pdfrwt>
<pdfrwt beam="2">  1       -1 0.47201450E-03 0.80101235E+02</pdfrwt>
<totfact> 0.30780049E+05</totfact>
</mgrwt>
</event>
<event>
 8    1  0.1493610E-013  0.7826811E+02  0.7818608E-02  0.1334039E+00
         -1   -1    0    0    0  501 -0.00000000000E+00  0.00000000000E+00  0.62598660213E+01  0.62598680502E+01  0.50400000000E-02 0.  1.
          2   -1    0    0  501    0  0.00000000000E+00 -0.00000000000E+00 -0.24464965331E+03  0.24464965333E+03  0.25500000000E-02 0. -1.
         24    2    1    2    0    0  0.00000000000E+00 -0.35527136788E-14 -0.23838978729E+03  0.25090952138E+03  0.78268111210E+02 0.  0.
         66    2    3    3    0    0  0.32073964748E+02 -0.22343199912E+02 -0.11533113678E+03  0.12179174403E+03  0.20000015188E+01 0.  0.
        -13    1    3    3    0    0 -0.32073964748E+02  0.22343199912E+02 -0.12305865051E+03  0.12911777735E+03  0.10566000000E+00 0.  1.
         13    1    4    4    0    0  0.99942046576E+01 -0.67444457093E+01 -0.33206815467E+02  0.35328111076E+02  0.10566000000E+00 0. -1.
        -13    1    4    4    0    0  0.17618123377E+01 -0.13745387511E+01 -0.73962994030E+01  0.77272083178E+01  0.10566000000E+00 0. -1.
         14    1    4    4    0    0  0.20317947753E+02 -0.14224215452E+02 -0.74728021910E+02  0.78736424637E+02  0.00000000000E+00 0. -1.
<mgrwt>
<rscale>  0 0.78268111E+02</rscale>
<asrwt>0</asrwt>
<pdfrwt beam="1">  1        2 0.37638401E-01 0.78268111E+02</pdfrwt>
<pdfrwt beam="2">  1       -1 0.96305666E-03 0.78268111E+02</pdfrwt>
<totfact> 0.25085930E+05</totfact>
</mgrwt>
</event>
<event>
 8    1  0.1493610E-013  0.8136805E+02  0.7818608E-02  0.1325213E+00
         -1   -1    0    0    0  501 -0.00000000000E+00  0.00000000000E+00  0.11815116960E+02  0.11815118035E+02  0.50400000000E-02 0.  1.
          2   -1    0    0  501    0  0.00000000000E+00 -0.00000000000E+00 -0.14009083778E+03  0.14009083780E+03  0.25500000000E-02 0. -1.
         24    2    1    2    0    0  0.00000000000E+00  0.88817841970E-15 -0.12827572082E+03  0.15190595583E+03  0.81368045735E+02 0.  0.
         66    2    3    3    0    0 -0.26864213263E+02 -0.40715547657E+01 -0.12064584901E+03  0.12368380814E+03  0.20000002211E+01 0.  0.
        -13    1    3    3    0    0  0.26864213263E+02  0.40715547657E+01 -0.76298718051E+01  0.28222147690E+02  0.10566000000E+00 0.  1.
         13    1    4    4    0    0 -0.22674798612E+01 -0.66179622016E+00 -0.10463918347E+02  0.10727729973E+02  0.10566000000E+00 0. -1.
        -13    1    4    4    0    0 -0.92076416148E+01 -0.52840694104E+00 -0.40650796469E+02  0.41684029263E+02  0.10566000000E+00 0.  1.
        -14    1    4    4    0    0 -0.15389091787E+02 -0.28813516045E+01 -0.69531134196E+02  0.71272048908E+02  0.00000000000E+00 0.  1.
<mgrwt>
<rscale>  0 0.81368046E+02</rscale>
<asrwt>0</asrwt>
<pdfrwt beam="1">  1        2 0.21552435E-01 0.81368046E+02</pdfrwt>
<pdfrwt beam="2">  1       -1 0.18177105E-02 0.81368046E+02</pdfrwt>
<totfact> 0.18733926E+05</totfact>
</mgrwt>
</event>
<event>
 8    1  0.1493610E-013  0.7786597E+02  0.7818608E-02  0.1335219E+00
         -1   -1    0    0    0  501 -0.00000000000E+00  0.00000000000E+00  0.40110967549E+02  0.40110967866E+02  0.50400000000E-02 0.  1.
          2   -1    0    0  501    0  0.00000000000E+00 -0.00000000000E+00 -0.37789596817E+02  0.37789596903E+02  0.25500000000E-02 0. -1.
         24    2    1    2    0    0  0.00000000000E+00  0.17763568394E-14  0.23213707316E+01  0.77900564769E+02  0.77865969648E+02 0.  0.
         66    2    3    3    0    0  0.14635381630E+02 -0.14391703743E+02 -0.31905570886E+02  0.37990538101E+02  0.19999998818E+01 0.  0.
        -13    1    3    3    0    0 -0.14635381630E+02  0.14391703743E+02  0.34226941618E+02  0.39910026668E+02  0.10566000000E+00 0.  1.
         13    1    4    4    0    0  0.31888498350E+01 -0.40189186307E+01 -0.86681010147E+01  0.10073113196E+02  0.10566000000E+00 0. -1.
        -13    1    4    4    0    0  0.10518767657E+02 -0.94097709448E+01 -0.21615632820E+02  0.25815402544E+02  0.10566000000E+00 0.  1.
        -14    1    4    4    0    0  0.92776413847E+00 -0.96301416706E+00 -0.16218370514E+01  0.21020223605E+01  0.00000000000E+00 0.  1.
<mgrwt>
<rscale>  0 0.77865970E+02</rscale>
<asrwt>0</asrwt>
<pdfrwt beam="1">  1        2 0.58137841E-02 0.77865970E+02</pdfrwt>
<pdfrwt beam="2">  1       -1 0.61709181E-02 0.77865970E+02</pdfrwt>
<totfact> 0.15184655E+05</totfact>
</mgrwt>
</event>
<event>
 8    1  0.1493610E-013  0.7991183E+02  0.7818608E-02  0.1329302E+00
         -1   -1    0    0    0  501 -0.00000000000E+00  0.00000000000E+00  0.26423457870E+01  0.26423505936E+01  0.50400000000E-02 0.  1.
          2   -1    0    0  501    0  0.00000000000E+00 -0.00000000000E+00 -0.60418804913E+03  0.60418804913E+03  0.25500000000E-02 0. -1.
         24    2    1    2    0    0  0.00000000000E+00 -0.17763568394E-14 -0.60154570334E+03  0.60683039973E+03  0.79911831570E+02 0.  0.
         66    2    3    3    0    0 -0.35062572996E+02 -0.10918429980E+02 -0.42003354499E+03  0.42164057568E+03  0.20000005290E+01 0.  0.
        -13    1    3    3    0    0  0.35062572996E+02  0.10918429980E+02 -0.18151215835E+03  0.18518982405E+03  0.10566000000E+00 0.  1.
         13    1    4    4    0    0 -0.78718796116E+01 -0.30712205514E+01 -0.90981475157E+02  0.91373075193E+02  0.10566000000E+00 0. -1.
        -13    1    4    4    0    0 -0.81519241520E+01 -0.25192801752E+01 -0.10209054877E+03  0.10244653216E+03  0.10566000000E+00 0.  1.
         14    1    4    4    0    0 -0.19038769233E+02 -0.53279292534E+01 -0.22696152106E+03  0.22782096832E+03  0.00000000000E+00 0. -1.
<mgrwt>
<rscale>  0 0.79911832E+02</rscale>
<asrwt>0</asrwt>
<pdfrwt beam="1">  1        2 0.92951898E-01 0.79911832E+02</pdfrwt>
<pdfrwt beam="2">  1       -1 0.40651559E-03 0.79911832E+02</pdfrwt>
<totfact> 0.32318215E+05</totfact>
</mgrwt>
</event>
<event>
 8    1  0.1501166E-013  0.8252562E+02  0.7818608E-02  0.1322033E+00
          2   -1    0    0  501    0  0.00000000000E+00  0.00000000000E+00  0.70727597652E+03  0.70727597652E+03  0.25500000000E-02 0. -1.
         -1   -1    0    0    0  501 -0.00000000000E+00 -0.00000000000E+00 -0.24072887577E+01  0.24072940337E+01  0.50400000000E-02 0.  1.
         24    2    1    2    0    0  0.00000000000E+00  0.00000000000E+00  0.70486868776E+03  0.70968327056E+03  0.82525617372E+02 0.  0.
         66    2    3    3    0    0 -0.87262218480E+01  0.13347430806E+02  0.67968538180E+03  0.67987537026E+03  0.19999996896E+01 0.  0.
        -13    1    3    3    0    0  0.87262218480E+01 -0.13347430806E+02  0.25183305960E+02  0.29807900295E+02  0.10566000000E+00 0.  1.
         13    1    4    4    0    0 -0.60548889719E+01  0.90420604134E+01  0.45618135355E+03  0.45631114278E+03  0.10566000000E+00 0. -1.
        -13    1    4    4    0    0 -0.16505473922E+01  0.21594739193E+01  0.13987124919E+03  0.13989769530E+03  0.10566000000E+00 0.  1.
        -14    1    4    4    0    0 -0.10207854839E+01  0.21458964732E+01  0.83632779057E+02  0.83666532183E+02  0.00000000000E+00 0.  1.
<mgrwt>
<rscale>  0 0.82525617E+02</rscale>
<asrwt>0</asrwt>
<pdfrwt beam="1">  1        2 0.10881181E+00 0.82525617E+02</pdfrwt>
<pdfrwt beam="2">  1       -1 0.37035210E-03 0.82525617E+02</pdfrwt>
<totfact> 0.30923945E+05</totfact>
</mgrwt>
</event>
<event>
 8    1  0.1493610E-013  0.8208776E+02  0.7818608E-02  0.1323229E+00
         -1   -1    0    0    0  501 -0.00000000000E+00  0.00000000000E+00  0.41376185961E+02  0.41376186268E+02  0.50400000000E-02 0.  1.
          2   -1    0    0  501    0  0.00000000000E+00 -0.00000000000E+00 -0.40714240777E+02  0.40714240857E+02  0.25500000000E-02 0. -1.
         24    2    1    2    0    0  0.17763568394E-14  0.71054273576E-14  0.66194518401E+00  0.82090427125E+02  0.82087758247E+02 0.  0.
         66    2    3    3    0    0  0.13659597293E+02  0.38620160187E+02 -0.17887217697E+01  0.41052416651E+02  0.20000040520E+01 0.  0.
        -13    1    3    3    0    0 -0.13659597293E+02 -0.38620160187E+02  0.24506669538E+01  0.41038010474E+02  0.10566000000E+00 0.  1.
         13    1    4    4    0    0  0.37804964032E+01  0.11381967615E+02 -0.26773859837E+00  0.11996840744E+02  0.10566000000E+00 0. -1.
        -13    1    4    4    0    0  0.22654368182E+01  0.48120123256E+01 -0.61237133077E+00  0.53547949803E+01  0.10566000000E+00 0.  1.
        -14    1    4    4    0    0  0.76136640716E+01  0.22426180247E+02 -0.90861184061E+00  0.23700780927E+02  0.00000000000E+00 0.  1.
<mgrwt>
<rscale>  0 0.82087758E+02</rscale>
<asrwt>0</asrwt>
<pdfrwt beam="1">  1        2 0.62637293E-02 0.82087758E+02</pdfrwt>
<pdfrwt beam="2">  1       -1 0.63655671E-02 0.82087758E+02</pdfrwt>
<totfact> 0.13322586E+05</totfact>
</mgrwt>
</event>
<event>
 8    1  0.1493610E-013  0.8134318E+02  0.7818608E-02  0.1325282E+00
          2   -1    0    0  501    0  0.00000000000E+00  0.00000000000E+00  0.77011020190E+03  0.77011020190E+03  0.25500000000E-02 0. -1.
         -1   -1    0    0    0  501 -0.00000000000E+00 -0.00000000000E+00 -0.21479730180E+01  0.21479789309E+01  0.50400000000E-02 0.  1.
         24    2    1    2    0    0  0.00000000000E+00  0.00000000000E+00  0.76796222888E+03  0.77225818083E+03  0.81343179661E+02 0.  0.
         66    2    3    3    0    0  0.10162752656E+02  0.35272932558E+02  0.54993685841E+03  0.55116423102E+03  0.20000004482E+01 0.  0.
        -13    1    3    3    0    0 -0.10162752656E+02 -0.35272932558E+02  0.21802537047E+03  0.22109394981E+03  0.10566000000E+00 0.  1.
         13    1    4    4    0    0  0.52807407572E+01  0.18499600132E+02  0.27833237885E+03  0.27899649767E+03  0.10566000000E+00 0. -1.
        -13    1    4    4    0    0  0.25869875864E+01  0.70758740971E+01  0.11829245542E+03  0.11853217568E+03  0.10566000000E+00 0.  1.
        -14    1    4    4    0    0  0.22950243124E+01  0.96974583287E+01  0.15331202414E+03  0.15363555767E+03  0.00000000000E+00 0.  1.
<mgrwt>
<rscale>  0 0.81343180E+02</rscale>
<asrwt>0</asrwt>
<pdfrwt beam="1">  1        2 0.11847854E+00 0.81343180E+02</pdfrwt>
<pdfrwt beam="2">  1       -1 0.33045771E-03 0.81343180E+02</pdfrwt>
<totfact> 0.32683037E+05</totfact>
</mgrwt>
</event>
<event>
 8    1  0.1493610E-013  0.8137038E+02  0.7818608E-02  0.1325207E+00
          2   -1    0    0  501    0  0.00000000000E+00  0.00000000000E+00  0.10806537816E+04  0.10806537816E+04  0.25500000000E-02 0. -1.
         -1   -1    0    0    0  501 -0.00000000000E+00 -0.00000000000E+00 -0.15317396862E+01  0.15317479779E+01  0.50400000000E-02 0.  1.
         24    2    1    2    0    0  0.35527136788E-14  0.00000000000E+00  0.10791220419E+04  0.10821855295E+04  0.81370382141E+02 0.  0.
         66    2    3    3    0    0 -0.21419471201E+02 -0.16254470909E+02  0.94552702608E+03  0.94591139047E+03  0.19999996330E+01 0.  0.
        -13    1    3    3    0    0  0.21419471201E+02  0.16254470909E+02  0.13359501580E+03  0.13627413907E+03  0.10566000000E+00 0.  1.
         13    1    4    4    0    0 -0.30245261367E+01 -0.25814751615E+01  0.13195094802E+03  0.13201089205E+03  0.10566000000E+00 0.  1.
        -13    1    4    4    0    0 -0.93286060566E+01 -0.78973983110E+01  0.42421908377E+03  0.42439513898E+03  0.10566000000E+00 0. -1.
         14    1    4    4    0    0 -0.90663390075E+01 -0.57755974364E+01  0.38935699429E+03  0.38950535944E+03  0.00000000000E+00 0. -1.
<mgrwt>
<rscale>  0 0.81370382E+02</rscale>
<asrwt>0</asrwt>
<pdfrwt beam="1">  1        2 0.16625421E+00 0.81370382E+02</pdfrwt>
<pdfrwt beam="2">  1       -1 0.23565321E-03 0.81370382E+02</pdfrwt>
<totfact> 0.33744469E+05</totfact>
</mgrwt>
</event>
<event>
 8    1  0.1493610E-013  0.8038095E+02  0.7818608E-02  0.1327974E+00
         -1   -1    0    0    0  501 -0.00000000000E+00  0.00000000000E+00  0.35986506238E+01  0.35986541531E+01  0.50400000000E-02 0.  1.
          2   -1    0    0  501    0  0.00000000000E+00 -0.00000000000E+00 -0.44885527439E+03  0.44885527440E+03  0.25500000000E-02 0. -1.
         24    2    1    2    0    0  0.35527136788E-14  0.00000000000E+00 -0.44525662376E+03  0.45245392855E+03  0.80380945832E+02 0.  0.
         66    2    3    3    0    0 -0.27558603905E+02  0.18370740064E+02 -0.35066731662E+03  0.35223362656E+03  0.19999994178E+01 0.  0.
        -13    1    3    3    0    0  0.27558603905E+02 -0.18370740064E+02 -0.94589307146E+02  0.10022030199E+03  0.10566000000E+00 0.  1.
         13    1    4    4    0    0 -0.13293434737E+02  0.89293801778E+01 -0.17194955646E+03  0.17269368943E+03  0.10566000000E+00 0. -1.
        -13    1    4    4    0    0 -0.13207597245E+02  0.85326870639E+01 -0.16025709123E+03  0.16102668669E+03  0.10566000000E+00 0.  1.
        -14    1    4    4    0    0 -0.10575719221E+01  0.90867282230E+00 -0.18460668925E+02  0.18513250439E+02  0.00000000000E+00 0.  1.
<mgrwt>
<rscale>  0 0.80380946E+02</rscale>
<asrwt>0</asrwt>
<pdfrwt beam="1">  1        2 0.69054613E-01 0.80380946E+02</pdfrwt>
<pdfrwt beam="2">  1       -1 0.55363919E-03 0.80380946E+02</pdfrwt>
<totfact> 0.29031203E+05</totfact>
</mgrwt>
</event>
<event>
 8    1  0.1493610E-013  0.7959238E+02  0.7818608E-02  0.1330212E+00
          2   -1    0    0  501    0  0.00000000000E+00  0.00000000000E+00  0.19603426770E+03  0.19603426772E+03  0.25500000000E-02 0. -1.
         -1   -1    0    0    0  501 -0.00000000000E+00 -0.00000000000E+00 -0.80788768739E+01  0.80788784460E+01  0.50400000000E-02 0.  1.
         24    2    1    2    0    0  0.35527136788E-14  0.00000000000E+00  0.18795539083E+03  0.20411314616E+03  0.79592383403E+02 0.  0.
         66    2    3    3    0    0  0.22377505391E+02  0.88779948975E+01  0.17522042705E+03  0.17687783806E+03  0.20000001448E+01 0.  0.
        -13    1    3    3    0    0 -0.22377505391E+02 -0.88779948975E+01  0.12734963775E+02  0.27235308100E+02  0.10566000000E+00 0.  1.
         13    1    4    4    0    0  0.81600319109E+01  0.39129302484E+01  0.64639386053E+02  0.65269889974E+02  0.10566000000E+00 0. -1.
        -13    1    4    4    0    0  0.83745232020E+01  0.30022612079E+01  0.69468332535E+02  0.70035752301E+02  0.10566000000E+00 0.  1.
         14    1    4    4    0    0  0.58429502785E+01  0.19628034412E+01  0.41112708465E+02  0.41572195788E+02  0.00000000000E+00 0. -1.
<mgrwt>
<rscale>  0 0.79592383E+02</rscale>
<asrwt>0</asrwt>
<pdfrwt beam="1">  1        2 0.30159117E-01 0.79592383E+02</pdfrwt>
<pdfrwt beam="2">  1       -1 0.12429043E-02 0.79592383E+02</pdfrwt>
<totfact> 0.22203261E+05</totfact>
</mgrwt>
</event>
<event>
 8    1  0.1493610E-013  0.7998678E+02  0.7818608E-02  0.1329089E+00
          2   -1    0    0  501    0  0.00000000000E+00  0.00000000000E+00  0.57025281123E+03  0.57025281123E+03  0.25500000000E-02 0. -1.
         -1   -1    0    0    0  501 -0.00000000000E+00 -0.00000000000E+00 -0.28048436612E+01  0.28048481893E+01  0.50400000000E-02 0.  1.
         24    2    1    2    0    0  0.00000000000E+00  0.00000000000E+00  0.56744796757E+03  0.57305765942E+03  0.79986780956E+02 0.  0.
         66    2    3    3    0    0 -0.20429165758E+02  0.24404726512E+02  0.45711431416E+03  0.45822531325E+03  0.20000005678E+01 0.  0.
        -13    1    3    3    0    0  0.20429165758E+02 -0.24404726512E+02  0.11033365340E+03  0.11483234617E+03  0.10566000000E+00 0.  1.
         13    1    4    4    0    0 -0.20342759852E+01  0.27761632851E+01  0.46394800278E+02  0.46522403401E+02  0.10566000000E+00 0. -1.
        -13    1    4    4    0    0 -0.14772011923E+02  0.16344366599E+02  0.31964176463E+03  0.32040009288E+03  0.10566000000E+00 0.  1.
        -14    1    4    4    0    0 -0.36228778494E+01  0.52841966284E+01  0.91077749253E+02  0.91302816971E+02  0.00000000000E+00 0.  1.
<mgrwt>
<rscale>  0 0.79986781E+02</rscale>
<asrwt>0</asrwt>
<pdfrwt beam="1">  1        2 0.87731145E-01 0.79986781E+02</pdfrwt>
<pdfrwt beam="2">  1       -1 0.43151504E-03 0.79986781E+02</pdfrwt>
<totfact> 0.31714251E+05</totfact>
</mgrwt>
</event>
<event>
 8    1  0.1493610E-013  0.8005056E+02  0.7818608E-02  0.1328908E+00
          2   -1    0    0  501    0  0.00000000000E+00  0.00000000000E+00  0.17860255797E+03  0.17860255799E+03  0.25500000000E-02 0. -1.
         -1   -1    0    0    0  501 -0.00000000000E+00 -0.00000000000E+00 -0.89697654149E+01  0.89697668308E+01  0.50400000000E-02 0.  1.
         24    2    1    2    0    0 -0.17763568394E-14  0.00000000000E+00  0.16963279256E+03  0.18757232482E+03  0.80050563571E+02 0.  0.
         66    2    3    3    0    0 -0.98836104640E+01  0.83013485470E+01  0.17358297688E+03  0.17407368549E+03  0.19999935603E+01 0.  0.
        -13    1    3    3    0    0  0.98836104640E+01 -0.83013485470E+01 -0.39501843244E+01  0.13498639329E+02  0.10566000000E+00 0.  1.
         13    1    4    4    0    0 -0.24210313535E+01  0.31312324864E+01  0.51055362361E+02  0.51208663326E+02  0.10566000000E+00 0.  1.
        -13    1    4    4    0    0 -0.13841455944E+01  0.82232672155E+00  0.19400165340E+02  0.19467143075E+02  0.10566000000E+00 0. -1.
        -14    1    4    4    0    0 -0.60784335160E+01  0.43477893390E+01  0.10312744918E+03  0.10339787909E+03  0.00000000000E+00 0.  1.
<mgrwt>
<rscale>  0 0.80050564E+02</rscale>
<asrwt>0</asrwt>
<pdfrwt beam="1">  1        2 0.27477314E-01 0.80050564E+02</pdfrwt>
<pdfrwt beam="2">  1       -1 0.13799641E-02 0.80050564E+02</pdfrwt>
<totfact> 0.21182841E+05</totfact>
</mgrwt>
</event>
<event>
 8    1  0.1493610E-013  0.8534337E+02  0.7818608E-02  0.1314537E+00
          2   -1    0    0  501    0  0.00000000000E+00  0.00000000000E+00  0.46145276504E+03  0.46145276504E+03  0.25500000000E-02 0. -1.
         -1   -1    0    0    0  501 -0.00000000000E+00 -0.00000000000E+00 -0.39459554412E+01  0.39459586599E+01  0.50400000000E-02 0.  1.
         24    2    1    2    0    0  0.00000000000E+00  0.00000000000E+00  0.45750680959E+03  0.46539872370E+03  0.85343372318E+02 0.  0.
         66    2    3    3    0    0 -0.18389952614E+02 -0.19965830517E+02  0.40826018278E+03  0.40916647173E+03  0.19999995252E+01 0.  0.
        -13    1    3    3    0    0  0.18389952614E+02  0.19965830517E+02  0.49246626813E+02  0.56232251972E+02  0.10566000000E+00 0.  1.
         13    1    4    4    0    0 -0.11597849546E+02 -0.12016302502E+02  0.24756718628E+03  0.24812985416E+03  0.10566000000E+00 0. -1.
        -13    1    4    4    0    0 -0.34212678621E+00 -0.25126403266E+00  0.45560135274E+01  0.45769648950E+01  0.10566000000E+00 0.  1.
         14    1    4    4    0    0 -0.64499762814E+01 -0.76982639823E+01  0.15613698297E+03  0.15645965267E+03  0.00000000000E+00 0. -1.
<mgrwt>
<rscale>  0 0.85343372E+02</rscale>
<asrwt>0</asrwt>
<pdfrwt beam="1">  1        2 0.70992670E-01 0.85343372E+02</pdfrwt>
<pdfrwt beam="2">  1       -1 0.60707085E-03 0.85343372E+02</pdfrwt>
<totfact> 0.25049185E+05</totfact>
</mgrwt>
</event>
<event>
 8    1  0.1493610E-013  0.7982723E+02  0.7818608E-02  0.1329542E+00
         -1   -1    0    0    0  501 -0.00000000000E+00  0.00000000000E+00  0.23398941311E+03  0.23398941317E+03  0.50400000000E-02 0.  1.
          2   -1    0    0  501    0  0.00000000000E+00 -0.00000000000E+00 -0.68084130118E+01  0.68084134893E+01  0.25500000000E-02 0. -1.
         24    2    1    2    0    0 -0.71054273576E-14 -0.17763568394E-14  0.22718100010E+03  0.24079782666E+03  0.79827229161E+02 0.  0.
         66    2    3    3    0    0 -0.38152009846E+02 -0.10099131638E+02  0.13112687160E+03  0.13695190675E+03  0.19999979080E+01 0.  0.
        -13    1    3    3    0    0  0.38152009846E+02  0.10099131638E+02  0.96054128499E+02  0.10384591990E+03  0.10566000000E+00 0.  1.
         13    1    4    4    0    0 -0.99444563412E+01 -0.27458960085E+01  0.35104470464E+02  0.36589167351E+02  0.10566000000E+00 0. -1.
        -13    1    4    4    0    0 -0.63056840144E+01 -0.22940349504E+01  0.21225737853E+02  0.22261342248E+02  0.10566000000E+00 0.  1.
         14    1    4    4    0    0 -0.21901869490E+02 -0.50592006794E+01  0.74796663286E+02  0.78101397154E+02  0.00000000000E+00 0. -1.
<mgrwt>
<rscale>  0 0.79827229E+02</rscale>
<asrwt>0</asrwt>
<pdfrwt beam="1">  1        2 0.10474481E-02 0.79827229E+02</pdfrwt>
<pdfrwt beam="2">  1       -1 0.35998375E-01 0.79827229E+02</pdfrwt>
<totfact> 0.95265888E+04</totfact>
</mgrwt>
</event>
<event>
 8    1  0.1493610E-013  0.7875962E+02  0.7818608E-02  0.1332609E+00
          2   -1    0    0  501    0  0.00000000000E+00  0.00000000000E+00  0.10319146769E+02  0.10319147084E+02  0.25500000000E-02 0. -1.
         -1   -1    0    0    0  501 -0.00000000000E+00 -0.00000000000E+00 -0.15028076267E+03  0.15028076275E+03  0.50400000000E-02 0.  1.
         24    2    1    2    0    0  0.71054273576E-14 -0.17763568394E-14 -0.13996161590E+03  0.16059990983E+03  0.78759616010E+02 0.  0.
         66    2    3    3    0    0 -0.36569232719E+02  0.14134779599E+02 -0.63061831802E+02  0.74282537689E+02  0.19999998399E+01 0.  0.
        -13    1    3    3    0    0  0.36569232719E+02 -0.14134779599E+02 -0.76899784095E+02  0.86317372145E+02  0.10566000000E+00 0.  1.
         13    1    4    4    0    0 -0.21585247379E+02  0.80607376008E+01 -0.36051961514E+02  0.42786136635E+02  0.10566000000E+00 0. -1.
        -13    1    4    4    0    0 -0.10386933836E+02  0.39181626138E+01 -0.19284906240E+02  0.22252172153E+02  0.10566000000E+00 0.  1.
         14    1    4    4    0    0 -0.45970515036E+01  0.21558793848E+01 -0.77249640480E+01  0.92442289019E+01  0.00000000000E+00 0. -1.
<mgrwt>
<rscale>  0 0.78759616E+02</rscale>
<asrwt>0</asrwt>
<pdfrwt beam="1">  1        2 0.15875612E-02 0.78759616E+02</pdfrwt>
<pdfrwt beam="2">  1       -1 0.23120116E-01 0.78759616E+02</pdfrwt>
<totfact> 0.11216420E+05</totfact>
</mgrwt>
</event>
<event>
 8    1  0.1493610E-013  0.8002607E+02  0.7818608E-02  0.1328977E+00
         -1   -1    0    0    0  501 -0.00000000000E+00  0.00000000000E+00  0.62290572818E+01  0.62290593207E+01  0.50400000000E-02 0.  1.
          2   -1    0    0  501    0  0.00000000000E+00 -0.00000000000E+00 -0.25702810451E+03  0.25702810452E+03  0.25500000000E-02 0. -1.
         24    2    1    2    0    0 -0.22204460493E-15  0.35527136788E-14 -0.25079904723E+03  0.26325716384E+03  0.80026072153E+02 0.  0.
         66    2    3    3    0    0  0.10365637415E+01 -0.24277229507E+02 -0.22995056962E+03  0.23123953558E+03  0.20000026577E+01 0.  0.
        -13    1    3    3    0    0 -0.10365637415E+01  0.24277229507E+02 -0.20848477611E+02  0.32017628265E+02  0.10566000000E+00 0.  1.
         13    1    4    4    0    0  0.88919060971E-01 -0.10983508231E+02 -0.10227261600E+03  0.10286080161E+03  0.10566000000E+00 0. -1.
        -13    1    4    4    0    0  0.15562314938E+00 -0.38515261165E+01 -0.42877827550E+02  0.43050873759E+02  0.10566000000E+00 0.  1.
        -14    1    4    4    0    0  0.79202153115E+00 -0.94421951602E+01 -0.84800126065E+02  0.85327860211E+02  0.00000000000E+00 0.  1.
<mgrwt>
<rscale>  0 0.80026072E+02</rscale>
<asrwt>0</asrwt>
<pdfrwt beam="1">  1        2 0.39542777E-01 0.80026072E+02</pdfrwt>
<pdfrwt beam="2">  1       -1 0.95831687E-03 0.80026072E+02</pdfrwt>
<totfact> 0.24086343E+05</totfact>
</mgrwt>
</event>
<event>
 8    1  0.1493610E-013  0.8033107E+02  0.7818608E-02  0.1328115E+00
          2   -1    0    0  501    0  0.00000000000E+00  0.00000000000E+00  0.49495441348E+03  0.49495441348E+03  0.25500000000E-02 0. -1.
         -1   -1    0    0    0  501 -0.00000000000E+00 -0.00000000000E+00 -0.32594302663E+01  0.32594341629E+01  0.50400000000E-02 0.  1.
         24    2    1    2    0    0  0.00000000000E+00  0.00000000000E+00  0.49169498321E+03  0.49821384765E+03  0.80331074138E+02 0.  0.
         66    2    3    3    0    0  0.37419266840E+02 -0.12050226659E+02  0.29632976520E+03  0.29893266674E+03  0.20000009763E+01 0.  0.
        -13    1    3    3    0    0 -0.37419266840E+02  0.12050226659E+02  0.19536521801E+03  0.19928118091E+03  0.10566000000E+00 0.  1.
         13    1    4    4    0    0  0.19377184070E+02 -0.71507352665E+01  0.15290840323E+03  0.15429711345E+03  0.10566000000E+00 0. -1.
        -13    1    4    4    0    0  0.98448551013E+01 -0.24376776445E+01  0.78062919459E+02  0.78719082837E+02  0.10566000000E+00 0.  1.
         14    1    4    4    0    0  0.81972276694E+01 -0.24618137478E+01  0.65358442516E+02  0.65916470449E+02  0.00000000000E+00 0. -1.
<mgrwt>
<rscale>  0 0.80331074E+02</rscale>
<asrwt>0</asrwt>
<pdfrwt beam="1">  1        2 0.76146848E-01 0.80331074E+02</pdfrwt>
<pdfrwt beam="2">  1       -1 0.50145101E-03 0.80331074E+02</pdfrwt>
<totfact> 0.30027761E+05</totfact>
</mgrwt>
</event>
<event>
 8    1  0.1493610E-013  0.7954016E+02  0.7818608E-02  0.1330361E+00
         -1   -1    0    0    0  501 -0.00000000000E+00  0.00000000000E+00  0.44981549663E+01  0.44981577899E+01  0.50400000000E-02 0.  1.
          2   -1    0    0  501    0  0.00000000000E+00 -0.00000000000E+00 -0.35162392157E+03  0.35162392158E+03  0.25500000000E-02 0. -1.
         24    2    1    2    0    0  0.00000000000E+00  0.71054273576E-14 -0.34712576661E+03  0.35612207937E+03  0.79540163276E+02 0.  0.
         66    2    3    3    0    0 -0.69633867732E+01 -0.32687723284E+02 -0.26997802437E+03  0.27204615354E+03  0.20000005940E+01 0.  0.
        -13    1    3    3    0    0  0.69633867732E+01  0.32687723284E+02 -0.77147742234E+02  0.84075925833E+02  0.10566000000E+00 0.  1.
         13    1    4    4    0    0 -0.53225841395E+01 -0.24592991463E+02 -0.19814801375E+03  0.19973930922E+03  0.10566000000E+00 0. -1.
        -13    1    4    4    0    0 -0.13168985858E+01 -0.55317663132E+01 -0.47024936380E+02  0.47367609883E+02  0.10566000000E+00 0.  1.
         14    1    4    4    0    0 -0.32390404788E+00 -0.25629655073E+01 -0.24805074243E+02  0.24939234435E+02  0.00000000000E+00 0. -1.
<mgrwt>
<rscale>  0 0.79540163E+02</rscale>
<asrwt>0</asrwt>
<pdfrwt beam="1">  1        2 0.54095966E-01 0.79540163E+02</pdfrwt>
<pdfrwt beam="2">  1       -1 0.69202434E-03 0.79540163E+02</pdfrwt>
<totfact> 0.27404243E+05</totfact>
</mgrwt>
</event>
<event>
 8    1  0.1493610E-013  0.7549243E+02  0.7818608E-02  0.1342353E+00
          2   -1    0    0  501    0  0.00000000000E+00  0.00000000000E+00  0.25779728847E+03  0.25779728848E+03  0.25500000000E-02 0. -1.
         -1   -1    0    0    0  501 -0.00000000000E+00 -0.00000000000E+00 -0.55267310129E+01  0.55267333110E+01  0.50400000000E-02 0.  1.
         24    2    1    2    0    0  0.88817841970E-15  0.17763568394E-14  0.25227055746E+03  0.26332402179E+03  0.75492425407E+02 0.  0.
         66    2    3    3    0    0 -0.75527236119E+01 -0.14938559469E+02  0.24412742416E+03  0.24470881358E+03  0.20000057319E+01 0.  0.
        -13    1    3    3    0    0  0.75527236119E+01  0.14938559469E+02  0.81431332961E+01  0.18615208214E+02  0.10566000000E+00 0.  1.
         13    1    4    4    0    0 -0.26835546663E+01 -0.65806472434E+01  0.98941269467E+02  0.99196231539E+02  0.10566000000E+00 0. -1.
        -13    1    4    4    0    0 -0.39531860247E+01 -0.73378629502E+01  0.12859659581E+03  0.12886647171E+03  0.10566000000E+00 0.  1.
        -14    1    4    4    0    0 -0.91598292095E+00 -0.10200492749E+01  0.16589558878E+02  0.16646110326E+02  0.00000000000E+00 0.  1.
<mgrwt>
<rscale>  0 0.75492425E+02</rscale>
<asrwt>0</asrwt>
<pdfrwt beam="1">  1        2 0.39661127E-01 0.75492425E+02</pdfrwt>
<pdfrwt beam="2">  1       -1 0.85026636E-03 0.75492425E+02</pdfrwt>
<totfact> 0.28092901E+05</totfact>
</mgrwt>
</event>
<event>
 8    1  0.1493610E-013  0.8037312E+02  0.7818608E-02  0.1327996E+00
         -1   -1    0    0    0  501 -0.00000000000E+00  0.00000000000E+00  0.11040908718E+03  0.11040908730E+03  0.50400000000E-02 0.  1.
          2   -1    0    0  501    0  0.00000000000E+00 -0.00000000000E+00 -0.14627054512E+02  0.14627054734E+02  0.25500000000E-02 0. -1.
         24    2    1    2    0    0 -0.22204460493E-15  0.00000000000E+00  0.95782032671E+02  0.12503614203E+03  0.80373123813E+02 0.  0.
         66    2    3    3    0    0  0.16866637124E+01 -0.39176906314E+02  0.61418433441E+02  0.72896493597E+02  0.19999973830E+01 0.  0.
        -13    1    3    3    0    0 -0.16866637124E+01  0.39176906314E+02  0.34363599230E+02  0.52139648435E+02  0.10566000000E+00 0.  1.
         13    1    4    4    0    0  0.10361127663E+01 -0.89409701399E+01  0.13524890291E+02  0.16246485716E+02  0.10566000000E+00 0. -1.
        -13    1    4    4    0    0  0.74359874159E+00 -0.29586882115E+02  0.46715069013E+02  0.55301404768E+02  0.10566000000E+00 0.  1.
         14    1    4    4    0    0 -0.93047795429E-01 -0.64905405961E+00  0.11784741374E+01  0.13486031132E+01  0.00000000000E+00 0. -1.
<mgrwt>
<rscale>  0 0.80373124E+02</rscale>
<asrwt>0</asrwt>
<pdfrwt beam="1">  1        2 0.22503160E-02 0.80373124E+02</pdfrwt>
<pdfrwt beam="2">  1       -1 0.16986014E-01 0.80373124E+02</pdfrwt>
<totfact> 0.11465772E+05</totfact>
</mgrwt>
</event>
<event>
 8    1  0.1493610E-013  0.8088440E+02  0.7818608E-02  0.1326560E+00
         -1   -1    0    0    0  501 -0.00000000000E+00  0.00000000000E+00  0.21154354240E+01  0.21154414278E+01  0.50400000000E-02 0.  1.
          2   -1    0    0  501    0  0.00000000000E+00 -0.00000000000E+00 -0.77315956795E+03  0.77315956796E+03  0.25500000000E-02 0. -1.
         24    2    1    2    0    0  0.00000000000E+00  0.00000000000E+00 -0.77104413253E+03  0.77527500939E+03  0.80884398183E+02 0.  0.
         66    2    3    3    0    0 -0.76771786347E+01  0.32461242944E+02 -0.60451624389E+03  0.60543914679E+03  0.19999930320E+01 0.  0.
        -13    1    3    3    0    0  0.76771786347E+01 -0.32461242944E+02 -0.16652788864E+03  0.16983586260E+03  0.10566000000E+00 0.  1.
         13    1    4    4    0    0 -0.46751642960E+01  0.18117033744E+02 -0.32858872986E+03  0.32912102429E+03  0.10566000000E+00 0. -1.
        -13    1    4    4    0    0 -0.49595892274E+00  0.44865896249E+01 -0.83512167077E+02  0.83634135827E+02  0.10566000000E+00 0.  1.
        -14    1    4    4    0    0 -0.25060554159E+01  0.98576195750E+01 -0.19241534695E+03  0.19268398667E+03  0.00000000000E+00 0.  1.
<mgrwt>
<rscale>  0 0.80884398E+02</rscale>
<asrwt>0</asrwt>
<pdfrwt beam="1">  1        2 0.11894740E+00 0.80884398E+02</pdfrwt>
<pdfrwt beam="2">  1       -1 0.32545268E-03 0.80884398E+02</pdfrwt>
<totfact> 0.33192354E+05</totfact>
</mgrwt>
</event>
<event>
 8    1  0.1493610E-013  0.7725896E+02  0.7818608E-02  0.1337015E+00
          2   -1    0    0  501    0  0.00000000000E+00  0.00000000000E+00  0.15809745651E+02  0.15809745857E+02  0.25500000000E-02 0. -1.
         -1   -1    0    0    0  501 -0.00000000000E+00 -0.00000000000E+00 -0.94387130390E+02  0.94387130524E+02  0.50400000000E-02 0.  1.
         24    2    1    2    0    0 -0.71054273576E-14  0.35527136788E-14 -0.78577384738E+02  0.11019687638E+03  0.77258955286E+02 0.  0.
         66    2    3    3    0    0  0.30714907429E+02 -0.23378788868E+02 -0.40039881315E+02  0.55652182401E+02  0.20000007314E+01 0.  0.
        -13    1    3    3    0    0 -0.30714907429E+02  0.23378788868E+02 -0.38537503423E+02  0.54544693981E+02  0.10566000000E+00 0.  1.
         13    1    4    4    0    0  0.12142916329E+02 -0.89567207146E+01 -0.15463425130E+02  0.21605599824E+02  0.10566000000E+00 0. -1.
        -13    1    4    4    0    0  0.89524796668E+01 -0.72459340989E+01 -0.13061732906E+02  0.17414662894E+02  0.10566000000E+00 0.  1.
        -14    1    4    4    0    0  0.96195114325E+01 -0.71761340549E+01 -0.11514723279E+02  0.16631919683E+02  0.00000000000E+00 0.  1.
<mgrwt>
<rscale>  0 0.77258955E+02</rscale>
<asrwt>0</asrwt>
<pdfrwt beam="1">  1        2 0.24322686E-02 0.77258955E+02</pdfrwt>
<pdfrwt beam="2">  1       -1 0.14521097E-01 0.77258955E+02</pdfrwt>
<totfact> 0.13086102E+05</totfact>
</mgrwt>
</event>
<event>
 8    1  0.1493610E-013  0.7937399E+02  0.7818608E-02  0.1330837E+00
         -1   -1    0    0    0  501 -0.00000000000E+00  0.00000000000E+00  0.23710159781E+01  0.23710213348E+01  0.50400000000E-02 0.  1.
          2   -1    0    0  501    0  0.00000000000E+00 -0.00000000000E+00 -0.66429571532E+03  0.66429571532E+03  0.25500000000E-02 0. -1.
         24    2    1    2    0    0  0.88817841970E-15  0.17763568394E-14 -0.66192469934E+03  0.66666673666E+03  0.79373989250E+02 0.  0.
         66    2    3    3    0    0  0.55932691829E+01  0.12725727650E+02 -0.64316312471E+03  0.64331643364E+03  0.19999999515E+01 0.  0.
        -13    1    3    3    0    0 -0.55932691829E+01 -0.12725727650E+02 -0.18761574627E+02  0.23350303015E+02  0.10566000000E+00 0.  1.
         13    1    4    4    0    0  0.26912985051E+01  0.50379937446E+01 -0.28985525701E+03  0.28991154797E+03  0.10566000000E+00 0. -1.
        -13    1    4    4    0    0 -0.41364836144E-01  0.45984705451E+00 -0.22322940262E+02  0.22327964447E+02  0.10566000000E+00 0.  1.
        -14    1    4    4    0    0  0.29433355139E+01  0.72278868507E+01 -0.33098492744E+03  0.33107692122E+03  0.00000000000E+00 0.  1.
<mgrwt>
<rscale>  0 0.79373989E+02</rscale>
<asrwt>0</asrwt>
<pdfrwt beam="1">  1        2 0.10219919E+00 0.79373989E+02</pdfrwt>
<pdfrwt beam="2">  1       -1 0.36477263E-03 0.79373989E+02</pdfrwt>
<totfact> 0.33718678E+05</totfact>
</mgrwt>
</event>
<event>
 8    1  0.1493610E-013  0.7964001E+02  0.7818608E-02  0.1330076E+00
          2   -1    0    0  501    0  0.00000000000E+00  0.00000000000E+00  0.25203869417E+03  0.25203869419E+03  0.25500000000E-02 0. -1.
         -1   -1    0    0    0  501 -0.00000000000E+00 -0.00000000000E+00 -0.62912266519E+01  0.62912286707E+01  0.50400000000E-02 0.  1.
         24    2    1    2    0    0  0.00000000000E+00  0.00000000000E+00  0.24574746752E+03  0.25832992286E+03  0.79640010360E+02 0.  0.
         66    2    3    3    0    0 -0.10187420791E+02  0.11682369507E+02  0.24183973528E+03  0.24234421565E+03  0.19999996399E+01 0.  0.
        -13    1    3    3    0    0  0.10187420791E+02 -0.11682369507E+02  0.39077322431E+01  0.15985707210E+02  0.10566000000E+00 0.  1.
         13    1    4    4    0    0 -0.17836402886E+01  0.17135423747E+01  0.35130746492E+02  0.35217866393E+02  0.10566000000E+00 0. -1.
        -13    1    4    4    0    0 -0.48428530907E+01  0.47810204654E+01  0.98936121196E+02  0.99169948191E+02  0.10566000000E+00 0.  1.
         14    1    4    4    0    0 -0.35609274121E+01  0.51878066665E+01  0.10777286759E+03  0.10795640106E+03  0.00000000000E+00 0. -1.
<mgrwt>
<rscale>  0 0.79640010E+02</rscale>
<asrwt>0</asrwt>
<pdfrwt beam="1">  1        2 0.38775182E-01 0.79640010E+02</pdfrwt>
<pdfrwt beam="2">  1       -1 0.96788124E-03 0.79640010E+02</pdfrwt>
<totfact> 0.24223344E+05</totfact>
</mgrwt>
</event>
<event>
 8    1  0.1493610E-013  0.7909542E+02  0.7818608E-02  0.1331638E+00
          2   -1    0    0  501    0  0.00000000000E+00  0.00000000000E+00  0.32181311266E+02  0.32181311367E+02  0.25500000000E-02 0. -1.
         -1   -1    0    0    0  501 -0.00000000000E+00 -0.00000000000E+00 -0.48600297368E+02  0.48600297629E+02  0.50400000000E-02 0.  1.
         24    2    1    2    0    0  0.35527136788E-14  0.00000000000E+00 -0.16418986102E+02  0.80781608996E+02  0.79095418624E+02 0.  0.
         66    2    3    3    0    0 -0.17312946219E+02 -0.35209776060E+02 -0.33648167486E+01  0.39430805636E+02  0.20000011094E+01 0.  0.
        -13    1    3    3    0    0  0.17312946219E+02  0.35209776060E+02 -0.13054169354E+02  0.41350803360E+02  0.10566000000E+00 0.  1.
         13    1    4    4    0    0 -0.45463232465E+01 -0.95497970061E+01 -0.30582415545E+00  0.10581699786E+02  0.10566000000E+00 0. -1.
        -13    1    4    4    0    0 -0.29956841761E+00 -0.10172093822E+01 -0.20416010725E+00  0.10850352755E+01  0.10566000000E+00 0.  1.
         14    1    4    4    0    0 -0.12467054555E+02 -0.24642769671E+02 -0.28548324859E+01  0.27764070574E+02  0.00000000000E+00 0. -1.
<mgrwt>
<rscale>  0 0.79095419E+02</rscale>
<asrwt>0</asrwt>
<pdfrwt beam="1">  1        2 0.49509710E-02 0.79095419E+02</pdfrwt>
<pdfrwt beam="2">  1       -1 0.74769689E-02 0.79095419E+02</pdfrwt>
<totfact> 0.14083301E+05</totfact>
</mgrwt>
</event>
<event>
 8    1  0.1493610E-013  0.7833588E+02  0.7818608E-02  0.1333841E+00
          2   -1    0    0  501    0  0.00000000000E+00  0.00000000000E+00  0.45104267828E+03  0.45104267829E+03  0.25500000000E-02 0. -1.
         -1   -1    0    0    0  501 -0.00000000000E+00 -0.00000000000E+00 -0.34012890386E+01  0.34012927727E+01  0.50400000000E-02 0.  1.
         24    2    1    2    0    0  0.35527136788E-14  0.35527136788E-14  0.44764138925E+03  0.45444397106E+03  0.78335876013E+02 0.  0.
         66    2    3    3    0    0 -0.26091446987E+02 -0.23986255315E+02  0.32034656440E+03  0.32230734614E+03  0.20000007569E+01 0.  0.
        -13    1    3    3    0    0  0.26091446987E+02  0.23986255315E+02  0.12729482485E+03  0.13213662493E+03  0.10566000000E+00 0.  1.
         13    1    4    4    0    0 -0.17029477116E+02 -0.14771720906E+02  0.20533522824E+03  0.20656905371E+03  0.10566000000E+00 0. -1.
        -13    1    4    4    0    0 -0.77107232730E+01 -0.77041130030E+01  0.94236572166E+02  0.94864910838E+02  0.10566000000E+00 0.  1.
         14    1    4    4    0    0 -0.13512465977E+01 -0.15104214055E+01  0.20774763986E+02  0.20873381587E+02  0.00000000000E+00 0. -1.
<mgrwt>
<rscale>  0 0.78335876E+02</rscale>
<asrwt>0</asrwt>
<pdfrwt beam="1">  1        2 0.69391168E-01 0.78335876E+02</pdfrwt>
<pdfrwt beam="2">  1       -1 0.52327563E-03 0.78335876E+02</pdfrwt>
<totfact> 0.31099249E+05</totfact>
</mgrwt>
</event>
<event>
 8    1  0.1493610E-013  0.8047810E+02  0.7818608E-02  0.1327700E+00
          2   -1    0    0  501    0  0.00000000000E+00  0.00000000000E+00  0.17621014217E+02  0.17621014402E+02  0.25500000000E-02 0. -1.
         -1   -1    0    0    0  501 -0.00000000000E+00 -0.00000000000E+00 -0.91889205714E+02  0.91889205852E+02  0.50400000000E-02 0.  1.
         24    2    1    2    0    0 -0.35527136788E-14  0.00000000000E+00 -0.74268191497E+02  0.10951022025E+03  0.80478096845E+02 0.  0.
         66    2    3    3    0    0 -0.18865157723E+02  0.25781493894E+02 -0.39203124367E+01  0.32248231828E+02  0.20000007812E+01 0.  0.
        -13    1    3    3    0    0  0.18865157723E+02 -0.25781493894E+02 -0.70347879060E+02  0.77261988426E+02  0.10566000000E+00 0.  1.
         13    1    4    4    0    0 -0.11809984161E+01  0.11224093093E+01 -0.41755801048E-01  0.16332383473E+01  0.10566000000E+00 0. -1.
        -13    1    4    4    0    0 -0.87913434572E+01  0.11324001939E+02 -0.15950749636E+01  0.14424845506E+02  0.10566000000E+00 0.  1.
        -14    1    4    4    0    0 -0.88928158494E+01  0.13335082645E+02 -0.22834816721E+01  0.16190147974E+02  0.00000000000E+00 0.  1.
<mgrwt>
<rscale>  0 0.80478097E+02</rscale>
<asrwt>0</asrwt>
<pdfrwt beam="1">  1        2 0.27109253E-02 0.80478097E+02</pdfrwt>
<pdfrwt beam="2">  1       -1 0.14136801E-01 0.80478097E+02</pdfrwt>
<totfact> 0.11889839E+05</totfact>
</mgrwt>
</event>
<event>
 8    1  0.1493610E-013  0.8451026E+02  0.7818608E-02  0.1316718E+00
         -1   -1    0    0    0  501 -0.00000000000E+00  0.00000000000E+00  0.27658162745E+02  0.27658163204E+02  0.50400000000E-02 0.  1.
          2   -1    0    0  501    0  0.00000000000E+00 -0.00000000000E+00 -0.64555848984E+02  0.64555849034E+02  0.25500000000E-02 0. -1.
         24    2    1    2    0    0  0.00000000000E+00 -0.17763568394E-14 -0.36897686239E+02  0.92214012239E+02  0.84510264485E+02 0.  0.
         66    2    3    3    0    0 -0.32696917287E+02 -0.62047895951E+01 -0.46827215117E+02  0.57483700956E+02  0.19999965011E+01 0.  0.
        -13    1    3    3    0    0  0.32696917287E+02  0.62047895951E+01  0.99295288786E+01  0.34730311282E+02  0.10566000000E+00 0.  1.
         13    1    4    4    0    0 -0.21347319384E+01 -0.10523079103E+00 -0.24840151667E+01  0.32786657884E+01  0.10566000000E+00 0.  1.
        -13    1    4    4    0    0 -0.17124497891E+02 -0.30275538352E+01 -0.24706009739E+02  0.30212788542E+02  0.10566000000E+00 0. -1.
         14    1    4    4    0    0 -0.13437687458E+02 -0.30720049688E+01 -0.19637190212E+02  0.23992246626E+02  0.00000000000E+00 0. -1.
<mgrwt>
<rscale>  0 0.84510264E+02</rscale>
<asrwt>0</asrwt>
<pdfrwt beam="1">  1        2 0.99316691E-02 0.84510264E+02</pdfrwt>
<pdfrwt beam="2">  1       -1 0.42551020E-02 0.84510264E+02</pdfrwt>
<totfact> 0.13637532E+05</totfact>
</mgrwt>
</event>
<event>
 8    1  0.1493610E-013  0.7527658E+02  0.7818608E-02  0.1343017E+00
          2   -1    0    0  501    0  0.00000000000E+00  0.00000000000E+00  0.16548959705E+04  0.16548959705E+04  0.25500000000E-02 0. -1.
         -1   -1    0    0    0  501 -0.00000000000E+00 -0.00000000000E+00 -0.85602274786E+00  0.85603758472E+00  0.50400000000E-02 0.  1.
         24    2    1    2    0    0  0.00000000000E+00  0.00000000000E+00  0.16540399477E+04  0.16557520081E+04  0.75276580177E+02 0.  0.
         66    2    3    3    0    0  0.82007888277E+01  0.16858179544E+02  0.15448013374E+04  0.15449163806E+04  0.19999989045E+01 0.  0.
        -13    1    3    3    0    0 -0.82007888277E+01 -0.16858179544E+02  0.10923861039E+03  0.11083562748E+03  0.10566000000E+00 0.  1.
         13    1    4    4    0    0  0.57877092608E+01  0.12292160577E+02  0.11388089652E+04  0.11388900145E+04  0.10566000000E+00 0. -1.
        -13    1    4    4    0    0  0.21695240520E+01  0.43824369256E+01  0.39288957088E+03  0.39292001559E+03  0.10566000000E+00 0.  1.
        -14    1    4    4    0    0  0.24355551494E+00  0.18358204211E+00  0.13102801319E+02  0.13106350524E+02  0.00000000000E+00 0.  1.
<mgrwt>
<rscale>  0 0.75276580E+02</rscale>
<asrwt>0</asrwt>
<pdfrwt beam="1">  1        2 0.25459799E+00 0.75276580E+02</pdfrwt>
<pdfrwt beam="2">  1       -1 0.13169767E-03 0.75276580E+02</pdfrwt>
<totfact> 0.37243820E+05</totfact>
</mgrwt>
</event>
<event>
 8    1  0.1493610E-013  0.7974757E+02  0.7818608E-02  0.1329769E+00
         -1   -1    0    0    0  501 -0.00000000000E+00  0.00000000000E+00  0.14650749353E+02  0.14650750220E+02  0.50400000000E-02 0.  1.
          2   -1    0    0  501    0  0.00000000000E+00 -0.00000000000E+00 -0.10852130995E+03  0.10852130998E+03  0.25500000000E-02 0. -1.
         24    2    1    2    0    0  0.00000000000E+00  0.00000000000E+00 -0.93870560601E+02  0.12317206020E+03  0.79747565902E+02 0.  0.
         66    2    3    3    0    0 -0.98563865549E+01 -0.37734116871E+02 -0.59597915699E+02  0.71252533197E+02  0.19999998459E+01 0.  0.
        -13    1    3    3    0    0  0.98563865549E+01  0.37734116871E+02 -0.34272644902E+02  0.51919527007E+02  0.10566000000E+00 0.  1.
         13    1    4    4    0    0 -0.56846628380E+01 -0.23516593783E+02 -0.36435946331E+02  0.43737111516E+02  0.10566000000E+00 0. -1.
        -13    1    4    4    0    0 -0.20698326141E+01 -0.74849996893E+01 -0.11210939110E+02  0.13638392397E+02  0.10566000000E+00 0.  1.
        -14    1    4    4    0    0 -0.21018911027E+01 -0.67325233991E+01 -0.11951030258E+02  0.13877029284E+02  0.00000000000E+00 0.  1.
<mgrwt>
<rscale>  0 0.79747566E+02</rscale>
<asrwt>0</asrwt>
<pdfrwt beam="1">  1        2 0.16695586E-01 0.79747566E+02</pdfrwt>
<pdfrwt beam="2">  1       -1 0.22539616E-02 0.79747566E+02</pdfrwt>
<totfact> 0.18296532E+05</totfact>
</mgrwt>
</event>
<event>
 8    1  0.1493610E-013  0.7593121E+02  0.7818608E-02  0.1341011E+00
          2   -1    0    0  501    0  0.00000000000E+00  0.00000000000E+00  0.16573676981E+03  0.16573676983E+03  0.25500000000E-02 0. -1.
         -1   -1    0    0    0  501 -0.00000000000E+00 -0.00000000000E+00 -0.86968454801E+01  0.86968469405E+01  0.50400000000E-02 0.  1.
         24    2    1    2    0    0  0.00000000000E+00 -0.35527136788E-14  0.15703992433E+03  0.17443361677E+03  0.75931211144E+02 0.  0.
         66    2    3    3    0    0  0.42352505321E+01  0.28886458337E+02  0.13423328267E+03  0.13738609472E+03  0.20000057190E+01 0.  0.
        -13    1    3    3    0    0 -0.42352505321E+01 -0.28886458337E+02  0.22806641654E+02  0.37047522048E+02  0.10566000000E+00 0.  1.
         13    1    4    4    0    0  0.76257693256E+00  0.56904558311E+01  0.25908465973E+02  0.26537192472E+02  0.10566000000E+00 0. -1.
        -13    1    4    4    0    0  0.28032993241E+01  0.21202670464E+02  0.96903049350E+02  0.99235194660E+02  0.10566000000E+00 0.  1.
        -14    1    4    4    0    0  0.66937427550E+00  0.19933320418E+01  0.11421767349E+02  0.11613707587E+02  0.00000000000E+00 0.  1.
<mgrwt>
<rscale>  0 0.75931211E+02</rscale>
<asrwt>0</asrwt>
<pdfrwt beam="1">  1        2 0.25497966E-01 0.75931211E+02</pdfrwt>
<pdfrwt beam="2">  1       -1 0.13379763E-02 0.75931211E+02</pdfrwt>
<totfact> 0.23752302E+05</totfact>
</mgrwt>
</event>
<event>
 8    1  0.1493610E-013  0.8817959E+02  0.7818608E-02  0.1307321E+00
         -1   -1    0    0    0  501 -0.00000000000E+00  0.00000000000E+00  0.23873350003E+02  0.23873350535E+02  0.50400000000E-02 0.  1.
          2   -1    0    0  501    0  0.00000000000E+00 -0.00000000000E+00 -0.81425941535E+02  0.81425941575E+02  0.25500000000E-02 0. -1.
         24    2    1    2    0    0 -0.71054273576E-14  0.00000000000E+00 -0.57552591532E+02  0.10529929211E+03  0.88179590194E+02 0.  0.
         66    2    3    3    0    0 -0.36755183201E+02 -0.18404481179E+02 -0.47756430304E+02  0.63042406772E+02  0.19999991789E+01 0.  0.
        -13    1    3    3    0    0  0.36755183201E+02  0.18404481179E+02 -0.97961612282E+01  0.42256885338E+02  0.10566000000E+00 0.  1.
         13    1    4    4    0    0 -0.21359175998E+02 -0.10413935839E+02 -0.26282839739E+02  0.35432517378E+02  0.10566000000E+00 0. -1.
        -13    1    4    4    0    0 -0.19820192077E+01 -0.85800742579E+00 -0.26398273531E+01  0.34123934961E+01  0.10566000000E+00 0.  1.
        -14    1    4    4    0    0 -0.13413987995E+02 -0.71325379145E+01 -0.18833763212E+02  0.24197495898E+02  0.00000000000E+00 0.  1.
<mgrwt>
<rscale>  0 0.88179590E+02</rscale>
<asrwt>0</asrwt>
<pdfrwt beam="1">  1        2 0.12527068E-01 0.88179590E+02</pdfrwt>
<pdfrwt beam="2">  1       -1 0.36728232E-02 0.88179590E+02</pdfrwt>
<totfact> 0.12881366E+05</totfact>
</mgrwt>
</event>
<event>
 8    1  0.1493610E-013  0.7833398E+02  0.7818608E-02  0.1333847E+00
          2   -1    0    0  501    0  0.00000000000E+00  0.00000000000E+00  0.99706371914E+02  0.99706371946E+02  0.25500000000E-02 0. -1.
         -1   -1    0    0    0  501 -0.00000000000E+00 -0.00000000000E+00 -0.15385707126E+02  0.15385707951E+02  0.50400000000E-02 0.  1.
         24    2    1    2    0    0 -0.35527136788E-14  0.00000000000E+00  0.84320664788E+02  0.11509207990E+03  0.78333979504E+02 0.  0.
         66    2    3    3    0    0  0.24815361044E+02 -0.20988696803E+02  0.74233547251E+02  0.81061378444E+02  0.20000001228E+01 0.  0.
        -13    1    3    3    0    0 -0.24815361044E+02  0.20988696803E+02  0.10087117537E+02  0.34030701454E+02  0.10566000000E+00 0.  1.
         13    1    4    4    0    0  0.67368627674E+00 -0.30774789471E+00  0.15752929247E+01  0.17439248265E+01  0.10566000000E+00 0. -1.
        -13    1    4    4    0    0  0.19959517353E+02 -0.17654777046E+02  0.61258930520E+02  0.66803751526E+02  0.10566000000E+00 0. -1.
         14    1    4    4    0    0  0.41821574139E+01 -0.30261718626E+01  0.11399323807E+02  0.12513702091E+02  0.00000000000E+00 0. -1.
<mgrwt>
<rscale>  0 0.78333980E+02</rscale>
<asrwt>0</asrwt>
<pdfrwt beam="1">  1        2 0.15339442E-01 0.78333980E+02</pdfrwt>
<pdfrwt beam="2">  1       -1 0.23670320E-02 0.78333980E+02</pdfrwt>
<totfact> 0.18737238E+05</totfact>
</mgrwt>
</event>
<event>
 8    1  0.1493610E-013  0.8022446E+02  0.7818608E-02  0.1328416E+00
         -1   -1    0    0    0  501 -0.00000000000E+00  0.00000000000E+00  0.72614131686E+02  0.72614131861E+02  0.50400000000E-02 0.  1.
          2   -1    0    0  501    0  0.00000000000E+00 -0.00000000000E+00 -0.22158096313E+02  0.22158096459E+02  0.25500000000E-02 0. -1.
         24    2    1    2    0    0  0.71054273576E-14  0.00000000000E+00  0.50456035374E+02  0.94772228321E+02  0.80224458585E+02 0.  0.
         66    2    3    3    0    0 -0.31592418648E+02 -0.22957980326E+02  0.35930437222E+02  0.53105047682E+02  0.19999984099E+01 0.  0.
        -13    1    3    3    0    0  0.31592418648E+02  0.22957980326E+02  0.14525598152E+02  0.41667180639E+02  0.10566000000E+00 0.  1.
         13    1    4    4    0    0 -0.14077104143E+02 -0.10546695506E+02  0.16930028364E+02  0.24413821324E+02  0.10566000000E+00 0. -1.
        -13    1    4    4    0    0 -0.69110924984E+01 -0.48213906254E+01  0.82076366825E+01  0.11763735420E+02  0.10566000000E+00 0.  1.
        -14    1    4    4    0    0 -0.10604222006E+02 -0.75898941941E+01  0.10792772175E+02  0.16927490938E+02  0.00000000000E+00 0.  1.
<mgrwt>
<rscale>  0 0.80224459E+02</rscale>
<asrwt>0</asrwt>
<pdfrwt beam="1">  1        2 0.34089379E-02 0.80224459E+02</pdfrwt>
<pdfrwt beam="2">  1       -1 0.11171405E-01 0.80224459E+02</pdfrwt>
<totfact> 0.12572756E+05</totfact>
</mgrwt>
</event>
<event>
 8    1  0.1493610E-013  0.8186435E+02  0.7818608E-02  0.1323842E+00
         -1   -1    0    0    0  501 -0.00000000000E+00  0.00000000000E+00  0.16588665394E+01  0.16588741957E+01  0.50400000000E-02 0.  1.
          2   -1    0    0  501    0  0.00000000000E+00 -0.00000000000E+00 -0.10099902313E+04  0.10099902313E+04  0.25500000000E-02 0. -1.
         24    2    1    2    0    0  0.00000000000E+00  0.00000000000E+00 -0.10083313648E+04  0.10116491055E+04  0.81864348144E+02 0.  0.
         66    2    3    3    0    0  0.79630409322E+01 -0.26689077388E+02 -0.87472489837E+03  0.87517047751E+03  0.20000006549E+01 0.  0.
        -13    1    3    3    0    0 -0.79630409322E+01  0.26689077388E+02 -0.13360646642E+03  0.13647862802E+03  0.10566000000E+00 0.  1.
         13    1    4    4    0    0  0.66750490132E+01 -0.22136904864E+02 -0.71999307706E+03  0.72036424190E+03  0.10566000000E+00 0. -1.
        -13    1    4    4    0    0  0.34530790668E+00 -0.13995921886E+01 -0.59597032064E+02  0.59614557708E+02  0.10566000000E+00 0.  1.
         14    1    4    4    0    0  0.94268401227E+00 -0.31525803347E+01 -0.95134789248E+02  0.95191677898E+02  0.00000000000E+00 0. -1.
<mgrwt>
<rscale>  0 0.81864348E+02</rscale>
<asrwt>0</asrwt>
<pdfrwt beam="1">  1        2 0.15538262E+00 0.81864348E+02</pdfrwt>
<pdfrwt beam="2">  1       -1 0.25521163E-03 0.81864348E+02</pdfrwt>
<totfact> 0.33196156E+05</totfact>
</mgrwt>
</event>
<event>
 8    1  0.1493610E-013  0.7864902E+02  0.7818608E-02  0.1332930E+00
         -1   -1    0    0    0  501 -0.00000000000E+00  0.00000000000E+00  0.37405685732E+02  0.37405686072E+02  0.50400000000E-02 0.  1.
          2   -1    0    0  501    0  0.00000000000E+00 -0.00000000000E+00 -0.41341767146E+02  0.41341767225E+02  0.25500000000E-02 0. -1.
         24    2    1    2    0    0  0.00000000000E+00  0.00000000000E+00 -0.39360814135E+01  0.78747453297E+02  0.78649022014E+02 0.  0.
         66    2    3    3    0    0  0.73086265523E+01 -0.17077517022E+02 -0.36644351892E+02  0.41132300347E+02  0.19999991355E+01 0.  0.
        -13    1    3    3    0    0 -0.73086265523E+01  0.17077517022E+02  0.32708270478E+02  0.37615152950E+02  0.10566000000E+00 0.  1.
         13    1    4    4    0    0  0.31589006056E+01 -0.65492624909E+01 -0.13886373904E+02  0.15675268306E+02  0.10566000000E+00 0. -1.
        -13    1    4    4    0    0  0.39684963811E+01 -0.90252419705E+01 -0.19009639176E+02  0.21414516146E+02  0.10566000000E+00 0.  1.
        -14    1    4    4    0    0  0.18122956555E+00 -0.15030125608E+01 -0.37483388118E+01  0.40425158950E+01  0.00000000000E+00 0.  1.
<mgrwt>
<rscale>  0 0.78649022E+02</rscale>
<asrwt>0</asrwt>
<pdfrwt beam="1">  1        2 0.63602719E-02 0.78649022E+02</pdfrwt>
<pdfrwt beam="2">  1       -1 0.57547209E-02 0.78649022E+02</pdfrwt>
<totfact> 0.15042521E+05</totfact>
</mgrwt>
</event>
<event>
 8    1  0.1493610E-013  0.8578345E+02  0.7818608E-02  0.1313396E+00
          2   -1    0    0  501    0  0.00000000000E+00  0.00000000000E+00  0.15041273627E+03  0.15041273629E+03  0.25500000000E-02 0. -1.
         -1   -1    0    0    0  501 -0.00000000000E+00 -0.00000000000E+00 -0.12231010828E+02  0.12231011866E+02  0.50400000000E-02 0.  1.
         24    2    1    2    0    0  0.00000000000E+00  0.00000000000E+00  0.13818172544E+03  0.16264374816E+03  0.85783445772E+02 0.  0.
         66    2    3    3    0    0 -0.18770080877E+02  0.30092664017E+02  0.11478211200E+03  0.12015330879E+03  0.20000040964E+01 0.  0.
        -13    1    3    3    0    0  0.18770080877E+02 -0.30092664017E+02  0.23399613447E+02  0.42490439363E+02  0.10566000000E+00 0.  1.
         13    1    4    4    0    0 -0.49936148668E+01  0.86886134027E+01  0.30317557418E+02  0.31931076464E+02  0.10566000000E+00 0. -1.
        -13    1    4    4    0    0 -0.43427602542E+01  0.69434668304E+01  0.25669942661E+02  0.26944914520E+02  0.10566000000E+00 0.  1.
        -14    1    4    4    0    0 -0.94337057560E+01  0.14460583784E+02  0.58794611916E+02  0.61277317811E+02  0.00000000000E+00 0.  1.
<mgrwt>
<rscale>  0 0.85783446E+02</rscale>
<asrwt>0</asrwt>
<pdfrwt beam="1">  1        2 0.23140419E-01 0.85783446E+02</pdfrwt>
<pdfrwt beam="2">  1       -1 0.18816942E-02 0.85783446E+02</pdfrwt>
<totfact> 0.16646710E+05</totfact>
</mgrwt>
</event>
<event>
 8    1  0.1493610E-013  0.7850035E+02  0.7818608E-02  0.1333362E+00
          2   -1    0    0  501    0  0.00000000000E+00  0.00000000000E+00  0.81674002179E+03  0.81674002179E+03  0.25500000000E-02 0. -1.
         -1   -1    0    0    0  501 -0.00000000000E+00 -0.00000000000E+00 -0.18862470178E+01  0.18862537512E+01  0.50400000000E-02 0.  1.
         24    2    1    2    0    0 -0.35527136788E-14  0.00000000000E+00  0.81485377477E+03  0.81862627555E+03  0.78500348741E+02 0.  0.
         66    2    3    3    0    0 -0.21624708118E+02  0.11814513942E+02  0.72594397797E+03  0.72636483251E+03  0.20000010830E+01 0.  0.
        -13    1    3    3    0    0  0.21624708118E+02 -0.11814513942E+02  0.88909796799E+02  0.92261443040E+02  0.10566000000E+00 0.  1.
         13    1    4    4    0    0 -0.12070196143E+02  0.66099490645E+01  0.42972167035E+03  0.42994198003E+03  0.10566000000E+00 0. -1.
        -13    1    4    4    0    0 -0.88792723552E+01  0.48266774193E+01  0.26988338869E+03  0.27007256978E+03  0.10566000000E+00 0.  1.
        -14    1    4    4    0    0 -0.67523962002E+00  0.37788745798E+00  0.26338918930E+02  0.26350282691E+02  0.00000000000E+00 0.  1.
<mgrwt>
<rscale>  0 0.78500349E+02</rscale>
<asrwt>0</asrwt>
<pdfrwt beam="1">  1        2 0.12565246E+00 0.78500349E+02</pdfrwt>
<pdfrwt beam="2">  1       -1 0.29019203E-03 0.78500349E+02</pdfrwt>
<totfact> 0.36220706E+05</totfact>
</mgrwt>
</event>
<event>
 8    1  0.1493610E-013  0.7938069E+02  0.7818608E-02  0.1330818E+00
         -1   -1    0    0    0  501 -0.00000000000E+00  0.00000000000E+00  0.72407844976E+01  0.72407862517E+01  0.50400000000E-02 0.  1.
          2   -1    0    0  501    0  0.00000000000E+00 -0.00000000000E+00 -0.21756249186E+03  0.21756249188E+03  0.25500000000E-02 0. -1.
         24    2    1    2    0    0  0.00000000000E+00 -0.17763568394E-14 -0.21032170737E+03  0.22480327813E+03  0.79380685741E+02 0.  0.
         66    2    3    3    0    0 -0.47937453008E+01  0.12725686317E+02 -0.21074974900E+03  0.21119749003E+03  0.20000014566E+01 0.  0.
        -13    1    3    3    0    0  0.47937453008E+01 -0.12725686317E+02  0.42804162960E+00  0.13605788103E+02  0.10566000000E+00 0.  1.
         13    1    4    4    0    0 -0.58539451249E+00  0.35290230381E+01 -0.62750990517E+02  0.62852960672E+02  0.10566000000E+00 0. -1.
        -13    1    4    4    0    0 -0.19215888630E+01  0.40967218791E+01 -0.63452921359E+02  0.63614149581E+02  0.10566000000E+00 0.  1.
         14    1    4    4    0    0 -0.22867619253E+01  0.50999413992E+01 -0.84545837119E+02  0.84730379773E+02  0.00000000000E+00 0. -1.
<mgrwt>
<rscale>  0 0.79380686E+02</rscale>
<asrwt>0</asrwt>
<pdfrwt beam="1">  1        2 0.33471148E-01 0.79380686E+02</pdfrwt>
<pdfrwt beam="2">  1       -1 0.11139672E-02 0.79380686E+02</pdfrwt>
<totfact> 0.23187601E+05</totfact>
</mgrwt>
</event>
<event>
 8    1  0.1493610E-013  0.8147052E+02  0.7818608E-02  0.1324929E+00
         -1   -1    0    0    0  501 -0.00000000000E+00  0.00000000000E+00  0.13520908433E+02  0.13520909373E+02  0.50400000000E-02 0.  1.
          2   -1    0    0  501    0  0.00000000000E+00 -0.00000000000E+00 -0.12272557220E+03  0.12272557223E+03  0.25500000000E-02 0. -1.
         24    2    1    2    0    0  0.35527136788E-14  0.00000000000E+00 -0.10920466377E+03  0.13624648160E+03  0.81470517121E+02 0.  0.
         66    2    3    3    0    0  0.26895202942E+02 -0.28137003209E+02 -0.34684923228E+02  0.52173621621E+02  0.20000007163E+01 0.  0.
        -13    1    3    3    0    0 -0.26895202942E+02  0.28137003209E+02 -0.74519740543E+02  0.84072859982E+02  0.10566000000E+00 0.  1.
         13    1    4    4    0    0  0.12950638910E+02 -0.13960565295E+02 -0.17782357606E+02  0.26054555026E+02  0.10566000000E+00 0. -1.
        -13    1    4    4    0    0  0.41080112225E+00 -0.63865018446E+00 -0.56090878058E+00  0.94995490202E+00  0.10566000000E+00 0.  1.
         14    1    4    4    0    0  0.13533762910E+02 -0.13537787730E+02 -0.16341656842E+02  0.25169111693E+02  0.00000000000E+00 0. -1.
<mgrwt>
<rscale>  0 0.81470517E+02</rscale>
<asrwt>0</asrwt>
<pdfrwt beam="1">  1        2 0.18880857E-01 0.81470517E+02</pdfrwt>
<pdfrwt beam="2">  1       -1 0.20801399E-02 0.81470517E+02</pdfrwt>
<totfact> 0.17920648E+05</totfact>
</mgrwt>
</event>
<event>
 8    1  0.1493610E-013  0.7835383E+02  0.7818608E-02  0.1333789E+00
          2   -1    0    0  501    0  0.00000000000E+00  0.00000000000E+00  0.19693515526E+03  0.19693515527E+03  0.25500000000E-02 0. -1.
         -1   -1    0    0    0  501 -0.00000000000E+00 -0.00000000000E+00 -0.77935821452E+01  0.77935837749E+01  0.50400000000E-02 0.  1.
         24    2    1    2    0    0  0.14210854715E-13  0.35527136788E-14  0.18914157311E+03  0.20472873905E+03  0.78353825134E+02 0.  0.
         66    2    3    3    0    0 -0.35774754521E+02 -0.92413004154E+01  0.12845769463E+03  0.13368101589E+03  0.20000013192E+01 0.  0.
        -13    1    3    3    0    0  0.35774754521E+02  0.92413004154E+01  0.60683878482E+02  0.71047723159E+02  0.10566000000E+00 0.  1.
         13    1    4    4    0    0 -0.13204363649E+01 -0.23629287509E+00  0.45925963083E+01  0.47856547517E+01  0.10566000000E+00 0.  1.
        -13    1    4    4    0    0 -0.93184242567E+00  0.14942248545E-01  0.29384731737E+01  0.30845327369E+01  0.10566000000E+00 0.  1.
         14    1    4    4    0    0 -0.33522475730E+02 -0.90199497889E+01  0.12092662515E+03  0.12581082840E+03  0.00000000000E+00 0. -1.
<mgrwt>
<rscale>  0 0.78353825E+02</rscale>
<asrwt>0</asrwt>
<pdfrwt beam="1">  1        2 0.30297715E-01 0.78353825E+02</pdfrwt>
<pdfrwt beam="2">  1       -1 0.11990128E-02 0.78353825E+02</pdfrwt>
<totfact> 0.23177092E+05</totfact>
</mgrwt>
</event>
<event>
 8    1  0.1493610E-013  0.7996987E+02  0.7818608E-02  0.1329137E+00
         -1   -1    0    0    0  501 -0.00000000000E+00  0.00000000000E+00  0.51037408488E+01  0.51037433373E+01  0.50400000000E-02 0.  1.
          2   -1    0    0  501    0  0.00000000000E+00 -0.00000000000E+00 -0.31325934570E+03  0.31325934571E+03  0.25500000000E-02 0. -1.
         24    2    1    2    0    0  0.00000000000E+00  0.00000000000E+00 -0.30815560485E+03  0.31836308905E+03  0.79969867243E+02 0.  0.
         66    2    3    3    0    0  0.22426560856E+02 -0.33010717567E+02 -0.16226614289E+03  0.16711361176E+03  0.19999997765E+01 0.  0.
        -13    1    3    3    0    0 -0.22426560856E+02  0.33010717567E+02 -0.14588946196E+03  0.15124947729E+03  0.10566000000E+00 0.  1.
         13    1    4    4    0    0  0.11472889882E+02 -0.17154691492E+02 -0.86359205010E+02  0.88790957290E+02  0.10566000000E+00 0. -1.
        -13    1    4    4    0    0  0.50893296481E+01 -0.69826935324E+01 -0.36013868694E+02  0.37036052538E+02  0.10566000000E+00 0.  1.
        -14    1    4    4    0    0  0.58643413263E+01 -0.88733325430E+01 -0.39893069187E+02  0.41286601928E+02  0.00000000000E+00 0.  1.
<mgrwt>
<rscale>  0 0.79969867E+02</rscale>
<asrwt>0</asrwt>
<pdfrwt beam="1">  1        2 0.48193730E-01 0.79969867E+02</pdfrwt>
<pdfrwt beam="2">  1       -1 0.78519134E-03 0.79969867E+02</pdfrwt>
<totfact> 0.25922015E+05</totfact>
</mgrwt>
</event>
<event>
 8    1  0.1493610E-013  0.8037605E+02  0.7818608E-02  0.1327988E+00
         -1   -1    0    0    0  501 -0.00000000000E+00  0.00000000000E+00  0.84007109068E+00  0.84008620927E+00  0.50400000000E-02 0.  1.
          2   -1    0    0  501    0  0.00000000000E+00 -0.00000000000E+00 -0.19225311213E+04  0.19225311213E+04  0.25500000000E-02 0. -1.
         24    2    1    2    0    0  0.00000000000E+00 -0.35527136788E-14 -0.19216910502E+04  0.19233712075E+04  0.80376050087E+02 0.  0.
         66    2    3    3    0    0 -0.41546995289E+01  0.16879762214E+02 -0.18278392255E+04  0.18279229804E+04  0.19999890491E+01 0.  0.
        -13    1    3    3    0    0  0.41546995289E+01 -0.16879762214E+02 -0.93851824677E+02  0.95448227117E+02  0.10566000000E+00 0.  1.
         13    1    4    4    0    0 -0.12488831227E+00  0.28654933589E+01 -0.30766341993E+03  0.30767680735E+03  0.10566000000E+00 0. -1.
        -13    1    4    4    0    0 -0.19461155897E+01  0.56419588835E+01 -0.57428774401E+03  0.57431876441E+03  0.10566000000E+00 0.  1.
         14    1    4    4    0    0 -0.20836956269E+01  0.83723099719E+01 -0.94588806160E+03  0.94592740865E+03  0.00000000000E+00 0. -1.
<mgrwt>
<rscale>  0 0.80376050E+02</rscale>
<asrwt>0</asrwt>
<pdfrwt beam="1">  1        2 0.29577050E+00 0.80376050E+02</pdfrwt>
<pdfrwt beam="2">  1       -1 0.12924441E-03 0.80376050E+02</pdfrwt>
<totfact> 0.28394089E+05</totfact>
</mgrwt>
</event>
<event>
 8    1  0.1493610E-013  0.7930876E+02  0.7818608E-02  0.1331025E+00
         -1   -1    0    0    0  501 -0.00000000000E+00  0.00000000000E+00  0.75714404885E+01  0.75714421659E+01  0.50400000000E-02 0.  1.
          2   -1    0    0  501    0  0.00000000000E+00 -0.00000000000E+00 -0.20768437204E+03  0.20768437206E+03  0.25500000000E-02 0. -1.
         24    2    1    2    0    0  0.35527136788E-14  0.00000000000E+00 -0.20011293155E+03  0.21525581422E+03  0.79308764850E+02 0.  0.
         66    2    3    3    0    0 -0.22847109058E+02 -0.30240818811E+02 -0.13153466502E+03  0.13690093359E+03  0.20000001161E+01 0.  0.
        -13    1    3    3    0    0  0.22847109058E+02  0.30240818811E+02 -0.68578266530E+02  0.78354880633E+02  0.10566000000E+00 0.  1.
         13    1    4    4    0    0 -0.89423422990E+01 -0.13270058428E+02 -0.55581381481E+02  0.57839096360E+02  0.10566000000E+00 0. -1.
        -13    1    4    4    0    0 -0.12618250861E+02 -0.15539885782E+02 -0.69921705011E+02  0.72730765846E+02  0.10566000000E+00 0.  1.
        -14    1    4    4    0    0 -0.12865158980E+01 -0.14308746017E+01 -0.60315785301E+01  0.63310713822E+01  0.00000000000E+00 0.  1.
<mgrwt>
<rscale>  0 0.79308765E+02</rscale>
<asrwt>0</asrwt>
<pdfrwt beam="1">  1        2 0.31951438E-01 0.79308765E+02</pdfrwt>
<pdfrwt beam="2">  1       -1 0.11648373E-02 0.79308765E+02</pdfrwt>
<totfact> 0.22867397E+05</totfact>
</mgrwt>
</event>
<event>
 8    1  0.1493610E-013  0.8001721E+02  0.7818608E-02  0.1329003E+00
         -1   -1    0    0    0  501 -0.00000000000E+00  0.00000000000E+00  0.81964174692E+01  0.81964190187E+01  0.50400000000E-02 0.  1.
          2   -1    0    0  501    0  0.00000000000E+00 -0.00000000000E+00 -0.19529119556E+03  0.19529119558E+03  0.25500000000E-02 0. -1.
         24    2    1    2    0    0  0.00000000000E+00  0.00000000000E+00 -0.18709477809E+03  0.20348761460E+03  0.80017206305E+02 0.  0.
         66    2    3    3    0    0  0.16987136985E+02  0.36192163861E+02 -0.92339708269E+02  0.10064321772E+03  0.20000004312E+01 0.  0.
        -13    1    3    3    0    0 -0.16987136985E+02 -0.36192163861E+02 -0.94755069823E+02  0.10284439688E+03  0.10566000000E+00 0.  1.
         13    1    4    4    0    0  0.58967323090E+01  0.13974279307E+02 -0.36685321466E+02  0.39697303550E+02  0.10566000000E+00 0. -1.
        -13    1    4    4    0    0  0.31526107306E+01  0.68722203976E+01 -0.16735693953E+02  0.18364666720E+02  0.10566000000E+00 0. -1.
         14    1    4    4    0    0  0.79377939450E+01  0.15345664157E+02 -0.38918692850E+02  0.42581247449E+02  0.00000000000E+00 0. -1.
<mgrwt>
<rscale>  0 0.80017206E+02</rscale>
<asrwt>0</asrwt>
<pdfrwt beam="1">  1        2 0.30044796E-01 0.80017206E+02</pdfrwt>
<pdfrwt beam="2">  1       -1 0.12609876E-02 0.80017206E+02</pdfrwt>
<totfact> 0.21864801E+05</totfact>
</mgrwt>
</event>
<event>
 8    1  0.1493610E-013  0.7980668E+02  0.7818608E-02  0.1329601E+00
         -1   -1    0    0    0  501 -0.00000000000E+00  0.00000000000E+00  0.30692376988E+02  0.30692377402E+02  0.50400000000E-02 0.  1.
          2   -1    0    0  501    0  0.00000000000E+00 -0.00000000000E+00 -0.51878561107E+02  0.51878561170E+02  0.25500000000E-02 0. -1.
         24    2    1    2    0    0  0.00000000000E+00  0.88817841970E-15 -0.21186184120E+02  0.82570938572E+02  0.79806675780E+02 0.  0.
         66    2    3    3    0    0 -0.17737486158E+02  0.61634228577E+01 -0.46998737635E+02  0.50650642841E+02  0.20000210827E+01 0.  0.
        -13    1    3    3    0    0  0.17737486158E+02 -0.61634228577E+01  0.25812553515E+02  0.31920295731E+02  0.10566000000E+00 0.  1.
         13    1    4    4    0    0 -0.14978600358E+01  0.17979677688E+00 -0.44883624749E+01  0.47362932035E+01  0.10566000000E+00 0. -1.
        -13    1    4    4    0    0 -0.32586593918E+01  0.84638871912E+00 -0.74155531368E+01  0.81447423075E+01  0.10566000000E+00 0.  1.
        -14    1    4    4    0    0 -0.12980966731E+02  0.51372373617E+01 -0.35094822023E+02  0.37769607330E+02  0.00000000000E+00 0.  1.
<mgrwt>
<rscale>  0 0.79806676E+02</rscale>
<asrwt>0</asrwt>
<pdfrwt beam="1">  1        2 0.79813171E-02 0.79806676E+02</pdfrwt>
<pdfrwt beam="2">  1       -1 0.47219042E-02 0.79806676E+02</pdfrwt>
<totfact> 0.15164142E+05</totfact>
</mgrwt>
</event>
<event>
 8    1  0.1493610E-013  0.8150172E+02  0.7818608E-02  0.1324843E+00
         -1   -1    0    0    0  501 -0.00000000000E+00  0.00000000000E+00  0.41698223219E+02  0.41698223523E+02  0.50400000000E-02 0.  1.
          2   -1    0    0  501    0  0.00000000000E+00 -0.00000000000E+00 -0.39825017297E+02  0.39825017379E+02  0.25500000000E-02 0. -1.
         24    2    1    2    0    0 -0.35527136788E-14  0.00000000000E+00  0.18732059214E+01  0.81523240902E+02  0.81501717201E+02 0.  0.
         66    2    3    3    0    0  0.22495854413E+02  0.33275864448E+02 -0.57937180616E+01  0.40631438448E+02  0.20000002103E+01 0.  0.
        -13    1    3    3    0    0 -0.22495854413E+02 -0.33275864448E+02  0.76669239830E+01  0.40891802454E+02  0.10566000000E+00 0.  1.
         13    1    4    4    0    0  0.29215580491E+01  0.48418626846E+01 -0.57837698088E+00  0.56854920331E+01  0.10566000000E+00 0. -1.
        -13    1    4    4    0    0  0.17463784601E+02  0.25780197891E+02 -0.43020967899E+01  0.31434401167E+02  0.10566000000E+00 0.  1.
        -14    1    4    4    0    0  0.21105117630E+01  0.26538038722E+01 -0.91324429081E+00  0.35115452479E+01  0.00000000000E+00 0.  1.
<mgrwt>
<rscale>  0 0.81501717E+02</rscale>
<asrwt>0</asrwt>
<pdfrwt beam="1">  1        2 0.61269257E-02 0.81501717E+02</pdfrwt>
<pdfrwt beam="2">  1       -1 0.64151113E-02 0.81501717E+02</pdfrwt>
<totfact> 0.13527498E+05</totfact>
</mgrwt>
</event>
<event>
 8    1  0.1493610E-013  0.7837569E+02  0.7818608E-02  0.1333725E+00
         -1   -1    0    0    0  501 -0.00000000000E+00  0.00000000000E+00  0.70759331241E+00  0.70761126147E+00  0.50400000000E-02 0.  1.
          2   -1    0    0  501    0  0.00000000000E+00 -0.00000000000E+00 -0.21702686708E+04  0.21702686708E+04  0.25500000000E-02 0. -1.
         24    2    1    2    0    0  0.00000000000E+00 -0.88817841970E-15 -0.21695610775E+04  0.21709762821E+04  0.78375687116E+02 0.  0.
         66    2    3    3    0    0 -0.74642895181E+01 -0.78450083860E+01 -0.21279706490E+04  0.21279991407E+04  0.20000020924E+01 0.  0.
        -13    1    3    3    0    0  0.74642895181E+01  0.78450083860E+01 -0.41590428500E+02  0.42977141383E+02  0.10566000000E+00 0.  1.
         13    1    4    4    0    0 -0.28274486080E+01 -0.37917683606E+01 -0.82259465556E+03  0.82260826066E+03  0.10566000000E+00 0. -1.
        -13    1    4    4    0    0 -0.46481745481E+01 -0.38662646376E+01 -0.12667459113E+04  0.12667603437E+04  0.10566000000E+00 0.  1.
        -14    1    4    4    0    0  0.11333638050E-01 -0.18697538789E+00 -0.38630082160E+02  0.38630536314E+02  0.00000000000E+00 0.  1.
<mgrwt>
<rscale>  0 0.78375687E+02</rscale>
<asrwt>0</asrwt>
<pdfrwt beam="1">  1        2 0.33388216E+00 0.78375687E+02</pdfrwt>
<pdfrwt beam="2">  1       -1 0.10886363E-03 0.78375687E+02</pdfrwt>
<totfact> 0.26912610E+05</totfact>
</mgrwt>
</event>
<event>
 8    1  0.1493610E-013  0.8362476E+02  0.7818608E-02  0.1319069E+00
          2   -1    0    0  501    0  0.00000000000E+00  0.00000000000E+00  0.14994948304E+02  0.14994948521E+02  0.25500000000E-02 0. -1.
         -1   -1    0    0    0  501 -0.00000000000E+00 -0.00000000000E+00 -0.11659093020E+03  0.11659093031E+03  0.50400000000E-02 0.  1.
         24    2    1    2    0    0 -0.17763568394E-14  0.00000000000E+00 -0.10159598189E+03  0.13158587883E+03  0.83624756919E+02 0.  0.
         66    2    3    3    0    0  0.15672565533E+02  0.29065273208E+02 -0.10529580751E+02  0.34717308083E+02  0.19999981666E+01 0.  0.
        -13    1    3    3    0    0 -0.15672565533E+02 -0.29065273208E+02 -0.91066401142E+02  0.96868570744E+02  0.10566000000E+00 0.  1.
         13    1    4    4    0    0  0.57275144459E+01  0.10237885842E+02 -0.30016139307E+01  0.12109482998E+02  0.10566000000E+00 0. -1.
        -13    1    4    4    0    0  0.54065470723E+01  0.92425816362E+01 -0.35531365456E+01  0.11282376075E+02  0.10566000000E+00 0.  1.
        -14    1    4    4    0    0  0.45385040144E+01  0.95848057299E+01 -0.39748302749E+01  0.11325449010E+02  0.00000000000E+00 0.  1.
<mgrwt>
<rscale>  0 0.83624757E+02</rscale>
<asrwt>0</asrwt>
<pdfrwt beam="1">  1        2 0.23069152E-02 0.83624757E+02</pdfrwt>
<pdfrwt beam="2">  1       -1 0.17937066E-01 0.83624757E+02</pdfrwt>
<totfact> 0.10254233E+05</totfact>
</mgrwt>
</event>
<event>
 8    1  0.1493610E-013  0.8029474E+02  0.7818608E-02  0.1328217E+00
          2   -1    0    0  501    0  0.00000000000E+00  0.00000000000E+00  0.34942409742E+02  0.34942409835E+02  0.25500000000E-02 0. -1.
         -1   -1    0    0    0  501 -0.00000000000E+00 -0.00000000000E+00 -0.46127650181E+02  0.46127650457E+02  0.50400000000E-02 0.  1.
         24    2    1    2    0    0  0.00000000000E+00  0.00000000000E+00 -0.11185240440E+02  0.81070060292E+02  0.80294738757E+02 0.  0.
         66    2    3    3    0    0  0.24798097183E+00  0.22698336334E+02  0.27807060755E+02  0.35951475613E+02  0.20000010024E+01 0.  0.
        -13    1    3    3    0    0 -0.24798097183E+00 -0.22698336334E+02 -0.38992301195E+02  0.45118584679E+02  0.10566000000E+00 0.  1.
         13    1    4    4    0    0  0.27564397083E-01  0.10088477974E+02  0.12166629367E+02  0.15805574391E+02  0.10566000000E+00 0. -1.
        -13    1    4    4    0    0  0.50414324325E-01  0.10341723367E+02  0.11880579444E+02  0.15751606768E+02  0.10566000000E+00 0.  1.
        -14    1    4    4    0    0  0.17000225043E+00  0.22681349931E+01  0.37598519441E+01  0.43942944546E+01  0.00000000000E+00 0.  1.
<mgrwt>
<rscale>  0 0.80294739E+02</rscale>
<asrwt>0</asrwt>
<pdfrwt beam="1">  1        2 0.53757553E-02 0.80294739E+02</pdfrwt>
<pdfrwt beam="2">  1       -1 0.70965616E-02 0.80294739E+02</pdfrwt>
<totfact> 0.13728223E+05</totfact>
</mgrwt>
</event>
<event>
 8    1  0.1493610E-013  0.8500014E+02  0.7818608E-02  0.1315432E+00
         -1   -1    0    0    0  501 -0.00000000000E+00  0.00000000000E+00  0.10472095870E+03  0.10472095882E+03  0.50400000000E-02 0.  1.
          2   -1    0    0  501    0  0.00000000000E+00 -0.00000000000E+00 -0.17248277107E+02  0.17248277295E+02  0.25500000000E-02 0. -1.
         24    2    1    2    0    0  0.00000000000E+00  0.00000000000E+00  0.87472681594E+02  0.12196923612E+03  0.85000144316E+02 0.  0.
         66    2    3    3    0    0  0.36090302080E+02  0.18237861795E+02  0.25099690728E+02  0.47635322856E+02  0.20000004778E+01 0.  0.
        -13    1    3    3    0    0 -0.36090302080E+02 -0.18237861795E+02  0.62372990867E+02  0.74333913261E+02  0.10566000000E+00 0.  1.
         13    1    4    4    0    0  0.15248703134E+01  0.86834952921E+00  0.10581184783E+01  0.20518379876E+01  0.10566000000E+00 0. -1.
        -13    1    4    4    0    0  0.33878009496E+02  0.16945822783E+02  0.23214181672E+02  0.44427354546E+02  0.10566000000E+00 0.  1.
        -14    1    4    4    0    0  0.68742227041E+00  0.42368948310E+00  0.82739057688E+00  0.11561303225E+01  0.00000000000E+00 0.  1.
<mgrwt>
<rscale>  0 0.85000144E+02</rscale>
<asrwt>0</asrwt>
<pdfrwt beam="1">  1        2 0.26535811E-02 0.85000144E+02</pdfrwt>
<pdfrwt beam="2">  1       -1 0.16110917E-01 0.85000144E+02</pdfrwt>
<totfact> 0.10087016E+05</totfact>
</mgrwt>
</event>
<event>
 8    1  0.1493610E-013  0.8005252E+02  0.7818608E-02  0.1328902E+00
         -1   -1    0    0    0  501 -0.00000000000E+00  0.00000000000E+00  0.17807582318E+01  0.17807653641E+01  0.50400000000E-02 0.  1.
          2   -1    0    0  501    0  0.00000000000E+00 -0.00000000000E+00 -0.89967187234E+03  0.89967187234E+03  0.25500000000E-02 0. -1.
         24    2    1    2    0    0  0.00000000000E+00  0.00000000000E+00 -0.89789111410E+03  0.90145263770E+03  0.80052515486E+02 0.  0.
         66    2    3    3    0    0 -0.29428691665E+02  0.90832527456E+01 -0.73665987497E+03  0.73730612689E+03  0.19999985024E+01 0.  0.
        -13    1    3    3    0    0  0.29428691665E+02 -0.90832527456E+01 -0.16123123914E+03  0.16414651081E+03  0.10566000000E+00 0.  1.
         13    1    4    4    0    0 -0.13982003941E+02  0.52656970848E+01 -0.35948059406E+03  0.35979095690E+03  0.10566000000E+00 0. -1.
        -13    1    4    4    0    0 -0.11111412929E+02  0.29998274197E+01 -0.27227296256E+03  0.27251612753E+03  0.10566000000E+00 0.  1.
         14    1    4    4    0    0 -0.43352747955E+01  0.81772824102E+00 -0.10490631835E+03  0.10499904246E+03  0.00000000000E+00 0. -1.
<mgrwt>
<rscale>  0 0.80052515E+02</rscale>
<asrwt>0</asrwt>
<pdfrwt beam="1">  1        2 0.13841069E+00 0.80052515E+02</pdfrwt>
<pdfrwt beam="2">  1       -1 0.27396407E-03 0.80052515E+02</pdfrwt>
<totfact> 0.34885655E+05</totfact>
</mgrwt>
</event>
<event>
 8    1  0.1493610E-013  0.7989898E+02  0.7818608E-02  0.1329338E+00
         -1   -1    0    0    0  501 -0.00000000000E+00  0.00000000000E+00  0.46462472130E+01  0.46462499465E+01  0.50400000000E-02 0.  1.
          2   -1    0    0  501    0  0.00000000000E+00 -0.00000000000E+00 -0.34349469065E+03  0.34349469066E+03  0.25500000000E-02 0. -1.
         24    2    1    2    0    0  0.71054273576E-14  0.00000000000E+00 -0.33884844344E+03  0.34814094061E+03  0.79898979383E+02 0.  0.
         66    2    3    3    0    0 -0.37664471236E+02 -0.72140743423E+01 -0.21791366965E+03  0.22127137791E+03  0.20000007027E+01 0.  0.
        -13    1    3    3    0    0  0.37664471236E+02  0.72140743423E+01 -0.12093477380E+03  0.12686956270E+03  0.10566000000E+00 0.  1.
         13    1    4    4    0    0 -0.20497134663E+02 -0.32459174761E+01 -0.11620816340E+03  0.11804667261E+03  0.10566000000E+00 0. -1.
        -13    1    4    4    0    0 -0.61023556121E+01 -0.15146722775E+01 -0.38821503301E+02  0.39327512745E+02  0.10566000000E+00 0.  1.
        -14    1    4    4    0    0 -0.11064980961E+02 -0.24534845888E+01 -0.62884002944E+02  0.63897192556E+02  0.00000000000E+00 0.  1.
<mgrwt>
<rscale>  0 0.79898979E+02</rscale>
<asrwt>0</asrwt>
<pdfrwt beam="1">  1        2 0.52845317E-01 0.79898979E+02</pdfrwt>
<pdfrwt beam="2">  1       -1 0.71480775E-03 0.79898979E+02</pdfrwt>
<totfact> 0.26858077E+05</totfact>
</mgrwt>
</event>
<event>
 8    1  0.1493610E-013  0.8005197E+02  0.7818608E-02  0.1328904E+00
         -1   -1    0    0    0  501 -0.00000000000E+00  0.00000000000E+00  0.15353917526E+02  0.15353918353E+02  0.50400000000E-02 0.  1.
          2   -1    0    0  501    0  0.00000000000E+00 -0.00000000000E+00 -0.10434335348E+03  0.10434335351E+03  0.25500000000E-02 0. -1.
         24    2    1    2    0    0 -0.35527136788E-14  0.71054273576E-14 -0.88989435954E+02  0.11969727186E+03  0.80051965498E+02 0.  0.
         66    2    3    3    0    0 -0.29088710283E+02  0.24735146009E+02 -0.62346195039E+02  0.73137053173E+02  0.19999992079E+01 0.  0.
        -13    1    3    3    0    0  0.29088710283E+02 -0.24735146009E+02 -0.26643240914E+02  0.46560218691E+02  0.10566000000E+00 0.  1.
         13    1    4    4    0    0 -0.10935335420E+02  0.95671683230E+01 -0.24362006939E+02  0.28366015169E+02  0.10566000000E+00 0. -1.
        -13    1    4    4    0    0 -0.16966662303E+01  0.13946742050E+01 -0.43436293820E+01  0.48684774498E+01  0.10566000000E+00 0.  1.
        -14    1    4    4    0    0 -0.16456708633E+02  0.13773303481E+02 -0.33640558719E+02  0.39902560554E+02  0.00000000000E+00 0.  1.
<mgrwt>
<rscale>  0 0.80051965E+02</rscale>
<asrwt>0</asrwt>
<pdfrwt beam="1">  1        2 0.16052823E-01 0.80051965E+02</pdfrwt>
<pdfrwt beam="2">  1       -1 0.23621413E-02 0.80051965E+02</pdfrwt>
<totfact> 0.17908607E+05</totfact>
</mgrwt>
</event>
<event>
 8    1  0.1493610E-013  0.8095646E+02  0.7818608E-02  0.1326359E+00
          2   -1    0    0  501    0  0.00000000000E+00  0.00000000000E+00  0.58658423358E+03  0.58658423358E+03  0.25500000000E-02 0. -1.
         -1   -1    0    0    0  501 -0.00000000000E+00 -0.00000000000E+00 -0.27932656004E+01  0.27932701473E+01  0.50400000000E-02 0.  1.
         24    2    1    2    0    0  0.00000000000E+00 -0.35527136788E-14  0.58379096798E+03  0.58937750373E+03  0.80956455035E+02 0.  0.
         66    2    3    3    0    0  0.17566562601E+02 -0.18838463127E+02  0.51916456843E+03  0.51980700354E+03  0.19999997381E+01 0.  0.
        -13    1    3    3    0    0 -0.17566562601E+02  0.18838463127E+02  0.64626399544E+02  0.69570500190E+02  0.10566000000E+00 0.  1.
         13    1    4    4    0    0  0.47065754769E+01 -0.46663814537E+01  0.13926190368E+03  0.13941956803E+03  0.10566000000E+00 0.  1.
        -13    1    4    4    0    0  0.41782358112E+01 -0.55061603395E+01  0.12898440066E+03  0.12916950970E+03  0.10566000000E+00 0. -1.
         14    1    4    4    0    0  0.86817513130E+01 -0.86659213334E+01  0.25091826408E+03  0.25121792581E+03  0.00000000000E+00 0. -1.
<mgrwt>
<rscale>  0 0.80956455E+02</rscale>
<asrwt>0</asrwt>
<pdfrwt beam="1">  1        2 0.90243860E-01 0.80956455E+02</pdfrwt>
<pdfrwt beam="2">  1       -1 0.42973289E-03 0.80956455E+02</pdfrwt>
<totfact> 0.30985553E+05</totfact>
</mgrwt>
</event>
<event>
 8    1  0.1493610E-013  0.7682221E+02  0.7818608E-02  0.1338319E+00
          2   -1    0    0  501    0  0.00000000000E+00  0.00000000000E+00  0.59211394228E+03  0.59211394229E+03  0.25500000000E-02 0. -1.
         -1   -1    0    0    0  501 -0.00000000000E+00 -0.00000000000E+00 -0.24917697480E+01  0.24917748451E+01  0.50400000000E-02 0.  1.
         24    2    1    2    0    0 -0.71054273576E-14  0.35527136788E-14  0.58962217253E+03  0.59460571713E+03  0.76822213605E+02 0.  0.
         66    2    3    3    0    0 -0.29716423837E+02  0.16512206377E+02  0.43296731021E+03  0.43430451359E+03  0.20000011026E+01 0.  0.
        -13    1    3    3    0    0  0.29716423837E+02 -0.16512206377E+02  0.15665486232E+03  0.16030120354E+03  0.10566000000E+00 0.  1.
         13    1    4    4    0    0 -0.49068382666E+01  0.26781138387E+01  0.71850596208E+02  0.72067806232E+02  0.10566000000E+00 0. -1.
        -13    1    4    4    0    0 -0.43964199920E+01  0.22004060107E+01  0.54772127137E+02  0.54992430120E+02  0.10566000000E+00 0.  1.
        -14    1    4    4    0    0 -0.20413165579E+02  0.11633686528E+02  0.30634458687E+03  0.30724427724E+03  0.00000000000E+00 0.  1.
<mgrwt>
<rscale>  0 0.76822214E+02</rscale>
<asrwt>0</asrwt>
<pdfrwt beam="1">  1        2 0.91094405E-01 0.76822214E+02</pdfrwt>
<pdfrwt beam="2">  1       -1 0.38334979E-03 0.76822214E+02</pdfrwt>
<totfact> 0.35601849E+05</totfact>
</mgrwt>
</event>
<event>
 8    1  0.1493610E-013  0.7897893E+02  0.7818608E-02  0.1331974E+00
         -1   -1    0    0    0  501 -0.00000000000E+00  0.00000000000E+00  0.90250259244E+01  0.90250273316E+01  0.50400000000E-02 0.  1.
          2   -1    0    0  501    0  0.00000000000E+00 -0.00000000000E+00 -0.17278818371E+03  0.17278818373E+03  0.25500000000E-02 0. -1.
         24    2    1    2    0    0  0.00000000000E+00  0.35527136788E-14 -0.16376315778E+03  0.18181321106E+03  0.78978933065E+02 0.  0.
         66    2    3    3    0    0  0.20408079699E+02  0.29225208377E+02 -0.42947668575E+02  0.55848945815E+02  0.19999977261E+01 0.  0.
        -13    1    3    3    0    0 -0.20408079699E+02 -0.29225208377E+02 -0.12081548921E+03  0.12596426524E+03  0.10566000000E+00 0.  1.
         13    1    4    4    0    0  0.97362555839E+01  0.13763969203E+02 -0.20506181860E+02  0.26547244292E+02  0.10566000000E+00 0. -1.
        -13    1    4    4    0    0  0.69232832294E+01  0.89884011966E+01 -0.14085813246E+02  0.18087136467E+02  0.10566000000E+00 0.  1.
        -14    1    4    4    0    0  0.37485408861E+01  0.64728379769E+01 -0.83556734700E+01  0.11214565056E+02  0.00000000000E+00 0.  1.
<mgrwt>
<rscale>  0 0.78978933E+02</rscale>
<asrwt>0</asrwt>
<pdfrwt beam="1">  1        2 0.26582795E-01 0.78978933E+02</pdfrwt>
<pdfrwt beam="2">  1       -1 0.13884658E-02 0.78978933E+02</pdfrwt>
<totfact> 0.21708070E+05</totfact>
</mgrwt>
</event>
<event>
 8    1  0.1493610E-013  0.8055783E+02  0.7818608E-02  0.1327476E+00
         -1   -1    0    0    0  501 -0.00000000000E+00  0.00000000000E+00  0.88970674969E+01  0.88970689244E+01  0.50400000000E-02 0.  1.
          2   -1    0    0  501    0  0.00000000000E+00 -0.00000000000E+00 -0.18235118612E+03  0.18235118614E+03  0.25500000000E-02 0. -1.
         24    2    1    2    0    0  0.35527136788E-14  0.00000000000E+00 -0.17345411862E+03  0.19124825506E+03  0.80557828900E+02 0.  0.
         66    2    3    3    0    0  0.16012819871E+02  0.62843609849E+01 -0.17318018332E+03  0.17404390103E+03  0.19999994282E+01 0.  0.
        -13    1    3    3    0    0 -0.16012819871E+02 -0.62843609849E+01 -0.27393530675E+00  0.17204354036E+02  0.10566000000E+00 0.  1.
         13    1    4    4    0    0  0.68814530035E+01  0.28573751964E+01 -0.73595129217E+02  0.73971435007E+02  0.10566000000E+00 0. -1.
        -13    1    4    4    0    0  0.81009994303E+01  0.28926773070E+01 -0.82267267003E+02  0.82715827735E+02  0.10566000000E+00 0.  1.
        -14    1    4    4    0    0  0.10303674373E+01  0.53430848154E+00 -0.17317787095E+02  0.17356638283E+02  0.00000000000E+00 0.  1.
<mgrwt>
<rscale>  0 0.80557829E+02</rscale>
<asrwt>0</asrwt>
<pdfrwt beam="1">  1        2 0.28054026E-01 0.80557829E+02</pdfrwt>
<pdfrwt beam="2">  1       -1 0.13687799E-02 0.80557829E+02</pdfrwt>
<totfact> 0.20979518E+05</totfact>
</mgrwt>
</event>
<event>
 8    1  0.1493610E-013  0.7740123E+02  0.7818608E-02  0.1336592E+00
          2   -1    0    0  501    0  0.00000000000E+00  0.00000000000E+00  0.97632110349E+03  0.97632110349E+03  0.25500000000E-02 0. -1.
         -1   -1    0    0    0  501 -0.00000000000E+00 -0.00000000000E+00 -0.15340582264E+01  0.15340665056E+01  0.50400000000E-02 0.  1.
         24    2    1    2    0    0  0.00000000000E+00 -0.71054273576E-14  0.97478704526E+03  0.97785516999E+03  0.77401226603E+02 0.  0.
         66    2    3    3    0    0 -0.90752256995E+01  0.27462370702E+02  0.81208180221E+03  0.81259916010E+03  0.19999977029E+01 0.  0.
        -13    1    3    3    0    0  0.90752256995E+01 -0.27462370702E+02  0.16270524305E+03  0.16525600990E+03  0.10566000000E+00 0.  1.
         13    1    4    4    0    0 -0.40232844318E+01  0.11789695736E+02  0.33473811617E+03  0.33496985137E+03  0.10566000000E+00 0. -1.
        -13    1    4    4    0    0 -0.18568440352E+01  0.41346967309E+01  0.12397998353E+03  0.12406285128E+03  0.10566000000E+00 0.  1.
        -14    1    4    4    0    0 -0.31950972325E+01  0.11537978235E+02  0.35336370250E+03  0.35356645745E+03  0.00000000000E+00 0.  1.
<mgrwt>
<rscale>  0 0.77401227E+02</rscale>
<asrwt>0</asrwt>
<pdfrwt beam="1">  1        2 0.15020329E+00 0.77401227E+02</pdfrwt>
<pdfrwt beam="2">  1       -1 0.23600952E-03 0.77401227E+02</pdfrwt>
<totfact> 0.38333369E+05</totfact>
</mgrwt>
</event>
<event>
 8    1  0.1493610E-013  0.7998458E+02  0.7818608E-02  0.1329095E+00
         -1   -1    0    0    0  501 -0.00000000000E+00  0.00000000000E+00  0.27591755947E+02  0.27591756407E+02  0.50400000000E-02 0.  1.
          2   -1    0    0  501    0  0.00000000000E+00 -0.00000000000E+00 -0.57965977689E+02  0.57965977745E+02  0.25500000000E-02 0. -1.
         24    2    1    2    0    0 -0.17763568394E-14  0.00000000000E+00 -0.30374221742E+02  0.85557734153E+02  0.79984576807E+02 0.  0.
         66    2    3    3    0    0 -0.10919460784E+02 -0.96858577994E+01 -0.54995609206E+02  0.56934765233E+02  0.19999987492E+01 0.  0.
        -13    1    3    3    0    0  0.10919460784E+02  0.96858577994E+01  0.24621387464E+02  0.28622968920E+02  0.10566000000E+00 0.  1.
         13    1    4    4    0    0 -0.23158044246E+01 -0.29573614322E+01 -0.14948522524E+02  0.15413579288E+02  0.10566000000E+00 0.  1.
        -13    1    4    4    0    0 -0.37882926299E+01 -0.32184324969E+01 -0.19866440486E+02  0.20479162346E+02  0.10566000000E+00 0. -1.
        -14    1    4    4    0    0 -0.48153637300E+01 -0.35100638703E+01 -0.20180646196E+02  0.21042023598E+02  0.00000000000E+00 0.  1.
<mgrwt>
<rscale>  0 0.79984577E+02</rscale>
<asrwt>0</asrwt>
<pdfrwt beam="1">  1        2 0.89178427E-02 0.79984577E+02</pdfrwt>
<pdfrwt beam="2">  1       -1 0.42448856E-02 0.79984577E+02</pdfrwt>
<totfact> 0.15451535E+05</totfact>
</mgrwt>
</event>
<event>
 8    1  0.1493610E-013  0.7979684E+02  0.7818608E-02  0.1329629E+00
         -1   -1    0    0    0  501 -0.00000000000E+00  0.00000000000E+00  0.64569324580E+02  0.64569324777E+02  0.50400000000E-02 0.  1.
          2   -1    0    0  501    0  0.00000000000E+00 -0.00000000000E+00 -0.24653870448E+02  0.24653870580E+02  0.25500000000E-02 0. -1.
         24    2    1    2    0    0  0.35527136788E-14 -0.17763568394E-14  0.39915454132E+02  0.89223195356E+02  0.79796836472E+02 0.  0.
         66    2    3    3    0    0 -0.21982585529E+02  0.10676790098E+02 -0.15257963878E+02  0.28879636194E+02  0.20000029231E+01 0.  0.
        -13    1    3    3    0    0  0.21982585529E+02 -0.10676790098E+02  0.55173418010E+02  0.60343559162E+02  0.10566000000E+00 0.  1.
         13    1    4    4    0    0 -0.75408095207E+01  0.33898617630E+01 -0.47795320849E+01  0.95503959073E+01  0.10566000000E+00 0. -1.
        -13    1    4    4    0    0 -0.95291112800E+01  0.52880290315E+01 -0.64007371649E+01  0.12639138148E+02  0.10566000000E+00 0.  1.
        -14    1    4    4    0    0 -0.49126647282E+01  0.19988993032E+01 -0.40776946282E+01  0.66901021395E+01  0.00000000000E+00 0.  1.
<mgrwt>
<rscale>  0 0.79796836E+02</rscale>
<asrwt>0</asrwt>
<pdfrwt beam="1">  1        2 0.37929032E-02 0.79796836E+02</pdfrwt>
<pdfrwt beam="2">  1       -1 0.99337422E-02 0.79796836E+02</pdfrwt>
<totfact> 0.13038303E+05</totfact>
</mgrwt>
</event>
<event>
 8    1  0.1493610E-013  0.8102175E+02  0.7818608E-02  0.1326177E+00
          2   -1    0    0  501    0  0.00000000000E+00  0.00000000000E+00  0.32406197396E+03  0.32406197397E+03  0.25500000000E-02 0. -1.
         -1   -1    0    0    0  501 -0.00000000000E+00 -0.00000000000E+00 -0.50642490409E+01  0.50642515488E+01  0.50400000000E-02 0.  1.
         24    2    1    2    0    0 -0.35527136788E-14  0.00000000000E+00  0.31899772491E+03  0.32912622551E+03  0.81021749059E+02 0.  0.
         66    2    3    3    0    0 -0.28584720239E+02 -0.24841595350E+02  0.21774833735E+03  0.22102608334E+03  0.20000024466E+01 0.  0.
        -13    1    3    3    0    0  0.28584720239E+02  0.24841595350E+02  0.10124938757E+03  0.10810014217E+03  0.10566000000E+00 0.  1.
         13    1    4    4    0    0 -0.99529006644E+01 -0.92641779435E+01  0.76741328245E+02  0.77936691292E+02  0.10566000000E+00 0. -1.
        -13    1    4    4    0    0 -0.16020461286E+02 -0.13965835629E+02  0.12286057539E+03  0.12468533151E+03  0.10566000000E+00 0.  1.
        -14    1    4    4    0    0 -0.26113582883E+01 -0.16115817777E+01  0.18146433717E+02  0.18404060546E+02  0.00000000000E+00 0.  1.
<mgrwt>
<rscale>  0 0.81021749E+02</rscale>
<asrwt>0</asrwt>
<pdfrwt beam="1">  1        2 0.49855686E-01 0.81021749E+02</pdfrwt>
<pdfrwt beam="2">  1       -1 0.77911547E-03 0.81021749E+02</pdfrwt>
<totfact> 0.25357622E+05</totfact>
</mgrwt>
</event>
<event>
 8    1  0.1493610E-013  0.7618789E+02  0.7818608E-02  0.1340231E+00
          2   -1    0    0  501    0  0.00000000000E+00  0.00000000000E+00  0.12327580118E+03  0.12327580121E+03  0.25500000000E-02 0. -1.
         -1   -1    0    0    0  501 -0.00000000000E+00 -0.00000000000E+00 -0.11771560930E+02  0.11771562009E+02  0.50400000000E-02 0.  1.
         24    2    1    2    0    0 -0.17763568394E-14 -0.35527136788E-14  0.11150424025E+03  0.13504736322E+03  0.76187890888E+02 0.  0.
         66    2    3    3    0    0  0.12619692377E+02  0.19476454464E+02  0.10927804537E+03  0.11173307529E+03  0.19999997538E+01 0.  0.
        -13    1    3    3    0    0 -0.12619692377E+02 -0.19476454464E+02  0.22261948849E+01  0.23314287934E+02  0.10566000000E+00 0.  1.
         13    1    4    4    0    0  0.76179723928E+01  0.11687646404E+02  0.67352315952E+02  0.68782121296E+02  0.10566000000E+00 0. -1.
        -13    1    4    4    0    0  0.30899487080E-01  0.25010517690E+00  0.18794343001E+01  0.18991958040E+01  0.10566000000E+00 0.  1.
         14    1    4    4    0    0  0.49708204971E+01  0.75387028827E+01  0.40046295117E+02  0.41051758186E+02  0.00000000000E+00 0. -1.
<mgrwt>
<rscale>  0 0.76187891E+02</rscale>
<asrwt>0</asrwt>
<pdfrwt beam="1">  1        2 0.18965507E-01 0.76187891E+02</pdfrwt>
<pdfrwt beam="2">  1       -1 0.18110095E-02 0.76187891E+02</pdfrwt>
<totfact> 0.21448551E+05</totfact>
</mgrwt>
</event>
<event>
 8    1  0.1605574E-013  0.7697400E+02  0.7818608E-02  0.1337865E+00
          2   -1    0    0  501    0  0.00000000000E+00  0.00000000000E+00  0.43383755500E+03  0.43383755501E+03  0.25500000000E-02 0. -1.
         -1   -1    0    0    0  501 -0.00000000000E+00 -0.00000000000E+00 -0.34142927532E+01  0.34142964731E+01  0.50400000000E-02 0.  1.
         24    2    1    2    0    0 -0.17763568394E-14  0.00000000000E+00  0.43042326225E+03  0.43725185148E+03  0.76974001715E+02 0.  0.
         66    2    3    3    0    0 -0.14814643935E+02 -0.16636784222E+02  0.39345561151E+03  0.39409082011E+03  0.19999999759E+01 0.  0.
        -13    1    3    3    0    0  0.14814643935E+02  0.16636784222E+02  0.36967650738E+02  0.43161031374E+02  0.10566000000E+00 0.  1.
         13    1    4    4    0    0 -0.28875294009E+01 -0.33801754738E+01  0.88708880640E+02  0.88820268411E+02  0.10566000000E+00 0. -1.
        -13    1    4    4    0    0 -0.59062523116E+00 -0.95080115236E+00  0.15987983363E+02  0.16027465085E+02  0.10566000000E+00 0.  1.
         14    1    4    4    0    0 -0.11336489303E+02 -0.12305807596E+02  0.28875874751E+03  0.28924308661E+03  0.00000000000E+00 0. -1.
<mgrwt>
<rscale>  0 0.76974002E+02</rscale>
<asrwt>0</asrwt>
<pdfrwt beam="1">  1        2 0.66744285E-01 0.76974002E+02</pdfrwt>
<pdfrwt beam="2">  1       -1 0.52527574E-03 0.76974002E+02</pdfrwt>
<totfact> 0.32127102E+05</totfact>
</mgrwt>
</event>
<event>
 8    1  0.1493610E-013  0.7750747E+02  0.7818608E-02  0.1336277E+00
         -1   -1    0    0    0  501 -0.00000000000E+00  0.00000000000E+00  0.21147492551E+01  0.21147552610E+01  0.50400000000E-02 0.  1.
          2   -1    0    0  501    0  0.00000000000E+00 -0.00000000000E+00 -0.71017868153E+03  0.71017868154E+03  0.25500000000E-02 0. -1.
         24    2    1    2    0    0  0.35527136788E-14  0.00000000000E+00 -0.70806393228E+03  0.71229343680E+03  0.77507470050E+02 0.  0.
         66    2    3    3    0    0 -0.13928567344E+02  0.32292270549E+02 -0.50331829274E+03  0.50454940246E+03  0.20000000700E+01 0.  0.
        -13    1    3    3    0    0  0.13928567344E+02 -0.32292270549E+02 -0.20474563954E+03  0.20774403433E+03  0.10566000000E+00 0.  1.
         13    1    4    4    0    0 -0.10873835059E+01  0.16881515424E+01 -0.26918991327E+02  0.26993990379E+02  0.10566000000E+00 0. -1.
        -13    1    4    4    0    0 -0.50248546147E+01  0.13452802803E+02 -0.20680551804E+03  0.20730354681E+03  0.10566000000E+00 0.  1.
        -14    1    4    4    0    0 -0.78163292231E+01  0.17151316204E+02 -0.26959378337E+03  0.27025186527E+03  0.00000000000E+00 0.  1.
<mgrwt>
<rscale>  0 0.77507470E+02</rscale>
<asrwt>0</asrwt>
<pdfrwt beam="1">  1        2 0.10925807E+00 0.77507470E+02</pdfrwt>
<pdfrwt beam="2">  1       -1 0.32534707E-03 0.77507470E+02</pdfrwt>
<totfact> 0.36434274E+05</totfact>
</mgrwt>
</event>
<event>
 8    1  0.1493610E-013  0.7790830E+02  0.7818608E-02  0.1335094E+00
         -1   -1    0    0    0  501 -0.00000000000E+00  0.00000000000E+00  0.78388562767E+01  0.78388578969E+01  0.50400000000E-02 0.  1.
          2   -1    0    0  501    0  0.00000000000E+00 -0.00000000000E+00 -0.19357743726E+03  0.19357743727E+03  0.25500000000E-02 0. -1.
         24    2    1    2    0    0  0.00000000000E+00  0.00000000000E+00 -0.18573858098E+03  0.20141629517E+03  0.77908301841E+02 0.  0.
         66    2    3    3    0    0  0.82744411116E+01  0.37892783254E+02 -0.84320247187E+02  0.92834441291E+02  0.20000014384E+01 0.  0.
        -13    1    3    3    0    0 -0.82744411116E+01 -0.37892783254E+02 -0.10141833379E+03  0.10858185388E+03  0.10566000000E+00 0.  1.
         13    1    4    4    0    0  0.32100701627E+01  0.11091514419E+02 -0.25642090428E+02  0.28122130220E+02  0.10566000000E+00 0.  1.
        -13    1    4    4    0    0  0.93388339997E+00  0.64991477825E+01 -0.14440834938E+02  0.15863793300E+02  0.10566000000E+00 0. -1.
         14    1    4    4    0    0  0.41304875489E+01  0.20302121053E+02 -0.44237321820E+02  0.48848517772E+02  0.00000000000E+00 0. -1.
<mgrwt>
<rscale>  0 0.77908302E+02</rscale>
<asrwt>0</asrwt>
<pdfrwt beam="1">  1        2 0.29781141E-01 0.77908302E+02</pdfrwt>
<pdfrwt beam="2">  1       -1 0.12059782E-02 0.77908302E+02</pdfrwt>
<totfact> 0.23388748E+05</totfact>
</mgrwt>
</event>
<event>
 8    1  0.1493610E-013  0.8057366E+02  0.7818608E-02  0.1327431E+00
         -1   -1    0    0    0  501 -0.00000000000E+00  0.00000000000E+00  0.27641936188E+01  0.27641982136E+01  0.50400000000E-02 0.  1.
          2   -1    0    0  501    0  0.00000000000E+00 -0.00000000000E+00 -0.58716124065E+03  0.58716124065E+03  0.25500000000E-02 0. -1.
         24    2    1    2    0    0  0.00000000000E+00 -0.35527136788E-14 -0.58439704703E+03  0.58992543886E+03  0.80573660995E+02 0.  0.
         66    2    3    3    0    0  0.25345522663E+02  0.29554270087E+02 -0.36746369009E+03  0.36952593134E+03  0.20000004370E+01 0.  0.
        -13    1    3    3    0    0 -0.25345522663E+02 -0.29554270087E+02 -0.21693335694E+03  0.22039950752E+03  0.10566000000E+00 0.  1.
         13    1    4    4    0    0  0.30559206480E+01  0.38261154888E+01 -0.50513796387E+02  0.50750690638E+02  0.10566000000E+00 0.  1.
        -13    1    4    4    0    0  0.10360392847E+02  0.11068787625E+02 -0.14343317354E+03  0.14423225103E+03  0.10566000000E+00 0. -1.
         14    1    4    4    0    0  0.11929209168E+02  0.14659366973E+02 -0.17351672016E+03  0.17454298968E+03  0.00000000000E+00 0. -1.
<mgrwt>
<rscale>  0 0.80573661E+02</rscale>
<asrwt>0</asrwt>
<pdfrwt beam="1">  1        2 0.90332399E-01 0.80573661E+02</pdfrwt>
<pdfrwt beam="2">  1       -1 0.42526138E-03 0.80573661E+02</pdfrwt>
<totfact> 0.31379251E+05</totfact>
</mgrwt>
</event>
<event>
 8    1  0.1493610E-013  0.8424702E+02  0.7818608E-02  0.1317413E+00
          2   -1    0    0  501    0  0.00000000000E+00  0.00000000000E+00  0.29780536773E+02  0.29780536882E+02  0.25500000000E-02 0. -1.
         -1   -1    0    0    0  501 -0.00000000000E+00 -0.00000000000E+00 -0.59582206863E+02  0.59582207076E+02  0.50400000000E-02 0.  1.
         24    2    1    2    0    0 -0.88817841970E-15 -0.71054273576E-14 -0.29801670090E+02  0.89362743958E+02  0.84247020526E+02 0.  0.
         66    2    3    3    0    0 -0.79435973309E+01 -0.35177661581E+02  0.81311099409E+01  0.37022744170E+02  0.20000060327E+01 0.  0.
        -13    1    3    3    0    0  0.79435973309E+01  0.35177661581E+02 -0.37932780031E+02  0.52339999788E+02  0.10566000000E+00 0.  1.
         13    1    4    4    0    0 -0.27779791302E+01 -0.11490102200E+02  0.31527650136E+01  0.12234815400E+02  0.10566000000E+00 0. -1.
        -13    1    4    4    0    0 -0.42527727503E+01 -0.20777033640E+02  0.47179583542E+01  0.21726516012E+02  0.10566000000E+00 0.  1.
        -14    1    4    4    0    0 -0.91284545038E+00 -0.29105257419E+01  0.26038657307E+00  0.30614127585E+01  0.00000000000E+00 0.  1.
<mgrwt>
<rscale>  0 0.84247021E+02</rscale>
<asrwt>0</asrwt>
<pdfrwt beam="1">  1        2 0.45816211E-02 0.84247021E+02</pdfrwt>
<pdfrwt beam="2">  1       -1 0.91664934E-02 0.84247021E+02</pdfrwt>
<totfact> 0.11614147E+05</totfact>
</mgrwt>
</event>
<event>
 8    1  0.1493610E-013  0.8095359E+02  0.7818608E-02  0.1326367E+00
         -1   -1    0    0    0  501 -0.00000000000E+00  0.00000000000E+00  0.88314734385E+02  0.88314734528E+02  0.50400000000E-02 0.  1.
          2   -1    0    0  501    0  0.00000000000E+00 -0.00000000000E+00 -0.18551500796E+02  0.18551500971E+02  0.25500000000E-02 0. -1.
         24    2    1    2    0    0  0.35527136788E-14  0.88817841970E-15  0.69763233588E+02  0.10686623550E+03  0.80953588736E+02 0.  0.
         66    2    3    3    0    0 -0.27572478358E+02 -0.76559189531E+01 -0.28414433612E+01  0.28825829704E+02  0.19999999828E+01 0.  0.
        -13    1    3    3    0    0  0.27572478358E+02  0.76559189531E+01  0.72604676950E+02  0.78040405796E+02  0.10566000000E+00 0.  1.
         13    1    4    4    0    0 -0.19465631427E+02 -0.61075015253E+01 -0.22982950070E+01  0.20530604125E+02  0.10566000000E+00 0. -1.
        -13    1    4    4    0    0 -0.44245448544E+00 -0.14386892769E+00  0.55059853916E-01  0.48027061450E+00  0.10566000000E+00 0. -1.
         14    1    4    4    0    0 -0.76643924448E+01 -0.14045485002E+01 -0.59820820808E+00  0.78149549646E+01  0.00000000000E+00 0. -1.
<mgrwt>
<rscale>  0 0.80953589E+02</rscale>
<asrwt>0</asrwt>
<pdfrwt beam="1">  1        2 0.28540771E-02 0.80953589E+02</pdfrwt>
<pdfrwt beam="2">  1       -1 0.13586882E-01 0.80953589E+02</pdfrwt>
<totfact> 0.11814939E+05</totfact>
</mgrwt>
</event>
<event>
 8    1  0.1493610E-013  0.7990708E+02  0.7818608E-02  0.1329315E+00
         -1   -1    0    0    0  501 -0.00000000000E+00  0.00000000000E+00  0.31734416681E+03  0.31734416685E+03  0.50400000000E-02 0.  1.
          2   -1    0    0  501    0  0.00000000000E+00 -0.00000000000E+00 -0.50301383258E+01  0.50301389721E+01  0.25500000000E-02 0. -1.
         24    2    1    2    0    0  0.00000000000E+00  0.00000000000E+00  0.31231402848E+03  0.32237430582E+03  0.79907075195E+02 0.  0.
         66    2    3    3    0    0  0.36649274101E+02  0.13811924991E+02  0.12491566702E+03  0.13092693548E+03  0.20000013290E+01 0.  0.
        -13    1    3    3    0    0 -0.36649274101E+02 -0.13811924991E+02  0.18739836147E+03  0.19144737034E+03  0.10566000000E+00 0.  1.
         13    1    4    4    0    0  0.75492513188E+01  0.28289423727E+01  0.24033658515E+02  0.25349990455E+02  0.10566000000E+00 0. -1.
        -13    1    4    4    0    0  0.97788333319E+01  0.32321597668E+01  0.35012244883E+02  0.36495765424E+02  0.10566000000E+00 0.  1.
        -14    1    4    4    0    0  0.19321189450E+02  0.77508228515E+01  0.65869763618E+02  0.69081179606E+02  0.00000000000E+00 0.  1.
<mgrwt>
<rscale>  0 0.79907075E+02</rscale>
<asrwt>0</asrwt>
<pdfrwt beam="1">  1        2 0.77386769E-03 0.79907075E+02</pdfrwt>
<pdfrwt beam="2">  1       -1 0.48822167E-01 0.79907075E+02</pdfrwt>
<totfact> 0.84694726E+04</totfact>
</mgrwt>
</event>
<event>
 8    1  0.1493610E-013  0.7929085E+02  0.7818608E-02  0.1331076E+00
          2   -1    0    0  501    0  0.00000000000E+00  0.00000000000E+00  0.69719764057E+03  0.69719764058E+03  0.25500000000E-02 0. -1.
         -1   -1    0    0    0  501 -0.00000000000E+00 -0.00000000000E+00 -0.22543935341E+01  0.22543991679E+01  0.50400000000E-02 0.  1.
         24    2    1    2    0    0  0.00000000000E+00  0.00000000000E+00  0.69494324704E+03  0.69945203975E+03  0.79290852557E+02 0.  0.
         66    2    3    3    0    0  0.33906616505E+02  0.25805713999E+01  0.52705780548E+03  0.52815740864E+03  0.20000000473E+01 0.  0.
        -13    1    3    3    0    0 -0.33906616505E+02 -0.25805713999E+01  0.16788544156E+03  0.17129463110E+03  0.10566000000E+00 0.  1.
         13    1    4    4    0    0  0.84407359661E+01  0.89048649790E+00  0.12688871756E+03  0.12717231144E+03  0.10566000000E+00 0.  1.
        -13    1    4    4    0    0  0.23301000106E+02  0.19589303784E+01  0.36784873054E+03  0.36859120139E+03  0.10566000000E+00 0. -1.
         14    1    4    4    0    0  0.21648804335E+01 -0.26884547640E+00  0.32320357374E+02  0.32393895814E+02  0.00000000000E+00 0. -1.
<mgrwt>
<rscale>  0 0.79290853E+02</rscale>
<asrwt>0</asrwt>
<pdfrwt beam="1">  1        2 0.10726118E+00 0.79290853E+02</pdfrwt>
<pdfrwt beam="2">  1       -1 0.34683021E-03 0.79290853E+02</pdfrwt>
<totfact> 0.34203152E+05</totfact>
</mgrwt>
</event>
<event>
 8    1  0.1493610E-013  0.8635741E+02  0.7818608E-02  0.1311920E+00
          2   -1    0    0  501    0  0.00000000000E+00  0.00000000000E+00  0.20260794040E+02  0.20260794200E+02  0.25500000000E-02 0. -1.
         -1   -1    0    0    0  501 -0.00000000000E+00 -0.00000000000E+00 -0.92020117754E+02  0.92020117892E+02  0.50400000000E-02 0.  1.
         24    2    1    2    0    0  0.00000000000E+00  0.00000000000E+00 -0.71759323714E+02  0.11228091209E+03  0.86357412423E+02 0.  0.
         66    2    3    3    0    0  0.19647949711E+02 -0.40246338458E+01  0.13783933139E+02  0.24417953102E+02  0.20000038688E+01 0.  0.
        -13    1    3    3    0    0 -0.19647949711E+02  0.40246338458E+01 -0.85543256853E+02  0.87862958990E+02  0.10566000000E+00 0.  1.
         13    1    4    4    0    0  0.85775446963E+01 -0.14189701785E+01  0.54632878525E+01  0.10268711096E+02  0.10566000000E+00 0. -1.
        -13    1    4    4    0    0  0.93440356664E+01 -0.18091939591E+01  0.72702153273E+01  0.11977119030E+02  0.10566000000E+00 0.  1.
         14    1    4    4    0    0  0.17263693485E+01 -0.79646970817E+00  0.10504299590E+01  0.21721229759E+01  0.00000000000E+00 0. -1.
<mgrwt>
<rscale>  0 0.86357412E+02</rscale>
<asrwt>0</asrwt>
<pdfrwt beam="1">  1        2 0.31170453E-02 0.86357412E+02</pdfrwt>
<pdfrwt beam="2">  1       -1 0.14156941E-01 0.86357412E+02</pdfrwt>
<totfact> 0.99778942E+04</totfact>
</mgrwt>
</event>
<event>
 8    1  0.1493610E-013  0.7932469E+02  0.7818608E-02  0.1330979E+00
          2   -1    0    0  501    0  0.00000000000E+00  0.00000000000E+00  0.11476375586E+03  0.11476375588E+03  0.25500000000E-02 0. -1.
         -1   -1    0    0    0  501 -0.00000000000E+00 -0.00000000000E+00 -0.13707301310E+02  0.13707302236E+02  0.50400000000E-02 0.  1.
         24    2    1    2    0    0  0.00000000000E+00  0.88817841970E-15  0.10105645455E+03  0.12847105812E+03  0.79324685749E+02 0.  0.
         66    2    3    3    0    0  0.21836458103E+02  0.44780124269E+01  0.10364162999E+03  0.10603051905E+03  0.20000014385E+01 0.  0.
        -13    1    3    3    0    0 -0.21836458103E+02 -0.44780124269E+01 -0.25851754389E+01  0.22440539073E+02  0.10566000000E+00 0.  1.
         13    1    4    4    0    0  0.19328803369E+02  0.35275996386E+01  0.90652828726E+02  0.92757711911E+02  0.10566000000E+00 0. -1.
        -13    1    4    4    0    0  0.98014788355E+00  0.63019267345E+00  0.54740779129E+01  0.55977250478E+01  0.10566000000E+00 0.  1.
        -14    1    4    4    0    0  0.15275068502E+01  0.32022011482E+00  0.75147233467E+01  0.76750820893E+01  0.00000000000E+00 0.  1.
<mgrwt>
<rscale>  0 0.79324686E+02</rscale>
<asrwt>0</asrwt>
<pdfrwt beam="1">  1        2 0.17655963E-01 0.79324686E+02</pdfrwt>
<pdfrwt beam="2">  1       -1 0.21088157E-02 0.79324686E+02</pdfrwt>
<totfact> 0.18862678E+05</totfact>
</mgrwt>
</event>
<event>
 8    1  0.1493610E-013  0.7969085E+02  0.7818608E-02  0.1329931E+00
          2   -1    0    0  501    0  0.00000000000E+00  0.00000000000E+00  0.92311669637E+02  0.92311669672E+02  0.25500000000E-02 0. -1.
         -1   -1    0    0    0  501 -0.00000000000E+00 -0.00000000000E+00 -0.17198885033E+02  0.17198885772E+02  0.50400000000E-02 0.  1.
         24    2    1    2    0    0  0.00000000000E+00  0.00000000000E+00  0.75112784604E+02  0.10951055544E+03  0.79690848551E+02 0.  0.
         66    2    3    3    0    0  0.15257539835E+02  0.14622213547E+02  0.83958744285E+02  0.86600648907E+02  0.19999995926E+01 0.  0.
        -13    1    3    3    0    0 -0.15257539835E+02 -0.14622213547E+02 -0.88459596815E+01  0.22909906537E+02  0.10566000000E+00 0.  1.
         13    1    4    4    0    0  0.88681063851E+01  0.75199220973E+01  0.48767619161E+02  0.50134662479E+02  0.10566000000E+00 0. -1.
        -13    1    4    4    0    0  0.51503888164E+01  0.56984018664E+01  0.28685691601E+02  0.29696436747E+02  0.10566000000E+00 0.  1.
         14    1    4    4    0    0  0.12390446331E+01  0.14038895832E+01  0.65054335232E+01  0.67695496814E+01  0.00000000000E+00 0. -1.
<mgrwt>
<rscale>  0 0.79690849E+02</rscale>
<asrwt>0</asrwt>
<pdfrwt beam="1">  1        2 0.14201795E-01 0.79690849E+02</pdfrwt>
<pdfrwt beam="2">  1       -1 0.26459824E-02 0.79690849E+02</pdfrwt>
<totfact> 0.17520268E+05</totfact>
</mgrwt>
</event>
<event>
 8    1  0.1493610E-013  0.7936906E+02  0.7818608E-02  0.1330852E+00
          2   -1    0    0  501    0  0.00000000000E+00  0.00000000000E+00  0.30482036721E+03  0.30482036722E+03  0.25500000000E-02 0. -1.
         -1   -1    0    0    0  501 -0.00000000000E+00 -0.00000000000E+00 -0.51665226953E+01  0.51665251536E+01  0.50400000000E-02 0.  1.
         24    2    1    2    0    0  0.00000000000E+00  0.00000000000E+00  0.29965384451E+03  0.30998689237E+03  0.79369055125E+02 0.  0.
         66    2    3    3    0    0 -0.94298651174E+00 -0.27790136465E+02  0.26036757051E+03  0.26185578604E+03  0.19999993604E+01 0.  0.
        -13    1    3    3    0    0  0.94298651174E+00  0.27790136465E+02  0.39286274000E+02  0.48131106337E+02  0.10566000000E+00 0.  1.
         13    1    4    4    0    0 -0.11252194045E+01 -0.25098383215E+02  0.23845354132E+03  0.23977342949E+03  0.10566000000E+00 0. -1.
        -13    1    4    4    0    0  0.12576731154E+00 -0.22472634714E+01  0.19172575631E+02  0.19304528766E+02  0.10566000000E+00 0.  1.
         14    1    4    4    0    0  0.56465581185E-01 -0.44448977950E+00  0.27414535608E+01  0.27778277758E+01  0.00000000000E+00 0. -1.
<mgrwt>
<rscale>  0 0.79369055E+02</rscale>
<asrwt>0</asrwt>
<pdfrwt beam="1">  1        2 0.46895437E-01 0.79369055E+02</pdfrwt>
<pdfrwt beam="2">  1       -1 0.79484992E-03 0.79369055E+02</pdfrwt>
<totfact> 0.26179549E+05</totfact>
</mgrwt>
</event>
<event>
 8    1  0.1493610E-013  0.7862984E+02  0.7818608E-02  0.1332985E+00
          2   -1    0    0  501    0  0.00000000000E+00  0.00000000000E+00  0.11097057860E+03  0.11097057863E+03  0.25500000000E-02 0. -1.
         -1   -1    0    0    0  501 -0.00000000000E+00 -0.00000000000E+00 -0.13928582412E+02  0.13928583324E+02  0.50400000000E-02 0.  1.
         24    2    1    2    0    0  0.35527136788E-14 -0.35527136788E-14  0.97041996187E+02  0.12489916195E+03  0.78629839326E+02 0.  0.
         66    2    3    3    0    0 -0.27913690599E+02  0.27372855610E+02  0.54747364198E+02  0.67303203707E+02  0.19999988487E+01 0.  0.
        -13    1    3    3    0    0  0.27913690599E+02 -0.27372855610E+02  0.42294631989E+02  0.57595958246E+02  0.10566000000E+00 0.  1.
         13    1    4    4    0    0 -0.12451083396E+02  0.11746210910E+02  0.22930372272E+02  0.28614962608E+02  0.10566000000E+00 0. -1.
        -13    1    4    4    0    0 -0.94661112655E+01  0.90270878921E+01  0.19561313073E+02  0.23531929617E+02  0.10566000000E+00 0.  1.
        -14    1    4    4    0    0 -0.59964959376E+01  0.65995568084E+01  0.12255678853E+02  0.15156311482E+02  0.00000000000E+00 0.  1.
<mgrwt>
<rscale>  0 0.78629839E+02</rscale>
<asrwt>0</asrwt>
<pdfrwt beam="1">  1        2 0.17072397E-01 0.78629839E+02</pdfrwt>
<pdfrwt beam="2">  1       -1 0.21428589E-02 0.78629839E+02</pdfrwt>
<totfact> 0.19122028E+05</totfact>
</mgrwt>
</event>
<event>
 8    1  0.1493610E-013  0.8065655E+02  0.7818608E-02  0.1327199E+00
          2   -1    0    0  501    0  0.00000000000E+00  0.00000000000E+00  0.58617125362E+01  0.58617130909E+01  0.25500000000E-02 0. -1.
         -1   -1    0    0    0  501 -0.00000000000E+00 -0.00000000000E+00 -0.27745638324E+03  0.27745638329E+03  0.50400000000E-02 0.  1.
         24    2    1    2    0    0 -0.35527136788E-14  0.00000000000E+00 -0.27159467070E+03  0.28331809638E+03  0.80656547036E+02 0.  0.
         66    2    3    3    0    0  0.30512199445E+02 -0.26306684833E+02 -0.13183157976E+03  0.13786443113E+03  0.19999911555E+01 0.  0.
        -13    1    3    3    0    0 -0.30512199445E+02  0.26306684833E+02 -0.13976309094E+03  0.14545366525E+03  0.10566000000E+00 0.  1.
         13    1    4    4    0    0  0.57210016096E+01 -0.47062173284E+01 -0.22799266246E+02  0.23972818907E+02  0.10566000000E+00 0.  1.
        -13    1    4    4    0    0  0.14541385460E+02 -0.11952234889E+02 -0.60792700495E+02  0.63640171334E+02  0.10566000000E+00 0. -1.
         14    1    4    4    0    0  0.10249812375E+02 -0.96482326161E+01 -0.48239613022E+02  0.50251440884E+02  0.00000000000E+00 0. -1.
<mgrwt>
<rscale>  0 0.80656547E+02</rscale>
<asrwt>0</asrwt>
<pdfrwt beam="1">  1        2 0.90180218E-03 0.80656547E+02</pdfrwt>
<pdfrwt beam="2">  1       -1 0.42685588E-01 0.80656547E+02</pdfrwt>
<totfact> 0.87284383E+04</totfact>
</mgrwt>
</event>
<event>
 8    1  0.1493610E-013  0.7824953E+02  0.7818608E-02  0.1334094E+00
         -1   -1    0    0    0  501 -0.00000000000E+00  0.00000000000E+00  0.97421430525E+02  0.97421430655E+02  0.50400000000E-02 0.  1.
          2   -1    0    0  501    0  0.00000000000E+00 -0.00000000000E+00 -0.15712631333E+02  0.15712631540E+02  0.25500000000E-02 0. -1.
         24    2    1    2    0    0 -0.17763568394E-14 -0.71054273576E-14  0.81708799192E+02  0.11313406219E+03  0.78249525003E+02 0.  0.
         66    2    3    3    0    0  0.55598460622E+01  0.33293119892E+02  0.12350555897E+02  0.35998332488E+02  0.19999976513E+01 0.  0.
        -13    1    3    3    0    0 -0.55598460622E+01 -0.33293119892E+02  0.69358243295E+02  0.77135729707E+02  0.10566000000E+00 0.  1.
         13    1    4    4    0    0  0.26470547603E+01  0.19352556946E+02  0.76956485222E+01  0.20994345179E+02  0.10566000000E+00 0.  1.
        -13    1    4    4    0    0  0.14515953545E+01  0.70397772469E+01  0.27582585796E+01  0.76996589007E+01  0.10566000000E+00 0. -1.
        -14    1    4    4    0    0  0.14611959474E+01  0.69007856981E+01  0.18966487952E+01  0.73043284086E+01  0.00000000000E+00 0.  1.
<mgrwt>
<rscale>  0 0.78249525E+02</rscale>
<asrwt>0</asrwt>
<pdfrwt beam="1">  1        2 0.24173279E-02 0.78249525E+02</pdfrwt>
<pdfrwt beam="2">  1       -1 0.14987913E-01 0.78249525E+02</pdfrwt>
<totfact> 0.12594309E+05</totfact>
</mgrwt>
</event>
<event>
 8    1  0.1493610E-013  0.7400422E+02  0.7818608E-02  0.1346983E+00
         -1   -1    0    0    0  501 -0.00000000000E+00  0.00000000000E+00  0.29728783888E+03  0.29728783892E+03  0.50400000000E-02 0.  1.
          2   -1    0    0  501    0  0.00000000000E+00 -0.00000000000E+00 -0.46054893405E+01  0.46054900464E+01  0.25500000000E-02 0. -1.
         24    2    1    2    0    0 -0.71054273576E-14  0.00000000000E+00  0.29268234954E+03  0.30189332897E+03  0.74004218421E+02 0.  0.
         66    2    3    3    0    0  0.19869615151E+02  0.31042735162E+02  0.15847905207E+03  0.16272081290E+03  0.19999985147E+01 0.  0.
        -13    1    3    3    0    0 -0.19869615151E+02 -0.31042735162E+02  0.13420329747E+03  0.13917251606E+03  0.10566000000E+00 0.  1.
         13    1    4    4    0    0  0.81498415534E+01  0.11936463548E+02  0.60951663895E+02  0.62641963371E+02  0.10566000000E+00 0. -1.
        -13    1    4    4    0    0  0.64813907110E+01  0.10050185562E+02  0.54705198094E+02  0.55997183125E+02  0.10566000000E+00 0.  1.
         14    1    4    4    0    0  0.52383828869E+01  0.90560860514E+01  0.42822190079E+02  0.44081666405E+02  0.00000000000E+00 0. -1.
<mgrwt>
<rscale>  0 0.74004218E+02</rscale>
<asrwt>0</asrwt>
<pdfrwt beam="1">  1        2 0.70853655E-03 0.74004218E+02</pdfrwt>
<pdfrwt beam="2">  1       -1 0.45736612E-01 0.74004218E+02</pdfrwt>
<totfact> 0.10587298E+05</totfact>
</mgrwt>
</event>
<event>
 8    1  0.1493610E-013  0.7974837E+02  0.7818608E-02  0.1329767E+00
          2   -1    0    0  501    0  0.00000000000E+00  0.00000000000E+00  0.52235475833E+02  0.52235475895E+02  0.25500000000E-02 0. -1.
         -1   -1    0    0    0  501 -0.00000000000E+00 -0.00000000000E+00 -0.30438139517E+02  0.30438139934E+02  0.50400000000E-02 0.  1.
         24    2    1    2    0    0  0.00000000000E+00  0.71054273576E-14  0.21797336316E+02  0.82673615829E+02  0.79748372295E+02 0.  0.
         66    2    3    3    0    0 -0.94479480517E+01 -0.33421011265E+02  0.31159767162E+02  0.46702877836E+02  0.19999980669E+01 0.  0.
        -13    1    3    3    0    0  0.94479480517E+01  0.33421011265E+02 -0.93624308462E+01  0.35970737992E+02  0.10566000000E+00 0.  1.
         13    1    4    4    0    0 -0.16958301876E+01 -0.49719253063E+01  0.54336733084E+01  0.75585614328E+01  0.10566000000E+00 0. -1.
        -13    1    4    4    0    0 -0.29037322007E+01 -0.12106473375E+02  0.11262082647E+02  0.16788210979E+02  0.10566000000E+00 0.  1.
         14    1    4    4    0    0 -0.48483856634E+01 -0.16342612583E+02  0.14464011206E+02  0.22356105425E+02  0.00000000000E+00 0. -1.
<mgrwt>
<rscale>  0 0.79748372E+02</rscale>
<asrwt>0</asrwt>
<pdfrwt beam="1">  1        2 0.80362271E-02 0.79748372E+02</pdfrwt>
<pdfrwt beam="2">  1       -1 0.46827907E-02 0.79748372E+02</pdfrwt>
<totfact> 0.15217418E+05</totfact>
</mgrwt>
</event>
<event>
 8    1  0.1493610E-013  0.7782046E+02  0.7818608E-02  0.1335353E+00
         -1   -1    0    0    0  501 -0.00000000000E+00  0.00000000000E+00  0.73420084486E+02  0.73420084659E+02  0.50400000000E-02 0.  1.
          2   -1    0    0  501    0  0.00000000000E+00 -0.00000000000E+00 -0.20621142179E+02  0.20621142336E+02  0.25500000000E-02 0. -1.
         24    2    1    2    0    0  0.00000000000E+00  0.88817841970E-15  0.52798942307E+02  0.94041226995E+02  0.77820460459E+02 0.  0.
         66    2    3    3    0    0 -0.95393324610E+01 -0.79398473774E+01 -0.18114725196E+02  0.22049564680E+02  0.19999983661E+01 0.  0.
        -13    1    3    3    0    0  0.95393324610E+01  0.79398473774E+01  0.70913667503E+02  0.71991662316E+02  0.10566000000E+00 0.  1.
         13    1    4    4    0    0 -0.79333195829E+01 -0.73930961583E+01 -0.16080501378E+02  0.19395595351E+02  0.10566000000E+00 0. -1.
        -13    1    4    4    0    0 -0.65768931000E+00 -0.22500539308E+00 -0.83098763909E+00  0.10885252167E+01  0.10566000000E+00 0.  1.
         14    1    4    4    0    0 -0.94832356811E+00 -0.32174582598E+00 -0.12032361786E+01  0.15654441120E+01  0.00000000000E+00 0. -1.
<mgrwt>
<rscale>  0 0.77820460E+02</rscale>
<asrwt>0</asrwt>
<pdfrwt beam="1">  1        2 0.31724834E-02 0.77820460E+02</pdfrwt>
<pdfrwt beam="2">  1       -1 0.11295398E-01 0.77820460E+02</pdfrwt>
<totfact> 0.13518908E+05</totfact>
</mgrwt>
</event>
<event>
 8    1  0.1493610E-013  0.7189790E+02  0.7818608E-02  0.1353756E+00
         -1   -1    0    0    0  501 -0.00000000000E+00  0.00000000000E+00  0.86090253639E+01  0.86090268391E+01  0.50400000000E-02 0.  1.
          2   -1    0    0  501    0  0.00000000000E+00 -0.00000000000E+00 -0.15011302614E+03  0.15011302616E+03  0.25500000000E-02 0. -1.
         24    2    1    2    0    0  0.17763568394E-14 -0.11102230246E-15 -0.14150400078E+03  0.15872205300E+03  0.71897898948E+02 0.  0.
         66    2    3    3    0    0  0.15702752313E+02 -0.52423088873E+00 -0.14211837020E+03  0.14299819018E+03  0.19999997921E+01 0.  0.
        -13    1    3    3    0    0 -0.15702752313E+02  0.52423088873E+00  0.61436941925E+00  0.15723862822E+02  0.10566000000E+00 0.  1.
         13    1    4    4    0    0  0.55185574398E+01 -0.75396417101E+00 -0.51308448593E+02  0.51609989336E+02  0.10566000000E+00 0. -1.
        -13    1    4    4    0    0  0.23076065837E+01  0.20316296106E+00 -0.16539186866E+02  0.16700963731E+02  0.10566000000E+00 0.  1.
        -14    1    4    4    0    0  0.78765882895E+01  0.26570321221E-01 -0.74270734738E+02  0.74687237113E+02  0.00000000000E+00 0.  1.
<mgrwt>
<rscale>  0 0.71897899E+02</rscale>
<asrwt>0</asrwt>
<pdfrwt beam="1">  1        2 0.23094310E-01 0.71897899E+02</pdfrwt>
<pdfrwt beam="2">  1       -1 0.13244657E-02 0.71897899E+02</pdfrwt>
<totfact> 0.26547562E+05</totfact>
</mgrwt>
</event>
<event>
 8    1  0.1493610E-013  0.7921891E+02  0.7818608E-02  0.1331283E+00
         -1   -1    0    0    0  501 -0.00000000000E+00  0.00000000000E+00  0.41660229775E+02  0.41660230080E+02  0.50400000000E-02 0.  1.
          2   -1    0    0  501    0  0.00000000000E+00 -0.00000000000E+00 -0.37659634749E+02  0.37659634836E+02  0.25500000000E-02 0. -1.
         24    2    1    2    0    0  0.35527136788E-14  0.35527136788E-14  0.40005950261E+01  0.79319864916E+02  0.79218913207E+02 0.  0.
         66    2    3    3    0    0  0.24254766263E+02 -0.25291603937E+02 -0.16432356360E+02  0.38755402851E+02  0.19999995927E+01 0.  0.
        -13    1    3    3    0    0 -0.24254766263E+02  0.25291603937E+02  0.20432951387E+02  0.40564462065E+02  0.10566000000E+00 0.  1.
         13    1    4    4    0    0  0.16097833967E+02 -0.16680771905E+02 -0.11498790626E+02  0.25877050830E+02  0.10566000000E+00 0. -1.
        -13    1    4    4    0    0  0.43753445290E+01 -0.52351892108E+01 -0.26832641150E+01  0.73322517801E+01  0.10566000000E+00 0.  1.
         14    1    4    4    0    0  0.37815877672E+01 -0.33756428220E+01 -0.22503016199E+01  0.55461002410E+01  0.00000000000E+00 0. -1.
<mgrwt>
<rscale>  0 0.79218913E+02</rscale>
<asrwt>0</asrwt>
<pdfrwt beam="1">  1        2 0.57937900E-02 0.79218913E+02</pdfrwt>
<pdfrwt beam="2">  1       -1 0.64092662E-02 0.79218913E+02</pdfrwt>
<totfact> 0.14468612E+05</totfact>
</mgrwt>
</event>
<event>
 8    1  0.1493610E-013  0.7949074E+02  0.7818608E-02  0.1330503E+00
          2   -1    0    0  501    0  0.00000000000E+00  0.00000000000E+00  0.34779251031E+03  0.34779251032E+03  0.25500000000E-02 0. -1.
         -1   -1    0    0    0  501 -0.00000000000E+00 -0.00000000000E+00 -0.45420583205E+01  0.45420611167E+01  0.50400000000E-02 0.  1.
         24    2    1    2    0    0 -0.35527136788E-14  0.00000000000E+00  0.34325045199E+03  0.35233457143E+03  0.79490738064E+02 0.  0.
         66    2    3    3    0    0  0.30510053270E+02  0.58263937135E+01  0.28146376654E+03  0.28317955804E+03  0.20000013667E+01 0.  0.
        -13    1    3    3    0    0 -0.30510053270E+02 -0.58263937135E+01  0.61786685449E+02  0.69155013390E+02  0.10566000000E+00 0.  1.
         13    1    4    4    0    0  0.17913533218E+02  0.37610509166E+01  0.17358961525E+03  0.17455201478E+03  0.10566000000E+00 0. -1.
        -13    1    4    4    0    0  0.15311395885E+01  0.34133189738E+00  0.13029378586E+02  0.13123900574E+02  0.10566000000E+00 0.  1.
         14    1    4    4    0    0  0.11065380463E+02  0.17240108995E+01  0.94844772700E+02  0.95503642689E+02  0.00000000000E+00 0. -1.
<mgrwt>
<rscale>  0 0.79490738E+02</rscale>
<asrwt>0</asrwt>
<pdfrwt beam="1">  1        2 0.53506543E-01 0.79490738E+02</pdfrwt>
<pdfrwt beam="2">  1       -1 0.69877838E-03 0.79490738E+02</pdfrwt>
<totfact> 0.27341704E+05</totfact>
</mgrwt>
</event>
<event>
 8    1  0.1493610E-013  0.8682613E+02  0.7818608E-02  0.1310725E+00
         -1   -1    0    0    0  501 -0.00000000000E+00  0.00000000000E+00  0.49331901491E+01  0.49331927237E+01  0.50400000000E-02 0.  1.
          2   -1    0    0  501    0  0.00000000000E+00 -0.00000000000E+00 -0.38204360053E+03  0.38204360053E+03  0.25500000000E-02 0. -1.
         24    2    1    2    0    0  0.00000000000E+00  0.71054273576E-14 -0.37711041038E+03  0.38697679326E+03  0.86826130317E+02 0.  0.
         66    2    3    3    0    0 -0.32883045416E+02  0.28264593209E+02 -0.19571220386E+03  0.20046807390E+03  0.20000020459E+01 0.  0.
        -13    1    3    3    0    0  0.32883045416E+02 -0.28264593209E+02 -0.18139820652E+03  0.18650871936E+03  0.10566000000E+00 0.  1.
         13    1    4    4    0    0 -0.37482722754E+01  0.35506681521E+01 -0.22631162763E+02  0.23212873183E+02  0.10566000000E+00 0. -1.
        -13    1    4    4    0    0 -0.17540012815E+02  0.14983336882E+02 -0.10820025457E+03  0.11063208706E+03  0.10566000000E+00 0.  1.
        -14    1    4    4    0    0 -0.11594760326E+02  0.97305881749E+01 -0.64880786525E+02  0.66623113657E+02  0.00000000000E+00 0.  1.
<mgrwt>
<rscale>  0 0.86826130E+02</rscale>
<asrwt>0</asrwt>
<pdfrwt beam="1">  1        2 0.58775916E-01 0.86826130E+02</pdfrwt>
<pdfrwt beam="2">  1       -1 0.75895283E-03 0.86826130E+02</pdfrwt>
<totfact> 0.22425535E+05</totfact>
</mgrwt>
</event>
<event>
 8    1  0.1493610E-013  0.7780524E+02  0.7818608E-02  0.1335398E+00
         -1   -1    0    0    0  501 -0.00000000000E+00  0.00000000000E+00  0.48315688471E+02  0.48315688733E+02  0.50400000000E-02 0.  1.
          2   -1    0    0  501    0  0.00000000000E+00 -0.00000000000E+00 -0.31323448104E+02  0.31323448208E+02  0.25500000000E-02 0. -1.
         24    2    1    2    0    0 -0.17763568394E-14  0.00000000000E+00  0.16992240366E+02  0.79639136942E+02  0.77805243398E+02 0.  0.
         66    2    3    3    0    0  0.10635916528E+02  0.18953193900E+02 -0.24492555239E+02  0.32805968035E+02  0.19999992836E+01 0.  0.
        -13    1    3    3    0    0 -0.10635916528E+02 -0.18953193900E+02  0.41484795606E+02  0.46833168907E+02  0.10566000000E+00 0.  1.
         13    1    4    4    0    0  0.55913750326E+01  0.10149389555E+02 -0.14290803400E+02  0.18398690414E+02  0.10566000000E+00 0. -1.
        -13    1    4    4    0    0  0.49684625589E+01  0.84048214362E+01 -0.98592792825E+01  0.13875993499E+02  0.10566000000E+00 0.  1.
        -14    1    4    4    0    0  0.76078936737E-01  0.39898290829E+00 -0.34247255681E+00  0.53128412162E+00  0.00000000000E+00 0.  1.
<mgrwt>
<rscale>  0 0.77805243E+02</rscale>
<asrwt>0</asrwt>
<pdfrwt beam="1">  1        2 0.48189921E-02 0.77805243E+02</pdfrwt>
<pdfrwt beam="2">  1       -1 0.74331828E-02 0.77805243E+02</pdfrwt>
<totfact> 0.14665803E+05</totfact>
</mgrwt>
</event>
<event>
 8    1  0.1493610E-013  0.8018187E+02  0.7818608E-02  0.1328536E+00
          2   -1    0    0  501    0  0.00000000000E+00  0.00000000000E+00  0.29723630009E+03  0.29723630010E+03  0.25500000000E-02 0. -1.
         -1   -1    0    0    0  501 -0.00000000000E+00 -0.00000000000E+00 -0.54074245654E+01  0.54074269142E+01  0.50400000000E-02 0.  1.
         24    2    1    2    0    0 -0.35527136788E-14  0.00000000000E+00  0.29182887552E+03  0.30264372701E+03  0.80181873959E+02 0.  0.
         66    2    3    3    0    0 -0.27371992222E+02 -0.12285514752E+01  0.25634228654E+03  0.25781020765E+03  0.20000003944E+01 0.  0.
        -13    1    3    3    0    0  0.27371992222E+02  0.12285514752E+01  0.35486588976E+02  0.44833519359E+02  0.10566000000E+00 0.  1.
         13    1    4    4    0    0 -0.56083600395E+01  0.92798138288E-01  0.56970883910E+02  0.57246441735E+02  0.10566000000E+00 0. -1.
        -13    1    4    4    0    0 -0.52787837778E+00 -0.14194181461E+00  0.41335085028E+01  0.41708344056E+01  0.10566000000E+00 0.  1.
         14    1    4    4    0    0 -0.21235753805E+02 -0.11794077989E+01  0.19523789413E+03  0.19639293151E+03  0.00000000000E+00 0. -1.
<mgrwt>
<rscale>  0 0.80181874E+02</rscale>
<asrwt>0</asrwt>
<pdfrwt beam="1">  1        2 0.45728663E-01 0.80181874E+02</pdfrwt>
<pdfrwt beam="2">  1       -1 0.83191163E-03 0.80181874E+02</pdfrwt>
<totfact> 0.25258329E+05</totfact>
</mgrwt>
</event>
<event>
 8    1  0.1493610E-013  0.8007558E+02  0.7818608E-02  0.1328837E+00
          2   -1    0    0  501    0  0.00000000000E+00  0.00000000000E+00  0.25568391794E+03  0.25568391796E+03  0.25500000000E-02 0. -1.
         -1   -1    0    0    0  501 -0.00000000000E+00 -0.00000000000E+00 -0.62695543363E+01  0.62695563621E+01  0.50400000000E-02 0.  1.
         24    2    1    2    0    0  0.00000000000E+00  0.00000000000E+00  0.24941436361E+03  0.26195347432E+03  0.80075576388E+02 0.  0.
         66    2    3    3    0    0  0.85067378971E+01  0.21744163364E+02  0.23108259946E+03  0.23226782171E+03  0.19999997469E+01 0.  0.
        -13    1    3    3    0    0 -0.85067378971E+01 -0.21744163364E+02  0.18331764150E+02  0.29685652611E+02  0.10566000000E+00 0.  1.
         13    1    4    4    0    0  0.52736032984E+01  0.12420712588E+02  0.14177578700E+03  0.14241653673E+03  0.10566000000E+00 0.  1.
        -13    1    4    4    0    0  0.12418840027E+01  0.30691772154E+01  0.30319181201E+02  0.30499607168E+02  0.10566000000E+00 0. -1.
        -14    1    4    4    0    0  0.19912505960E+01  0.62542735605E+01  0.58987631260E+02  0.59351677806E+02  0.00000000000E+00 0.  1.
<mgrwt>
<rscale>  0 0.80075576E+02</rscale>
<asrwt>0</asrwt>
<pdfrwt beam="1">  1        2 0.39335984E-01 0.80075576E+02</pdfrwt>
<pdfrwt beam="2">  1       -1 0.96454706E-03 0.80075576E+02</pdfrwt>
<totfact> 0.24001889E+05</totfact>
</mgrwt>
</event>
<event>
 8    1  0.1493610E-013  0.8004705E+02  0.7818608E-02  0.1328918E+00
         -1   -1    0    0    0  501 -0.00000000000E+00  0.00000000000E+00  0.11652724374E+01  0.11652833368E+01  0.50400000000E-02 0.  1.
          2   -1    0    0  501    0  0.00000000000E+00 -0.00000000000E+00 -0.13746784546E+04  0.13746784546E+04  0.25500000000E-02 0. -1.
         24    2    1    2    0    0  0.00000000000E+00  0.00000000000E+00 -0.13735131822E+04  0.13758437380E+04  0.80047046493E+02 0.  0.
         66    2    3    3    0    0 -0.12124177066E+01  0.15675168675E+02 -0.13193397218E+04  0.13194349102E+04  0.19999993858E+01 0.  0.
        -13    1    3    3    0    0  0.12124177066E+01 -0.15675168675E+02 -0.54173460391E+02  0.56408827717E+02  0.10566000000E+00 0.  1.
         13    1    4    4    0    0 -0.30783257044E+00  0.46195648258E+01 -0.46775460172E+03  0.46777752590E+03  0.10566000000E+00 0. -1.
        -13    1    4    4    0    0 -0.29620994353E+00  0.33748712332E+01 -0.25938679734E+03  0.25940894220E+03  0.10566000000E+00 0.  1.
         14    1    4    4    0    0 -0.60837519268E+00  0.76807326165E+01 -0.59219832273E+03  0.59224844214E+03  0.00000000000E+00 0. -1.
<mgrwt>
<rscale>  0 0.80047046E+02</rscale>
<asrwt>0</asrwt>
<pdfrwt beam="1">  1        2 0.21148770E+00 0.80047046E+02</pdfrwt>
<pdfrwt beam="2">  1       -1 0.17927462E-03 0.80047046E+02</pdfrwt>
<totfact> 0.34130290E+05</totfact>
</mgrwt>
</event>
<event>
 8    1  0.1493610E-013  0.7880190E+02  0.7818608E-02  0.1332486E+00
          2   -1    0    0  501    0  0.00000000000E+00  0.00000000000E+00  0.41575247751E+03  0.41575247752E+03  0.25500000000E-02 0. -1.
         -1   -1    0    0    0  501 -0.00000000000E+00 -0.00000000000E+00 -0.37340342817E+01  0.37340376830E+01  0.50400000000E-02 0.  1.
         24    2    1    2    0    0  0.71054273576E-14  0.17763568394E-14  0.41201844323E+03  0.41948651520E+03  0.78801896393E+02 0.  0.
         66    2    3    3    0    0  0.35838965969E+02 -0.13665928350E+02  0.25352814490E+03  0.25642096118E+03  0.19999993679E+01 0.  0.
        -13    1    3    3    0    0 -0.35838965969E+02  0.13665928350E+02  0.15849029833E+03  0.16306555402E+03  0.10566000000E+00 0.  1.
         13    1    4    4    0    0  0.10799452270E+02 -0.34827423644E+01  0.73538892380E+02  0.74409256952E+02  0.10566000000E+00 0. -1.
        -13    1    4    4    0    0  0.16098498100E+02 -0.70786958554E+01  0.11504596502E+03  0.11638236468E+03  0.10566000000E+00 0.  1.
         14    1    4    4    0    0  0.89410155986E+01 -0.31044901297E+01  0.64943287498E+02  0.65629339552E+02  0.00000000000E+00 0. -1.
<mgrwt>
<rscale>  0 0.78801896E+02</rscale>
<asrwt>0</asrwt>
<pdfrwt beam="1">  1        2 0.63961894E-01 0.78801896E+02</pdfrwt>
<pdfrwt beam="2">  1       -1 0.57446731E-03 0.78801896E+02</pdfrwt>
<totfact> 0.29785392E+05</totfact>
</mgrwt>
</event>
<event>
 8    1  0.1493610E-013  0.8096694E+02  0.7818608E-02  0.1326330E+00
          2   -1    0    0  501    0  0.00000000000E+00  0.00000000000E+00  0.27656186167E+02  0.27656186284E+02  0.25500000000E-02 0. -1.
         -1   -1    0    0    0  501 -0.00000000000E+00 -0.00000000000E+00 -0.59260207934E+02  0.59260208148E+02  0.50400000000E-02 0.  1.
         24    2    1    2    0    0  0.00000000000E+00  0.44408920985E-15 -0.31604021767E+02  0.86916394432E+02  0.80966940347E+02 0.  0.
         66    2    3    3    0    0 -0.12876221860E+02 -0.35008002550E+01  0.25189883478E+02  0.28575915098E+02  0.20000005596E+01 0.  0.
        -13    1    3    3    0    0  0.12876221860E+02  0.35008002550E+01 -0.56793905245E+02  0.58340479334E+02  0.10566000000E+00 0.  1.
         13    1    4    4    0    0 -0.19249020811E+01 -0.58388896374E+00  0.51215091367E+01  0.55033802536E+01  0.10566000000E+00 0. -1.
        -13    1    4    4    0    0 -0.31628363958E+01 -0.13226975293E+01  0.57564739748E+01  0.67008372223E+01  0.10566000000E+00 0.  1.
         14    1    4    4    0    0 -0.77884833832E+01 -0.15942137620E+01  0.14311900367E+02  0.16371697623E+02  0.00000000000E+00 0. -1.
<mgrwt>
<rscale>  0 0.80966940E+02</rscale>
<asrwt>0</asrwt>
<pdfrwt beam="1">  1        2 0.42547979E-02 0.80966940E+02</pdfrwt>
<pdfrwt beam="2">  1       -1 0.91169551E-02 0.80966940E+02</pdfrwt>
<totfact> 0.12800442E+05</totfact>
</mgrwt>
</event>
<event>
 8    1  0.1493610E-013  0.7870695E+02  0.7818608E-02  0.1332761E+00
          2   -1    0    0  501    0  0.00000000000E+00  0.00000000000E+00  0.20959897197E+04  0.20959897197E+04  0.25500000000E-02 0. -1.
         -1   -1    0    0    0  501 -0.00000000000E+00 -0.00000000000E+00 -0.73887679488E+00  0.73889398401E+00  0.50400000000E-02 0.  1.
         24    2    1    2    0    0  0.00000000000E+00  0.00000000000E+00  0.20952508429E+04  0.20967286137E+04  0.78706954923E+02 0.  0.
         66    2    3    3    0    0 -0.76552067270E+01  0.10727487237E+02  0.20354109499E+04  0.20354545969E+04  0.19999891667E+01 0.  0.
        -13    1    3    3    0    0  0.76552067270E+01 -0.10727487237E+02  0.59839893056E+02  0.61274016821E+02  0.10566000000E+00 0.  1.
         13    1    4    4    0    0 -0.43931076162E+01  0.60575156753E+01  0.12368938147E+04  0.12369164535E+04  0.10566000000E+00 0. -1.
        -13    1    4    4    0    0 -0.10818730187E+01  0.24194749160E+01  0.38501072021E+03  0.38501985682E+03  0.10566000000E+00 0.  1.
        -14    1    4    4    0    0 -0.21802260921E+01  0.22504966459E+01  0.41350641495E+03  0.41351828656E+03  0.00000000000E+00 0.  1.
<mgrwt>
<rscale>  0 0.78706955E+02</rscale>
<asrwt>0</asrwt>
<pdfrwt beam="1">  1        2 0.32245883E+00 0.78706955E+02</pdfrwt>
<pdfrwt beam="2">  1       -1 0.11367507E-03 0.78706955E+02</pdfrwt>
<totfact> 0.27655624E+05</totfact>
</mgrwt>
</event>
<event>
 8    1  0.1493610E-013  0.7986534E+02  0.7818608E-02  0.1329434E+00
         -1   -1    0    0    0  501 -0.00000000000E+00  0.00000000000E+00  0.26379762543E+02  0.26379763024E+02  0.50400000000E-02 0.  1.
          2   -1    0    0  501    0  0.00000000000E+00 -0.00000000000E+00 -0.60448543251E+02  0.60448543305E+02  0.25500000000E-02 0. -1.
         24    2    1    2    0    0 -0.35527136788E-14  0.35527136788E-14 -0.34068780708E+02  0.86828306329E+02  0.79865342677E+02 0.  0.
         66    2    3    3    0    0 -0.18181593470E+02  0.24365132123E+02 -0.45152124795E+02  0.54469664753E+02  0.20000000801E+01 0.  0.
        -13    1    3    3    0    0  0.18181593470E+02 -0.24365132123E+02  0.11083344087E+02  0.32358641576E+02  0.10566000000E+00 0.  1.
         13    1    4    4    0    0 -0.55519061454E+01  0.70349704615E+01 -0.14755229627E+02  0.17263905601E+02  0.10566000000E+00 0. -1.
        -13    1    4    4    0    0 -0.51522947918E+01  0.67060574890E+01 -0.11577940284E+02  0.14337964079E+02  0.10566000000E+00 0.  1.
         14    1    4    4    0    0 -0.74773925326E+01  0.10624104172E+02 -0.18818954885E+02  0.22867795073E+02  0.00000000000E+00 0. -1.
<mgrwt>
<rscale>  0 0.79865343E+02</rscale>
<asrwt>0</asrwt>
<pdfrwt beam="1">  1        2 0.92997759E-02 0.79865343E+02</pdfrwt>
<pdfrwt beam="2">  1       -1 0.40584251E-02 0.79865343E+02</pdfrwt>
<totfact> 0.15664633E+05</totfact>
</mgrwt>
</event>
<event>
 8    1  0.1493610E-013  0.7991579E+02  0.7818608E-02  0.1329291E+00
          2   -1    0    0  501    0  0.00000000000E+00  0.00000000000E+00  0.20384659268E+04  0.20384659268E+04  0.25500000000E-02 0. -1.
         -1   -1    0    0    0  501 -0.00000000000E+00 -0.00000000000E+00 -0.78324423003E+00  0.78326044549E+00  0.50400000000E-02 0.  1.
         24    2    1    2    0    0 -0.17763568394E-14 -0.44408920985E-15  0.20376826826E+04  0.20392491872E+04  0.79915785939E+02 0.  0.
         66    2    3    3    0    0 -0.15814531284E+02 -0.15069202729E+01  0.19543573806E+04  0.19544229689E+04  0.20000010986E+01 0.  0.
        -13    1    3    3    0    0  0.15814531284E+02  0.15069202729E+01  0.83325301915E+02  0.84826218304E+02  0.10566000000E+00 0.  1.
         13    1    4    4    0    0 -0.22924266443E+01 -0.66211784243E-01  0.29648135055E+03  0.29649023929E+03  0.10566000000E+00 0. -1.
        -13    1    4    4    0    0 -0.11721926062E+02 -0.16678963903E+01  0.14838785556E+04  0.14839257947E+04  0.10566000000E+00 0.  1.
         14    1    4    4    0    0 -0.18001785779E+01  0.22718790165E+00  0.17399747454E+03  0.17400693493E+03  0.00000000000E+00 0. -1.
<mgrwt>
<rscale>  0 0.79915786E+02</rscale>
<asrwt>0</asrwt>
<pdfrwt beam="1">  1        2 0.31361144E+00 0.79915786E+02</pdfrwt>
<pdfrwt beam="2">  1       -1 0.12049986E-03 0.79915786E+02</pdfrwt>
<totfact> 0.27337358E+05</totfact>
</mgrwt>
</event>
<event>
 8    1  0.1493610E-013  0.7893886E+02  0.7818608E-02  0.1332090E+00
         -1   -1    0    0    0  501 -0.00000000000E+00  0.00000000000E+00  0.19642908890E+01  0.19642973549E+01  0.50400000000E-02 0.  1.
          2   -1    0    0  501    0  0.00000000000E+00 -0.00000000000E+00 -0.79307678007E+03  0.79307678007E+03  0.25500000000E-02 0. -1.
         24    2    1    2    0    0  0.00000000000E+00  0.00000000000E+00 -0.79111248918E+03  0.79504107743E+03  0.78938864074E+02 0.  0.
         66    2    3    3    0    0 -0.14734504147E+02  0.13371332122E+02 -0.73882605524E+03  0.73909663647E+03  0.20000037001E+01 0.  0.
        -13    1    3    3    0    0  0.14734504147E+02 -0.13371332122E+02 -0.52286433946E+02  0.55944440957E+02  0.10566000000E+00 0.  1.
         13    1    4    4    0    0 -0.41002503232E+01  0.38387349626E+01 -0.18373774763E+03  0.18382360841E+03  0.10566000000E+00 0. -1.
        -13    1    4    4    0    0 -0.49607573264E+01  0.39139537122E+01 -0.23190569883E+03  0.23199179395E+03  0.10566000000E+00 0. -1.
        -14    1    4    4    0    0 -0.56734964971E+01  0.56186434473E+01 -0.32318260877E+03  0.32328123411E+03  0.00000000000E+00 0.  1.
<mgrwt>
<rscale>  0 0.78938864E+02</rscale>
<asrwt>0</asrwt>
<pdfrwt beam="1">  1        2 0.12201156E+00 0.78938864E+02</pdfrwt>
<pdfrwt beam="2">  1       -1 0.30219973E-03 0.78938864E+02</pdfrwt>
<totfact> 0.35523865E+05</totfact>
</mgrwt>
</event>
<event>
 8    1  0.1493610E-013  0.8110301E+02  0.7818608E-02  0.1325950E+00
         -1   -1    0    0    0  501 -0.00000000000E+00  0.00000000000E+00  0.80188479985E+02  0.80188480144E+02  0.50400000000E-02 0.  1.
          2   -1    0    0  501    0  0.00000000000E+00 -0.00000000000E+00 -0.20506993129E+02  0.20506993287E+02  0.25500000000E-02 0. -1.
         24    2    1    2    0    0  0.00000000000E+00  0.00000000000E+00  0.59681486857E+02  0.10069547343E+03  0.81103011634E+02 0.  0.
         66    2    3    3    0    0  0.93605631694E+01 -0.32537647467E+02  0.57512843207E+02  0.66768598761E+02  0.20000003030E+01 0.  0.
        -13    1    3    3    0    0 -0.93605631694E+01  0.32537647467E+02  0.21686436493E+01  0.33926874670E+02  0.10566000000E+00 0.  1.
         13    1    4    4    0    0  0.34820013277E+01 -0.12587349140E+02  0.23333328529E+02  0.26739878008E+02  0.10566000000E+00 0. -1.
        -13    1    4    4    0    0  0.25715504707E+01 -0.81142850226E+01  0.15088588365E+02  0.17324293814E+02  0.10566000000E+00 0.  1.
        -14    1    4    4    0    0  0.33070113710E+01 -0.11836013304E+02  0.19090926313E+02  0.22704426939E+02  0.00000000000E+00 0.  1.
<mgrwt>
<rscale>  0 0.81103012E+02</rscale>
<asrwt>0</asrwt>
<pdfrwt beam="1">  1        2 0.31549220E-02 0.81103012E+02</pdfrwt>
<pdfrwt beam="2">  1       -1 0.12336690E-01 0.81103012E+02</pdfrwt>
<totfact> 0.11997518E+05</totfact>
</mgrwt>
</event>
<event>
 8    1  0.1493610E-013  0.7906868E+02  0.7818608E-02  0.1331715E+00
          2   -1    0    0  501    0  0.00000000000E+00  0.00000000000E+00  0.15359161471E+02  0.15359161683E+02  0.25500000000E-02 0. -1.
         -1   -1    0    0    0  501 -0.00000000000E+00 -0.00000000000E+00 -0.10176103634E+03  0.10176103647E+03  0.50400000000E-02 0.  1.
         24    2    1    2    0    0 -0.35527136788E-14 -0.44408920985E-15 -0.86401874870E+02  0.11712019815E+03  0.79068684278E+02 0.  0.
         66    2    3    3    0    0 -0.21597943890E+02 -0.37101646435E+01  0.54665065533E+01  0.22674196797E+02  0.20000011376E+01 0.  0.
        -13    1    3    3    0    0  0.21597943890E+02  0.37101646435E+01 -0.91868381424E+02  0.94446001352E+02  0.10566000000E+00 0.  1.
         13    1    4    4    0    0 -0.16398026175E+02 -0.29694648062E+01  0.46684662552E+01  0.17306609284E+02  0.10566000000E+00 0. -1.
        -13    1    4    4    0    0 -0.13938605882E+01 -0.20662193656E+00  0.54977544321E+00  0.15162311953E+01  0.10566000000E+00 0.  1.
        -14    1    4    4    0    0 -0.38060571263E+01 -0.53407790075E+00  0.24826485485E+00  0.38513563183E+01  0.00000000000E+00 0.  1.
<mgrwt>
<rscale>  0 0.79068684E+02</rscale>
<asrwt>0</asrwt>
<pdfrwt beam="1">  1        2 0.23629480E-02 0.79068684E+02</pdfrwt>
<pdfrwt beam="2">  1       -1 0.15655544E-01 0.79068684E+02</pdfrwt>
<totfact> 0.12158625E+05</totfact>
</mgrwt>
</event>
<event>
 8    1  0.1493610E-013  0.7907698E+02  0.7818608E-02  0.1331691E+00
         -1   -1    0    0    0  501 -0.00000000000E+00  0.00000000000E+00  0.10381670490E+02  0.10381671714E+02  0.50400000000E-02 0.  1.
          2   -1    0    0  501    0  0.00000000000E+00 -0.00000000000E+00 -0.15058195412E+03  0.15058195414E+03  0.25500000000E-02 0. -1.
         24    2    1    2    0    0  0.00000000000E+00  0.17763568394E-14 -0.14020028363E+03  0.16096362586E+03  0.79076983495E+02 0.  0.
         66    2    3    3    0    0  0.36550796146E+02 -0.11778986914E+02 -0.89085375190E+02  0.97030455588E+02  0.20000017901E+01 0.  0.
        -13    1    3    3    0    0 -0.36550796146E+02  0.11778986914E+02 -0.51114908442E+02  0.63933170270E+02  0.10566000000E+00 0.  1.
         13    1    4    4    0    0  0.17181524146E+02 -0.54016809921E+01 -0.41323620260E+02  0.45078106492E+02  0.10566000000E+00 0. -1.
        -13    1    4    4    0    0  0.11877553554E+02 -0.43250425583E+01 -0.30997331643E+02  0.33475782359E+02  0.10566000000E+00 0.  1.
         14    1    4    4    0    0  0.74917184467E+01 -0.20522633636E+01 -0.16764423287E+02  0.18476566736E+02  0.00000000000E+00 0. -1.
<mgrwt>
<rscale>  0 0.79076983E+02</rscale>
<asrwt>0</asrwt>
<pdfrwt beam="1">  1        2 0.23166453E-01 0.79076983E+02</pdfrwt>
<pdfrwt beam="2">  1       -1 0.15971803E-02 0.79076983E+02</pdfrwt>
<totfact> 0.20681742E+05</totfact>
</mgrwt>
</event>
<event>
 8    1  0.1493610E-013  0.7922383E+02  0.7818608E-02  0.1331269E+00
          2   -1    0    0  501    0  0.00000000000E+00  0.00000000000E+00  0.42472511860E+02  0.42472511937E+02  0.25500000000E-02 0. -1.
         -1   -1    0    0    0  501 -0.00000000000E+00 -0.00000000000E+00 -0.36943983511E+02  0.36943983855E+02  0.50400000000E-02 0.  1.
         24    2    1    2    0    0 -0.13877787808E-16  0.00000000000E+00  0.55285283496E+01  0.79416495791E+02  0.79223829610E+02 0.  0.
         66    2    3    3    0    0  0.35859503265E-01  0.11157991600E+02  0.40839921266E+02  0.42383973650E+02  0.19999977347E+01 0.  0.
        -13    1    3    3    0    0 -0.35859503265E-01 -0.11157991600E+02 -0.35311392916E+02  0.37032522141E+02  0.10566000000E+00 0.  1.
         13    1    4    4    0    0  0.60175850758E+00  0.67301206303E+01  0.23074498320E+02  0.24043715889E+02  0.10566000000E+00 0. -1.
        -13    1    4    4    0    0  0.15944539338E-01  0.11004058279E+01  0.31128288517E+01  0.33033338781E+01  0.10566000000E+00 0. -1.
        -14    1    4    4    0    0 -0.58184354365E+00  0.33274651413E+01  0.14652594094E+02  0.15036923882E+02  0.00000000000E+00 0.  1.
<mgrwt>
<rscale>  0 0.79223830E+02</rscale>
<asrwt>0</asrwt>
<pdfrwt beam="1">  1        2 0.65342326E-02 0.79223830E+02</pdfrwt>
<pdfrwt beam="2">  1       -1 0.56836898E-02 0.79223830E+02</pdfrwt>
<totfact> 0.14826136E+05</totfact>
</mgrwt>
</event>
<event>
 8    1  0.1493610E-013  0.7868689E+02  0.7818608E-02  0.1332820E+00
         -1   -1    0    0    0  501 -0.00000000000E+00  0.00000000000E+00  0.92750076064E+01  0.92750089757E+01  0.50400000000E-02 0.  1.
          2   -1    0    0  501    0  0.00000000000E+00 -0.00000000000E+00 -0.16689006593E+03  0.16689006595E+03  0.25500000000E-02 0. -1.
         24    2    1    2    0    0  0.00000000000E+00  0.00000000000E+00 -0.15761505832E+03  0.17616507492E+03  0.78686892256E+02 0.  0.
         66    2    3    3    0    0 -0.12832288021E+02  0.34231855497E+02 -0.11125647478E+03  0.11712596095E+03  0.20000003750E+01 0.  0.
        -13    1    3    3    0    0  0.12832288021E+02 -0.34231855497E+02 -0.46358583538E+02  0.59039113969E+02  0.10566000000E+00 0.  1.
         13    1    4    4    0    0 -0.11107505796E+01  0.31584715294E+01 -0.87539296592E+01  0.93729481897E+01  0.10566000000E+00 0. -1.
        -13    1    4    4    0    0 -0.11611056081E+02  0.30454736508E+02 -0.10032593943E+03  0.10548750109E+03  0.10566000000E+00 0.  1.
        -14    1    4    4    0    0 -0.11048136037E+00  0.61864745970E+00 -0.21766056895E+01  0.22655116724E+01  0.00000000000E+00 0.  1.
<mgrwt>
<rscale>  0 0.78686892E+02</rscale>
<asrwt>0</asrwt>
<pdfrwt beam="1">  1        2 0.25675392E-01 0.78686892E+02</pdfrwt>
<pdfrwt beam="2">  1       -1 0.14269245E-02 0.78686892E+02</pdfrwt>
<totfact> 0.21669806E+05</totfact>
</mgrwt>
</event>
<event>
 8    1  0.1493610E-013  0.8191740E+02  0.7818608E-02  0.1323697E+00
          2   -1    0    0  501    0  0.00000000000E+00  0.00000000000E+00  0.32145334711E+02  0.32145334812E+02  0.25500000000E-02 0. -1.
         -1   -1    0    0    0  501 -0.00000000000E+00 -0.00000000000E+00 -0.52188443868E+02  0.52188444112E+02  0.50400000000E-02 0.  1.
         24    2    1    2    0    0 -0.17763568394E-14  0.00000000000E+00 -0.20043109158E+02  0.84333778924E+02  0.81917397681E+02 0.  0.
         66    2    3    3    0    0  0.10428474102E+02 -0.91014442267E+00  0.30712885346E+02  0.32509425797E+02  0.20000011058E+01 0.  0.
        -13    1    3    3    0    0 -0.10428474102E+02  0.91014442267E+00 -0.50755994503E+02  0.51824353127E+02  0.10566000000E+00 0.  1.
         13    1    4    4    0    0  0.36481965956E+01 -0.15913820987E+00  0.10576201410E+02  0.11189363863E+02  0.10566000000E+00 0. -1.
        -13    1    4    4    0    0  0.27262667520E+01  0.16245267134E+00  0.61701546620E+01  0.67483993556E+01  0.10566000000E+00 0.  1.
         14    1    4    4    0    0  0.40540107543E+01 -0.91345888414E+00  0.13966529274E+02  0.14571662578E+02  0.00000000000E+00 0. -1.
<mgrwt>
<rscale>  0 0.81917398E+02</rscale>
<asrwt>0</asrwt>
<pdfrwt beam="1">  1        2 0.49454361E-02 0.81917398E+02</pdfrwt>
<pdfrwt beam="2">  1       -1 0.80289914E-02 0.81917398E+02</pdfrwt>
<totfact> 0.12765619E+05</totfact>
</mgrwt>
</event>
<event>
 8    1  0.1493610E-013  0.7905923E+02  0.7818608E-02  0.1331743E+00
          2   -1    0    0  501    0  0.00000000000E+00  0.00000000000E+00  0.26076453622E+03  0.26076453624E+03  0.25500000000E-02 0. -1.
         -1   -1    0    0    0  501 -0.00000000000E+00 -0.00000000000E+00 -0.59923415959E+01  0.59923437154E+01  0.50400000000E-02 0.  1.
         24    2    1    2    0    0 -0.35527136788E-14  0.35527136788E-14  0.25477219463E+03  0.26675687995E+03  0.79059229987E+02 0.  0.
         66    2    3    3    0    0 -0.17979354912E+02 -0.20187571856E+02  0.22466312851E+03  0.22629254643E+03  0.19999998920E+01 0.  0.
        -13    1    3    3    0    0  0.17979354912E+02  0.20187571856E+02  0.30109066120E+02  0.40464333519E+02  0.10566000000E+00 0.  1.
         13    1    4    4    0    0 -0.94398846777E+01 -0.95714008302E+01  0.11250340036E+03  0.11330379249E+03  0.10566000000E+00 0. -1.
        -13    1    4    4    0    0 -0.64012335028E+00 -0.46339595188E+00  0.62314621935E+01  0.62822590536E+01  0.10566000000E+00 0.  1.
        -14    1    4    4    0    0 -0.78993468840E+01 -0.10152775074E+02  0.10592826596E+03  0.10670649489E+03  0.00000000000E+00 0.  1.
<mgrwt>
<rscale>  0 0.79059230E+02</rscale>
<asrwt>0</asrwt>
<pdfrwt beam="1">  1        2 0.40117612E-01 0.79059230E+02</pdfrwt>
<pdfrwt beam="2">  1       -1 0.92189909E-03 0.79059230E+02</pdfrwt>
<totfact> 0.24997379E+05</totfact>
</mgrwt>
</event>
<event>
 8    1  0.1493610E-013  0.8070473E+02  0.7818608E-02  0.1327063E+00
         -1   -1    0    0    0  501 -0.00000000000E+00  0.00000000000E+00  0.37864489644E+01  0.37864523187E+01  0.50400000000E-02 0.  1.
          2   -1    0    0  501    0  0.00000000000E+00 -0.00000000000E+00 -0.43003681902E+03  0.43003681903E+03  0.25500000000E-02 0. -1.
         24    2    1    2    0    0  0.00000000000E+00 -0.17763568394E-14 -0.42625037006E+03  0.43382327135E+03  0.80704725940E+02 0.  0.
         66    2    3    3    0    0 -0.24619843930E+02  0.83909940548E+01 -0.37891714944E+03  0.37981410144E+03  0.20000036503E+01 0.  0.
        -13    1    3    3    0    0  0.24619843930E+02 -0.83909940548E+01 -0.47333220617E+02  0.54009169910E+02  0.10566000000E+00 0.  1.
         13    1    4    4    0    0 -0.14492849075E+02  0.43177082943E+01 -0.20952215174E+03  0.21006719999E+03  0.10566000000E+00 0. -1.
        -13    1    4    4    0    0 -0.57011626721E+01  0.24671231971E+01 -0.94298900448E+02  0.94503353075E+02  0.10566000000E+00 0.  1.
        -14    1    4    4    0    0 -0.44258321832E+01  0.16061625634E+01 -0.75096097252E+02  0.75243548369E+02  0.00000000000E+00 0.  1.
<mgrwt>
<rscale>  0 0.80704726E+02</rscale>
<asrwt>0</asrwt>
<pdfrwt beam="1">  1        2 0.66159472E-01 0.80704726E+02</pdfrwt>
<pdfrwt beam="2">  1       -1 0.58253121E-03 0.80704726E+02</pdfrwt>
<totfact> 0.28313896E+05</totfact>
</mgrwt>
</event>
<event>
 8    1  0.1493610E-013  0.8020737E+02  0.7818608E-02  0.1328464E+00
          2   -1    0    0  501    0  0.00000000000E+00  0.00000000000E+00  0.36345591440E+03  0.36345591440E+03  0.25500000000E-02 0. -1.
         -1   -1    0    0    0  501 -0.00000000000E+00 -0.00000000000E+00 -0.44250343119E+01  0.44250371821E+01  0.50400000000E-02 0.  1.
         24    2    1    2    0    0  0.71054273576E-14  0.55511151231E-16  0.35903088008E+03  0.36788095159E+03  0.80207366785E+02 0.  0.
         66    2    3    3    0    0  0.35083958233E+02  0.45643436440E+00  0.26847094723E+03  0.27076141154E+03  0.20000028021E+01 0.  0.
        -13    1    3    3    0    0 -0.35083958233E+02 -0.45643436440E+00  0.90559932850E+02  0.97119540050E+02  0.10566000000E+00 0.  1.
         13    1    4    4    0    0  0.30401254834E+02  0.46633153348E+00  0.23447392880E+03  0.23643707030E+03  0.10566000000E+00 0. -1.
        -13    1    4    4    0    0  0.33127946289E+01 -0.16059533684E+00  0.25754567480E+02  0.25967466362E+02  0.10566000000E+00 0.  1.
         14    1    4    4    0    0  0.13699087700E+01  0.15069816777E+00  0.82424509504E+01  0.83568748731E+01  0.00000000000E+00 0. -1.
<mgrwt>
<rscale>  0 0.80207367E+02</rscale>
<asrwt>0</asrwt>
<pdfrwt beam="1">  1        2 0.55916303E-01 0.80207367E+02</pdfrwt>
<pdfrwt beam="2">  1       -1 0.68077463E-03 0.80207367E+02</pdfrwt>
<totfact> 0.27129644E+05</totfact>
</mgrwt>
</event>
<event>
 8    1  0.1493610E-013  0.8041250E+02  0.7818608E-02  0.1327885E+00
         -1   -1    0    0    0  501 -0.00000000000E+00  0.00000000000E+00  0.27343457671E+02  0.27343458136E+02  0.50400000000E-02 0.  1.
          2   -1    0    0  501    0  0.00000000000E+00 -0.00000000000E+00 -0.59119901298E+02  0.59119901353E+02  0.25500000000E-02 0. -1.
         24    2    1    2    0    0 -0.44408920985E-15  0.00000000000E+00 -0.31776443627E+02  0.86463359488E+02  0.80412500051E+02 0.  0.
         66    2    3    3    0    0  0.27645005745E+01 -0.39457928617E+02 -0.82973839972E+01  0.40465011700E+02  0.19999991285E+01 0.  0.
        -13    1    3    3    0    0 -0.27645005745E+01  0.39457928617E+02 -0.23479059629E+02  0.45998347788E+02  0.10566000000E+00 0.  1.
         13    1    4    4    0    0  0.24191072229E+01 -0.26248144275E+02 -0.53128948385E+01  0.26889685257E+02  0.10566000000E+00 0. -1.
        -13    1    4    4    0    0 -0.54947397385E-01 -0.77221202721E+01 -0.13942279315E+01  0.78478784569E+01  0.10566000000E+00 0.  1.
        -14    1    4    4    0    0  0.40034074906E+00 -0.54876640695E+01 -0.15902612272E+01  0.57274479854E+01  0.00000000000E+00 0.  1.
<mgrwt>
<rscale>  0 0.80412500E+02</rscale>
<asrwt>0</asrwt>
<pdfrwt beam="1">  1        2 0.90953694E-02 0.80412500E+02</pdfrwt>
<pdfrwt beam="2">  1       -1 0.42066859E-02 0.80412500E+02</pdfrwt>
<totfact> 0.15297556E+05</totfact>
</mgrwt>
</event>
<event>
 8    1  0.1493610E-013  0.8550637E+02  0.7818608E-02  0.1314114E+00
         -1   -1    0    0    0  501 -0.00000000000E+00  0.00000000000E+00  0.35920131998E+01  0.35920167356E+01  0.50400000000E-02 0.  1.
          2   -1    0    0  501    0  0.00000000000E+00 -0.00000000000E+00 -0.50886059808E+03  0.50886059809E+03  0.25500000000E-02 0. -1.
         24    2    1    2    0    0  0.00000000000E+00 -0.35527136788E-14 -0.50526858488E+03  0.51245261482E+03  0.85506371524E+02 0.  0.
         66    2    3    3    0    0 -0.66351633472E+01  0.25287086971E+02 -0.45533422258E+03  0.45608849625E+03  0.19999996927E+01 0.  0.
        -13    1    3    3    0    0  0.66351633472E+01 -0.25287086971E+02 -0.49934362303E+02  0.56364118575E+02  0.10566000000E+00 0.  1.
         13    1    4    4    0    0 -0.34487723988E+01  0.12473936965E+02 -0.23794400859E+03  0.23829573123E+03  0.10566000000E+00 0. -1.
        -13    1    4    4    0    0 -0.14423971378E+01  0.73620108051E+01 -0.11918040096E+03  0.11941632572E+03  0.10566000000E+00 0.  1.
         14    1    4    4    0    0 -0.17439938107E+01  0.54511392000E+01 -0.98209813029E+02  0.98376439294E+02  0.00000000000E+00 0. -1.
<mgrwt>
<rscale>  0 0.85506372E+02</rscale>
<asrwt>0</asrwt>
<pdfrwt beam="1">  1        2 0.78286189E-01 0.85506372E+02</pdfrwt>
<pdfrwt beam="2">  1       -1 0.55261809E-03 0.85506372E+02</pdfrwt>
<totfact> 0.25730589E+05</totfact>
</mgrwt>
</event>
<event>
 8    1  0.1493610E-013  0.7855846E+02  0.7818608E-02  0.1333193E+00
         -1   -1    0    0    0  501 -0.00000000000E+00  0.00000000000E+00  0.23241929021E+01  0.23241983667E+01  0.50400000000E-02 0.  1.
          2   -1    0    0  501    0  0.00000000000E+00 -0.00000000000E+00 -0.66382437164E+03  0.66382437164E+03  0.25500000000E-02 0. -1.
         24    2    1    2    0    0 -0.35527136788E-14 -0.35527136788E-14 -0.66150017873E+03  0.66614857001E+03  0.78558455039E+02 0.  0.
         66    2    3    3    0    0  0.11700677628E+02  0.30086108134E+02 -0.52034191651E+03  0.52134613247E+03  0.20000003020E+01 0.  0.
        -13    1    3    3    0    0 -0.11700677628E+02 -0.30086108134E+02 -0.14115826222E+03  0.14480243754E+03  0.10566000000E+00 0.  1.
         13    1    4    4    0    0  0.31883142801E+01  0.78549529418E+01 -0.13115140918E+03  0.13142514572E+03  0.10566000000E+00 0. -1.
        -13    1    4    4    0    0  0.26310350395E+01  0.86019778691E+01 -0.13992696270E+03  0.14021584227E+03  0.10566000000E+00 0.  1.
        -14    1    4    4    0    0  0.58813283080E+01  0.13629177323E+02 -0.24926354463E+03  0.24970514448E+03  0.00000000000E+00 0.  1.
<mgrwt>
<rscale>  0 0.78558455E+02</rscale>
<asrwt>0</asrwt>
<pdfrwt beam="1">  1        2 0.10212668E+00 0.78558455E+02</pdfrwt>
<pdfrwt beam="2">  1       -1 0.35756909E-03 0.78558455E+02</pdfrwt>
<totfact> 0.34629199E+05</totfact>
</mgrwt>
</event>
<event>
 8    1  0.1493610E-013  0.8068826E+02  0.7818608E-02  0.1327110E+00
          2   -1    0    0  501    0  0.00000000000E+00  0.00000000000E+00  0.19940524788E+02  0.19940524951E+02  0.25500000000E-02 0. -1.
         -1   -1    0    0    0  501 -0.00000000000E+00 -0.00000000000E+00 -0.81625175228E+02  0.81625175383E+02  0.50400000000E-02 0.  1.
         24    2    1    2    0    0  0.00000000000E+00  0.00000000000E+00 -0.61684650439E+02  0.10156570033E+03  0.80688260513E+02 0.  0.
         66    2    3    3    0    0  0.18362437732E+02  0.18243781445E+02  0.80505874312E+01  0.27181365655E+02  0.19999999941E+01 0.  0.
        -13    1    3    3    0    0 -0.18362437732E+02 -0.18243781445E+02 -0.69735237870E+02  0.74384334680E+02  0.10566000000E+00 0.  1.
         13    1    4    4    0    0  0.11380524109E+02  0.11241606278E+02  0.46544200057E+01  0.16660277019E+02  0.10566000000E+00 0. -1.
        -13    1    4    4    0    0  0.27000928031E+01  0.34029093268E+01  0.18075936471E+01  0.47062566717E+01  0.10566000000E+00 0.  1.
        -14    1    4    4    0    0  0.42818208206E+01  0.35992658396E+01  0.15885737785E+01  0.58148319644E+01  0.00000000000E+00 0.  1.
<mgrwt>
<rscale>  0 0.80688261E+02</rscale>
<asrwt>0</asrwt>
<pdfrwt beam="1">  1        2 0.30677731E-02 0.80688261E+02</pdfrwt>
<pdfrwt beam="2">  1       -1 0.12557719E-01 0.80688261E+02</pdfrwt>
<totfact> 0.12106347E+05</totfact>
</mgrwt>
</event>
<event>
 8    1  0.1493610E-013  0.7997986E+02  0.7818608E-02  0.1329109E+00
         -1   -1    0    0    0  501 -0.00000000000E+00  0.00000000000E+00  0.80949805866E+02  0.80949806023E+02  0.50400000000E-02 0.  1.
          2   -1    0    0  501    0  0.00000000000E+00 -0.00000000000E+00 -0.19755382883E+02  0.19755383047E+02  0.25500000000E-02 0. -1.
         24    2    1    2    0    0  0.00000000000E+00  0.00000000000E+00  0.61194422983E+02  0.10070518907E+03  0.79979858098E+02 0.  0.
         66    2    3    3    0    0 -0.28937194582E+02 -0.86309238604E+01 -0.23464106118E+01  0.30353907810E+02  0.19999999023E+01 0.  0.
        -13    1    3    3    0    0  0.28937194582E+02  0.86309238604E+01  0.63540833595E+02  0.70351281260E+02  0.10566000000E+00 0.  1.
         13    1    4    4    0    0 -0.16282674712E+02 -0.52026490380E+01 -0.67555443051E+00  0.17107325642E+02  0.10566000000E+00 0. -1.
        -13    1    4    4    0    0 -0.11565474359E+02 -0.29348373614E+01 -0.13497725145E+01  0.12008601807E+02  0.10566000000E+00 0.  1.
         14    1    4    4    0    0 -0.10890455110E+01 -0.49343746103E+00 -0.32108366673E+00  0.12379803609E+01  0.00000000000E+00 0. -1.
<mgrwt>
<rscale>  0 0.79979858E+02</rscale>
<asrwt>0</asrwt>
<pdfrwt beam="1">  1        2 0.30392898E-02 0.79979858E+02</pdfrwt>
<pdfrwt beam="2">  1       -1 0.12453816E-01 0.79979858E+02</pdfrwt>
<totfact> 0.12393785E+05</totfact>
</mgrwt>
</event>
<event>
 8    1  0.1493610E-013  0.7154618E+02  0.7818608E-02  0.1354913E+00
          2   -1    0    0  501    0  0.00000000000E+00  0.00000000000E+00  0.37998028425E+01  0.37998036981E+01  0.25500000000E-02 0. -1.
         -1   -1    0    0    0  501 -0.00000000000E+00 -0.00000000000E+00 -0.33678425650E+03  0.33678425654E+03  0.50400000000E-02 0.  1.
         24    2    1    2    0    0  0.00000000000E+00  0.00000000000E+00 -0.33298445366E+03  0.34058406024E+03  0.71546178858E+02 0.  0.
         66    2    3    3    0    0  0.84006051520E+01 -0.33742085810E+02 -0.12719135608E+03  0.13187395340E+03  0.20000004079E+01 0.  0.
        -13    1    3    3    0    0 -0.84006051520E+01  0.33742085810E+02 -0.20579309758E+03  0.20871010684E+03  0.10566000000E+00 0.  1.
         13    1    4    4    0    0  0.35329016206E+01 -0.14026502974E+02 -0.50959702794E+02  0.52972886011E+02  0.10566000000E+00 0. -1.
        -13    1    4    4    0    0  0.30940442728E+01 -0.98935534755E+01 -0.38248237226E+02  0.39628201136E+02  0.10566000000E+00 0.  1.
        -14    1    4    4    0    0  0.17736592587E+01 -0.98220293605E+01 -0.37983416061E+02  0.39272866251E+02  0.00000000000E+00 0.  1.
<mgrwt>
<rscale>  0 0.71546179E+02</rscale>
<asrwt>0</asrwt>
<pdfrwt beam="1">  1        2 0.58458538E-03 0.71546179E+02</pdfrwt>
<pdfrwt beam="2">  1       -1 0.51812939E-01 0.71546179E+02</pdfrwt>
<totfact> 0.10950085E+05</totfact>
</mgrwt>
</event>
<event>
 8    1  0.1493610E-013  0.8226614E+02  0.7818608E-02  0.1322741E+00
          2   -1    0    0  501    0  0.00000000000E+00  0.00000000000E+00  0.22898158718E+03  0.22898158720E+03  0.25500000000E-02 0. -1.
         -1   -1    0    0    0  501 -0.00000000000E+00 -0.00000000000E+00 -0.73889312988E+01  0.73889330177E+01  0.50400000000E-02 0.  1.
         24    2    1    2    0    0  0.00000000000E+00  0.71054273576E-14  0.22159265588E+03  0.23637052021E+03  0.82266139358E+02 0.  0.
         66    2    3    3    0    0  0.81233866759E+01  0.34368017597E+02  0.17132097522E+03  0.17493434939E+03  0.20000003709E+01 0.  0.
        -13    1    3    3    0    0 -0.81233866759E+01 -0.34368017597E+02  0.50271680658E+02  0.61436170819E+02  0.10566000000E+00 0.  1.
         13    1    4    4    0    0  0.53447928641E+01  0.24317696551E+02  0.11710105314E+03  0.11971877458E+03  0.10566000000E+00 0. -1.
        -13    1    4    4    0    0  0.20869073894E+01  0.79126562841E+01  0.43389000349E+02  0.44154069204E+02  0.10566000000E+00 0.  1.
         14    1    4    4    0    0  0.69168642243E+00  0.21376647622E+01  0.10830921738E+02  0.11061505613E+02  0.00000000000E+00 0. -1.
<mgrwt>
<rscale>  0 0.82266139E+02</rscale>
<asrwt>0</asrwt>
<pdfrwt beam="1">  1        2 0.35227935E-01 0.82266139E+02</pdfrwt>
<pdfrwt beam="2">  1       -1 0.11367588E-02 0.82266139E+02</pdfrwt>
<totfact> 0.21490141E+05</totfact>
</mgrwt>
</event>
<event>
 8    1  0.1493610E-013  0.7862767E+02  0.7818608E-02  0.1332992E+00
         -1   -1    0    0    0  501 -0.00000000000E+00  0.00000000000E+00  0.18934845608E+02  0.18934846279E+02  0.50400000000E-02 0.  1.
          2   -1    0    0  501    0  0.00000000000E+00 -0.00000000000E+00 -0.81626090215E+02  0.81626090255E+02  0.25500000000E-02 0. -1.
         24    2    1    2    0    0  0.00000000000E+00 -0.71054273576E-14 -0.62691244607E+02  0.10056093653E+03  0.78627665653E+02 0.  0.
         66    2    3    3    0    0 -0.10716814940E+02 -0.35044572110E+02 -0.49480072323E+02  0.61605598080E+02  0.20000002250E+01 0.  0.
        -13    1    3    3    0    0  0.10716814940E+02  0.35044572110E+02 -0.13211172284E+02  0.38955338453E+02  0.10566000000E+00 0.  1.
         13    1    4    4    0    0 -0.23953185638E+01 -0.69636082160E+01 -0.99928881896E+01  0.12413636406E+02  0.10566000000E+00 0. -1.
        -13    1    4    4    0    0 -0.55821136098E+01 -0.15939005743E+02 -0.22592476755E+02  0.28207145662E+02  0.10566000000E+00 0.  1.
        -14    1    4    4    0    0 -0.27393827659E+01 -0.12141958151E+02 -0.16894707378E+02  0.20984816013E+02  0.00000000000E+00 0.  1.
<mgrwt>
<rscale>  0 0.78627666E+02</rscale>
<asrwt>0</asrwt>
<pdfrwt beam="1">  1        2 0.12557860E-01 0.78627666E+02</pdfrwt>
<pdfrwt beam="2">  1       -1 0.29130533E-02 0.78627666E+02</pdfrwt>
<totfact> 0.17582533E+05</totfact>
</mgrwt>
</event>
<event>
 8    1  0.1493610E-013  0.8033492E+02  0.7818608E-02  0.1328104E+00
         -1   -1    0    0    0  501 -0.00000000000E+00  0.00000000000E+00  0.72090967624E+01  0.72090985242E+01  0.50400000000E-02 0.  1.
          2   -1    0    0  501    0  0.00000000000E+00 -0.00000000000E+00 -0.22380400754E+03  0.22380400756E+03  0.25500000000E-02 0. -1.
         24    2    1    2    0    0  0.35527136788E-14  0.35527136788E-14 -0.21659491078E+03  0.23101310608E+03  0.80334922702E+02 0.  0.
         66    2    3    3    0    0 -0.10718531074E+02 -0.28978681969E+02 -0.18205948603E+03  0.18467351562E+03  0.20000006602E+01 0.  0.
        -13    1    3    3    0    0  0.10718531074E+02  0.28978681969E+02 -0.34535424753E+02  0.46339590459E+02  0.10566000000E+00 0.  1.
         13    1    4    4    0    0 -0.75692980344E+01 -0.19760768165E+02 -0.12462602173E+03  0.12640980456E+03  0.10566000000E+00 0. -1.
        -13    1    4    4    0    0 -0.18287692125E+01 -0.39616279823E+01 -0.23944339502E+02  0.24338887635E+02  0.10566000000E+00 0.  1.
        -14    1    4    4    0    0 -0.13204638271E+01 -0.52562858215E+01 -0.33489124792E+02  0.33924823429E+02  0.00000000000E+00 0.  1.
<mgrwt>
<rscale>  0 0.80334923E+02</rscale>
<asrwt>0</asrwt>
<pdfrwt beam="1">  1        2 0.34431380E-01 0.80334923E+02</pdfrwt>
<pdfrwt beam="2">  1       -1 0.11090921E-02 0.80334923E+02</pdfrwt>
<totfact> 0.22694641E+05</totfact>
</mgrwt>
</event>
<event>
 8    1  0.1493610E-013  0.8009156E+02  0.7818608E-02  0.1328792E+00
          2   -1    0    0  501    0  0.00000000000E+00  0.00000000000E+00  0.22022189823E+03  0.22022189824E+03  0.25500000000E-02 0. -1.
         -1   -1    0    0    0  501 -0.00000000000E+00 -0.00000000000E+00 -0.72820380237E+01  0.72820397678E+01  0.50400000000E-02 0.  1.
         24    2    1    2    0    0  0.00000000000E+00 -0.71054273576E-14  0.21293986020E+03  0.22750393801E+03  0.80091558522E+02 0.  0.
         66    2    3    3    0    0 -0.13798715752E+01 -0.34511234973E+02  0.16396371146E+03  0.16757394806E+03  0.20000024774E+01 0.  0.
        -13    1    3    3    0    0  0.13798715752E+01  0.34511234973E+02  0.48976148747E+02  0.59929989947E+02  0.10566000000E+00 0.  1.
         13    1    4    4    0    0 -0.38882278930E+00 -0.15072158540E+02  0.71316148075E+02  0.72892559884E+02  0.10566000000E+00 0. -1.
        -13    1    4    4    0    0 -0.10951591902E+00 -0.22533074734E+01  0.87127433734E+01  0.90006916085E+01  0.10566000000E+00 0.  1.
        -14    1    4    4    0    0 -0.88153286693E+00 -0.17185768959E+02  0.83934820009E+02  0.85680696570E+02  0.00000000000E+00 0.  1.
<mgrwt>
<rscale>  0 0.80091559E+02</rscale>
<asrwt>0</asrwt>
<pdfrwt beam="1">  1        2 0.33880293E-01 0.80091559E+02</pdfrwt>
<pdfrwt beam="2">  1       -1 0.11203137E-02 0.80091559E+02</pdfrwt>
<totfact> 0.22746687E+05</totfact>
</mgrwt>
</event>
<event>
 8    1  0.1493610E-013  0.8041599E+02  0.7818608E-02  0.1327875E+00
          2   -1    0    0  501    0  0.00000000000E+00  0.00000000000E+00  0.14544385788E+02  0.14544386012E+02  0.25500000000E-02 0. -1.
         -1   -1    0    0    0  501 -0.00000000000E+00 -0.00000000000E+00 -0.11115511401E+03  0.11115511412E+03  0.50400000000E-02 0.  1.
         24    2    1    2    0    0  0.35527136788E-14 -0.35527136788E-14 -0.96610728221E+02  0.12569950013E+03  0.80415990492E+02 0.  0.
         66    2    3    3    0    0  0.26354061028E+02 -0.26717692379E+02 -0.70786764057E+02  0.80144479468E+02  0.20000012071E+01 0.  0.
        -13    1    3    3    0    0 -0.26354061028E+02  0.26717692379E+02 -0.25823964164E+02  0.45555020666E+02  0.10566000000E+00 0.  1.
         13    1    4    4    0    0  0.41944036433E+01 -0.38463962510E+01 -0.10227430259E+02  0.11704669145E+02  0.10566000000E+00 0. -1.
        -13    1    4    4    0    0  0.17755947999E+02 -0.19138704190E+02 -0.50006345254E+02  0.56411075305E+02  0.10566000000E+00 0.  1.
        -14    1    4    4    0    0  0.44037093861E+01 -0.37325919379E+01 -0.10552988544E+02  0.12028735018E+02  0.00000000000E+00 0.  1.
<mgrwt>
<rscale>  0 0.80415990E+02</rscale>
<asrwt>0</asrwt>
<pdfrwt beam="1">  1        2 0.22375979E-02 0.80415990E+02</pdfrwt>
<pdfrwt beam="2">  1       -1 0.17100786E-01 0.80415990E+02</pdfrwt>
<totfact> 0.11433347E+05</totfact>
</mgrwt>
</event>
<event>
 8    1  0.1493610E-013  0.7946633E+02  0.7818608E-02  0.1330573E+00
         -1   -1    0    0    0  501 -0.00000000000E+00  0.00000000000E+00  0.21593793684E+02  0.21593794272E+02  0.50400000000E-02 0.  1.
          2   -1    0    0  501    0  0.00000000000E+00 -0.00000000000E+00 -0.73110090259E+02  0.73110090303E+02  0.25500000000E-02 0. -1.
         24    2    1    2    0    0 -0.35527136788E-14  0.00000000000E+00 -0.51516296575E+02  0.94703884575E+02  0.79466325829E+02 0.  0.
         66    2    3    3    0    0  0.20464086313E+02 -0.30859652372E+02 -0.42863541686E+02  0.56677863164E+02  0.19999984586E+01 0.  0.
        -13    1    3    3    0    0 -0.20464086313E+02  0.30859652372E+02 -0.86527548891E+01  0.38026021411E+02  0.10566000000E+00 0.  1.
         13    1    4    4    0    0  0.10639409487E+02 -0.16417456642E+02 -0.21859675829E+02  0.29335754775E+02  0.10566000000E+00 0. -1.
        -13    1    4    4    0    0  0.70240459715E+01 -0.10164791434E+02 -0.15640318213E+02  0.19932158050E+02  0.10566000000E+00 0.  1.
        -14    1    4    4    0    0  0.28006308552E+01 -0.42774042961E+01 -0.53635476437E+01  0.74099503390E+01  0.00000000000E+00 0.  1.
<mgrwt>
<rscale>  0 0.79466326E+02</rscale>
<asrwt>0</asrwt>
<pdfrwt beam="1">  1        2 0.11247706E-01 0.79466326E+02</pdfrwt>
<pdfrwt beam="2">  1       -1 0.33221222E-02 0.79466326E+02</pdfrwt>
<totfact> 0.16618095E+05</totfact>
</mgrwt>
</event>
<event>
 8    1  0.1493610E-013  0.7759281E+02  0.7818608E-02  0.1336025E+00
         -1   -1    0    0    0  501 -0.00000000000E+00  0.00000000000E+00  0.15045202987E+02  0.15045203832E+02  0.50400000000E-02 0.  1.
          2   -1    0    0  501    0  0.00000000000E+00 -0.00000000000E+00 -0.10004259062E+03  0.10004259065E+03  0.25500000000E-02 0. -1.
         24    2    1    2    0    0  0.00000000000E+00  0.17763568394E-14 -0.84997387634E+02  0.11508779449E+03  0.77592812392E+02 0.  0.
         66    2    3    3    0    0  0.17272592235E+02 -0.15207046037E+02 -0.88806389762E+02  0.91761492744E+02  0.19999990616E+01 0.  0.
        -13    1    3    3    0    0 -0.17272592235E+02  0.15207046037E+02  0.38090021285E+01  0.23326301742E+02  0.10566000000E+00 0.  1.
         13    1    4    4    0    0  0.14896835199E+01 -0.19846418175E+01 -0.84389759320E+01  0.87968993941E+01  0.10566000000E+00 0. -1.
        -13    1    4    4    0    0  0.35787740158E+01 -0.27750322413E+01 -0.17309989089E+02  0.17892884443E+02  0.10566000000E+00 0. -1.
         14    1    4    4    0    0  0.12204134699E+02 -0.10447371978E+02 -0.63057424742E+02  0.65071708907E+02  0.00000000000E+00 0. -1.
<mgrwt>
<rscale>  0 0.77592812E+02</rscale>
<asrwt>0</asrwt>
<pdfrwt beam="1">  1        2 0.15391167E-01 0.77592812E+02</pdfrwt>
<pdfrwt beam="2">  1       -1 0.23146468E-02 0.77592812E+02</pdfrwt>
<totfact> 0.19237074E+05</totfact>
</mgrwt>
</event>
<event>
 8    1  0.1493610E-013  0.7941511E+02  0.7818608E-02  0.1330720E+00
          2   -1    0    0  501    0  0.00000000000E+00  0.00000000000E+00  0.59160383694E+03  0.59160383694E+03  0.25500000000E-02 0. -1.
         -1   -1    0    0    0  501 -0.00000000000E+00 -0.00000000000E+00 -0.26651085419E+01  0.26651133075E+01  0.50400000000E-02 0.  1.
         24    2    1    2    0    0  0.00000000000E+00  0.00000000000E+00  0.58893872840E+03  0.59426895025E+03  0.79415108308E+02 0.  0.
         66    2    3    3    0    0  0.38487288518E+02  0.44768244558E+01  0.35875350750E+03  0.36084538585E+03  0.20000027211E+01 0.  0.
        -13    1    3    3    0    0 -0.38487288518E+02 -0.44768244558E+01  0.23018522089E+03  0.23342356440E+03  0.10566000000E+00 0.  1.
         13    1    4    4    0    0  0.74263479673E+01  0.53433412426E+00  0.67406765755E+02  0.67816807582E+02  0.10566000000E+00 0. -1.
        -13    1    4    4    0    0  0.25962649124E+01 -0.92628484482E-01  0.24707625099E+02  0.24844055096E+02  0.10566000000E+00 0.  1.
         14    1    4    4    0    0  0.28464675638E+02  0.40351188160E+01  0.26663911665E+03  0.26818452317E+03  0.00000000000E+00 0. -1.
<mgrwt>
<rscale>  0 0.79415108E+02</rscale>
<asrwt>0</asrwt>
<pdfrwt beam="1">  1        2 0.91016129E-01 0.79415108E+02</pdfrwt>
<pdfrwt beam="2">  1       -1 0.41001638E-03 0.79415108E+02</pdfrwt>
<totfact> 0.32654222E+05</totfact>
</mgrwt>
</event>
<event>
 8    1  0.1493610E-013  0.8073982E+02  0.7818608E-02  0.1326965E+00
          2   -1    0    0  501    0  0.00000000000E+00  0.00000000000E+00  0.11565023992E+03  0.11565023995E+03  0.25500000000E-02 0. -1.
         -1   -1    0    0    0  501 -0.00000000000E+00 -0.00000000000E+00 -0.14091882176E+02  0.14091883078E+02  0.50400000000E-02 0.  1.
         24    2    1    2    0    0  0.00000000000E+00  0.35527136788E-14  0.10155835775E+03  0.12974212303E+03  0.80739819543E+02 0.  0.
         66    2    3    3    0    0  0.16952554208E+02  0.26383937547E+02  0.91596283264E+02  0.96836875018E+02  0.20000001856E+01 0.  0.
        -13    1    3    3    0    0 -0.16952554208E+02 -0.26383937547E+02  0.99620744829E+01  0.32905248011E+02  0.10566000000E+00 0.  1.
         13    1    4    4    0    0  0.15893956513E+01  0.20749448440E+01  0.79819282456E+01  0.83996379205E+01  0.10566000000E+00 0.  1.
        -13    1    4    4    0    0  0.65768732420E+01  0.10420919461E+02  0.38395483399E+02  0.40324621926E+02  0.10566000000E+00 0.  1.
         14    1    4    4    0    0  0.87862853149E+01  0.13888073241E+02  0.45218871620E+02  0.48112615171E+02  0.00000000000E+00 0. -1.
<mgrwt>
<rscale>  0 0.80739820E+02</rscale>
<asrwt>0</asrwt>
<pdfrwt beam="1">  1        2 0.17792345E-01 0.80739820E+02</pdfrwt>
<pdfrwt beam="2">  1       -1 0.21679819E-02 0.80739820E+02</pdfrwt>
<totfact> 0.18033827E+05</totfact>
</mgrwt>
</event>
<event>
 8    1  0.1493610E-013  0.8002154E+02  0.7818608E-02  0.1328990E+00
         -1   -1    0    0    0  501 -0.00000000000E+00  0.00000000000E+00  0.11192303385E+02  0.11192304519E+02  0.50400000000E-02 0.  1.
          2   -1    0    0  501    0  0.00000000000E+00 -0.00000000000E+00 -0.14303234922E+03  0.14303234924E+03  0.25500000000E-02 0. -1.
         24    2    1    2    0    0  0.00000000000E+00  0.00000000000E+00 -0.13184004584E+03  0.15422465376E+03  0.80021535490E+02 0.  0.
         66    2    3    3    0    0 -0.95220275073E+01 -0.17100799970E+02 -0.13316105899E+03  0.13460673830E+03  0.19999992886E+01 0.  0.
        -13    1    3    3    0    0  0.95220275073E+01  0.17100799970E+02  0.13210131497E+01  0.19617915466E+02  0.10566000000E+00 0.  1.
         13    1    4    4    0    0 -0.22060331928E+01 -0.38848525489E+01 -0.27411263402E+02  0.27773137869E+02  0.10566000000E+00 0. -1.
        -13    1    4    4    0    0 -0.11806930101E+01 -0.14460503872E+01 -0.10817793256E+02  0.10978201705E+02  0.10566000000E+00 0.  1.
         14    1    4    4    0    0 -0.61353013045E+01 -0.11769897034E+02 -0.94932002328E+02  0.95855398723E+02  0.00000000000E+00 0. -1.
<mgrwt>
<rscale>  0 0.80021535E+02</rscale>
<asrwt>0</asrwt>
<pdfrwt beam="1">  1        2 0.22004975E-01 0.80021535E+02</pdfrwt>
<pdfrwt beam="2">  1       -1 0.17218930E-02 0.80021535E+02</pdfrwt>
<totfact> 0.19713413E+05</totfact>
</mgrwt>
</event>
<event>
 8    1  0.1493610E-013  0.8356982E+02  0.7818608E-02  0.1319216E+00
         -1   -1    0    0    0  501 -0.00000000000E+00  0.00000000000E+00  0.38485148284E+02  0.38485148614E+02  0.50400000000E-02 0.  1.
          2   -1    0    0  501    0  0.00000000000E+00 -0.00000000000E+00 -0.45367597873E+02  0.45367597945E+02  0.25500000000E-02 0. -1.
         24    2    1    2    0    0  0.88817841970E-15  0.35527136788E-14 -0.68824495888E+01  0.83852746559E+02  0.83569821067E+02 0.  0.
         66    2    3    3    0    0 -0.72482583555E+01 -0.15403384790E+02 -0.41705901728E+02  0.45090838775E+02  0.19999975685E+01 0.  0.
        -13    1    3    3    0    0  0.72482583555E+01  0.15403384790E+02  0.34823452139E+02  0.38761907785E+02  0.10566000000E+00 0.  1.
         13    1    4    4    0    0 -0.24348861416E+01 -0.61085563550E+01 -0.17187552921E+02  0.18402887565E+02  0.10566000000E+00 0. -1.
        -13    1    4    4    0    0 -0.47582220173E+01 -0.85168198464E+01 -0.22506106176E+02  0.24529836450E+02  0.10566000000E+00 0.  1.
        -14    1    4    4    0    0 -0.55150196591E-01 -0.77800858894E+00 -0.20122426312E+01  0.21581147596E+01  0.00000000000E+00 0.  1.
<mgrwt>
<rscale>  0 0.83569821E+02</rscale>
<asrwt>0</asrwt>
<pdfrwt beam="1">  1        2 0.69796305E-02 0.83569821E+02</pdfrwt>
<pdfrwt beam="2">  1       -1 0.59207921E-02 0.83569821E+02</pdfrwt>
<totfact> 0.12973942E+05</totfact>
</mgrwt>
</event>
<event>
 8    1  0.1493610E-013  0.8503679E+02  0.7818608E-02  0.1315336E+00
          2   -1    0    0  501    0  0.00000000000E+00  0.00000000000E+00  0.93043952668E+02  0.93043952703E+02  0.25500000000E-02 0. -1.
         -1   -1    0    0    0  501 -0.00000000000E+00 -0.00000000000E+00 -0.19429677528E+02  0.19429678182E+02  0.50400000000E-02 0.  1.
         24    2    1    2    0    0  0.35527136788E-14  0.00000000000E+00  0.73614275139E+02  0.11247363088E+03  0.85036792861E+02 0.  0.
         66    2    3    3    0    0  0.14765021636E+02 -0.38449679370E+02  0.50663190838E+02  0.65323369568E+02  0.19999995674E+01 0.  0.
        -13    1    3    3    0    0 -0.14765021636E+02  0.38449679370E+02  0.22951084301E+02  0.47150261316E+02  0.10566000000E+00 0.  1.
         13    1    4    4    0    0  0.10668152859E+01 -0.16630805324E+01  0.23639397917E+01  0.30827434349E+01  0.10566000000E+00 0. -1.
        -13    1    4    4    0    0  0.15439619844E+01 -0.39300628761E+01  0.51273988634E+01  0.66430863278E+01  0.10566000000E+00 0. -1.
         14    1    4    4    0    0  0.12154244365E+02 -0.32856535962E+02  0.43171852183E+02  0.55597539805E+02  0.00000000000E+00 0. -1.
<mgrwt>
<rscale>  0 0.85036793E+02</rscale>
<asrwt>0</asrwt>
<pdfrwt beam="1">  1        2 0.14314454E-01 0.85036793E+02</pdfrwt>
<pdfrwt beam="2">  1       -1 0.29891813E-02 0.85036793E+02</pdfrwt>
<totfact> 0.14740910E+05</totfact>
</mgrwt>
</event>
<event>
 8    1  0.1493610E-013  0.7827602E+02  0.7818608E-02  0.1334016E+00
         -1   -1    0    0    0  501 -0.00000000000E+00  0.00000000000E+00  0.48411066979E+02  0.48411067241E+02  0.50400000000E-02 0.  1.
          2   -1    0    0  501    0  0.00000000000E+00 -0.00000000000E+00 -0.31641191476E+02  0.31641191579E+02  0.25500000000E-02 0. -1.
         24    2    1    2    0    0  0.00000000000E+00 -0.35527136788E-14  0.16769875503E+02  0.80052258820E+02  0.78276020707E+02 0.  0.
         66    2    3    3    0    0 -0.13299520178E+02 -0.23161278795E+02 -0.20831706724E+02  0.33930547855E+02  0.20000000812E+01 0.  0.
        -13    1    3    3    0    0  0.13299520178E+02  0.23161278795E+02  0.37601582226E+02  0.46121710965E+02  0.10566000000E+00 0.  1.
         13    1    4    4    0    0 -0.99181747220E+00 -0.23742483610E+01 -0.16112025554E+01  0.30377450334E+01  0.10566000000E+00 0. -1.
        -13    1    4    4    0    0 -0.99340304988E+01 -0.16696605347E+02 -0.16029935854E+02  0.25187925671E+02  0.10566000000E+00 0.  1.
        -14    1    4    4    0    0 -0.23736722072E+01 -0.40904250872E+01 -0.31905683138E+01  0.57048771508E+01  0.00000000000E+00 0.  1.
<mgrwt>
<rscale>  0 0.78276021E+02</rscale>
<asrwt>0</asrwt>
<pdfrwt beam="1">  1        2 0.48678757E-02 0.78276021E+02</pdfrwt>
<pdfrwt beam="2">  1       -1 0.74478565E-02 0.78276021E+02</pdfrwt>
<totfact> 0.14449887E+05</totfact>
</mgrwt>
</event>
<event>
 8    1  0.1493610E-013  0.7593734E+02  0.7818608E-02  0.1340993E+00
         -1   -1    0    0    0  501 -0.00000000000E+00  0.00000000000E+00  0.64160586641E+01  0.64160606436E+01  0.50400000000E-02 0.  1.
          2   -1    0    0  501    0  0.00000000000E+00 -0.00000000000E+00 -0.22468927697E+03  0.22468927698E+03  0.25500000000E-02 0. -1.
         24    2    1    2    0    0 -0.27755575616E-16  0.71054273576E-14 -0.21827321830E+03  0.23110533762E+03  0.75937337657E+02 0.  0.
         66    2    3    3    0    0 -0.93883120342E-01  0.36328864713E+02 -0.75898722318E+02  0.84168944937E+02  0.20000042187E+01 0.  0.
        -13    1    3    3    0    0  0.93883120342E-01 -0.36328864713E+02 -0.14237449598E+03  0.14693639269E+03  0.10566000000E+00 0.  1.
         13    1    4    4    0    0  0.19331848222E+00  0.93724674385E+00 -0.22556407414E+01  0.24525257765E+01  0.10566000000E+00 0. -1.
        -13    1    4    4    0    0 -0.45731959437E+00  0.53895749379E+01 -0.10861646405E+02  0.12134380326E+02  0.10566000000E+00 0.  1.
         14    1    4    4    0    0  0.17011799181E+00  0.30002043031E+02 -0.62781435172E+02  0.69582038835E+02  0.00000000000E+00 0. -1.
<mgrwt>
<rscale>  0 0.75937338E+02</rscale>
<asrwt>0</asrwt>
<pdfrwt beam="1">  1        2 0.34567575E-01 0.75937338E+02</pdfrwt>
<pdfrwt beam="2">  1       -1 0.98708628E-03 0.75937338E+02</pdfrwt>
<totfact> 0.26348654E+05</totfact>
</mgrwt>
</event>
<event>
 8    1  0.1493610E-013  0.8000672E+02  0.7818608E-02  0.1329032E+00
         -1   -1    0    0    0  501 -0.00000000000E+00  0.00000000000E+00  0.12920552024E+02  0.12920553007E+02  0.50400000000E-02 0.  1.
          2   -1    0    0  501    0  0.00000000000E+00 -0.00000000000E+00 -0.12385451229E+03  0.12385451232E+03  0.25500000000E-02 0. -1.
         24    2    1    2    0    0 -0.17763568394E-14  0.00000000000E+00 -0.11093396027E+03  0.13677506533E+03  0.80006718180E+02 0.  0.
         66    2    3    3    0    0  0.10863376711E+02 -0.28872090123E+02 -0.98974203392E+02  0.10368945682E+03  0.19999942438E+01 0.  0.
        -13    1    3    3    0    0 -0.10863376711E+02  0.28872090123E+02 -0.11959756877E+02  0.33085608506E+02  0.10566000000E+00 0.  1.
         13    1    4    4    0    0  0.84685568097E+01 -0.20169682343E+02 -0.69976281317E+02  0.73315916767E+02  0.10566000000E+00 0. -1.
        -13    1    4    4    0    0  0.17121313129E+01 -0.61007934271E+01 -0.19683954670E+02  0.20678982315E+02  0.10566000000E+00 0.  1.
         14    1    4    4    0    0  0.68268858803E+00 -0.26016143529E+01 -0.93139674042E+01  0.96945577391E+01  0.00000000000E+00 0. -1.
<mgrwt>
<rscale>  0 0.80006718E+02</rscale>
<asrwt>0</asrwt>
<pdfrwt beam="1">  1        2 0.19054540E-01 0.80006718E+02</pdfrwt>
<pdfrwt beam="2">  1       -1 0.19877774E-02 0.80006718E+02</pdfrwt>
<totfact> 0.18861080E+05</totfact>
</mgrwt>
</event>
<event>
 8    1  0.1493610E-013  0.7636385E+02  0.7818608E-02  0.1339699E+00
          2   -1    0    0  501    0  0.00000000000E+00  0.00000000000E+00  0.66391141095E+02  0.66391141144E+02  0.25500000000E-02 0. -1.
         -1   -1    0    0    0  501 -0.00000000000E+00 -0.00000000000E+00 -0.21958642963E+02  0.21958643542E+02  0.50400000000E-02 0.  1.
         24    2    1    2    0    0 -0.71054273576E-14  0.00000000000E+00  0.44432498131E+02  0.88349784686E+02  0.76363849849E+02 0.  0.
         66    2    3    3    0    0  0.38084077804E+02 -0.22685901061E+01  0.22876656563E+02  0.44529595811E+02  0.20000010865E+01 0.  0.
        -13    1    3    3    0    0 -0.38084077804E+02  0.22685901061E+01  0.21555841568E+02  0.43820188874E+02  0.10566000000E+00 0.  1.
         13    1    4    4    0    0  0.16502307031E+02 -0.11982279950E+01  0.10393386177E+02  0.19539588735E+02  0.10566000000E+00 0. -1.
        -13    1    4    4    0    0  0.13558842672E+02 -0.12128660825E+01  0.82399050063E+01  0.15912902227E+02  0.10566000000E+00 0.  1.
         14    1    4    4    0    0  0.80229281004E+01  0.14250397143E+00  0.42433653800E+01  0.90771048487E+01  0.00000000000E+00 0. -1.
<mgrwt>
<rscale>  0 0.76363850E+02</rscale>
<asrwt>0</asrwt>
<pdfrwt beam="1">  1        2 0.10214021E-01 0.76363850E+02</pdfrwt>
<pdfrwt beam="2">  1       -1 0.33782529E-02 0.76363850E+02</pdfrwt>
<totfact> 0.18077179E+05</totfact>
</mgrwt>
</event>
<event>
 8    1  0.1493610E-013  0.8018084E+02  0.7818608E-02  0.1328539E+00
         -1   -1    0    0    0  501 -0.00000000000E+00  0.00000000000E+00  0.45935944478E+01  0.45935972127E+01  0.50400000000E-02 0.  1.
          2   -1    0    0  501    0  0.00000000000E+00 -0.00000000000E+00 -0.34988751906E+03  0.34988751907E+03  0.25500000000E-02 0. -1.
         24    2    1    2    0    0  0.00000000000E+00  0.35527136788E-14 -0.34529392461E+03  0.35448111628E+03  0.80180842016E+02 0.  0.
         66    2    3    3    0    0  0.21982350994E+02 -0.29009406338E+02 -0.24679362692E+03  0.24947116808E+03  0.20000012475E+01 0.  0.
        -13    1    3    3    0    0 -0.21982350994E+02  0.29009406338E+02 -0.98500297693E+02  0.10500994820E+03  0.10566000000E+00 0.  1.
         13    1    4    4    0    0  0.18800945779E+02 -0.24025116810E+02 -0.20325214439E+03  0.20552889617E+03  0.10566000000E+00 0. -1.
        -13    1    4    4    0    0  0.73325358195E+00 -0.12208020450E+01 -0.11183813514E+02  0.11274611621E+02  0.10566000000E+00 0.  1.
         14    1    4    4    0    0  0.24481516330E+01 -0.37634874826E+01 -0.32357669016E+02  0.32667660286E+02  0.00000000000E+00 0. -1.
<mgrwt>
<rscale>  0 0.80180842E+02</rscale>
<asrwt>0</asrwt>
<pdfrwt beam="1">  1        2 0.53828828E-01 0.80180842E+02</pdfrwt>
<pdfrwt beam="2">  1       -1 0.70670733E-03 0.80180842E+02</pdfrwt>
<totfact> 0.26787743E+05</totfact>
</mgrwt>
</event>
<event>
 8    1  0.1493610E-013  0.8038110E+02  0.7818608E-02  0.1327973E+00
         -1   -1    0    0    0  501 -0.00000000000E+00  0.00000000000E+00  0.27935005017E+02  0.27935005471E+02  0.50400000000E-02 0.  1.
          2   -1    0    0  501    0  0.00000000000E+00 -0.00000000000E+00 -0.57822800211E+02  0.57822800267E+02  0.25500000000E-02 0. -1.
         24    2    1    2    0    0 -0.35527136788E-14  0.00000000000E+00 -0.29887795194E+02  0.85757805738E+02  0.80381098173E+02 0.  0.
         66    2    3    3    0    0  0.16711998996E+02  0.27734447227E+02 -0.40307983699E+02  0.51741898196E+02  0.20000013990E+01 0.  0.
        -13    1    3    3    0    0 -0.16711998996E+02 -0.27734447227E+02  0.10420188505E+02  0.34015907543E+02  0.10566000000E+00 0.  1.
         13    1    4    4    0    0  0.10262534805E+02  0.15580649818E+02 -0.23228302509E+02  0.29793312519E+02  0.10566000000E+00 0.  1.
        -13    1    4    4    0    0  0.50509961749E+01  0.10067164450E+02 -0.14269436346E+02  0.18179338274E+02  0.10566000000E+00 0. -1.
         14    1    4    4    0    0  0.13984680162E+01  0.20866329594E+01 -0.28102448443E+01  0.37692474029E+01  0.00000000000E+00 0. -1.
<mgrwt>
<rscale>  0 0.80381098E+02</rscale>
<asrwt>0</asrwt>
<pdfrwt beam="1">  1        2 0.88958154E-02 0.80381098E+02</pdfrwt>
<pdfrwt beam="2">  1       -1 0.42976932E-02 0.80381098E+02</pdfrwt>
<totfact> 0.15236069E+05</totfact>
</mgrwt>
</event>
<event>
 8    1  0.1493610E-013  0.7912986E+02  0.7818608E-02  0.1331539E+00
          2   -1    0    0  501    0  0.00000000000E+00  0.00000000000E+00  0.42124429231E+02  0.42124429308E+02  0.25500000000E-02 0. -1.
         -1   -1    0    0    0  501 -0.00000000000E+00 -0.00000000000E+00 -0.37160944457E+02  0.37160944799E+02  0.50400000000E-02 0.  1.
         24    2    1    2    0    0  0.00000000000E+00  0.00000000000E+00  0.49634847740E+01  0.79285374107E+02  0.79129857616E+02 0.  0.
         66    2    3    3    0    0  0.10421552355E+02 -0.37248264470E+02  0.10705343957E+02  0.40182662303E+02  0.20000002541E+01 0.  0.
        -13    1    3    3    0    0 -0.10421552355E+02  0.37248264470E+02 -0.57418591827E+01  0.39102711804E+02  0.10566000000E+00 0.  1.
         13    1    4    4    0    0  0.22722626071E+01 -0.10275154266E+02  0.33689264170E+01  0.11050013656E+02  0.10566000000E+00 0. -1.
        -13    1    4    4    0    0  0.30986366854E+01 -0.11649331755E+02  0.28874948300E+01  0.12395856972E+02  0.10566000000E+00 0.  1.
         14    1    4    4    0    0  0.50506530625E+01 -0.15323778449E+02  0.44489227097E+01  0.16736791676E+02  0.00000000000E+00 0. -1.
<mgrwt>
<rscale>  0 0.79129858E+02</rscale>
<asrwt>0</asrwt>
<pdfrwt beam="1">  1        2 0.64806814E-02 0.79129858E+02</pdfrwt>
<pdfrwt beam="2">  1       -1 0.57170685E-02 0.79129858E+02</pdfrwt>
<totfact> 0.14849368E+05</totfact>
</mgrwt>
</event>
<event>
 8    1  0.1493610E-013  0.7939536E+02  0.7818608E-02  0.1330776E+00
         -1   -1    0    0    0  501 -0.00000000000E+00  0.00000000000E+00  0.47240794824E+01  0.47240821709E+01  0.50400000000E-02 0.  1.
          2   -1    0    0  501    0  0.00000000000E+00 -0.00000000000E+00 -0.33358993241E+03  0.33358993242E+03  0.25500000000E-02 0. -1.
         24    2    1    2    0    0  0.00000000000E+00  0.00000000000E+00 -0.32886585293E+03  0.33831401459E+03  0.79395360360E+02 0.  0.
         66    2    3    3    0    0  0.31254141462E+02  0.65494907665E-01 -0.26865823014E+03  0.27047748569E+03  0.19999981661E+01 0.  0.
        -13    1    3    3    0    0 -0.31254141462E+02 -0.65494907665E-01 -0.60207622785E+02  0.67836528903E+02  0.10566000000E+00 0.  1.
         13    1    4    4    0    0  0.96571944692E+01  0.40141104528E+00 -0.88796405213E+02  0.89320967744E+02  0.10566000000E+00 0. -1.
        -13    1    4    4    0    0  0.33031379875E+01  0.53654804632E-01 -0.25071883263E+02  0.25288813610E+02  0.10566000000E+00 0.  1.
        -14    1    4    4    0    0  0.18293809005E+02 -0.38957094225E+00 -0.15478994167E+03  0.15586770433E+03  0.00000000000E+00 0.  1.
<mgrwt>
<rscale>  0 0.79395360E+02</rscale>
<asrwt>0</asrwt>
<pdfrwt beam="1">  1        2 0.51321510E-01 0.79395360E+02</pdfrwt>
<pdfrwt beam="2">  1       -1 0.72678193E-03 0.79395360E+02</pdfrwt>
<totfact> 0.27021180E+05</totfact>
</mgrwt>
</event>
<event>
 8    1  0.1493610E-013  0.8097150E+02  0.7818608E-02  0.1326317E+00
         -1   -1    0    0    0  501 -0.00000000000E+00  0.00000000000E+00  0.32564581325E+02  0.32564581715E+02  0.50400000000E-02 0.  1.
          2   -1    0    0  501    0  0.00000000000E+00 -0.00000000000E+00 -0.50333699024E+02  0.50333699088E+02  0.25500000000E-02 0. -1.
         24    2    1    2    0    0  0.35527136788E-14  0.71054273576E-14 -0.17769117699E+02  0.82898280803E+02  0.80971497555E+02 0.  0.
         66    2    3    3    0    0 -0.19898288219E+02 -0.34484391005E+02 -0.15089869218E+01  0.39892256644E+02  0.20000003891E+01 0.  0.
        -13    1    3    3    0    0  0.19898288219E+02  0.34484391005E+02 -0.16260130777E+02  0.43006024159E+02  0.10566000000E+00 0.  1.
         13    1    4    4    0    0 -0.13858952283E+02 -0.22646821259E+02 -0.45648442217E+00  0.26555011083E+02  0.10566000000E+00 0. -1.
        -13    1    4    4    0    0 -0.26474364148E+01 -0.54823960983E+01 -0.62066899416E+00  0.61206192975E+01  0.10566000000E+00 0.  1.
         14    1    4    4    0    0 -0.33918995211E+01 -0.63551736479E+01 -0.43183350548E+00  0.72166262639E+01  0.00000000000E+00 0. -1.
<mgrwt>
<rscale>  0 0.80971498E+02</rscale>
<asrwt>0</asrwt>
<pdfrwt beam="1">  1        2 0.77436460E-02 0.80971498E+02</pdfrwt>
<pdfrwt beam="2">  1       -1 0.50099356E-02 0.80971498E+02</pdfrwt>
<totfact> 0.14477670E+05</totfact>
</mgrwt>
</event>
<event>
 8    1  0.1493610E-013  0.8075400E+02  0.7818608E-02  0.1326925E+00
         -1   -1    0    0    0  501 -0.00000000000E+00  0.00000000000E+00  0.19267360731E+01  0.19267426649E+01  0.50400000000E-02 0.  1.
          2   -1    0    0  501    0  0.00000000000E+00 -0.00000000000E+00 -0.84614558429E+03  0.84614558429E+03  0.25500000000E-02 0. -1.
         24    2    1    2    0    0 -0.35527136788E-14  0.00000000000E+00 -0.84421884822E+03  0.84807232696E+03  0.80753997229E+02 0.  0.
         66    2    3    3    0    0 -0.20067111533E+02  0.31995404256E+00 -0.79001081276E+03  0.79026823015E+03  0.19999923636E+01 0.  0.
        -13    1    3    3    0    0  0.20067111533E+02 -0.31995404256E+00 -0.54208035458E+02  0.57804096811E+02  0.10566000000E+00 0.  1.
         13    1    4    4    0    0 -0.11747612932E+02  0.53293228439E+00 -0.43243359503E+03  0.43259347626E+03  0.10566000000E+00 0. -1.
        -13    1    4    4    0    0 -0.78523301194E+01 -0.55282436429E-01 -0.33298652608E+03  0.33307911952E+03  0.10566000000E+00 0.  1.
         14    1    4    4    0    0 -0.46716848163E+00 -0.15769580540E+00 -0.24590691645E+02  0.24595634367E+02  0.00000000000E+00 0. -1.
<mgrwt>
<rscale>  0 0.80753997E+02</rscale>
<asrwt>0</asrwt>
<pdfrwt beam="1">  1        2 0.13017595E+00 0.80753997E+02</pdfrwt>
<pdfrwt beam="2">  1       -1 0.29642212E-03 0.80753997E+02</pdfrwt>
<totfact> 0.33837805E+05</totfact>
</mgrwt>
</event>
<event>
 8    1  0.1493610E-013  0.7900687E+02  0.7818608E-02  0.1331894E+00
          2   -1    0    0  501    0  0.00000000000E+00  0.00000000000E+00  0.47770715531E+03  0.47770715532E+03  0.25500000000E-02 0. -1.
         -1   -1    0    0    0  501 -0.00000000000E+00 -0.00000000000E+00 -0.32666887564E+01  0.32666926443E+01  0.50400000000E-02 0.  1.
         24    2    1    2    0    0  0.00000000000E+00  0.35527136788E-14  0.47444046656E+03  0.48097384796E+03  0.79006873871E+02 0.  0.
         66    2    3    3    0    0 -0.26060897593E+02 -0.18552901664E+02  0.37819971688E+03  0.37955553796E+03  0.19999994109E+01 0.  0.
        -13    1    3    3    0    0  0.26060897593E+02  0.18552901664E+02  0.96240749671E+02  0.10141831001E+03  0.10566000000E+00 0.  1.
         13    1    4    4    0    0 -0.10943790263E+02 -0.68349519179E+01  0.15456170805E+03  0.15509937418E+03  0.10566000000E+00 0. -1.
        -13    1    4    4    0    0 -0.17179485015E+01 -0.16288087156E+01  0.26117528063E+02  0.26224812698E+02  0.10566000000E+00 0.  1.
         14    1    4    4    0    0 -0.13399158828E+02 -0.10089141031E+02  0.19752048078E+03  0.19823135108E+03  0.00000000000E+00 0. -1.
<mgrwt>
<rscale>  0 0.79006874E+02</rscale>
<asrwt>0</asrwt>
<pdfrwt beam="1">  1        2 0.73493395E-01 0.79006874E+02</pdfrwt>
<pdfrwt beam="2">  1       -1 0.50256790E-03 0.79006874E+02</pdfrwt>
<totfact> 0.30999270E+05</totfact>
</mgrwt>
</event>
<event>
 8    1  0.1493610E-013  0.7803902E+02  0.7818608E-02  0.1334710E+00
          2   -1    0    0  501    0  0.00000000000E+00  0.00000000000E+00  0.34631559537E+02  0.34631559631E+02  0.25500000000E-02 0. -1.
         -1   -1    0    0    0  501 -0.00000000000E+00 -0.00000000000E+00 -0.43963427328E+02  0.43963427617E+02  0.50400000000E-02 0.  1.
         24    2    1    2    0    0 -0.71054273576E-14  0.00000000000E+00 -0.93318677914E+01  0.78594987248E+02  0.78039017575E+02 0.  0.
         66    2    3    3    0    0 -0.21580378357E+02  0.83596156871E+01  0.26938048436E+02  0.35570414134E+02  0.20000009159E+01 0.  0.
        -13    1    3    3    0    0  0.21580378357E+02 -0.83596156871E+01 -0.36269916227E+02  0.43024573114E+02  0.10566000000E+00 0.  1.
         13    1    4    4    0    0 -0.18763671454E+01  0.92976555831E+00  0.20260829790E+01  0.29157149948E+01  0.10566000000E+00 0. -1.
        -13    1    4    4    0    0 -0.15947353938E+01  0.99663584137E+00  0.19381983650E+01  0.27026359196E+01  0.10566000000E+00 0.  1.
        -14    1    4    4    0    0 -0.18109275818E+02  0.64332142874E+01  0.22973767092E+02  0.29952063220E+02  0.00000000000E+00 0.  1.
<mgrwt>
<rscale>  0 0.78039018E+02</rscale>
<asrwt>0</asrwt>
<pdfrwt beam="1">  1        2 0.53279322E-02 0.78039018E+02</pdfrwt>
<pdfrwt beam="2">  1       -1 0.67636043E-02 0.78039018E+02</pdfrwt>
<totfact> 0.14832523E+05</totfact>
</mgrwt>
</event>
<event>
 8    1  0.1493610E-013  0.8129631E+02  0.7818608E-02  0.1325412E+00
          2   -1    0    0  501    0  0.00000000000E+00  0.00000000000E+00  0.69950089503E+03  0.69950089503E+03  0.25500000000E-02 0. -1.
         -1   -1    0    0    0  501 -0.00000000000E+00 -0.00000000000E+00 -0.23620709682E+01  0.23620763452E+01  0.50400000000E-02 0.  1.
         24    2    1    2    0    0 -0.35527136788E-14 -0.17763568394E-14  0.69713882406E+03  0.70186297138E+03  0.81296313445E+02 0.  0.
         66    2    3    3    0    0  0.15242158597E+02  0.83486186340E+01  0.66578460339E+03  0.66601438494E+03  0.20000005867E+01 0.  0.
        -13    1    3    3    0    0 -0.15242158597E+02 -0.83486186340E+01  0.31354220664E+02  0.35848586433E+02  0.10566000000E+00 0.  1.
         13    1    4    4    0    0  0.14523079201E+01  0.64396449995E+00  0.61643328220E+02  0.61663887055E+02  0.10566000000E+00 0. -1.
        -13    1    4    4    0    0  0.90434631491E+01  0.59277722937E+01  0.39717637471E+03  0.39732355392E+03  0.10566000000E+00 0.  1.
         14    1    4    4    0    0  0.47463875275E+01  0.17768818403E+01  0.20696490047E+03  0.20702694397E+03  0.00000000000E+00 0. -1.
<mgrwt>
<rscale>  0 0.81296313E+02</rscale>
<asrwt>0</asrwt>
<pdfrwt beam="1">  1        2 0.10761547E+00 0.81296313E+02</pdfrwt>
<pdfrwt beam="2">  1       -1 0.36339613E-03 0.81296313E+02</pdfrwt>
<totfact> 0.32076415E+05</totfact>
</mgrwt>
</event>
<event>
 8    1  0.1493610E-013  0.8019581E+02  0.7818608E-02  0.1328497E+00
         -1   -1    0    0    0  501 -0.00000000000E+00  0.00000000000E+00  0.92279108377E+01  0.92279122140E+01  0.50400000000E-02 0.  1.
          2   -1    0    0  501    0  0.00000000000E+00 -0.00000000000E+00 -0.17423682901E+03  0.17423682903E+03  0.25500000000E-02 0. -1.
         24    2    1    2    0    0  0.00000000000E+00  0.00000000000E+00 -0.16500891818E+03  0.18346474125E+03  0.80195811630E+02 0.  0.
         66    2    3    3    0    0  0.38087052073E+02  0.49102558561E+01 -0.56361307812E+02  0.68229987157E+02  0.19999952441E+01 0.  0.
        -13    1    3    3    0    0 -0.38087052073E+02 -0.49102558561E+01 -0.10864761036E+03  0.11523475409E+03  0.10566000000E+00 0.  1.
         13    1    4    4    0    0  0.20354699600E+02  0.32088170436E+01 -0.29377827826E+02  0.35884233786E+02  0.10566000000E+00 0. -1.
        -13    1    4    4    0    0  0.10851533357E+02  0.61015342696E+00 -0.16330040920E+02  0.19616560960E+02  0.10566000000E+00 0.  1.
        -14    1    4    4    0    0  0.68808191165E+01  0.10912853855E+01 -0.10653439066E+02  0.12729192411E+02  0.00000000000E+00 0.  1.
<mgrwt>
<rscale>  0 0.80195812E+02</rscale>
<asrwt>0</asrwt>
<pdfrwt beam="1">  1        2 0.26805664E-01 0.80195812E+02</pdfrwt>
<pdfrwt beam="2">  1       -1 0.14196788E-02 0.80195812E+02</pdfrwt>
<totfact> 0.20906258E+05</totfact>
</mgrwt>
</event>
<event>
 8    1  0.1493610E-013  0.7736427E+02  0.7818608E-02  0.1336702E+00
         -1   -1    0    0    0  501 -0.00000000000E+00  0.00000000000E+00  0.57888701484E+01  0.57888723424E+01  0.50400000000E-02 0.  1.
          2   -1    0    0  501    0  0.00000000000E+00 -0.00000000000E+00 -0.25848000092E+03  0.25848000093E+03  0.25500000000E-02 0. -1.
         24    2    1    2    0    0  0.00000000000E+00  0.00000000000E+00 -0.25269113077E+03  0.26426887327E+03  0.77364267018E+02 0.  0.
         66    2    3    3    0    0 -0.54210885741E+01 -0.33230515714E+02 -0.19130020969E+03  0.19425093464E+03  0.20000008503E+01 0.  0.
        -13    1    3    3    0    0  0.54210885741E+01  0.33230515714E+02 -0.61390921075E+02  0.70017938633E+02  0.10566000000E+00 0.  1.
         13    1    4    4    0    0 -0.17802462052E+01 -0.10670510909E+02 -0.62080977070E+02  0.63016568913E+02  0.10566000000E+00 0. -1.
        -13    1    4    4    0    0 -0.30556575256E+01 -0.15084527226E+02 -0.84279045465E+02  0.85672916800E+02  0.10566000000E+00 0.  1.
        -14    1    4    4    0    0 -0.58518484317E+00 -0.74754775789E+01 -0.44940187157E+02  0.45561448924E+02  0.00000000000E+00 0.  1.
<mgrwt>
<rscale>  0 0.77364267E+02</rscale>
<asrwt>0</asrwt>
<pdfrwt beam="1">  1        2 0.39766145E-01 0.77364267E+02</pdfrwt>
<pdfrwt beam="2">  1       -1 0.89059578E-03 0.77364267E+02</pdfrwt>
<totfact> 0.26374813E+05</totfact>
</mgrwt>
</event>
<event>
 8    1  0.1493610E-013  0.7978958E+02  0.7818608E-02  0.1329650E+00
         -1   -1    0    0    0  501 -0.00000000000E+00  0.00000000000E+00  0.12685804056E+02  0.12685805057E+02  0.50400000000E-02 0.  1.
          2   -1    0    0  501    0  0.00000000000E+00 -0.00000000000E+00 -0.12546263207E+03  0.12546263210E+03  0.25500000000E-02 0. -1.
         24    2    1    2    0    0  0.00000000000E+00  0.00000000000E+00 -0.11277682802E+03  0.13814843715E+03  0.79789584225E+02 0.  0.
         66    2    3    3    0    0 -0.18235026595E+02  0.19114483214E+02 -0.10812624458E+03  0.11132459042E+03  0.20000002453E+01 0.  0.
        -13    1    3    3    0    0  0.18235026595E+02 -0.19114483214E+02 -0.46505834358E+01  0.26823846737E+02  0.10566000000E+00 0.  1.
         13    1    4    4    0    0 -0.15838700102E+01  0.17297216409E+01 -0.90537832079E+01  0.93532205991E+01  0.10566000000E+00 0. -1.
        -13    1    4    4    0    0 -0.83946666362E+01  0.84464868721E+01 -0.52724661305E+02  0.54052887455E+02  0.10566000000E+00 0.  1.
        -14    1    4    4    0    0 -0.82564899483E+01  0.89382747013E+01 -0.46347800067E+02  0.47918482362E+02  0.00000000000E+00 0.  1.
<mgrwt>
<rscale>  0 0.79789584E+02</rscale>
<asrwt>0</asrwt>
<pdfrwt beam="1">  1        2 0.19301943E-01 0.79789584E+02</pdfrwt>
<pdfrwt beam="2">  1       -1 0.19516623E-02 0.79789584E+02</pdfrwt>
<totfact> 0.19072677E+05</totfact>
</mgrwt>
</event>
<event>
 8    1  0.1493610E-013  0.7684909E+02  0.7818608E-02  0.1338239E+00
         -1   -1    0    0    0  501 -0.00000000000E+00  0.00000000000E+00  0.12204828090E+03  0.12204828101E+03  0.50400000000E-02 0.  1.
          2   -1    0    0  501    0  0.00000000000E+00 -0.00000000000E+00 -0.12097225871E+02  0.12097226140E+02  0.25500000000E-02 0. -1.
         24    2    1    2    0    0  0.00000000000E+00  0.00000000000E+00  0.10995105503E+03  0.13414550714E+03  0.76849089682E+02 0.  0.
         66    2    3    3    0    0 -0.19151417142E+02 -0.87837023271E+01 -0.10228892519E+01  0.21189065635E+02  0.19999987307E+01 0.  0.
        -13    1    3    3    0    0  0.19151417142E+02  0.87837023271E+01  0.11097394428E+03  0.11295644151E+03  0.10566000000E+00 0.  1.
         13    1    4    4    0    0 -0.52328482030E+01 -0.21921412579E+01  0.43457838350E+00  0.56910636982E+01  0.10566000000E+00 0. -1.
        -13    1    4    4    0    0 -0.76138514684E+01 -0.37655172766E+01 -0.12458642853E+01  0.85856389626E+01  0.10566000000E+00 0.  1.
         14    1    4    4    0    0 -0.63047174709E+01 -0.28260437925E+01 -0.21160335012E+00  0.69123629739E+01  0.00000000000E+00 0. -1.
<mgrwt>
<rscale>  0 0.76849090E+02</rscale>
<asrwt>0</asrwt>
<pdfrwt beam="1">  1        2 0.18611118E-02 0.76849090E+02</pdfrwt>
<pdfrwt beam="2">  1       -1 0.18776658E-01 0.76849090E+02</pdfrwt>
<totfact> 0.12543980E+05</totfact>
</mgrwt>
</event>
<event>
 8    1  0.1493610E-013  0.8020007E+02  0.7818608E-02  0.1328485E+00
         -1   -1    0    0    0  501 -0.00000000000E+00  0.00000000000E+00  0.57724111458E+01  0.57724133461E+01  0.50400000000E-02 0.  1.
          2   -1    0    0  501    0  0.00000000000E+00 -0.00000000000E+00 -0.27856858466E+03  0.27856858468E+03  0.25500000000E-02 0. -1.
         24    2    1    2    0    0  0.44408920985E-15  0.35527136788E-14 -0.27279617352E+03  0.28434099802E+03  0.80200067767E+02 0.  0.
         66    2    3    3    0    0  0.39287162457E+01  0.24863397981E+02 -0.24703903517E+03  0.24832621341E+03  0.20000000282E+01 0.  0.
        -13    1    3    3    0    0 -0.39287162457E+01 -0.24863397981E+02 -0.25757138352E+02  0.36014784612E+02  0.10566000000E+00 0.  1.
         13    1    4    4    0    0  0.37100862645E+01  0.21321548830E+02 -0.21607173203E+03  0.21715289022E+03  0.10566000000E+00 0. -1.
        -13    1    4    4    0    0  0.40898036630E-01  0.88231449786E+00 -0.63163820742E+01  0.63787144524E+01  0.10566000000E+00 0. -1.
         14    1    4    4    0    0  0.17773194456E+00  0.26595346537E+01 -0.24650921060E+02  0.24794608735E+02  0.00000000000E+00 0. -1.
<mgrwt>
<rscale>  0 0.80200068E+02</rscale>
<asrwt>0</asrwt>
<pdfrwt beam="1">  1        2 0.42856695E-01 0.80200068E+02</pdfrwt>
<pdfrwt beam="2">  1       -1 0.88806364E-03 0.80200068E+02</pdfrwt>
<totfact> 0.24656868E+05</totfact>
</mgrwt>
</event>
<event>
 8    1  0.1493610E-013  0.8023440E+02  0.7818608E-02  0.1328388E+00
          2   -1    0    0  501    0  0.00000000000E+00  0.00000000000E+00  0.38071628767E+02  0.38071628853E+02  0.25500000000E-02 0. -1.
         -1   -1    0    0    0  501 -0.00000000000E+00 -0.00000000000E+00 -0.42272681632E+02  0.42272681933E+02  0.50400000000E-02 0.  1.
         24    2    1    2    0    0  0.00000000000E+00  0.00000000000E+00 -0.42010528648E+01  0.80344310785E+02  0.80234403035E+02 0.  0.
         66    2    3    3    0    0  0.14102464803E+02 -0.20392336296E+02  0.29447806275E+02  0.38547375747E+02  0.19999973650E+01 0.  0.
        -13    1    3    3    0    0 -0.14102464803E+02  0.20392336296E+02 -0.33648859140E+02  0.41796935038E+02  0.10566000000E+00 0.  1.
         13    1    4    4    0    0  0.10192843082E+02 -0.14877791616E+02  0.22091981761E+02  0.28518582637E+02  0.10566000000E+00 0. -1.
        -13    1    4    4    0    0  0.28949774214E+01 -0.35724549032E+01  0.53832551975E+01  0.70805316794E+01  0.10566000000E+00 0.  1.
         14    1    4    4    0    0  0.10146442998E+01 -0.19420897767E+01  0.19725693164E+01  0.29482614307E+01  0.00000000000E+00 0. -1.
<mgrwt>
<rscale>  0 0.80234403E+02</rscale>
<asrwt>0</asrwt>
<pdfrwt beam="1">  1        2 0.58571737E-02 0.80234403E+02</pdfrwt>
<pdfrwt beam="2">  1       -1 0.65034895E-02 0.80234403E+02</pdfrwt>
<totfact> 0.13997915E+05</totfact>
</mgrwt>
</event>
<event>
 8    1  0.1493610E-013  0.8006975E+02  0.7818608E-02  0.1328854E+00
          2   -1    0    0  501    0  0.00000000000E+00  0.00000000000E+00  0.14292820480E+02  0.14292820708E+02  0.25500000000E-02 0. -1.
         -1   -1    0    0    0  501 -0.00000000000E+00 -0.00000000000E+00 -0.11213959868E+03  0.11213959880E+03  0.50400000000E-02 0.  1.
         24    2    1    2    0    0 -0.17763568394E-14 -0.35527136788E-14 -0.97846778204E+02  0.12643241951E+03  0.80069748950E+02 0.  0.
         66    2    3    3    0    0  0.12071835800E+02  0.28587046821E+02 -0.90747513835E+01  0.32392893903E+02  0.19999993174E+01 0.  0.
        -13    1    3    3    0    0 -0.12071835800E+02 -0.28587046821E+02 -0.88772026821E+02  0.94039525602E+02  0.10566000000E+00 0.  1.
         13    1    4    4    0    0  0.44217141146E+01  0.10185559708E+02 -0.38686931105E+01  0.11759044719E+02  0.10566000000E+00 0. -1.
        -13    1    4    4    0    0  0.60262984906E+01  0.13091690048E+02 -0.38618023193E+01  0.14920901548E+02  0.10566000000E+00 0.  1.
         14    1    4    4    0    0  0.16238231945E+01  0.53097970641E+01 -0.13442559537E+01  0.57129476365E+01  0.00000000000E+00 0. -1.
<mgrwt>
<rscale>  0 0.80069749E+02</rscale>
<asrwt>0</asrwt>
<pdfrwt beam="1">  1        2 0.21988955E-02 0.80069749E+02</pdfrwt>
<pdfrwt beam="2">  1       -1 0.17252246E-01 0.80069749E+02</pdfrwt>
<totfact> 0.11534834E+05</totfact>
</mgrwt>
</event>
<event>
 8    1  0.1493610E-013  0.7601792E+02  0.7818608E-02  0.1340748E+00
          2   -1    0    0  501    0  0.00000000000E+00  0.00000000000E+00  0.13821771054E+03  0.13821771056E+03  0.25500000000E-02 0. -1.
         -1   -1    0    0    0  501 -0.00000000000E+00 -0.00000000000E+00 -0.10452213008E+02  0.10452214223E+02  0.50400000000E-02 0.  1.
         24    2    1    2    0    0  0.00000000000E+00  0.00000000000E+00  0.12776549753E+03  0.14866992479E+03  0.76017920099E+02 0.  0.
         66    2    3    3    0    0  0.20246317861E+02 -0.56491438133E+01  0.12579848382E+03  0.12755816219E+03  0.19999993737E+01 0.  0.
        -13    1    3    3    0    0 -0.20246317861E+02  0.56491438133E+01  0.19670137088E+01  0.21111762591E+02  0.10566000000E+00 0.  1.
         13    1    4    4    0    0  0.43799199833E+01 -0.45397695478E+00  0.26510082605E+02  0.26873508105E+02  0.10566000000E+00 0. -1.
        -13    1    4    4    0    0  0.18642476684E+01 -0.76851355335E+00  0.11202676299E+02  0.11383196069E+02  0.10566000000E+00 0. -1.
         14    1    4    4    0    0  0.14002150209E+02 -0.44266533052E+01  0.88085724920E+02  0.89301458021E+02  0.00000000000E+00 0. -1.
<mgrwt>
<rscale>  0 0.76017920E+02</rscale>
<asrwt>0</asrwt>
<pdfrwt beam="1">  1        2 0.21264261E-01 0.76017920E+02</pdfrwt>
<pdfrwt beam="2">  1       -1 0.16080330E-02 0.76017920E+02</pdfrwt>
<totfact> 0.22343353E+05</totfact>
</mgrwt>
</event>
<event>
 8    1  0.1493610E-013  0.7713009E+02  0.7818608E-02  0.1337399E+00
         -1   -1    0    0    0  501 -0.00000000000E+00  0.00000000000E+00  0.65239930178E+00  0.65241876933E+00  0.50400000000E-02 0.  1.
          2   -1    0    0  501    0  0.00000000000E+00 -0.00000000000E+00 -0.22796476563E+04  0.22796476563E+04  0.25500000000E-02 0. -1.
         24    2    1    2    0    0 -0.17763568394E-14  0.00000000000E+00 -0.22789952570E+04  0.22803000751E+04  0.77130091062E+02 0.  0.
         66    2    3    3    0    0 -0.11489832517E+02  0.41700658878E+01 -0.22208178370E+04  0.22208523748E+04  0.20000011250E+01 0.  0.
        -13    1    3    3    0    0  0.11489832517E+02 -0.41700658878E+01 -0.58177420002E+02  0.59447700232E+02  0.10566000000E+00 0.  1.
         13    1    4    4    0    0 -0.14717689049E+01  0.52175406940E+00 -0.27669924404E+03  0.27670367028E+03  0.10566000000E+00 0. -1.
        -13    1    4    4    0    0 -0.31533483897E+01  0.13904382015E+01 -0.48804587685E+03  0.48805805597E+03  0.10566000000E+00 0.  1.
        -14    1    4    4    0    0 -0.68647152224E+01  0.22578736169E+01 -0.14560727161E+04  0.14560906486E+04  0.00000000000E+00 0.  1.
<mgrwt>
<rscale>  0 0.77130091E+02</rscale>
<asrwt>0</asrwt>
<pdfrwt beam="1">  1        2 0.35070865E+00 0.77130091E+02</pdfrwt>
<pdfrwt beam="2">  1       -1 0.10037245E-03 0.77130091E+02</pdfrwt>
<totfact> 0.26423159E+05</totfact>
</mgrwt>
</event>
<event>
 8    1  0.1493610E-013  0.8064691E+02  0.7818608E-02  0.1327226E+00
          2   -1    0    0  501    0  0.00000000000E+00  0.00000000000E+00  0.11438320847E+03  0.11438320850E+03  0.25500000000E-02 0. -1.
         -1   -1    0    0    0  501 -0.00000000000E+00 -0.00000000000E+00 -0.14215206708E+02  0.14215207602E+02  0.50400000000E-02 0.  1.
         24    2    1    2    0    0  0.17763568394E-14  0.17763568394E-14  0.10016800176E+03  0.12859841610E+03  0.80646909714E+02 0.  0.
         66    2    3    3    0    0  0.14379579892E+02 -0.15034378721E+02  0.10514921123E+03  0.10720616346E+03  0.19999998584E+01 0.  0.
        -13    1    3    3    0    0 -0.14379579892E+02  0.15034378721E+02 -0.49812094678E+01  0.21392252644E+02  0.10566000000E+00 0.  1.
         13    1    4    4    0    0  0.89566516647E+01 -0.10080151274E+02  0.65050085170E+02  0.66433092683E+02  0.10566000000E+00 0. -1.
        -13    1    4    4    0    0  0.52059100055E+01 -0.47507254357E+01  0.37472641531E+02  0.38129790434E+02  0.10566000000E+00 0.  1.
        -14    1    4    4    0    0  0.21701822127E+00 -0.20350201097E+00  0.26264845273E+01  0.26432803387E+01  0.00000000000E+00 0.  1.
<mgrwt>
<rscale>  0 0.80646910E+02</rscale>
<asrwt>0</asrwt>
<pdfrwt beam="1">  1        2 0.17597417E-01 0.80646910E+02</pdfrwt>
<pdfrwt beam="2">  1       -1 0.21869550E-02 0.80646910E+02</pdfrwt>
<totfact> 0.18030672E+05</totfact>
</mgrwt>
</event>
<event>
 8    1  0.1493610E-013  0.7994931E+02  0.7818608E-02  0.1329195E+00
          2   -1    0    0  501    0  0.00000000000E+00  0.00000000000E+00  0.10405202852E+02  0.10405203164E+02  0.25500000000E-02 0. -1.
         -1   -1    0    0    0  501 -0.00000000000E+00 -0.00000000000E+00 -0.15357441694E+03  0.15357441702E+03  0.50400000000E-02 0.  1.
         24    2    1    2    0    0 -0.17763568394E-14  0.35527136788E-14 -0.14316921409E+03  0.16397962018E+03  0.79949308778E+02 0.  0.
         66    2    3    3    0    0 -0.12601085041E+02 -0.24082456153E+02 -0.11578271929E+02  0.29610950993E+02  0.19999998221E+01 0.  0.
        -13    1    3    3    0    0  0.12601085041E+02  0.24082456153E+02 -0.13159094216E+03  0.13436866919E+03  0.10566000000E+00 0.  1.
         13    1    4    4    0    0 -0.65228126177E+01 -0.13768563126E+02 -0.61426587862E+01  0.16427532864E+02  0.10566000000E+00 0. -1.
        -13    1    4    4    0    0 -0.22003765007E+01 -0.32151536477E+01 -0.13780772018E+01  0.41339001599E+01  0.10566000000E+00 0.  1.
        -14    1    4    4    0    0 -0.38778959229E+01 -0.70987393792E+01 -0.40575359407E+01  0.90495179690E+01  0.00000000000E+00 0.  1.
<mgrwt>
<rscale>  0 0.79949309E+02</rscale>
<asrwt>0</asrwt>
<pdfrwt beam="1">  1        2 0.16008006E-02 0.79949309E+02</pdfrwt>
<pdfrwt beam="2">  1       -1 0.23626832E-01 0.79949309E+02</pdfrwt>
<totfact> 0.10739497E+05</totfact>
</mgrwt>
</event>
<event>
 8    1  0.1493610E-013  0.8011392E+02  0.7818608E-02  0.1328728E+00
          2   -1    0    0  501    0  0.00000000000E+00  0.00000000000E+00  0.31328196829E+03  0.31328196830E+03  0.25500000000E-02 0. -1.
         -1   -1    0    0    0  501 -0.00000000000E+00 -0.00000000000E+00 -0.51217741877E+01  0.51217766674E+01  0.50400000000E-02 0.  1.
         24    2    1    2    0    0  0.00000000000E+00  0.00000000000E+00  0.30816019410E+03  0.31840374496E+03  0.80113916271E+02 0.  0.
         66    2    3    3    0    0  0.83045379208E+01  0.18022120680E+02  0.29235615429E+03  0.29303563463E+03  0.20000061667E+01 0.  0.
        -13    1    3    3    0    0 -0.83045379208E+01 -0.18022120680E+02  0.15804039807E+02  0.25368110338E+02  0.10566000000E+00 0.  1.
         13    1    4    4    0    0  0.21261240422E+01  0.52867463471E+01  0.95362710935E+02  0.95532862886E+02  0.10566000000E+00 0. -1.
        -13    1    4    4    0    0  0.41811492956E+01  0.80389584891E+01  0.12946300024E+03  0.12977976136E+03  0.10566000000E+00 0.  1.
        -14    1    4    4    0    0  0.19972645830E+01  0.46964158435E+01  0.67530443117E+02  0.67723010381E+02  0.00000000000E+00 0.  1.
<mgrwt>
<rscale>  0 0.80113916E+02</rscale>
<asrwt>0</asrwt>
<pdfrwt beam="1">  1        2 0.48197221E-01 0.80113916E+02</pdfrwt>
<pdfrwt beam="2">  1       -1 0.78796554E-03 0.80113916E+02</pdfrwt>
<totfact> 0.25800734E+05</totfact>
</mgrwt>
</event>
<event>
 8    1  0.1493610E-013  0.7984705E+02  0.7818608E-02  0.1329486E+00
         -1   -1    0    0    0  501 -0.00000000000E+00  0.00000000000E+00  0.27363487329E+02  0.27363487793E+02  0.50400000000E-02 0.  1.
          2   -1    0    0  501    0  0.00000000000E+00 -0.00000000000E+00 -0.58248714450E+02  0.58248714506E+02  0.25500000000E-02 0. -1.
         24    2    1    2    0    0  0.00000000000E+00  0.71054273576E-14 -0.30885227122E+02  0.85612202299E+02  0.79847053346E+02 0.  0.
         66    2    3    3    0    0 -0.33718475629E+01  0.39754487872E+02 -0.15781627066E+02  0.42951698778E+02  0.20000032745E+01 0.  0.
        -13    1    3    3    0    0  0.33718475629E+01 -0.39754487872E+02 -0.15103600056E+02  0.42660503521E+02  0.10566000000E+00 0.  1.
         13    1    4    4    0    0 -0.28703331640E+01  0.32811145268E+02 -0.13134273930E+02  0.35458854775E+02  0.10566000000E+00 0. -1.
        -13    1    4    4    0    0 -0.71613952044E+00  0.58324356108E+01 -0.21744590637E+01  0.62665458765E+01  0.10566000000E+00 0.  1.
         14    1    4    4    0    0  0.21462512159E+00  0.11109069934E+01 -0.47289407213E+00  0.12262981261E+01  0.00000000000E+00 0. -1.
<mgrwt>
<rscale>  0 0.79847053E+02</rscale>
<asrwt>0</asrwt>
<pdfrwt beam="1">  1        2 0.89613407E-02 0.79847053E+02</pdfrwt>
<pdfrwt beam="2">  1       -1 0.42097673E-02 0.79847053E+02</pdfrwt>
<totfact> 0.15541385E+05</totfact>
</mgrwt>
</event>
<event>
 8    1  0.1493610E-013  0.8090133E+02  0.7818608E-02  0.1326513E+00
          2   -1    0    0  501    0  0.00000000000E+00  0.00000000000E+00  0.82721066527E+01  0.82721070457E+01  0.25500000000E-02 0. -1.
         -1   -1    0    0    0  501 -0.00000000000E+00 -0.00000000000E+00 -0.19780405302E+03  0.19780405308E+03  0.50400000000E-02 0.  1.
         24    2    1    2    0    0  0.00000000000E+00  0.00000000000E+00 -0.18953194637E+03  0.20607616013E+03  0.80901329285E+02 0.  0.
         66    2    3    3    0    0 -0.30230897794E+02 -0.21209326169E+02 -0.52928685826E+02  0.64569253399E+02  0.20000008242E+01 0.  0.
        -13    1    3    3    0    0  0.30230897794E+02  0.21209326169E+02 -0.13660326054E+03  0.14150690673E+03  0.10566000000E+00 0.  1.
         13    1    4    4    0    0 -0.39764918106E+01 -0.21929410114E+01 -0.65581213433E+01  0.79775683631E+01  0.10566000000E+00 0. -1.
        -13    1    4    4    0    0 -0.12039043160E+02 -0.85909589502E+01 -0.20128493760E+02  0.24978201716E+02  0.10566000000E+00 0.  1.
         14    1    4    4    0    0 -0.14215362823E+02 -0.10425426207E+02 -0.26242070722E+02  0.31613483320E+02  0.00000000000E+00 0. -1.
<mgrwt>
<rscale>  0 0.80901329E+02</rscale>
<asrwt>0</asrwt>
<pdfrwt beam="1">  1        2 0.12726320E-02 0.80901329E+02</pdfrwt>
<pdfrwt beam="2">  1       -1 0.30431389E-01 0.80901329E+02</pdfrwt>
<totfact> 0.97126446E+04</totfact>
</mgrwt>
</event>
<event>
 8    1  0.1493610E-013  0.8214345E+02  0.7818608E-02  0.1323076E+00
         -1   -1    0    0    0  501 -0.00000000000E+00  0.00000000000E+00  0.48374976359E+01  0.48375002614E+01  0.50400000000E-02 0.  1.
          2   -1    0    0  501    0  0.00000000000E+00 -0.00000000000E+00 -0.34871046418E+03  0.34871046419E+03  0.25500000000E-02 0. -1.
         24    2    1    2    0    0  0.44408920985E-15  0.71054273576E-14 -0.34387296655E+03  0.35354796445E+03  0.82143447989E+02 0.  0.
         66    2    3    3    0    0  0.26836151245E+01 -0.40169975109E+02 -0.20648458149E+03  0.21038229747E+03  0.20000012508E+01 0.  0.
        -13    1    3    3    0    0 -0.26836151245E+01  0.40169975109E+02 -0.13738838506E+03  0.14316566698E+03  0.10566000000E+00 0.  1.
         13    1    4    4    0    0  0.10396455473E+00 -0.49839099078E+00 -0.19121496142E+01  0.19815858273E+01  0.10566000000E+00 0. -1.
        -13    1    4    4    0    0  0.14520170829E+01 -0.25645905214E+02 -0.13346346690E+03  0.13591294629E+03  0.10566000000E+00 0.  1.
         14    1    4    4    0    0  0.11276334869E+01 -0.14025678904E+02 -0.71108964973E+02  0.72487765351E+02  0.00000000000E+00 0. -1.
<mgrwt>
<rscale>  0 0.82143448E+02</rscale>
<asrwt>0</asrwt>
<pdfrwt beam="1">  1        2 0.53647744E-01 0.82143448E+02</pdfrwt>
<pdfrwt beam="2">  1       -1 0.74423089E-03 0.82143448E+02</pdfrwt>
<totfact> 0.25112727E+05</totfact>
</mgrwt>
</event>
<event>
 8    1  0.1493610E-013  0.7900014E+02  0.7818608E-02  0.1331913E+00
         -1   -1    0    0    0  501 -0.00000000000E+00  0.00000000000E+00  0.22815444324E+01  0.22815499991E+01  0.50400000000E-02 0.  1.
          2   -1    0    0  501    0  0.00000000000E+00 -0.00000000000E+00 -0.68385855604E+03  0.68385855604E+03  0.25500000000E-02 0. -1.
         24    2    1    2    0    0  0.88817841970E-15  0.00000000000E+00 -0.68157701161E+03  0.68614010604E+03  0.79000141581E+02 0.  0.
         66    2    3    3    0    0 -0.62402564478E+01  0.12715234485E+02 -0.66102554322E+03  0.66118029824E+03  0.20000017266E+01 0.  0.
        -13    1    3    3    0    0  0.62402564478E+01 -0.12715234485E+02 -0.20551468388E+02  0.24959807801E+02  0.10566000000E+00 0.  1.
         13    1    4    4    0    0 -0.19773598096E+01  0.47563580398E+01 -0.24029615604E+03  0.24035138166E+03  0.10566000000E+00 0. -1.
        -13    1    4    4    0    0 -0.72903111269E+00  0.51740704635E+00 -0.35031418095E+02  0.35042982382E+02  0.10566000000E+00 0.  1.
         14    1    4    4    0    0 -0.35338655255E+01  0.74414693986E+01 -0.38569796909E+03  0.38578593420E+03  0.00000000000E+00 0. -1.
<mgrwt>
<rscale>  0 0.79000142E+02</rscale>
<asrwt>0</asrwt>
<pdfrwt beam="1">  1        2 0.10520884E+00 0.79000142E+02</pdfrwt>
<pdfrwt beam="2">  1       -1 0.35100781E-03 0.79000142E+02</pdfrwt>
<totfact> 0.34375453E+05</totfact>
</mgrwt>
</event>
<event>
 8    1  0.1493610E-013  0.8200332E+02  0.7818608E-02  0.1323461E+00
         -1   -1    0    0    0  501 -0.00000000000E+00  0.00000000000E+00  0.68179067429E+01  0.68179086058E+01  0.50400000000E-02 0.  1.
          2   -1    0    0  501    0  0.00000000000E+00 -0.00000000000E+00 -0.24657656390E+03  0.24657656392E+03  0.25500000000E-02 0. -1.
         24    2    1    2    0    0  0.35527136788E-14  0.35527136788E-14 -0.23975865716E+03  0.25339447252E+03  0.82003323234E+02 0.  0.
         66    2    3    3    0    0  0.30503609670E+02  0.21264414116E+02 -0.17315729440E+03  0.17711604703E+03  0.19999998744E+01 0.  0.
        -13    1    3    3    0    0 -0.30503609670E+02 -0.21264414116E+02 -0.66601362759E+02  0.76278425495E+02  0.10566000000E+00 0.  1.
         13    1    4    4    0    0  0.10032241988E+02  0.62577363163E+01 -0.54039952187E+02  0.55318466533E+02  0.10566000000E+00 0. -1.
        -13    1    4    4    0    0  0.17866215687E+00  0.14503905260E+00 -0.14459606279E+01  0.14679654853E+01  0.10566000000E+00 0. -1.
         14    1    4    4    0    0  0.20292705525E+02  0.14861638747E+02 -0.11767138159E+03  0.12032961501E+03  0.00000000000E+00 0. -1.
<mgrwt>
<rscale>  0 0.82003323E+02</rscale>
<asrwt>0</asrwt>
<pdfrwt beam="1">  1        2 0.37934849E-01 0.82003323E+02</pdfrwt>
<pdfrwt beam="2">  1       -1 0.10489091E-02 0.82003323E+02</pdfrwt>
<totfact> 0.22253508E+05</totfact>
</mgrwt>
</event>
<event>
 8    1  0.1493610E-013  0.7897204E+02  0.7818608E-02  0.1331994E+00
          2   -1    0    0  501    0  0.00000000000E+00  0.00000000000E+00  0.42460234799E+03  0.42460234800E+03  0.25500000000E-02 0. -1.
         -1   -1    0    0    0  501 -0.00000000000E+00 -0.00000000000E+00 -0.36720122336E+01  0.36720156924E+01  0.50400000000E-02 0.  1.
         24    2    1    2    0    0  0.35527136788E-14  0.00000000000E+00  0.42093033576E+03  0.42827436369E+03  0.78972039572E+02 0.  0.
         66    2    3    3    0    0 -0.27305075042E+02 -0.25622569786E+02  0.27812955109E+03  0.28064591633E+03  0.19999889748E+01 0.  0.
        -13    1    3    3    0    0  0.27305075042E+02  0.25622569786E+02  0.14280078467E+03  0.14762844736E+03  0.10566000000E+00 0.  1.
         13    1    4    4    0    0 -0.16215364578E+02 -0.15254493467E+02  0.16801065756E+03  0.16947929029E+03  0.10566000000E+00 0. -1.
        -13    1    4    4    0    0 -0.20653796094E+01 -0.24466300370E+01  0.25277151362E+02  0.25479351179E+02  0.10566000000E+00 0.  1.
         14    1    4    4    0    0 -0.90243308548E+01 -0.79214462824E+01  0.84841742172E+02  0.85687274862E+02  0.00000000000E+00 0. -1.
<mgrwt>
<rscale>  0 0.78972040E+02</rscale>
<asrwt>0</asrwt>
<pdfrwt beam="1">  1        2 0.65323463E-01 0.78972040E+02</pdfrwt>
<pdfrwt beam="2">  1       -1 0.56492501E-03 0.78972040E+02</pdfrwt>
<totfact> 0.29833747E+05</totfact>
</mgrwt>
</event>
<event>
 8    1  0.1493610E-013  0.7902779E+02  0.7818608E-02  0.1331833E+00
          2   -1    0    0  501    0  0.00000000000E+00  0.00000000000E+00  0.96340380386E+03  0.96340380386E+03  0.25500000000E-02 0. -1.
         -1   -1    0    0    0  501 -0.00000000000E+00 -0.00000000000E+00 -0.16206539108E+01  0.16206617477E+01  0.50400000000E-02 0.  1.
         24    2    1    2    0    0  0.00000000000E+00  0.00000000000E+00  0.96178314995E+03  0.96502446561E+03  0.79027790692E+02 0.  0.
         66    2    3    3    0    0 -0.21977239789E+02  0.22204529666E+02  0.77611957850E+03  0.77675069385E+03  0.20000141219E+01 0.  0.
        -13    1    3    3    0    0  0.21977239789E+02 -0.22204529666E+02  0.18566357144E+03  0.18827377176E+03  0.10566000000E+00 0.  1.
         13    1    4    4    0    0 -0.92967790416E+01  0.97483698229E+01  0.34035436877E+03  0.34062085714E+03  0.10566000000E+00 0. -1.
        -13    1    4    4    0    0 -0.53922168480E+01  0.45559658376E+01  0.16235997960E+03  0.16251340549E+03  0.10566000000E+00 0.  1.
        -14    1    4    4    0    0 -0.72882438993E+01  0.79001940052E+01  0.27340523014E+03  0.27361643121E+03  0.00000000000E+00 0.  1.
<mgrwt>
<rscale>  0 0.79027791E+02</rscale>
<asrwt>0</asrwt>
<pdfrwt beam="1">  1        2 0.14821588E+00 0.79027791E+02</pdfrwt>
<pdfrwt beam="2">  1       -1 0.24933212E-03 0.79027791E+02</pdfrwt>
<totfact> 0.36292614E+05</totfact>
</mgrwt>
</event>
<event>
 8    1  0.1493610E-013  0.8238663E+02  0.7818608E-02  0.1322412E+00
          2   -1    0    0  501    0  0.00000000000E+00  0.00000000000E+00  0.27791522127E+03  0.27791522128E+03  0.25500000000E-02 0. -1.
         -1   -1    0    0    0  501 -0.00000000000E+00 -0.00000000000E+00 -0.61057786920E+01  0.61057807721E+01  0.50400000000E-02 0.  1.
         24    2    1    2    0    0 -0.17763568394E-14  0.00000000000E+00  0.27180944257E+03  0.28402100205E+03  0.82386628363E+02 0.  0.
         66    2    3    3    0    0  0.89508381118E+01 -0.34583158233E+02  0.20653222019E+03  0.20960837367E+03  0.19999999231E+01 0.  0.
        -13    1    3    3    0    0 -0.89508381118E+01  0.34583158233E+02  0.65277222388E+02  0.74412628384E+02  0.10566000000E+00 0.  1.
         13    1    4    4    0    0  0.30616279318E+01 -0.93330409515E+01  0.57144840487E+02  0.57982955921E+02  0.10566000000E+00 0. -1.
        -13    1    4    4    0    0  0.12891111013E+01 -0.51210116047E+01  0.27812282281E+02  0.28309376132E+02  0.10566000000E+00 0.  1.
         14    1    4    4    0    0  0.46000990786E+01 -0.20129105677E+02  0.12157509742E+03  0.12331604161E+03  0.00000000000E+00 0. -1.
<mgrwt>
<rscale>  0 0.82386628E+02</rscale>
<asrwt>0</asrwt>
<pdfrwt beam="1">  1        2 0.42756187E-01 0.82386628E+02</pdfrwt>
<pdfrwt beam="2">  1       -1 0.93935074E-03 0.82386628E+02</pdfrwt>
<totfact> 0.22954022E+05</totfact>
</mgrwt>
</event>
<event>
 8    1  0.1493610E-013  0.8007253E+02  0.7818608E-02  0.1328846E+00
         -1   -1    0    0    0  501 -0.00000000000E+00  0.00000000000E+00  0.97482714494E+00  0.97484017362E+00  0.50400000000E-02 0.  1.
          2   -1    0    0  501    0  0.00000000000E+00 -0.00000000000E+00 -0.16442832285E+04  0.16442832285E+04  0.25500000000E-02 0. -1.
         24    2    1    2    0    0  0.17763568394E-14  0.00000000000E+00 -0.16433084014E+04  0.16452580687E+04  0.80072533232E+02 0.  0.
         66    2    3    3    0    0 -0.14577701831E+02 -0.11110689839E+02 -0.15529435551E+04  0.15530530069E+04  0.20000024041E+01 0.  0.
        -13    1    3    3    0    0  0.14577701831E+02  0.11110689839E+02 -0.90364846253E+02  0.92205061801E+02  0.10566000000E+00 0.  1.
         13    1    4    4    0    0 -0.62368295924E+01 -0.54400974914E+01 -0.69205007879E+03  0.69209957045E+03  0.10566000000E+00 0. -1.
        -13    1    4    4    0    0 -0.18322064541E+01 -0.12002496531E+01 -0.23287329433E+03  0.23288361891E+03  0.10566000000E+00 0.  1.
         14    1    4    4    0    0 -0.65086657845E+01 -0.44703426948E+01 -0.62802018201E+03  0.62806981755E+03  0.00000000000E+00 0. -1.
<mgrwt>
<rscale>  0 0.80072533E+02</rscale>
<asrwt>0</asrwt>
<pdfrwt beam="1">  1        2 0.25296443E+00 0.80072533E+02</pdfrwt>
<pdfrwt beam="2">  1       -1 0.14997573E-03 0.80072533E+02</pdfrwt>
<totfact> 0.31839853E+05</totfact>
</mgrwt>
</event>
<event>
 8    1  0.1493610E-013  0.8110299E+02  0.7818608E-02  0.1325950E+00
         -1   -1    0    0    0  501 -0.00000000000E+00  0.00000000000E+00  0.13218564689E+02  0.13218565650E+02  0.50400000000E-02 0.  1.
          2   -1    0    0  501    0  0.00000000000E+00 -0.00000000000E+00 -0.12440257667E+03  0.12440257670E+03  0.25500000000E-02 0. -1.
         24    2    1    2    0    0  0.35527136788E-14  0.00000000000E+00 -0.11118401198E+03  0.13762114235E+03  0.81102985767E+02 0.  0.
         66    2    3    3    0    0 -0.19031897874E+02  0.35109291699E+02 -0.43925552219E+02  0.59399744545E+02  0.20000034848E+01 0.  0.
        -13    1    3    3    0    0  0.19031897874E+02 -0.35109291699E+02 -0.67258459764E+02  0.78221397802E+02  0.10566000000E+00 0.  1.
         13    1    4    4    0    0 -0.51260761950E+01  0.96155607466E+01 -0.11638225986E+02  0.15943498166E+02  0.10566000000E+00 0. -1.
        -13    1    4    4    0    0 -0.73456522497E+01  0.14893277940E+02 -0.19079964672E+02  0.25294753422E+02  0.10566000000E+00 0.  1.
        -14    1    4    4    0    0 -0.65601694293E+01  0.10600453013E+02 -0.13207361561E+02  0.18161492957E+02  0.00000000000E+00 0.  1.
<mgrwt>
<rscale>  0 0.81102986E+02</rscale>
<asrwt>0</asrwt>
<pdfrwt beam="1">  1        2 0.19138857E-01 0.81102986E+02</pdfrwt>
<pdfrwt beam="2">  1       -1 0.20336255E-02 0.81102986E+02</pdfrwt>
<totfact> 0.18213274E+05</totfact>
</mgrwt>
</event>
<event>
 8    1  0.1493610E-013  0.7876702E+02  0.7818608E-02  0.1332587E+00
         -1   -1    0    0    0  501 -0.00000000000E+00  0.00000000000E+00  0.15956165974E+02  0.15956166770E+02  0.50400000000E-02 0.  1.
          2   -1    0    0  501    0  0.00000000000E+00 -0.00000000000E+00 -0.97207607537E+02  0.97207607571E+02  0.25500000000E-02 0. -1.
         24    2    1    2    0    0  0.00000000000E+00  0.00000000000E+00 -0.81251441563E+02  0.11316377434E+03  0.78767017634E+02 0.  0.
         66    2    3    3    0    0 -0.36027173717E+02 -0.68827174958E+00 -0.63396272051E+02  0.72948737273E+02  0.19999989372E+01 0.  0.
        -13    1    3    3    0    0  0.36027173717E+02  0.68827174958E+00 -0.17855169512E+02  0.40215037068E+02  0.10566000000E+00 0.  1.
         13    1    4    4    0    0 -0.21321226977E+02 -0.15762506816E+00 -0.37115832988E+02  0.42804389821E+02  0.10566000000E+00 0. -1.
        -13    1    4    4    0    0 -0.64984504008E+00 -0.25460022363E+00 -0.13248371889E+01  0.15011587067E+01  0.10566000000E+00 0. -1.
         14    1    4    4    0    0 -0.14056101700E+02 -0.27604645779E+00 -0.24955601874E+02  0.28643188746E+02  0.00000000000E+00 0. -1.
<mgrwt>
<rscale>  0 0.78767018E+02</rscale>
<asrwt>0</asrwt>
<pdfrwt beam="1">  1        2 0.14955016E-01 0.78767018E+02</pdfrwt>
<pdfrwt beam="2">  1       -1 0.24547949E-02 0.78767018E+02</pdfrwt>
<totfact> 0.18333687E+05</totfact>
</mgrwt>
</event>
<event>
 8    1  0.1493610E-013  0.7957428E+02  0.7818608E-02  0.1330264E+00
         -1   -1    0    0    0  501 -0.00000000000E+00  0.00000000000E+00  0.15508918267E+02  0.15508919086E+02  0.50400000000E-02 0.  1.
          2   -1    0    0  501    0  0.00000000000E+00 -0.00000000000E+00 -0.10207137064E+03  0.10207137067E+03  0.25500000000E-02 0. -1.
         24    2    1    2    0    0  0.35527136788E-14  0.00000000000E+00 -0.86562452375E+02  0.11758028976E+03  0.79574282145E+02 0.  0.
         66    2    3    3    0    0 -0.30609228578E+02  0.24368683739E+01 -0.80635453557E+02  0.86307239370E+02  0.19999989516E+01 0.  0.
        -13    1    3    3    0    0  0.30609228578E+02 -0.24368683739E+01 -0.59269988177E+01  0.31273050389E+02  0.10566000000E+00 0.  1.
         13    1    4    4    0    0 -0.13881020237E+02  0.54035620333E+00 -0.36523323245E+02  0.39076067005E+02  0.10566000000E+00 0. -1.
        -13    1    4    4    0    0 -0.14717005207E+01  0.31123469774E+00 -0.31787255685E+01  0.35182708445E+01  0.10566000000E+00 0.  1.
         14    1    4    4    0    0 -0.15256507821E+02  0.15852774728E+01 -0.40933404743E+02  0.43712901521E+02  0.00000000000E+00 0. -1.
<mgrwt>
<rscale>  0 0.79574282E+02</rscale>
<asrwt>0</asrwt>
<pdfrwt beam="1">  1        2 0.15703287E-01 0.79574282E+02</pdfrwt>
<pdfrwt beam="2">  1       -1 0.23859876E-02 0.79574282E+02</pdfrwt>
<totfact> 0.18084697E+05</totfact>
</mgrwt>
</event>
<event>
 8    1  0.1493610E-013  0.7911840E+02  0.7818608E-02  0.1331572E+00
          2   -1    0    0  501    0  0.00000000000E+00  0.00000000000E+00  0.71735831521E+03  0.71735831521E+03  0.25500000000E-02 0. -1.
         -1   -1    0    0    0  501 -0.00000000000E+00 -0.00000000000E+00 -0.21815151817E+01  0.21815210037E+01  0.50400000000E-02 0.  1.
         24    2    1    2    0    0  0.00000000000E+00  0.00000000000E+00  0.71517680002E+03  0.71953983621E+03  0.79118396130E+02 0.  0.
         66    2    3    3    0    0 -0.10219404037E+02 -0.28334894315E+02  0.59068134751E+03  0.59145224386E+03  0.20000035084E+01 0.  0.
        -13    1    3    3    0    0  0.10219404037E+02  0.28334894315E+02  0.12449545251E+03  0.12808759235E+03  0.10566000000E+00 0.  1.
         13    1    4    4    0    0 -0.32603167349E+01 -0.88270874841E+01  0.19676480161E+03  0.19698970901E+03  0.10566000000E+00 0. -1.
        -13    1    4    4    0    0 -0.34623225107E+01 -0.10259457981E+02  0.19504000110E+03  0.19534036283E+03  0.10566000000E+00 0.  1.
        -14    1    4    4    0    0 -0.34967647916E+01 -0.92483488498E+01  0.19887654480E+03  0.19912217203E+03  0.00000000000E+00 0.  1.
<mgrwt>
<rscale>  0 0.79118396E+02</rscale>
<asrwt>0</asrwt>
<pdfrwt beam="1">  1        2 0.11036289E+00 0.79118396E+02</pdfrwt>
<pdfrwt beam="2">  1       -1 0.33561794E-03 0.79118396E+02</pdfrwt>
<totfact> 0.34618257E+05</totfact>
</mgrwt>
</event>
<event>
 8    1  0.1493610E-013  0.7244608E+02  0.7818608E-02  0.1351967E+00
          2   -1    0    0  501    0  0.00000000000E+00  0.00000000000E+00  0.27550548910E+03  0.27550548911E+03  0.25500000000E-02 0. -1.
         -1   -1    0    0    0  501 -0.00000000000E+00 -0.00000000000E+00 -0.47625483351E+01  0.47625510020E+01  0.50400000000E-02 0.  1.
         24    2    1    2    0    0  0.35527136788E-14  0.35527136788E-14  0.27074294077E+03  0.28026804011E+03  0.72446078812E+02 0.  0.
         66    2    3    3    0    0  0.24827092082E+02  0.22728091052E+02  0.18696556562E+03  0.18998177109E+03  0.19999986490E+01 0.  0.
        -13    1    3    3    0    0 -0.24827092082E+02 -0.22728091052E+02  0.83777375143E+02  0.90286269023E+02  0.10566000000E+00 0.  1.
         13    1    4    4    0    0  0.14432398648E+02  0.13333996073E+02  0.10682811677E+03  0.10862019738E+03  0.10566000000E+00 0. -1.
        -13    1    4    4    0    0  0.45857562917E+01  0.39992548802E+01  0.38136583278E+02  0.38619080110E+02  0.10566000000E+00 0.  1.
         14    1    4    4    0    0  0.58089371422E+01  0.53948400990E+01  0.42000865578E+02  0.42742493606E+02  0.00000000000E+00 0. -1.
<mgrwt>
<rscale>  0 0.72446079E+02</rscale>
<asrwt>0</asrwt>
<pdfrwt beam="1">  1        2 0.42385451E-01 0.72446079E+02</pdfrwt>
<pdfrwt beam="2">  1       -1 0.73270011E-03 0.72446079E+02</pdfrwt>
<totfact> 0.32025090E+05</totfact>
</mgrwt>
</event>
