<event>
 8    1  0.7756875E-018  0.7993438E+02  0.7818608E-02  0.1329238E+00
          1   -1    0    0  501    0  0.00000000000E+00  0.00000000000E+00  0.11513642328E+03  0.11513642339E+03  0.50400000000E-02 0. -1.
         -2   -1    0    0    0  501 -0.00000000000E+00 -0.00000000000E+00 -0.13873771236E+02  0.13873771470E+02  0.25500000000E-02 0.  1.
        -24    2    1    2    0    0  0.35527136788E-14  0.00000000000E+00  0.10126265205E+03  0.12901019486E+03  0.79934383584E+02 0.  0.
         66    2    3    3    0    0 -0.18706810508E+02 -0.23638293047E+02  0.83707045082E+01  0.31349359626E+02  0.19999993518E+01 0.  0.
         13    1    3    3    0    0  0.18706810508E+02  0.23638293047E+02  0.92891947540E+02  0.97660835238E+02  0.10566000000E+00 0. -1.
         13    1    4    4    0    0 -0.41033863942E+01 -0.53643135082E+01  0.24753260891E+01  0.71938892539E+01  0.10566000000E+00 0. -1.
        -13    1    4    4    0    0 -0.96040415435E+01 -0.12568843975E+02  0.44597492338E+01  0.16435144663E+02  0.10566000000E+00 0.  1.
        -14    1    4    4    0    0 -0.49993825706E+01 -0.57051355639E+01  0.14356291854E+01  0.77203257087E+01  0.00000000000E+00 0.  1.
<mgrwt>
<rscale>  0 0.79934384E+02</rscale>
<asrwt>0</asrwt>
<pdfrwt beam="1">  1        1 0.17713296E-01 0.79934384E+02</pdfrwt>
<pdfrwt beam="2">  1       -2 0.21344264E-02 0.79934384E+02</pdfrwt>
<totfact> 0.15090644E+05</totfact>
</mgrwt>
</event>
<event>
 8    1  0.7756875E-018  0.7831752E+02  0.7818608E-02  0.1333895E+00
          1   -1    0    0  501    0  0.00000000000E+00  0.00000000000E+00  0.17636009849E+02  0.17636010569E+02  0.50400000000E-02 0. -1.
         -2   -1    0    0    0  501 -0.00000000000E+00 -0.00000000000E+00 -0.86947577781E+02  0.86947577818E+02  0.25500000000E-02 0.  1.
        -24    2    1    2    0    0  0.71054273576E-14  0.00000000000E+00 -0.69311567932E+02  0.10458358839E+03  0.78317517266E+02 0.  0.
         66    2    3    3    0    0  0.37499204162E+02  0.52044110517E+01 -0.47906480600E+02  0.61092610761E+02  0.19999997287E+01 0.  0.
         13    1    3    3    0    0 -0.37499204162E+02 -0.52044110517E+01 -0.21405087332E+02  0.43490977626E+02  0.10566000000E+00 0. -1.
         13    1    4    4    0    0  0.17144182217E+02  0.23000120782E+01 -0.21433360544E+02  0.27542932808E+02  0.10566000000E+00 0. -1.
        -13    1    4    4    0    0  0.14325114819E+02  0.14524473879E+01 -0.18059905404E+02  0.23097399534E+02  0.10566000000E+00 0.  1.
         14    1    4    4    0    0  0.60299071264E+01  0.14519515856E+01 -0.84132146521E+01  0.10452278419E+02  0.00000000000E+00 0. -1.
<mgrwt>
<rscale>  0 0.78317517E+02</rscale>
<asrwt>0</asrwt>
<pdfrwt beam="1">  1        1 0.27132324E-02 0.78317517E+02</pdfrwt>
<pdfrwt beam="2">  1       -2 0.13376550E-01 0.78317517E+02</pdfrwt>
<totfact> 0.11583100E+05</totfact>
</mgrwt>
</event>
<event>
 8    1  0.7756875E-018  0.8165857E+02  0.7818608E-02  0.1324409E+00
          1   -1    0    0  501    0  0.00000000000E+00  0.00000000000E+00  0.27923856209E+02  0.27923856664E+02  0.50400000000E-02 0. -1.
         -2   -1    0    0    0  501 -0.00000000000E+00 -0.00000000000E+00 -0.59699150823E+02  0.59699150877E+02  0.25500000000E-02 0.  1.
        -24    2    1    2    0    0  0.00000000000E+00  0.00000000000E+00 -0.31775294613E+02  0.87623007541E+02  0.81658570296E+02 0.  0.
         66    2    3    3    0    0  0.18845688974E+02  0.21828082337E+02 -0.46874427366E+02  0.55071200443E+02  0.20000014962E+01 0.  0.
         13    1    3    3    0    0 -0.18845688974E+02 -0.21828082337E+02  0.15099132752E+02  0.32551807098E+02  0.10566000000E+00 0. -1.
         13    1    4    4    0    0  0.42960595604E+01  0.39025841317E+01 -0.90180500480E+01  0.10724862766E+02  0.10566000000E+00 0. -1.
        -13    1    4    4    0    0  0.87524265429E+01  0.10719538978E+02 -0.22056323202E+02  0.26038549182E+02  0.10566000000E+00 0.  1.
         14    1    4    4    0    0  0.57972028707E+01  0.72059592274E+01 -0.15800054116E+02  0.18307788495E+02  0.00000000000E+00 0. -1.
<mgrwt>
<rscale>  0 0.81658570E+02</rscale>
<asrwt>0</asrwt>
<pdfrwt beam="1">  1        1 0.42959779E-02 0.81658570E+02</pdfrwt>
<pdfrwt beam="2">  1       -2 0.91844848E-02 0.81658570E+02</pdfrwt>
<totfact> 0.11250710E+05</totfact>
</mgrwt>
</event>
<event>
 8    1  0.7756875E-018  0.8021345E+02  0.7818608E-02  0.1328447E+00
         -2   -1    0    0    0  501 -0.00000000000E+00  0.00000000000E+00  0.12609485697E+02  0.12609485954E+02  0.25500000000E-02 0.  1.
          1   -1    0    0  501    0  0.00000000000E+00 -0.00000000000E+00 -0.12756660645E+03  0.12756660655E+03  0.50400000000E-02 0. -1.
        -24    2    1    2    0    0  0.35527136788E-14 -0.35527136788E-14 -0.11495712075E+03  0.14017609250E+03  0.80213448359E+02 0.  0.
         66    2    3    3    0    0 -0.26273862506E+02  0.24821823014E+02 -0.27240610776E+02  0.45304410557E+02  0.19999979420E+01 0.  0.
         13    1    3    3    0    0  0.26273862506E+02 -0.24821823014E+02 -0.87716509976E+02  0.94871681946E+02  0.10566000000E+00 0. -1.
         13    1    4    4    0    0 -0.47074412959E+00  0.31502199806E+00 -0.47242506447E+00  0.74510963753E+00  0.10566000000E+00 0. -1.
        -13    1    4    4    0    0 -0.15242395457E+02  0.13565590266E+02 -0.14780369195E+02  0.25195760281E+02  0.10566000000E+00 0.  1.
        -14    1    4    4    0    0 -0.10560722919E+02  0.10941210750E+02 -0.11987816516E+02  0.19363540638E+02  0.00000000000E+00 0.  1.
<mgrwt>
<rscale>  0 0.80213448E+02</rscale>
<asrwt>0</asrwt>
<pdfrwt beam="1">  1        1 0.19625631E-01 0.80213448E+02</pdfrwt>
<pdfrwt beam="2">  1       -2 0.19399210E-02 0.80213448E+02</pdfrwt>
<totfact> 0.15222035E+05</totfact>
</mgrwt>
</event>
<event>
 8    1  0.7756875E-018  0.7725391E+02  0.7818608E-02  0.1337030E+00
          1   -1    0    0  501    0  0.00000000000E+00  0.00000000000E+00  0.25521680728E+03  0.25521680733E+03  0.50400000000E-02 0. -1.
         -2   -1    0    0    0  501 -0.00000000000E+00 -0.00000000000E+00 -0.58461722226E+01  0.58461727788E+01  0.25500000000E-02 0.  1.
        -24    2    1    2    0    0  0.00000000000E+00  0.00000000000E+00  0.24937063506E+03  0.26106298011E+03  0.77253905755E+02 0.  0.
         66    2    3    3    0    0 -0.32370161104E+01 -0.32788256355E+02  0.56804802819E+02  0.65698810063E+02  0.19999980570E+01 0.  0.
         13    1    3    3    0    0  0.32370161104E+01  0.32788256355E+02  0.19256583224E+03  0.19536417005E+03  0.10566000000E+00 0. -1.
         13    1    4    4    0    0 -0.72823281879E+00 -0.67371542130E+01  0.12760172661E+02  0.14448278108E+02  0.10566000000E+00 0. -1.
        -13    1    4    4    0    0 -0.21729134768E+01 -0.24391518487E+02  0.41693498635E+02  0.48353145911E+02  0.10566000000E+00 0.  1.
         14    1    4    4    0    0 -0.33586981481E+00 -0.16595836555E+01  0.23511315232E+01  0.28973860429E+01  0.00000000000E+00 0. -1.
<mgrwt>
<rscale>  0 0.77253906E+02</rscale>
<asrwt>0</asrwt>
<pdfrwt beam="1">  1        1 0.39264136E-01 0.77253906E+02</pdfrwt>
<pdfrwt beam="2">  1       -2 0.89941088E-03 0.77253906E+02</pdfrwt>
<totfact> 0.19173196E+05</totfact>
</mgrwt>
</event>
<event>
 8    1  0.7756875E-018  0.8096674E+02  0.7818608E-02  0.1326330E+00
         -2   -1    0    0    0  501 -0.00000000000E+00  0.00000000000E+00  0.33083685403E+02  0.33083685501E+02  0.25500000000E-02 0.  1.
          1   -1    0    0  501    0  0.00000000000E+00 -0.00000000000E+00 -0.49538113363E+02  0.49538113620E+02  0.50400000000E-02 0. -1.
        -24    2    1    2    0    0  0.00000000000E+00  0.71054273576E-14 -0.16454427961E+02  0.82621799121E+02  0.80966743114E+02 0.  0.
         66    2    3    3    0    0 -0.12248998773E+02 -0.36191791234E+02  0.53444296487E+01  0.38632197159E+02  0.20000013473E+01 0.  0.
         13    1    3    3    0    0  0.12248998773E+02  0.36191791234E+02 -0.21798857609E+02  0.43989601962E+02  0.10566000000E+00 0. -1.
         13    1    4    4    0    0 -0.11996089641E+01 -0.35047287054E+01  0.94004883411E+00  0.38232238767E+01  0.10566000000E+00 0. -1.
        -13    1    4    4    0    0 -0.93891545855E+01 -0.26305681939E+02  0.37740674140E+01  0.28185100230E+02  0.10566000000E+00 0.  1.
         14    1    4    4    0    0 -0.16602352235E+01 -0.63813805893E+01  0.63031340052E+00  0.66238730517E+01  0.00000000000E+00 0. -1.
<mgrwt>
<rscale>  0 0.80966743E+02</rscale>
<asrwt>0</asrwt>
<pdfrwt beam="1">  1        1 0.76212482E-02 0.80966743E+02</pdfrwt>
<pdfrwt beam="2">  1       -2 0.50897978E-02 0.80966743E+02</pdfrwt>
<totfact> 0.12705553E+05</totfact>
</mgrwt>
</event>
<event>
 8    1  0.7756875E-018  0.7939911E+02  0.7818608E-02  0.1330765E+00
         -2   -1    0    0    0  501 -0.00000000000E+00  0.00000000000E+00  0.23173165818E+02  0.23173165958E+02  0.25500000000E-02 0.  1.
          1   -1    0    0  501    0  0.00000000000E+00 -0.00000000000E+00 -0.68012064399E+02  0.68012064585E+02  0.50400000000E-02 0. -1.
        -24    2    1    2    0    0  0.00000000000E+00  0.00000000000E+00 -0.44838898580E+02  0.91185230544E+02  0.79399114878E+02 0.  0.
         66    2    3    3    0    0  0.61462477689E+01 -0.39171970972E+02 -0.20879949451E+02  0.44857462640E+02  0.19999984939E+01 0.  0.
         13    1    3    3    0    0 -0.61462477689E+01  0.39171970972E+02 -0.23958949130E+02  0.46327767904E+02  0.10566000000E+00 0. -1.
         13    1    4    4    0    0  0.49917152230E+00 -0.59664304426E+01 -0.32354323793E+01  0.68063684261E+01  0.10566000000E+00 0. -1.
        -13    1    4    4    0    0  0.17492713352E+01 -0.83029430815E+01 -0.38639277359E+01  0.93241576350E+01  0.10566000000E+00 0.  1.
         14    1    4    4    0    0  0.38978049114E+01 -0.24902597448E+02 -0.13780589335E+02  0.28726936579E+02  0.00000000000E+00 0. -1.
<mgrwt>
<rscale>  0 0.79399115E+02</rscale>
<asrwt>0</asrwt>
<pdfrwt beam="1">  1        1 0.10463395E-01 0.79399115E+02</pdfrwt>
<pdfrwt beam="2">  1       -2 0.35651025E-02 0.79399115E+02</pdfrwt>
<totfact> 0.14095808E+05</totfact>
</mgrwt>
</event>
<event>
 8    1  0.7756875E-018  0.8826668E+02  0.7818608E-02  0.1307104E+00
         -2   -1    0    0    0  501 -0.00000000000E+00  0.00000000000E+00  0.13204561813E+02  0.13204562059E+02  0.25500000000E-02 0.  1.
          1   -1    0    0  501    0  0.00000000000E+00 -0.00000000000E+00 -0.14750595826E+03  0.14750595835E+03  0.50400000000E-02 0. -1.
        -24    2    1    2    0    0  0.00000000000E+00  0.00000000000E+00 -0.13430139645E+03  0.16071052041E+03  0.88266677072E+02 0.  0.
         66    2    3    3    0    0  0.23979324015E+02  0.36191802178E+02 -0.52977254628E+02  0.68523310166E+02  0.20000007548E+01 0.  0.
         13    1    3    3    0    0 -0.23979324015E+02 -0.36191802178E+02 -0.81324141820E+02  0.92187210240E+02  0.10566000000E+00 0. -1.
         13    1    4    4    0    0  0.19287258983E+02  0.27823811157E+02 -0.41565337333E+02  0.53608313330E+02  0.10566000000E+00 0.  1.
        -13    1    4    4    0    0  0.40406592299E+01  0.74772385489E+01 -0.10114023465E+02  0.13211383652E+02  0.10566000000E+00 0. -1.
         14    1    4    4    0    0  0.65140580159E+00  0.89075247198E+00 -0.12978938306E+01  0.17036131839E+01  0.00000000000E+00 0. -1.
<mgrwt>
<rscale>  0 0.88266677E+02</rscale>
<asrwt>0</asrwt>
<pdfrwt beam="1">  1        1 0.22693223E-01 0.88266677E+02</pdfrwt>
<pdfrwt beam="2">  1       -2 0.20314712E-02 0.88266677E+02</pdfrwt>
<totfact> 0.12082627E+05</totfact>
</mgrwt>
</event>
<event>
 8    1  0.7756875E-018  0.7960905E+02  0.7818608E-02  0.1330165E+00
         -2   -1    0    0    0  501 -0.00000000000E+00  0.00000000000E+00  0.25249375856E+02  0.25249375985E+02  0.25500000000E-02 0.  1.
          1   -1    0    0  501    0  0.00000000000E+00 -0.00000000000E+00 -0.62750067116E+02  0.62750067318E+02  0.50400000000E-02 0. -1.
        -24    2    1    2    0    0  0.88817841970E-15  0.00000000000E+00 -0.37500691260E+02  0.87999443303E+02  0.79609045822E+02 0.  0.
         66    2    3    3    0    0  0.66990622714E+01  0.39211061392E+02 -0.18649865761E+02  0.43979566465E+02  0.20000006986E+01 0.  0.
         13    1    3    3    0    0 -0.66990622714E+01 -0.39211061392E+02 -0.18850825498E+02  0.44019876837E+02  0.10566000000E+00 0. -1.
         13    1    4    4    0    0  0.69323194271E+00  0.22982181147E+01 -0.11410999862E+01  0.26600094442E+01  0.10566000000E+00 0.  1.
        -13    1    4    4    0    0  0.54407702061E+01  0.30871698975E+02 -0.14289484374E+02  0.34450897024E+02  0.10566000000E+00 0.  1.
         14    1    4    4    0    0  0.56506012262E+00  0.60411443016E+01 -0.32192814016E+01  0.68686599973E+01  0.00000000000E+00 0. -1.
<mgrwt>
<rscale>  0 0.79609046E+02</rscale>
<asrwt>0</asrwt>
<pdfrwt beam="1">  1        1 0.96538565E-02 0.79609046E+02</pdfrwt>
<pdfrwt beam="2">  1       -2 0.38845194E-02 0.79609046E+02</pdfrwt>
<totfact> 0.13818760E+05</totfact>
</mgrwt>
</event>
<event>
 8    1  0.7756875E-018  0.8006153E+02  0.7818608E-02  0.1328877E+00
          1   -1    0    0  501    0  0.00000000000E+00  0.00000000000E+00  0.40706502659E+03  0.40706502662E+03  0.50400000000E-02 0. -1.
         -2   -1    0    0    0  501 -0.00000000000E+00 -0.00000000000E+00 -0.39366243156E+01  0.39366251415E+01  0.25500000000E-02 0.  1.
        -24    2    1    2    0    0  0.00000000000E+00 -0.35527136788E-14  0.40312840228E+03  0.41100165177E+03  0.80061532782E+02 0.  0.
         66    2    3    3    0    0  0.18735084251E+02  0.25507118413E+02  0.32731442838E+03  0.32884700324E+03  0.20000112575E+01 0.  0.
         13    1    3    3    0    0 -0.18735084251E+02 -0.25507118413E+02  0.75813973899E+02  0.82154648524E+02  0.10566000000E+00 0. -1.
         13    1    4    4    0    0  0.87565358645E+01  0.11824645660E+02  0.14686889250E+03  0.14760413921E+03  0.10566000000E+00 0. -1.
        -13    1    4    4    0    0  0.85074401339E+01  0.11724915722E+02  0.14927223252E+03  0.14997353350E+03  0.10566000000E+00 0.  1.
         14    1    4    4    0    0  0.14711082529E+01  0.19575570300E+01  0.31173303364E+02  0.31269330528E+02  0.00000000000E+00 0. -1.
<mgrwt>
<rscale>  0 0.80061533E+02</rscale>
<asrwt>0</asrwt>
<pdfrwt beam="1">  1        1 0.62625425E-01 0.80061533E+02</pdfrwt>
<pdfrwt beam="2">  1       -2 0.60563423E-03 0.80061533E+02</pdfrwt>
<totfact> 0.19009083E+05</totfact>
</mgrwt>
</event>
<event>
 8    1  0.7756875E-018  0.8165218E+02  0.7818608E-02  0.1324427E+00
          1   -1    0    0  501    0  0.00000000000E+00  0.00000000000E+00  0.13592192936E+02  0.13592193871E+02  0.50400000000E-02 0. -1.
         -2   -1    0    0    0  501 -0.00000000000E+00 -0.00000000000E+00 -0.12262697199E+03  0.12262697202E+03  0.25500000000E-02 0.  1.
        -24    2    1    2    0    0  0.00000000000E+00  0.35527136788E-14 -0.10903477906E+03  0.13621916589E+03  0.81652177631E+02 0.  0.
         66    2    3    3    0    0 -0.20247229888E+02  0.27363712843E+02 -0.92078704159E+02  0.98189667620E+02  0.19999922153E+01 0.  0.
         13    1    3    3    0    0  0.20247229888E+02 -0.27363712843E+02 -0.16956074897E+02  0.38029498270E+02  0.10566000000E+00 0. -1.
         13    1    4    4    0    0 -0.50766472602E+01  0.56921444576E+01 -0.19949963472E+02  0.21358489237E+02  0.10566000000E+00 0. -1.
        -13    1    4    4    0    0 -0.77793212254E+01  0.10431400366E+02 -0.35185235764E+02  0.37514582926E+02  0.10566000000E+00 0.  1.
         14    1    4    4    0    0 -0.73912614025E+01  0.11240168020E+02 -0.36943504924E+02  0.39316595457E+02  0.00000000000E+00 0. -1.
<mgrwt>
<rscale>  0 0.81652178E+02</rscale>
<asrwt>0</asrwt>
<pdfrwt beam="1">  1        1 0.20911068E-02 0.81652178E+02</pdfrwt>
<pdfrwt beam="2">  1       -2 0.18865687E-01 0.81652178E+02</pdfrwt>
<totfact> 0.95385625E+04</totfact>
</mgrwt>
</event>
<event>
 8    1  0.7756875E-018  0.8020991E+02  0.7818608E-02  0.1328457E+00
         -2   -1    0    0    0  501 -0.00000000000E+00  0.00000000000E+00  0.38146472529E+02  0.38146472614E+02  0.25500000000E-02 0.  1.
          1   -1    0    0  501    0  0.00000000000E+00 -0.00000000000E+00 -0.42163987723E+02  0.42163988024E+02  0.50400000000E-02 0. -1.
        -24    2    1    2    0    0 -0.17763568394E-14  0.35527136788E-14 -0.40175151934E+01  0.80310460638E+02  0.80209909984E+02 0.  0.
         66    2    3    3    0    0 -0.85284011155E+01  0.22237587767E+02  0.30266389456E+02  0.38565506245E+02  0.20000014786E+01 0.  0.
         13    1    3    3    0    0  0.85284011155E+01 -0.22237587767E+02 -0.34283904650E+02  0.41744954394E+02  0.10566000000E+00 0. -1.
         13    1    4    4    0    0 -0.90489453484E+00  0.12221809560E+01  0.21214352732E+01  0.26123192880E+01  0.10566000000E+00 0. -1.
        -13    1    4    4    0    0 -0.48586187249E+01  0.12744793329E+02  0.17721842883E+02  0.22363157473E+02  0.10566000000E+00 0.  1.
         14    1    4    4    0    0 -0.27648878557E+01  0.82706134813E+01  0.10423111300E+02  0.13590029484E+02  0.00000000000E+00 0. -1.
<mgrwt>
<rscale>  0 0.80209910E+02</rscale>
<asrwt>0</asrwt>
<pdfrwt beam="1">  1        1 0.64867674E-02 0.80209910E+02</pdfrwt>
<pdfrwt beam="2">  1       -2 0.58686881E-02 0.80209910E+02</pdfrwt>
<totfact> 0.12712104E+05</totfact>
</mgrwt>
</event>
<event>
 8    1  0.7756875E-018  0.8222945E+02  0.7818608E-02  0.1322841E+00
          1   -1    0    0  501    0  0.00000000000E+00  0.00000000000E+00  0.99392207437E+02  0.99392207564E+02  0.50400000000E-02 0. -1.
         -2   -1    0    0    0  501 -0.00000000000E+00 -0.00000000000E+00 -0.17007575866E+02  0.17007576058E+02  0.25500000000E-02 0.  1.
        -24    2    1    2    0    0  0.00000000000E+00  0.00000000000E+00  0.82384631570E+02  0.11639978362E+03  0.82229447939E+02 0.  0.
         66    2    3    3    0    0  0.65069045657E+01  0.20427847220E+02 -0.84039429641E+01  0.23114129961E+02  0.19999993600E+01 0.  0.
         13    1    3    3    0    0 -0.65069045657E+01 -0.20427847220E+02  0.90788574534E+02  0.93285653661E+02  0.10566000000E+00 0. -1.
         13    1    4    4    0    0  0.30739530051E+01  0.90244754690E+01 -0.44639365865E+01  0.10527499155E+02  0.10566000000E+00 0.  1.
        -13    1    4    4    0    0 -0.62499515782E-02  0.32813782120E+00 -0.21411214970E+00  0.40585901474E+00  0.10566000000E+00 0. -1.
        -14    1    4    4    0    0  0.34392015122E+01  0.11075233929E+02 -0.37258942278E+01  0.12180771791E+02  0.00000000000E+00 0.  1.
<mgrwt>
<rscale>  0 0.82229448E+02</rscale>
<asrwt>0</asrwt>
<pdfrwt beam="1">  1        1 0.15291109E-01 0.82229448E+02</pdfrwt>
<pdfrwt beam="2">  1       -2 0.26165502E-02 0.82229448E+02</pdfrwt>
<totfact> 0.13630722E+05</totfact>
</mgrwt>
</event>
<event>
 8    1  0.7756875E-018  0.7882052E+02  0.7818608E-02  0.1332432E+00
          1   -1    0    0  501    0  0.00000000000E+00  0.00000000000E+00  0.17292804599E+03  0.17292804607E+03  0.50400000000E-02 0. -1.
         -2   -1    0    0    0  501 -0.00000000000E+00 -0.00000000000E+00 -0.89815881319E+01  0.89815884939E+01  0.25500000000E-02 0.  1.
        -24    2    1    2    0    0  0.00000000000E+00  0.17763568394E-14  0.16394645786E+03  0.18190963456E+03  0.78820518273E+02 0.  0.
         66    2    3    3    0    0 -0.34083289529E+02 -0.10131921031E+02  0.42938700781E+02  0.55785826790E+02  0.19999992369E+01 0.  0.
         13    1    3    3    0    0  0.34083289529E+02  0.10131921031E+02  0.12100775708E+03  0.12612380777E+03  0.10566000000E+00 0. -1.
         13    1    4    4    0    0 -0.40309506003E+01 -0.10394483400E+01  0.41267623834E+01  0.58626229111E+01  0.10566000000E+00 0. -1.
        -13    1    4    4    0    0 -0.21862545786E+02 -0.67760100810E+01  0.28230541883E+02  0.36343636031E+02  0.10566000000E+00 0.  1.
         14    1    4    4    0    0 -0.81897931433E+01 -0.23164626103E+01  0.10581396514E+02  0.13579567848E+02  0.00000000000E+00 0. -1.
<mgrwt>
<rscale>  0 0.78820518E+02</rscale>
<asrwt>0</asrwt>
<pdfrwt beam="1">  1        1 0.26604314E-01 0.78820518E+02</pdfrwt>
<pdfrwt beam="2">  1       -2 0.13817829E-02 0.78820518E+02</pdfrwt>
<totfact> 0.16867830E+05</totfact>
</mgrwt>
</event>
<event>
 8    1  0.7756875E-018  0.8042630E+02  0.7818608E-02  0.1327846E+00
         -2   -1    0    0    0  501 -0.00000000000E+00  0.00000000000E+00  0.83415695144E+02  0.83415695183E+02  0.25500000000E-02 0.  1.
          1   -1    0    0  501    0  0.00000000000E+00 -0.00000000000E+00 -0.19386008120E+02  0.19386008775E+02  0.50400000000E-02 0. -1.
        -24    2    1    2    0    0  0.00000000000E+00  0.00000000000E+00  0.64029687024E+02  0.10280170396E+03  0.80426298660E+02 0.  0.
         66    2    3    3    0    0 -0.40180841534E+02 -0.70619658318E+00  0.32425803107E+02  0.51676217333E+02  0.19999976764E+01 0.  0.
         13    1    3    3    0    0  0.40180841534E+02  0.70619658318E+00  0.31603883917E+02  0.51125486625E+02  0.10566000000E+00 0. -1.
         13    1    4    4    0    0 -0.51986370500E+01 -0.29480046238E+00  0.44497379325E+01  0.68501143198E+01  0.10566000000E+00 0.  1.
        -13    1    4    4    0    0 -0.24409318349E+02  0.32603702352E+00  0.20090050081E+02  0.31615540462E+02  0.10566000000E+00 0. -1.
        -14    1    4    4    0    0 -0.10572886134E+02 -0.73743314432E+00  0.78860150940E+01  0.13210562551E+02  0.00000000000E+00 0.  1.
<mgrwt>
<rscale>  0 0.80426299E+02</rscale>
<asrwt>0</asrwt>
<pdfrwt beam="1">  1        1 0.29824629E-02 0.80426299E+02</pdfrwt>
<pdfrwt beam="2">  1       -2 0.12833184E-01 0.80426299E+02</pdfrwt>
<totfact> 0.10925187E+05</totfact>
</mgrwt>
</event>
<event>
 8    1  0.7756875E-018  0.8019888E+02  0.7818608E-02  0.1328488E+00
         -2   -1    0    0    0  501 -0.00000000000E+00  0.00000000000E+00  0.12219259084E+03  0.12219259087E+03  0.25500000000E-02 0.  1.
          1   -1    0    0  501    0  0.00000000000E+00 -0.00000000000E+00 -0.13159268955E+02  0.13159269920E+02  0.50400000000E-02 0. -1.
        -24    2    1    2    0    0 -0.44408920985E-15  0.00000000000E+00  0.10903332189E+03  0.13535186079E+03  0.80198883641E+02 0.  0.
         66    2    3    3    0    0 -0.33237776396E+01  0.26170992631E+02  0.10546182772E+03  0.10872978184E+03  0.19999998888E+01 0.  0.
         13    1    3    3    0    0  0.33237776396E+01 -0.26170992631E+02  0.35714941688E+01  0.26622078952E+02  0.10566000000E+00 0. -1.
         13    1    4    4    0    0 -0.13787949496E+01  0.11517117506E+02  0.49122168712E+02  0.50473197780E+02  0.10566000000E+00 0. -1.
        -13    1    4    4    0    0 -0.79916360294E+00  0.81311554386E+01  0.32878752432E+02  0.33878870653E+02  0.10566000000E+00 0.  1.
         14    1    4    4    0    0 -0.11458190871E+01  0.65227196862E+01  0.23460906573E+02  0.24377713402E+02  0.00000000000E+00 0. -1.
<mgrwt>
<rscale>  0 0.80198884E+02</rscale>
<asrwt>0</asrwt>
<pdfrwt beam="1">  1        1 0.20245028E-02 0.80198884E+02</pdfrwt>
<pdfrwt beam="2">  1       -2 0.18798862E-01 0.80198884E+02</pdfrwt>
<totfact> 0.99990567E+04</totfact>
</mgrwt>
</event>
<event>
 8    1  0.7756875E-018  0.7529073E+02  0.7818608E-02  0.1342973E+00
          1   -1    0    0  501    0  0.00000000000E+00  0.00000000000E+00  0.17381057717E+03  0.17381057724E+03  0.50400000000E-02 0. -1.
         -2   -1    0    0    0  501 -0.00000000000E+00 -0.00000000000E+00 -0.81535518933E+01  0.81535522921E+01  0.25500000000E-02 0.  1.
        -24    2    1    2    0    0 -0.35527136788E-14 -0.35527136788E-14  0.16565702527E+03  0.18196412953E+03  0.75290732590E+02 0.  0.
         66    2    3    3    0    0 -0.23890599774E+02 -0.16134058367E+02  0.24476701238E+02  0.37870536143E+02  0.20000018302E+01 0.  0.
         13    1    3    3    0    0  0.23890599774E+02  0.16134058367E+02  0.14118032404E+03  0.14409359339E+03  0.10566000000E+00 0. -1.
         13    1    4    4    0    0 -0.57106935257E+01 -0.41096817739E+01  0.52450918296E+01  0.87763122758E+01  0.10566000000E+00 0. -1.
        -13    1    4    4    0    0 -0.12805840634E+02 -0.80463207357E+01  0.13918571259E+02  0.20554090144E+02  0.10566000000E+00 0.  1.
        -14    1    4    4    0    0 -0.53740656142E+01 -0.39780558577E+01  0.53130381493E+01  0.85401337231E+01  0.00000000000E+00 0.  1.
<mgrwt>
<rscale>  0 0.75290733E+02</rscale>
<asrwt>0</asrwt>
<pdfrwt beam="1">  1        1 0.26740089E-01 0.75290733E+02</pdfrwt>
<pdfrwt beam="2">  1       -2 0.12543926E-02 0.75290733E+02</pdfrwt>
<totfact> 0.19064598E+05</totfact>
</mgrwt>
</event>
<event>
 8    1  0.7756875E-018  0.8011979E+02  0.7818608E-02  0.1328712E+00
          1   -1    0    0  501    0  0.00000000000E+00  0.00000000000E+00  0.28694540534E+03  0.28694540538E+03  0.50400000000E-02 0. -1.
         -2   -1    0    0    0  501 -0.00000000000E+00 -0.00000000000E+00 -0.55926837860E+01  0.55926843673E+01  0.25500000000E-02 0.  1.
        -24    2    1    2    0    0  0.00000000000E+00  0.00000000000E+00  0.28135272155E+03  0.29253808975E+03  0.80119785506E+02 0.  0.
         66    2    3    3    0    0 -0.33927613583E+02  0.12409445448E+02  0.77763658126E+02  0.85768664519E+02  0.19999971024E+01 0.  0.
         13    1    3    3    0    0  0.33927613583E+02 -0.12409445448E+02  0.20358906342E+03  0.20676942523E+03  0.10566000000E+00 0. -1.
         13    1    4    4    0    0 -0.14349679068E+02  0.45036320998E+01  0.33319285296E+02  0.36556557936E+02  0.10566000000E+00 0.  1.
        -13    1    4    4    0    0 -0.12166423537E+02  0.48269351251E+01  0.26606480233E+02  0.29651932801E+02  0.10566000000E+00 0. -1.
         14    1    4    4    0    0 -0.74115109773E+01  0.30788782229E+01  0.17837892597E+02  0.19560173782E+02  0.00000000000E+00 0. -1.
<mgrwt>
<rscale>  0 0.80119786E+02</rscale>
<asrwt>0</asrwt>
<pdfrwt beam="1">  1        1 0.44145466E-01 0.80119786E+02</pdfrwt>
<pdfrwt beam="2">  1       -2 0.86041257E-03 0.80119786E+02</pdfrwt>
<totfact> 0.17818065E+05</totfact>
</mgrwt>
</event>
<event>
 8    1  0.7756875E-018  0.7882644E+02  0.7818608E-02  0.1332415E+00
          1   -1    0    0  501    0  0.00000000000E+00  0.00000000000E+00  0.38429365725E+02  0.38429366056E+02  0.50400000000E-02 0. -1.
         -2   -1    0    0    0  501 -0.00000000000E+00 -0.00000000000E+00 -0.40422267158E+02  0.40422267238E+02  0.25500000000E-02 0.  1.
        -24    2    1    2    0    0 -0.35527136788E-14  0.35527136788E-14 -0.19929014325E+01  0.78851633294E+02  0.78826444909E+02 0.  0.
         66    2    3    3    0    0 -0.26833808561E+02  0.25366674007E+02 -0.14708247099E+02  0.39797662798E+02  0.19999998494E+01 0.  0.
         13    1    3    3    0    0  0.26833808561E+02 -0.25366674007E+02  0.12715345666E+02  0.39053970496E+02  0.10566000000E+00 0. -1.
         13    1    4    4    0    0 -0.23377454367E+01  0.17045888775E+01 -0.12151886893E+01  0.31398287460E+01  0.10566000000E+00 0.  1.
        -13    1    4    4    0    0 -0.19038229451E+02  0.18067790233E+02 -0.98451101085E+01  0.28032776916E+02  0.10566000000E+00 0.  1.
        -14    1    4    4    0    0 -0.54578336736E+01  0.55942948962E+01 -0.36479483007E+01  0.86250571360E+01  0.00000000000E+00 0.  1.
<mgrwt>
<rscale>  0 0.78826445E+02</rscale>
<asrwt>0</asrwt>
<pdfrwt beam="1">  1        1 0.59122102E-02 0.78826445E+02</pdfrwt>
<pdfrwt beam="2">  1       -2 0.62188103E-02 0.78826445E+02</pdfrwt>
<totfact> 0.13151762E+05</totfact>
</mgrwt>
</event>
<event>
 8    1  0.7756875E-018  0.7734480E+02  0.7818608E-02  0.1336760E+00
         -2   -1    0    0    0  501 -0.00000000000E+00  0.00000000000E+00  0.12746292643E+02  0.12746292898E+02  0.25500000000E-02 0.  1.
          1   -1    0    0  501    0  0.00000000000E+00 -0.00000000000E+00 -0.11733250380E+03  0.11733250390E+03  0.50400000000E-02 0. -1.
        -24    2    1    2    0    0  0.00000000000E+00  0.00000000000E+00 -0.10458621115E+03  0.13007879680E+03  0.77344798235E+02 0.  0.
         66    2    3    3    0    0  0.15393722681E+02 -0.22158909999E+02 -0.57943804130E+01  0.27668733940E+02  0.20000007963E+01 0.  0.
         13    1    3    3    0    0 -0.15393722681E+02  0.22158909999E+02 -0.98791830740E+02  0.10241006286E+03  0.10566000000E+00 0. -1.
         13    1    4    4    0    0  0.32338551016E+01 -0.39321606914E+01 -0.11422704124E+01  0.52187788085E+01  0.10566000000E+00 0. -1.
        -13    1    4    4    0    0  0.12183536519E+02 -0.18134160647E+02 -0.45614984696E+01  0.22318261061E+02  0.10566000000E+00 0.  1.
        -14    1    4    4    0    0 -0.23668939372E-01 -0.92588660613E-01 -0.90611531020E-01  0.13169407093E+00  0.00000000000E+00 0.  1.
<mgrwt>
<rscale>  0 0.77344798E+02</rscale>
<asrwt>0</asrwt>
<pdfrwt beam="1">  1        1 0.18051154E-01 0.77344798E+02</pdfrwt>
<pdfrwt beam="2">  1       -2 0.19609682E-02 0.77344798E+02</pdfrwt>
<totfact> 0.16539339E+05</totfact>
</mgrwt>
</event>
<event>
 8    1  0.7756875E-018  0.8243898E+02  0.7818608E-02  0.1322269E+00
         -2   -1    0    0    0  501 -0.00000000000E+00  0.00000000000E+00  0.31230071967E+03  0.31230071968E+03  0.25500000000E-02 0.  1.
          1   -1    0    0  501    0  0.00000000000E+00 -0.00000000000E+00 -0.54404158394E+01  0.54404181740E+01  0.50400000000E-02 0. -1.
        -24    2    1    2    0    0  0.88817841970E-15  0.71054273576E-14  0.30686030383E+03  0.31774113786E+03  0.82438975115E+02 0.  0.
         66    2    3    3    0    0  0.75213133853E+01  0.34762769363E+02  0.23363140138E+03  0.23633165680E+03  0.20000005501E+01 0.  0.
         13    1    3    3    0    0 -0.75213133853E+01 -0.34762769363E+02  0.73228902450E+02  0.81409481062E+02  0.10566000000E+00 0. -1.
         13    1    4    4    0    0  0.49974444086E+01  0.25175348929E+02  0.16505005027E+03  0.16703383760E+03  0.10566000000E+00 0. -1.
        -13    1    4    4    0    0  0.11277836884E+01  0.53406242386E+01  0.39191374731E+02  0.39569801372E+02  0.10566000000E+00 0.  1.
        -14    1    4    4    0    0  0.13960852883E+01  0.42467961945E+01  0.29389976383E+02  0.29728017825E+02  0.00000000000E+00 0.  1.
<mgrwt>
<rscale>  0 0.82438975E+02</rscale>
<asrwt>0</asrwt>
<pdfrwt beam="1">  1        1 0.83698727E-03 0.82438975E+02</pdfrwt>
<pdfrwt beam="2">  1       -2 0.48046263E-01 0.82438975E+02</pdfrwt>
<totfact> 0.63592278E+04</totfact>
</mgrwt>
</event>
<event>
 8    1  0.7756875E-018  0.7545024E+02  0.7818608E-02  0.1342482E+00
          1   -1    0    0  501    0  0.00000000000E+00  0.00000000000E+00  0.10168855789E+03  0.10168855801E+03  0.50400000000E-02 0. -1.
         -2   -1    0    0    0  501 -0.00000000000E+00 -0.00000000000E+00 -0.13995525276E+02  0.13995525508E+02  0.25500000000E-02 0.  1.
        -24    2    1    2    0    0 -0.17763568394E-14  0.35527136788E-14  0.87693032611E+02  0.11568408352E+03  0.75450243283E+02 0.  0.
         66    2    3    3    0    0 -0.12424472977E+02  0.29374788788E+02  0.13061805070E+02  0.34523273807E+02  0.19999843965E+01 0.  0.
         13    1    3    3    0    0  0.12424472977E+02 -0.29374788788E+02  0.74631227541E+02  0.81160809714E+02  0.10566000000E+00 0. -1.
         13    1    4    4    0    0 -0.62226657978E+01  0.16478671764E+02  0.73387746579E+01  0.19082373286E+02  0.10566000000E+00 0. -1.
        -13    1    4    4    0    0 -0.48340113771E+01  0.10191807101E+02  0.40958857011E+01  0.12001168347E+02  0.10566000000E+00 0.  1.
         14    1    4    4    0    0 -0.13677958023E+01  0.27043099225E+01  0.16271447110E+01  0.34397321734E+01  0.00000000000E+00 0. -1.
<mgrwt>
<rscale>  0 0.75450243E+02</rscale>
<asrwt>0</asrwt>
<pdfrwt beam="1">  1        1 0.15644394E-01 0.75450243E+02</pdfrwt>
<pdfrwt beam="2">  1       -2 0.21531577E-02 0.75450243E+02</pdfrwt>
<totfact> 0.17256177E+05</totfact>
</mgrwt>
</event>
<event>
 8    1  0.7756875E-018  0.8061301E+02  0.7818608E-02  0.1327321E+00
         -2   -1    0    0    0  501 -0.00000000000E+00  0.00000000000E+00  0.10891918389E+02  0.10891918688E+02  0.25500000000E-02 0.  1.
          1   -1    0    0  501    0  0.00000000000E+00 -0.00000000000E+00 -0.14915776443E+03  0.14915776452E+03  0.50400000000E-02 0. -1.
        -24    2    1    2    0    0  0.00000000000E+00  0.00000000000E+00 -0.13826584605E+03  0.16004968321E+03  0.80613007091E+02 0.  0.
         66    2    3    3    0    0 -0.10374559677E+02 -0.34173393373E+02 -0.32182947026E+02  0.48116466817E+02  0.19999991419E+01 0.  0.
         13    1    3    3    0    0  0.10374559677E+02  0.34173393373E+02 -0.10608289902E+03  0.11193321639E+03  0.10566000000E+00 0. -1.
         13    1    4    4    0    0 -0.78086412644E+00 -0.35559198613E+01 -0.34274820651E+01  0.50013110468E+01  0.10566000000E+00 0. -1.
        -13    1    4    4    0    0 -0.38867360153E+01 -0.11256471689E+02 -0.11602972849E+02  0.16626936420E+02  0.10566000000E+00 0.  1.
        -14    1    4    4    0    0 -0.57069595353E+01 -0.19361001823E+02 -0.17152492112E+02  0.26488219351E+02  0.00000000000E+00 0.  1.
<mgrwt>
<rscale>  0 0.80613007E+02</rscale>
<asrwt>0</asrwt>
<pdfrwt beam="1">  1        1 0.22947347E-01 0.80613007E+02</pdfrwt>
<pdfrwt beam="2">  1       -2 0.16756799E-02 0.80613007E+02</pdfrwt>
<totfact> 0.15453431E+05</totfact>
</mgrwt>
</event>
<event>
 8    1  0.7756875E-018  0.7948258E+02  0.7818608E-02  0.1330526E+00
         -2   -1    0    0    0  501 -0.00000000000E+00  0.00000000000E+00  0.11135545969E+02  0.11135546261E+02  0.25500000000E-02 0.  1.
          1   -1    0    0  501    0  0.00000000000E+00 -0.00000000000E+00 -0.14183140833E+03  0.14183140842E+03  0.50400000000E-02 0. -1.
        -24    2    1    2    0    0  0.00000000000E+00  0.35527136788E-14 -0.13069586236E+03  0.15296695468E+03  0.79482581650E+02 0.  0.
         66    2    3    3    0    0  0.14460934572E+02 -0.21470838332E+02 -0.74210901283E+01  0.27003483147E+02  0.19999990044E+01 0.  0.
         13    1    3    3    0    0 -0.14460934572E+02  0.21470838332E+02 -0.12327477223E+03  0.12596347153E+03  0.10566000000E+00 0. -1.
         13    1    4    4    0    0  0.45614139323E+00 -0.11525648395E+01 -0.20272659043E+00  0.12604494380E+01  0.10566000000E+00 0. -1.
        -13    1    4    4    0    0  0.85965190967E+01 -0.11909473862E+02 -0.37354702972E+01  0.15155877099E+02  0.10566000000E+00 0.  1.
        -14    1    4    4    0    0  0.54082740825E+01 -0.84087996300E+01 -0.34828932406E+01  0.10587156610E+02  0.00000000000E+00 0.  1.
<mgrwt>
<rscale>  0 0.79482582E+02</rscale>
<asrwt>0</asrwt>
<pdfrwt beam="1">  1        1 0.21820216E-01 0.79482582E+02</pdfrwt>
<pdfrwt beam="2">  1       -2 0.17131610E-02 0.79482582E+02</pdfrwt>
<totfact> 0.15900660E+05</totfact>
</mgrwt>
</event>
<event>
 8    1  0.7756875E-018  0.8796788E+02  0.7818608E-02  0.1307849E+00
         -2   -1    0    0    0  501 -0.00000000000E+00  0.00000000000E+00  0.98412396645E+02  0.98412396678E+02  0.25500000000E-02 0.  1.
          1   -1    0    0  501    0  0.00000000000E+00 -0.00000000000E+00 -0.19657959034E+02  0.19657959680E+02  0.50400000000E-02 0. -1.
        -24    2    1    2    0    0  0.00000000000E+00  0.00000000000E+00  0.78754437611E+02  0.11807035636E+03  0.87967878268E+02 0.  0.
         66    2    3    3    0    0  0.18138078231E+02  0.31407332044E+02  0.72741667728E+02  0.81306584057E+02  0.19999997623E+01 0.  0.
         13    1    3    3    0    0 -0.18138078231E+02 -0.31407332044E+02  0.60127698830E+01  0.36763772301E+02  0.10566000000E+00 0. -1.
         13    1    4    4    0    0  0.21573558184E+01  0.37224646480E+01  0.92617748519E+01  0.10212862705E+02  0.10566000000E+00 0. -1.
        -13    1    4    4    0    0  0.58344719163E+01  0.87046071670E+01  0.21542490001E+02  0.23956236932E+02  0.10566000000E+00 0.  1.
        -14    1    4    4    0    0  0.10146250497E+02  0.18980260229E+02  0.41937402876E+02  0.47137484420E+02  0.00000000000E+00 0.  1.
<mgrwt>
<rscale>  0 0.87967878E+02</rscale>
<asrwt>0</asrwt>
<pdfrwt beam="1">  1        1 0.30243015E-02 0.87967878E+02</pdfrwt>
<pdfrwt beam="2">  1       -2 0.15140369E-01 0.87967878E+02</pdfrwt>
<totfact> 0.83533608E+04</totfact>
</mgrwt>
</event>
<event>
 8    1  0.7756875E-018  0.7951000E+02  0.7818608E-02  0.1330448E+00
         -2   -1    0    0    0  501 -0.00000000000E+00  0.00000000000E+00  0.13967060282E+02  0.13967060515E+02  0.25500000000E-02 0.  1.
          1   -1    0    0  501    0  0.00000000000E+00 -0.00000000000E+00 -0.11315624631E+03  0.11315624642E+03  0.50400000000E-02 0. -1.
        -24    2    1    2    0    0  0.71054273576E-14  0.17763568394E-14 -0.99189186025E+02  0.12712330693E+03  0.79510002778E+02 0.  0.
         66    2    3    3    0    0  0.36646405850E+02 -0.13539168411E+02 -0.61175958682E+02  0.72613814550E+02  0.19999999875E+01 0.  0.
         13    1    3    3    0    0 -0.36646405850E+02  0.13539168411E+02 -0.38013227343E+02  0.54509492385E+02  0.10566000000E+00 0. -1.
         13    1    4    4    0    0  0.42059786663E+01 -0.21774013211E+01 -0.77942587150E+01  0.91210178164E+01  0.10566000000E+00 0. -1.
        -13    1    4    4    0    0  0.49244633543E+01 -0.15788612917E+01 -0.81577397255E+01  0.96593490345E+01  0.10566000000E+00 0.  1.
         14    1    4    4    0    0  0.27515963829E+02 -0.97829057978E+01 -0.45223960241E+02  0.53833447699E+02  0.00000000000E+00 0. -1.
<mgrwt>
<rscale>  0 0.79510003E+02</rscale>
<asrwt>0</asrwt>
<pdfrwt beam="1">  1        1 0.17408653E-01 0.79510003E+02</pdfrwt>
<pdfrwt beam="2">  1       -2 0.21487786E-02 0.79510003E+02</pdfrwt>
<totfact> 0.15262476E+05</totfact>
</mgrwt>
</event>
<event>
 8    1  0.7756875E-018  0.7831790E+02  0.7818608E-02  0.1333894E+00
         -2   -1    0    0    0  501 -0.00000000000E+00  0.00000000000E+00  0.11030994683E+03  0.11030994686E+03  0.25500000000E-02 0.  1.
          1   -1    0    0  501    0  0.00000000000E+00 -0.00000000000E+00 -0.13901041762E+02  0.13901042676E+02  0.50400000000E-02 0. -1.
        -24    2    1    2    0    0  0.35527136788E-14 -0.17763568394E-14  0.96408905071E+02  0.12421098954E+03  0.78317896711E+02 0.  0.
         66    2    3    3    0    0 -0.13810697473E+02  0.15413743405E+02  0.10091101851E+03  0.10303083279E+03  0.19999995707E+01 0.  0.
         13    1    3    3    0    0  0.13810697473E+02 -0.15413743405E+02 -0.45021134384E+01  0.21180156749E+02  0.10566000000E+00 0. -1.
         13    1    4    4    0    0 -0.36857197946E+01  0.48165443092E+01  0.27725019499E+02  0.28380829793E+02  0.10566000000E+00 0.  1.
        -13    1    4    4    0    0 -0.10205792385E+01  0.66048115944E+00  0.52215400294E+01  0.53622254390E+01  0.10566000000E+00 0. -1.
        -14    1    4    4    0    0 -0.91043984402E+01  0.99367179367E+01  0.67964458982E+02  0.69287777558E+02  0.00000000000E+00 0.  1.
<mgrwt>
<rscale>  0 0.78317897E+02</rscale>
<asrwt>0</asrwt>
<pdfrwt beam="1">  1        1 0.21386219E-02 0.78317897E+02</pdfrwt>
<pdfrwt beam="2">  1       -2 0.16970761E-01 0.78317897E+02</pdfrwt>
<totfact> 0.10928314E+05</totfact>
</mgrwt>
</event>
<event>
 8    1  0.7756875E-018  0.7992536E+02  0.7818608E-02  0.1329263E+00
          1   -1    0    0  501    0  0.00000000000E+00  0.00000000000E+00  0.35987684604E+02  0.35987684957E+02  0.50400000000E-02 0. -1.
         -2   -1    0    0    0  501 -0.00000000000E+00 -0.00000000000E+00 -0.44376729536E+02  0.44376729609E+02  0.25500000000E-02 0.  1.
        -24    2    1    2    0    0  0.00000000000E+00  0.00000000000E+00 -0.83890449315E+01  0.80364414566E+02  0.79925359265E+02 0.  0.
         66    2    3    3    0    0 -0.17404955368E+02 -0.17328485333E+02 -0.35863028974E+02  0.43512822491E+02  0.19999996626E+01 0.  0.
         13    1    3    3    0    0  0.17404955368E+02  0.17328485333E+02  0.27473984042E+02  0.36851592075E+02  0.10566000000E+00 0. -1.
         13    1    4    4    0    0 -0.94381976470E+01 -0.84681770254E+01 -0.18532936341E+02  0.22455967813E+02  0.10566000000E+00 0. -1.
        -13    1    4    4    0    0 -0.41260286827E+01 -0.53414049564E+01 -0.99445056856E+01  0.12019112986E+02  0.10566000000E+00 0.  1.
        -14    1    4    4    0    0 -0.38407290383E+01 -0.35189033513E+01 -0.73855869467E+01  0.90377416918E+01  0.00000000000E+00 0.  1.
<mgrwt>
<rscale>  0 0.79925359E+02</rscale>
<asrwt>0</asrwt>
<pdfrwt beam="1">  1        1 0.55365669E-02 0.79925359E+02</pdfrwt>
<pdfrwt beam="2">  1       -2 0.68271892E-02 0.79925359E+02</pdfrwt>
<totfact> 0.12511623E+05</totfact>
</mgrwt>
</event>
<event>
 8    1  0.7756875E-018  0.7995240E+02  0.7818608E-02  0.1329187E+00
         -2   -1    0    0    0  501 -0.00000000000E+00  0.00000000000E+00  0.11022483621E+02  0.11022483916E+02  0.25500000000E-02 0.  1.
          1   -1    0    0  501    0  0.00000000000E+00 -0.00000000000E+00 -0.14498515001E+03  0.14498515010E+03  0.50400000000E-02 0. -1.
        -24    2    1    2    0    0 -0.17763568394E-14  0.00000000000E+00 -0.13396266639E+03  0.15600763402E+03  0.79952397617E+02 0.  0.
         66    2    3    3    0    0 -0.90127202984E+01 -0.33854449405E+02 -0.29553993098E+02  0.45878005421E+02  0.20000004280E+01 0.  0.
         13    1    3    3    0    0  0.90127202984E+01  0.33854449405E+02 -0.10440867329E+03  0.11012962860E+03  0.10566000000E+00 0. -1.
         13    1    4    4    0    0 -0.40506536979E+01 -0.12776133876E+02 -0.11922628698E+02  0.17938718775E+02  0.10566000000E+00 0. -1.
        -13    1    4    4    0    0 -0.18993207134E+01 -0.92537834773E+01 -0.72406300464E+01  0.11902849042E+02  0.10566000000E+00 0.  1.
        -14    1    4    4    0    0 -0.30627458871E+01 -0.11824532052E+02 -0.10390734353E+02  0.16036437604E+02  0.00000000000E+00 0.  1.
<mgrwt>
<rscale>  0 0.79952398E+02</rscale>
<asrwt>0</asrwt>
<pdfrwt beam="1">  1        1 0.22305407E-01 0.79952398E+02</pdfrwt>
<pdfrwt beam="2">  1       -2 0.16957668E-02 0.79952398E+02</pdfrwt>
<totfact> 0.15715027E+05</totfact>
</mgrwt>
</event>
<event>
 8    1  0.7756875E-018  0.7948563E+02  0.7818608E-02  0.1330518E+00
          1   -1    0    0  501    0  0.00000000000E+00  0.00000000000E+00  0.70864237074E+02  0.70864237253E+02  0.50400000000E-02 0. -1.
         -2   -1    0    0    0  501 -0.00000000000E+00 -0.00000000000E+00 -0.22288976127E+02  0.22288976273E+02  0.25500000000E-02 0.  1.
        -24    2    1    2    0    0  0.00000000000E+00  0.00000000000E+00  0.48575260947E+02  0.93153213526E+02  0.79485628978E+02 0.  0.
         66    2    3    3    0    0  0.22836935473E+02 -0.32494938509E+02  0.24069617348E+02  0.46484333287E+02  0.20000278328E+01 0.  0.
         13    1    3    3    0    0 -0.22836935473E+02  0.32494938509E+02  0.24505643599E+02  0.46668880239E+02  0.10566000000E+00 0. -1.
         13    1    4    4    0    0  0.66072655625E+01 -0.79401362051E+01  0.60961682668E+01  0.11994838588E+02  0.10566000000E+00 0. -1.
        -13    1    4    4    0    0  0.15251341749E+02 -0.23099933483E+02  0.16999614069E+02  0.32483971349E+02  0.10566000000E+00 0.  1.
         14    1    4    4    0    0  0.97832816077E+00 -0.14548688216E+01  0.97383501220E+00  0.20055233504E+01  0.00000000000E+00 0. -1.
<mgrwt>
<rscale>  0 0.79485629E+02</rscale>
<asrwt>0</asrwt>
<pdfrwt beam="1">  1        1 0.10902190E-01 0.79485629E+02</pdfrwt>
<pdfrwt beam="2">  1       -2 0.34290732E-02 0.79485629E+02</pdfrwt>
<totfact> 0.14145003E+05</totfact>
</mgrwt>
</event>
<event>
 8    1  0.7756875E-018  0.7904121E+02  0.7818608E-02  0.1331795E+00
         -2   -1    0    0    0  501 -0.00000000000E+00  0.00000000000E+00  0.22583293278E+02  0.22583293422E+02  0.25500000000E-02 0.  1.
          1   -1    0    0  501    0  0.00000000000E+00 -0.00000000000E+00 -0.69160781945E+02  0.69160782129E+02  0.50400000000E-02 0. -1.
        -24    2    1    2    0    0 -0.35527136788E-14 -0.71054273576E-14 -0.46577488667E+02  0.91744075550E+02  0.79041210441E+02 0.  0.
         66    2    3    3    0    0  0.16226786299E+02  0.35948575667E+02 -0.25700589760E+02  0.47118244935E+02  0.20000013992E+01 0.  0.
         13    1    3    3    0    0 -0.16226786299E+02 -0.35948575667E+02 -0.20876898907E+02  0.44625830616E+02  0.10566000000E+00 0. -1.
         13    1    4    4    0    0  0.97725376301E+01  0.22640250537E+02 -0.15405181487E+02  0.29076007580E+02  0.10566000000E+00 0.  1.
        -13    1    4    4    0    0  0.28053569696E+01  0.66265165155E+01 -0.47345404628E+01  0.86143941334E+01  0.10566000000E+00 0.  1.
        -14    1    4    4    0    0  0.36488916996E+01  0.66818086148E+01 -0.55608678100E+01  0.94278432211E+01  0.00000000000E+00 0.  1.
<mgrwt>
<rscale>  0 0.79041210E+02</rscale>
<asrwt>0</asrwt>
<pdfrwt beam="1">  1        1 0.10640120E-01 0.79041210E+02</pdfrwt>
<pdfrwt beam="2">  1       -2 0.34743529E-02 0.79041210E+02</pdfrwt>
<totfact> 0.14308682E+05</totfact>
</mgrwt>
</event>
<event>
 8    1  0.7756875E-018  0.8398267E+02  0.7818608E-02  0.1318115E+00
          1   -1    0    0  501    0  0.00000000000E+00  0.00000000000E+00  0.61504919755E+02  0.61504919962E+02  0.50400000000E-02 0. -1.
         -2   -1    0    0    0  501 -0.00000000000E+00 -0.00000000000E+00 -0.28668798645E+02  0.28668798759E+02  0.25500000000E-02 0.  1.
        -24    2    1    2    0    0  0.00000000000E+00  0.00000000000E+00  0.32836121110E+02  0.90173718720E+02  0.83982669035E+02 0.  0.
         66    2    3    3    0    0  0.21051391263E+02 -0.65156997581E+01 -0.21921859737E+02  0.31147766395E+02  0.19999998996E+01 0.  0.
         13    1    3    3    0    0 -0.21051391263E+02  0.65156997581E+01  0.54757980847E+02  0.59025952326E+02  0.10566000000E+00 0. -1.
         13    1    4    4    0    0  0.63566979210E+01 -0.26897875971E+01 -0.66344807446E+01  0.95744485252E+01  0.10566000000E+00 0. -1.
        -13    1    4    4    0    0  0.62023593539E+01 -0.20908033941E+01 -0.62343712335E+01  0.90398710776E+01  0.10566000000E+00 0.  1.
         14    1    4    4    0    0  0.84923339883E+01 -0.17351087670E+01 -0.90530077589E+01  0.12533446792E+02  0.00000000000E+00 0. -1.
<mgrwt>
<rscale>  0 0.83982669E+02</rscale>
<asrwt>0</asrwt>
<pdfrwt beam="1">  1        1 0.94622953E-02 0.83982669E+02</pdfrwt>
<pdfrwt beam="2">  1       -2 0.44105844E-02 0.83982669E+02</pdfrwt>
<totfact> 0.11883142E+05</totfact>
</mgrwt>
</event>
<event>
 8    1  0.7756875E-018  0.7886190E+02  0.7818608E-02  0.1332313E+00
          1   -1    0    0  501    0  0.00000000000E+00  0.00000000000E+00  0.10836050134E+02  0.10836051307E+02  0.50400000000E-02 0. -1.
         -2   -1    0    0    0  501 -0.00000000000E+00 -0.00000000000E+00 -0.14348397894E+03  0.14348397897E+03  0.25500000000E-02 0.  1.
        -24    2    1    2    0    0  0.00000000000E+00  0.00000000000E+00 -0.13264792881E+03  0.15432003027E+03  0.78861896541E+02 0.  0.
         66    2    3    3    0    0  0.30713251204E+01 -0.11519119147E+02 -0.13986323739E+03  0.14038464417E+03  0.20000004322E+01 0.  0.
         13    1    3    3    0    0 -0.30713251204E+01  0.11519119147E+02  0.72153085800E+01  0.13935386103E+02  0.10566000000E+00 0. -1.
         13    1    4    4    0    0  0.44790685402E+00 -0.84968003473E+00 -0.16539641383E+02  0.16567844695E+02  0.10566000000E+00 0. -1.
        -13    1    4    4    0    0  0.51318918447E+00 -0.14206164684E+01 -0.13665279990E+02  0.13748911068E+02  0.10566000000E+00 0.  1.
         14    1    4    4    0    0  0.21102290819E+01 -0.92488226435E+01 -0.10965831601E+03  0.11006788841E+03  0.00000000000E+00 0. -1.
<mgrwt>
<rscale>  0 0.78861897E+02</rscale>
<asrwt>0</asrwt>
<pdfrwt beam="1">  1        1 0.16670848E-02 0.78861897E+02</pdfrwt>
<pdfrwt beam="2">  1       -2 0.22074457E-01 0.78861897E+02</pdfrwt>
<totfact> 0.99476277E+04</totfact>
</mgrwt>
</event>
<event>
 8    1  0.7756875E-018  0.8029529E+02  0.7818608E-02  0.1328216E+00
          1   -1    0    0  501    0  0.00000000000E+00  0.00000000000E+00  0.57500831792E+01  0.57500853880E+01  0.50400000000E-02 0. -1.
         -2   -1    0    0    0  501 -0.00000000000E+00 -0.00000000000E+00 -0.28031474107E+03  0.28031474108E+03  0.25500000000E-02 0.  1.
        -24    2    1    2    0    0 -0.35527136788E-14 -0.35527136788E-14 -0.27456465789E+03  0.28606482647E+03  0.80295289901E+02 0.  0.
         66    2    3    3    0    0  0.28178496589E+02  0.28459506270E+02 -0.14598953589E+03  0.15139655134E+03  0.19999996040E+01 0.  0.
         13    1    3    3    0    0 -0.28178496589E+02 -0.28459506270E+02 -0.12857512199E+03  0.13466827513E+03  0.10566000000E+00 0. -1.
         13    1    4    4    0    0  0.89583195171E+01  0.90970711442E+01 -0.48678347205E+02  0.50324952485E+02  0.10566000000E+00 0. -1.
        -13    1    4    4    0    0  0.17062888255E+02  0.17579009287E+02 -0.88323879387E+02  0.91658510555E+02  0.10566000000E+00 0.  1.
         14    1    4    4    0    0  0.21572888173E+01  0.17834258391E+01 -0.89873093025E+01  0.94130882958E+01  0.00000000000E+00 0. -1.
<mgrwt>
<rscale>  0 0.80295290E+02</rscale>
<asrwt>0</asrwt>
<pdfrwt beam="1">  1        1 0.88462857E-03 0.80295290E+02</pdfrwt>
<pdfrwt beam="2">  1       -2 0.43125334E-01 0.80295290E+02</pdfrwt>
<totfact> 0.72157923E+04</totfact>
</mgrwt>
</event>
<event>
 8    1  0.7756875E-018  0.7590489E+02  0.7818608E-02  0.1341092E+00
         -2   -1    0    0    0  501 -0.00000000000E+00  0.00000000000E+00  0.23968473248E+03  0.23968473249E+03  0.25500000000E-02 0.  1.
          1   -1    0    0  501    0  0.00000000000E+00 -0.00000000000E+00 -0.60095097423E+01  0.60095118557E+01  0.50400000000E-02 0. -1.
        -24    2    1    2    0    0 -0.35527136788E-14 -0.35527136788E-14  0.23367522274E+03  0.24569424435E+03  0.75904887753E+02 0.  0.
         66    2    3    3    0    0 -0.19473532884E+02 -0.13190503222E+02  0.21322151240E+03  0.21452417394E+03  0.20000000028E+01 0.  0.
         13    1    3    3    0    0  0.19473532884E+02  0.13190503222E+02  0.20453710342E+02  0.31170070405E+02  0.10566000000E+00 0. -1.
         13    1    4    4    0    0 -0.90610813884E+01 -0.60562152274E+01  0.10470073971E+03  0.10526650464E+03  0.10566000000E+00 0. -1.
        -13    1    4    4    0    0 -0.47815717671E+01 -0.32596587747E+01  0.54374965168E+02  0.54682143383E+02  0.10566000000E+00 0.  1.
        -14    1    4    4    0    0 -0.56308797288E+01 -0.38746292200E+01  0.54145807518E+02  0.54575525924E+02  0.00000000000E+00 0.  1.
<mgrwt>
<rscale>  0 0.75904888E+02</rscale>
<asrwt>0</asrwt>
<pdfrwt beam="1">  1        1 0.92454031E-03 0.75904888E+02</pdfrwt>
<pdfrwt beam="2">  1       -2 0.36874567E-01 0.75904888E+02</pdfrwt>
<totfact> 0.90063653E+04</totfact>
</mgrwt>
</event>
<event>
 8    1  0.7756875E-018  0.9003298E+02  0.7818608E-02  0.1302772E+00
         -2   -1    0    0    0  501 -0.00000000000E+00  0.00000000000E+00  0.93180785694E+01  0.93180789184E+01  0.25500000000E-02 0.  1.
          1   -1    0    0  501    0  0.00000000000E+00 -0.00000000000E+00 -0.21747876386E+03  0.21747876392E+03  0.50400000000E-02 0. -1.
        -24    2    1    2    0    0 -0.88817841970E-15  0.00000000000E+00 -0.20816068529E+03  0.22679684284E+03  0.90032977404E+02 0.  0.
         66    2    3    3    0    0 -0.57005289051E+01  0.40972542305E+02 -0.59548509281E+02  0.72534613905E+02  0.20000009908E+01 0.  0.
         13    1    3    3    0    0  0.57005289051E+01 -0.40972542305E+02 -0.14861217601E+03  0.15426222893E+03  0.10566000000E+00 0. -1.
         13    1    4    4    0    0 -0.25640354095E+01  0.25172955231E+02 -0.36277341937E+02  0.44230178099E+02  0.10566000000E+00 0. -1.
        -13    1    4    4    0    0 -0.27888193899E+01  0.14036488736E+02 -0.20859953544E+02  0.25297220312E+02  0.10566000000E+00 0.  1.
         14    1    4    4    0    0 -0.34767410569E+00  0.17630983387E+01 -0.24112138004E+01  0.30072154939E+01  0.00000000000E+00 0. -1.
<mgrwt>
<rscale>  0 0.90032977E+02</rscale>
<asrwt>0</asrwt>
<pdfrwt beam="1">  1        1 0.33458268E-01 0.90032977E+02</pdfrwt>
<pdfrwt beam="2">  1       -2 0.14335507E-02 0.90032977E+02</pdfrwt>
<totfact> 0.12365642E+05</totfact>
</mgrwt>
</event>
<event>
 8    1  0.7756875E-018  0.7998138E+02  0.7818608E-02  0.1329104E+00
         -2   -1    0    0    0  501 -0.00000000000E+00  0.00000000000E+00  0.40759507192E+02  0.40759507271E+02  0.25500000000E-02 0.  1.
          1   -1    0    0  501    0  0.00000000000E+00 -0.00000000000E+00 -0.39236376675E+02  0.39236376999E+02  0.50400000000E-02 0. -1.
        -24    2    1    2    0    0  0.00000000000E+00  0.00000000000E+00  0.15231305165E+01  0.79995884270E+02  0.79981382669E+02 0.  0.
         66    2    3    3    0    0  0.70572389282E+01 -0.37717230925E+02  0.11937979277E+02  0.40235673397E+02  0.19999836354E+01 0.  0.
         13    1    3    3    0    0 -0.70572389282E+01  0.37717230925E+02 -0.10414848760E+02  0.39760210873E+02  0.10566000000E+00 0. -1.
         13    1    4    4    0    0  0.26128804127E+01 -0.11411482353E+02  0.43065350231E+01  0.12474232701E+02  0.10566000000E+00 0. -1.
        -13    1    4    4    0    0  0.77936917556E+00 -0.37867446907E+01  0.85318117660E+00  0.39605471617E+01  0.10566000000E+00 0.  1.
         14    1    4    4    0    0  0.36649893399E+01 -0.22519003882E+02  0.67782630771E+01  0.23800893534E+02  0.00000000000E+00 0. -1.
<mgrwt>
<rscale>  0 0.79981383E+02</rscale>
<asrwt>0</asrwt>
<pdfrwt beam="1">  1        1 0.60363657E-02 0.79981383E+02</pdfrwt>
<pdfrwt beam="2">  1       -2 0.62706934E-02 0.79981383E+02</pdfrwt>
<totfact> 0.12666074E+05</totfact>
</mgrwt>
</event>
<event>
 8    1  0.7756875E-018  0.8263431E+02  0.7818608E-02  0.1321738E+00
          1   -1    0    0  501    0  0.00000000000E+00  0.00000000000E+00  0.79526113383E+02  0.79526113543E+02  0.50400000000E-02 0. -1.
         -2   -1    0    0    0  501 -0.00000000000E+00 -0.00000000000E+00 -0.21465996523E+02  0.21465996674E+02  0.25500000000E-02 0.  1.
        -24    2    1    2    0    0  0.00000000000E+00  0.00000000000E+00  0.58060116860E+02  0.10099211022E+03  0.82634309801E+02 0.  0.
         66    2    3    3    0    0  0.13613282871E+02 -0.38984358224E+02  0.29077708356E+02  0.50543197213E+02  0.20000011491E+01 0.  0.
         13    1    3    3    0    0 -0.13613282871E+02  0.38984358224E+02  0.28982408504E+02  0.50448913005E+02  0.10566000000E+00 0. -1.
         13    1    4    4    0    0  0.20207025502E+01 -0.67219040310E+01  0.51189082936E+01  0.86880158121E+01  0.10566000000E+00 0. -1.
        -13    1    4    4    0    0  0.43526742194E+01 -0.11594251673E+02  0.95718642340E+01  0.15652609804E+02  0.10566000000E+00 0.  1.
         14    1    4    4    0    0  0.72399061010E+01 -0.20668202520E+02  0.14386935829E+02  0.26202571597E+02  0.00000000000E+00 0. -1.
<mgrwt>
<rscale>  0 0.82634310E+02</rscale>
<asrwt>0</asrwt>
<pdfrwt beam="1">  1        1 0.12234787E-01 0.82634310E+02</pdfrwt>
<pdfrwt beam="2">  1       -2 0.33024610E-02 0.82634310E+02</pdfrwt>
<totfact> 0.12957236E+05</totfact>
</mgrwt>
</event>
<event>
 8    1  0.7756875E-018  0.7963860E+02  0.7818608E-02  0.1330080E+00
         -2   -1    0    0    0  501 -0.00000000000E+00  0.00000000000E+00  0.32859551353E+02  0.32859551452E+02  0.25500000000E-02 0.  1.
          1   -1    0    0  501    0  0.00000000000E+00 -0.00000000000E+00 -0.48253148638E+02  0.48253148901E+02  0.50400000000E-02 0. -1.
        -24    2    1    2    0    0  0.00000000000E+00  0.00000000000E+00 -0.15393597285E+02  0.81112700353E+02  0.79638604466E+02 0.  0.
         66    2    3    3    0    0 -0.12824525326E+01  0.19352758316E+02  0.27689165742E+02  0.33865376905E+02  0.19999786154E+01 0.  0.
         13    1    3    3    0    0  0.12824525326E+01 -0.19352758316E+02 -0.43082763027E+02  0.47247323448E+02  0.10566000000E+00 0. -1.
         13    1    4    4    0    0 -0.55765220077E-01  0.34622637554E+01  0.53535619485E+01  0.63766895521E+01  0.10566000000E+00 0.  1.
        -13    1    4    4    0    0 -0.85990503316E+00  0.56745306820E+01  0.92016667940E+01  0.10845347894E+02  0.10566000000E+00 0.  1.
        -14    1    4    4    0    0 -0.36678227936E+00  0.10215963879E+02  0.13133937000E+02  0.16643339458E+02  0.00000000000E+00 0.  1.
<mgrwt>
<rscale>  0 0.79638604E+02</rscale>
<asrwt>0</asrwt>
<pdfrwt beam="1">  1        1 0.74235614E-02 0.79638604E+02</pdfrwt>
<pdfrwt beam="2">  1       -2 0.50553156E-02 0.79638604E+02</pdfrwt>
<totfact> 0.13249707E+05</totfact>
</mgrwt>
</event>
<event>
 8    1  0.7756875E-018  0.8162857E+02  0.7818608E-02  0.1324492E+00
         -2   -1    0    0    0  501 -0.00000000000E+00  0.00000000000E+00  0.11368469332E+02  0.11368469618E+02  0.25500000000E-02 0.  1.
          1   -1    0    0  501    0  0.00000000000E+00 -0.00000000000E+00 -0.14652860546E+03  0.14652860555E+03  0.50400000000E-02 0. -1.
        -24    2    1    2    0    0  0.71054273576E-14 -0.35527136788E-14 -0.13516013613E+03  0.15789707517E+03  0.81628573108E+02 0.  0.
         66    2    3    3    0    0  0.34959281354E+02 -0.17651699187E+02 -0.45560005068E+02  0.60111961334E+02  0.19999991566E+01 0.  0.
         13    1    3    3    0    0 -0.34959281354E+02  0.17651699187E+02 -0.89600131063E+02  0.97785113834E+02  0.10566000000E+00 0. -1.
         13    1    4    4    0    0  0.43806739882E+01 -0.17659402546E+01 -0.54759601397E+01  0.72322992928E+01  0.10566000000E+00 0. -1.
        -13    1    4    4    0    0  0.95315397962E+01 -0.45799606116E+01 -0.13195549752E+02  0.16910351486E+02  0.10566000000E+00 0.  1.
        -14    1    4    4    0    0  0.21047067570E+02 -0.11305798321E+02 -0.26888495176E+02  0.35969310555E+02  0.00000000000E+00 0.  1.
<mgrwt>
<rscale>  0 0.81628573E+02</rscale>
<asrwt>0</asrwt>
<pdfrwt beam="1">  1        1 0.22542861E-01 0.81628573E+02</pdfrwt>
<pdfrwt beam="2">  1       -2 0.17489954E-02 0.81628573E+02</pdfrwt>
<totfact> 0.14894969E+05</totfact>
</mgrwt>
</event>
<event>
 8    1  0.7756875E-018  0.7168358E+02  0.7818608E-02  0.1354460E+00
         -2   -1    0    0    0  501 -0.00000000000E+00  0.00000000000E+00  0.20555460598E+02  0.20555460756E+02  0.25500000000E-02 0.  1.
          1   -1    0    0  501    0  0.00000000000E+00 -0.00000000000E+00 -0.62495999500E+02  0.62495999703E+02  0.50400000000E-02 0. -1.
        -24    2    1    2    0    0  0.35527136788E-14  0.00000000000E+00 -0.41940538902E+02  0.83051460459E+02  0.71683584460E+02 0.  0.
         66    2    3    3    0    0 -0.23936899352E+02  0.55125840977E+01  0.92093084668E+01  0.26309220603E+02  0.19999980703E+01 0.  0.
         13    1    3    3    0    0  0.23936899352E+02 -0.55125840977E+01 -0.51149847369E+02  0.56742239856E+02  0.10566000000E+00 0. -1.
         13    1    4    4    0    0 -0.12736910172E+02  0.20918886301E+01  0.50329703042E+01  0.13854487825E+02  0.10566000000E+00 0. -1.
        -13    1    4    4    0    0 -0.45959021061E+01  0.11444273841E+01  0.14256001059E+01  0.49472749978E+01  0.10566000000E+00 0.  1.
         14    1    4    4    0    0 -0.66040870736E+01  0.22762680835E+01  0.27507380567E+01  0.75074577801E+01  0.00000000000E+00 0. -1.
<mgrwt>
<rscale>  0 0.71683584E+02</rscale>
<asrwt>0</asrwt>
<pdfrwt beam="1">  1        1 0.96147691E-02 0.71683584E+02</pdfrwt>
<pdfrwt beam="2">  1       -2 0.31623786E-02 0.71683584E+02</pdfrwt>
<totfact> 0.18376805E+05</totfact>
</mgrwt>
</event>
<event>
 8    1  0.7756875E-018  0.7986846E+02  0.7818608E-02  0.1329425E+00
          1   -1    0    0  501    0  0.00000000000E+00  0.00000000000E+00  0.76932643900E+01  0.76932660409E+01  0.50400000000E-02 0. -1.
         -2   -1    0    0    0  501 -0.00000000000E+00 -0.00000000000E+00 -0.20729074629E+03  0.20729074630E+03  0.25500000000E-02 0.  1.
        -24    2    1    2    0    0 -0.35527136788E-14  0.00000000000E+00 -0.19959748190E+03  0.21498401235E+03  0.79868459255E+02 0.  0.
         66    2    3    3    0    0  0.31200845800E+02  0.23444258877E+02 -0.12231918990E+03  0.12840993059E+03  0.20000010953E+01 0.  0.
         13    1    3    3    0    0 -0.31200845800E+02 -0.23444258877E+02 -0.77278291999E+02  0.86574081752E+02  0.10566000000E+00 0. -1.
         13    1    4    4    0    0  0.54635838501E+01  0.35504612738E+01 -0.18784886028E+02  0.19883149420E+02  0.10566000000E+00 0. -1.
        -13    1    4    4    0    0  0.18260329204E+02  0.14412802371E+02 -0.74781097042E+02  0.78315976235E+02  0.10566000000E+00 0.  1.
        -14    1    4    4    0    0  0.74769327455E+01  0.54809952323E+01 -0.28753206830E+02  0.30210804939E+02  0.00000000000E+00 0.  1.
<mgrwt>
<rscale>  0 0.79868459E+02</rscale>
<asrwt>0</asrwt>
<pdfrwt beam="1">  1        1 0.11835794E-02 0.79868459E+02</pdfrwt>
<pdfrwt beam="2">  1       -2 0.31890880E-01 0.79868459E+02</pdfrwt>
<totfact> 0.84190099E+04</totfact>
</mgrwt>
</event>
<event>
 8    1  0.7756875E-018  0.7999582E+02  0.7818608E-02  0.1329063E+00
         -2   -1    0    0    0  501 -0.00000000000E+00  0.00000000000E+00  0.55736597823E+02  0.55736597881E+02  0.25500000000E-02 0.  1.
          1   -1    0    0  501    0  0.00000000000E+00 -0.00000000000E+00 -0.28703452092E+02  0.28703452535E+02  0.50400000000E-02 0. -1.
        -24    2    1    2    0    0  0.88817841970E-15  0.00000000000E+00  0.27033145731E+02  0.84440050416E+02  0.79995819554E+02 0.  0.
         66    2    3    3    0    0  0.66566479161E+01 -0.11802413359E+02  0.53220350670E+02  0.54954650823E+02  0.19999997687E+01 0.  0.
         13    1    3    3    0    0 -0.66566479161E+01  0.11802413359E+02 -0.26187204940E+02  0.29485399593E+02  0.10566000000E+00 0. -1.
         13    1    4    4    0    0  0.28835152523E+01 -0.49754144930E+01  0.25896478253E+02  0.26527498177E+02  0.10566000000E+00 0.  1.
        -13    1    4    4    0    0  0.11046732851E+01 -0.14011535803E+01  0.68184389860E+01  0.70488161179E+01  0.10566000000E+00 0. -1.
         14    1    4    4    0    0  0.26684593787E+01 -0.54258452854E+01  0.20505433431E+02  0.21378336528E+02  0.00000000000E+00 0. -1.
<mgrwt>
<rscale>  0 0.79995820E+02</rscale>
<asrwt>0</asrwt>
<pdfrwt beam="1">  1        1 0.44159158E-02 0.79995820E+02</pdfrwt>
<pdfrwt beam="2">  1       -2 0.85748611E-02 0.79995820E+02</pdfrwt>
<totfact> 0.12001546E+05</totfact>
</mgrwt>
</event>
<event>
 8    1  0.7756875E-018  0.7399329E+02  0.7818608E-02  0.1347017E+00
         -2   -1    0    0    0  501 -0.00000000000E+00  0.00000000000E+00  0.12171385675E+03  0.12171385678E+03  0.25500000000E-02 0.  1.
          1   -1    0    0  501    0  0.00000000000E+00 -0.00000000000E+00 -0.11245651206E+02  0.11245652335E+02  0.50400000000E-02 0. -1.
        -24    2    1    2    0    0  0.00000000000E+00  0.00000000000E+00  0.11046820555E+03  0.13295950911E+03  0.73993287716E+02 0.  0.
         66    2    3    3    0    0 -0.37920880226E+01  0.97831204673E+01  0.11897377120E+03  0.11945228184E+03  0.20000063207E+01 0.  0.
         13    1    3    3    0    0  0.37920880226E+01 -0.97831204673E+01 -0.85055656509E+01  0.13507227277E+02  0.10566000000E+00 0. -1.
         13    1    4    4    0    0 -0.26296365088E+01  0.57837185106E+01  0.78605788673E+02  0.78862206188E+02  0.10566000000E+00 0. -1.
        -13    1    4    4    0    0 -0.79674969127E+00  0.26459079060E+01  0.30111903399E+02  0.30238609907E+02  0.10566000000E+00 0.  1.
         14    1    4    4    0    0 -0.36570182250E+00  0.13534940507E+01  0.10256079125E+02  0.10351465741E+02  0.00000000000E+00 0. -1.
<mgrwt>
<rscale>  0 0.73993288E+02</rscale>
<asrwt>0</asrwt>
<pdfrwt beam="1">  1        1 0.17301002E-02 0.73993288E+02</pdfrwt>
<pdfrwt beam="2">  1       -2 0.18725209E-01 0.73993288E+02</pdfrwt>
<totfact> 0.12303176E+05</totfact>
</mgrwt>
</event>
<event>
 8    1  0.7756875E-018  0.8017494E+02  0.7818608E-02  0.1328556E+00
          1   -1    0    0  501    0  0.00000000000E+00  0.00000000000E+00  0.26912021478E+03  0.26912021483E+03  0.50400000000E-02 0. -1.
         -2   -1    0    0    0  501 -0.00000000000E+00 -0.00000000000E+00 -0.59713284941E+01  0.59713290386E+01  0.25500000000E-02 0.  1.
        -24    2    1    2    0    0  0.00000000000E+00  0.22204460493E-15  0.26314888629E+03  0.27509154387E+03  0.80174940930E+02 0.  0.
         66    2    3    3    0    0  0.35598202601E+02  0.16198323543E+01  0.19446982308E+03  0.19771789996E+03  0.19999970727E+01 0.  0.
         13    1    3    3    0    0 -0.35598202601E+02 -0.16198323543E+01  0.68679063204E+02  0.77373643910E+02  0.10566000000E+00 0. -1.
         13    1    4    4    0    0  0.16161488117E+02  0.23228496642E+00  0.91264642874E+02  0.92684917098E+02  0.10566000000E+00 0. -1.
        -13    1    4    4    0    0  0.17391422498E+02  0.11724595244E+01  0.93746152288E+02  0.95352967813E+02  0.10566000000E+00 0.  1.
         14    1    4    4    0    0  0.20452919860E+01  0.21508786346E+00  0.94590279224E+01  0.96800150483E+01  0.00000000000E+00 0. -1.
<mgrwt>
<rscale>  0 0.80174941E+02</rscale>
<asrwt>0</asrwt>
<pdfrwt beam="1">  1        1 0.41403109E-01 0.80174941E+02</pdfrwt>
<pdfrwt beam="2">  1       -2 0.91866598E-03 0.80174941E+02</pdfrwt>
<totfact> 0.17565922E+05</totfact>
</mgrwt>
</event>
<event>
 8    1  0.7756875E-018  0.8033225E+02  0.7818608E-02  0.1328111E+00
         -2   -1    0    0    0  501 -0.00000000000E+00  0.00000000000E+00  0.48739051978E+02  0.48739052045E+02  0.25500000000E-02 0.  1.
          1   -1    0    0  501    0  0.00000000000E+00 -0.00000000000E+00 -0.33101129777E+02  0.33101130161E+02  0.50400000000E-02 0. -1.
        -24    2    1    2    0    0  0.00000000000E+00  0.00000000000E+00  0.15637922201E+02  0.81840182206E+02  0.80332252631E+02 0.  0.
         66    2    3    3    0    0 -0.16883192007E+02 -0.36035061682E+02  0.13190010399E+02  0.41970754332E+02  0.20000005181E+01 0.  0.
         13    1    3    3    0    0  0.16883192007E+02  0.36035061682E+02  0.24479118014E+01  0.39869427874E+02  0.10566000000E+00 0. -1.
         13    1    4    4    0    0 -0.81123456434E+01 -0.16299173661E+02  0.62012315968E+01  0.19233815306E+02  0.10566000000E+00 0.  1.
        -13    1    4    4    0    0 -0.83996381757E+01 -0.18076739489E+02  0.65373886408E+01  0.20977870395E+02  0.10566000000E+00 0.  1.
        -14    1    4    4    0    0 -0.37120818812E+00 -0.16591485315E+01  0.45139016175E+00  0.17590686304E+01  0.00000000000E+00 0.  1.
<mgrwt>
<rscale>  0 0.80332253E+02</rscale>
<asrwt>0</asrwt>
<pdfrwt beam="1">  1        1 0.50924816E-02 0.80332253E+02</pdfrwt>
<pdfrwt beam="2">  1       -2 0.74983157E-02 0.80332253E+02</pdfrwt>
<totfact> 0.12158868E+05</totfact>
</mgrwt>
</event>
<event>
 8    1  0.7756875E-018  0.7817470E+02  0.7818608E-02  0.1334313E+00
          1   -1    0    0  501    0  0.00000000000E+00  0.00000000000E+00  0.44746682355E+02  0.44746682639E+02  0.50400000000E-02 0. -1.
         -2   -1    0    0    0  501 -0.00000000000E+00 -0.00000000000E+00 -0.34143776766E+02  0.34143776861E+02  0.25500000000E-02 0.  1.
        -24    2    1    2    0    0  0.00000000000E+00  0.88817841970E-15  0.10602905589E+02  0.78890459500E+02  0.78174695351E+02 0.  0.
         66    2    3    3    0    0 -0.35276746850E+02 -0.50667078518E+01 -0.10831974123E+02  0.37302172338E+02  0.20000002374E+01 0.  0.
         13    1    3    3    0    0  0.35276746850E+02  0.50667078518E+01  0.21434879712E+02  0.41588287162E+02  0.10566000000E+00 0. -1.
         13    1    4    4    0    0 -0.47290182353E+01 -0.10766894654E+01 -0.10499236084E+01  0.49635045375E+01  0.10566000000E+00 0. -1.
        -13    1    4    4    0    0 -0.27466031913E+02 -0.37526214229E+01 -0.85326335233E+01  0.29004862962E+02  0.10566000000E+00 0.  1.
        -14    1    4    4    0    0 -0.30816967021E+01 -0.23739696353E+00 -0.12494169915E+01  0.33338048385E+01  0.00000000000E+00 0.  1.
<mgrwt>
<rscale>  0 0.78174695E+02</rscale>
<asrwt>0</asrwt>
<pdfrwt beam="1">  1        1 0.68841050E-02 0.78174695E+02</pdfrwt>
<pdfrwt beam="2">  1       -2 0.52528888E-02 0.78174695E+02</pdfrwt>
<totfact> 0.13789029E+05</totfact>
</mgrwt>
</event>
<event>
 8    1  0.7756875E-018  0.8618527E+02  0.7818608E-02  0.1312362E+00
         -2   -1    0    0    0  501 -0.00000000000E+00  0.00000000000E+00  0.75847183943E+01  0.75847188230E+01  0.25500000000E-02 0.  1.
          1   -1    0    0  501    0  0.00000000000E+00 -0.00000000000E+00 -0.24483114913E+03  0.24483114918E+03  0.50400000000E-02 0. -1.
        -24    2    1    2    0    0  0.00000000000E+00  0.00000000000E+00 -0.23724643073E+03  0.25241586800E+03  0.86185274402E+02 0.  0.
         66    2    3    3    0    0  0.63109491335E+01 -0.37418748240E+02 -0.59025038772E+02  0.70199330566E+02  0.20000027519E+01 0.  0.
         13    1    3    3    0    0 -0.63109491335E+01  0.37418748240E+02 -0.17822139196E+03  0.18221653743E+03  0.10566000000E+00 0. -1.
         13    1    4    4    0    0  0.95938110269E+00 -0.60550301564E+01 -0.84741732491E+01  0.10459759968E+02  0.10566000000E+00 0. -1.
        -13    1    4    4    0    0  0.89570662248E-01 -0.16107510367E+01 -0.27508675644E+01  0.31907645162E+01  0.10566000000E+00 0.  1.
        -14    1    4    4    0    0  0.52619973686E+01 -0.29752967047E+02 -0.47799997959E+02  0.56548806082E+02  0.00000000000E+00 0.  1.
<mgrwt>
<rscale>  0 0.86185274E+02</rscale>
<asrwt>0</asrwt>
<pdfrwt beam="1">  1        1 0.37666325E-01 0.86185274E+02</pdfrwt>
<pdfrwt beam="2">  1       -2 0.11668800E-02 0.86185274E+02</pdfrwt>
<totfact> 0.14232041E+05</totfact>
</mgrwt>
</event>
<event>
 8    1  0.7756875E-018  0.7972342E+02  0.7818608E-02  0.1329838E+00
         -2   -1    0    0    0  501 -0.00000000000E+00  0.00000000000E+00  0.45184317982E+02  0.45184318054E+02  0.25500000000E-02 0.  1.
          1   -1    0    0  501    0  0.00000000000E+00 -0.00000000000E+00 -0.35166093168E+02  0.35166093529E+02  0.50400000000E-02 0. -1.
        -24    2    1    2    0    0  0.00000000000E+00  0.00000000000E+00  0.10018224814E+02  0.80350411583E+02  0.79723420732E+02 0.  0.
         66    2    3    3    0    0 -0.26154677915E+02  0.15069623096E+02  0.31212669881E+02  0.43467131051E+02  0.20000008830E+01 0.  0.
         13    1    3    3    0    0  0.26154677915E+02 -0.15069623096E+02 -0.21194445067E+02  0.36883280533E+02  0.10566000000E+00 0. -1.
         13    1    4    4    0    0 -0.69699839023E+01  0.43399507867E+01  0.77907824815E+01  0.11319156512E+02  0.10566000000E+00 0. -1.
        -13    1    4    4    0    0 -0.10331347329E+02  0.59451973050E+01  0.11770200660E+02  0.16752041554E+02  0.10566000000E+00 0.  1.
        -14    1    4    4    0    0 -0.88533466842E+01  0.47844750046E+01  0.11651686740E+02  0.15395932985E+02  0.00000000000E+00 0.  1.
<mgrwt>
<rscale>  0 0.79723421E+02</rscale>
<asrwt>0</asrwt>
<pdfrwt beam="1">  1        1 0.54101682E-02 0.79723421E+02</pdfrwt>
<pdfrwt beam="2">  1       -2 0.69514335E-02 0.79723421E+02</pdfrwt>
<totfact> 0.12553277E+05</totfact>
</mgrwt>
</event>
<event>
 8    1  0.7756875E-018  0.7900580E+02  0.7818608E-02  0.1331897E+00
          1   -1    0    0  501    0  0.00000000000E+00  0.00000000000E+00  0.28763059553E+02  0.28763059994E+02  0.50400000000E-02 0. -1.
         -2   -1    0    0    0  501 -0.00000000000E+00 -0.00000000000E+00 -0.54252885534E+02  0.54252885594E+02  0.25500000000E-02 0.  1.
        -24    2    1    2    0    0  0.00000000000E+00  0.00000000000E+00 -0.25489825982E+02  0.83015945589E+02  0.79005797214E+02 0.  0.
         66    2    3    3    0    0 -0.50928714440E+01  0.31594808292E+02 -0.37041356339E+02  0.48992155850E+02  0.20000012232E+01 0.  0.
         13    1    3    3    0    0  0.50928714440E+01 -0.31594808292E+02  0.11551530357E+02  0.34023789738E+02  0.10566000000E+00 0. -1.
         13    1    4    4    0    0 -0.16748217625E+01  0.11172517161E+02 -0.13779520286E+02  0.17818992985E+02  0.10566000000E+00 0. -1.
        -13    1    4    4    0    0 -0.22286228241E+01  0.16194161666E+02 -0.17879644847E+02  0.24226235689E+02  0.10566000000E+00 0.  1.
         14    1    4    4    0    0 -0.11894268575E+01  0.42281294650E+01 -0.53821912060E+01  0.69469271768E+01  0.00000000000E+00 0. -1.
<mgrwt>
<rscale>  0 0.79005797E+02</rscale>
<asrwt>0</asrwt>
<pdfrwt beam="1">  1        1 0.44250862E-02 0.79005797E+02</pdfrwt>
<pdfrwt beam="2">  1       -2 0.83465978E-02 0.79005797E+02</pdfrwt>
<totfact> 0.12444369E+05</totfact>
</mgrwt>
</event>
<event>
 8    1  0.7756875E-018  0.7841309E+02  0.7818608E-02  0.1333616E+00
         -2   -1    0    0    0  501 -0.00000000000E+00  0.00000000000E+00  0.53834166067E+03  0.53834166067E+03  0.25500000000E-02 0.  1.
          1   -1    0    0  501    0  0.00000000000E+00 -0.00000000000E+00 -0.28553463490E+01  0.28553507971E+01  0.50400000000E-02 0. -1.
        -24    2    1    2    0    0  0.00000000000E+00  0.00000000000E+00  0.53548631432E+03  0.54119701147E+03  0.78413088208E+02 0.  0.
         66    2    3    3    0    0 -0.23180313854E+02  0.25564614261E+02  0.39597803282E+03  0.39748393543E+03  0.20000002038E+01 0.  0.
         13    1    3    3    0    0  0.23180313854E+02 -0.25564614261E+02  0.13950828150E+03  0.14371307604E+03  0.10566000000E+00 0. -1.
         13    1    4    4    0    0 -0.88695320475E+01  0.98442113844E+01  0.16153322215E+03  0.16207581595E+03  0.10566000000E+00 0. -1.
        -13    1    4    4    0    0 -0.73902958651E+01  0.87041768406E+01  0.12690634919E+03  0.12741904016E+03  0.10566000000E+00 0.  1.
         14    1    4    4    0    0 -0.69204859414E+01  0.70162260361E+01  0.10753846149E+03  0.10798907932E+03  0.00000000000E+00 0. -1.
<mgrwt>
<rscale>  0 0.78413088E+02</rscale>
<asrwt>0</asrwt>
<pdfrwt beam="1">  1        1 0.43928430E-03 0.78413088E+02</pdfrwt>
<pdfrwt beam="2">  1       -2 0.82821812E-01 0.78413088E+02</pdfrwt>
<totfact> 0.50071923E+04</totfact>
</mgrwt>
</event>
<event>
 8    1  0.7756875E-018  0.8119097E+02  0.7818608E-02  0.1325705E+00
         -2   -1    0    0    0  501 -0.00000000000E+00  0.00000000000E+00  0.88840433470E+01  0.88840437129E+01  0.25500000000E-02 0.  1.
          1   -1    0    0  501    0  0.00000000000E+00 -0.00000000000E+00 -0.18550036223E+03  0.18550036230E+03  0.50400000000E-02 0. -1.
        -24    2    1    2    0    0  0.00000000000E+00  0.00000000000E+00 -0.17661631888E+03  0.19438440601E+03  0.81190967506E+02 0.  0.
         66    2    3    3    0    0 -0.17441725823E+02 -0.22721173929E+02 -0.19572715678E+02  0.34749917206E+02  0.20000006001E+01 0.  0.
         13    1    3    3    0    0  0.17441725823E+02  0.22721173929E+02 -0.15704360320E+03  0.15963448880E+03  0.10566000000E+00 0. -1.
         13    1    4    4    0    0 -0.70049447687E+00 -0.91589149392E+00 -0.46786539156E+00  0.12488441860E+01  0.10566000000E+00 0. -1.
        -13    1    4    4    0    0 -0.90202308449E+01 -0.12472350457E+02 -0.10156786290E+02  0.18441680027E+02  0.10566000000E+00 0.  1.
        -14    1    4    4    0    0 -0.77210005012E+01 -0.93329319787E+01 -0.89480639956E+01  0.15059392993E+02  0.00000000000E+00 0.  1.
<mgrwt>
<rscale>  0 0.81190968E+02</rscale>
<asrwt>0</asrwt>
<pdfrwt beam="1">  1        1 0.28538515E-01 0.81190968E+02</pdfrwt>
<pdfrwt beam="2">  1       -2 0.13667761E-02 0.81190968E+02</pdfrwt>
<totfact> 0.15799390E+05</totfact>
</mgrwt>
</event>
<event>
 8    1  0.8435067E-018  0.7928889E+02  0.7818608E-02  0.1331082E+00
         -2   -1    0    0    0  501 -0.00000000000E+00  0.00000000000E+00  0.82398323069E+01  0.82398327014E+01  0.25500000000E-02 0.  1.
          1   -1    0    0  501    0  0.00000000000E+00 -0.00000000000E+00 -0.19074199913E+03  0.19074199920E+03  0.50400000000E-02 0. -1.
        -24    2    1    2    0    0  0.00000000000E+00  0.00000000000E+00 -0.18250216682E+03  0.19898183190E+03  0.79288892856E+02 0.  0.
         66    2    3    3    0    0 -0.19581053740E+02  0.26922864024E+02 -0.37401534005E+02  0.50111206585E+02  0.20000016677E+01 0.  0.
         13    1    3    3    0    0  0.19581053740E+02 -0.26922864024E+02 -0.14510063282E+03  0.14887062531E+03  0.10566000000E+00 0. -1.
         13    1    4    4    0    0 -0.26931890217E+01  0.33890243614E+01 -0.54546978743E+01  0.69644559130E+01  0.10566000000E+00 0. -1.
        -13    1    4    4    0    0 -0.16127725277E+02  0.22102311056E+02 -0.30499975446E+02  0.40974081355E+02  0.10566000000E+00 0.  1.
         14    1    4    4    0    0 -0.76013944111E+00  0.14315286067E+01 -0.14468606851E+01  0.21726693177E+01  0.00000000000E+00 0. -1.
<mgrwt>
<rscale>  0 0.79288893E+02</rscale>
<asrwt>0</asrwt>
<pdfrwt beam="1">  1        1 0.29344920E-01 0.79288893E+02</pdfrwt>
<pdfrwt beam="2">  1       -2 0.12676667E-02 0.79288893E+02</pdfrwt>
<totfact> 0.16918134E+05</totfact>
</mgrwt>
</event>
<event>
 8    1  0.7756875E-018  0.8681802E+02  0.7818608E-02  0.1310746E+00
          1   -1    0    0  501    0  0.00000000000E+00  0.00000000000E+00  0.92078421236E+02  0.92078421374E+02  0.50400000000E-02 0. -1.
         -2   -1    0    0    0  501 -0.00000000000E+00 -0.00000000000E+00 -0.20464535240E+02  0.20464535399E+02  0.25500000000E-02 0.  1.
        -24    2    1    2    0    0  0.00000000000E+00 -0.35527136788E-14  0.71613885997E+02  0.11254295677E+03  0.86818019165E+02 0.  0.
         66    2    3    3    0    0 -0.17134753284E+02  0.14800445879E+02 -0.12149513030E+02  0.25773312606E+02  0.20000018793E+01 0.  0.
         13    1    3    3    0    0  0.17134753284E+02 -0.14800445879E+02  0.83763399027E+02  0.86769644167E+02  0.10566000000E+00 0. -1.
         13    1    4    4    0    0 -0.58795371271E+01  0.47388748784E+01 -0.36731817187E+01  0.83981736060E+01  0.10566000000E+00 0. -1.
        -13    1    4    4    0    0 -0.75207604969E+01  0.59570992112E+01 -0.49021107492E+01  0.10774540514E+02  0.10566000000E+00 0.  1.
        -14    1    4    4    0    0 -0.37344556602E+01  0.41044717890E+01 -0.35742205621E+01  0.66005984858E+01  0.00000000000E+00 0.  1.
<mgrwt>
<rscale>  0 0.86818019E+02</rscale>
<asrwt>0</asrwt>
<pdfrwt beam="1">  1        1 0.14165911E-01 0.86818019E+02</pdfrwt>
<pdfrwt beam="2">  1       -2 0.31483901E-02 0.86818019E+02</pdfrwt>
<totfact> 0.11601365E+05</totfact>
</mgrwt>
</event>
<event>
 8    1  0.7756875E-018  0.8162056E+02  0.7818608E-02  0.1324514E+00
          1   -1    0    0  501    0  0.00000000000E+00  0.00000000000E+00  0.32994587272E+02  0.32994587657E+02  0.50400000000E-02 0. -1.
         -2   -1    0    0    0  501 -0.00000000000E+00 -0.00000000000E+00 -0.50477338875E+02  0.50477338940E+02  0.25500000000E-02 0.  1.
        -24    2    1    2    0    0 -0.35527136788E-14  0.00000000000E+00 -0.17482751603E+02  0.83471926596E+02  0.81620560682E+02 0.  0.
         66    2    3    3    0    0 -0.30847570755E+02  0.24994393321E+02 -0.18295512546E+02  0.43760919767E+02  0.20000001544E+01 0.  0.
         13    1    3    3    0    0  0.30847570755E+02 -0.24994393321E+02  0.81276094225E+00  0.39711006829E+02  0.10566000000E+00 0. -1.
         13    1    4    4    0    0 -0.76618772254E+01  0.62939477303E+01 -0.42612095504E+01  0.10792924141E+02  0.10566000000E+00 0. -1.
        -13    1    4    4    0    0 -0.21092581739E+02  0.16897979116E+02 -0.13228709863E+02  0.30090673494E+02  0.10566000000E+00 0.  1.
         14    1    4    4    0    0 -0.20931117907E+01  0.18024664749E+01 -0.80559313180E+00  0.28773221328E+01  0.00000000000E+00 0. -1.
<mgrwt>
<rscale>  0 0.81620561E+02</rscale>
<asrwt>0</asrwt>
<pdfrwt beam="1">  1        1 0.50760904E-02 0.81620561E+02</pdfrwt>
<pdfrwt beam="2">  1       -2 0.77657445E-02 0.81620561E+02</pdfrwt>
<totfact> 0.11611329E+05</totfact>
</mgrwt>
</event>
<event>
 8    1  0.7756875E-018  0.7390673E+02  0.7818608E-02  0.1347290E+00
         -2   -1    0    0    0  501 -0.00000000000E+00  0.00000000000E+00  0.55400193654E+02  0.55400193713E+02  0.25500000000E-02 0.  1.
          1   -1    0    0  501    0  0.00000000000E+00 -0.00000000000E+00 -0.24648851987E+02  0.24648852503E+02  0.50400000000E-02 0. -1.
        -24    2    1    2    0    0 -0.17763568394E-14 -0.35527136788E-14  0.30751341667E+02  0.80049046216E+02  0.73906730314E+02 0.  0.
         66    2    3    3    0    0  0.10230424092E+02  0.20162476351E+02  0.47008476581E+02  0.52201377923E+02  0.19999892356E+01 0.  0.
         13    1    3    3    0    0 -0.10230424092E+02 -0.20162476351E+02 -0.16257134914E+02  0.27847668292E+02  0.10566000000E+00 0. -1.
         13    1    4    4    0    0  0.21474418212E+01  0.28160583519E+01  0.78312627194E+01  0.85954366283E+01  0.10566000000E+00 0. -1.
        -13    1    4    4    0    0  0.34871906779E+01  0.71601905064E+01  0.15703885987E+02  0.17608294240E+02  0.10566000000E+00 0.  1.
         14    1    4    4    0    0  0.45957915925E+01  0.10186227492E+02  0.23473327875E+02  0.25997647055E+02  0.00000000000E+00 0. -1.
<mgrwt>
<rscale>  0 0.73906730E+02</rscale>
<asrwt>0</asrwt>
<pdfrwt beam="1">  1        1 0.37921312E-02 0.73906730E+02</pdfrwt>
<pdfrwt beam="2">  1       -2 0.85231066E-02 0.73906730E+02</pdfrwt>
<totfact> 0.14667518E+05</totfact>
</mgrwt>
</event>
<event>
 8    1  0.7756875E-018  0.8354457E+02  0.7818608E-02  0.1319283E+00
         -2   -1    0    0    0  501 -0.00000000000E+00  0.00000000000E+00  0.22092814185E+03  0.22092814187E+03  0.25500000000E-02 0.  1.
          1   -1    0    0  501    0  0.00000000000E+00 -0.00000000000E+00 -0.78981500943E+01  0.78981517024E+01  0.50400000000E-02 0. -1.
        -24    2    1    2    0    0  0.00000000000E+00  0.00000000000E+00  0.21302999176E+03  0.22882629357E+03  0.83544570382E+02 0.  0.
         66    2    3    3    0    0  0.34419577252E+02 -0.21022320671E+02  0.13611026658E+03  0.14197411714E+03  0.20000013221E+01 0.  0.
         13    1    3    3    0    0 -0.34419577252E+02  0.21022320671E+02  0.76919725175E+02  0.86852176424E+02  0.10566000000E+00 0. -1.
         13    1    4    4    0    0  0.11136862254E+01 -0.45756805706E+00  0.40900704388E+01  0.42649156809E+01  0.10566000000E+00 0. -1.
        -13    1    4    4    0    0  0.17485425520E+02 -0.10609108615E+02  0.71565196453E+02  0.74430382228E+02  0.10566000000E+00 0.  1.
         14    1    4    4    0    0  0.15820465506E+02 -0.99556439990E+01  0.60454999689E+02  0.63278819234E+02  0.00000000000E+00 0. -1.
<mgrwt>
<rscale>  0 0.83544570E+02</rscale>
<asrwt>0</asrwt>
<pdfrwt beam="1">  1        1 0.12151001E-02 0.83544570E+02</pdfrwt>
<pdfrwt beam="2">  1       -2 0.33988947E-01 0.83544570E+02</pdfrwt>
<totfact> 0.72939641E+04</totfact>
</mgrwt>
</event>
<event>
 8    1  0.7756875E-018  0.8212813E+02  0.7818608E-02  0.1323118E+00
          1   -1    0    0  501    0  0.00000000000E+00  0.00000000000E+00  0.24482812057E+03  0.24482812062E+03  0.50400000000E-02 0. -1.
         -2   -1    0    0    0  501 -0.00000000000E+00 -0.00000000000E+00 -0.68875156767E+01  0.68875161488E+01  0.25500000000E-02 0.  1.
        -24    2    1    2    0    0 -0.35527136788E-14  0.00000000000E+00  0.23794060489E+03  0.25171563677E+03  0.82128133656E+02 0.  0.
         66    2    3    3    0    0 -0.31216251061E+02 -0.25824880093E+02  0.98972179933E+02  0.10696200793E+03  0.19999944617E+01 0.  0.
         13    1    3    3    0    0  0.31216251061E+02  0.25824880093E+02  0.13896842496E+03  0.14475362884E+03  0.10566000000E+00 0. -1.
         13    1    4    4    0    0 -0.74189382953E+01 -0.63523403862E+01  0.24436537806E+02  0.26316314669E+02  0.10566000000E+00 0. -1.
        -13    1    4    4    0    0 -0.37095934741E+01 -0.24836112809E+01  0.98682952037E+01  0.10831612207E+02  0.10566000000E+00 0.  1.
        -14    1    4    4    0    0 -0.20087719292E+02 -0.16988928426E+02  0.64667346923E+02  0.69814081055E+02  0.00000000000E+00 0.  1.
<mgrwt>
<rscale>  0 0.82128134E+02</rscale>
<asrwt>0</asrwt>
<pdfrwt beam="1">  1        1 0.37665859E-01 0.82128134E+02</pdfrwt>
<pdfrwt beam="2">  1       -2 0.10596180E-02 0.82128134E+02</pdfrwt>
<totfact> 0.16179285E+05</totfact>
</mgrwt>
</event>
<event>
 8    1  0.7756875E-018  0.8425281E+02  0.7818608E-02  0.1317398E+00
         -2   -1    0    0    0  501 -0.00000000000E+00  0.00000000000E+00  0.27650107882E+02  0.27650108000E+02  0.25500000000E-02 0.  1.
          1   -1    0    0  501    0  0.00000000000E+00 -0.00000000000E+00 -0.64181814061E+02  0.64181814259E+02  0.50400000000E-02 0. -1.
        -24    2    1    2    0    0  0.00000000000E+00  0.17763568394E-14 -0.36531706179E+02  0.91831922259E+02  0.84252812353E+02 0.  0.
         66    2    3    3    0    0  0.34524225516E+02 -0.14375507740E+02  0.28041005633E+01  0.37555829673E+02  0.19999980471E+01 0.  0.
         13    1    3    3    0    0 -0.34524225516E+02  0.14375507740E+02 -0.39335806742E+02  0.54276092586E+02  0.10566000000E+00 0. -1.
         13    1    4    4    0    0  0.10123925339E+02 -0.39489492082E+01  0.76662684539E+00  0.10894353807E+02  0.10566000000E+00 0. -1.
        -13    1    4    4    0    0  0.16195951154E+02 -0.70858960002E+01  0.61196400863E+00  0.17689104553E+02  0.10566000000E+00 0.  1.
         14    1    4    4    0    0  0.82043490232E+01 -0.33406625321E+01  0.14255097093E+01  0.89723713130E+01  0.00000000000E+00 0. -1.
<mgrwt>
<rscale>  0 0.84252812E+02</rscale>
<asrwt>0</asrwt>
<pdfrwt beam="1">  1        1 0.98741252E-02 0.84252812E+02</pdfrwt>
<pdfrwt beam="2">  1       -2 0.42538628E-02 0.84252812E+02</pdfrwt>
<totfact> 0.11860085E+05</totfact>
</mgrwt>
</event>
<event>
 8    1  0.7756875E-018  0.7687590E+02  0.7818608E-02  0.1338158E+00
         -2   -1    0    0    0  501 -0.00000000000E+00  0.00000000000E+00  0.21704018300E+03  0.21704018301E+03  0.25500000000E-02 0.  1.
          1   -1    0    0  501    0  0.00000000000E+00 -0.00000000000E+00 -0.68073839582E+01  0.68073858239E+01  0.50400000000E-02 0. -1.
        -24    2    1    2    0    0  0.17763568394E-14  0.00000000000E+00  0.21023279904E+03  0.22384756884E+03  0.76875901829E+02 0.  0.
         66    2    3    3    0    0  0.13297002652E+02  0.48374425801E+01  0.20917015285E+03  0.20965773053E+03  0.19999995679E+01 0.  0.
         13    1    3    3    0    0 -0.13297002652E+02 -0.48374425801E+01  0.10626461925E+01  0.14189838308E+02  0.10566000000E+00 0. -1.
         13    1    4    4    0    0  0.14332857903E+01 -0.90303820978E-01  0.21061901555E+02  0.21111071126E+02  0.10566000000E+00 0. -1.
        -13    1    4    4    0    0  0.67597985625E+01  0.26907050343E+01  0.10524691859E+03  0.10549815073E+03  0.10566000000E+00 0.  1.
         14    1    4    4    0    0  0.51039182988E+01  0.22370413668E+01  0.82861332698E+02  0.83048508672E+02  0.00000000000E+00 0. -1.
<mgrwt>
<rscale>  0 0.76875902E+02</rscale>
<asrwt>0</asrwt>
<pdfrwt beam="1">  1        1 0.10472901E-02 0.76875902E+02</pdfrwt>
<pdfrwt beam="2">  1       -2 0.33390795E-01 0.76875902E+02</pdfrwt>
<totfact> 0.91107999E+04</totfact>
</mgrwt>
</event>
<event>
 8    1  0.7756875E-018  0.7732483E+02  0.7818608E-02  0.1336819E+00
         -2   -1    0    0    0  501 -0.00000000000E+00  0.00000000000E+00  0.65179446988E+03  0.65179446988E+03  0.25500000000E-02 0.  1.
          1   -1    0    0  501    0  0.00000000000E+00 -0.00000000000E+00 -0.22933308991E+01  0.22933364373E+01  0.50400000000E-02 0. -1.
        -24    2    1    2    0    0  0.00000000000E+00 -0.88817841970E-15  0.64950113898E+03  0.65408780632E+03  0.77324826815E+02 0.  0.
         66    2    3    3    0    0  0.11686984864E+02  0.78869752999E+01  0.62925331213E+03  0.62941442693E+03  0.20000004107E+01 0.  0.
         13    1    3    3    0    0 -0.11686984864E+02 -0.78869752999E+01  0.20247826849E+02  0.24673379394E+02  0.10566000000E+00 0. -1.
         13    1    4    4    0    0  0.45778858726E+01  0.30613261071E+01  0.25623049737E+03  0.25628969488E+03  0.10566000000E+00 0. -1.
        -13    1    4    4    0    0  0.41213322223E+01  0.20743378696E+01  0.21690404095E+03  0.21695313411E+03  0.10566000000E+00 0.  1.
         14    1    4    4    0    0  0.29877667687E+01  0.27513113232E+01  0.15611877381E+03  0.15617159793E+03  0.00000000000E+00 0. -1.
<mgrwt>
<rscale>  0 0.77324827E+02</rscale>
<asrwt>0</asrwt>
<pdfrwt beam="1">  1        1 0.35282065E-03 0.77324827E+02</pdfrwt>
<pdfrwt beam="2">  1       -2 0.10027605E+00 0.77324827E+02</pdfrwt>
<totfact> 0.44125037E+04</totfact>
</mgrwt>
</event>
<event>
 8    1  0.7756875E-018  0.7896867E+02  0.7818608E-02  0.1332004E+00
          1   -1    0    0  501    0  0.00000000000E+00  0.00000000000E+00  0.18491850994E+02  0.18491851681E+02  0.50400000000E-02 0. -1.
         -2   -1    0    0    0  501 -0.00000000000E+00 -0.00000000000E+00 -0.84308096526E+02  0.84308096565E+02  0.25500000000E-02 0.  1.
        -24    2    1    2    0    0  0.00000000000E+00  0.00000000000E+00 -0.65816245532E+02  0.10279994825E+03  0.78968672165E+02 0.  0.
         66    2    3    3    0    0 -0.10749614546E+02  0.37566725787E+02 -0.40082428184E+02  0.56012624978E+02  0.20000021525E+01 0.  0.
         13    1    3    3    0    0  0.10749614546E+02 -0.37566725787E+02 -0.25733817348E+02  0.46787323268E+02  0.10566000000E+00 0. -1.
         13    1    4    4    0    0 -0.32427454328E+01  0.10448387256E+02 -0.11007260476E+02  0.15519508414E+02  0.10566000000E+00 0. -1.
        -13    1    4    4    0    0 -0.13740385301E+01  0.32120485398E+01 -0.32908896958E+01  0.48006621137E+01  0.10566000000E+00 0.  1.
        -14    1    4    4    0    0 -0.61328305836E+01  0.23906289990E+02 -0.25784278012E+02  0.35692454450E+02  0.00000000000E+00 0.  1.
<mgrwt>
<rscale>  0 0.78968672E+02</rscale>
<asrwt>0</asrwt>
<pdfrwt beam="1">  1        1 0.28449003E-02 0.78968672E+02</pdfrwt>
<pdfrwt beam="2">  1       -2 0.12970476E-01 0.78968672E+02</pdfrwt>
<totfact> 0.11419884E+05</totfact>
</mgrwt>
</event>
<event>
 8    1  0.7756875E-018  0.7966865E+02  0.7818608E-02  0.1329994E+00
          1   -1    0    0  501    0  0.00000000000E+00  0.00000000000E+00  0.39726800588E+01  0.39726832558E+01  0.50400000000E-02 0. -1.
         -2   -1    0    0    0  501 -0.00000000000E+00 -0.00000000000E+00 -0.39942127663E+03  0.39942127663E+03  0.25500000000E-02 0.  1.
        -24    2    1    2    0    0 -0.44408920985E-15  0.00000000000E+00 -0.39544859657E+03  0.40339395989E+03  0.79668653489E+02 0.  0.
         66    2    3    3    0    0  0.38532787048E+01 -0.39552341163E+02 -0.20975904163E+03  0.21349962763E+03  0.20000009386E+01 0.  0.
         13    1    3    3    0    0 -0.38532787048E+01  0.39552341163E+02 -0.18568955494E+03  0.18989433226E+03  0.10566000000E+00 0. -1.
         13    1    4    4    0    0  0.13414406530E+01 -0.95681442928E+01 -0.49466196600E+02  0.50401037870E+02  0.10566000000E+00 0. -1.
        -13    1    4    4    0    0  0.87772623698E+00 -0.57812885952E+01 -0.29098879647E+02  0.29680796181E+02  0.10566000000E+00 0. -1.
        -14    1    4    4    0    0  0.16341118148E+01 -0.24202908275E+02 -0.13119396538E+03  0.13341779358E+03  0.00000000000E+00 0.  1.
<mgrwt>
<rscale>  0 0.79668653E+02</rscale>
<asrwt>0</asrwt>
<pdfrwt beam="1">  1        1 0.61118211E-03 0.79668653E+02</pdfrwt>
<pdfrwt beam="2">  1       -2 0.61449395E-01 0.79668653E+02</pdfrwt>
<totfact> 0.59787908E+04</totfact>
</mgrwt>
</event>
<event>
 8    1  0.7756875E-018  0.7779376E+02  0.7818608E-02  0.1335432E+00
          1   -1    0    0  501    0  0.00000000000E+00  0.00000000000E+00  0.80336420009E+01  0.80336435819E+01  0.50400000000E-02 0. -1.
         -2   -1    0    0    0  501 -0.00000000000E+00 -0.00000000000E+00 -0.18832894164E+03  0.18832894166E+03  0.25500000000E-02 0.  1.
        -24    2    1    2    0    0  0.17763568394E-14  0.00000000000E+00 -0.18029529964E+03  0.19636258524E+03  0.77793764595E+02 0.  0.
         66    2    3    3    0    0 -0.13316697404E+02 -0.30268179253E+02 -0.14178028217E+03  0.14559926345E+03  0.19999994279E+01 0.  0.
         13    1    3    3    0    0  0.13316697404E+02  0.30268179253E+02 -0.38515017464E+02  0.50763321792E+02  0.10566000000E+00 0. -1.
         13    1    4    4    0    0 -0.18789004246E+01 -0.38677612458E+01 -0.21091945152E+02  0.21526057655E+02  0.10566000000E+00 0. -1.
        -13    1    4    4    0    0 -0.43713236948E+01 -0.10488354942E+02 -0.49228914956E+02  0.50523373720E+02  0.10566000000E+00 0.  1.
         14    1    4    4    0    0 -0.70664732846E+01 -0.15912063065E+02 -0.71459422065E+02  0.73549832070E+02  0.00000000000E+00 0. -1.
<mgrwt>
<rscale>  0 0.77793765E+02</rscale>
<asrwt>0</asrwt>
<pdfrwt beam="1">  1        1 0.12359452E-02 0.77793765E+02</pdfrwt>
<pdfrwt beam="2">  1       -2 0.28973680E-01 0.77793765E+02</pdfrwt>
<totfact> 0.93640031E+04</totfact>
</mgrwt>
</event>
<event>
 8    1  0.7756875E-018  0.8327228E+02  0.7818608E-02  0.1320014E+00
          1   -1    0    0  501    0  0.00000000000E+00  0.00000000000E+00  0.24125232940E+03  0.24125232945E+03  0.50400000000E-02 0. -1.
         -2   -1    0    0    0  501 -0.00000000000E+00 -0.00000000000E+00 -0.71857049002E+01  0.71857053527E+01  0.25500000000E-02 0.  1.
        -24    2    1    2    0    0  0.71054273576E-14  0.00000000000E+00  0.23406662450E+03  0.24843803480E+03  0.83272278900E+02 0.  0.
         66    2    3    3    0    0 -0.22466969797E+02  0.29646973591E+02  0.61456810943E+02  0.71865481232E+02  0.20000016320E+01 0.  0.
         13    1    3    3    0    0  0.22466969797E+02 -0.29646973591E+02  0.17260981356E+03  0.17657255357E+03  0.10566000000E+00 0. -1.
         13    1    4    4    0    0 -0.19828017785E+01  0.23118264372E+01  0.42925118700E+01  0.52643011462E+01  0.10566000000E+00 0. -1.
        -13    1    4    4    0    0 -0.17755662267E+02  0.23728207450E+02  0.48872075149E+02  0.57155771928E+02  0.10566000000E+00 0.  1.
         14    1    4    4    0    0 -0.27285057519E+01  0.36069397047E+01  0.82922239234E+01  0.94454081578E+01  0.00000000000E+00 0. -1.
<mgrwt>
<rscale>  0 0.83272279E+02</rscale>
<asrwt>0</asrwt>
<pdfrwt beam="1">  1        1 0.37115742E-01 0.83272279E+02</pdfrwt>
<pdfrwt beam="2">  1       -2 0.11054931E-02 0.83272279E+02</pdfrwt>
<totfact> 0.15550745E+05</totfact>
</mgrwt>
</event>
<event>
 8    1  0.7756875E-018  0.7461038E+02  0.7818608E-02  0.1345082E+00
          1   -1    0    0  501    0  0.00000000000E+00  0.00000000000E+00  0.31905228196E+02  0.31905228594E+02  0.50400000000E-02 0. -1.
         -2   -1    0    0    0  501 -0.00000000000E+00 -0.00000000000E+00 -0.43619097288E+02  0.43619097363E+02  0.25500000000E-02 0.  1.
        -24    2    1    2    0    0 -0.71054273576E-14  0.00000000000E+00 -0.11713869092E+02  0.75524325957E+02  0.74610381865E+02 0.  0.
         66    2    3    3    0    0  0.36360993115E+02 -0.80669898821E+01 -0.42688870560E+01  0.37542263511E+02  0.20000016877E+01 0.  0.
         13    1    3    3    0    0 -0.36360993115E+02  0.80669898821E+01 -0.74449820361E+01  0.37982062446E+02  0.10566000000E+00 0. -1.
         13    1    4    4    0    0  0.53211741845E+01 -0.13860136500E+01 -0.38638066937E+00  0.55132914485E+01  0.10566000000E+00 0. -1.
        -13    1    4    4    0    0  0.55519956288E+00 -0.32207126931E+00 -0.12399208943E+00  0.66220429701E+00  0.10566000000E+00 0.  1.
        -14    1    4    4    0    0  0.30484619368E+02 -0.63589049628E+01 -0.37585142972E+01  0.31366767765E+02  0.00000000000E+00 0.  1.
<mgrwt>
<rscale>  0 0.74610382E+02</rscale>
<asrwt>0</asrwt>
<pdfrwt beam="1">  1        1 0.49084967E-02 0.74610382E+02</pdfrwt>
<pdfrwt beam="2">  1       -2 0.67106304E-02 0.74610382E+02</pdfrwt>
<totfact> 0.14903493E+05</totfact>
</mgrwt>
</event>
<event>
 8    1  0.7756875E-018  0.8008903E+02  0.7818608E-02  0.1328799E+00
         -2   -1    0    0    0  501 -0.00000000000E+00  0.00000000000E+00  0.51459889905E+02  0.51459889968E+02  0.25500000000E-02 0.  1.
          1   -1    0    0  501    0  0.00000000000E+00 -0.00000000000E+00 -0.31161417319E+02  0.31161417727E+02  0.50400000000E-02 0. -1.
        -24    2    1    2    0    0 -0.17763568394E-14  0.00000000000E+00  0.20298472585E+02  0.82621307695E+02  0.80089028562E+02 0.  0.
         66    2    3    3    0    0 -0.14308141305E+02  0.33689738528E+02  0.26848546436E+02  0.45437493728E+02  0.20000002070E+01 0.  0.
         13    1    3    3    0    0  0.14308141305E+02 -0.33689738528E+02 -0.65500738507E+01  0.37183813967E+02  0.10566000000E+00 0. -1.
         13    1    4    4    0    0 -0.16754973586E+01  0.44018809708E+01  0.32981904961E+01  0.57509192364E+01  0.10566000000E+00 0. -1.
        -13    1    4    4    0    0 -0.11862000897E+02  0.27681003404E+02  0.21713116575E+02  0.37127019947E+02  0.10566000000E+00 0.  1.
         14    1    4    4    0    0 -0.77064304941E+00  0.16068541534E+01  0.18372393646E+01  0.25595545438E+01  0.00000000000E+00 0. -1.
<mgrwt>
<rscale>  0 0.80089029E+02</rscale>
<asrwt>0</asrwt>
<pdfrwt beam="1">  1        1 0.47940643E-02 0.80089029E+02</pdfrwt>
<pdfrwt beam="2">  1       -2 0.79169060E-02 0.80089029E+02</pdfrwt>
<totfact> 0.12137104E+05</totfact>
</mgrwt>
</event>
<event>
 8    1  0.7756875E-018  0.8005148E+02  0.7818608E-02  0.1328905E+00
         -2   -1    0    0    0  501 -0.00000000000E+00  0.00000000000E+00  0.47547283647E+02  0.47547283716E+02  0.25500000000E-02 0.  1.
          1   -1    0    0  501    0  0.00000000000E+00 -0.00000000000E+00 -0.33694038325E+02  0.33694038702E+02  0.50400000000E-02 0. -1.
        -24    2    1    2    0    0 -0.71054273576E-14  0.00000000000E+00  0.13853245322E+02  0.81241322418E+02  0.80051483823E+02 0.  0.
         66    2    3    3    0    0  0.35656162467E+02 -0.16458301422E+02  0.14647730621E+02  0.41961811493E+02  0.20000009627E+01 0.  0.
         13    1    3    3    0    0 -0.35656162467E+02  0.16458301422E+02 -0.79448529861E+00  0.39279510925E+02  0.10566000000E+00 0. -1.
         13    1    4    4    0    0  0.47138183381E+01 -0.24975812840E+01  0.21935234528E+01  0.57689431240E+01  0.10566000000E+00 0.  1.
        -13    1    4    4    0    0  0.10323047401E+01 -0.53281332038E+00  0.71734478280E+00  0.13694125323E+01  0.10566000000E+00 0.  1.
        -14    1    4    4    0    0  0.29910039389E+02 -0.13427906818E+02  0.11736862385E+02  0.34823455836E+02  0.00000000000E+00 0.  1.
<mgrwt>
<rscale>  0 0.80051484E+02</rscale>
<asrwt>0</asrwt>
<pdfrwt beam="1">  1        1 0.51836983E-02 0.80051484E+02</pdfrwt>
<pdfrwt beam="2">  1       -2 0.73149667E-02 0.80051484E+02</pdfrwt>
<totfact> 0.12318284E+05</totfact>
</mgrwt>
</event>
<event>
 8    1  0.7756875E-018  0.8042006E+02  0.7818608E-02  0.1327864E+00
         -2   -1    0    0    0  501 -0.00000000000E+00  0.00000000000E+00  0.37655423922E+02  0.37655424008E+02  0.25500000000E-02 0.  1.
          1   -1    0    0  501    0  0.00000000000E+00 -0.00000000000E+00 -0.42937945551E+02  0.42937945847E+02  0.50400000000E-02 0. -1.
        -24    2    1    2    0    0  0.00000000000E+00  0.00000000000E+00 -0.52825216293E+01  0.80593369856E+02  0.80420061116E+02 0.  0.
         66    2    3    3    0    0  0.38847050161E+02  0.80122274938E+01 -0.91029040533E+01  0.40744962340E+02  0.19999995699E+01 0.  0.
         13    1    3    3    0    0 -0.38847050161E+02 -0.80122274938E+01  0.38203824240E+01  0.39848407515E+02  0.10566000000E+00 0. -1.
         13    1    4    4    0    0  0.20579175525E+02  0.44600498531E+01 -0.42111273345E+01  0.21474153474E+02  0.10566000000E+00 0. -1.
        -13    1    4    4    0    0  0.16049689921E+02  0.33575517591E+01 -0.45584403219E+01  0.17019290308E+02  0.10566000000E+00 0.  1.
         14    1    4    4    0    0  0.22181847153E+01  0.19462588156E+00 -0.33333639687E+00  0.22515185583E+01  0.00000000000E+00 0. -1.
<mgrwt>
<rscale>  0 0.80420061E+02</rscale>
<asrwt>0</asrwt>
<pdfrwt beam="1">  1        1 0.66058378E-02 0.80420061E+02</pdfrwt>
<pdfrwt beam="2">  1       -2 0.57931421E-02 0.80420061E+02</pdfrwt>
<totfact> 0.12656029E+05</totfact>
</mgrwt>
</event>
<event>
 8    1  0.7756875E-018  0.7916447E+02  0.7818608E-02  0.1331439E+00
          1   -1    0    0  501    0  0.00000000000E+00  0.00000000000E+00  0.36687740393E+01  0.36687775012E+01  0.50400000000E-02 0. -1.
         -2   -1    0    0    0  501 -0.00000000000E+00 -0.00000000000E+00 -0.42705073141E+03  0.42705073142E+03  0.25500000000E-02 0.  1.
        -24    2    1    2    0    0  0.00000000000E+00 -0.35527136788E-14 -0.42338195737E+03  0.43071950892E+03  0.79164471426E+02 0.  0.
         66    2    3    3    0    0  0.31667201526E+02 -0.21251393110E+02 -0.26897116626E+03  0.27166877192E+03  0.20000001276E+01 0.  0.
         13    1    3    3    0    0 -0.31667201526E+02  0.21251393110E+02 -0.15441079112E+03  0.15905073699E+03  0.10566000000E+00 0. -1.
         13    1    4    4    0    0  0.51496552851E+01 -0.28165935589E+01 -0.41265623543E+02  0.41681110821E+02  0.10566000000E+00 0. -1.
        -13    1    4    4    0    0  0.17708899412E+02 -0.12969829384E+02 -0.15346895040E+03  0.15503080820E+03  0.10566000000E+00 0.  1.
        -14    1    4    4    0    0  0.88086468288E+01 -0.54649701668E+01 -0.74236592316E+02  0.74956852899E+02  0.00000000000E+00 0.  1.
<mgrwt>
<rscale>  0 0.79164471E+02</rscale>
<asrwt>0</asrwt>
<pdfrwt beam="1">  1        1 0.56442738E-03 0.79164471E+02</pdfrwt>
<pdfrwt beam="2">  1       -2 0.65700073E-01 0.79164471E+02</pdfrwt>
<totfact> 0.58084725E+04</totfact>
</mgrwt>
</event>
<event>
 8    1  0.7756875E-018  0.7948734E+02  0.7818608E-02  0.1330513E+00
         -2   -1    0    0    0  501 -0.00000000000E+00  0.00000000000E+00  0.88583743572E+03  0.88583743573E+03  0.25500000000E-02 0.  1.
          1   -1    0    0  501    0  0.00000000000E+00 -0.00000000000E+00 -0.17831217912E+01  0.17831289140E+01  0.50400000000E-02 0. -1.
        -24    2    1    2    0    0  0.17763568394E-14  0.35527136788E-14  0.88405431393E+03  0.88762056464E+03  0.79487337304E+02 0.  0.
         66    2    3    3    0    0 -0.12865989671E+02 -0.19492030610E+02  0.80105163404E+03  0.80139453040E+03  0.20000026613E+01 0.  0.
         13    1    3    3    0    0  0.12865989671E+02  0.19492030610E+02  0.83002679895E+02  0.86226034244E+02  0.10566000000E+00 0. -1.
         13    1    4    4    0    0 -0.52074022007E+00 -0.10063688408E+01  0.32422026783E+02  0.32441993363E+02  0.10566000000E+00 0. -1.
        -13    1    4    4    0    0 -0.28165852862E+01 -0.33323268481E+01  0.16340983443E+03  0.16346810914E+03  0.10566000000E+00 0.  1.
        -14    1    4    4    0    0 -0.95286641650E+01 -0.15153334921E+02  0.60521977283E+03  0.60548442789E+03  0.00000000000E+00 0.  1.
<mgrwt>
<rscale>  0 0.79487337E+02</rscale>
<asrwt>0</asrwt>
<pdfrwt beam="1">  1        1 0.27432729E-03 0.79487337E+02</pdfrwt>
<pdfrwt beam="2">  1       -2 0.13628253E+00 0.79487337E+02</pdfrwt>
<totfact> 0.30374179E+04</totfact>
</mgrwt>
</event>
<event>
 8    1  0.7756875E-018  0.7958962E+02  0.7818608E-02  0.1330220E+00
          1   -1    0    0  501    0  0.00000000000E+00  0.00000000000E+00  0.30259820335E+02  0.30259820754E+02  0.50400000000E-02 0. -1.
         -2   -1    0    0    0  501 -0.00000000000E+00 -0.00000000000E+00 -0.52334316058E+02  0.52334316120E+02  0.25500000000E-02 0.  1.
        -24    2    1    2    0    0  0.00000000000E+00 -0.35527136788E-14 -0.22074495724E+02  0.82594136875E+02  0.79589622971E+02 0.  0.
         66    2    3    3    0    0 -0.25177199003E+02 -0.30716591729E+02 -0.13176442141E+02  0.41892946736E+02  0.20000004134E+01 0.  0.
         13    1    3    3    0    0  0.25177199003E+02  0.30716591729E+02 -0.88980535830E+01  0.40701190139E+02  0.10566000000E+00 0. -1.
         13    1    4    4    0    0 -0.34659795277E+01 -0.37548459658E+01 -0.14723971222E+01  0.53189284291E+01  0.10566000000E+00 0. -1.
        -13    1    4    4    0    0 -0.70517138496E+01 -0.77158770423E+01 -0.32666740390E+01  0.10951883402E+02  0.10566000000E+00 0.  1.
        -14    1    4    4    0    0 -0.14659505626E+02 -0.19245868721E+02 -0.84373709794E+01  0.25622134905E+02  0.00000000000E+00 0.  1.
<mgrwt>
<rscale>  0 0.79589623E+02</rscale>
<asrwt>0</asrwt>
<pdfrwt beam="1">  1        1 0.46553571E-02 0.79589623E+02</pdfrwt>
<pdfrwt beam="2">  1       -2 0.80514332E-02 0.79589623E+02</pdfrwt>
<totfact> 0.12293423E+05</totfact>
</mgrwt>
</event>
<event>
 8    1  0.7756875E-018  0.7968551E+02  0.7818608E-02  0.1329946E+00
         -2   -1    0    0    0  501 -0.00000000000E+00  0.00000000000E+00  0.42782496492E+03  0.42782496493E+03  0.25500000000E-02 0.  1.
          1   -1    0    0  501    0  0.00000000000E+00 -0.00000000000E+00 -0.37104994522E+01  0.37105028751E+01  0.50400000000E-02 0. -1.
        -24    2    1    2    0    0  0.00000000000E+00 -0.17763568394E-14  0.42411446547E+03  0.43153546781E+03  0.79685507796E+02 0.  0.
         66    2    3    3    0    0  0.33348902084E+02 -0.13959166371E+02  0.30255479116E+03  0.30471365115E+03  0.19999876130E+01 0.  0.
         13    1    3    3    0    0 -0.33348902084E+02  0.13959166371E+02  0.12155967431E+03  0.12682181665E+03  0.10566000000E+00 0. -1.
         13    1    4    4    0    0  0.25140399862E+01 -0.95797306866E+00  0.19392283025E+02  0.19578302133E+02  0.10566000000E+00 0. -1.
        -13    1    4    4    0    0  0.60615350560E+01 -0.24407032068E+01  0.51671811530E+02  0.52083457165E+02  0.10566000000E+00 0.  1.
        -14    1    4    4    0    0  0.24773327042E+02 -0.10560490095E+02  0.23149069660E+03  0.23305189186E+03  0.00000000000E+00 0.  1.
<mgrwt>
<rscale>  0 0.79685508E+02</rscale>
<asrwt>0</asrwt>
<pdfrwt beam="1">  1        1 0.57084664E-03 0.79685508E+02</pdfrwt>
<pdfrwt beam="2">  1       -2 0.65819190E-01 0.79685508E+02</pdfrwt>
<totfact> 0.57037349E+04</totfact>
</mgrwt>
</event>
<event>
 8    1  0.7756875E-018  0.8075079E+02  0.7818608E-02  0.1326934E+00
          1   -1    0    0  501    0  0.00000000000E+00  0.00000000000E+00  0.60191323592E+02  0.60191323803E+02  0.50400000000E-02 0. -1.
         -2   -1    0    0    0  501 -0.00000000000E+00 -0.00000000000E+00 -0.27083179172E+02  0.27083179292E+02  0.25500000000E-02 0.  1.
        -24    2    1    2    0    0  0.35527136788E-14  0.00000000000E+00  0.33108144419E+02  0.87274503095E+02  0.80750787387E+02 0.  0.
         66    2    3    3    0    0  0.13723757204E+02  0.21751877669E+02 -0.17039136227E+02  0.30916303921E+02  0.19999977198E+01 0.  0.
         13    1    3    3    0    0 -0.13723757204E+02 -0.21751877669E+02  0.50147280646E+02  0.56358199174E+02  0.10566000000E+00 0. -1.
         13    1    4    4    0    0  0.44424258670E+01  0.60335649516E+01 -0.46509879376E+01  0.88194051069E+01  0.10566000000E+00 0. -1.
        -13    1    4    4    0    0  0.87210475800E+01  0.14407073040E+02 -0.11060626348E+02  0.20148673497E+02  0.10566000000E+00 0.  1.
         14    1    4    4    0    0  0.56028375663E+00  0.13112396779E+01 -0.13275219412E+01  0.19482253169E+01  0.00000000000E+00 0. -1.
<mgrwt>
<rscale>  0 0.80750787E+02</rscale>
<asrwt>0</asrwt>
<pdfrwt beam="1">  1        1 0.92602036E-02 0.80750787E+02</pdfrwt>
<pdfrwt beam="2">  1       -2 0.41666430E-02 0.80750787E+02</pdfrwt>
<totfact> 0.13200703E+05</totfact>
</mgrwt>
</event>
<event>
 8    1  0.7756875E-018  0.8071101E+02  0.7818608E-02  0.1327046E+00
         -2   -1    0    0    0  501 -0.00000000000E+00  0.00000000000E+00  0.30321311496E+02  0.30321311603E+02  0.25500000000E-02 0.  1.
          1   -1    0    0  501    0  0.00000000000E+00 -0.00000000000E+00 -0.53710304105E+02  0.53710304341E+02  0.50400000000E-02 0. -1.
        -24    2    1    2    0    0  0.00000000000E+00  0.00000000000E+00 -0.23388992609E+02  0.84031615944E+02  0.80711012278E+02 0.  0.
         66    2    3    3    0    0 -0.95989232595E+01  0.55384256753E+01  0.28671946303E+02  0.30804122944E+02  0.19999997066E+01 0.  0.
         13    1    3    3    0    0  0.95989232595E+01 -0.55384256753E+01 -0.52060938912E+02  0.53227493001E+02  0.10566000000E+00 0. -1.
         13    1    4    4    0    0 -0.40949619819E+01  0.20643058288E+01  0.10598147282E+02  0.11548244976E+02  0.10566000000E+00 0. -1.
        -13    1    4    4    0    0 -0.41107801725E+01  0.18697000749E+01  0.12163852038E+02  0.12975544398E+02  0.10566000000E+00 0.  1.
         14    1    4    4    0    0 -0.13931811050E+01  0.16044197715E+01  0.59099469835E+01  0.62803335693E+01  0.00000000000E+00 0. -1.
<mgrwt>
<rscale>  0 0.80711012E+02</rscale>
<asrwt>0</asrwt>
<pdfrwt beam="1">  1        1 0.82631238E-02 0.80711012E+02</pdfrwt>
<pdfrwt beam="2">  1       -2 0.46648171E-02 0.80711012E+02</pdfrwt>
<totfact> 0.12983185E+05</totfact>
</mgrwt>
</event>
<event>
 8    1  0.7756875E-018  0.7898414E+02  0.7818608E-02  0.1331959E+00
         -2   -1    0    0    0  501 -0.00000000000E+00  0.00000000000E+00  0.33679996433E+02  0.33679996529E+02  0.25500000000E-02 0.  1.
          1   -1    0    0  501    0  0.00000000000E+00 -0.00000000000E+00 -0.46307117007E+02  0.46307117281E+02  0.50400000000E-02 0. -1.
        -24    2    1    2    0    0  0.00000000000E+00  0.00000000000E+00 -0.12627120574E+02  0.79987113811E+02  0.78984138925E+02 0.  0.
         66    2    3    3    0    0  0.20688507283E+02 -0.17714745095E+02  0.22607170596E+02  0.35452936309E+02  0.20000007951E+01 0.  0.
         13    1    3    3    0    0 -0.20688507283E+02  0.17714745095E+02 -0.35234291171E+02  0.44534177501E+02  0.10566000000E+00 0. -1.
         13    1    4    4    0    0  0.63371289190E+01 -0.62235800521E+01  0.81323410576E+01  0.12043184243E+02  0.10566000000E+00 0. -1.
        -13    1    4    4    0    0  0.50126371871E+01 -0.38998300817E+01  0.46112398791E+01  0.78491976338E+01  0.10566000000E+00 0.  1.
         14    1    4    4    0    0  0.93387411771E+01 -0.75913349615E+01  0.98635896597E+01  0.15560554432E+02  0.00000000000E+00 0. -1.
<mgrwt>
<rscale>  0 0.78984139E+02</rscale>
<asrwt>0</asrwt>
<pdfrwt beam="1">  1        1 0.71241718E-02 0.78984139E+02</pdfrwt>
<pdfrwt beam="2">  1       -2 0.51815380E-02 0.78984139E+02</pdfrwt>
<totfact> 0.13470624E+05</totfact>
</mgrwt>
</event>
<event>
 8    1  0.7756875E-018  0.7795351E+02  0.7818608E-02  0.1334961E+00
         -2   -1    0    0    0  501 -0.00000000000E+00  0.00000000000E+00  0.20260387748E+02  0.20260387909E+02  0.25500000000E-02 0.  1.
          1   -1    0    0  501    0  0.00000000000E+00 -0.00000000000E+00 -0.74983136417E+02  0.74983136586E+02  0.50400000000E-02 0. -1.
        -24    2    1    2    0    0  0.71054273576E-14  0.00000000000E+00 -0.54722748669E+02  0.95243524495E+02  0.77953510096E+02 0.  0.
         66    2    3    3    0    0 -0.33273332762E+02  0.13899348370E+02 -0.93862571281E+01  0.37314989320E+02  0.20000117212E+01 0.  0.
         13    1    3    3    0    0  0.33273332762E+02 -0.13899348370E+02 -0.45336491541E+02  0.57928535175E+02  0.10566000000E+00 0. -1.
         13    1    4    4    0    0 -0.77037942577E+01  0.34527900490E+01 -0.16229380270E+01  0.85974005934E+01  0.10566000000E+00 0. -1.
        -13    1    4    4    0    0 -0.12563117096E+02  0.47487066873E+01 -0.32625091054E+01  0.13821622773E+02  0.10566000000E+00 0.  1.
         14    1    4    4    0    0 -0.13006421408E+02  0.56978516341E+01 -0.45008099957E+01  0.14895965954E+02  0.00000000000E+00 0. -1.
<mgrwt>
<rscale>  0 0.77953510E+02</rscale>
<asrwt>0</asrwt>
<pdfrwt beam="1">  1        1 0.11535867E-01 0.77953510E+02</pdfrwt>
<pdfrwt beam="2">  1       -2 0.31169828E-02 0.77953510E+02</pdfrwt>
<totfact> 0.15049249E+05</totfact>
</mgrwt>
</event>
<event>
 8    1  0.7756875E-018  0.7872858E+02  0.7818608E-02  0.1332699E+00
          1   -1    0    0  501    0  0.00000000000E+00  0.00000000000E+00  0.84479579417E+02  0.84479579567E+02  0.50400000000E-02 0. -1.
         -2   -1    0    0    0  501 -0.00000000000E+00 -0.00000000000E+00 -0.18342271607E+02  0.18342271785E+02  0.25500000000E-02 0.  1.
        -24    2    1    2    0    0  0.00000000000E+00  0.00000000000E+00  0.66137307809E+02  0.10282185135E+03  0.78728582047E+02 0.  0.
         66    2    3    3    0    0  0.35733526654E+02 -0.15242101869E+02  0.41176343328E+02  0.56645369151E+02  0.19999999782E+01 0.  0.
         13    1    3    3    0    0 -0.35733526654E+02  0.15242101869E+02  0.24960964482E+02  0.46176482200E+02  0.10566000000E+00 0. -1.
         13    1    4    4    0    0  0.52823971014E+01 -0.25592866838E+01  0.66456265383E+01  0.88673098282E+01  0.10566000000E+00 0. -1.
        -13    1    4    4    0    0  0.24318555767E+02 -0.10550464203E+02  0.28374226912E+02  0.38830559696E+02  0.10566000000E+00 0.  1.
        -14    1    4    4    0    0  0.61325737859E+01 -0.21323509830E+01  0.61564898779E+01  0.89474996268E+01  0.00000000000E+00 0.  1.
<mgrwt>
<rscale>  0 0.78728582E+02</rscale>
<asrwt>0</asrwt>
<pdfrwt beam="1">  1        1 0.12996859E-01 0.78728582E+02</pdfrwt>
<pdfrwt beam="2">  1       -2 0.28218879E-02 0.78728582E+02</pdfrwt>
<totfact> 0.14930398E+05</totfact>
</mgrwt>
</event>
<event>
 8    1  0.7756875E-018  0.7746046E+02  0.7818608E-02  0.1336417E+00
         -2   -1    0    0    0  501 -0.00000000000E+00  0.00000000000E+00  0.93862721849E+02  0.93862721884E+02  0.25500000000E-02 0.  1.
          1   -1    0    0  501    0  0.00000000000E+00 -0.00000000000E+00 -0.15981112176E+02  0.15981112971E+02  0.50400000000E-02 0. -1.
        -24    2    1    2    0    0  0.00000000000E+00  0.17763568394E-14  0.77881609673E+02  0.10984383485E+03  0.77460460431E+02 0.  0.
         66    2    3    3    0    0  0.34646897244E+02 -0.13826356743E+02  0.53597517574E+02  0.65331994604E+02  0.19999998410E+01 0.  0.
         13    1    3    3    0    0 -0.34646897244E+02  0.13826356743E+02  0.24284092099E+02  0.44511840251E+02  0.10566000000E+00 0. -1.
         13    1    4    4    0    0  0.15088243804E+02 -0.61193970473E+01  0.24939889462E+02  0.29784414914E+02  0.10566000000E+00 0. -1.
        -13    1    4    4    0    0  0.18852568310E+02 -0.72967087292E+01  0.27505048154E+02  0.34135027877E+02  0.10566000000E+00 0.  1.
         14    1    4    4    0    0  0.70608512950E+00 -0.41025096605E+00  0.11525799580E+01  0.14125518132E+01  0.00000000000E+00 0. -1.
<mgrwt>
<rscale>  0 0.77460460E+02</rscale>
<asrwt>0</asrwt>
<pdfrwt beam="1">  1        1 0.24586328E-02 0.77460460E+02</pdfrwt>
<pdfrwt beam="2">  1       -2 0.14440418E-01 0.77460460E+02</pdfrwt>
<totfact> 0.11703594E+05</totfact>
</mgrwt>
</event>
<event>
 8    1  0.7756875E-018  0.7718247E+02  0.7818608E-02  0.1337243E+00
         -2   -1    0    0    0  501 -0.00000000000E+00  0.00000000000E+00  0.63455118605E+01  0.63455123729E+01  0.25500000000E-02 0.  1.
          1   -1    0    0  501    0  0.00000000000E+00 -0.00000000000E+00 -0.23469871179E+03  0.23469871184E+03  0.50400000000E-02 0. -1.
        -24    2    1    2    0    0  0.00000000000E+00 -0.71054273576E-14 -0.22835319993E+03  0.24104422421E+03  0.77182472818E+02 0.  0.
         66    2    3    3    0    0 -0.10794553281E+02 -0.36558487423E+02 -0.13252572021E+03  0.13791342175E+03  0.19999998916E+01 0.  0.
         13    1    3    3    0    0  0.10794553281E+02  0.36558487423E+02 -0.95827479720E+02  0.10313080246E+03  0.10566000000E+00 0. -1.
         13    1    4    4    0    0 -0.51036353944E+01 -0.17476490244E+02 -0.61219823941E+02  0.63869811436E+02  0.10566000000E+00 0.  1.
        -13    1    4    4    0    0 -0.45907339864E+01 -0.13631862678E+02 -0.50799728324E+02  0.52797027193E+02  0.10566000000E+00 0. -1.
        -14    1    4    4    0    0 -0.11001839000E+01 -0.54501345019E+01 -0.20506167943E+02  0.21246583123E+02  0.00000000000E+00 0.  1.
<mgrwt>
<rscale>  0 0.77182473E+02</rscale>
<asrwt>0</asrwt>
<pdfrwt beam="1">  1        1 0.36107488E-01 0.77182473E+02</pdfrwt>
<pdfrwt beam="2">  1       -2 0.97623281E-03 0.77182473E+02</pdfrwt>
<totfact> 0.18911232E+05</totfact>
</mgrwt>
</event>
<event>
 8    1  0.7756875E-018  0.7945270E+02  0.7818608E-02  0.1330612E+00
          1   -1    0    0  501    0  0.00000000000E+00  0.00000000000E+00  0.58021718541E+02  0.58021718760E+02  0.50400000000E-02 0. -1.
         -2   -1    0    0    0  501 -0.00000000000E+00 -0.00000000000E+00 -0.27199862886E+02  0.27199863006E+02  0.25500000000E-02 0.  1.
        -24    2    1    2    0    0  0.00000000000E+00 -0.35527136788E-14  0.30821855655E+02  0.85221581766E+02  0.79452697957E+02 0.  0.
         66    2    3    3    0    0  0.15181858648E+02  0.29260601849E+02 -0.83105530754E+01  0.34054910683E+02  0.19999991625E+01 0.  0.
         13    1    3    3    0    0 -0.15181858648E+02 -0.29260601849E+02  0.39132408731E+02  0.51166671083E+02  0.10566000000E+00 0. -1.
         13    1    4    4    0    0  0.11237489019E+02  0.22028678510E+02 -0.57714858465E+01  0.25394193220E+02  0.10566000000E+00 0. -1.
        -13    1    4    4    0    0  0.14247852050E+01  0.31714593735E+01 -0.75157894058E+00  0.35586798645E+01  0.10566000000E+00 0.  1.
        -14    1    4    4    0    0  0.25195844240E+01  0.40604639651E+01 -0.17874882884E+01  0.51020375991E+01  0.00000000000E+00 0.  1.
<mgrwt>
<rscale>  0 0.79452698E+02</rscale>
<asrwt>0</asrwt>
<pdfrwt beam="1">  1        1 0.89264183E-02 0.79452698E+02</pdfrwt>
<pdfrwt beam="2">  1       -2 0.41845943E-02 0.79452698E+02</pdfrwt>
<totfact> 0.13725150E+05</totfact>
</mgrwt>
</event>
<event>
 8    1  0.7756875E-018  0.8574685E+02  0.7818608E-02  0.1313491E+00
          1   -1    0    0  501    0  0.00000000000E+00  0.00000000000E+00  0.17506229453E+02  0.17506230178E+02  0.50400000000E-02 0. -1.
         -2   -1    0    0    0  501 -0.00000000000E+00 -0.00000000000E+00 -0.10499864426E+03  0.10499864429E+03  0.25500000000E-02 0.  1.
        -24    2    1    2    0    0  0.35527136788E-14  0.35527136788E-14 -0.87492414802E+02  0.12250487446E+03  0.85746846121E+02 0.  0.
         66    2    3    3    0    0  0.17175039552E+02 -0.27894111515E+02 -0.83235213481E+02  0.89471582652E+02  0.19999745480E+01 0.  0.
         13    1    3    3    0    0 -0.17175039552E+02  0.27894111515E+02 -0.42572013208E+01  0.33033291812E+02  0.10566000000E+00 0. -1.
         13    1    4    4    0    0  0.38961331664E+00 -0.37820547412E+00 -0.99550344443E+00  0.11388718368E+01  0.10566000000E+00 0. -1.
        -13    1    4    4    0    0  0.64356258379E+01 -0.10111537237E+02 -0.31126187805E+02  0.33354328003E+02  0.10566000000E+00 0.  1.
         14    1    4    4    0    0  0.10349800397E+02 -0.17404368804E+02 -0.51113522232E+02  0.54978382813E+02  0.00000000000E+00 0. -1.
<mgrwt>
<rscale>  0 0.85746846E+02</rscale>
<asrwt>0</asrwt>
<pdfrwt beam="1">  1        1 0.26932662E-02 0.85746846E+02</pdfrwt>
<pdfrwt beam="2">  1       -2 0.16153637E-01 0.85746846E+02</pdfrwt>
<totfact> 0.87741517E+04</totfact>
</mgrwt>
</event>
<event>
 8    1  0.7756875E-018  0.8009912E+02  0.7818608E-02  0.1328770E+00
          1   -1    0    0  501    0  0.00000000000E+00  0.00000000000E+00  0.39298050645E+01  0.39298082964E+01  0.50400000000E-02 0. -1.
         -2   -1    0    0    0  501 -0.00000000000E+00 -0.00000000000E+00 -0.40815420354E+03  0.40815420355E+03  0.25500000000E-02 0.  1.
        -24    2    1    2    0    0  0.00000000000E+00  0.00000000000E+00 -0.40422439848E+03  0.41208401185E+03  0.80099116692E+02 0.  0.
         66    2    3    3    0    0  0.48716667971E+01 -0.16715874223E+02 -0.38764676980E+03  0.38804274472E+03  0.20000011975E+01 0.  0.
         13    1    3    3    0    0 -0.48716667971E+01  0.16715874223E+02 -0.16577628676E+02  0.24041267125E+02  0.10566000000E+00 0. -1.
         13    1    4    4    0    0  0.26642262563E+01 -0.98754968283E+01 -0.24653142667E+03  0.24674354914E+03  0.10566000000E+00 0.  1.
        -13    1    4    4    0    0  0.10789490617E+01 -0.34134639239E+01 -0.65548431219E+02  0.65646202223E+02  0.10566000000E+00 0. -1.
        -14    1    4    4    0    0  0.11284914791E+01 -0.34269134708E+01 -0.75566911910E+02  0.75652993361E+02  0.00000000000E+00 0.  1.
<mgrwt>
<rscale>  0 0.80099117E+02</rscale>
<asrwt>0</asrwt>
<pdfrwt beam="1">  1        1 0.60458597E-03 0.80099117E+02</pdfrwt>
<pdfrwt beam="2">  1       -2 0.62792921E-01 0.80099117E+02</pdfrwt>
<totfact> 0.58116821E+04</totfact>
</mgrwt>
</event>
<event>
 8    1  0.7756875E-018  0.8289557E+02  0.7818608E-02  0.1321029E+00
          1   -1    0    0  501    0  0.00000000000E+00  0.00000000000E+00  0.57658953888E+02  0.57658954109E+02  0.50400000000E-02 0. -1.
         -2   -1    0    0    0  501 -0.00000000000E+00 -0.00000000000E+00 -0.29794484967E+02  0.29794485077E+02  0.25500000000E-02 0.  1.
        -24    2    1    2    0    0  0.35527136788E-14  0.00000000000E+00  0.27864468921E+02  0.87453439185E+02  0.82895569225E+02 0.  0.
         66    2    3    3    0    0  0.16364402560E+02 -0.15769735652E+02 -0.22596775688E+02  0.32110629307E+02  0.20000023346E+01 0.  0.
         13    1    3    3    0    0 -0.16364402560E+02  0.15769735652E+02  0.50461244609E+02  0.55342809878E+02  0.10566000000E+00 0. -1.
         13    1    4    4    0    0  0.87566594849E+00 -0.71569468860E+00 -0.14282655782E+01  0.18248606352E+01  0.10566000000E+00 0. -1.
        -13    1    4    4    0    0  0.57149574814E+01 -0.46230458946E+01 -0.66920042561E+01  0.99411959722E+01  0.10566000000E+00 0.  1.
         14    1    4    4    0    0  0.97737791301E+01 -0.10430995068E+02 -0.14476505854E+02  0.20344572700E+02  0.00000000000E+00 0. -1.
<mgrwt>
<rscale>  0 0.82895569E+02</rscale>
<asrwt>0</asrwt>
<pdfrwt beam="1">  1        1 0.88706083E-02 0.82895569E+02</pdfrwt>
<pdfrwt beam="2">  1       -2 0.45837670E-02 0.82895569E+02</pdfrwt>
<totfact> 0.12192478E+05</totfact>
</mgrwt>
</event>
<event>
 8    1  0.7756875E-018  0.7850126E+02  0.7818608E-02  0.1333359E+00
         -2   -1    0    0    0  501 -0.00000000000E+00  0.00000000000E+00  0.15790541515E+03  0.15790541517E+03  0.25500000000E-02 0.  1.
          1   -1    0    0  501    0  0.00000000000E+00 -0.00000000000E+00 -0.97565489288E+01  0.97565502306E+01  0.50400000000E-02 0. -1.
        -24    2    1    2    0    0 -0.88817841970E-15 -0.71054273576E-14  0.14814886622E+03  0.16766196540E+03  0.78501261643E+02 0.  0.
         66    2    3    3    0    0 -0.43053090472E+01 -0.28204665924E+02  0.13161307478E+03  0.13468496692E+03  0.19999992856E+01 0.  0.
         13    1    3    3    0    0  0.43053090472E+01  0.28204665924E+02  0.16535791444E+02  0.32976998478E+02  0.10566000000E+00 0. -1.
         13    1    4    4    0    0 -0.44794009704E+00 -0.15539374411E+01  0.79067291684E+01  0.80711152934E+01  0.10566000000E+00 0.  1.
        -13    1    4    4    0    0 -0.24853264723E+01 -0.14203890625E+02  0.69441942195E+02  0.70923351982E+02  0.10566000000E+00 0.  1.
         14    1    4    4    0    0 -0.13720424779E+01 -0.12446837857E+02  0.54264403414E+02  0.55690499648E+02  0.00000000000E+00 0. -1.
<mgrwt>
<rscale>  0 0.78501262E+02</rscale>
<asrwt>0</asrwt>
<pdfrwt beam="1">  1        1 0.15010077E-02 0.78501262E+02</pdfrwt>
<pdfrwt beam="2">  1       -2 0.24293140E-01 0.78501262E+02</pdfrwt>
<totfact> 0.97532948E+04</totfact>
</mgrwt>
</event>
<event>
 8    1  0.7756875E-018  0.7974359E+02  0.7818608E-02  0.1329781E+00
          1   -1    0    0  501    0  0.00000000000E+00  0.00000000000E+00  0.47927698041E+01  0.47927724541E+01  0.50400000000E-02 0. -1.
         -2   -1    0    0    0  501 -0.00000000000E+00 -0.00000000000E+00 -0.33169952532E+03  0.33169952533E+03  0.25500000000E-02 0.  1.
        -24    2    1    2    0    0 -0.17763568394E-14  0.00000000000E+00 -0.32690675552E+03  0.33649229778E+03  0.79743586990E+02 0.  0.
         66    2    3    3    0    0  0.11709576214E+02 -0.18360708736E+02 -0.30436457110E+03  0.30514917983E+03  0.20000035579E+01 0.  0.
         13    1    3    3    0    0 -0.11709576214E+02  0.18360708736E+02 -0.22542184419E+02  0.31343117950E+02  0.10566000000E+00 0. -1.
         13    1    4    4    0    0  0.19367453214E+01 -0.23425962181E+01 -0.44317893356E+02  0.44422129339E+02  0.10566000000E+00 0. -1.
        -13    1    4    4    0    0  0.69518063721E+01 -0.12605461711E+02 -0.19879155960E+03  0.19931211857E+03  0.10566000000E+00 0.  1.
        -14    1    4    4    0    0  0.28210245204E+01 -0.34126508064E+01 -0.61255118145E+02  0.61414931929E+02  0.00000000000E+00 0.  1.
<mgrwt>
<rscale>  0 0.79743587E+02</rscale>
<asrwt>0</asrwt>
<pdfrwt beam="1">  1        1 0.73734967E-03 0.79743587E+02</pdfrwt>
<pdfrwt beam="2">  1       -2 0.51030678E-01 0.79743587E+02</pdfrwt>
<totfact> 0.66955140E+04</totfact>
</mgrwt>
</event>
<event>
 8    1  0.7756875E-018  0.7995023E+02  0.7818608E-02  0.1329193E+00
          1   -1    0    0  501    0  0.00000000000E+00  0.00000000000E+00  0.59576689118E+01  0.59576710437E+01  0.50400000000E-02 0. -1.
         -2   -1    0    0    0  501 -0.00000000000E+00 -0.00000000000E+00 -0.26822730390E+03  0.26822730391E+03  0.25500000000E-02 0.  1.
        -24    2    1    2    0    0  0.88817841970E-15 -0.17763568394E-14 -0.26226963499E+03  0.27418497496E+03  0.79950228610E+02 0.  0.
         66    2    3    3    0    0  0.50426117165E+01 -0.13859544400E+02 -0.25854518313E+03  0.25897321603E+03  0.20000001251E+01 0.  0.
         13    1    3    3    0    0 -0.50426117165E+01  0.13859544400E+02 -0.37244518645E+01  0.15211758926E+02  0.10566000000E+00 0. -1.
         13    1    4    4    0    0  0.66281843084E+00 -0.71895415389E+00 -0.20082726490E+02  0.20106797126E+02  0.10566000000E+00 0. -1.
        -13    1    4    4    0    0  0.64921589412E+00 -0.11636087204E+01 -0.21159569711E+02  0.21201745705E+02  0.10566000000E+00 0.  1.
        -14    1    4    4    0    0  0.37305773915E+01 -0.11976981526E+02 -0.21730288692E+03  0.21766467320E+03  0.00000000000E+00 0.  1.
<mgrwt>
<rscale>  0 0.79950229E+02</rscale>
<asrwt>0</asrwt>
<pdfrwt beam="1">  1        1 0.91656482E-03 0.79950229E+02</pdfrwt>
<pdfrwt beam="2">  1       -2 0.41265730E-01 0.79950229E+02</pdfrwt>
<totfact> 0.74624398E+04</totfact>
</mgrwt>
</event>
<event>
 8    1  0.7756875E-018  0.7908424E+02  0.7818608E-02  0.1331670E+00
          1   -1    0    0  501    0  0.00000000000E+00  0.00000000000E+00  0.10350734480E+03  0.10350734493E+03  0.50400000000E-02 0. -1.
         -2   -1    0    0    0  501 -0.00000000000E+00 -0.00000000000E+00 -0.15105973460E+02  0.15105973675E+02  0.25500000000E-02 0.  1.
        -24    2    1    2    0    0  0.00000000000E+00  0.00000000000E+00  0.88401371343E+02  0.11861331860E+03  0.79084239228E+02 0.  0.
         66    2    3    3    0    0  0.15600550259E+02 -0.11472069613E+02 -0.74357901532E+01  0.20839302435E+02  0.20000002983E+01 0.  0.
         13    1    3    3    0    0 -0.15600550259E+02  0.11472069613E+02  0.95837161496E+02  0.97774016166E+02  0.10566000000E+00 0. -1.
         13    1    4    4    0    0  0.37541750665E+01 -0.30225098271E+01 -0.12775310892E+01  0.49872483199E+01  0.10566000000E+00 0. -1.
        -13    1    4    4    0    0  0.97873692014E+01 -0.74787742896E+01 -0.54319110995E+01  0.13462595700E+02  0.10566000000E+00 0.  1.
        -14    1    4    4    0    0  0.20590059914E+01 -0.97078549583E+00 -0.72634796454E+00  0.23894584151E+01  0.00000000000E+00 0.  1.
<mgrwt>
<rscale>  0 0.79084239E+02</rscale>
<asrwt>0</asrwt>
<pdfrwt beam="1">  1        1 0.15924207E-01 0.79084239E+02</pdfrwt>
<pdfrwt beam="2">  1       -2 0.23239959E-02 0.79084239E+02</pdfrwt>
<totfact> 0.15251315E+05</totfact>
</mgrwt>
</event>
<event>
 8    1  0.7756875E-018  0.7960318E+02  0.7818608E-02  0.1330181E+00
         -2   -1    0    0    0  501 -0.00000000000E+00  0.00000000000E+00  0.45807816738E+02  0.45807816809E+02  0.25500000000E-02 0.  1.
          1   -1    0    0  501    0  0.00000000000E+00 -0.00000000000E+00 -0.34582887521E+02  0.34582887888E+02  0.50400000000E-02 0. -1.
        -24    2    1    2    0    0  0.00000000000E+00  0.00000000000E+00  0.11224929217E+02  0.80390704697E+02  0.79603180626E+02 0.  0.
         66    2    3    3    0    0  0.13903934434E+02 -0.21766755923E+01  0.43187609484E+02  0.45466767301E+02  0.20000016395E+01 0.  0.
         13    1    3    3    0    0 -0.13903934434E+02  0.21766755923E+01 -0.31962680267E+02  0.34923937396E+02  0.10566000000E+00 0. -1.
         13    1    4    4    0    0  0.23796398195E+01  0.28207051848E+00  0.64852644145E+01  0.69146271056E+01  0.10566000000E+00 0. -1.
        -13    1    4    4    0    0  0.10291649880E+02 -0.20204921690E+01  0.32425324274E+02  0.34079513849E+02  0.10566000000E+00 0.  1.
         14    1    4    4    0    0  0.12326447340E+01 -0.43825394179E+00  0.42770207952E+01  0.44726263471E+01  0.00000000000E+00 0. -1.
<mgrwt>
<rscale>  0 0.79603181E+02</rscale>
<asrwt>0</asrwt>
<pdfrwt beam="1">  1        1 0.53204443E-02 0.79603181E+02</pdfrwt>
<pdfrwt beam="2">  1       -2 0.70473564E-02 0.79603181E+02</pdfrwt>
<totfact> 0.12571946E+05</totfact>
</mgrwt>
</event>
<event>
 8    1  0.7756875E-018  0.7893195E+02  0.7818608E-02  0.1332110E+00
          1   -1    0    0  501    0  0.00000000000E+00  0.00000000000E+00  0.81868888159E+02  0.81868888314E+02  0.50400000000E-02 0. -1.
         -2   -1    0    0    0  501 -0.00000000000E+00 -0.00000000000E+00 -0.19025092311E+02  0.19025092482E+02  0.25500000000E-02 0.  1.
        -24    2    1    2    0    0  0.00000000000E+00  0.00000000000E+00  0.62843795848E+02  0.10089398080E+03  0.78931949706E+02 0.  0.
         66    2    3    3    0    0 -0.82312880197E+01 -0.30058803278E+02  0.54474313323E+00  0.31234316067E+02  0.19999995349E+01 0.  0.
         13    1    3    3    0    0  0.82312880197E+01  0.30058803278E+02  0.62299052715E+02  0.69659664729E+02  0.10566000000E+00 0. -1.
         13    1    4    4    0    0 -0.60635893152E-01 -0.11900423931E+01 -0.10679789091E+00  0.12010193313E+01  0.10566000000E+00 0. -1.
        -13    1    4    4    0    0 -0.53362691428E+01 -0.20161200169E+02  0.86354168170E+00  0.20873586871E+02  0.10566000000E+00 0.  1.
         14    1    4    4    0    0 -0.28343829838E+01 -0.87075607163E+01 -0.21200065756E+00  0.91597098647E+01  0.00000000000E+00 0. -1.
<mgrwt>
<rscale>  0 0.78931950E+02</rscale>
<asrwt>0</asrwt>
<pdfrwt beam="1">  1        1 0.12595213E-01 0.78931950E+02</pdfrwt>
<pdfrwt beam="2">  1       -2 0.29269374E-02 0.78931950E+02</pdfrwt>
<totfact> 0.14751668E+05</totfact>
</mgrwt>
</event>
<event>
 8    1  0.7756875E-018  0.7861350E+02  0.7818608E-02  0.1333033E+00
          1   -1    0    0  501    0  0.00000000000E+00  0.00000000000E+00  0.16364842246E+02  0.16364843022E+02  0.50400000000E-02 0. -1.
         -2   -1    0    0    0  501 -0.00000000000E+00 -0.00000000000E+00 -0.94410963625E+02  0.94410963660E+02  0.25500000000E-02 0.  1.
        -24    2    1    2    0    0  0.00000000000E+00  0.00000000000E+00 -0.78046121379E+02  0.11077580668E+03  0.78613499374E+02 0.  0.
         66    2    3    3    0    0 -0.34176225271E+02  0.18087859074E+02 -0.48793672120E+02  0.62289705876E+02  0.19999998709E+01 0.  0.
         13    1    3    3    0    0  0.34176225271E+02 -0.18087859074E+02 -0.29252449259E+02  0.48486100806E+02  0.10566000000E+00 0. -1.
         13    1    4    4    0    0 -0.10641250851E+02  0.52576978830E+01 -0.14702729530E+02  0.18896058488E+02  0.10566000000E+00 0. -1.
        -13    1    4    4    0    0 -0.13356079802E+02  0.66070042195E+01 -0.19679350740E+02  0.24684517051E+02  0.10566000000E+00 0.  1.
         14    1    4    4    0    0 -0.10178894618E+02  0.62231569719E+01 -0.14411591850E+02  0.18709130338E+02  0.00000000000E+00 0. -1.
<mgrwt>
<rscale>  0 0.78613499E+02</rscale>
<asrwt>0</asrwt>
<pdfrwt beam="1">  1        1 0.25176682E-02 0.78613499E+02</pdfrwt>
<pdfrwt beam="2">  1       -2 0.14524763E-01 0.78613499E+02</pdfrwt>
<totfact> 0.11254515E+05</totfact>
</mgrwt>
</event>
<event>
 8    1  0.7756875E-018  0.7937598E+02  0.7818608E-02  0.1330832E+00
         -2   -1    0    0    0  501 -0.00000000000E+00  0.00000000000E+00  0.94347752203E+01  0.94347755649E+01  0.25500000000E-02 0.  1.
          1   -1    0    0  501    0  0.00000000000E+00 -0.00000000000E+00 -0.16695009075E+03  0.16695009083E+03  0.50400000000E-02 0. -1.
        -24    2    1    2    0    0  0.00000000000E+00  0.17763568394E-14 -0.15751531553E+03  0.17638486639E+03  0.79375981666E+02 0.  0.
         66    2    3    3    0    0 -0.23090922125E+02  0.96763230466E+01 -0.10449593973E+02  0.27203233697E+02  0.19999992673E+01 0.  0.
         13    1    3    3    0    0  0.23090922125E+02 -0.96763230466E+01 -0.14706572156E+03  0.14918163270E+03  0.10566000000E+00 0. -1.
         13    1    4    4    0    0 -0.63029044480E+00 -0.32401236544E-01 -0.25575756786E+00  0.68912397583E+00  0.10566000000E+00 0. -1.
        -13    1    4    4    0    0 -0.17536346367E+02  0.77067620607E+01 -0.77545959180E+01  0.20665491701E+02  0.10566000000E+00 0.  1.
        -14    1    4    4    0    0 -0.49242853138E+01  0.20019622225E+01 -0.24392404873E+01  0.58486180203E+01  0.00000000000E+00 0.  1.
<mgrwt>
<rscale>  0 0.79375982E+02</rscale>
<asrwt>0</asrwt>
<pdfrwt beam="1">  1        1 0.25684627E-01 0.79375982E+02</pdfrwt>
<pdfrwt beam="2">  1       -2 0.14515040E-02 0.79375982E+02</pdfrwt>
<totfact> 0.16446319E+05</totfact>
</mgrwt>
</event>
<event>
 8    1  0.7756875E-018  0.7904423E+02  0.7818608E-02  0.1331786E+00
         -2   -1    0    0    0  501 -0.00000000000E+00  0.00000000000E+00  0.34486475663E+01  0.34486485090E+01  0.25500000000E-02 0.  1.
          1   -1    0    0  501    0  0.00000000000E+00 -0.00000000000E+00 -0.45293039271E+03  0.45293039274E+03  0.50400000000E-02 0. -1.
        -24    2    1    2    0    0  0.00000000000E+00 -0.44408920985E-15 -0.44948174515E+03  0.45637904125E+03  0.79044228582E+02 0.  0.
         66    2    3    3    0    0  0.35165682168E+02 -0.37170804920E+01 -0.32646743997E+03  0.32838305565E+03  0.19999955265E+01 0.  0.
         13    1    3    3    0    0 -0.35165682168E+02  0.37170804920E+01 -0.12301430517E+03  0.12799598560E+03  0.10566000000E+00 0. -1.
         13    1    4    4    0    0  0.78016851529E+01 -0.36159220030E+00 -0.73019962219E+02  0.73436524200E+02  0.10566000000E+00 0. -1.
        -13    1    4    4    0    0  0.10055956680E+02 -0.99113392412E+00 -0.98904748692E+02  0.99419641364E+02  0.10566000000E+00 0.  1.
        -14    1    4    4    0    0  0.17308040336E+02 -0.23643543676E+01 -0.15454272906E+03  0.15552689008E+03  0.00000000000E+00 0.  1.
<mgrwt>
<rscale>  0 0.79044229E+02</rscale>
<asrwt>0</asrwt>
<pdfrwt beam="1">  1        1 0.69681552E-01 0.79044229E+02</pdfrwt>
<pdfrwt beam="2">  1       -2 0.53056160E-03 0.79044229E+02</pdfrwt>
<totfact> 0.19977573E+05</totfact>
</mgrwt>
</event>
<event>
 8    1  0.7756875E-018  0.7941122E+02  0.7818608E-02  0.1330731E+00
         -2   -1    0    0    0  501 -0.00000000000E+00  0.00000000000E+00  0.16490374107E+03  0.16490374109E+03  0.25500000000E-02 0.  1.
          1   -1    0    0  501    0  0.00000000000E+00 -0.00000000000E+00 -0.95603379722E+01  0.95603393007E+01  0.50400000000E-02 0. -1.
        -24    2    1    2    0    0  0.71054273576E-14  0.17763568394E-14  0.15534340310E+03  0.17446408039E+03  0.79411223768E+02 0.  0.
         66    2    3    3    0    0  0.38520097144E+02  0.86686222241E+01  0.86394761287E+02  0.95010513655E+02  0.20000079855E+01 0.  0.
         13    1    3    3    0    0 -0.38520097144E+02 -0.86686222241E+01  0.68948641809E+02  0.79453566733E+02  0.10566000000E+00 0. -1.
         13    1    4    4    0    0  0.97198567031E+01  0.19746208251E+01  0.22376740013E+02  0.24476609230E+02  0.10566000000E+00 0. -1.
        -13    1    4    4    0    0  0.67797071654E+01  0.22493921615E+01  0.15698861344E+02  0.17247886998E+02  0.10566000000E+00 0.  1.
        -14    1    4    4    0    0  0.22020533276E+02  0.44446092375E+01  0.48319159929E+02  0.53286017428E+02  0.00000000000E+00 0.  1.
<mgrwt>
<rscale>  0 0.79411224E+02</rscale>
<asrwt>0</asrwt>
<pdfrwt beam="1">  1        1 0.14708214E-02 0.79411224E+02</pdfrwt>
<pdfrwt beam="2">  1       -2 0.25369805E-01 0.79411224E+02</pdfrwt>
<totfact> 0.93272968E+04</totfact>
</mgrwt>
</event>
<event>
 8    1  0.7756875E-018  0.8417650E+02  0.7818608E-02  0.1317600E+00
          1   -1    0    0  501    0  0.00000000000E+00  0.00000000000E+00  0.76924515045E+02  0.76924515210E+02  0.50400000000E-02 0. -1.
         -2   -1    0    0    0  501 -0.00000000000E+00 -0.00000000000E+00 -0.23028039186E+02  0.23028039328E+02  0.25500000000E-02 0.  1.
        -24    2    1    2    0    0 -0.71054273576E-14  0.00000000000E+00  0.53896475859E+02  0.99952554538E+02  0.84176499385E+02 0.  0.
         66    2    3    3    0    0  0.42039123068E+02 -0.76950829035E+00  0.25491900497E+02  0.49210943636E+02  0.19999928162E+01 0.  0.
         13    1    3    3    0    0 -0.42039123068E+02  0.76950829035E+00  0.28404575362E+02  0.50741610902E+02  0.10566000000E+00 0. -1.
         13    1    4    4    0    0  0.14389062349E+02 -0.26191991552E+00  0.79956093454E+01  0.16463737430E+02  0.10566000000E+00 0. -1.
        -13    1    4    4    0    0  0.19857279434E+02 -0.80252932096E+00  0.12182041952E+02  0.23310274773E+02  0.10566000000E+00 0.  1.
        -14    1    4    4    0    0  0.77927812845E+01  0.29494094612E+00  0.53142491997E+01  0.94369314327E+01  0.00000000000E+00 0.  1.
<mgrwt>
<rscale>  0 0.84176499E+02</rscale>
<asrwt>0</asrwt>
<pdfrwt beam="1">  1        1 0.11834541E-01 0.84176499E+02</pdfrwt>
<pdfrwt beam="2">  1       -2 0.35427753E-02 0.84176499E+02</pdfrwt>
<totfact> 0.12249089E+05</totfact>
</mgrwt>
</event>
<event>
 8    1  0.7756875E-018  0.8009158E+02  0.7818608E-02  0.1328792E+00
          1   -1    0    0  501    0  0.00000000000E+00  0.00000000000E+00  0.20341869119E+03  0.20341869126E+03  0.50400000000E-02 0. -1.
         -2   -1    0    0    0  501 -0.00000000000E+00 -0.00000000000E+00 -0.78835684636E+01  0.78835688760E+01  0.25500000000E-02 0.  1.
        -24    2    1    2    0    0  0.00000000000E+00  0.00000000000E+00  0.19553512273E+03  0.21130226013E+03  0.80091578308E+02 0.  0.
         66    2    3    3    0    0 -0.32167500432E+02  0.89949343998E+01  0.39666679358E+02  0.51895109313E+02  0.19999976186E+01 0.  0.
         13    1    3    3    0    0  0.32167500432E+02 -0.89949343998E+01  0.15586844337E+03  0.15940715082E+03  0.10566000000E+00 0. -1.
         13    1    4    4    0    0 -0.18115742746E+02  0.59441162064E+01  0.22055003599E+02  0.29153850526E+02  0.10566000000E+00 0. -1.
        -13    1    4    4    0    0 -0.65819832537E+01  0.12452763847E+01  0.79787995008E+01  0.10418523040E+02  0.10566000000E+00 0.  1.
         14    1    4    4    0    0 -0.74697744316E+01  0.18055418087E+01  0.96328762588E+01  0.12322735747E+02  0.00000000000E+00 0. -1.
<mgrwt>
<rscale>  0 0.80091578E+02</rscale>
<asrwt>0</asrwt>
<pdfrwt beam="1">  1        1 0.31295183E-01 0.80091578E+02</pdfrwt>
<pdfrwt beam="2">  1       -2 0.12128567E-02 0.80091578E+02</pdfrwt>
<totfact> 0.16678173E+05</totfact>
</mgrwt>
</event>
<event>
 8    1  0.7756875E-018  0.7879612E+02  0.7818608E-02  0.1332503E+00
         -2   -1    0    0    0  501 -0.00000000000E+00  0.00000000000E+00  0.37361057669E+02  0.37361057756E+02  0.25500000000E-02 0.  1.
          1   -1    0    0  501    0  0.00000000000E+00 -0.00000000000E+00 -0.41546119506E+02  0.41546119812E+02  0.50400000000E-02 0. -1.
        -24    2    1    2    0    0  0.17763568394E-14 -0.44408920985E-15 -0.41850618375E+01  0.78907177567E+02  0.78796116205E+02 0.  0.
         66    2    3    3    0    0  0.10128769213E+02 -0.39801230302E+01  0.35798177173E+02  0.37469225025E+02  0.19999974931E+01 0.  0.
         13    1    3    3    0    0 -0.10128769213E+02  0.39801230302E+01 -0.39983239010E+02  0.41437952542E+02  0.10566000000E+00 0. -1.
         13    1    4    4    0    0  0.14184463081E+01 -0.70640614147E+00  0.33293661219E+01  0.36887453659E+01  0.10566000000E+00 0. -1.
        -13    1    4    4    0    0  0.68443141165E+01 -0.23312334255E+01  0.25112296210E+02  0.26132697335E+02  0.10566000000E+00 0.  1.
         14    1    4    4    0    0  0.18660087887E+01 -0.94248346318E+00  0.73565148409E+01  0.76477823244E+01  0.00000000000E+00 0. -1.
<mgrwt>
<rscale>  0 0.78796116E+02</rscale>
<asrwt>0</asrwt>
<pdfrwt beam="1">  1        1 0.63917107E-02 0.78796116E+02</pdfrwt>
<pdfrwt beam="2">  1       -2 0.57478550E-02 0.78796116E+02</pdfrwt>
<totfact> 0.13331089E+05</totfact>
</mgrwt>
</event>
<event>
 8    1  0.7756875E-018  0.7640963E+02  0.7818608E-02  0.1339561E+00
         -2   -1    0    0    0  501 -0.00000000000E+00  0.00000000000E+00  0.14925706983E+02  0.14925707201E+02  0.25500000000E-02 0.  1.
          1   -1    0    0  501    0  0.00000000000E+00 -0.00000000000E+00 -0.97791545623E+02  0.97791545753E+02  0.50400000000E-02 0. -1.
        -24    2    1    2    0    0  0.35527136788E-14  0.00000000000E+00 -0.82865838640E+02  0.11271725295E+03  0.76409632246E+02 0.  0.
         66    2    3    3    0    0 -0.29807400525E+02 -0.99082798010E+01 -0.94480520854E+01  0.32862148663E+02  0.19999979712E+01 0.  0.
         13    1    3    3    0    0  0.29807400525E+02  0.99082798010E+01 -0.73417786555E+02  0.79855104291E+02  0.10566000000E+00 0. -1.
         13    1    4    4    0    0 -0.15206486907E+02 -0.42175756394E+01 -0.49830372686E+01  0.16548927844E+02  0.10566000000E+00 0. -1.
        -13    1    4    4    0    0 -0.79467552305E+01 -0.26982640060E+01 -0.24892086159E+01  0.87543629642E+01  0.10566000000E+00 0.  1.
        -14    1    4    4    0    0 -0.66541583869E+01 -0.29924401556E+01 -0.19758062010E+01  0.75588578547E+01  0.00000000000E+00 0.  1.
<mgrwt>
<rscale>  0 0.76409632E+02</rscale>
<asrwt>0</asrwt>
<pdfrwt beam="1">  1        1 0.15044853E-01 0.76409632E+02</pdfrwt>
<pdfrwt beam="2">  1       -2 0.22962627E-02 0.76409632E+02</pdfrwt>
<totfact> 0.16574272E+05</totfact>
</mgrwt>
</event>
<event>
 8    1  0.7756875E-018  0.7920052E+02  0.7818608E-02  0.1331336E+00
         -2   -1    0    0    0  501 -0.00000000000E+00  0.00000000000E+00  0.34728724174E+03  0.34728724175E+03  0.25500000000E-02 0.  1.
          1   -1    0    0  501    0  0.00000000000E+00 -0.00000000000E+00 -0.45155133038E+01  0.45155161165E+01  0.50400000000E-02 0. -1.
        -24    2    1    2    0    0  0.00000000000E+00  0.35527136788E-14  0.34277172843E+03  0.35180275786E+03  0.79200521632E+02 0.  0.
         66    2    3    3    0    0 -0.29451930792E+01  0.18938172345E+02  0.32529370646E+03  0.32586396548E+03  0.20000009702E+01 0.  0.
         13    1    3    3    0    0  0.29451930792E+01 -0.18938172345E+02  0.17478021978E+02  0.25938792384E+02  0.10566000000E+00 0. -1.
         13    1    4    4    0    0 -0.71935915552E+00  0.27625599690E+01  0.42143469375E+02  0.42240175073E+02  0.10566000000E+00 0. -1.
        -13    1    4    4    0    0 -0.17839523015E+01  0.14635937740E+02  0.24925941920E+03  0.24969513888E+03  0.10566000000E+00 0.  1.
         14    1    4    4    0    0 -0.44188162227E+00  0.15396746366E+01  0.33890817884E+02  0.33928651523E+02  0.00000000000E+00 0. -1.
<mgrwt>
<rscale>  0 0.79200522E+02</rscale>
<asrwt>0</asrwt>
<pdfrwt beam="1">  1        1 0.69469474E-03 0.79200522E+02</pdfrwt>
<pdfrwt beam="2">  1       -2 0.53428794E-01 0.79200522E+02</pdfrwt>
<totfact> 0.66316089E+04</totfact>
</mgrwt>
</event>
<event>
 8    1  0.7756875E-018  0.7887467E+02  0.7818608E-02  0.1332276E+00
         -2   -1    0    0    0  501 -0.00000000000E+00  0.00000000000E+00  0.58205295232E+01  0.58205300818E+01  0.25500000000E-02 0.  1.
          1   -1    0    0  501    0  0.00000000000E+00 -0.00000000000E+00 -0.26720990788E+03  0.26720990793E+03  0.50400000000E-02 0. -1.
        -24    2    1    2    0    0  0.71054273576E-14  0.00000000000E+00 -0.26138937836E+03  0.27303043801E+03  0.78874666160E+02 0.  0.
         66    2    3    3    0    0 -0.33075187382E+02  0.21304998873E+02 -0.13884276458E+03  0.14432319381E+03  0.19999994572E+01 0.  0.
         13    1    3    3    0    0  0.33075187382E+02 -0.21304998873E+02 -0.12254661378E+03  0.12870724420E+03  0.10566000000E+00 0. -1.
         13    1    4    4    0    0 -0.65233961885E+01  0.35900193089E+01 -0.27322297463E+02  0.28318934287E+02  0.10566000000E+00 0. -1.
        -13    1    4    4    0    0 -0.20537107255E+02  0.14204372727E+02 -0.88035238704E+02  0.91508203985E+02  0.10566000000E+00 0.  1.
         14    1    4    4    0    0 -0.60146839390E+01  0.35106068375E+01 -0.23485228410E+02  0.24496055534E+02  0.00000000000E+00 0. -1.
<mgrwt>
<rscale>  0 0.78874666E+02</rscale>
<asrwt>0</asrwt>
<pdfrwt beam="1">  1        1 0.41109207E-01 0.78874666E+02</pdfrwt>
<pdfrwt beam="2">  1       -2 0.89546633E-03 0.78874666E+02</pdfrwt>
<totfact> 0.18315122E+05</totfact>
</mgrwt>
</event>
<event>
 8    1  0.7756875E-018  0.7767511E+02  0.7818608E-02  0.1335782E+00
         -2   -1    0    0    0  501 -0.00000000000E+00  0.00000000000E+00  0.25833604314E+02  0.25833604440E+02  0.25500000000E-02 0.  1.
          1   -1    0    0  501    0  0.00000000000E+00 -0.00000000000E+00 -0.58387343518E+02  0.58387343736E+02  0.50400000000E-02 0. -1.
        -24    2    1    2    0    0  0.44408920985E-15  0.71054273576E-14 -0.32553739204E+02  0.84220948176E+02  0.77675106536E+02 0.  0.
         66    2    3    3    0    0  0.34094800916E+01  0.38335869670E+02 -0.10856827966E+02  0.40039158045E+02  0.20000014076E+01 0.  0.
         13    1    3    3    0    0 -0.34094800916E+01 -0.38335869670E+02 -0.21696911238E+02  0.44181790131E+02  0.10566000000E+00 0. -1.
         13    1    4    4    0    0  0.63945469490E+00  0.31960172544E+01 -0.86516763269E+00  0.33738861370E+01  0.10566000000E+00 0. -1.
        -13    1    4    4    0    0  0.14018411071E+01  0.25536175027E+02 -0.70647221124E+01  0.26532675253E+02  0.10566000000E+00 0.  1.
        -14    1    4    4    0    0  0.13681842896E+01  0.96036773884E+01 -0.29269382206E+01  0.10132596655E+02  0.00000000000E+00 0.  1.
<mgrwt>
<rscale>  0 0.77675107E+02</rscale>
<asrwt>0</asrwt>
<pdfrwt beam="1">  1        1 0.89826683E-02 0.77675107E+02</pdfrwt>
<pdfrwt beam="2">  1       -2 0.39744007E-02 0.77675107E+02</pdfrwt>
<totfact> 0.14621215E+05</totfact>
</mgrwt>
</event>
<event>
 8    1  0.7756875E-018  0.7960082E+02  0.7818608E-02  0.1330188E+00
          1   -1    0    0  501    0  0.00000000000E+00  0.00000000000E+00  0.14269100566E+02  0.14269101456E+02  0.50400000000E-02 0. -1.
         -2   -1    0    0    0  501 -0.00000000000E+00 -0.00000000000E+00 -0.11101417733E+03  0.11101417736E+03  0.25500000000E-02 0.  1.
        -24    2    1    2    0    0  0.00000000000E+00  0.17763568394E-14 -0.96745076763E+02  0.12528327881E+03  0.79600817035E+02 0.  0.
         66    2    3    3    0    0  0.80081422026E+01  0.91052118512E+01 -0.10802497474E+03  0.10872180283E+03  0.20000044723E+01 0.  0.
         13    1    3    3    0    0 -0.80081422026E+01 -0.91052118512E+01  0.11279897979E+02  0.16561475986E+02  0.10566000000E+00 0. -1.
         13    1    4    4    0    0  0.32044945798E+00  0.45785120826E+00 -0.68826249336E+01  0.69060846792E+01  0.10566000000E+00 0.  1.
        -13    1    4    4    0    0  0.39201783317E+01  0.31717140280E+01 -0.43895312783E+02  0.44184128557E+02  0.10566000000E+00 0.  1.
        -14    1    4    4    0    0  0.37675144129E+01  0.54756466150E+01 -0.57247037025E+02  0.57631589591E+02  0.00000000000E+00 0.  1.
<mgrwt>
<rscale>  0 0.79600817E+02</rscale>
<asrwt>0</asrwt>
<pdfrwt beam="1">  1        1 0.21952464E-02 0.79600817E+02</pdfrwt>
<pdfrwt beam="2">  1       -2 0.17079104E-01 0.79600817E+02</pdfrwt>
<totfact> 0.10465025E+05</totfact>
</mgrwt>
</event>
<event>
 8    1  0.9115050E-018  0.8693452E+02  0.7818608E-02  0.1310450E+00
         -2   -1    0    0    0  501 -0.00000000000E+00  0.00000000000E+00  0.23992833938E+02  0.23992834074E+02  0.25500000000E-02 0.  1.
          1   -1    0    0  501    0  0.00000000000E+00 -0.00000000000E+00 -0.78748631253E+02  0.78748631415E+02  0.50400000000E-02 0. -1.
        -24    2    1    2    0    0  0.00000000000E+00  0.00000000000E+00 -0.54755797315E+02  0.10274146549E+03  0.86934523586E+02 0.  0.
         66    2    3    3    0    0 -0.19901279035E+02 -0.68046497705E+01  0.17533103382E+02  0.27454942832E+02  0.20000015012E+01 0.  0.
         13    1    3    3    0    0  0.19901279035E+02  0.68046497705E+01 -0.72288900697E+02  0.75286522656E+02  0.10566000000E+00 0. -1.
         13    1    4    4    0    0 -0.30408645476E+01 -0.14723900062E+01  0.29462926036E+01  0.44840376524E+01  0.10566000000E+00 0. -1.
        -13    1    4    4    0    0 -0.10557324647E+02 -0.37981533766E+01  0.85133732858E+01  0.14084451054E+02  0.10566000000E+00 0.  1.
         14    1    4    4    0    0 -0.63030898404E+01 -0.15341063877E+01  0.60734374923E+01  0.88864541251E+01  0.00000000000E+00 0. -1.
<mgrwt>
<rscale>  0 0.86934524E+02</rscale>
<asrwt>0</asrwt>
<pdfrwt beam="1">  1        1 0.12115174E-01 0.86934524E+02</pdfrwt>
<pdfrwt beam="2">  1       -2 0.36912052E-02 0.86934524E+02</pdfrwt>
<totfact> 0.11252714E+05</totfact>
</mgrwt>
</event>
<event>
 8    1  0.7756875E-018  0.7722407E+02  0.7818608E-02  0.1337119E+00
          1   -1    0    0  501    0  0.00000000000E+00  0.00000000000E+00  0.25847434611E+03  0.25847434616E+03  0.50400000000E-02 0. -1.
         -2   -1    0    0    0  501 -0.00000000000E+00 -0.00000000000E+00 -0.57680352651E+01  0.57680358288E+01  0.25500000000E-02 0.  1.
        -24    2    1    2    0    0  0.00000000000E+00  0.00000000000E+00  0.25270631085E+03  0.26424238199E+03  0.77224069420E+02 0.  0.
         66    2    3    3    0    0 -0.33185766522E+02  0.16946249618E+02  0.16072601747E+03  0.16500097929E+03  0.19999999260E+01 0.  0.
         13    1    3    3    0    0  0.33185766522E+02 -0.16946249618E+02  0.91980293377E+02  0.99241402698E+02  0.10566000000E+00 0. -1.
         13    1    4    4    0    0 -0.10760350917E+02  0.62152395358E+01  0.51174448230E+02  0.52661652747E+02  0.10566000000E+00 0. -1.
        -13    1    4    4    0    0 -0.80295652103E+01  0.40816998469E+01  0.38522668426E+02  0.39561867218E+02  0.10566000000E+00 0.  1.
         14    1    4    4    0    0 -0.14395850395E+02  0.66493102351E+01  0.71028900812E+02  0.72777459325E+02  0.00000000000E+00 0. -1.
<mgrwt>
<rscale>  0 0.77224069E+02</rscale>
<asrwt>0</asrwt>
<pdfrwt beam="1">  1        1 0.39765287E-01 0.77224069E+02</pdfrwt>
<pdfrwt beam="2">  1       -2 0.88739002E-03 0.77224069E+02</pdfrwt>
<totfact> 0.19239935E+05</totfact>
</mgrwt>
</event>
<event>
 8    1  0.7756875E-018  0.7918264E+02  0.7818608E-02  0.1331387E+00
          1   -1    0    0  501    0  0.00000000000E+00  0.00000000000E+00  0.85185103265E+01  0.85185118175E+01  0.50400000000E-02 0. -1.
         -2   -1    0    0    0  501 -0.00000000000E+00 -0.00000000000E+00 -0.18400780526E+03  0.18400780527E+03  0.25500000000E-02 0.  1.
        -24    2    1    2    0    0  0.00000000000E+00  0.17763568394E-14 -0.17548929493E+03  0.19252631709E+03  0.79182637856E+02 0.  0.
         66    2    3    3    0    0  0.34006219294E+02  0.13066312789E+02 -0.12533550546E+03  0.13053788879E+03  0.20000003715E+01 0.  0.
         13    1    3    3    0    0 -0.34006219294E+02 -0.13066312789E+02 -0.50153789475E+02  0.61988428301E+02  0.10566000000E+00 0. -1.
         13    1    4    4    0    0  0.11986958061E+02  0.49575179010E+01 -0.41531174172E+02  0.43509926907E+02  0.10566000000E+00 0. -1.
        -13    1    4    4    0    0  0.89408966882E+01  0.33782779409E+01 -0.33747668888E+02  0.35075186597E+02  0.10566000000E+00 0.  1.
         14    1    4    4    0    0  0.13078364545E+02  0.47305169476E+01 -0.50056662396E+02  0.51952775286E+02  0.00000000000E+00 0. -1.
<mgrwt>
<rscale>  0 0.79182638E+02</rscale>
<asrwt>0</asrwt>
<pdfrwt beam="1">  1        1 0.13105403E-02 0.79182638E+02</pdfrwt>
<pdfrwt beam="2">  1       -2 0.28308890E-01 0.79182638E+02</pdfrwt>
<totfact> 0.90271065E+04</totfact>
</mgrwt>
</event>
<event>
 8    1  0.7756875E-018  0.7707510E+02  0.7818608E-02  0.1337563E+00
         -2   -1    0    0    0  501 -0.00000000000E+00  0.00000000000E+00  0.63648478465E+01  0.63648483573E+01  0.25500000000E-02 0.  1.
          1   -1    0    0  501    0  0.00000000000E+00 -0.00000000000E+00 -0.23333516247E+03  0.23333516253E+03  0.50400000000E-02 0. -1.
        -24    2    1    2    0    0  0.00000000000E+00  0.00000000000E+00 -0.22697031463E+03  0.23970001088E+03  0.77075102961E+02 0.  0.
         66    2    3    3    0    0 -0.37856831829E+02 -0.16069136097E+01 -0.13497629141E+03  0.14020813504E+03  0.20000002594E+01 0.  0.
         13    1    3    3    0    0  0.37856831829E+02  0.16069136097E+01 -0.91994023213E+02  0.99491875842E+02  0.10566000000E+00 0. -1.
         13    1    4    4    0    0 -0.14306084222E+02 -0.13761581550E+01 -0.49630941284E+02  0.51670101159E+02  0.10566000000E+00 0. -1.
        -13    1    4    4    0    0 -0.15997677088E+02 -0.38156632150E+00 -0.57156140331E+02  0.59354079949E+02  0.10566000000E+00 0.  1.
        -14    1    4    4    0    0 -0.75530705191E+01  0.15081086680E+00 -0.28189209797E+02  0.29183953933E+02  0.00000000000E+00 0.  1.
<mgrwt>
<rscale>  0 0.77075103E+02</rscale>
<asrwt>0</asrwt>
<pdfrwt beam="1">  1        1 0.35897711E-01 0.77075103E+02</pdfrwt>
<pdfrwt beam="2">  1       -2 0.97920758E-03 0.77075103E+02</pdfrwt>
<totfact> 0.18959382E+05</totfact>
</mgrwt>
</event>
<event>
 8    1  0.7756875E-018  0.8024456E+02  0.7818608E-02  0.1328359E+00
         -2   -1    0    0    0  501 -0.00000000000E+00  0.00000000000E+00  0.40883416563E+03  0.40883416563E+03  0.25500000000E-02 0.  1.
          1   -1    0    0  501    0  0.00000000000E+00 -0.00000000000E+00 -0.39375297022E+01  0.39375329277E+01  0.50400000000E-02 0. -1.
        -24    2    1    2    0    0  0.00000000000E+00  0.00000000000E+00  0.40489663592E+03  0.41277169856E+03  0.80244559635E+02 0.  0.
         66    2    3    3    0    0  0.14818406255E+02 -0.34705108306E+02  0.27230425448E+03  0.27491387148E+03  0.20000045288E+01 0.  0.
         13    1    3    3    0    0 -0.14818406255E+02  0.34705108306E+02  0.13259238144E+03  0.13785782708E+03  0.10566000000E+00 0. -1.
         13    1    4    4    0    0  0.12928306965E+01 -0.19505478718E+01  0.17017174201E+02  0.17177643320E+02  0.10566000000E+00 0. -1.
        -13    1    4    4    0    0  0.38119450156E+01 -0.93606554740E+01  0.70262034936E+02  0.70985333085E+02  0.10566000000E+00 0.  1.
         14    1    4    4    0    0  0.97136305427E+01 -0.23393904961E+02  0.18502504534E+03  0.18675089508E+03  0.00000000000E+00 0. -1.
<mgrwt>
<rscale>  0 0.80244560E+02</rscale>
<asrwt>0</asrwt>
<pdfrwt beam="1">  1        1 0.60577395E-03 0.80244560E+02</pdfrwt>
<pdfrwt beam="2">  1       -2 0.62897574E-01 0.80244560E+02</pdfrwt>
<totfact> 0.57780260E+04</totfact>
</mgrwt>
</event>
<event>
 8    1  0.7756875E-018  0.8018292E+02  0.7818608E-02  0.1328533E+00
         -2   -1    0    0    0  501 -0.00000000000E+00  0.00000000000E+00  0.26668387397E+02  0.26668387519E+02  0.25500000000E-02 0.  1.
          1   -1    0    0  501    0  0.00000000000E+00 -0.00000000000E+00 -0.60270808054E+02  0.60270808265E+02  0.50400000000E-02 0. -1.
        -24    2    1    2    0    0 -0.17763568394E-14 -0.71054273576E-14 -0.33602420658E+02  0.86939195784E+02  0.80182922680E+02 0.  0.
         66    2    3    3    0    0 -0.51657769871E+01 -0.32245619037E+02  0.83575850246E+01  0.33768541849E+02  0.19999980541E+01 0.  0.
         13    1    3    3    0    0  0.51657769871E+01  0.32245619037E+02 -0.41960005682E+02  0.53170653935E+02  0.10566000000E+00 0. -1.
         13    1    4    4    0    0 -0.15436634747E+01 -0.94873048834E+01  0.21129291836E+01  0.98421280546E+01  0.10566000000E+00 0. -1.
        -13    1    4    4    0    0 -0.15439414877E+01 -0.11446983711E+02  0.23797359565E+01  0.11793705892E+02  0.10566000000E+00 0.  1.
        -14    1    4    4    0    0 -0.20781720247E+01 -0.11311330443E+02  0.38649198845E+01  0.12132707903E+02  0.00000000000E+00 0.  1.
<mgrwt>
<rscale>  0 0.80182923E+02</rscale>
<asrwt>0</asrwt>
<pdfrwt beam="1">  1        1 0.92724320E-02 0.80182923E+02</pdfrwt>
<pdfrwt beam="2">  1       -2 0.41028289E-02 0.80182923E+02</pdfrwt>
<totfact> 0.13462991E+05</totfact>
</mgrwt>
</event>
<event>
 8    1  0.7756875E-018  0.8035055E+02  0.7818608E-02  0.1328060E+00
         -2   -1    0    0    0  501 -0.00000000000E+00  0.00000000000E+00  0.98453240848E+01  0.98453244150E+01  0.25500000000E-02 0.  1.
          1   -1    0    0  501    0  0.00000000000E+00 -0.00000000000E+00 -0.16394104876E+03  0.16394104884E+03  0.50400000000E-02 0. -1.
        -24    2    1    2    0    0  0.00000000000E+00 -0.71054273576E-14 -0.15409572467E+03  0.17378637325E+03  0.80350551741E+02 0.  0.
         66    2    3    3    0    0  0.21673532850E+02  0.33711311063E+02 -0.82328182890E+02  0.91586703316E+02  0.20000016184E+01 0.  0.
         13    1    3    3    0    0 -0.21673532850E+02 -0.33711311063E+02 -0.71767541785E+02  0.82199669936E+02  0.10566000000E+00 0. -1.
         13    1    4    4    0    0  0.57356575322E+01  0.94929334314E+01 -0.21109406402E+02  0.23846000820E+02  0.10566000000E+00 0. -1.
        -13    1    4    4    0    0  0.80837808158E+01  0.11727152932E+02 -0.29662999698E+02  0.32905597446E+02  0.10566000000E+00 0.  1.
        -14    1    4    4    0    0  0.78540945025E+01  0.12491224699E+02 -0.31555776790E+02  0.34835105049E+02  0.00000000000E+00 0.  1.
<mgrwt>
<rscale>  0 0.80350552E+02</rscale>
<asrwt>0</asrwt>
<pdfrwt beam="1">  1        1 0.25221698E-01 0.80350552E+02</pdfrwt>
<pdfrwt beam="2">  1       -2 0.15146654E-02 0.80350552E+02</pdfrwt>
<totfact> 0.15865671E+05</totfact>
</mgrwt>
</event>
<event>
 8    1  0.7756875E-018  0.7896742E+02  0.7818608E-02  0.1332008E+00
          1   -1    0    0  501    0  0.00000000000E+00  0.00000000000E+00  0.59939397373E+02  0.59939397584E+02  0.50400000000E-02 0. -1.
         -2   -1    0    0    0  501 -0.00000000000E+00 -0.00000000000E+00 -0.26008992282E+02  0.26008992407E+02  0.25500000000E-02 0.  1.
        -24    2    1    2    0    0  0.71054273576E-14  0.00000000000E+00  0.33930405090E+02  0.85948389992E+02  0.78967419564E+02 0.  0.
         66    2    3    3    0    0 -0.37371641804E+02  0.82321453201E+01  0.65052666747E+01  0.38868062796E+02  0.19999958205E+01 0.  0.
         13    1    3    3    0    0  0.37371641804E+02 -0.82321453201E+01  0.27425138416E+02  0.47080327196E+02  0.10566000000E+00 0. -1.
         13    1    4    4    0    0 -0.79055498714E+01  0.13501520258E+01  0.16791911918E+01  0.81946004390E+01  0.10566000000E+00 0. -1.
        -13    1    4    4    0    0 -0.35706421463E+01  0.10714479164E+01  0.98751470351E+00  0.38579573999E+01  0.10566000000E+00 0.  1.
        -14    1    4    4    0    0 -0.25895449786E+02  0.58105453780E+01  0.38385607794E+01  0.26815504957E+02  0.00000000000E+00 0.  1.
<mgrwt>
<rscale>  0 0.78967420E+02</rscale>
<asrwt>0</asrwt>
<pdfrwt beam="1">  1        1 0.92214456E-02 0.78967420E+02</pdfrwt>
<pdfrwt beam="2">  1       -2 0.40013835E-02 0.78967420E+02</pdfrwt>
<totfact> 0.14029334E+05</totfact>
</mgrwt>
</event>
<event>
 8    1  0.7756875E-018  0.7743650E+02  0.7818608E-02  0.1336488E+00
          1   -1    0    0  501    0  0.00000000000E+00  0.00000000000E+00  0.20901231430E+02  0.20901232037E+02  0.50400000000E-02 0. -1.
         -2   -1    0    0    0  501 -0.00000000000E+00 -0.00000000000E+00 -0.71723176792E+02  0.71723176838E+02  0.25500000000E-02 0.  1.
        -24    2    1    2    0    0  0.35527136788E-14  0.00000000000E+00 -0.50821945363E+02  0.92624408875E+02  0.77436496492E+02 0.  0.
         66    2    3    3    0    0 -0.31194247980E+02  0.37122053597E+01 -0.52446635954E+02  0.61167893505E+02  0.19999993359E+01 0.  0.
         13    1    3    3    0    0  0.31194247980E+02 -0.37122053597E+01  0.16246905913E+01  0.31456515370E+02  0.10566000000E+00 0. -1.
         13    1    4    4    0    0 -0.47772138030E+01  0.75034218397E-01 -0.83401454145E+01  0.96123145717E+01  0.10566000000E+00 0. -1.
        -13    1    4    4    0    0 -0.22602645521E+02  0.26772423923E+01 -0.37526397919E+02  0.43889508043E+02  0.10566000000E+00 0.  1.
        -14    1    4    4    0    0 -0.38143886551E+01  0.95992874900E+00 -0.65800926203E+01  0.76660708910E+01  0.00000000000E+00 0.  1.
<mgrwt>
<rscale>  0 0.77436496E+02</rscale>
<asrwt>0</asrwt>
<pdfrwt beam="1">  1        1 0.32155742E-02 0.77436496E+02</pdfrwt>
<pdfrwt beam="2">  1       -2 0.11034335E-01 0.77436496E+02</pdfrwt>
<totfact> 0.12421204E+05</totfact>
</mgrwt>
</event>
<event>
 8    1  0.7756875E-018  0.8096717E+02  0.7818608E-02  0.1326329E+00
         -2   -1    0    0    0  501 -0.00000000000E+00  0.00000000000E+00  0.11499348218E+02  0.11499348501E+02  0.25500000000E-02 0.  1.
          1   -1    0    0  501    0  0.00000000000E+00 -0.00000000000E+00 -0.14252290163E+03  0.14252290172E+03  0.50400000000E-02 0. -1.
        -24    2    1    2    0    0  0.00000000000E+00  0.00000000000E+00 -0.13102355341E+03  0.15402225022E+03  0.80967166274E+02 0.  0.
         66    2    3    3    0    0 -0.95695278222E+01  0.25600418992E+02 -0.88024914299E+01  0.28782653961E+02  0.19999995823E+01 0.  0.
         13    1    3    3    0    0  0.95695278222E+01 -0.25600418992E+02 -0.12222106198E+03  0.12523959626E+03  0.10566000000E+00 0. -1.
         13    1    4    4    0    0 -0.22153731808E+01  0.59799936412E+01 -0.29338818607E+01  0.70204721413E+01  0.10566000000E+00 0. -1.
        -13    1    4    4    0    0 -0.69602007576E+01  0.18480419923E+02 -0.54629968590E+01  0.20489651384E+02  0.10566000000E+00 0.  1.
         14    1    4    4    0    0 -0.39395388380E+00  0.11400054275E+01 -0.40561271019E+00  0.12725304350E+01  0.00000000000E+00 0. -1.
<mgrwt>
<rscale>  0 0.80967166E+02</rscale>
<asrwt>0</asrwt>
<pdfrwt beam="1">  1        1 0.21926599E-01 0.80967166E+02</pdfrwt>
<pdfrwt beam="2">  1       -2 0.17691306E-02 0.80967166E+02</pdfrwt>
<totfact> 0.15145735E+05</totfact>
</mgrwt>
</event>
<event>
 8    1  0.7756875E-018  0.7701173E+02  0.7818608E-02  0.1337752E+00
         -2   -1    0    0    0  501 -0.00000000000E+00  0.00000000000E+00  0.14186564231E+03  0.14186564233E+03  0.25500000000E-02 0.  1.
          1   -1    0    0  501    0  0.00000000000E+00 -0.00000000000E+00 -0.10451449876E+02  0.10451451091E+02  0.50400000000E-02 0. -1.
        -24    2    1    2    0    0  0.00000000000E+00  0.00000000000E+00  0.13141419243E+03  0.15231709342E+03  0.77011732717E+02 0.  0.
         66    2    3    3    0    0 -0.19906961318E+02  0.31140495337E+02  0.86931691418E+02  0.94483525149E+02  0.19999982777E+01 0.  0.
         13    1    3    3    0    0  0.19906961318E+02 -0.31140495337E+02  0.44482501014E+02  0.57833568274E+02  0.10566000000E+00 0. -1.
         13    1    4    4    0    0 -0.11813981786E+01  0.26755220922E+01  0.64172947606E+01  0.70531522175E+01  0.10566000000E+00 0. -1.
        -13    1    4    4    0    0 -0.15377927147E+02  0.23651659178E+02  0.66018879679E+02  0.71794047548E+02  0.10566000000E+00 0.  1.
         14    1    4    4    0    0 -0.33476359924E+01  0.48133140662E+01  0.14495516978E+02  0.15636325383E+02  0.00000000000E+00 0. -1.
<mgrwt>
<rscale>  0 0.77011733E+02</rscale>
<asrwt>0</asrwt>
<pdfrwt beam="1">  1        1 0.16079156E-02 0.77011733E+02</pdfrwt>
<pdfrwt beam="2">  1       -2 0.21825482E-01 0.77011733E+02</pdfrwt>
<totfact> 0.10611131E+05</totfact>
</mgrwt>
</event>
<event>
 8    1  0.7756875E-018  0.8306699E+02  0.7818608E-02  0.1320566E+00
         -2   -1    0    0    0  501 -0.00000000000E+00  0.00000000000E+00  0.38521362989E+02  0.38521363073E+02  0.25500000000E-02 0.  1.
          1   -1    0    0  501    0  0.00000000000E+00 -0.00000000000E+00 -0.44781155932E+02  0.44781156216E+02  0.50400000000E-02 0. -1.
        -24    2    1    2    0    0  0.00000000000E+00 -0.17763568394E-14 -0.62597929432E+01  0.83302519289E+02  0.83066989305E+02 0.  0.
         66    2    3    3    0    0 -0.21608907538E+02  0.11427675404E+02  0.30511734115E+02  0.39147191000E+02  0.19999985864E+01 0.  0.
         13    1    3    3    0    0  0.21608907538E+02 -0.11427675404E+02 -0.36771527058E+02  0.44155328289E+02  0.10566000000E+00 0. -1.
         13    1    4    4    0    0 -0.49218121248E+01  0.31156709254E+01  0.77115395431E+01  0.96649183166E+01  0.10566000000E+00 0. -1.
        -13    1    4    4    0    0 -0.77480005448E+01  0.43649885390E+01  0.10092420345E+02  0.13451867894E+02  0.10566000000E+00 0.  1.
         14    1    4    4    0    0 -0.89390948682E+01  0.39470159392E+01  0.12707774227E+02  0.16030404789E+02  0.00000000000E+00 0. -1.
<mgrwt>
<rscale>  0 0.83066989E+02</rscale>
<asrwt>0</asrwt>
<pdfrwt beam="1">  1        1 0.68894087E-02 0.83066989E+02</pdfrwt>
<pdfrwt beam="2">  1       -2 0.59263635E-02 0.83066989E+02</pdfrwt>
<totfact> 0.11633638E+05</totfact>
</mgrwt>
</event>
<event>
 8    1  0.1194681E-017  0.8498005E+02  0.7818608E-02  0.1315485E+00
          1   -1    0    0  501    0  0.00000000000E+00  0.00000000000E+00  0.57076128328E+02  0.57076128550E+02  0.50400000000E-02 0. -1.
         -2   -1    0    0    0  501 -0.00000000000E+00 -0.00000000000E+00 -0.31631475749E+02  0.31631475852E+02  0.25500000000E-02 0.  1.
        -24    2    1    2    0    0  0.00000000000E+00 -0.17763568394E-14  0.25444652579E+02  0.88707604402E+02  0.84980049035E+02 0.  0.
         66    2    3    3    0    0  0.15541048243E+02 -0.12397906833E+02 -0.26442184934E+02  0.33142441346E+02  0.19999999783E+01 0.  0.
         13    1    3    3    0    0 -0.15541048243E+02  0.12397906833E+02  0.51886837513E+02  0.55565163056E+02  0.10566000000E+00 0. -1.
         13    1    4    4    0    0  0.22330410704E+01 -0.23305324208E+01 -0.42627665243E+01  0.53479151323E+01  0.10566000000E+00 0. -1.
        -13    1    4    4    0    0  0.68297476328E+01 -0.60715397204E+01 -0.12250322553E+02  0.15283671483E+02  0.10566000000E+00 0.  1.
         14    1    4    4    0    0  0.64782595403E+01 -0.39958346921E+01 -0.99290958565E+01  0.12510854730E+02  0.00000000000E+00 0. -1.
<mgrwt>
<rscale>  0 0.84980049E+02</rscale>
<asrwt>0</asrwt>
<pdfrwt beam="1">  1        1 0.87809428E-02 0.84980049E+02</pdfrwt>
<pdfrwt beam="2">  1       -2 0.48663809E-02 0.84980049E+02</pdfrwt>
<totfact> 0.11358971E+05</totfact>
</mgrwt>
</event>
<event>
 8    1  0.7756875E-018  0.8036297E+02  0.7818608E-02  0.1328025E+00
         -2   -1    0    0    0  501 -0.00000000000E+00  0.00000000000E+00  0.23722414511E+01  0.23722428217E+01  0.25500000000E-02 0.  1.
          1   -1    0    0  501    0  0.00000000000E+00 -0.00000000000E+00 -0.68060165046E+03  0.68060165048E+03  0.50400000000E-02 0. -1.
        -24    2    1    2    0    0  0.00000000000E+00  0.00000000000E+00 -0.67822940901E+03  0.68297389330E+03  0.80362974592E+02 0.  0.
         66    2    3    3    0    0  0.40818020624E+01 -0.34137050358E+02 -0.51566735026E+03  0.51681603636E+03  0.19999991301E+01 0.  0.
         13    1    3    3    0    0 -0.40818020624E+01  0.34137050358E+02 -0.16256205875E+03  0.16615785694E+03  0.10566000000E+00 0. -1.
         13    1    4    4    0    0  0.23514872579E+00 -0.18822745502E+01 -0.27971458885E+02  0.28035904276E+02  0.10566000000E+00 0. -1.
        -13    1    4    4    0    0  0.35722847422E+01 -0.29831461148E+02 -0.44289174709E+03  0.44390966209E+03  0.10566000000E+00 0.  1.
        -14    1    4    4    0    0  0.27436859442E+00 -0.24233146596E+01 -0.44804144286E+02  0.44870469992E+02  0.00000000000E+00 0.  1.
<mgrwt>
<rscale>  0 0.80362975E+02</rscale>
<asrwt>0</asrwt>
<pdfrwt beam="1">  1        1 0.10470779E+00 0.80362975E+02</pdfrwt>
<pdfrwt beam="2">  1       -2 0.36496087E-03 0.80362975E+02</pdfrwt>
<totfact> 0.19784919E+05</totfact>
</mgrwt>
</event>
<event>
 8    1  0.7756875E-018  0.8007065E+02  0.7818608E-02  0.1328851E+00
         -2   -1    0    0    0  501 -0.00000000000E+00  0.00000000000E+00  0.62477339131E+01  0.62477344335E+01  0.25500000000E-02 0.  1.
          1   -1    0    0  501    0  0.00000000000E+00 -0.00000000000E+00 -0.25654536442E+03  0.25654536446E+03  0.50400000000E-02 0. -1.
        -24    2    1    2    0    0  0.00000000000E+00 -0.35527136788E-14 -0.25029763050E+03  0.26279309890E+03  0.80070650013E+02 0.  0.
         66    2    3    3    0    0 -0.24271331593E+02  0.28388196721E+02 -0.78139761519E+02  0.86630304111E+02  0.20000024400E+01 0.  0.
         13    1    3    3    0    0  0.24271331593E+02 -0.28388196721E+02 -0.17215786898E+03  0.17616279479E+03  0.10566000000E+00 0. -1.
         13    1    4    4    0    0 -0.92316642228E+01  0.94884341660E+01 -0.27357459694E+02  0.30392363715E+02  0.10566000000E+00 0.  1.
        -13    1    4    4    0    0 -0.20877746451E+01  0.27204992605E+01 -0.67345926660E+01  0.75581625814E+01  0.10566000000E+00 0. -1.
         14    1    4    4    0    0 -0.12951892725E+02  0.16179263295E+02 -0.44047709159E+02  0.48679777814E+02  0.00000000000E+00 0. -1.
<mgrwt>
<rscale>  0 0.80070650E+02</rscale>
<asrwt>0</asrwt>
<pdfrwt beam="1">  1        1 0.39468510E-01 0.80070650E+02</pdfrwt>
<pdfrwt beam="2">  1       -2 0.96119007E-03 0.80070650E+02</pdfrwt>
<totfact> 0.17462273E+05</totfact>
</mgrwt>
</event>
<event>
 8    1  0.7756875E-018  0.7850039E+02  0.7818608E-02  0.1333362E+00
          1   -1    0    0  501    0  0.00000000000E+00  0.00000000000E+00  0.11927834956E+03  0.11927834966E+03  0.50400000000E-02 0. -1.
         -2   -1    0    0    0  501 -0.00000000000E+00 -0.00000000000E+00 -0.12915819897E+02  0.12915820149E+02  0.25500000000E-02 0.  1.
        -24    2    1    2    0    0  0.00000000000E+00  0.00000000000E+00  0.10636252966E+03  0.13219416981E+03  0.78500387366E+02 0.  0.
         66    2    3    3    0    0  0.26111320462E+02  0.12914196348E+02  0.89809414441E+01  0.30548892444E+02  0.19999991879E+01 0.  0.
         13    1    3    3    0    0 -0.26111320462E+02 -0.12914196348E+02  0.97381588218E+02  0.10164527737E+03  0.10566000000E+00 0. -1.
         13    1    4    4    0    0  0.15343084523E+01  0.11111141415E+01  0.38767554483E+00  0.19365261232E+01  0.10566000000E+00 0. -1.
        -13    1    4    4    0    0  0.21591600147E+02  0.10218431264E+02  0.71284549643E+01  0.24928689669E+02  0.10566000000E+00 0.  1.
        -14    1    4    4    0    0  0.29854118633E+01  0.15846509428E+01  0.14648109349E+01  0.36836766523E+01  0.00000000000E+00 0.  1.
<mgrwt>
<rscale>  0 0.78500387E+02</rscale>
<asrwt>0</asrwt>
<pdfrwt beam="1">  1        1 0.18350515E-01 0.78500387E+02</pdfrwt>
<pdfrwt beam="2">  1       -2 0.19870493E-02 0.78500387E+02</pdfrwt>
<totfact> 0.15940083E+05</totfact>
</mgrwt>
</event>
<event>
 8    1  0.7756875E-018  0.7874885E+02  0.7818608E-02  0.1332640E+00
         -2   -1    0    0    0  501 -0.00000000000E+00  0.00000000000E+00  0.59788510325E+01  0.59788515763E+01  0.25500000000E-02 0.  1.
          1   -1    0    0  501    0  0.00000000000E+00 -0.00000000000E+00 -0.25930487849E+03  0.25930487854E+03  0.50400000000E-02 0. -1.
        -24    2    1    2    0    0 -0.35527136788E-14  0.35527136788E-14 -0.25332602746E+03  0.26528373011E+03  0.78748849366E+02 0.  0.
         66    2    3    3    0    0 -0.20976140814E+02  0.27906987618E+02 -0.65590926011E+02  0.74330128629E+02  0.20000014223E+01 0.  0.
         13    1    3    3    0    0  0.20976140814E+02 -0.27906987618E+02 -0.18773510144E+03  0.19095360148E+03  0.10566000000E+00 0. -1.
         13    1    4    4    0    0 -0.66612018593E+00  0.11175424283E+01 -0.24830286742E+01  0.28052116878E+01  0.10566000000E+00 0. -1.
        -13    1    4    4    0    0 -0.88032057747E+01  0.12877397008E+02 -0.28392645054E+02  0.32395636169E+02  0.10566000000E+00 0.  1.
        -14    1    4    4    0    0 -0.11506814853E+02  0.13912048182E+02 -0.34715252283E+02  0.39129280772E+02  0.00000000000E+00 0.  1.
<mgrwt>
<rscale>  0 0.78748849E+02</rscale>
<asrwt>0</asrwt>
<pdfrwt beam="1">  1        1 0.39893050E-01 0.78748849E+02</pdfrwt>
<pdfrwt beam="2">  1       -2 0.91982348E-03 0.78748849E+02</pdfrwt>
<totfact> 0.18285124E+05</totfact>
</mgrwt>
</event>
<event>
 8    1  0.7756875E-018  0.7931626E+02  0.7818608E-02  0.1331003E+00
         -2   -1    0    0    0  501 -0.00000000000E+00  0.00000000000E+00  0.12306768930E+03  0.12306768933E+03  0.25500000000E-02 0.  1.
          1   -1    0    0  501    0  0.00000000000E+00 -0.00000000000E+00 -0.12779692088E+02  0.12779693081E+02  0.50400000000E-02 0. -1.
        -24    2    1    2    0    0 -0.35527136788E-14  0.35527136788E-14  0.11028799721E+03  0.13584738241E+03  0.79316259228E+02 0.  0.
         66    2    3    3    0    0 -0.19752892865E+02  0.28498353912E+02  0.88053992378E+02  0.94656423604E+02  0.20000008658E+01 0.  0.
         13    1    3    3    0    0  0.19752892865E+02 -0.28498353912E+02  0.22234004836E+02  0.41190958806E+02  0.10566000000E+00 0. -1.
         13    1    4    4    0    0 -0.57391852530E+00  0.10327179134E+01  0.33834800485E+01  0.35853856190E+01  0.10566000000E+00 0. -1.
        -13    1    4    4    0    0 -0.18188603788E+01  0.29193512944E+01  0.99812868178E+01  0.10557846164E+02  0.10566000000E+00 0.  1.
        -14    1    4    4    0    0 -0.17360113961E+02  0.24546284704E+02  0.74689225512E+02  0.80513191821E+02  0.00000000000E+00 0.  1.
<mgrwt>
<rscale>  0 0.79316259E+02</rscale>
<asrwt>0</asrwt>
<pdfrwt beam="1">  1        1 0.19661066E-02 0.79316259E+02</pdfrwt>
<pdfrwt beam="2">  1       -2 0.18933490E-01 0.79316259E+02</pdfrwt>
<totfact> 0.10266268E+05</totfact>
</mgrwt>
</event>
<event>
 8    1  0.7756875E-018  0.8045386E+02  0.7818608E-02  0.1327768E+00
         -2   -1    0    0    0  501 -0.00000000000E+00  0.00000000000E+00  0.13231656191E+02  0.13231656437E+02  0.25500000000E-02 0.  1.
          1   -1    0    0  501    0  0.00000000000E+00 -0.00000000000E+00 -0.12229806140E+03  0.12229806150E+03  0.50400000000E-02 0. -1.
        -24    2    1    2    0    0  0.71054273576E-14  0.00000000000E+00 -0.10906640520E+03  0.13552971794E+03  0.80453860689E+02 0.  0.
         66    2    3    3    0    0  0.33319944657E+02 -0.18378587194E+02 -0.32718728763E+02  0.50224559586E+02  0.19999986349E+01 0.  0.
         13    1    3    3    0    0 -0.33319944657E+02  0.18378587194E+02 -0.76347676441E+02  0.85305158351E+02  0.10566000000E+00 0. -1.
         13    1    4    4    0    0  0.27345137583E+01 -0.18853062784E+01 -0.26249828757E+01  0.42348133832E+01  0.10566000000E+00 0. -1.
        -13    1    4    4    0    0  0.14567424123E+02 -0.84005040231E+01 -0.13903321128E+02  0.21819528314E+02  0.10566000000E+00 0.  1.
        -14    1    4    4    0    0  0.16018006776E+02 -0.80927768923E+01 -0.16190424759E+02  0.24170217889E+02  0.00000000000E+00 0.  1.
<mgrwt>
<rscale>  0 0.80453861E+02</rscale>
<asrwt>0</asrwt>
<pdfrwt beam="1">  1        1 0.18815086E-01 0.80453861E+02</pdfrwt>
<pdfrwt beam="2">  1       -2 0.20356395E-02 0.80453861E+02</pdfrwt>
<totfact> 0.14987445E+05</totfact>
</mgrwt>
</event>
<event>
 8    1  0.7756875E-018  0.8052036E+02  0.7818608E-02  0.1327581E+00
          1   -1    0    0  501    0  0.00000000000E+00  0.00000000000E+00  0.16662970906E+03  0.16662970914E+03  0.50400000000E-02 0. -1.
         -2   -1    0    0    0  501 -0.00000000000E+00 -0.00000000000E+00 -0.97274499105E+01  0.97274502448E+01  0.25500000000E-02 0.  1.
        -24    2    1    2    0    0  0.00000000000E+00  0.00000000000E+00  0.15690225915E+03  0.17635715938E+03  0.80520362262E+02 0.  0.
         66    2    3    3    0    0  0.30747303534E+02 -0.28714180065E+01  0.22008938389E+02  0.37974137064E+02  0.20000001885E+01 0.  0.
         13    1    3    3    0    0 -0.30747303534E+02  0.28714180065E+01  0.13489332076E+03  0.13838302232E+03  0.10566000000E+00 0. -1.
         13    1    4    4    0    0  0.67841037450E+01 -0.13462767311E+00  0.47224099609E+01  0.82676785199E+01  0.10566000000E+00 0. -1.
        -13    1    4    4    0    0  0.23466393111E+02 -0.25769868799E+01  0.16677242029E+02  0.28904221712E+02  0.10566000000E+00 0.  1.
        -14    1    4    4    0    0  0.49680667753E+00 -0.15980345356E+00  0.60928639929E+00  0.80223683222E+00  0.00000000000E+00 0.  1.
<mgrwt>
<rscale>  0 0.80520362E+02</rscale>
<asrwt>0</asrwt>
<pdfrwt beam="1">  1        1 0.25635340E-01 0.80520362E+02</pdfrwt>
<pdfrwt beam="2">  1       -2 0.14965308E-02 0.80520362E+02</pdfrwt>
<totfact> 0.15824962E+05</totfact>
</mgrwt>
</event>
<event>
 8    1  0.7756875E-018  0.7819041E+02  0.7818608E-02  0.1334267E+00
          1   -1    0    0  501    0  0.00000000000E+00  0.00000000000E+00  0.14966919593E+02  0.14966920442E+02  0.50400000000E-02 0. -1.
         -2   -1    0    0    0  501 -0.00000000000E+00 -0.00000000000E+00 -0.10212088862E+03  0.10212088865E+03  0.25500000000E-02 0.  1.
        -24    2    1    2    0    0 -0.35527136788E-14 -0.88817841970E-15 -0.87153969029E+02  0.11708780910E+03  0.78190413231E+02 0.  0.
         66    2    3    3    0    0 -0.31768879338E+02 -0.60631873179E+01 -0.76427226222E+02  0.83012919365E+02  0.19999846869E+01 0.  0.
         13    1    3    3    0    0  0.31768879338E+02  0.60631873179E+01 -0.10726742807E+02  0.34074889730E+02  0.10566000000E+00 0. -1.
         13    1    4    4    0    0 -0.12909858407E+01  0.70514806635E-01 -0.33285075267E+01  0.35723582085E+01  0.10566000000E+00 0. -1.
        -13    1    4    4    0    0 -0.18998696193E+02 -0.36374203960E+01 -0.46506358531E+02  0.50368976881E+02  0.10566000000E+00 0.  1.
         14    1    4    4    0    0 -0.11479197304E+02 -0.24962817286E+01 -0.26592360164E+02  0.29071584275E+02  0.00000000000E+00 0. -1.
<mgrwt>
<rscale>  0 0.78190413E+02</rscale>
<asrwt>0</asrwt>
<pdfrwt beam="1">  1        1 0.23026032E-02 0.78190413E+02</pdfrwt>
<pdfrwt beam="2">  1       -2 0.15710905E-01 0.78190413E+02</pdfrwt>
<totfact> 0.11193875E+05</totfact>
</mgrwt>
</event>
<event>
 8    1  0.7756875E-018  0.7893680E+02  0.7818608E-02  0.1332096E+00
          1   -1    0    0  501    0  0.00000000000E+00  0.00000000000E+00  0.27939924757E+03  0.27939924761E+03  0.50400000000E-02 0. -1.
         -2   -1    0    0    0  501 -0.00000000000E+00 -0.00000000000E+00 -0.55753709744E+01  0.55753715576E+01  0.25500000000E-02 0.  1.
        -24    2    1    2    0    0  0.17763568394E-14  0.00000000000E+00  0.27382387659E+03  0.28497461917E+03  0.78936798636E+02 0.  0.
         66    2    3    3    0    0  0.13844961961E+02 -0.31768759895E+02  0.68996885497E+02  0.77236696483E+02  0.19999995848E+01 0.  0.
         13    1    3    3    0    0 -0.13844961961E+02  0.31768759895E+02  0.20482699110E+03  0.20773792269E+03  0.10566000000E+00 0. -1.
         13    1    4    4    0    0  0.10299058002E+01 -0.18664124426E+01  0.47223513217E+01  0.51822743467E+01  0.10566000000E+00 0. -1.
        -13    1    4    4    0    0  0.50242227510E+01 -0.10468091147E+02  0.24076665536E+02  0.26730520643E+02  0.10566000000E+00 0.  1.
        -14    1    4    4    0    0  0.77908334100E+01 -0.19434256306E+02  0.40197868639E+02  0.45323901493E+02  0.00000000000E+00 0.  1.
<mgrwt>
<rscale>  0 0.78936799E+02</rscale>
<asrwt>0</asrwt>
<pdfrwt beam="1">  1        1 0.42984494E-01 0.78936799E+02</pdfrwt>
<pdfrwt beam="2">  1       -2 0.85774954E-03 0.78936799E+02</pdfrwt>
<totfact> 0.18435866E+05</totfact>
</mgrwt>
</event>
<event>
 8    1  0.7756875E-018  0.8070975E+02  0.7818608E-02  0.1327049E+00
          1   -1    0    0  501    0  0.00000000000E+00  0.00000000000E+00  0.68562966532E+02  0.68562966718E+02  0.50400000000E-02 0. -1.
         -2   -1    0    0    0  501 -0.00000000000E+00 -0.00000000000E+00 -0.23752124242E+02  0.23752124379E+02  0.25500000000E-02 0.  1.
        -24    2    1    2    0    0  0.00000000000E+00  0.88817841970E-15  0.44810842290E+02  0.92315091096E+02  0.80709754412E+02 0.  0.
         66    2    3    3    0    0  0.20804702015E+02  0.71297820695E+01  0.61086073425E+02  0.64955198355E+02  0.20000021315E+01 0.  0.
         13    1    3    3    0    0 -0.20804702015E+02 -0.71297820695E+01 -0.16275231135E+02  0.27359892741E+02  0.10566000000E+00 0. -1.
         13    1    4    4    0    0  0.12003635219E+01  0.64805291402E+00  0.34773528307E+01  0.37368425053E+01  0.10566000000E+00 0. -1.
        -13    1    4    4    0    0  0.50728899242E+01  0.15176517687E+01  0.16860300759E+02  0.17672531929E+02  0.10566000000E+00 0.  1.
        -14    1    4    4    0    0  0.14531448569E+02  0.49640773869E+01  0.40748419836E+02  0.43545823921E+02  0.00000000000E+00 0.  1.
<mgrwt>
<rscale>  0 0.80709754E+02</rscale>
<asrwt>0</asrwt>
<pdfrwt beam="1">  1        1 0.10548149E-01 0.80709754E+02</pdfrwt>
<pdfrwt beam="2">  1       -2 0.36541729E-02 0.80709754E+02</pdfrwt>
<totfact> 0.13494375E+05</totfact>
</mgrwt>
</event>
<event>
 8    1  0.7756875E-018  0.7959379E+02  0.7818608E-02  0.1330208E+00
          1   -1    0    0  501    0  0.00000000000E+00  0.00000000000E+00  0.17570051934E+03  0.17570051941E+03  0.50400000000E-02 0. -1.
         -2   -1    0    0    0  501 -0.00000000000E+00 -0.00000000000E+00 -0.90141611705E+01  0.90141615312E+01  0.25500000000E-02 0.  1.
        -24    2    1    2    0    0  0.44408920985E-15 -0.35527136788E-14  0.16668635817E+03  0.18471468094E+03  0.79593789683E+02 0.  0.
         66    2    3    3    0    0 -0.37469958538E+01 -0.26333257969E+02  0.14775087594E+02  0.30492355241E+02  0.20000153945E+01 0.  0.
         13    1    3    3    0    0  0.37469958538E+01  0.26333257969E+02  0.15191127057E+03  0.15422232570E+03  0.10566000000E+00 0. -1.
         13    1    4    4    0    0 -0.32157808572E+00 -0.18645906343E+01  0.59797087448E+00  0.19871698219E+01  0.10566000000E+00 0. -1.
        -13    1    4    4    0    0 -0.19205620259E+01 -0.16933758376E+02  0.95561720956E+01  0.19538994866E+02  0.10566000000E+00 0.  1.
        -14    1    4    4    0    0 -0.15048557421E+01 -0.75349089585E+01  0.46209446243E+01  0.89661905533E+01  0.00000000000E+00 0.  1.
<mgrwt>
<rscale>  0 0.79593790E+02</rscale>
<asrwt>0</asrwt>
<pdfrwt beam="1">  1        1 0.27030849E-01 0.79593790E+02</pdfrwt>
<pdfrwt beam="2">  1       -2 0.13867941E-02 0.79593790E+02</pdfrwt>
<totfact> 0.16484964E+05</totfact>
</mgrwt>
</event>
<event>
 8    1  0.7756875E-018  0.8082690E+02  0.7818608E-02  0.1326721E+00
         -2   -1    0    0    0  501 -0.00000000000E+00  0.00000000000E+00  0.74753948954E+02  0.74753948997E+02  0.25500000000E-02 0.  1.
          1   -1    0    0  501    0  0.00000000000E+00 -0.00000000000E+00 -0.21848300931E+02  0.21848301512E+02  0.50400000000E-02 0. -1.
        -24    2    1    2    0    0  0.00000000000E+00  0.00000000000E+00  0.52905648023E+02  0.96602250510E+02  0.80826896580E+02 0.  0.
         66    2    3    3    0    0  0.38418206746E+02 -0.48635150853E+01  0.12756751801E+02  0.40820914738E+02  0.19999937476E+01 0.  0.
         13    1    3    3    0    0 -0.38418206746E+02  0.48635150853E+01  0.40148896222E+02  0.55781335772E+02  0.10566000000E+00 0. -1.
         13    1    4    4    0    0  0.14112329245E+01 -0.35352118481E-01  0.18069413211E+00  0.14271098571E+01  0.10566000000E+00 0. -1.
        -13    1    4    4    0    0  0.26838365554E+02 -0.35771580218E+01  0.95545937933E+01  0.28712285728E+02  0.10566000000E+00 0.  1.
        -14    1    4    4    0    0  0.10168608268E+02 -0.12510049450E+01  0.30214638754E+01  0.10681519153E+02  0.00000000000E+00 0.  1.
<mgrwt>
<rscale>  0 0.80826897E+02</rscale>
<asrwt>0</asrwt>
<pdfrwt beam="1">  1        1 0.33612772E-02 0.80826897E+02</pdfrwt>
<pdfrwt beam="2">  1       -2 0.11500607E-01 0.80826897E+02</pdfrwt>
<totfact> 0.11045005E+05</totfact>
</mgrwt>
</event>
<event>
 8    1  0.7756875E-018  0.7971163E+02  0.7818608E-02  0.1329872E+00
          1   -1    0    0  501    0  0.00000000000E+00  0.00000000000E+00  0.16964122382E+03  0.16964122390E+03  0.50400000000E-02 0. -1.
         -2   -1    0    0    0  501 -0.00000000000E+00 -0.00000000000E+00 -0.93637961078E+01  0.93637964550E+01  0.25500000000E-02 0.  1.
        -24    2    1    2    0    0  0.71054273576E-14  0.35527136788E-14  0.16027742772E+03  0.17900502035E+03  0.79711626985E+02 0.  0.
         66    2    3    3    0    0  0.31350256977E+02  0.22126054639E+02  0.10417449711E+03  0.11103479972E+03  0.19999986056E+01 0.  0.
         13    1    3    3    0    0 -0.31350256977E+02 -0.22126054639E+02  0.56102930610E+02  0.67970220637E+02  0.10566000000E+00 0. -1.
         13    1    4    4    0    0  0.54381879832E+01  0.45536865553E+01  0.20339127810E+02  0.21540687869E+02  0.10566000000E+00 0. -1.
        -13    1    4    4    0    0  0.12772229391E+02  0.85058783059E+01  0.42114485929E+02  0.44823218297E+02  0.10566000000E+00 0.  1.
         14    1    4    4    0    0  0.13139839602E+02  0.90664897778E+01  0.41720883368E+02  0.44670893551E+02  0.00000000000E+00 0. -1.
<mgrwt>
<rscale>  0 0.79711627E+02</rscale>
<asrwt>0</asrwt>
<pdfrwt beam="1">  1        1 0.26098650E-01 0.79711627E+02</pdfrwt>
<pdfrwt beam="2">  1       -2 0.14405841E-02 0.79711627E+02</pdfrwt>
<totfact> 0.16311553E+05</totfact>
</mgrwt>
</event>
<event>
 8    1  0.7756875E-018  0.8035122E+02  0.7818608E-02  0.1328058E+00
          1   -1    0    0  501    0  0.00000000000E+00  0.00000000000E+00  0.57491692476E+01  0.57491714568E+01  0.50400000000E-02 0. -1.
         -2   -1    0    0    0  501 -0.00000000000E+00 -0.00000000000E+00 -0.28075001640E+03  0.28075001641E+03  0.25500000000E-02 0.  1.
        -24    2    1    2    0    0  0.00000000000E+00 -0.88817841970E-15 -0.27500084715E+03  0.28649918786E+03  0.80351220990E+02 0.  0.
         66    2    3    3    0    0 -0.33468504508E+02  0.69940810171E+01 -0.21263369620E+03  0.21537443377E+03  0.19999999134E+01 0.  0.
         13    1    3    3    0    0  0.33468504508E+02 -0.69940810171E+01 -0.62367150951E+02  0.71124754095E+02  0.10566000000E+00 0. -1.
         13    1    4    4    0    0 -0.47398448686E+01  0.88036269770E+00 -0.33179290810E+02  0.33527864091E+02  0.10566000000E+00 0. -1.
        -13    1    4    4    0    0 -0.14835028494E+02  0.36435240291E+01 -0.95770857025E+02  0.96981552664E+02  0.10566000000E+00 0.  1.
        -14    1    4    4    0    0 -0.13893631146E+02  0.24701942903E+01 -0.83683548362E+02  0.84865017013E+02  0.00000000000E+00 0.  1.
<mgrwt>
<rscale>  0 0.80351221E+02</rscale>
<asrwt>0</asrwt>
<pdfrwt beam="1">  1        1 0.88448797E-03 0.80351221E+02</pdfrwt>
<pdfrwt beam="2">  1       -2 0.43192300E-01 0.80351221E+02</pdfrwt>
<totfact> 0.71970283E+04</totfact>
</mgrwt>
</event>
<event>
 8    1  0.7756875E-018  0.7983973E+02  0.7818608E-02  0.1329507E+00
         -2   -1    0    0    0  501 -0.00000000000E+00  0.00000000000E+00  0.94161505632E+02  0.94161505666E+02  0.25500000000E-02 0.  1.
          1   -1    0    0  501    0  0.00000000000E+00 -0.00000000000E+00 -0.16924064346E+02  0.16924065097E+02  0.50400000000E-02 0. -1.
        -24    2    1    2    0    0  0.00000000000E+00  0.17763568394E-14  0.77237441285E+02  0.11108557076E+03  0.79839725046E+02 0.  0.
         66    2    3    3    0    0  0.48546575578E+01 -0.13311877467E+02  0.90531679183E+02  0.91655652930E+02  0.19999991302E+01 0.  0.
         13    1    3    3    0    0 -0.48546575578E+01  0.13311877467E+02 -0.13294237898E+02  0.19429917833E+02  0.10566000000E+00 0. -1.
         13    1    4    4    0    0  0.37923152060E+00 -0.32314901296E+01  0.19324206988E+02  0.19596491644E+02  0.10566000000E+00 0. -1.
        -13    1    4    4    0    0  0.17074245795E+01 -0.32431017930E+01  0.22828272206E+02  0.23120860363E+02  0.10566000000E+00 0.  1.
         14    1    4    4    0    0  0.27680014577E+01 -0.68372855440E+01  0.48379199989E+02  0.48938300923E+02  0.00000000000E+00 0. -1.
<mgrwt>
<rscale>  0 0.79839725E+02</rscale>
<asrwt>0</asrwt>
<pdfrwt beam="1">  1        1 0.26037023E-02 0.79839725E+02</pdfrwt>
<pdfrwt beam="2">  1       -2 0.14486385E-01 0.79839725E+02</pdfrwt>
<totfact> 0.10824833E+05</totfact>
</mgrwt>
</event>
<event>
 8    1  0.7756875E-018  0.8028599E+02  0.7818608E-02  0.1328242E+00
         -2   -1    0    0    0  501 -0.00000000000E+00  0.00000000000E+00  0.13069719574E+03  0.13069719577E+03  0.25500000000E-02 0.  1.
          1   -1    0    0  501    0  0.00000000000E+00 -0.00000000000E+00 -0.12329722459E+02  0.12329723489E+02  0.50400000000E-02 0. -1.
        -24    2    1    2    0    0  0.00000000000E+00  0.00000000000E+00  0.11836747328E+03  0.14302691926E+03  0.80285994424E+02 0.  0.
         66    2    3    3    0    0 -0.79926741534E+01  0.33250011281E+02  0.96589135427E+02  0.10248369227E+03  0.20000023062E+01 0.  0.
         13    1    3    3    0    0  0.79926741534E+01 -0.33250011281E+02  0.21778337854E+02  0.40543226981E+02  0.10566000000E+00 0. -1.
         13    1    4    4    0    0 -0.19998282289E+01  0.61817755650E+01  0.17656273714E+02  0.18814059306E+02  0.10566000000E+00 0. -1.
        -13    1    4    4    0    0 -0.45997107759E+01  0.18553414050E+02  0.55375632353E+02  0.58582064958E+02  0.10566000000E+00 0.  1.
        -14    1    4    4    0    0 -0.13931351486E+01  0.85148216662E+01  0.23557229360E+02  0.25087568010E+02  0.00000000000E+00 0.  1.
<mgrwt>
<rscale>  0 0.80285994E+02</rscale>
<asrwt>0</asrwt>
<pdfrwt beam="1">  1        1 0.18968804E-02 0.80285994E+02</pdfrwt>
<pdfrwt beam="2">  1       -2 0.20107261E-01 0.80285994E+02</pdfrwt>
<totfact> 0.97775504E+04</totfact>
</mgrwt>
</event>
<event>
 8    1  0.7756875E-018  0.8017648E+02  0.7818608E-02  0.1328551E+00
         -2   -1    0    0    0  501 -0.00000000000E+00  0.00000000000E+00  0.67653408700E+01  0.67653413506E+01  0.25500000000E-02 0.  1.
          1   -1    0    0  501    0  0.00000000000E+00 -0.00000000000E+00 -0.23754412480E+03  0.23754412485E+03  0.50400000000E-02 0. -1.
        -24    2    1    2    0    0  0.00000000000E+00 -0.22204460493E-15 -0.23077878393E+03  0.24430946620E+03  0.80176481369E+02 0.  0.
         66    2    3    3    0    0  0.40009294428E+02  0.12144678593E+01 -0.12059930161E+03  0.12708426388E+03  0.20000007175E+01 0.  0.
         13    1    3    3    0    0 -0.40009294428E+02 -0.12144678593E+01 -0.11017948231E+03  0.11722520232E+03  0.10566000000E+00 0. -1.
         13    1    4    4    0    0  0.17709277033E+02 -0.13528186342E+00 -0.55124165321E+02  0.57899236269E+02  0.10566000000E+00 0. -1.
        -13    1    4    4    0    0  0.19314461478E+02  0.94482511000E+00 -0.56501784928E+02  0.59719376929E+02  0.10566000000E+00 0.  1.
        -14    1    4    4    0    0  0.29855559173E+01  0.40492461273E+00 -0.89733513652E+01  0.94656506802E+01  0.00000000000E+00 0.  1.
<mgrwt>
<rscale>  0 0.80176481E+02</rscale>
<asrwt>0</asrwt>
<pdfrwt beam="1">  1        1 0.36545244E-01 0.80176481E+02</pdfrwt>
<pdfrwt beam="2">  1       -2 0.10408219E-02 0.80176481E+02</pdfrwt>
<totfact> 0.17142331E+05</totfact>
</mgrwt>
</event>
<event>
 8    1  0.7756875E-018  0.8024125E+02  0.7818608E-02  0.1328368E+00
         -2   -1    0    0    0  501 -0.00000000000E+00  0.00000000000E+00  0.21381941838E+02  0.21381941990E+02  0.25500000000E-02 0.  1.
          1   -1    0    0  501    0  0.00000000000E+00 -0.00000000000E+00 -0.75281489952E+02  0.75281490120E+02  0.50400000000E-02 0. -1.
        -24    2    1    2    0    0  0.00000000000E+00  0.00000000000E+00 -0.53899548114E+02  0.96663432110E+02  0.80241247625E+02 0.  0.
         66    2    3    3    0    0  0.83708829323E+01  0.31441479497E+02  0.12601638337E+01  0.32622481929E+02  0.20000000681E+01 0.  0.
         13    1    3    3    0    0 -0.83708829323E+01 -0.31441479497E+02 -0.55159711947E+02  0.64040950182E+02  0.10566000000E+00 0. -1.
         13    1    4    4    0    0  0.22185409518E+01  0.95479719863E+01 -0.13096401511E+00  0.98037752226E+01  0.10566000000E+00 0. -1.
        -13    1    4    4    0    0  0.20368136067E+01  0.95198871623E+01  0.54131272410E+00  0.97509509666E+01  0.10566000000E+00 0.  1.
         14    1    4    4    0    0  0.41155283739E+01  0.12373620348E+02  0.84981512469E+00  0.13067755739E+02  0.00000000000E+00 0. -1.
<mgrwt>
<rscale>  0 0.80241248E+02</rscale>
<asrwt>0</asrwt>
<pdfrwt beam="1">  1        1 0.11581768E-01 0.80241248E+02</pdfrwt>
<pdfrwt beam="2">  1       -2 0.32895296E-02 0.80241248E+02</pdfrwt>
<totfact> 0.13917016E+05</totfact>
</mgrwt>
</event>
<event>
 8    1  0.7756875E-018  0.8161016E+02  0.7818608E-02  0.1324543E+00
         -2   -1    0    0    0  501 -0.00000000000E+00  0.00000000000E+00  0.56493189429E+02  0.56493189486E+02  0.25500000000E-02 0.  1.
          1   -1    0    0  501    0  0.00000000000E+00 -0.00000000000E+00 -0.29473542760E+02  0.29473543191E+02  0.50400000000E-02 0. -1.
        -24    2    1    2    0    0 -0.22204460493E-15  0.00000000000E+00  0.27019646668E+02  0.85966732677E+02  0.81610157586E+02 0.  0.
         66    2    3    3    0    0 -0.18228798655E+01 -0.11492415951E+02  0.54689564463E+02  0.55949503788E+02  0.19999993994E+01 0.  0.
         13    1    3    3    0    0  0.18228798655E+01  0.11492415951E+02 -0.27669917794E+02  0.30017228889E+02  0.10566000000E+00 0. -1.
         13    1    4    4    0    0 -0.46787726125E+00 -0.48528964551E+01  0.20892996918E+02  0.21454556564E+02  0.10566000000E+00 0. -1.
        -13    1    4    4    0    0 -0.22728518281E+00 -0.37953790073E+00  0.40787221737E+01  0.41040036767E+01  0.10566000000E+00 0.  1.
        -14    1    4    4    0    0 -0.11277174214E+01 -0.62599815955E+01  0.29717845372E+02  0.30390943547E+02  0.00000000000E+00 0.  1.
<mgrwt>
<rscale>  0 0.81610158E+02</rscale>
<asrwt>0</asrwt>
<pdfrwt beam="1">  1        1 0.45343912E-02 0.81610158E+02</pdfrwt>
<pdfrwt beam="2">  1       -2 0.86912599E-02 0.81610158E+02</pdfrwt>
<totfact> 0.11383359E+05</totfact>
</mgrwt>
</event>
<event>
 8    1  0.7756875E-018  0.7886243E+02  0.7818608E-02  0.1332311E+00
          1   -1    0    0  501    0  0.00000000000E+00  0.00000000000E+00  0.35283277840E+02  0.35283278200E+02  0.50400000000E-02 0. -1.
         -2   -1    0    0    0  501 -0.00000000000E+00 -0.00000000000E+00 -0.44066784663E+02  0.44066784736E+02  0.25500000000E-02 0.  1.
        -24    2    1    2    0    0  0.00000000000E+00 -0.35527136788E-14 -0.87835068231E+01  0.79350062936E+02  0.78862427656E+02 0.  0.
         66    2    3    3    0    0  0.15282217417E+02 -0.23446273063E+02  0.23517576517E+02  0.36610794825E+02  0.20000006836E+01 0.  0.
         13    1    3    3    0    0 -0.15282217417E+02  0.23446273063E+02 -0.32301083340E+02  0.42739268111E+02  0.10566000000E+00 0. -1.
         13    1    4    4    0    0  0.31854147126E+00 -0.75344278624E+00  0.51444354277E+00  0.97209099129E+00  0.10566000000E+00 0.  1.
        -13    1    4    4    0    0  0.13336542848E+02 -0.20948996265E+02  0.21095974366E+02  0.32584890949E+02  0.10566000000E+00 0.  1.
        -14    1    4    4    0    0  0.16271330975E+01 -0.17438340124E+01  0.19071586076E+01  0.30538128846E+01  0.00000000000E+00 0.  1.
<mgrwt>
<rscale>  0 0.78862428E+02</rscale>
<asrwt>0</asrwt>
<pdfrwt beam="1">  1        1 0.54281967E-02 0.78862428E+02</pdfrwt>
<pdfrwt beam="2">  1       -2 0.67795053E-02 0.78862428E+02</pdfrwt>
<totfact> 0.12953030E+05</totfact>
</mgrwt>
</event>
<event>
 8    1  0.7756875E-018  0.8103411E+02  0.7818608E-02  0.1326142E+00
         -2   -1    0    0    0  501 -0.00000000000E+00  0.00000000000E+00  0.12203727803E+03  0.12203727806E+03  0.25500000000E-02 0.  1.
          1   -1    0    0  501    0  0.00000000000E+00 -0.00000000000E+00 -0.13451886026E+02  0.13451886971E+02  0.50400000000E-02 0. -1.
        -24    2    1    2    0    0  0.88817841970E-15  0.00000000000E+00  0.10858539200E+03  0.13548916503E+03  0.81034106913E+02 0.  0.
         66    2    3    3    0    0  0.57946927926E+01  0.21949485500E+02  0.11038807696E+03  0.11271595236E+03  0.20000004727E+01 0.  0.
         13    1    3    3    0    0 -0.57946927926E+01 -0.21949485500E+02 -0.18026849588E+01  0.22773212671E+02  0.10566000000E+00 0. -1.
         13    1    4    4    0    0  0.63526983464E-02  0.15661991696E+01  0.87378418395E+01  0.88777285520E+01  0.10566000000E+00 0. -1.
        -13    1    4    4    0    0  0.45541789942E+01  0.17082768418E+02  0.85016930104E+02  0.86835770806E+02  0.10566000000E+00 0.  1.
        -14    1    4    4    0    0  0.12341611001E+01  0.33005179118E+01  0.16633305018E+02  0.17002452997E+02  0.00000000000E+00 0.  1.
<mgrwt>
<rscale>  0 0.81034107E+02</rscale>
<asrwt>0</asrwt>
<pdfrwt beam="1">  1        1 0.20695210E-02 0.81034107E+02</pdfrwt>
<pdfrwt beam="2">  1       -2 0.18774966E-01 0.81034107E+02</pdfrwt>
<totfact> 0.97400144E+04</totfact>
</mgrwt>
</event>
<event>
 8    1  0.7756875E-018  0.8288586E+02  0.7818608E-02  0.1321056E+00
          1   -1    0    0  501    0  0.00000000000E+00  0.00000000000E+00  0.18792419859E+01  0.18792487443E+01  0.50400000000E-02 0. -1.
         -2   -1    0    0    0  501 -0.00000000000E+00 -0.00000000000E+00 -0.91393943602E+03  0.91393943602E+03  0.25500000000E-02 0.  1.
        -24    2    1    2    0    0  0.17763568394E-14 -0.71054273576E-14 -0.91206019403E+03  0.91581868477E+03  0.82885860245E+02 0.  0.
         66    2    3    3    0    0  0.15845152203E+02 -0.31229300521E+02 -0.70067195628E+03  0.70154937692E+03  0.19999712332E+01 0.  0.
         13    1    3    3    0    0 -0.15845152203E+02  0.31229300521E+02 -0.21138823776E+03  0.21426930785E+03  0.10566000000E+00 0. -1.
         13    1    4    4    0    0  0.42117112477E+01 -0.86215202891E+01 -0.18110880870E+03  0.18136284315E+03  0.10566000000E+00 0.  1.
        -13    1    4    4    0    0  0.26879438240E+01 -0.56714551179E+01 -0.13913433803E+03  0.13927586161E+03  0.10566000000E+00 0. -1.
        -14    1    4    4    0    0  0.89454971315E+01 -0.16936325114E+02 -0.38042880955E+03  0.38091067216E+03  0.00000000000E+00 0.  1.
<mgrwt>
<rscale>  0 0.82885860E+02</rscale>
<asrwt>0</asrwt>
<pdfrwt beam="1">  1        1 0.28911540E-03 0.82885860E+02</pdfrwt>
<pdfrwt beam="2">  1       -2 0.14060571E+00 0.82885860E+02</pdfrwt>
<totfact> 0.26346249E+04</totfact>
</mgrwt>
</event>
<event>
 8    1  0.7756875E-018  0.8069677E+02  0.7818608E-02  0.1327086E+00
         -2   -1    0    0    0  501 -0.00000000000E+00  0.00000000000E+00  0.65897855558E+01  0.65897860492E+01  0.25500000000E-02 0.  1.
          1   -1    0    0  501    0  0.00000000000E+00 -0.00000000000E+00 -0.24704783555E+03  0.24704783560E+03  0.50400000000E-02 0. -1.
        -24    2    1    2    0    0  0.00000000000E+00  0.00000000000E+00 -0.24045804999E+03  0.25363762165E+03  0.80696773848E+02 0.  0.
         66    2    3    3    0    0  0.24276807825E+02  0.21938450434E+02 -0.46234361973E+02  0.56676937355E+02  0.19999988205E+01 0.  0.
         13    1    3    3    0    0 -0.24276807825E+02 -0.21938450434E+02 -0.19422368802E+03  0.19696068429E+03  0.10566000000E+00 0. -1.
         13    1    4    4    0    0  0.43461900817E+01  0.40522673595E+01 -0.95044585855E+01  0.11209644777E+02  0.10566000000E+00 0. -1.
        -13    1    4    4    0    0  0.11098442687E+02  0.10590680834E+02 -0.21323004609E+02  0.26268224915E+02  0.10566000000E+00 0.  1.
        -14    1    4    4    0    0  0.88321750565E+01  0.72955022402E+01 -0.15406898779E+02  0.19199067663E+02  0.00000000000E+00 0.  1.
<mgrwt>
<rscale>  0 0.80696774E+02</rscale>
<asrwt>0</asrwt>
<pdfrwt beam="1">  1        1 0.38007352E-01 0.80696774E+02</pdfrwt>
<pdfrwt beam="2">  1       -2 0.10138134E-02 0.80696774E+02</pdfrwt>
<totfact> 0.16980888E+05</totfact>
</mgrwt>
</event>
<event>
 8    1  0.7756875E-018  0.8081734E+02  0.7818608E-02  0.1326748E+00
          1   -1    0    0  501    0  0.00000000000E+00  0.00000000000E+00  0.16796983085E+02  0.16796983841E+02  0.50400000000E-02 0. -1.
         -2   -1    0    0    0  501 -0.00000000000E+00 -0.00000000000E+00 -0.97211542419E+02  0.97211542452E+02  0.25500000000E-02 0.  1.
        -24    2    1    2    0    0  0.00000000000E+00 -0.13877787808E-16 -0.80414559334E+02  0.11400852629E+03  0.80817341671E+02 0.  0.
         66    2    3    3    0    0 -0.33908415940E+02 -0.68935321146E-01 -0.92906431089E+01  0.35215074492E+02  0.19999996135E+01 0.  0.
         13    1    3    3    0    0  0.33908415940E+02  0.68935321146E-01 -0.71123916225E+02  0.78793451802E+02  0.10566000000E+00 0. -1.
         13    1    4    4    0    0 -0.12314471643E+01 -0.18338142114E+00 -0.13851029897E+00  0.12571555204E+01  0.10566000000E+00 0. -1.
        -13    1    4    4    0    0 -0.13796592118E+02 -0.15684576474E+00 -0.44680671562E+01  0.14503287310E+02  0.10566000000E+00 0.  1.
         14    1    4    4    0    0 -0.18880376658E+02  0.27129186474E+00 -0.46840656538E+01  0.19454631661E+02  0.00000000000E+00 0. -1.
<mgrwt>
<rscale>  0 0.80817342E+02</rscale>
<asrwt>0</asrwt>
<pdfrwt beam="1">  1        1 0.25841514E-02 0.80817342E+02</pdfrwt>
<pdfrwt beam="2">  1       -2 0.14955622E-01 0.80817342E+02</pdfrwt>
<totfact> 0.10412529E+05</totfact>
</mgrwt>
</event>
<event>
 8    1  0.7756875E-018  0.7895735E+02  0.7818608E-02  0.1332037E+00
         -2   -1    0    0    0  501 -0.00000000000E+00  0.00000000000E+00  0.29090260031E+02  0.29090260143E+02  0.25500000000E-02 0.  1.
          1   -1    0    0  501    0  0.00000000000E+00 -0.00000000000E+00 -0.53576889294E+02  0.53576889531E+02  0.50400000000E-02 0. -1.
        -24    2    1    2    0    0  0.00000000000E+00  0.44408920985E-15 -0.24486629263E+02  0.82667149674E+02  0.78957346857E+02 0.  0.
         66    2    3    3    0    0  0.35224590678E+02  0.32647336894E+01  0.60375663597E+01  0.35942766779E+02  0.20000004201E+01 0.  0.
         13    1    3    3    0    0 -0.35224590678E+02 -0.32647336894E+01 -0.30524195622E+02  0.46724382895E+02  0.10566000000E+00 0. -1.
         13    1    4    4    0    0  0.24293781129E+02  0.15104443433E+01  0.42745092908E+01  0.24713393886E+02  0.10566000000E+00 0. -1.
        -13    1    4    4    0    0  0.53363028558E+01  0.73888991210E+00  0.55701498663E+00  0.54169655899E+01  0.10566000000E+00 0.  1.
         14    1    4    4    0    0  0.55945066937E+01  0.10153994340E+01  0.12060420822E+01  0.58124073034E+01  0.00000000000E+00 0. -1.
<mgrwt>
<rscale>  0 0.78957347E+02</rscale>
<asrwt>0</asrwt>
<pdfrwt beam="1">  1        1 0.82425984E-02 0.78957347E+02</pdfrwt>
<pdfrwt beam="2">  1       -2 0.44754246E-02 0.78957347E+02</pdfrwt>
<totfact> 0.13792573E+05</totfact>
</mgrwt>
</event>
<event>
 8    1  0.7756875E-018  0.7909966E+02  0.7818608E-02  0.1331626E+00
         -2   -1    0    0    0  501 -0.00000000000E+00  0.00000000000E+00  0.13729813532E+02  0.13729813769E+02  0.25500000000E-02 0.  1.
          1   -1    0    0  501    0  0.00000000000E+00 -0.00000000000E+00 -0.11392645892E+03  0.11392645903E+03  0.50400000000E-02 0. -1.
        -24    2    1    2    0    0  0.00000000000E+00  0.00000000000E+00 -0.10019664538E+03  0.12765627280E+03  0.79099660165E+02 0.  0.
         66    2    3    3    0    0 -0.85401314376E+01 -0.35408765787E+02 -0.74895067750E+02  0.83306576807E+02  0.20000066542E+01 0.  0.
         13    1    3    3    0    0  0.85401314376E+01  0.35408765787E+02 -0.25301577634E+02  0.44349695989E+02  0.10566000000E+00 0. -1.
         13    1    4    4    0    0 -0.10450573958E+01 -0.35214518513E+01 -0.88800737360E+01  0.96103923798E+01  0.10566000000E+00 0. -1.
        -13    1    4    4    0    0 -0.72192862805E+01 -0.30969615504E+02 -0.64157824848E+02  0.71606374242E+02  0.10566000000E+00 0.  1.
        -14    1    4    4    0    0 -0.27578776126E+00 -0.91769843187E+00 -0.18571691659E+01  0.20898101856E+01  0.00000000000E+00 0.  1.
<mgrwt>
<rscale>  0 0.79099660E+02</rscale>
<asrwt>0</asrwt>
<pdfrwt beam="1">  1        1 0.17527147E-01 0.79099660E+02</pdfrwt>
<pdfrwt beam="2">  1       -2 0.21122791E-02 0.79099660E+02</pdfrwt>
<totfact> 0.15494437E+05</totfact>
</mgrwt>
</event>
<event>
 8    1  0.7756875E-018  0.7909574E+02  0.7818608E-02  0.1331637E+00
          1   -1    0    0  501    0  0.00000000000E+00  0.00000000000E+00  0.42418801046E+02  0.42418801345E+02  0.50400000000E-02 0. -1.
         -2   -1    0    0    0  501 -0.00000000000E+00 -0.00000000000E+00 -0.36871246758E+02  0.36871246847E+02  0.25500000000E-02 0.  1.
        -24    2    1    2    0    0  0.00000000000E+00  0.00000000000E+00  0.55475542877E+01  0.79290048192E+02  0.79095741881E+02 0.  0.
         66    2    3    3    0    0  0.50927642415E+01 -0.21663211661E+02 -0.29966567620E+02  0.37379488591E+02  0.20000013243E+01 0.  0.
         13    1    3    3    0    0 -0.50927642415E+01  0.21663211661E+02  0.35514121908E+02  0.41910559601E+02  0.10566000000E+00 0. -1.
         13    1    4    4    0    0  0.17987141176E+01 -0.46768200549E+01 -0.62553575765E+01  0.80155274779E+01  0.10566000000E+00 0. -1.
        -13    1    4    4    0    0  0.16294333613E+01 -0.74804227739E+01 -0.99070935415E+01  0.12520920271E+02  0.10566000000E+00 0.  1.
         14    1    4    4    0    0  0.16646167625E+01 -0.95059688326E+01 -0.13804116502E+02  0.16843040842E+02  0.00000000000E+00 0. -1.
<mgrwt>
<rscale>  0 0.79095742E+02</rscale>
<asrwt>0</asrwt>
<pdfrwt beam="1">  1        1 0.65259694E-02 0.79095742E+02</pdfrwt>
<pdfrwt beam="2">  1       -2 0.56724995E-02 0.79095742E+02</pdfrwt>
<totfact> 0.13233605E+05</totfact>
</mgrwt>
</event>
<event>
 8    1  0.7756875E-018  0.8149064E+02  0.7818608E-02  0.1324874E+00
         -2   -1    0    0    0  501 -0.00000000000E+00  0.00000000000E+00  0.88491724001E+02  0.88491724038E+02  0.25500000000E-02 0.  1.
          1   -1    0    0  501    0  0.00000000000E+00 -0.00000000000E+00 -0.18760862476E+02  0.18760863153E+02  0.50400000000E-02 0. -1.
        -24    2    1    2    0    0  0.00000000000E+00  0.00000000000E+00  0.69730861525E+02  0.10725258719E+03  0.81490640015E+02 0.  0.
         66    2    3    3    0    0  0.20398556201E+02  0.31443070465E+02  0.55837650415E+02  0.67280093469E+02  0.19999995117E+01 0.  0.
         13    1    3    3    0    0 -0.20398556201E+02 -0.31443070465E+02  0.13893211110E+02  0.39972493722E+02  0.10566000000E+00 0. -1.
         13    1    4    4    0    0  0.68980892470E+01  0.11810257011E+02  0.20065201246E+02  0.24283518505E+02  0.10566000000E+00 0. -1.
        -13    1    4    4    0    0  0.37530485101E+01  0.49282454719E+01  0.85954658417E+01  0.10595573303E+02  0.10566000000E+00 0.  1.
        -14    1    4    4    0    0  0.97474184442E+01  0.14704567982E+02  0.27176983327E+02  0.32401001661E+02  0.00000000000E+00 0.  1.
<mgrwt>
<rscale>  0 0.81490640E+02</rscale>
<asrwt>0</asrwt>
<pdfrwt beam="1">  1        1 0.28862866E-02 0.81490640E+02</pdfrwt>
<pdfrwt beam="2">  1       -2 0.13614111E-01 0.81490640E+02</pdfrwt>
<totfact> 0.10424131E+05</totfact>
</mgrwt>
</event>
<event>
 8    1  0.7756875E-018  0.8047469E+02  0.7818608E-02  0.1327710E+00
         -2   -1    0    0    0  501 -0.00000000000E+00  0.00000000000E+00  0.85845782770E+01  0.85845786557E+01  0.25500000000E-02 0.  1.
          1   -1    0    0  501    0  0.00000000000E+00 -0.00000000000E+00 -0.18859910825E+03  0.18859910832E+03  0.50400000000E-02 0. -1.
        -24    2    1    2    0    0  0.00000000000E+00  0.00000000000E+00 -0.18001452997E+03  0.19718368697E+03  0.80474687988E+02 0.  0.
         66    2    3    3    0    0 -0.35514468026E+02 -0.18335223747E+02 -0.79220208965E+02  0.88754151418E+02  0.20000041374E+01 0.  0.
         13    1    3    3    0    0  0.35514468026E+02  0.18335223747E+02 -0.10079432101E+03  0.10842953555E+03  0.10566000000E+00 0. -1.
         13    1    4    4    0    0 -0.56854694647E+01 -0.36160411079E+01 -0.13089134113E+02  0.14721987372E+02  0.10566000000E+00 0. -1.
        -13    1    4    4    0    0 -0.14821216150E+02 -0.72608782489E+01 -0.31707726514E+02  0.35746047136E+02  0.10566000000E+00 0.  1.
        -14    1    4    4    0    0 -0.15007782412E+02 -0.74583043905E+01 -0.34423348338E+02  0.38286116910E+02  0.00000000000E+00 0.  1.
<mgrwt>
<rscale>  0 0.80474688E+02</rscale>
<asrwt>0</asrwt>
<pdfrwt beam="1">  1        1 0.29015244E-01 0.80474688E+02</pdfrwt>
<pdfrwt beam="2">  1       -2 0.13207045E-02 0.80474688E+02</pdfrwt>
<totfact> 0.16228331E+05</totfact>
</mgrwt>
</event>
<event>
 8    1  0.7756875E-018  0.8089101E+02  0.7818608E-02  0.1326542E+00
         -2   -1    0    0    0  501 -0.00000000000E+00  0.00000000000E+00  0.10505403486E+03  0.10505403489E+03  0.25500000000E-02 0.  1.
          1   -1    0    0  501    0  0.00000000000E+00 -0.00000000000E+00 -0.15571405635E+02  0.15571406451E+02  0.50400000000E-02 0. -1.
        -24    2    1    2    0    0  0.00000000000E+00  0.17763568394E-14  0.89482629226E+02  0.12062544134E+03  0.80891014123E+02 0.  0.
         66    2    3    3    0    0  0.43716320417E+01 -0.15050180619E+02  0.10032919779E+03  0.10156557993E+03  0.19999982538E+01 0.  0.
         13    1    3    3    0    0 -0.43716320417E+01  0.15050180619E+02 -0.10846568568E+02  0.19059861413E+02  0.10566000000E+00 0. -1.
         13    1    4    4    0    0  0.18024217214E+01 -0.60336527522E+01  0.36239244453E+02  0.36782437279E+02  0.10566000000E+00 0. -1.
        -13    1    4    4    0    0  0.16797825582E+01 -0.74779476636E+01  0.53120312088E+02  0.53670476904E+02  0.10566000000E+00 0.  1.
         14    1    4    4    0    0  0.88942776215E+00 -0.15385802028E+01  0.10969641252E+02  0.11112665746E+02  0.00000000000E+00 0. -1.
<mgrwt>
<rscale>  0 0.80891014E+02</rscale>
<asrwt>0</asrwt>
<pdfrwt beam="1">  1        1 0.23956010E-02 0.80891014E+02</pdfrwt>
<pdfrwt beam="2">  1       -2 0.16162159E-01 0.80891014E+02</pdfrwt>
<totfact> 0.10188300E+05</totfact>
</mgrwt>
</event>
<event>
 8    1  0.7756875E-018  0.7998154E+02  0.7818608E-02  0.1329104E+00
         -2   -1    0    0    0  501 -0.00000000000E+00  0.00000000000E+00  0.17236641787E+02  0.17236641976E+02  0.25500000000E-02 0.  1.
          1   -1    0    0  501    0  0.00000000000E+00 -0.00000000000E+00 -0.92782667065E+02  0.92782667202E+02  0.50400000000E-02 0. -1.
        -24    2    1    2    0    0  0.00000000000E+00  0.00000000000E+00 -0.75546025278E+02  0.11001930918E+03  0.79981538224E+02 0.  0.
         66    2    3    3    0    0  0.39160449845E+02 -0.45545300592E+01 -0.28779352756E+02  0.48852182395E+02  0.20000008890E+01 0.  0.
         13    1    3    3    0    0 -0.39160449845E+02  0.45545300592E+01 -0.46766672522E+02  0.61167126783E+02  0.10566000000E+00 0. -1.
         13    1    4    4    0    0  0.92894127248E+01 -0.61255059409E+00 -0.60464504950E+01  0.11101312293E+02  0.10566000000E+00 0. -1.
        -13    1    4    4    0    0  0.12423132635E+02 -0.14078310938E+01 -0.91055720744E+01  0.15467346886E+02  0.10566000000E+00 0.  1.
         14    1    4    4    0    0  0.17447904485E+02 -0.25341483713E+01 -0.13627330187E+02  0.22283523215E+02  0.00000000000E+00 0. -1.
<mgrwt>
<rscale>  0 0.79981538E+02</rscale>
<asrwt>0</asrwt>
<pdfrwt beam="1">  1        1 0.14274256E-01 0.79981538E+02</pdfrwt>
<pdfrwt beam="2">  1       -2 0.26517911E-02 0.79981538E+02</pdfrwt>
<totfact> 0.14525599E+05</totfact>
</mgrwt>
</event>
<event>
 8    1  0.7756875E-018  0.8142341E+02  0.7818608E-02  0.1325060E+00
          1   -1    0    0  501    0  0.00000000000E+00  0.00000000000E+00  0.24772342910E+02  0.24772343423E+02  0.50400000000E-02 0. -1.
         -2   -1    0    0    0  501 -0.00000000000E+00 -0.00000000000E+00 -0.66906987416E+02  0.66906987464E+02  0.25500000000E-02 0.  1.
        -24    2    1    2    0    0  0.00000000000E+00  0.00000000000E+00 -0.42134644505E+02  0.91679330887E+02  0.81423408455E+02 0.  0.
         66    2    3    3    0    0  0.21339354454E+02  0.28909170974E+02 -0.42571630944E+02  0.55744524138E+02  0.19999988056E+01 0.  0.
         13    1    3    3    0    0 -0.21339354454E+02 -0.28909170974E+02  0.43698643873E+00  0.35934806749E+02  0.10566000000E+00 0. -1.
         13    1    4    4    0    0  0.75353519384E+01  0.99094621707E+01 -0.15585574949E+02  0.19947437928E+02  0.10566000000E+00 0. -1.
        -13    1    4    4    0    0  0.43135046717E+01  0.62710628548E+01 -0.96108150393E+01  0.12260158304E+02  0.10566000000E+00 0.  1.
         14    1    4    4    0    0  0.94904978440E+01  0.12728645949E+02 -0.17375240955E+02  0.23536927906E+02  0.00000000000E+00 0. -1.
<mgrwt>
<rscale>  0 0.81423408E+02</rscale>
<asrwt>0</asrwt>
<pdfrwt beam="1">  1        1 0.38111298E-02 0.81423408E+02</pdfrwt>
<pdfrwt beam="2">  1       -2 0.10293383E-01 0.81423408E+02</pdfrwt>
<totfact> 0.11087274E+05</totfact>
</mgrwt>
</event>
<event>
 8    1  0.7756875E-018  0.8064526E+02  0.7818608E-02  0.1327230E+00
         -2   -1    0    0    0  501 -0.00000000000E+00  0.00000000000E+00  0.55699198716E+01  0.55699204553E+01  0.25500000000E-02 0.  1.
          1   -1    0    0  501    0  0.00000000000E+00 -0.00000000000E+00 -0.29190982112E+03  0.29190982117E+03  0.50400000000E-02 0. -1.
        -24    2    1    2    0    0  0.00000000000E+00  0.35527136788E-14 -0.28633990125E+03  0.29747974162E+03  0.80645257931E+02 0.  0.
         66    2    3    3    0    0  0.12697643846E+02 -0.31197124963E+02 -0.22486314566E+03  0.22738057324E+03  0.20000119127E+01 0.  0.
         13    1    3    3    0    0 -0.12697643846E+02  0.31197124963E+02 -0.61476755596E+02  0.70099168382E+02  0.10566000000E+00 0. -1.
         13    1    4    4    0    0  0.21838999037E+01 -0.48190411977E+01 -0.35604077298E+02  0.35995194973E+02  0.10566000000E+00 0. -1.
        -13    1    4    4    0    0  0.15568371360E+01 -0.36909292150E+01 -0.22956715919E+02  0.23303833808E+02  0.10566000000E+00 0.  1.
        -14    1    4    4    0    0  0.89569068064E+01 -0.22687154550E+02 -0.16630235244E+03  0.16808154446E+03  0.00000000000E+00 0.  1.
<mgrwt>
<rscale>  0 0.80645258E+02</rscale>
<asrwt>0</asrwt>
<pdfrwt beam="1">  1        1 0.44909191E-01 0.80645258E+02</pdfrwt>
<pdfrwt beam="2">  1       -2 0.85691102E-03 0.80645258E+02</pdfrwt>
<totfact> 0.17571186E+05</totfact>
</mgrwt>
</event>
<event>
 8    1  0.7756875E-018  0.7899965E+02  0.7818608E-02  0.1331914E+00
          1   -1    0    0  501    0  0.00000000000E+00  0.00000000000E+00  0.51246143857E+02  0.51246144105E+02  0.50400000000E-02 0. -1.
         -2   -1    0    0    0  501 -0.00000000000E+00 -0.00000000000E+00 -0.30445923056E+02  0.30445923162E+02  0.25500000000E-02 0.  1.
        -24    2    1    2    0    0  0.00000000000E+00  0.00000000000E+00  0.20800220802E+02  0.81692067268E+02  0.78999649803E+02 0.  0.
         66    2    3    3    0    0 -0.66667209233E+01  0.18783685429E+02 -0.24827344067E+02  0.31900925023E+02  0.19999994291E+01 0.  0.
         13    1    3    3    0    0  0.66667209233E+01 -0.18783685429E+02  0.45627564869E+02  0.49791142245E+02  0.10566000000E+00 0. -1.
         13    1    4    4    0    0 -0.30053091858E-01  0.51151234048E+00 -0.69215920187E+00  0.86763843802E+00  0.10566000000E+00 0.  1.
        -13    1    4    4    0    0 -0.15483941981E+01  0.32534966758E+01 -0.36776453574E+01  0.51496606318E+01  0.10566000000E+00 0.  1.
         14    1    4    4    0    0 -0.50882736334E+01  0.15018676412E+02 -0.20457539508E+02  0.25883625953E+02  0.00000000000E+00 0. -1.
<mgrwt>
<rscale>  0 0.78999650E+02</rscale>
<asrwt>0</asrwt>
<pdfrwt beam="1">  1        1 0.78840221E-02 0.78999650E+02</pdfrwt>
<pdfrwt beam="2">  1       -2 0.46839882E-02 0.78999650E+02</pdfrwt>
<totfact> 0.13677478E+05</totfact>
</mgrwt>
</event>
<event>
 8    1  0.7756875E-018  0.7925255E+02  0.7818608E-02  0.1331186E+00
          1   -1    0    0  501    0  0.00000000000E+00  0.00000000000E+00  0.24755426173E+01  0.24755477478E+01  0.50400000000E-02 0. -1.
         -2   -1    0    0    0  501 -0.00000000000E+00 -0.00000000000E+00 -0.63430139449E+03  0.63430139450E+03  0.25500000000E-02 0.  1.
        -24    2    1    2    0    0  0.00000000000E+00 -0.35527136788E-14 -0.63182585188E+03  0.63677694225E+03  0.79252552499E+02 0.  0.
         66    2    3    3    0    0  0.30503988636E+01 -0.27715395139E+02 -0.54205937354E+03  0.54277970900E+03  0.19999997585E+01 0.  0.
         13    1    3    3    0    0 -0.30503988636E+01  0.27715395139E+02 -0.89766478334E+02  0.93997233244E+02  0.10566000000E+00 0. -1.
         13    1    4    4    0    0  0.47018492608E-01 -0.27068788074E+00 -0.85520202694E+01  0.85570846315E+01  0.10566000000E+00 0.  1.
        -13    1    4    4    0    0  0.29213089485E+01 -0.24047676286E+02 -0.47301510770E+03  0.47363501566E+03  0.10566000000E+00 0.  1.
        -14    1    4    4    0    0  0.82071422553E-01 -0.33970309724E+01 -0.60492245575E+02  0.60587608716E+02  0.00000000000E+00 0.  1.
<mgrwt>
<rscale>  0 0.79252552E+02</rscale>
<asrwt>0</asrwt>
<pdfrwt beam="1">  1        1 0.38085361E-03 0.79252552E+02</pdfrwt>
<pdfrwt beam="2">  1       -2 0.97584700E-01 0.79252552E+02</pdfrwt>
<totfact> 0.42430405E+04</totfact>
</mgrwt>
</event>
<event>
 8    1  0.7756875E-018  0.8106852E+02  0.7818608E-02  0.1326046E+00
          1   -1    0    0  501    0  0.00000000000E+00  0.00000000000E+00  0.10915574671E+03  0.10915574683E+03  0.50400000000E-02 0. -1.
         -2   -1    0    0    0  501 -0.00000000000E+00 -0.00000000000E+00 -0.15052126851E+02  0.15052127067E+02  0.25500000000E-02 0.  1.
        -24    2    1    2    0    0 -0.71054273576E-14  0.00000000000E+00  0.94103619859E+02  0.12420787389E+03  0.81068518345E+02 0.  0.
         66    2    3    3    0    0 -0.37480443926E+02  0.62718227327E+01  0.25581200134E+02  0.45853214771E+02  0.20000167974E+01 0.  0.
         13    1    3    3    0    0  0.37480443926E+02 -0.62718227327E+01  0.68522419725E+02  0.78354659123E+02  0.10566000000E+00 0. -1.
         13    1    4    4    0    0 -0.22274002455E+02  0.31907273581E+01  0.15852095763E+02  0.27524753052E+02  0.10566000000E+00 0. -1.
        -13    1    4    4    0    0 -0.69851183714E+01  0.11495570316E+01  0.41433069457E+01  0.82031406493E+01  0.10566000000E+00 0.  1.
         14    1    4    4    0    0 -0.82213231005E+01  0.19315383430E+01  0.55857974252E+01  0.10125321070E+02  0.00000000000E+00 0. -1.
<mgrwt>
<rscale>  0 0.81068518E+02</rscale>
<asrwt>0</asrwt>
<pdfrwt beam="1">  1        1 0.16793192E-01 0.81068518E+02</pdfrwt>
<pdfrwt beam="2">  1       -2 0.23157119E-02 0.81068518E+02</pdfrwt>
<totfact> 0.14394869E+05</totfact>
</mgrwt>
</event>
<event>
 8    1  0.7756875E-018  0.7952972E+02  0.7818608E-02  0.1330391E+00
         -2   -1    0    0    0  501 -0.00000000000E+00  0.00000000000E+00  0.98823068405E+02  0.98823068438E+02  0.25500000000E-02 0.  1.
          1   -1    0    0  501    0  0.00000000000E+00 -0.00000000000E+00 -0.16000756902E+02  0.16000757696E+02  0.50400000000E-02 0. -1.
        -24    2    1    2    0    0  0.00000000000E+00  0.88817841970E-15  0.82822311503E+02  0.11482382613E+03  0.79529716240E+02 0.  0.
         66    2    3    3    0    0 -0.19064252821E+02 -0.55029316986E+01  0.91148600678E+02  0.93304851985E+02  0.20000013692E+01 0.  0.
         13    1    3    3    0    0  0.19064252821E+02  0.55029316986E+01 -0.83262891752E+01  0.21518974148E+02  0.10566000000E+00 0. -1.
         13    1    4    4    0    0 -0.67524615796E+01 -0.20408877165E+01  0.30192694304E+02  0.31005981897E+02  0.10566000000E+00 0. -1.
        -13    1    4    4    0    0 -0.10525884388E+02 -0.26398728578E+01  0.53380618609E+02  0.54472605757E+02  0.10566000000E+00 0.  1.
        -14    1    4    4    0    0 -0.17859068536E+01 -0.82217112430E+00  0.75752877660E+01  0.78262643314E+01  0.00000000000E+00 0.  1.
<mgrwt>
<rscale>  0 0.79529716E+02</rscale>
<asrwt>0</asrwt>
<pdfrwt beam="1">  1        1 0.24616549E-02 0.79529716E+02</pdfrwt>
<pdfrwt beam="2">  1       -2 0.15203549E-01 0.79529716E+02</pdfrwt>
<totfact> 0.10805694E+05</totfact>
</mgrwt>
</event>
<event>
 8    1  0.7756875E-018  0.8084790E+02  0.7818608E-02  0.1326662E+00
          1   -1    0    0  501    0  0.00000000000E+00  0.00000000000E+00  0.15247784274E+03  0.15247784282E+03  0.50400000000E-02 0. -1.
         -2   -1    0    0    0  501 -0.00000000000E+00 -0.00000000000E+00 -0.10716939635E+02  0.10716939939E+02  0.25500000000E-02 0.  1.
        -24    2    1    2    0    0  0.00000000000E+00  0.00000000000E+00  0.14176090310E+03  0.16319478276E+03  0.80847903323E+02 0.  0.
         66    2    3    3    0    0  0.27787806947E+02 -0.29235847006E+02  0.75524004786E+02  0.85643284853E+02  0.19999940824E+01 0.  0.
         13    1    3    3    0    0 -0.27787806947E+02  0.29235847006E+02  0.66236898317E+02  0.77551497908E+02  0.10566000000E+00 0. -1.
         13    1    4    4    0    0  0.13313179728E+02 -0.14405026967E+02  0.38643112535E+02  0.43336438095E+02  0.10566000000E+00 0. -1.
        -13    1    4    4    0    0  0.67773463941E+01 -0.70776974784E+01  0.17824172499E+02  0.20340563292E+02  0.10566000000E+00 0.  1.
         14    1    4    4    0    0  0.76972808243E+01 -0.77531225610E+01  0.19056719753E+02  0.21966283465E+02  0.00000000000E+00 0. -1.
<mgrwt>
<rscale>  0 0.80847903E+02</rscale>
<asrwt>0</asrwt>
<pdfrwt beam="1">  1        1 0.23458128E-01 0.80847903E+02</pdfrwt>
<pdfrwt beam="2">  1       -2 0.16487601E-02 0.80847903E+02</pdfrwt>
<totfact> 0.15396317E+05</totfact>
</mgrwt>
</event>
<event>
 8    1  0.7756875E-018  0.7597427E+02  0.7818608E-02  0.1340880E+00
         -2   -1    0    0    0  501 -0.00000000000E+00  0.00000000000E+00  0.90275952593E+01  0.90275956194E+01  0.25500000000E-02 0.  1.
          1   -1    0    0  501    0  0.00000000000E+00 -0.00000000000E+00 -0.15984571266E+03  0.15984571274E+03  0.50400000000E-02 0. -1.
        -24    2    1    2    0    0  0.00000000000E+00  0.27755575616E-16 -0.15081811740E+03  0.16887330836E+03  0.75974270248E+02 0.  0.
         66    2    3    3    0    0  0.37655545765E+02  0.13639498232E+00 -0.64787521173E+02  0.74962534846E+02  0.20000000926E+01 0.  0.
         13    1    3    3    0    0 -0.37655545765E+02 -0.13639498232E+00 -0.86030596228E+02  0.93910773513E+02  0.10566000000E+00 0. -1.
         13    1    4    4    0    0  0.18420551632E+02 -0.13627821118E+00 -0.33015047598E+02  0.37806610879E+02  0.10566000000E+00 0. -1.
        -13    1    4    4    0    0  0.84174414845E+01 -0.66177218107E-01 -0.14786670348E+02  0.17015125171E+02  0.10566000000E+00 0.  1.
        -14    1    4    4    0    0  0.10817552648E+02  0.33885041160E+00 -0.16985803227E+02  0.20140798796E+02  0.00000000000E+00 0.  1.
<mgrwt>
<rscale>  0 0.75974270E+02</rscale>
<asrwt>0</asrwt>
<pdfrwt beam="1">  1        1 0.24591646E-01 0.75974270E+02</pdfrwt>
<pdfrwt beam="2">  1       -2 0.13888609E-02 0.75974270E+02</pdfrwt>
<totfact> 0.18327962E+05</totfact>
</mgrwt>
</event>
<event>
 8    1  0.7756875E-018  0.7985384E+02  0.7818608E-02  0.1329467E+00
          1   -1    0    0  501    0  0.00000000000E+00  0.00000000000E+00  0.15749634120E+02  0.15749634927E+02  0.50400000000E-02 0. -1.
         -2   -1    0    0    0  501 -0.00000000000E+00 -0.00000000000E+00 -0.10121878990E+03  0.10121878994E+03  0.25500000000E-02 0.  1.
        -24    2    1    2    0    0 -0.17763568394E-14 -0.71054273576E-14 -0.85469155784E+02  0.11696842486E+03  0.79853840387E+02 0.  0.
         66    2    3    3    0    0 -0.11764888009E+02 -0.33714774143E+02 -0.68843281832E+02  0.77578966450E+02  0.19999991635E+01 0.  0.
         13    1    3    3    0    0  0.11764888009E+02  0.33714774143E+02 -0.16625873951E+02  0.39389458413E+02  0.10566000000E+00 0. -1.
         13    1    4    4    0    0 -0.88665765630E-01 -0.64218531531E+00 -0.14869489123E+01  0.16255598115E+01  0.10566000000E+00 0.  1.
        -13    1    4    4    0    0 -0.71709409988E+01 -0.20713715367E+02 -0.40669161434E+02  0.46200349077E+02  0.10566000000E+00 0.  1.
        -14    1    4    4    0    0 -0.45052812445E+01 -0.12358873461E+02 -0.26687171486E+02  0.29753057561E+02  0.00000000000E+00 0.  1.
<mgrwt>
<rscale>  0 0.79853840E+02</rscale>
<asrwt>0</asrwt>
<pdfrwt beam="1">  1        1 0.24230208E-02 0.79853840E+02</pdfrwt>
<pdfrwt beam="2">  1       -2 0.15572121E-01 0.79853840E+02</pdfrwt>
<totfact> 0.10630427E+05</totfact>
</mgrwt>
</event>
<event>
 8    1  0.7756875E-018  0.7519636E+02  0.7818608E-02  0.1343264E+00
         -2   -1    0    0    0  501 -0.00000000000E+00  0.00000000000E+00  0.18980325508E+03  0.18980325510E+03  0.25500000000E-02 0.  1.
          1   -1    0    0  501    0  0.00000000000E+00 -0.00000000000E+00 -0.74478333747E+01  0.74478350800E+01  0.50400000000E-02 0. -1.
        -24    2    1    2    0    0 -0.71054273576E-14  0.17763568394E-14  0.18235542170E+03  0.19725109018E+03  0.75196361286E+02 0.  0.
         66    2    3    3    0    0  0.35686463846E+02 -0.87254978090E+01  0.11189009318E+03  0.11778391644E+03  0.20000014149E+01 0.  0.
         13    1    3    3    0    0 -0.35686463846E+02  0.87254978090E+01  0.70465328520E+02  0.79467173735E+02  0.10566000000E+00 0. -1.
         13    1    4    4    0    0  0.11286784969E+02 -0.30930633052E+01  0.38016487306E+02  0.39777167153E+02  0.10566000000E+00 0. -1.
        -13    1    4    4    0    0  0.17756263622E+02 -0.42194251221E+01  0.54885087605E+02  0.57840059229E+02  0.10566000000E+00 0.  1.
         14    1    4    4    0    0  0.66434152548E+01 -0.14130093816E+01  0.18988518272E+02  0.20166690059E+02  0.00000000000E+00 0. -1.
<mgrwt>
<rscale>  0 0.75196361E+02</rscale>
<asrwt>0</asrwt>
<pdfrwt beam="1">  1        1 0.11458205E-02 0.75196361E+02</pdfrwt>
<pdfrwt beam="2">  1       -2 0.29200505E-01 0.75196361E+02</pdfrwt>
<totfact> 0.10187330E+05</totfact>
</mgrwt>
</event>
<event>
 8    1  0.7756875E-018  0.7884566E+02  0.7818608E-02  0.1332360E+00
          1   -1    0    0  501    0  0.00000000000E+00  0.00000000000E+00  0.10819634966E+02  0.10819636140E+02  0.50400000000E-02 0. -1.
         -2   -1    0    0    0  501 -0.00000000000E+00 -0.00000000000E+00 -0.14364248578E+03  0.14364248581E+03  0.25500000000E-02 0.  1.
        -24    2    1    2    0    0  0.35527136788E-14  0.00000000000E+00 -0.13282285082E+03  0.15446212195E+03  0.78845655661E+02 0.  0.
         66    2    3    3    0    0 -0.28263133110E+02 -0.17928758891E+02 -0.10716773214E+03  0.11229055134E+03  0.20000052464E+01 0.  0.
         13    1    3    3    0    0  0.28263133110E+02  0.17928758891E+02 -0.25655118681E+02  0.42171570603E+02  0.10566000000E+00 0. -1.
         13    1    4    4    0    0 -0.12229847136E+02 -0.88428457346E+01 -0.47879161138E+02  0.50201497159E+02  0.10566000000E+00 0. -1.
        -13    1    4    4    0    0 -0.12839209222E+02 -0.75121399824E+01 -0.47975350568E+02  0.50228706600E+02  0.10566000000E+00 0.  1.
         14    1    4    4    0    0 -0.31940767526E+01 -0.15737731739E+01 -0.11313220430E+02  0.11860347584E+02  0.00000000000E+00 0. -1.
<mgrwt>
<rscale>  0 0.78845656E+02</rscale>
<asrwt>0</asrwt>
<pdfrwt beam="1">  1        1 0.16645594E-02 0.78845656E+02</pdfrwt>
<pdfrwt beam="2">  1       -2 0.22098843E-01 0.78845656E+02</pdfrwt>
<totfact> 0.99493999E+04</totfact>
</mgrwt>
</event>
<event>
 8    1  0.7756875E-018  0.7772252E+02  0.7818608E-02  0.1335642E+00
          1   -1    0    0  501    0  0.00000000000E+00  0.00000000000E+00  0.48510980768E+02  0.48510981030E+02  0.50400000000E-02 0. -1.
         -2   -1    0    0    0  501 -0.00000000000E+00 -0.00000000000E+00 -0.31131041581E+02  0.31131041685E+02  0.25500000000E-02 0.  1.
        -24    2    1    2    0    0  0.17763568394E-14  0.00000000000E+00  0.17379939187E+02  0.79642022716E+02  0.77722516017E+02 0.  0.
         66    2    3    3    0    0 -0.12732440247E+02 -0.34102586996E+02 -0.51695804962E+01  0.36821543078E+02  0.19999994147E+01 0.  0.
         13    1    3    3    0    0  0.12732440247E+02  0.34102586996E+02  0.22549519684E+02  0.42820479638E+02  0.10566000000E+00 0. -1.
         13    1    4    4    0    0 -0.44231233425E+01 -0.97437470587E+01 -0.18443216897E+01  0.10858973864E+02  0.10566000000E+00 0. -1.
        -13    1    4    4    0    0 -0.40686806168E+01 -0.12283150919E+02 -0.20369793959E+01  0.13099252176E+02  0.10566000000E+00 0.  1.
         14    1    4    4    0    0 -0.42406362877E+01 -0.12075689018E+02 -0.12882794105E+01  0.12863317038E+02  0.00000000000E+00 0. -1.
<mgrwt>
<rscale>  0 0.77722516E+02</rscale>
<asrwt>0</asrwt>
<pdfrwt beam="1">  1        1 0.74632278E-02 0.77722516E+02</pdfrwt>
<pdfrwt beam="2">  1       -2 0.47893910E-02 0.77722516E+02</pdfrwt>
<totfact> 0.14189025E+05</totfact>
</mgrwt>
</event>
<event>
 8    1  0.7756875E-018  0.7988863E+02  0.7818608E-02  0.1329368E+00
         -2   -1    0    0    0  501 -0.00000000000E+00  0.00000000000E+00  0.22419189111E+03  0.22419189112E+03  0.25500000000E-02 0.  1.
          1   -1    0    0  501    0  0.00000000000E+00 -0.00000000000E+00 -0.71168851603E+01  0.71168869449E+01  0.50400000000E-02 0. -1.
        -24    2    1    2    0    0  0.00000000000E+00  0.00000000000E+00  0.21707500595E+03  0.23130877807E+03  0.79888626248E+02 0.  0.
         66    2    3    3    0    0 -0.30788277293E+02  0.25386962243E+02  0.10553114720E+03  0.11284165411E+03  0.20000005111E+01 0.  0.
         13    1    3    3    0    0  0.30788277293E+02 -0.25386962243E+02  0.11154385874E+03  0.11846712396E+03  0.10566000000E+00 0. -1.
         13    1    4    4    0    0 -0.87826455181E+01  0.77890296627E+01  0.31529414120E+02  0.33644003391E+02  0.10566000000E+00 0. -1.
        -13    1    4    4    0    0 -0.16099774155E+02  0.13425574720E+02  0.56278605551E+02  0.60056151985E+02  0.10566000000E+00 0.  1.
        -14    1    4    4    0    0 -0.59058576204E+01  0.41723578606E+01  0.17723127531E+02  0.19141498735E+02  0.00000000000E+00 0.  1.
<mgrwt>
<rscale>  0 0.79888626E+02</rscale>
<asrwt>0</asrwt>
<pdfrwt beam="1">  1        1 0.10949058E-02 0.79888626E+02</pdfrwt>
<pdfrwt beam="2">  1       -2 0.34491053E-01 0.79888626E+02</pdfrwt>
<totfact> 0.81357353E+04</totfact>
</mgrwt>
</event>
<event>
 8    1  0.7756875E-018  0.7684767E+02  0.7818608E-02  0.1338243E+00
          1   -1    0    0  501    0  0.00000000000E+00  0.00000000000E+00  0.96150504560E+02  0.96150504692E+02  0.50400000000E-02 0. -1.
         -2   -1    0    0    0  501 -0.00000000000E+00 -0.00000000000E+00 -0.15355000299E+02  0.15355000511E+02  0.25500000000E-02 0.  1.
        -24    2    1    2    0    0 -0.88817841970E-15  0.00000000000E+00  0.80795504261E+02  0.11150550520E+03  0.76847668681E+02 0.  0.
         66    2    3    3    0    0  0.41009825432E+01  0.34871385061E+02  0.17873651350E+02  0.39449955161E+02  0.19999989386E+01 0.  0.
         13    1    3    3    0    0 -0.41009825432E+01 -0.34871385061E+02  0.62921852912E+02  0.72055550041E+02  0.10566000000E+00 0. -1.
         13    1    4    4    0    0  0.16847671297E+00  0.38544825831E+01  0.14459888389E+01  0.41215856347E+01  0.10566000000E+00 0. -1.
        -13    1    4    4    0    0  0.36175933650E+01  0.29825488287E+02  0.15777674399E+02  0.33935127918E+02  0.10566000000E+00 0.  1.
        -14    1    4    4    0    0  0.31491246522E+00  0.11914141914E+01  0.64998811134E+00  0.13932416091E+01  0.00000000000E+00 0.  1.
<mgrwt>
<rscale>  0 0.76847669E+02</rscale>
<asrwt>0</asrwt>
<pdfrwt beam="1">  1        1 0.14792385E-01 0.76847669E+02</pdfrwt>
<pdfrwt beam="2">  1       -2 0.23623078E-02 0.76847669E+02</pdfrwt>
<totfact> 0.16276283E+05</totfact>
</mgrwt>
</event>
<event>
 8    1  0.7756875E-018  0.8249340E+02  0.7818608E-02  0.1322121E+00
         -2   -1    0    0    0  501 -0.00000000000E+00  0.00000000000E+00  0.50440803989E+02  0.50440804053E+02  0.25500000000E-02 0.  1.
          1   -1    0    0  501    0  0.00000000000E+00 -0.00000000000E+00 -0.33728448473E+02  0.33728448850E+02  0.50400000000E-02 0. -1.
        -24    2    1    2    0    0  0.10658141036E-13 -0.71054273576E-14  0.16712355515E+02  0.84169252903E+02  0.82493395538E+02 0.  0.
         66    2    3    3    0    0 -0.28104819796E+02  0.23625935477E+02 -0.10760493741E+02  0.38312581270E+02  0.19999837679E+01 0.  0.
         13    1    3    3    0    0  0.28104819796E+02 -0.23625935477E+02  0.27472849257E+02  0.45856671633E+02  0.10566000000E+00 0. -1.
         13    1    4    4    0    0 -0.67500841167E+01  0.63671518530E+01 -0.20487956681E+01  0.95033144759E+01  0.10566000000E+00 0. -1.
        -13    1    4    4    0    0 -0.61944531986E+01  0.49712007426E+01 -0.23377958731E+01  0.82801292764E+01  0.10566000000E+00 0.  1.
         14    1    4    4    0    0 -0.15160282481E+02  0.12287582881E+02 -0.63739022000E+01  0.20529137518E+02  0.00000000000E+00 0. -1.
<mgrwt>
<rscale>  0 0.82493396E+02</rscale>
<asrwt>0</asrwt>
<pdfrwt beam="1">  1        1 0.51889921E-02 0.82493396E+02</pdfrwt>
<pdfrwt beam="2">  1       -2 0.77601237E-02 0.82493396E+02</pdfrwt>
<totfact> 0.11306222E+05</totfact>
</mgrwt>
</event>
<event>
 8    1  0.7756875E-018  0.8106926E+02  0.7818608E-02  0.1326044E+00
          1   -1    0    0  501    0  0.00000000000E+00  0.00000000000E+00  0.35850053843E+01  0.35850089271E+01  0.50400000000E-02 0. -1.
         -2   -1    0    0    0  501 -0.00000000000E+00 -0.00000000000E+00 -0.45831318016E+03  0.45831318017E+03  0.25500000000E-02 0.  1.
        -24    2    1    2    0    0 -0.88817841970E-15  0.00000000000E+00 -0.45472817478E+03  0.46189818909E+03  0.81069255292E+02 0.  0.
         66    2    3    3    0    0 -0.63198775421E+01 -0.14034177120E+02 -0.44100172149E+03  0.44127476398E+03  0.19999971422E+01 0.  0.
         13    1    3    3    0    0  0.63198775421E+01  0.14034177120E+02 -0.13726453284E+02  0.20623425113E+02  0.10566000000E+00 0. -1.
         13    1    4    4    0    0 -0.25105568582E+00 -0.96830372814E+00 -0.42680517909E+02  0.42692369506E+02  0.10566000000E+00 0. -1.
        -13    1    4    4    0    0 -0.11623584836E+01 -0.21251509232E+01 -0.73327097137E+02  0.73367170330E+02  0.10566000000E+00 0.  1.
         14    1    4    4    0    0 -0.49064633727E+01 -0.10940722469E+02 -0.32499410645E+03  0.32521522415E+03  0.00000000000E+00 0. -1.
<mgrwt>
<rscale>  0 0.81069255E+02</rscale>
<asrwt>0</asrwt>
<pdfrwt beam="1">  1        1 0.55153993E-03 0.81069255E+02</pdfrwt>
<pdfrwt beam="2">  1       -2 0.70509674E-01 0.81069255E+02</pdfrwt>
<totfact> 0.51955292E+04</totfact>
</mgrwt>
</event>
<event>
 8    1  0.7756875E-018  0.8021616E+02  0.7818608E-02  0.1328439E+00
          1   -1    0    0  501    0  0.00000000000E+00  0.00000000000E+00  0.20114413537E+02  0.20114414168E+02  0.50400000000E-02 0. -1.
         -2   -1    0    0    0  501 -0.00000000000E+00 -0.00000000000E+00 -0.79975396981E+02  0.79975397022E+02  0.25500000000E-02 0.  1.
        -24    2    1    2    0    0  0.00000000000E+00  0.35527136788E-14 -0.59860983444E+02  0.10008981119E+03  0.80216163989E+02 0.  0.
         66    2    3    3    0    0  0.19551432090E+02 -0.25300604586E+02 -0.60109392412E+02  0.68114008460E+02  0.20000007843E+01 0.  0.
         13    1    3    3    0    0 -0.19551432090E+02  0.25300604586E+02  0.24840896821E+00  0.31975802730E+02  0.10566000000E+00 0. -1.
         13    1    4    4    0    0  0.18555599012E+01 -0.27336110242E+01 -0.64835116764E+01  0.72775558721E+01  0.10566000000E+00 0. -1.
        -13    1    4    4    0    0  0.29368848416E+01 -0.33660857055E+01 -0.96082928288E+01  0.10596522103E+02  0.10566000000E+00 0.  1.
        -14    1    4    4    0    0  0.14758987347E+02 -0.19200907856E+02 -0.44017587907E+02  0.50239930485E+02  0.00000000000E+00 0.  1.
<mgrwt>
<rscale>  0 0.80216164E+02</rscale>
<asrwt>0</asrwt>
<pdfrwt beam="1">  1        1 0.30945253E-02 0.80216164E+02</pdfrwt>
<pdfrwt beam="2">  1       -2 0.12303907E-01 0.80216164E+02</pdfrwt>
<totfact> 0.11100161E+05</totfact>
</mgrwt>
</event>
<event>
 8    1  0.7756875E-018  0.8141398E+02  0.7818608E-02  0.1325086E+00
         -2   -1    0    0    0  501 -0.00000000000E+00  0.00000000000E+00  0.22167341146E+02  0.22167341292E+02  0.25500000000E-02 0.  1.
          1   -1    0    0  501    0  0.00000000000E+00 -0.00000000000E+00 -0.74752267764E+02  0.74752267934E+02  0.50400000000E-02 0. -1.
        -24    2    1    2    0    0  0.35527136788E-14 -0.35527136788E-14 -0.52584926618E+02  0.96919609226E+02  0.81413980035E+02 0.  0.
         66    2    3    3    0    0  0.31765886885E+02 -0.18696507747E+02 -0.58123064111E+01  0.37368621521E+02  0.19999992595E+01 0.  0.
         13    1    3    3    0    0 -0.31765886885E+02  0.18696507747E+02 -0.46772620207E+02  0.59550987705E+02  0.10566000000E+00 0. -1.
         13    1    4    4    0    0  0.77783457793E+01 -0.49085993647E+01 -0.13421642936E+01  0.92956753285E+01  0.10566000000E+00 0. -1.
        -13    1    4    4    0    0  0.13487734382E+02 -0.85805591847E+01 -0.29218328896E+01  0.16250946008E+02  0.10566000000E+00 0.  1.
         14    1    4    4    0    0  0.10499806724E+02 -0.52073491981E+01 -0.15483092280E+01  0.11822000185E+02  0.00000000000E+00 0. -1.
<mgrwt>
<rscale>  0 0.81413980E+02</rscale>
<asrwt>0</asrwt>
<pdfrwt beam="1">  1        1 0.11500349E-01 0.81413980E+02</pdfrwt>
<pdfrwt beam="2">  1       -2 0.34103602E-02 0.81413980E+02</pdfrwt>
<totfact> 0.13360477E+05</totfact>
</mgrwt>
</event>
<event>
 8    1  0.7756875E-018  0.8204195E+02  0.7818608E-02  0.1323355E+00
         -2   -1    0    0    0  501 -0.00000000000E+00  0.00000000000E+00  0.23531642728E+02  0.23531642866E+02  0.25500000000E-02 0.  1.
          1   -1    0    0  501    0  0.00000000000E+00 -0.00000000000E+00 -0.71508830291E+02  0.71508830468E+02  0.50400000000E-02 0. -1.
        -24    2    1    2    0    0  0.00000000000E+00  0.00000000000E+00 -0.47977187563E+02  0.95040473334E+02  0.82041946863E+02 0.  0.
         66    2    3    3    0    0 -0.17248995772E+02 -0.36856169358E+02 -0.18232651572E+02  0.44635576149E+02  0.19999999807E+01 0.  0.
         13    1    3    3    0    0  0.17248995772E+02  0.36856169358E+02 -0.29744535991E+02  0.50404897185E+02  0.10566000000E+00 0. -1.
         13    1    4    4    0    0 -0.64549849016E+01 -0.11636625993E+02 -0.58929660608E+01  0.14553903518E+02  0.10566000000E+00 0. -1.
        -13    1    4    4    0    0 -0.90282134957E+01 -0.21187137604E+02 -0.10472853805E+02  0.25300104142E+02  0.10566000000E+00 0.  1.
        -14    1    4    4    0    0 -0.17657973743E+01 -0.40324057615E+01 -0.18668317068E+01  0.47815684889E+01  0.00000000000E+00 0.  1.
<mgrwt>
<rscale>  0 0.82041947E+02</rscale>
<asrwt>0</asrwt>
<pdfrwt beam="1">  1        1 0.11001358E-01 0.82041947E+02</pdfrwt>
<pdfrwt beam="2">  1       -2 0.36202528E-02 0.82041947E+02</pdfrwt>
<totfact> 0.12988602E+05</totfact>
</mgrwt>
</event>
<event>
 8    1  0.7756875E-018  0.7249821E+02  0.7818608E-02  0.1351798E+00
         -2   -1    0    0    0  501 -0.00000000000E+00  0.00000000000E+00  0.96050659435E+01  0.96050662820E+01  0.25500000000E-02 0.  1.
          1   -1    0    0  501    0  0.00000000000E+00 -0.00000000000E+00 -0.13680256964E+03  0.13680256973E+03  0.50400000000E-02 0. -1.
        -24    2    1    2    0    0  0.00000000000E+00  0.00000000000E+00 -0.12719750369E+03  0.14640763601E+03  0.72498213335E+02 0.  0.
         66    2    3    3    0    0  0.32313613141E+02  0.65510631967E+01 -0.33361304484E+02  0.46947445638E+02  0.19999979449E+01 0.  0.
         13    1    3    3    0    0 -0.32313613141E+02 -0.65510631967E+01 -0.93836199210E+02  0.99460190375E+02  0.10566000000E+00 0. -1.
         13    1    4    4    0    0  0.55615603659E+00  0.20756189985E+00 -0.81811787933E+00  0.10163032910E+01  0.10566000000E+00 0. -1.
        -13    1    4    4    0    0  0.11552659545E+02  0.25973667853E+01 -0.11079786374E+02  0.16216753279E+02  0.10566000000E+00 0.  1.
        -14    1    4    4    0    0  0.20204797559E+02  0.37461345116E+01 -0.21463400231E+02  0.29714389067E+02  0.00000000000E+00 0.  1.
<mgrwt>
<rscale>  0 0.72498213E+02</rscale>
<asrwt>0</asrwt>
<pdfrwt beam="1">  1        1 0.21046548E-01 0.72498213E+02</pdfrwt>
<pdfrwt beam="2">  1       -2 0.14777026E-02 0.72498213E+02</pdfrwt>
<totfact> 0.20174173E+05</totfact>
</mgrwt>
</event>
<event>
 8    1  0.7756875E-018  0.7360350E+02  0.7818608E-02  0.1348251E+00
         -2   -1    0    0    0  501 -0.00000000000E+00  0.00000000000E+00  0.13818004912E+02  0.13818005148E+02  0.25500000000E-02 0.  1.
          1   -1    0    0  501    0  0.00000000000E+00 -0.00000000000E+00 -0.98014786805E+02  0.98014786934E+02  0.50400000000E-02 0. -1.
        -24    2    1    2    0    0  0.00000000000E+00  0.00000000000E+00 -0.84196781893E+02  0.11183279208E+03  0.73603500622E+02 0.  0.
         66    2    3    3    0    0 -0.16516818528E+02 -0.16268862044E+02  0.12434938581E+01  0.23302949368E+02  0.20000014542E+01 0.  0.
         13    1    3    3    0    0  0.16516818528E+02  0.16268862044E+02 -0.85440275751E+02  0.88529842713E+02  0.10566000000E+00 0. -1.
         13    1    4    4    0    0 -0.71290352633E+01 -0.58810224101E+01  0.10069708788E+01  0.92970276304E+01  0.10566000000E+00 0. -1.
        -13    1    4    4    0    0 -0.80526549074E+01 -0.87937245171E+01  0.16474490338E+00  0.11925315378E+02  0.10566000000E+00 0.  1.
         14    1    4    4    0    0 -0.13351283573E+01 -0.15941151164E+01  0.71778075920E-01  0.20806063604E+01  0.00000000000E+00 0. -1.
<mgrwt>
<rscale>  0 0.73603501E+02</rscale>
<asrwt>0</asrwt>
<pdfrwt beam="1">  1        1 0.15079198E-01 0.73603501E+02</pdfrwt>
<pdfrwt beam="2">  1       -2 0.21258470E-02 0.73603501E+02</pdfrwt>
<totfact> 0.18327818E+05</totfact>
</mgrwt>
</event>
<event>
 8    1  0.7756875E-018  0.8070853E+02  0.7818608E-02  0.1327053E+00
         -2   -1    0    0    0  501 -0.00000000000E+00  0.00000000000E+00  0.39346293379E+02  0.39346293462E+02  0.25500000000E-02 0.  1.
          1   -1    0    0  501    0  0.00000000000E+00 -0.00000000000E+00 -0.41388062254E+02  0.41388062560E+02  0.50400000000E-02 0. -1.
        -24    2    1    2    0    0  0.00000000000E+00 -0.35527136788E-14 -0.20417688744E+01  0.80734356022E+02  0.80708533763E+02 0.  0.
         66    2    3    3    0    0 -0.18810944743E+02  0.25005427233E+02  0.24429485237E+02  0.39748242624E+02  0.20000023741E+01 0.  0.
         13    1    3    3    0    0  0.18810944743E+02 -0.25005427233E+02 -0.26471254112E+02  0.40986113398E+02  0.10566000000E+00 0. -1.
         13    1    4    4    0    0 -0.50677597781E+01  0.74265841016E+01  0.68503357767E+01  0.11303742959E+02  0.10566000000E+00 0.  1.
        -13    1    4    4    0    0 -0.32474499775E+01  0.36135463439E+01  0.44771855003E+01  0.66075716096E+01  0.10566000000E+00 0. -1.
         14    1    4    4    0    0 -0.10495734987E+02  0.13965296788E+02  0.13101963960E+02  0.21836928056E+02  0.00000000000E+00 0. -1.
<mgrwt>
<rscale>  0 0.80708534E+02</rscale>
<asrwt>0</asrwt>
<pdfrwt beam="1">  1        1 0.63673943E-02 0.80708534E+02</pdfrwt>
<pdfrwt beam="2">  1       -2 0.60532759E-02 0.80708534E+02</pdfrwt>
<totfact> 0.12454944E+05</totfact>
</mgrwt>
</event>
<event>
 8    1  0.7756875E-018  0.7950776E+02  0.7818608E-02  0.1330454E+00
         -2   -1    0    0    0  501 -0.00000000000E+00  0.00000000000E+00  0.18146211798E+02  0.18146211978E+02  0.25500000000E-02 0.  1.
          1   -1    0    0  501    0  0.00000000000E+00 -0.00000000000E+00 -0.87090955773E+02  0.87090955919E+02  0.50400000000E-02 0. -1.
        -24    2    1    2    0    0  0.00000000000E+00 -0.17763568394E-14 -0.68944743974E+02  0.10523716790E+03  0.79507759276E+02 0.  0.
         66    2    3    3    0    0 -0.13050742575E+02 -0.14538558947E+02  0.11293451134E+02  0.22654659480E+02  0.19999948979E+01 0.  0.
         13    1    3    3    0    0  0.13050742575E+02  0.14538558947E+02 -0.80238195109E+02  0.82582508416E+02  0.10566000000E+00 0. -1.
         13    1    4    4    0    0 -0.54899075595E+01 -0.48387039337E+01  0.42928804310E+01  0.84848174524E+01  0.10566000000E+00 0. -1.
        -13    1    4    4    0    0 -0.66347793487E+01 -0.88313587182E+01  0.63829210682E+01  0.12757979433E+02  0.10566000000E+00 0.  1.
        -14    1    4    4    0    0 -0.92605566688E+00 -0.86849629555E+00  0.61764963507E+00  0.14118625943E+01  0.00000000000E+00 0.  1.
<mgrwt>
<rscale>  0 0.79507759E+02</rscale>
<asrwt>0</asrwt>
<pdfrwt beam="1">  1        1 0.13398608E-01 0.79507759E+02</pdfrwt>
<pdfrwt beam="2">  1       -2 0.27917250E-02 0.79507759E+02</pdfrwt>
<totfact> 0.14608740E+05</totfact>
</mgrwt>
</event>
<event>
 8    1  0.7756875E-018  0.8021478E+02  0.7818608E-02  0.1328443E+00
         -2   -1    0    0    0  501 -0.00000000000E+00  0.00000000000E+00  0.99282643737E+02  0.99282643770E+02  0.25500000000E-02 0.  1.
          1   -1    0    0  501    0  0.00000000000E+00 -0.00000000000E+00 -0.16202252821E+02  0.16202253605E+02  0.50400000000E-02 0. -1.
        -24    2    1    2    0    0  0.00000000000E+00  0.00000000000E+00  0.83080390917E+02  0.11548489737E+03  0.80214775240E+02 0.  0.
         66    2    3    3    0    0 -0.13722528001E+02  0.32981544999E+02  0.67739427571E+02  0.76607572292E+02  0.19999998634E+01 0.  0.
         13    1    3    3    0    0  0.13722528001E+02 -0.32981544999E+02  0.15340963345E+02  0.38877325083E+02  0.10566000000E+00 0. -1.
         13    1    4    4    0    0 -0.18647813671E+01  0.46956987665E+01  0.97801559826E+01  0.11008615332E+02  0.10566000000E+00 0. -1.
        -13    1    4    4    0    0 -0.84941338321E+01  0.22204096928E+02  0.44943476684E+02  0.50843873676E+02  0.10566000000E+00 0.  1.
         14    1    4    4    0    0 -0.33636128016E+01  0.60817493041E+01  0.13015794905E+02  0.14755083283E+02  0.00000000000E+00 0. -1.
<mgrwt>
<rscale>  0 0.80214775E+02</rscale>
<asrwt>0</asrwt>
<pdfrwt beam="1">  1        1 0.24926544E-02 0.80214775E+02</pdfrwt>
<pdfrwt beam="2">  1       -2 0.15274253E-01 0.80214775E+02</pdfrwt>
<totfact> 0.10559023E+05</totfact>
</mgrwt>
</event>
<event>
 8    1  0.7756875E-018  0.7954941E+02  0.7818608E-02  0.1330335E+00
         -2   -1    0    0    0  501 -0.00000000000E+00  0.00000000000E+00  0.21755892213E+03  0.21755892215E+03  0.25500000000E-02 0.  1.
          1   -1    0    0  501    0  0.00000000000E+00 -0.00000000000E+00 -0.72717173771E+01  0.72717191237E+01  0.50400000000E-02 0. -1.
        -24    2    1    2    0    0  0.71054273576E-14 -0.35527136788E-14  0.21028720476E+03  0.22483064127E+03  0.79549410875E+02 0.  0.
         66    2    3    3    0    0 -0.31947753369E+02  0.23650829685E+02  0.10532074752E+03  0.11258987774E+03  0.20000051537E+01 0.  0.
         13    1    3    3    0    0  0.31947753369E+02 -0.23650829685E+02  0.10496645723E+03  0.11224076353E+03  0.10566000000E+00 0. -1.
         13    1    4    4    0    0 -0.13759557958E+02  0.10509183390E+02  0.46896133844E+02  0.49990268096E+02  0.10566000000E+00 0. -1.
        -13    1    4    4    0    0 -0.13421342531E+02  0.10398076038E+02  0.44146240826E+02  0.47298564077E+02  0.10566000000E+00 0.  1.
         14    1    4    4    0    0 -0.47668528794E+01  0.27435702572E+01  0.14278372851E+02  0.15301045565E+02  0.00000000000E+00 0. -1.
<mgrwt>
<rscale>  0 0.79549411E+02</rscale>
<asrwt>0</asrwt>
<pdfrwt beam="1">  1        1 0.11187261E-02 0.79549411E+02</pdfrwt>
<pdfrwt beam="2">  1       -2 0.33470598E-01 0.79549411E+02</pdfrwt>
<totfact> 0.83339373E+04</totfact>
</mgrwt>
</event>
<event>
 8    1  0.7756875E-018  0.7932588E+02  0.7818608E-02  0.1330975E+00
          1   -1    0    0  501    0  0.00000000000E+00  0.00000000000E+00  0.64714449423E+02  0.64714449619E+02  0.50400000000E-02 0. -1.
         -2   -1    0    0    0  501 -0.00000000000E+00 -0.00000000000E+00 -0.24309081304E+02  0.24309081438E+02  0.25500000000E-02 0.  1.
        -24    2    1    2    0    0  0.35527136788E-14  0.00000000000E+00  0.40405368118E+02  0.89023531057E+02  0.79325880450E+02 0.  0.
         66    2    3    3    0    0  0.16347766204E+02 -0.17555417870E+01 -0.20260479372E+02  0.26169035573E+02  0.20000029168E+01 0.  0.
         13    1    3    3    0    0 -0.16347766204E+02  0.17555417870E+01  0.60665847490E+02  0.62854495484E+02  0.10566000000E+00 0. -1.
         13    1    4    4    0    0  0.13709273935E+01 -0.54955139612E+00 -0.17025951426E+01  0.22564225912E+01  0.10566000000E+00 0. -1.
        -13    1    4    4    0    0  0.78306112673E+01 -0.97487046946E+00 -0.88797528133E+01  0.11879815626E+02  0.10566000000E+00 0.  1.
         14    1    4    4    0    0  0.71462275428E+01 -0.23111992141E+00 -0.96781314157E+01  0.12032797356E+02  0.00000000000E+00 0. -1.
<mgrwt>
<rscale>  0 0.79325880E+02</rscale>
<asrwt>0</asrwt>
<pdfrwt beam="1">  1        1 0.99560693E-02 0.79325880E+02</pdfrwt>
<pdfrwt beam="2">  1       -2 0.37398586E-02 0.79325880E+02</pdfrwt>
<totfact> 0.14021992E+05</totfact>
</mgrwt>
</event>
<event>
 8    1  0.7756875E-018  0.8024230E+02  0.7818608E-02  0.1328365E+00
          1   -1    0    0  501    0  0.00000000000E+00  0.00000000000E+00  0.25469571504E+03  0.25469571509E+03  0.50400000000E-02 0. -1.
         -2   -1    0    0    0  501 -0.00000000000E+00 -0.00000000000E+00 -0.63201157830E+01  0.63201162974E+01  0.25500000000E-02 0.  1.
        -24    2    1    2    0    0  0.71054273576E-14  0.35527136788E-14  0.24837559926E+03  0.26101583139E+03  0.80242295136E+02 0.  0.
         66    2    3    3    0    0  0.36144341406E+02  0.17285243252E+02  0.11911282033E+03  0.12568634373E+03  0.19999957425E+01 0.  0.
         13    1    3    3    0    0 -0.36144341406E+02 -0.17285243252E+02  0.12926277893E+03  0.13532948767E+03  0.10566000000E+00 0. -1.
         13    1    4    4    0    0  0.53775959659E+00  0.16455586517E+00  0.17694669209E+01  0.18596884783E+01  0.10566000000E+00 0.  1.
        -13    1    4    4    0    0  0.65212142112E+01  0.37746213967E+01  0.21577104359E+02  0.22855121921E+02  0.10566000000E+00 0.  1.
        -14    1    4    4    0    0  0.29085367599E+02  0.13346065990E+02  0.95766249048E+02  0.10097153333E+03  0.00000000000E+00 0.  1.
<mgrwt>
<rscale>  0 0.80242295E+02</rscale>
<asrwt>0</asrwt>
<pdfrwt beam="1">  1        1 0.39183950E-01 0.80242295E+02</pdfrwt>
<pdfrwt beam="2">  1       -2 0.97232570E-03 0.80242295E+02</pdfrwt>
<totfact> 0.17339260E+05</totfact>
</mgrwt>
</event>
<event>
 8    1  0.7756875E-018  0.8111252E+02  0.7818608E-02  0.1325924E+00
          1   -1    0    0  501    0  0.00000000000E+00  0.00000000000E+00  0.14931888390E+02  0.14931889240E+02  0.50400000000E-02 0. -1.
         -2   -1    0    0    0  501 -0.00000000000E+00 -0.00000000000E+00 -0.11015419018E+03  0.11015419021E+03  0.25500000000E-02 0.  1.
        -24    2    1    2    0    0  0.17763568394E-14  0.00000000000E+00 -0.95222301793E+02  0.12508607945E+03  0.81112517616E+02 0.  0.
         66    2    3    3    0    0 -0.11050092743E+02  0.36218149306E+02 -0.69931470643E+02  0.79550420974E+02  0.20000005059E+01 0.  0.
         13    1    3    3    0    0  0.11050092743E+02 -0.36218149306E+02 -0.25290831150E+02  0.45535658478E+02  0.10566000000E+00 0. -1.
         13    1    4    4    0    0 -0.37949189348E+01  0.13121381838E+02 -0.24099935337E+02  0.27701807132E+02  0.10566000000E+00 0. -1.
        -13    1    4    4    0    0 -0.67884289692E+00  0.28701644128E+01 -0.63649565009E+01  0.70158753359E+01  0.10566000000E+00 0.  1.
         14    1    4    4    0    0 -0.65763309108E+01  0.20226603055E+02 -0.39466578805E+02  0.44832738506E+02  0.00000000000E+00 0. -1.
<mgrwt>
<rscale>  0 0.81112518E+02</rscale>
<asrwt>0</asrwt>
<pdfrwt beam="1">  1        1 0.22972137E-02 0.81112518E+02</pdfrwt>
<pdfrwt beam="2">  1       -2 0.16946798E-01 0.81112518E+02</pdfrwt>
<totfact> 0.99927595E+04</totfact>
</mgrwt>
</event>
<event>
 8    1  0.7756875E-018  0.8094680E+02  0.7818608E-02  0.1326386E+00
         -2   -1    0    0    0  501 -0.00000000000E+00  0.00000000000E+00  0.27574403178E+02  0.27574403296E+02  0.25500000000E-02 0.  1.
          1   -1    0    0  501    0  0.00000000000E+00 -0.00000000000E+00 -0.59406407445E+02  0.59406407658E+02  0.50400000000E-02 0. -1.
        -24    2    1    2    0    0  0.00000000000E+00  0.00000000000E+00 -0.31832004267E+02  0.86980810954E+02  0.80946803388E+02 0.  0.
         66    2    3    3    0    0 -0.21946425131E+01  0.24325392420E+02  0.18719779073E+02  0.30837822657E+02  0.20000013857E+01 0.  0.
         13    1    3    3    0    0  0.21946425131E+01 -0.24325392420E+02 -0.50551783340E+02  0.56142988298E+02  0.10566000000E+00 0. -1.
         13    1    4    4    0    0 -0.36676478209E+00  0.13421196233E+01  0.13002086333E+01  0.19072252134E+01  0.10566000000E+00 0. -1.
        -13    1    4    4    0    0  0.10727674480E+00  0.18611355579E+01  0.17564781539E+01  0.25635353334E+01  0.10566000000E+00 0.  1.
        -14    1    4    4    0    0 -0.19351544758E+01  0.21122137239E+02  0.15663092286E+02  0.26367062110E+02  0.00000000000E+00 0.  1.
<mgrwt>
<rscale>  0 0.80946803E+02</rscale>
<asrwt>0</asrwt>
<pdfrwt beam="1">  1        1 0.91394473E-02 0.80946803E+02</pdfrwt>
<pdfrwt beam="2">  1       -2 0.42422159E-02 0.80946803E+02</pdfrwt>
<totfact> 0.13085465E+05</totfact>
</mgrwt>
</event>
<event>
 8    1  0.7756875E-018  0.8233236E+02  0.7818608E-02  0.1322560E+00
         -2   -1    0    0    0  501 -0.00000000000E+00  0.00000000000E+00  0.24260822947E+03  0.24260822949E+03  0.25500000000E-02 0.  1.
          1   -1    0    0  501    0  0.00000000000E+00 -0.00000000000E+00 -0.69851469248E+01  0.69851487431E+01  0.50400000000E-02 0. -1.
        -24    2    1    2    0    0  0.00000000000E+00  0.00000000000E+00  0.23562308255E+03  0.24959337823E+03  0.82332359534E+02 0.  0.
         66    2    3    3    0    0 -0.13597252588E+02  0.68240647365E+01  0.23376307646E+03  0.23426615003E+03  0.19999997392E+01 0.  0.
         13    1    3    3    0    0  0.13597252588E+02 -0.68240647365E+01  0.18600060894E+01  0.15327228195E+02  0.10566000000E+00 0. -1.
         13    1    4    4    0    0 -0.24226832637E+01  0.19618432883E+01  0.47908230320E+02  0.48009664857E+02  0.10566000000E+00 0. -1.
        -13    1    4    4    0    0 -0.45342012107E+01  0.24879489723E+01  0.78315414002E+02  0.78486075868E+02  0.10566000000E+00 0.  1.
        -14    1    4    4    0    0 -0.66403681131E+01  0.23742724759E+01  0.10753943214E+03  0.10777040931E+03  0.00000000000E+00 0.  1.
<mgrwt>
<rscale>  0 0.82332360E+02</rscale>
<asrwt>0</asrwt>
<pdfrwt beam="1">  1        1 0.10746382E-02 0.82332360E+02</pdfrwt>
<pdfrwt beam="2">  1       -2 0.37324340E-01 0.82332360E+02</pdfrwt>
<totfact> 0.72615523E+04</totfact>
</mgrwt>
</event>
<event>
 8    1  0.7756875E-018  0.7867215E+02  0.7818608E-02  0.1332862E+00
          1   -1    0    0  501    0  0.00000000000E+00  0.00000000000E+00  0.40578924119E+01  0.40578955418E+01  0.50400000000E-02 0. -1.
         -2   -1    0    0    0  501 -0.00000000000E+00 -0.00000000000E+00 -0.38131280789E+03  0.38131280789E+03  0.25500000000E-02 0.  1.
        -24    2    1    2    0    0  0.17763568394E-14  0.71054273576E-14 -0.37725491547E+03  0.38537070344E+03  0.78672154017E+02 0.  0.
         66    2    3    3    0    0  0.43595262739E+01  0.23262167882E+02 -0.34249976877E+03  0.34332233473E+03  0.19999993463E+01 0.  0.
         13    1    3    3    0    0 -0.43595262739E+01 -0.23262167882E+02 -0.34755146707E+02  0.42048368703E+02  0.10566000000E+00 0. -1.
         13    1    4    4    0    0 -0.90794408685E-01  0.30271243838E+01 -0.42685434667E+02  0.42792864153E+02  0.10566000000E+00 0. -1.
        -13    1    4    4    0    0  0.29568308308E+01  0.13870066883E+02 -0.20589843420E+03  0.20638628339E+03  0.10566000000E+00 0.  1.
         14    1    4    4    0    0  0.14934898517E+01  0.63649766154E+01 -0.93915899902E+02  0.94143187186E+02  0.00000000000E+00 0. -1.
<mgrwt>
<rscale>  0 0.78672154E+02</rscale>
<asrwt>0</asrwt>
<pdfrwt beam="1">  1        1 0.62429168E-03 0.78672154E+02</pdfrwt>
<pdfrwt beam="2">  1       -2 0.58663481E-01 0.78672154E+02</pdfrwt>
<totfact> 0.63659428E+04</totfact>
</mgrwt>
</event>
<event>
 8    1  0.7756875E-018  0.9014806E+02  0.7818608E-02  0.1302494E+00
          1   -1    0    0  501    0  0.00000000000E+00  0.00000000000E+00  0.11880895799E+03  0.11880895810E+03  0.50400000000E-02 0. -1.
         -2   -1    0    0    0  501 -0.00000000000E+00 -0.00000000000E+00 -0.17100295805E+02  0.17100295995E+02  0.25500000000E-02 0.  1.
        -24    2    1    2    0    0  0.35527136788E-14  0.35527136788E-14  0.10170866219E+03  0.13590925410E+03  0.90148063677E+02 0.  0.
         66    2    3    3    0    0  0.26529089707E+02  0.16117539292E+02  0.16537283652E+01  0.31149678782E+02  0.19999993027E+01 0.  0.
         13    1    3    3    0    0 -0.26529089707E+02 -0.16117539292E+02  0.10005493382E+03  0.10475957531E+03  0.10566000000E+00 0. -1.
         13    1    4    4    0    0  0.16499454035E+02  0.10412224487E+02  0.12488131885E+01  0.19550373415E+02  0.10566000000E+00 0.  1.
        -13    1    4    4    0    0  0.51260673115E+01  0.33144657807E+01  0.64146419809E+00  0.61388019879E+01  0.10566000000E+00 0. -1.
         14    1    4    4    0    0  0.49035683603E+01  0.23908490241E+01 -0.23654902142E+00  0.54605033797E+01  0.00000000000E+00 0. -1.
<mgrwt>
<rscale>  0 0.90148064E+02</rscale>
<asrwt>0</asrwt>
<pdfrwt beam="1">  1        1 0.18278301E-01 0.90148064E+02</pdfrwt>
<pdfrwt beam="2">  1       -2 0.26308148E-02 0.90148064E+02</pdfrwt>
<totfact> 0.10954794E+05</totfact>
</mgrwt>
</event>
<event>
 8    1  0.7756875E-018  0.7938278E+02  0.7818608E-02  0.1330812E+00
          1   -1    0    0  501    0  0.00000000000E+00  0.00000000000E+00  0.17813543103E+01  0.17813614402E+01  0.50400000000E-02 0. -1.
         -2   -1    0    0    0  501 -0.00000000000E+00 -0.00000000000E+00 -0.88438520144E+03  0.88438520145E+03  0.25500000000E-02 0.  1.
        -24    2    1    2    0    0  0.00000000000E+00  0.17763568394E-14 -0.88260384713E+03  0.88616656289E+03  0.79382782801E+02 0.  0.
         66    2    3    3    0    0 -0.21825993940E+02 -0.11189276082E+02 -0.78958481128E+03  0.78996819437E+03  0.19999994739E+01 0.  0.
         13    1    3    3    0    0  0.21825993940E+02  0.11189276082E+02 -0.93019035847E+02  0.96198368514E+02  0.10566000000E+00 0. -1.
         13    1    4    4    0    0 -0.53624255389E+01 -0.32555434020E+01 -0.21368621859E+03  0.21377830889E+03  0.10566000000E+00 0. -1.
        -13    1    4    4    0    0 -0.15235871028E+02 -0.73755410278E+01 -0.52186000955E+03  0.52213447607E+03  0.10566000000E+00 0.  1.
        -14    1    4    4    0    0 -0.12276973733E+01 -0.55819165240E+00 -0.54038583146E+02  0.54055409416E+02  0.00000000000E+00 0.  1.
<mgrwt>
<rscale>  0 0.79382783E+02</rscale>
<asrwt>0</asrwt>
<pdfrwt beam="1">  1        1 0.27405577E-03 0.79382783E+02</pdfrwt>
<pdfrwt beam="2">  1       -2 0.13605891E+00 0.79382783E+02</pdfrwt>
<totfact> 0.30531044E+04</totfact>
</mgrwt>
</event>
<event>
 8    1  0.7756875E-018  0.7047572E+02  0.7818608E-02  0.1358483E+00
         -2   -1    0    0    0  501 -0.00000000000E+00  0.00000000000E+00  0.97130588291E+00  0.97130923020E+00  0.25500000000E-02 0.  1.
          1   -1    0    0  501    0  0.00000000000E+00 -0.00000000000E+00 -0.12783866385E+04  0.12783866385E+04  0.50400000000E-02 0. -1.
        -24    2    1    2    0    0  0.00000000000E+00 -0.35527136788E-14 -0.12774153326E+04  0.12793579477E+04  0.70475715254E+02 0.  0.
         66    2    3    3    0    0 -0.80519973136E+01 -0.19150298060E+02 -0.11552733253E+04  0.11554618232E+04  0.19999989885E+01 0.  0.
         13    1    3    3    0    0  0.80519973136E+01  0.19150298060E+02 -0.12214200726E+03  0.12389612455E+03  0.10566000000E+00 0. -1.
         13    1    4    4    0    0 -0.42288260602E+00 -0.43201688065E+00 -0.32178258459E+02  0.32184110207E+02  0.10566000000E+00 0. -1.
        -13    1    4    4    0    0 -0.36620804399E+01 -0.10584939208E+02 -0.60830381805E+03  0.60840693454E+03  0.10566000000E+00 0.  1.
        -14    1    4    4    0    0 -0.39670342676E+01 -0.81333419714E+01 -0.51479124883E+03  0.51487077843E+03  0.00000000000E+00 0.  1.
<mgrwt>
<rscale>  0 0.70475715E+02</rscale>
<asrwt>0</asrwt>
<pdfrwt beam="1">  1        1 0.19667352E+00 0.70475715E+02</pdfrwt>
<pdfrwt beam="2">  1       -2 0.14943295E-03 0.70475715E+02</pdfrwt>
<totfact> 0.24138855E+05</totfact>
</mgrwt>
</event>
<event>
 8    1  0.7756875E-018  0.7970382E+02  0.7818608E-02  0.1329894E+00
         -2   -1    0    0    0  501 -0.00000000000E+00  0.00000000000E+00  0.67890249692E+01  0.67890254481E+01  0.25500000000E-02 0.  1.
          1   -1    0    0  501    0  0.00000000000E+00 -0.00000000000E+00 -0.23393266533E+03  0.23393266539E+03  0.50400000000E-02 0. -1.
        -24    2    1    2    0    0  0.00000000000E+00  0.35527136788E-14 -0.22714364036E+03  0.24072169083E+03  0.79703820993E+02 0.  0.
         66    2    3    3    0    0 -0.34807134074E+02 -0.18044287006E+02 -0.92493745237E+02  0.10047997701E+03  0.19999987993E+01 0.  0.
         13    1    3    3    0    0  0.34807134074E+02  0.18044287006E+02 -0.13464989512E+03  0.14024171383E+03  0.10566000000E+00 0. -1.
         13    1    4    4    0    0 -0.42612581320E+01 -0.17613216764E+01 -0.10352394823E+02  0.11333305675E+02  0.10566000000E+00 0. -1.
        -13    1    4    4    0    0 -0.48048908669E+01 -0.20506939400E+01 -0.12131310485E+02  0.13208791769E+02  0.10566000000E+00 0.  1.
        -14    1    4    4    0    0 -0.25740985075E+02 -0.14232271389E+02 -0.70010039929E+02  0.75937879562E+02  0.00000000000E+00 0.  1.
<mgrwt>
<rscale>  0 0.79703821E+02</rscale>
<asrwt>0</asrwt>
<pdfrwt beam="1">  1        1 0.35989635E-01 0.79703821E+02</pdfrwt>
<pdfrwt beam="2">  1       -2 0.10444656E-02 0.79703821E+02</pdfrwt>
<totfact> 0.17360713E+05</totfact>
</mgrwt>
</event>
<event>
 8    1  0.7756875E-018  0.7937254E+02  0.7818608E-02  0.1330842E+00
         -2   -1    0    0    0  501 -0.00000000000E+00  0.00000000000E+00  0.56735213430E+01  0.56735219161E+01  0.25500000000E-02 0.  1.
          1   -1    0    0  501    0  0.00000000000E+00 -0.00000000000E+00 -0.27760536043E+03  0.27760536047E+03  0.50400000000E-02 0. -1.
        -24    2    1    2    0    0  0.00000000000E+00  0.17763568394E-14 -0.27193183908E+03  0.28327888239E+03  0.79372539961E+02 0.  0.
         66    2    3    3    0    0 -0.38600083100E+02 -0.66944649768E+01 -0.15811418139E+03  0.16290757084E+03  0.20000010161E+01 0.  0.
         13    1    3    3    0    0  0.38600083100E+02  0.66944649768E+01 -0.11381765769E+03  0.12037131154E+03  0.10566000000E+00 0. -1.
         13    1    4    4    0    0 -0.78733539768E+01 -0.16089312525E+01 -0.32771069761E+02  0.33742147827E+02  0.10566000000E+00 0. -1.
        -13    1    4    4    0    0 -0.20141579638E+02 -0.38101630686E+01 -0.85068594617E+02  0.87503585796E+02  0.10566000000E+00 0.  1.
         14    1    4    4    0    0 -0.10585149485E+02 -0.12753706557E+01 -0.40274517014E+02  0.41661837221E+02  0.00000000000E+00 0. -1.
<mgrwt>
<rscale>  0 0.79372540E+02</rscale>
<asrwt>0</asrwt>
<pdfrwt beam="1">  1        1 0.42708507E-01 0.79372540E+02</pdfrwt>
<pdfrwt beam="2">  1       -2 0.87284970E-03 0.79372540E+02</pdfrwt>
<totfact> 0.18147623E+05</totfact>
</mgrwt>
</event>
<event>
 8    1  0.7756875E-018  0.8188199E+02  0.7818608E-02  0.1323794E+00
         -2   -1    0    0    0  501 -0.00000000000E+00  0.00000000000E+00  0.69558757264E+01  0.69558761938E+01  0.25500000000E-02 0.  1.
          1   -1    0    0  501    0  0.00000000000E+00 -0.00000000000E+00 -0.24097111058E+03  0.24097111063E+03  0.50400000000E-02 0. -1.
        -24    2    1    2    0    0  0.71054273576E-14 -0.35527136788E-14 -0.23401523485E+03  0.24792698683E+03  0.81881992241E+02 0.  0.
         66    2    3    3    0    0  0.27340963639E+02 -0.30384173903E+02 -0.11146639648E+03  0.11874124742E+03  0.19999942655E+01 0.  0.
         13    1    3    3    0    0 -0.27340963639E+02  0.30384173903E+02 -0.12254883837E+03  0.12918573941E+03  0.10566000000E+00 0. -1.
         13    1    4    4    0    0  0.66180364368E+01 -0.81175860600E+01 -0.27319089715E+02  0.29258117449E+02  0.10566000000E+00 0. -1.
        -13    1    4    4    0    0  0.86626770487E+01 -0.91378983556E+01 -0.33296276979E+02  0.35597701959E+02  0.10566000000E+00 0.  1.
         14    1    4    4    0    0  0.12060250154E+02 -0.13128689487E+02 -0.50851029785E+02  0.53885428008E+02  0.00000000000E+00 0. -1.
<mgrwt>
<rscale>  0 0.81881992E+02</rscale>
<asrwt>0</asrwt>
<pdfrwt beam="1">  1        1 0.37072472E-01 0.81881992E+02</pdfrwt>
<pdfrwt beam="2">  1       -2 0.10701350E-02 0.81881992E+02</pdfrwt>
<totfact> 0.16257893E+05</totfact>
</mgrwt>
</event>
<event>
 8    1  0.7756875E-018  0.8064652E+02  0.7818608E-02  0.1327227E+00
          1   -1    0    0  501    0  0.00000000000E+00  0.00000000000E+00  0.74394858402E+02  0.74394858573E+02  0.50400000000E-02 0. -1.
         -2   -1    0    0    0  501 -0.00000000000E+00 -0.00000000000E+00 -0.21855884353E+02  0.21855884501E+02  0.25500000000E-02 0.  1.
        -24    2    1    2    0    0  0.35527136788E-14  0.00000000000E+00  0.52538974049E+02  0.96250743074E+02  0.80646523472E+02 0.  0.
         66    2    3    3    0    0  0.27339986975E+02 -0.78049342120E+01 -0.77982548598E+01  0.29550036613E+02  0.19999997861E+01 0.  0.
         13    1    3    3    0    0 -0.27339986975E+02  0.78049342120E+01  0.60337228909E+02  0.66700706461E+02  0.10566000000E+00 0. -1.
         13    1    4    4    0    0  0.92664261728E+01 -0.19213439208E+01 -0.30908155720E+01  0.99560294000E+01  0.10566000000E+00 0. -1.
        -13    1    4    4    0    0  0.13694245691E+02 -0.43173704536E+01 -0.32801898569E+01  0.14728980352E+02  0.10566000000E+00 0.  1.
         14    1    4    4    0    0  0.43793151117E+01 -0.15662198376E+01 -0.14272494310E+01  0.48650268618E+01  0.00000000000E+00 0. -1.
<mgrwt>
<rscale>  0 0.80646523E+02</rscale>
<asrwt>0</asrwt>
<pdfrwt beam="1">  1        1 0.11445363E-01 0.80646523E+02</pdfrwt>
<pdfrwt beam="2">  1       -2 0.33624437E-02 0.80646523E+02</pdfrwt>
<totfact> 0.13700690E+05</totfact>
</mgrwt>
</event>
<event>
 8    1  0.7756875E-018  0.8092172E+02  0.7818608E-02  0.1326456E+00
         -2   -1    0    0    0  501 -0.00000000000E+00  0.00000000000E+00  0.20691347516E+02  0.20691347673E+02  0.25500000000E-02 0.  1.
          1   -1    0    0  501    0  0.00000000000E+00 -0.00000000000E+00 -0.79119127879E+02  0.79119128040E+02  0.50400000000E-02 0. -1.
        -24    2    1    2    0    0  0.00000000000E+00  0.00000000000E+00 -0.58427780363E+02  0.99810475712E+02  0.80921724795E+02 0.  0.
         66    2    3    3    0    0  0.40066172165E+02 -0.21308443019E+01 -0.23035327595E+02  0.46308368031E+02  0.19999957154E+01 0.  0.
         13    1    3    3    0    0 -0.40066172165E+02  0.21308443019E+01 -0.35392452769E+02  0.53502107682E+02  0.10566000000E+00 0. -1.
         13    1    4    4    0    0  0.72828819783E+01 -0.39184592741E+00 -0.44800481532E+01  0.85601348489E+01  0.10566000000E+00 0. -1.
        -13    1    4    4    0    0  0.16422922367E+01  0.20778217626E+00 -0.71556155892E+00  0.18065131064E+01  0.10566000000E+00 0.  1.
        -14    1    4    4    0    0  0.31140997950E+02 -0.19467805507E+01 -0.17839717883E+02  0.35941720075E+02  0.00000000000E+00 0.  1.
<mgrwt>
<rscale>  0 0.80921725E+02</rscale>
<asrwt>0</asrwt>
<pdfrwt beam="1">  1        1 0.12172173E-01 0.80921725E+02</pdfrwt>
<pdfrwt beam="2">  1       -2 0.31832843E-02 0.80921725E+02</pdfrwt>
<totfact> 0.13709103E+05</totfact>
</mgrwt>
</event>
<event>
 8    1  0.7756875E-018  0.8460112E+02  0.7818608E-02  0.1316479E+00
          1   -1    0    0  501    0  0.00000000000E+00  0.00000000000E+00  0.59952222118E+01  0.59952243303E+01  0.50400000000E-02 0. -1.
         -2   -1    0    0    0  501 -0.00000000000E+00 -0.00000000000E+00 -0.29846050865E+03  0.29846050867E+03  0.25500000000E-02 0.  1.
        -24    2    1    2    0    0 -0.88817841970E-15  0.00000000000E+00 -0.29246528644E+03  0.30445573300E+03  0.84601120441E+02 0.  0.
         66    2    3    3    0    0 -0.68069479528E+01  0.19464269325E+02 -0.27913274702E+03  0.27990048728E+03  0.19999994627E+01 0.  0.
         13    1    3    3    0    0  0.68069479528E+01 -0.19464269325E+02 -0.13332539421E+02  0.24555245717E+02  0.10566000000E+00 0. -1.
         13    1    4    4    0    0 -0.43515877989E+01  0.11716342556E+02 -0.16886036535E+03  0.16932230553E+03  0.10566000000E+00 0. -1.
        -13    1    4    4    0    0 -0.25246634652E+01  0.66659888025E+01 -0.94355715102E+02  0.94624634577E+02  0.10566000000E+00 0.  1.
         14    1    4    4    0    0  0.69303311325E-01  0.10819379663E+01 -0.15916666571E+02  0.15953547174E+02  0.00000000000E+00 0. -1.
<mgrwt>
<rscale>  0 0.84601120E+02</rscale>
<asrwt>0</asrwt>
<pdfrwt beam="1">  1        1 0.92234228E-03 0.84601120E+02</pdfrwt>
<pdfrwt beam="2">  1       -2 0.45916990E-01 0.84601120E+02</pdfrwt>
<totfact> 0.60969462E+04</totfact>
</mgrwt>
</event>
<event>
 8    1  0.7756875E-018  0.7945591E+02  0.7818608E-02  0.1330603E+00
          1   -1    0    0  501    0  0.00000000000E+00  0.00000000000E+00  0.37865340106E+02  0.37865340442E+02  0.50400000000E-02 0. -1.
         -2   -1    0    0    0  501 -0.00000000000E+00 -0.00000000000E+00 -0.41682190376E+02  0.41682190454E+02  0.25500000000E-02 0.  1.
        -24    2    1    2    0    0 -0.17763568394E-14  0.00000000000E+00 -0.38168502701E+01  0.79547530896E+02  0.79455908060E+02 0.  0.
         66    2    3    3    0    0 -0.11611347179E+02  0.21177900090E+02 -0.33457529712E+02  0.41312626981E+02  0.20000045270E+01 0.  0.
         13    1    3    3    0    0  0.11611347179E+02 -0.21177900090E+02  0.29640679442E+02  0.38234903915E+02  0.10566000000E+00 0. -1.
         13    1    4    4    0    0 -0.40095700019E+00  0.11850108650E+01 -0.21410258934E+01  0.24819696166E+01  0.10566000000E+00 0. -1.
        -13    1    4    4    0    0 -0.57231185285E+01  0.88908364596E+01 -0.14315205540E+02  0.17797115843E+02  0.10566000000E+00 0.  1.
        -14    1    4    4    0    0 -0.54872716501E+01  0.11102052766E+02 -0.17001298279E+02  0.21033541522E+02  0.00000000000E+00 0.  1.
<mgrwt>
<rscale>  0 0.79455908E+02</rscale>
<asrwt>0</asrwt>
<pdfrwt beam="1">  1        1 0.58254370E-02 0.79455908E+02</pdfrwt>
<pdfrwt beam="2">  1       -2 0.64126447E-02 0.79455908E+02</pdfrwt>
<totfact> 0.12829180E+05</totfact>
</mgrwt>
</event>
<event>
 8    1  0.7756875E-018  0.8007028E+02  0.7818608E-02  0.1328852E+00
          1   -1    0    0  501    0  0.00000000000E+00  0.00000000000E+00  0.72623217269E+02  0.72623217444E+02  0.50400000000E-02 0. -1.
         -2   -1    0    0    0  501 -0.00000000000E+00 -0.00000000000E+00 -0.22070246405E+02  0.22070246553E+02  0.25500000000E-02 0.  1.
        -24    2    1    2    0    0  0.71054273576E-14  0.35527136788E-14  0.50552970864E+02  0.94693463997E+02  0.80070277011E+02 0.  0.
         66    2    3    3    0    0  0.33624293479E+02  0.14490435325E+02  0.62140300495E+01  0.37191127832E+02  0.19999980262E+01 0.  0.
         13    1    3    3    0    0 -0.33624293479E+02 -0.14490435325E+02  0.44338940814E+02  0.57502336165E+02  0.10566000000E+00 0. -1.
         13    1    4    4    0    0  0.45978085346E+01  0.24881212464E+01  0.78095193913E+00  0.52869311160E+01  0.10566000000E+00 0. -1.
        -13    1    4    4    0    0  0.14821575949E+02  0.66622675924E+01  0.23639175545E+01  0.16421455274E+02  0.10566000000E+00 0.  1.
         14    1    4    4    0    0  0.14204908995E+02  0.53400464860E+01  0.30691605559E+01  0.15482741442E+02  0.00000000000E+00 0. -1.
<mgrwt>
<rscale>  0 0.80070277E+02</rscale>
<asrwt>0</asrwt>
<pdfrwt beam="1">  1        1 0.11172803E-01 0.80070277E+02</pdfrwt>
<pdfrwt beam="2">  1       -2 0.33954226E-02 0.80070277E+02</pdfrwt>
<totfact> 0.13918338E+05</totfact>
</mgrwt>
</event>
<event>
 8    1  0.7756875E-018  0.7599477E+02  0.7818608E-02  0.1340818E+00
          1   -1    0    0  501    0  0.00000000000E+00  0.00000000000E+00  0.77115011213E+01  0.77115027683E+01  0.50400000000E-02 0. -1.
         -2   -1    0    0    0  501 -0.00000000000E+00 -0.00000000000E+00 -0.18722696976E+03  0.18722696978E+03  0.25500000000E-02 0.  1.
        -24    2    1    2    0    0  0.00000000000E+00  0.35527136788E-14 -0.17951546864E+03  0.19493847254E+03  0.75994766911E+02 0.  0.
         66    2    3    3    0    0 -0.17500084552E+02  0.20527970172E+02 -0.15836970259E+03  0.16066304250E+03  0.20000023080E+01 0.  0.
         13    1    3    3    0    0  0.17500084552E+02 -0.20527970172E+02 -0.21145766048E+02  0.34275430041E+02  0.10566000000E+00 0. -1.
         13    1    4    4    0    0 -0.81011180770E+01  0.10113378371E+02 -0.76508103817E+02  0.77597742557E+02  0.10566000000E+00 0. -1.
        -13    1    4    4    0    0 -0.46022912548E+01  0.60682406149E+01 -0.44379978966E+02  0.45028861034E+02  0.10566000000E+00 0.  1.
         14    1    4    4    0    0 -0.47966752207E+01  0.43463511865E+01 -0.37481619806E+02  0.38036438912E+02  0.00000000000E+00 0. -1.
<mgrwt>
<rscale>  0 0.75994767E+02</rscale>
<asrwt>0</asrwt>
<pdfrwt beam="1">  1        1 0.11863851E-02 0.75994767E+02</pdfrwt>
<pdfrwt beam="2">  1       -2 0.28804146E-01 0.75994767E+02</pdfrwt>
<totfact> 0.99674159E+04</totfact>
</mgrwt>
</event>
<event>
 8    1  0.7756875E-018  0.7947004E+02  0.7818608E-02  0.1330562E+00
         -2   -1    0    0    0  501 -0.00000000000E+00  0.00000000000E+00  0.91737998097E+01  0.91738001641E+01  0.25500000000E-02 0.  1.
          1   -1    0    0  501    0  0.00000000000E+00 -0.00000000000E+00 -0.17210662962E+03  0.17210662969E+03  0.50400000000E-02 0. -1.
        -24    2    1    2    0    0  0.00000000000E+00  0.00000000000E+00 -0.16293282981E+03  0.18128042986E+03  0.79470039760E+02 0.  0.
         66    2    3    3    0    0 -0.12636575579E+02 -0.27888062297E+02 -0.13920079999E+03  0.14254223856E+03  0.19999992317E+01 0.  0.
         13    1    3    3    0    0  0.12636575579E+02  0.27888062297E+02 -0.23732029822E+02  0.38738191292E+02  0.10566000000E+00 0. -1.
         13    1    4    4    0    0 -0.69128424713E+01 -0.16354964820E+02 -0.81805204015E+02  0.83710064110E+02  0.10566000000E+00 0. -1.
        -13    1    4    4    0    0 -0.57024642062E+01 -0.11318900532E+02 -0.55754053694E+02  0.57176579773E+02  0.10566000000E+00 0.  1.
         14    1    4    4    0    0 -0.21268901808E-01 -0.21419694552E+00 -0.16415422780E+01  0.16555946811E+01  0.00000000000E+00 0. -1.
<mgrwt>
<rscale>  0 0.79470040E+02</rscale>
<asrwt>0</asrwt>
<pdfrwt beam="1">  1        1 0.26477941E-01 0.79470040E+02</pdfrwt>
<pdfrwt beam="2">  1       -2 0.14113540E-02 0.79470040E+02</pdfrwt>
<totfact> 0.16488751E+05</totfact>
</mgrwt>
</event>
<event>
 8    1  0.7756875E-018  0.7720524E+02  0.7818608E-02  0.1337175E+00
         -2   -1    0    0    0  501 -0.00000000000E+00  0.00000000000E+00  0.70042938737E+01  0.70042943378E+01  0.25500000000E-02 0.  1.
          1   -1    0    0  501    0  0.00000000000E+00 -0.00000000000E+00 -0.21274979383E+03  0.21274979389E+03  0.50400000000E-02 0. -1.
        -24    2    1    2    0    0  0.00000000000E+00  0.00000000000E+00 -0.20574549996E+03  0.21975408823E+03  0.77205236483E+02 0.  0.
         66    2    3    3    0    0 -0.22745299802E+02  0.31108963133E+02 -0.97977994370E+02  0.10530338847E+03  0.19999981240E+01 0.  0.
         13    1    3    3    0    0  0.22745299802E+02 -0.31108963133E+02 -0.10776750559E+03  0.11445069976E+03  0.10566000000E+00 0. -1.
         13    1    4    4    0    0 -0.12984711357E+02  0.17457086423E+02 -0.55965550716E+02  0.60045871019E+02  0.10566000000E+00 0. -1.
        -13    1    4    4    0    0 -0.24931568775E+01  0.39781996065E+01 -0.13055060239E+02  0.13873992404E+02  0.10566000000E+00 0.  1.
         14    1    4    4    0    0 -0.72674315679E+01  0.96736771037E+01 -0.28957383414E+02  0.31383525049E+02  0.00000000000E+00 0. -1.
<mgrwt>
<rscale>  0 0.77205236E+02</rscale>
<asrwt>0</asrwt>
<pdfrwt beam="1">  1        1 0.32730733E-01 0.77205236E+02</pdfrwt>
<pdfrwt beam="2">  1       -2 0.10775839E-02 0.77205236E+02</pdfrwt>
<totfact> 0.18540945E+05</totfact>
</mgrwt>
</event>
<event>
 8    1  0.7756875E-018  0.7924280E+02  0.7818608E-02  0.1331214E+00
          1   -1    0    0  501    0  0.00000000000E+00  0.00000000000E+00  0.55304324890E+02  0.55304325120E+02  0.50400000000E-02 0. -1.
         -2   -1    0    0    0  501 -0.00000000000E+00 -0.00000000000E+00 -0.28385760935E+02  0.28385761050E+02  0.25500000000E-02 0.  1.
        -24    2    1    2    0    0 -0.71054273576E-14 -0.53290705182E-14  0.26918563955E+02  0.83690086169E+02  0.79242800541E+02 0.  0.
         66    2    3    3    0    0  0.31614490389E+02  0.15395341845E+02 -0.57570128763E+01  0.35688033731E+02  0.20000003170E+01 0.  0.
         13    1    3    3    0    0 -0.31614490389E+02 -0.15395341845E+02  0.32675576831E+02  0.48002052439E+02  0.10566000000E+00 0. -1.
         13    1    4    4    0    0  0.54698345377E+01  0.27060911694E+01 -0.13945379548E+01  0.62608241814E+01  0.10566000000E+00 0. -1.
        -13    1    4    4    0    0  0.87760742988E+01  0.36246897228E+01 -0.98729652069E+00  0.95469248526E+01  0.10566000000E+00 0.  1.
         14    1    4    4    0    0  0.17368581552E+02  0.90645609523E+01 -0.33751784007E+01  0.19880284697E+02  0.00000000000E+00 0. -1.
<mgrwt>
<rscale>  0 0.79242801E+02</rscale>
<asrwt>0</asrwt>
<pdfrwt beam="1">  1        1 0.85083576E-02 0.79242801E+02</pdfrwt>
<pdfrwt beam="2">  1       -2 0.43670402E-02 0.79242801E+02</pdfrwt>
<totfact> 0.13723039E+05</totfact>
</mgrwt>
</event>
<event>
 8    1  0.7756875E-018  0.7955836E+02  0.7818608E-02  0.1330309E+00
         -2   -1    0    0    0  501 -0.00000000000E+00  0.00000000000E+00  0.75195167877E+01  0.75195172201E+01  0.25500000000E-02 0.  1.
          1   -1    0    0  501    0  0.00000000000E+00 -0.00000000000E+00 -0.21043683193E+03  0.21043683199E+03  0.50400000000E-02 0. -1.
        -24    2    1    2    0    0  0.71054273576E-14  0.00000000000E+00 -0.20291731514E+03  0.21795634921E+03  0.79558364593E+02 0.  0.
         66    2    3    3    0    0 -0.35500110840E+02  0.15933526586E+02 -0.12382000942E+03  0.12980573903E+03  0.20000031357E+01 0.  0.
         13    1    3    3    0    0  0.35500110840E+02 -0.15933526586E+02 -0.79097305723E+02  0.88150610184E+02  0.10566000000E+00 0. -1.
         13    1    4    4    0    0 -0.36902996683E+01  0.21055689457E+01 -0.13974719163E+02  0.14606699557E+02  0.10566000000E+00 0. -1.
        -13    1    4    4    0    0 -0.81857881271E+01  0.41283139128E+01 -0.29834843135E+02  0.31211842815E+02  0.10566000000E+00 0.  1.
         14    1    4    4    0    0 -0.23624023045E+02  0.96996437270E+01 -0.80010447123E+02  0.83987196656E+02  0.00000000000E+00 0. -1.
<mgrwt>
<rscale>  0 0.79558365E+02</rscale>
<asrwt>0</asrwt>
<pdfrwt beam="1">  1        1 0.32374893E-01 0.79558365E+02</pdfrwt>
<pdfrwt beam="2">  1       -2 0.11568489E-02 0.79558365E+02</pdfrwt>
<totfact> 0.17088676E+05</totfact>
</mgrwt>
</event>
<event>
 8    1  0.7756875E-018  0.8014761E+02  0.7818608E-02  0.1328633E+00
          1   -1    0    0  501    0  0.00000000000E+00  0.00000000000E+00  0.70825309773E+02  0.70825309953E+02  0.50400000000E-02 0. -1.
         -2   -1    0    0    0  501 -0.00000000000E+00 -0.00000000000E+00 -0.22674234223E+02  0.22674234366E+02  0.25500000000E-02 0.  1.
        -24    2    1    2    0    0  0.35527136788E-14  0.17763568394E-14  0.48151075550E+02  0.93499544319E+02  0.80147605773E+02 0.  0.
         66    2    3    3    0    0  0.27965997770E+02  0.11543278218E+02 -0.65213897380E+01  0.31014074583E+02  0.19999987154E+01 0.  0.
         13    1    3    3    0    0 -0.27965997770E+02 -0.11543278218E+02  0.54672465288E+02  0.62485469735E+02  0.10566000000E+00 0. -1.
         13    1    4    4    0    0  0.10257134794E+02  0.49350638498E+01 -0.22187019894E+01  0.11597304512E+02  0.10566000000E+00 0. -1.
        -13    1    4    4    0    0  0.15979411150E+02  0.60718218684E+01 -0.42016597738E+01  0.17603230113E+02  0.10566000000E+00 0.  1.
         14    1    4    4    0    0  0.17294518251E+01  0.53639250000E+00 -0.10102797476E+00  0.18135399585E+01  0.00000000000E+00 0. -1.
<mgrwt>
<rscale>  0 0.80147606E+02</rscale>
<asrwt>0</asrwt>
<pdfrwt beam="1">  1        1 0.10896201E-01 0.80147606E+02</pdfrwt>
<pdfrwt beam="2">  1       -2 0.34883439E-02 0.80147606E+02</pdfrwt>
<totfact> 0.13826463E+05</totfact>
</mgrwt>
</event>
<event>
 8    1  0.7756875E-018  0.8205002E+02  0.7818608E-02  0.1323332E+00
         -2   -1    0    0    0  501 -0.00000000000E+00  0.00000000000E+00  0.53696532663E+03  0.53696532663E+03  0.25500000000E-02 0.  1.
          1   -1    0    0  501    0  0.00000000000E+00 -0.00000000000E+00 -0.31343747300E+01  0.31343787821E+01  0.50400000000E-02 0. -1.
        -24    2    1    2    0    0  0.00000000000E+00  0.35527136788E-14  0.53383095190E+03  0.54009970541E+03  0.82050024901E+02 0.  0.
         66    2    3    3    0    0  0.27618514962E+02 -0.30131134736E+02  0.28828032008E+03  0.29117041505E+03  0.20000022358E+01 0.  0.
         13    1    3    3    0    0 -0.27618514962E+02  0.30131134736E+02  0.24555063182E+03  0.24892929036E+03  0.10566000000E+00 0. -1.
         13    1    4    4    0    0  0.16843338897E+01 -0.17173826040E+01  0.15068097450E+02  0.15259263037E+02  0.10566000000E+00 0. -1.
        -13    1    4    4    0    0  0.22654635196E+02 -0.25336213301E+02  0.23898764086E+03  0.24139233594E+03  0.10566000000E+00 0.  1.
         14    1    4    4    0    0  0.32795458767E+01 -0.30775388315E+01  0.34224581764E+02  0.34518816077E+02  0.00000000000E+00 0. -1.
<mgrwt>
<rscale>  0 0.82050025E+02</rscale>
<asrwt>0</asrwt>
<pdfrwt beam="1">  1        1 0.48221246E-03 0.82050025E+02</pdfrwt>
<pdfrwt beam="2">  1       -2 0.82609939E-01 0.82050025E+02</pdfrwt>
<totfact> 0.44629005E+04</totfact>
</mgrwt>
</event>
<event>
 8    1  0.7756875E-018  0.8114670E+02  0.7818608E-02  0.1325828E+00
         -2   -1    0    0    0  501 -0.00000000000E+00  0.00000000000E+00  0.15236814673E+02  0.15236814886E+02  0.25500000000E-02 0.  1.
          1   -1    0    0  501    0  0.00000000000E+00 -0.00000000000E+00 -0.10804072951E+03  0.10804072963E+03  0.50400000000E-02 0. -1.
        -24    2    1    2    0    0  0.00000000000E+00  0.00000000000E+00 -0.92803914838E+02  0.12327754452E+03  0.81146696621E+02 0.  0.
         66    2    3    3    0    0  0.15537952040E+02 -0.35575215038E+02 -0.64222653843E+02  0.75070454552E+02  0.20000003801E+01 0.  0.
         13    1    3    3    0    0 -0.15537952040E+02  0.35575215038E+02 -0.28581260995E+02  0.48207089963E+02  0.10566000000E+00 0. -1.
         13    1    4    4    0    0  0.34241188295E+01 -0.69932724186E+01 -0.12342745890E+02  0.14594005242E+02  0.10566000000E+00 0.  1.
        -13    1    4    4    0    0  0.81306918167E+01 -0.20173400951E+02 -0.37403950538E+02  0.43268243959E+02  0.10566000000E+00 0.  1.
        -14    1    4    4    0    0  0.39831413937E+01 -0.84085416681E+01 -0.14475957415E+02  0.17208205351E+02  0.00000000000E+00 0.  1.
<mgrwt>
<rscale>  0 0.81146697E+02</rscale>
<asrwt>0</asrwt>
<pdfrwt beam="1">  1        1 0.16621650E-01 0.81146697E+02</pdfrwt>
<pdfrwt beam="2">  1       -2 0.23441254E-02 0.81146697E+02</pdfrwt>
<totfact> 0.14332056E+05</totfact>
</mgrwt>
</event>
<event>
 8    1  0.7756875E-018  0.8193929E+02  0.7818608E-02  0.1323636E+00
         -2   -1    0    0    0  501 -0.00000000000E+00  0.00000000000E+00  0.10590552062E+03  0.10590552065E+03  0.25500000000E-02 0.  1.
          1   -1    0    0  501    0  0.00000000000E+00 -0.00000000000E+00 -0.15849141710E+02  0.15849142511E+02  0.50400000000E-02 0. -1.
        -24    2    1    2    0    0  0.00000000000E+00  0.00000000000E+00  0.90056378909E+02  0.12175466316E+03  0.81939286177E+02 0.  0.
         66    2    3    3    0    0 -0.30054493266E+02  0.10233254684E+02  0.83474190202E+02  0.89330467888E+02  0.19999990791E+01 0.  0.
         13    1    3    3    0    0  0.30054493266E+02 -0.10233254684E+02  0.65821887072E+01  0.32424195273E+02  0.10566000000E+00 0. -1.
         13    1    4    4    0    0 -0.21444518515E+01  0.37952552514E+00  0.65954164670E+01  0.69464664237E+01  0.10566000000E+00 0. -1.
        -13    1    4    4    0    0 -0.10251284277E+02  0.34054704961E+01  0.27109090411E+02  0.29182186443E+02  0.10566000000E+00 0.  1.
        -14    1    4    4    0    0 -0.17658757137E+02  0.64482586624E+01  0.49769683324E+02  0.53201815022E+02  0.00000000000E+00 0.  1.
<mgrwt>
<rscale>  0 0.81939286E+02</rscale>
<asrwt>0</asrwt>
<pdfrwt beam="1">  1        1 0.24383296E-02 0.81939286E+02</pdfrwt>
<pdfrwt beam="2">  1       -2 0.16293157E-01 0.81939286E+02</pdfrwt>
<totfact> 0.98369937E+04</totfact>
</mgrwt>
</event>
<event>
 8    1  0.7756875E-018  0.8133830E+02  0.7818608E-02  0.1325296E+00
          1   -1    0    0  501    0  0.00000000000E+00  0.00000000000E+00  0.37709657960E+02  0.37709658297E+02  0.50400000000E-02 0. -1.
         -2   -1    0    0    0  501 -0.00000000000E+00 -0.00000000000E+00 -0.43860910352E+02  0.43860910426E+02  0.25500000000E-02 0.  1.
        -24    2    1    2    0    0 -0.17763568394E-14 -0.35527136788E-14 -0.61512523923E+01  0.81570568723E+02  0.81338304481E+02 0.  0.
         66    2    3    3    0    0 -0.14844077483E+02 -0.31244159445E+02  0.18324284085E+02  0.39195963290E+02  0.20000038078E+01 0.  0.
         13    1    3    3    0    0  0.14844077483E+02  0.31244159445E+02 -0.24475536477E+02  0.42374605433E+02  0.10566000000E+00 0. -1.
         13    1    4    4    0    0 -0.11146045213E+01 -0.29647914016E+01  0.21194464910E+01  0.38125514761E+01  0.10566000000E+00 0. -1.
        -13    1    4    4    0    0 -0.34502580758E+01 -0.60996847612E+01  0.36185108389E+01  0.78876624993E+01  0.10566000000E+00 0.  1.
        -14    1    4    4    0    0 -0.10279214886E+02 -0.22179683282E+02  0.12586326755E+02  0.27495749314E+02  0.00000000000E+00 0.  1.
<mgrwt>
<rscale>  0 0.81338304E+02</rscale>
<asrwt>0</asrwt>
<pdfrwt beam="1">  1        1 0.58014859E-02 0.81338304E+02</pdfrwt>
<pdfrwt beam="2">  1       -2 0.67478324E-02 0.81338304E+02</pdfrwt>
<totfact> 0.11998246E+05</totfact>
</mgrwt>
</event>
<event>
 8    1  0.7756875E-018  0.7972412E+02  0.7818608E-02  0.1329836E+00
         -2   -1    0    0    0  501 -0.00000000000E+00  0.00000000000E+00  0.95651159526E+01  0.95651162925E+01  0.25500000000E-02 0.  1.
          1   -1    0    0  501    0  0.00000000000E+00 -0.00000000000E+00 -0.16612281281E+03  0.16612281289E+03  0.50400000000E-02 0. -1.
        -24    2    1    2    0    0 -0.17763568394E-14  0.00000000000E+00 -0.15655769686E+03  0.17568792918E+03  0.79724124417E+02 0.  0.
         66    2    3    3    0    0  0.87643615125E+01 -0.25448299201E+02 -0.13607145105E+02  0.30225558185E+02  0.20000011884E+01 0.  0.
         13    1    3    3    0    0 -0.87643615125E+01  0.25448299201E+02 -0.14295055176E+03  0.14546237100E+03  0.10566000000E+00 0. -1.
         13    1    4    4    0    0  0.31885659907E+01 -0.11004311297E+02 -0.61650064788E+01  0.13010775885E+02  0.10566000000E+00 0. -1.
        -13    1    4    4    0    0  0.34927476154E+01 -0.10075161865E+02 -0.55106086974E+01  0.12003588829E+02  0.10566000000E+00 0.  1.
        -14    1    4    4    0    0  0.20830479064E+01 -0.43688260382E+01 -0.19315299292E+01  0.52111934717E+01  0.00000000000E+00 0.  1.
<mgrwt>
<rscale>  0 0.79724124E+02</rscale>
<asrwt>0</asrwt>
<pdfrwt beam="1">  1        1 0.25557354E-01 0.79724124E+02</pdfrwt>
<pdfrwt beam="2">  1       -2 0.14715565E-02 0.79724124E+02</pdfrwt>
<totfact> 0.16240537E+05</totfact>
</mgrwt>
</event>
<event>
 8    1  0.7756875E-018  0.8469112E+02  0.7818608E-02  0.1316242E+00
         -2   -1    0    0    0  501 -0.00000000000E+00  0.00000000000E+00  0.17689568932E+02  0.17689569116E+02  0.25500000000E-02 0.  1.
          1   -1    0    0  501    0  0.00000000000E+00 -0.00000000000E+00 -0.10136743954E+03  0.10136743967E+03  0.50400000000E-02 0. -1.
        -24    2    1    2    0    0  0.17763568394E-14  0.00000000000E+00 -0.83677870611E+02  0.11905700878E+03  0.84691117070E+02 0.  0.
         66    2    3    3    0    0 -0.11024211953E+02  0.35342322829E+02 -0.13034190464E+02  0.39300167442E+02  0.20000019370E+01 0.  0.
         13    1    3    3    0    0  0.11024211953E+02 -0.35342322829E+02 -0.70643680147E+02  0.79756841343E+02  0.10566000000E+00 0. -1.
         13    1    4    4    0    0 -0.15002274471E+01  0.41909122228E+01 -0.21197641578E+01  0.49314289788E+01  0.10566000000E+00 0. -1.
        -13    1    4    4    0    0 -0.34713080614E+01  0.10130000312E+02 -0.38824974316E+01  0.11390866355E+02  0.10566000000E+00 0.  1.
         14    1    4    4    0    0 -0.60526764447E+01  0.21021410295E+02 -0.70319288746E+01  0.22977872108E+02  0.00000000000E+00 0. -1.
<mgrwt>
<rscale>  0 0.84691117E+02</rscale>
<asrwt>0</asrwt>
<pdfrwt beam="1">  1        1 0.15594990E-01 0.84691117E+02</pdfrwt>
<pdfrwt beam="2">  1       -2 0.27214722E-02 0.84691117E+02</pdfrwt>
<totfact> 0.12623399E+05</totfact>
</mgrwt>
</event>
<event>
 8    1  0.7756875E-018  0.7922048E+02  0.7818608E-02  0.1331278E+00
         -2   -1    0    0    0  501 -0.00000000000E+00  0.00000000000E+00  0.75355865204E+02  0.75355865247E+02  0.25500000000E-02 0.  1.
          1   -1    0    0  501    0  0.00000000000E+00 -0.00000000000E+00 -0.20820820993E+02  0.20820821603E+02  0.50400000000E-02 0. -1.
        -24    2    1    2    0    0 -0.35527136788E-14  0.00000000000E+00  0.54535044211E+02  0.96176686850E+02  0.79220477443E+02 0.  0.
         66    2    3    3    0    0 -0.31074986214E+02  0.44172016991E+01  0.56568089193E+02  0.64723374227E+02  0.20000043260E+01 0.  0.
         13    1    3    3    0    0  0.31074986214E+02 -0.44172016991E+01 -0.20330449816E+01  0.31453312623E+02  0.10566000000E+00 0. -1.
         13    1    4    4    0    0 -0.42742862264E+01  0.27543365825E+00  0.83592324200E+01  0.93932591326E+01  0.10566000000E+00 0. -1.
        -13    1    4    4    0    0 -0.17553296434E+02  0.32643158393E+01  0.30982743697E+02  0.35759132325E+02  0.10566000000E+00 0.  1.
        -14    1    4    4    0    0 -0.92474035534E+01  0.87745220150E+00  0.17226113076E+02  0.19570982769E+02  0.00000000000E+00 0.  1.
<mgrwt>
<rscale>  0 0.79220477E+02</rscale>
<asrwt>0</asrwt>
<pdfrwt beam="1">  1        1 0.32032033E-02 0.79220477E+02</pdfrwt>
<pdfrwt beam="2">  1       -2 0.11593210E-01 0.79220477E+02</pdfrwt>
<totfact> 0.11604452E+05</totfact>
</mgrwt>
</event>
<event>
 8    1  0.7756875E-018  0.7945290E+02  0.7818608E-02  0.1330611E+00
          1   -1    0    0  501    0  0.00000000000E+00  0.00000000000E+00  0.36520083181E+03  0.36520083185E+03  0.50400000000E-02 0. -1.
         -2   -1    0    0    0  501 -0.00000000000E+00 -0.00000000000E+00 -0.43214320569E+01  0.43214328093E+01  0.25500000000E-02 0.  1.
        -24    2    1    2    0    0  0.00000000000E+00  0.00000000000E+00  0.36087939976E+03  0.36952226466E+03  0.79452897424E+02 0.  0.
         66    2    3    3    0    0 -0.33618665194E+02  0.20213443092E+02  0.15211590854E+03  0.15710521177E+03  0.20000003416E+01 0.  0.
         13    1    3    3    0    0  0.33618665194E+02 -0.20213443092E+02  0.20876349121E+03  0.21241705289E+03  0.10566000000E+00 0. -1.
         13    1    4    4    0    0 -0.63604749164E+01  0.37619542375E+01  0.31470517680E+02  0.32326654450E+02  0.10566000000E+00 0. -1.
        -13    1    4    4    0    0 -0.14438446802E+02  0.82997133305E+01  0.62235823426E+02  0.64425638289E+02  0.10566000000E+00 0.  1.
         14    1    4    4    0    0 -0.12819743476E+02  0.81517755237E+01  0.58409567437E+02  0.60352919027E+02  0.00000000000E+00 0. -1.
<mgrwt>
<rscale>  0 0.79452897E+02</rscale>
<asrwt>0</asrwt>
<pdfrwt beam="1">  1        1 0.56184749E-01 0.79452897E+02</pdfrwt>
<pdfrwt beam="2">  1       -2 0.66483570E-03 0.79452897E+02</pdfrwt>
<totfact> 0.19043242E+05</totfact>
</mgrwt>
</event>
<event>
 8    1  0.7756875E-018  0.7904565E+02  0.7818608E-02  0.1331782E+00
          1   -1    0    0  501    0  0.00000000000E+00  0.00000000000E+00  0.89064820899E+03  0.89064820900E+03  0.50400000000E-02 0. -1.
         -2   -1    0    0    0  501 -0.00000000000E+00 -0.00000000000E+00 -0.17538383690E+01  0.17538402228E+01  0.25500000000E-02 0.  1.
        -24    2    1    2    0    0  0.35527136788E-14 -0.88817841970E-15  0.88889437062E+03  0.89240204923E+03  0.79045653536E+02 0.  0.
         66    2    3    3    0    0  0.24621133944E+02 -0.61905245860E+01  0.78633096454E+03  0.78674322914E+03  0.19999926508E+01 0.  0.
         13    1    3    3    0    0 -0.24621133944E+02  0.61905245860E+01  0.10256340608E+03  0.10565882008E+03  0.10566000000E+00 0. -1.
         13    1    4    4    0    0  0.11802312238E+02 -0.30869013096E+01  0.40024023718E+03  0.40042612572E+03  0.10566000000E+00 0. -1.
        -13    1    4    4    0    0  0.12763551372E+02 -0.31545616347E+01  0.38398805112E+03  0.38421308420E+03  0.10566000000E+00 0.  1.
         14    1    4    4    0    0  0.55270334285E-01  0.50938358313E-01  0.21026762377E+01  0.21040192220E+01  0.00000000000E+00 0. -1.
<mgrwt>
<rscale>  0 0.79045654E+02</rscale>
<asrwt>0</asrwt>
<pdfrwt beam="1">  1        1 0.13702294E+00 0.79045654E+02</pdfrwt>
<pdfrwt beam="2">  1       -2 0.26982115E-03 0.79045654E+02</pdfrwt>
<totfact> 0.20260692E+05</totfact>
</mgrwt>
</event>
<event>
 8    1  0.7756875E-018  0.8350066E+02  0.7818608E-02  0.1319401E+00
         -2   -1    0    0    0  501 -0.00000000000E+00  0.00000000000E+00  0.73707024639E+01  0.73707029050E+01  0.25500000000E-02 0.  1.
          1   -1    0    0  501    0  0.00000000000E+00 -0.00000000000E+00 -0.23648898932E+03  0.23648898937E+03  0.50400000000E-02 0. -1.
        -24    2    1    2    0    0  0.00000000000E+00  0.14210854715E-13 -0.22911828685E+03  0.24385969228E+03  0.83500659556E+02 0.  0.
         66    2    3    3    0    0 -0.25045753549E+00  0.37116250915E+02 -0.58951467611E+02  0.69691852690E+02  0.19999967185E+01 0.  0.
         13    1    3    3    0    0  0.25045753549E+00 -0.37116250915E+02 -0.17016681924E+03  0.17416783959E+03  0.10566000000E+00 0. -1.
         13    1    4    4    0    0 -0.19140333053E+00  0.14430633688E+02 -0.21797421381E+02  0.26142275470E+02  0.10566000000E+00 0. -1.
        -13    1    4    4    0    0 -0.15837779792E+00  0.50093031421E+01 -0.73181536321E+01  0.88704418219E+01  0.10566000000E+00 0.  1.
        -14    1    4    4    0    0  0.99323592968E-01  0.17676314085E+02 -0.29835892598E+02  0.34679135397E+02  0.00000000000E+00 0.  1.
<mgrwt>
<rscale>  0 0.83500660E+02</rscale>
<asrwt>0</asrwt>
<pdfrwt beam="1">  1        1 0.36382916E-01 0.83500660E+02</pdfrwt>
<pdfrwt beam="2">  1       -2 0.11339544E-02 0.83500660E+02</pdfrwt>
<totfact> 0.15377384E+05</totfact>
</mgrwt>
</event>
<event>
 8    1  0.7756875E-018  0.7880408E+02  0.7818608E-02  0.1332480E+00
         -2   -1    0    0    0  501 -0.00000000000E+00  0.00000000000E+00  0.25575954176E+02  0.25575954303E+02  0.25500000000E-02 0.  1.
          1   -1    0    0  501    0  0.00000000000E+00 -0.00000000000E+00 -0.60702361061E+02  0.60702361270E+02  0.50400000000E-02 0. -1.
        -24    2    1    2    0    0  0.35527136788E-14 -0.35527136788E-14 -0.35126406885E+02  0.86278315573E+02  0.78804081604E+02 0.  0.
         66    2    3    3    0    0 -0.24611790824E+02  0.19283648115E+02  0.86313881083E+01  0.32497695282E+02  0.20000014583E+01 0.  0.
         13    1    3    3    0    0  0.24611790824E+02 -0.19283648115E+02 -0.43757794993E+02  0.53780620291E+02  0.10566000000E+00 0. -1.
         13    1    4    4    0    0 -0.26758184538E+01  0.22298093858E+01  0.10294587633E+01  0.36335937687E+01  0.10566000000E+00 0.  1.
        -13    1    4    4    0    0 -0.54310893657E+01  0.50454419051E+01  0.25136989885E+01  0.78283499127E+01  0.10566000000E+00 0. -1.
        -14    1    4    4    0    0 -0.16504883004E+02  0.12008396824E+02  0.50882303565E+01  0.21035751601E+02  0.00000000000E+00 0.  1.
<mgrwt>
<rscale>  0 0.78804082E+02</rscale>
<asrwt>0</asrwt>
<pdfrwt beam="1">  1        1 0.93388248E-02 0.78804082E+02</pdfrwt>
<pdfrwt beam="2">  1       -2 0.39347622E-02 0.78804082E+02</pdfrwt>
<totfact> 0.14137092E+05</totfact>
</mgrwt>
</event>
<event>
 8    1  0.7756875E-018  0.8245668E+02  0.7818608E-02  0.1322221E+00
          1   -1    0    0  501    0  0.00000000000E+00  0.00000000000E+00  0.22523495581E+03  0.22523495587E+03  0.50400000000E-02 0. -1.
         -2   -1    0    0    0  501 -0.00000000000E+00 -0.00000000000E+00 -0.75466797747E+01  0.75466802055E+01  0.25500000000E-02 0.  1.
        -24    2    1    2    0    0  0.00000000000E+00 -0.14210854715E-13  0.21768827604E+03  0.23278163607E+03  0.82456682986E+02 0.  0.
         66    2    3    3    0    0  0.19897657185E+02 -0.35387723770E+02  0.12878282063E+03  0.13504526147E+03  0.20000003942E+01 0.  0.
         13    1    3    3    0    0 -0.19897657185E+02  0.35387723770E+02  0.88905455404E+02  0.97736374599E+02  0.10566000000E+00 0. -1.
         13    1    4    4    0    0  0.68276955855E+01 -0.11766612720E+02  0.45124133025E+02  0.47130342108E+02  0.10566000000E+00 0. -1.
        -13    1    4    4    0    0  0.16510229496E+01 -0.32872822356E+01  0.12682272936E+02  0.13205427375E+02  0.10566000000E+00 0.  1.
        -14    1    4    4    0    0  0.11418938650E+02 -0.20333828814E+02  0.70976414670E+02  0.74709491991E+02  0.00000000000E+00 0.  1.
<mgrwt>
<rscale>  0 0.82456683E+02</rscale>
<asrwt>0</asrwt>
<pdfrwt beam="1">  1        1 0.34651533E-01 0.82456683E+02</pdfrwt>
<pdfrwt beam="2">  1       -2 0.11610277E-02 0.82456683E+02</pdfrwt>
<totfact> 0.15748393E+05</totfact>
</mgrwt>
</event>
<event>
 8    1  0.7756875E-018  0.7798788E+02  0.7818608E-02  0.1334860E+00
         -2   -1    0    0    0  501 -0.00000000000E+00  0.00000000000E+00  0.50160372198E+02  0.50160372262E+02  0.25500000000E-02 0.  1.
          1   -1    0    0  501    0  0.00000000000E+00 -0.00000000000E+00 -0.30313320220E+02  0.30313320639E+02  0.50400000000E-02 0. -1.
        -24    2    1    2    0    0 -0.35527136788E-14  0.00000000000E+00  0.19847051978E+02  0.80473692901E+02  0.77987882244E+02 0.  0.
         66    2    3    3    0    0 -0.14543292543E+02  0.32473279757E+02  0.26326814537E+02  0.44307137314E+02  0.19999992864E+01 0.  0.
         13    1    3    3    0    0  0.14543292543E+02 -0.32473279757E+02 -0.64797625595E+01  0.36166555587E+02  0.10566000000E+00 0. -1.
         13    1    4    4    0    0 -0.42152966514E+01  0.10383688285E+02  0.89644216575E+01  0.14351366762E+02  0.10566000000E+00 0. -1.
        -13    1    4    4    0    0 -0.26988260028E+01  0.56509514719E+01  0.38754491383E+01  0.73652687928E+01  0.10566000000E+00 0.  1.
        -14    1    4    4    0    0 -0.76291698886E+01  0.16438640000E+02  0.13486943742E+02  0.22590501759E+02  0.00000000000E+00 0.  1.
<mgrwt>
<rscale>  0 0.77987882E+02</rscale>
<asrwt>0</asrwt>
<pdfrwt beam="1">  1        1 0.46635878E-02 0.77987882E+02</pdfrwt>
<pdfrwt beam="2">  1       -2 0.77169802E-02 0.77987882E+02</pdfrwt>
<totfact> 0.13034087E+05</totfact>
</mgrwt>
</event>
<event>
 8    1  0.7756875E-018  0.8430580E+02  0.7818608E-02  0.1317258E+00
          1   -1    0    0  501    0  0.00000000000E+00  0.00000000000E+00  0.99728956695E+02  0.99728956823E+02  0.50400000000E-02 0. -1.
         -2   -1    0    0    0  501 -0.00000000000E+00 -0.00000000000E+00 -0.17816959698E+02  0.17816959881E+02  0.25500000000E-02 0.  1.
        -24    2    1    2    0    0 -0.35527136788E-14  0.00000000000E+00  0.81911996997E+02  0.11754591670E+03  0.84305796251E+02 0.  0.
         66    2    3    3    0    0 -0.18037662485E+02 -0.16568025961E+01 -0.12054271952E+02  0.21849662195E+02  0.20000007460E+01 0.  0.
         13    1    3    3    0    0  0.18037662485E+02  0.16568025961E+01  0.93966268949E+02  0.95696254508E+02  0.10566000000E+00 0. -1.
         13    1    4    4    0    0 -0.44756015067E+01 -0.12619048003E+00 -0.27005383043E+01  0.52298187399E+01  0.10566000000E+00 0. -1.
        -13    1    4    4    0    0 -0.10068796343E+02 -0.91231039207E+00 -0.76831183633E+01  0.12698599996E+02  0.10566000000E+00 0.  1.
        -14    1    4    4    0    0 -0.34932646356E+01 -0.61830172395E+00 -0.16706152840E+01  0.39212434588E+01  0.00000000000E+00 0.  1.
<mgrwt>
<rscale>  0 0.84305796E+02</rscale>
<asrwt>0</asrwt>
<pdfrwt beam="1">  1        1 0.15342917E-01 0.84305796E+02</pdfrwt>
<pdfrwt beam="2">  1       -2 0.27410707E-02 0.84305796E+02</pdfrwt>
<totfact> 0.12745029E+05</totfact>
</mgrwt>
</event>
<event>
 8    1  0.7756875E-018  0.7810167E+02  0.7818608E-02  0.1334527E+00
         -2   -1    0    0    0  501 -0.00000000000E+00  0.00000000000E+00  0.20911563140E+02  0.20911563296E+02  0.25500000000E-02 0.  1.
          1   -1    0    0  501    0  0.00000000000E+00 -0.00000000000E+00 -0.72924609027E+02  0.72924609201E+02  0.50400000000E-02 0. -1.
        -24    2    1    2    0    0  0.35527136788E-14 -0.71054273576E-14 -0.52013045886E+02  0.93836172497E+02  0.78101666605E+02 0.  0.
         66    2    3    3    0    0  0.21917613442E+02 -0.32197328084E+02 -0.28945067784E+02  0.48568165113E+02  0.19999996832E+01 0.  0.
         13    1    3    3    0    0 -0.21917613442E+02  0.32197328084E+02 -0.23067978102E+02  0.45268007384E+02  0.10566000000E+00 0. -1.
         13    1    4    4    0    0  0.83393979426E+01 -0.12729041763E+02 -0.11711961324E+02  0.19203001441E+02  0.10566000000E+00 0. -1.
        -13    1    4    4    0    0  0.33766248292E+01 -0.45934397032E+01 -0.34463973030E+01  0.66625897330E+01  0.10566000000E+00 0.  1.
        -14    1    4    4    0    0  0.10201590670E+02 -0.14874846617E+02 -0.13786709157E+02  0.22702573939E+02  0.00000000000E+00 0.  1.
<mgrwt>
<rscale>  0 0.78101667E+02</rscale>
<asrwt>0</asrwt>
<pdfrwt beam="1">  1        1 0.11219171E-01 0.78101667E+02</pdfrwt>
<pdfrwt beam="2">  1       -2 0.32171636E-02 0.78101667E+02</pdfrwt>
<totfact> 0.14906515E+05</totfact>
</mgrwt>
</event>
<event>
 8    1  0.7756875E-018  0.7972381E+02  0.7818608E-02  0.1329837E+00
          1   -1    0    0  501    0  0.00000000000E+00  0.00000000000E+00  0.30753937044E+03  0.30753937048E+03  0.50400000000E-02 0. -1.
         -2   -1    0    0    0  501 -0.00000000000E+00 -0.00000000000E+00 -0.51667244608E+01  0.51667250901E+01  0.25500000000E-02 0.  1.
        -24    2    1    2    0    0  0.35527136788E-14  0.00000000000E+00  0.30237264598E+03  0.31270609557E+03  0.79723805548E+02 0.  0.
         66    2    3    3    0    0 -0.31661085203E+02 -0.23463107626E+02  0.12840179364E+03  0.13432781672E+03  0.20000002701E+01 0.  0.
         13    1    3    3    0    0  0.31661085203E+02  0.23463107626E+02  0.17397085234E+03  0.17837827885E+03  0.10566000000E+00 0. -1.
         13    1    4    4    0    0 -0.77260034701E+01 -0.62925689475E+01  0.33986633432E+02  0.35417368192E+02  0.10566000000E+00 0. -1.
        -13    1    4    4    0    0 -0.93440619237E+01 -0.69742427186E+01  0.39108015504E+02  0.40809307706E+02  0.10566000000E+00 0.  1.
        -14    1    4    4    0    0 -0.14591019809E+02 -0.10196295960E+02  0.55307144700E+02  0.58101140825E+02  0.00000000000E+00 0.  1.
<mgrwt>
<rscale>  0 0.79723806E+02</rscale>
<asrwt>0</asrwt>
<pdfrwt beam="1">  1        1 0.47313770E-01 0.79723806E+02</pdfrwt>
<pdfrwt beam="2">  1       -2 0.79488039E-03 0.79723806E+02</pdfrwt>
<totfact> 0.18292670E+05</totfact>
</mgrwt>
</event>
<event>
 8    1  0.7756875E-018  0.8297522E+02  0.7818608E-02  0.1320814E+00
         -2   -1    0    0    0  501 -0.00000000000E+00  0.00000000000E+00  0.35847593688E+02  0.35847593779E+02  0.25500000000E-02 0.  1.
          1   -1    0    0  501    0  0.00000000000E+00 -0.00000000000E+00 -0.48014984887E+02  0.48014985152E+02  0.50400000000E-02 0. -1.
        -24    2    1    2    0    0 -0.88817841970E-15  0.00000000000E+00 -0.12167391199E+02  0.83862578931E+02  0.82975217603E+02 0.  0.
         66    2    3    3    0    0  0.77075497028E+01 -0.22110125774E+02  0.28497915817E+02  0.36937720456E+02  0.20000005897E+01 0.  0.
         13    1    3    3    0    0 -0.77075497028E+01  0.22110125774E+02 -0.40665307016E+02  0.46924858475E+02  0.10566000000E+00 0. -1.
         13    1    4    4    0    0  0.21394982433E+00 -0.30056885869E+00  0.31507594148E+00  0.49654108656E+00  0.10566000000E+00 0. -1.
        -13    1    4    4    0    0  0.46861670224E+01 -0.11837137519E+02  0.16075399660E+02  0.20506282556E+02  0.10566000000E+00 0.  1.
        -14    1    4    4    0    0  0.28074328561E+01 -0.99724193968E+01  0.12107440215E+02  0.15934896813E+02  0.00000000000E+00 0.  1.
<mgrwt>
<rscale>  0 0.82975218E+02</rscale>
<asrwt>0</asrwt>
<pdfrwt beam="1">  1        1 0.73869208E-02 0.82975218E+02</pdfrwt>
<pdfrwt beam="2">  1       -2 0.55150144E-02 0.82975218E+02</pdfrwt>
<totfact> 0.11804298E+05</totfact>
</mgrwt>
</event>
<event>
 8    1  0.7756875E-018  0.7874606E+02  0.7818608E-02  0.1332648E+00
         -2   -1    0    0    0  501 -0.00000000000E+00  0.00000000000E+00  0.93114664999E+02  0.93114665034E+02  0.25500000000E-02 0.  1.
          1   -1    0    0  501    0  0.00000000000E+00 -0.00000000000E+00 -0.16648669630E+02  0.16648670393E+02  0.50400000000E-02 0. -1.
        -24    2    1    2    0    0  0.00000000000E+00  0.88817841970E-15  0.76465995369E+02  0.10976333543E+03  0.78746056132E+02 0.  0.
         66    2    3    3    0    0  0.35648553989E+02 -0.73138586855E+01  0.59115628913E+02  0.69447602636E+02  0.19999999194E+01 0.  0.
         13    1    3    3    0    0 -0.35648553989E+02  0.73138586855E+01  0.17350366456E+02  0.40315732792E+02  0.10566000000E+00 0. -1.
         13    1    4    4    0    0  0.23015630960E+02 -0.56075508099E+01  0.38596493134E+02  0.45286469732E+02  0.10566000000E+00 0. -1.
        -13    1    4    4    0    0  0.54529847849E+01 -0.52553357466E+00  0.89426985067E+01  0.10487814320E+02  0.10566000000E+00 0.  1.
         14    1    4    4    0    0  0.71799382440E+01 -0.11807743009E+01  0.11576437273E+02  0.13673318583E+02  0.00000000000E+00 0. -1.
<mgrwt>
<rscale>  0 0.78746056E+02</rscale>
<asrwt>0</asrwt>
<pdfrwt beam="1">  1        1 0.25613339E-02 0.78746056E+02</pdfrwt>
<pdfrwt beam="2">  1       -2 0.14325333E-01 0.78746056E+02</pdfrwt>
<totfact> 0.11243052E+05</totfact>
</mgrwt>
</event>
<event>
 8    1  0.7756875E-018  0.7983334E+02  0.7818608E-02  0.1329525E+00
          1   -1    0    0  501    0  0.00000000000E+00  0.00000000000E+00  0.27016059455E+02  0.27016059925E+02  0.50400000000E-02 0. -1.
         -2   -1    0    0    0  501 -0.00000000000E+00 -0.00000000000E+00 -0.58977533991E+02  0.58977534046E+02  0.25500000000E-02 0.  1.
        -24    2    1    2    0    0 -0.17763568394E-14  0.35527136788E-14 -0.31961474537E+02  0.85993593971E+02  0.79833341089E+02 0.  0.
         66    2    3    3    0    0  0.13424127160E+02 -0.24789050142E+02 -0.46393324162E+02  0.54323519065E+02  0.19999999723E+01 0.  0.
         13    1    3    3    0    0 -0.13424127160E+02  0.24789050142E+02  0.14431849625E+02  0.31670074906E+02  0.10566000000E+00 0. -1.
         13    1    4    4    0    0  0.34663082619E+01 -0.60126523225E+01 -0.11123716507E+02  0.13111655650E+02  0.10566000000E+00 0.  1.
        -13    1    4    4    0    0  0.19830455116E+01 -0.24953432649E+01 -0.52876801777E+01  0.61749439842E+01  0.10566000000E+00 0. -1.
         14    1    4    4    0    0  0.79747733863E+01 -0.16281054554E+02 -0.29981927477E+02  0.35036919431E+02  0.00000000000E+00 0. -1.
<mgrwt>
<rscale>  0 0.79833341E+02</rscale>
<asrwt>0</asrwt>
<pdfrwt beam="1">  1        1 0.41563169E-02 0.79833341E+02</pdfrwt>
<pdfrwt beam="2">  1       -2 0.90734667E-02 0.79833341E+02</pdfrwt>
<totfact> 0.11939589E+05</totfact>
</mgrwt>
</event>
<event>
 8    1  0.7756875E-018  0.7906368E+02  0.7818608E-02  0.1331730E+00
          1   -1    0    0  501    0  0.00000000000E+00  0.00000000000E+00  0.51092818628E+02  0.51092818876E+02  0.50400000000E-02 0. -1.
         -2   -1    0    0    0  501 -0.00000000000E+00 -0.00000000000E+00 -0.30586812957E+02  0.30586813063E+02  0.25500000000E-02 0.  1.
        -24    2    1    2    0    0  0.00000000000E+00  0.44408920985E-15  0.20506005671E+02  0.81679631940E+02  0.79063683226E+02 0.  0.
         66    2    3    3    0    0  0.22435155038E+02  0.24127666291E+01 -0.23241844960E+02  0.32455214999E+02  0.19999997779E+01 0.  0.
         13    1    3    3    0    0 -0.22435155038E+02 -0.24127666291E+01  0.43747850630E+02  0.49224416941E+02  0.10566000000E+00 0. -1.
         13    1    4    4    0    0  0.43360443856E+01  0.60913319211E+00 -0.48723577731E+01  0.65515920557E+01  0.10566000000E+00 0. -1.
        -13    1    4    4    0    0  0.12146662993E+02  0.53195928486E+00 -0.12778675396E+02  0.17638880674E+02  0.10566000000E+00 0.  1.
        -14    1    4    4    0    0  0.59524476594E+01  0.12716741521E+01 -0.55908117911E+01  0.82647422688E+01  0.00000000000E+00 0.  1.
<mgrwt>
<rscale>  0 0.79063683E+02</rscale>
<asrwt>0</asrwt>
<pdfrwt beam="1">  1        1 0.78604336E-02 0.79063683E+02</pdfrwt>
<pdfrwt beam="2">  1       -2 0.47056636E-02 0.79063683E+02</pdfrwt>
<totfact> 0.13640438E+05</totfact>
</mgrwt>
</event>
<event>
 8    1  0.7756875E-018  0.8129238E+02  0.7818608E-02  0.1325423E+00
          1   -1    0    0  501    0  0.00000000000E+00  0.00000000000E+00  0.11596149787E+02  0.11596150882E+02  0.50400000000E-02 0. -1.
         -2   -1    0    0    0  501 -0.00000000000E+00 -0.00000000000E+00 -0.14247078719E+03  0.14247078721E+03  0.25500000000E-02 0.  1.
        -24    2    1    2    0    0  0.00000000000E+00  0.00000000000E+00 -0.13087463740E+03  0.15406693809E+03  0.81292377861E+02 0.  0.
         66    2    3    3    0    0 -0.21039572358E+02  0.14061182648E+02 -0.12569971562E+03  0.12823727603E+03  0.19999991195E+01 0.  0.
         13    1    3    3    0    0  0.21039572358E+02 -0.14061182648E+02 -0.51749217843E+01  0.25829662057E+02  0.10566000000E+00 0. -1.
         13    1    4    4    0    0 -0.11595965683E+02  0.70694858245E+01 -0.64139383469E+02  0.65561541514E+02  0.10566000000E+00 0. -1.
        -13    1    4    4    0    0 -0.63163466976E+01  0.42737334978E+01 -0.39439279495E+02  0.40170000806E+02  0.10566000000E+00 0.  1.
         14    1    4    4    0    0 -0.31272599772E+01  0.27179633253E+01 -0.22121052652E+02  0.22505733714E+02  0.00000000000E+00 0. -1.
<mgrwt>
<rscale>  0 0.81292378E+02</rscale>
<asrwt>0</asrwt>
<pdfrwt beam="1">  1        1 0.17840232E-02 0.81292378E+02</pdfrwt>
<pdfrwt beam="2">  1       -2 0.21918581E-01 0.81292378E+02</pdfrwt>
<totfact> 0.92211833E+04</totfact>
</mgrwt>
</event>
<event>
 8    1  0.7756875E-018  0.7900093E+02  0.7818608E-02  0.1331911E+00
         -2   -1    0    0    0  501 -0.00000000000E+00  0.00000000000E+00  0.86470021717E+02  0.86470021754E+02  0.25500000000E-02 0.  1.
          1   -1    0    0  501    0  0.00000000000E+00 -0.00000000000E+00 -0.18044250601E+02  0.18044251305E+02  0.50400000000E-02 0. -1.
        -24    2    1    2    0    0  0.17763568394E-14 -0.35527136788E-14  0.68425771115E+02  0.10451427306E+03  0.79000931136E+02 0.  0.
         66    2    3    3    0    0  0.14961535279E+02 -0.21095580525E+02  0.73689074029E+02  0.78121384298E+02  0.19999994570E+01 0.  0.
         13    1    3    3    0    0 -0.14961535279E+02  0.21095580525E+02 -0.52633029131E+01  0.26392888761E+02  0.10566000000E+00 0. -1.
         13    1    4    4    0    0  0.48907973419E+01 -0.78774024204E+01  0.27156504351E+02  0.28695997285E+02  0.10566000000E+00 0. -1.
        -13    1    4    4    0    0  0.41338121895E+01 -0.53798563851E+01  0.20758185287E+02  0.21839063130E+02  0.10566000000E+00 0.  1.
         14    1    4    4    0    0  0.59369257476E+01 -0.78383217192E+01  0.25774384390E+02  0.27586323883E+02  0.00000000000E+00 0. -1.
<mgrwt>
<rscale>  0 0.79000931E+02</rscale>
<asrwt>0</asrwt>
<pdfrwt beam="1">  1        1 0.27760387E-02 0.79000931E+02</pdfrwt>
<pdfrwt beam="2">  1       -2 0.13303080E-01 0.79000931E+02</pdfrwt>
<totfact> 0.11343328E+05</totfact>
</mgrwt>
</event>
<event>
 8    1  0.7756875E-018  0.7487388E+02  0.7818608E-02  0.1344262E+00
         -2   -1    0    0    0  501 -0.00000000000E+00  0.00000000000E+00  0.11554894480E+03  0.11554894483E+03  0.25500000000E-02 0.  1.
          1   -1    0    0  501    0  0.00000000000E+00 -0.00000000000E+00 -0.12129269310E+02  0.12129270357E+02  0.50400000000E-02 0. -1.
        -24    2    1    2    0    0 -0.35527136788E-14  0.00000000000E+00  0.10341967549E+03  0.12767821519E+03  0.74873876317E+02 0.  0.
         66    2    3    3    0    0  0.27624921811E+02 -0.89772462033E+01  0.91948172456E+02  0.96447880570E+02  0.19999985036E+01 0.  0.
         13    1    3    3    0    0 -0.27624921811E+02  0.89772462033E+01  0.11471503038E+02  0.31230334619E+02  0.10566000000E+00 0. -1.
         13    1    4    4    0    0  0.78628140344E-01  0.10794887767E-01  0.32953187975E+00  0.35504113766E+00  0.10566000000E+00 0.  1.
        -13    1    4    4    0    0  0.97256322842E+01 -0.33432439743E+01  0.33090817862E+02  0.34652252371E+02  0.10566000000E+00 0. -1.
        -14    1    4    4    0    0  0.17820661386E+02 -0.56447971167E+01  0.58527822714E+02  0.61440587061E+02  0.00000000000E+00 0.  1.
<mgrwt>
<rscale>  0 0.74873876E+02</rscale>
<asrwt>0</asrwt>
<pdfrwt beam="1">  1        1 0.18660415E-02 0.74873876E+02</pdfrwt>
<pdfrwt beam="2">  1       -2 0.17776761E-01 0.74873876E+02</pdfrwt>
<totfact> 0.12109637E+05</totfact>
</mgrwt>
</event>
<event>
 8    1  0.7756875E-018  0.8018239E+02  0.7818608E-02  0.1328535E+00
         -2   -1    0    0    0  501 -0.00000000000E+00  0.00000000000E+00  0.10550255253E+04  0.10550255253E+04  0.25500000000E-02 0.  1.
          1   -1    0    0  501    0  0.00000000000E+00 -0.00000000000E+00 -0.15234696753E+01  0.15234780121E+01  0.50400000000E-02 0. -1.
        -24    2    1    2    0    0  0.35527136788E-14 -0.17763568394E-14  0.10535020556E+04  0.10565490033E+04  0.80182387097E+02 0.  0.
         66    2    3    3    0    0  0.18820329725E+02  0.12545924215E+02  0.96284905176E+03  0.96311676424E+03  0.20000130986E+01 0.  0.
         13    1    3    3    0    0 -0.18820329725E+02 -0.12545924215E+02  0.90653003833E+02  0.93432239047E+02  0.10566000000E+00 0. -1.
         13    1    4    4    0    0  0.38596513389E+00  0.43715381575E+00  0.24059660544E+02  0.24066958721E+02  0.10566000000E+00 0. -1.
        -13    1    4    4    0    0  0.12435418851E+02  0.90474657077E+01  0.65322736519E+03  0.65340837007E+03  0.10566000000E+00 0.  1.
         14    1    4    4    0    0  0.59989457408E+01  0.30613046919E+01  0.28556202603E+03  0.28564143545E+03  0.00000000000E+00 0. -1.
<mgrwt>
<rscale>  0 0.80182387E+02</rscale>
<asrwt>0</asrwt>
<pdfrwt beam="1">  1        1 0.23437966E-03 0.80182387E+02</pdfrwt>
<pdfrwt beam="2">  1       -2 0.16231226E+00 0.80182387E+02</pdfrwt>
<totfact> 0.24323411E+04</totfact>
</mgrwt>
</event>
<event>
 8    1  0.7756875E-018  0.8215078E+02  0.7818608E-02  0.1323056E+00
          1   -1    0    0  501    0  0.00000000000E+00  0.00000000000E+00  0.80537431830E+01  0.80537447600E+01  0.50400000000E-02 0. -1.
         -2   -1    0    0    0  501 -0.00000000000E+00 -0.00000000000E+00 -0.20949110348E+03  0.20949110350E+03  0.25500000000E-02 0.  1.
        -24    2    1    2    0    0  0.00000000000E+00  0.00000000000E+00 -0.20143736030E+03  0.21754484826E+03  0.82150781367E+02 0.  0.
         66    2    3    3    0    0 -0.83133207981E+01  0.79494276508E+01 -0.20513141101E+03  0.20546337991E+03  0.19999999736E+01 0.  0.
         13    1    3    3    0    0  0.83133207981E+01 -0.79494276508E+01  0.36940507106E+01  0.12081468344E+02  0.10566000000E+00 0. -1.
         13    1    4    4    0    0 -0.11061223878E+01  0.16346646733E+01 -0.34813468014E+02  0.34869533329E+02  0.10566000000E+00 0. -1.
        -13    1    4    4    0    0 -0.37046628161E+01  0.35045144531E+01 -0.77841053838E+02  0.78007993018E+02  0.10566000000E+00 0.  1.
         14    1    4    4    0    0 -0.35025355941E+01  0.28102485244E+01 -0.92476889159E+02  0.92585853568E+02  0.00000000000E+00 0. -1.
<mgrwt>
<rscale>  0 0.82150781E+02</rscale>
<asrwt>0</asrwt>
<pdfrwt beam="1">  1        1 0.12390377E-02 0.82150781E+02</pdfrwt>
<pdfrwt beam="2">  1       -2 0.32229396E-01 0.82150781E+02</pdfrwt>
<totfact> 0.77937605E+04</totfact>
</mgrwt>
</event>
<event>
 8    1  0.7756875E-018  0.8042684E+02  0.7818608E-02  0.1327844E+00
          1   -1    0    0  501    0  0.00000000000E+00  0.00000000000E+00  0.60063200251E+02  0.60063200463E+02  0.50400000000E-02 0. -1.
         -2   -1    0    0    0  501 -0.00000000000E+00 -0.00000000000E+00 -0.26923622936E+02  0.26923623057E+02  0.25500000000E-02 0.  1.
        -24    2    1    2    0    0  0.00000000000E+00  0.00000000000E+00  0.33139577315E+02  0.86986823519E+02  0.80426835580E+02 0.  0.
         66    2    3    3    0    0  0.20559620231E+01 -0.17769704728E+02 -0.22343169364E+02  0.28691577323E+02  0.20000015316E+01 0.  0.
         13    1    3    3    0    0 -0.20559620231E+01  0.17769704728E+02  0.55482746679E+02  0.58295246196E+02  0.10566000000E+00 0. -1.
         13    1    4    4    0    0  0.66734430037E+00 -0.55032772492E+01 -0.59245186169E+01  0.81143387762E+01  0.10566000000E+00 0.  1.
        -13    1    4    4    0    0  0.11465971974E+01 -0.53371989643E+01 -0.68205824493E+01  0.87368121704E+01  0.10566000000E+00 0. -1.
         14    1    4    4    0    0  0.24202052534E+00 -0.69292285147E+01 -0.95980682974E+01  0.11840426377E+02  0.00000000000E+00 0. -1.
<mgrwt>
<rscale>  0 0.80426836E+02</rscale>
<asrwt>0</asrwt>
<pdfrwt beam="1">  1        1 0.92404924E-02 0.80426836E+02</pdfrwt>
<pdfrwt beam="2">  1       -2 0.41420959E-02 0.80426836E+02</pdfrwt>
<totfact> 0.13343463E+05</totfact>
</mgrwt>
</event>
<event>
 8    1  0.7756875E-018  0.8079432E+02  0.7818608E-02  0.1326812E+00
         -2   -1    0    0    0  501 -0.00000000000E+00  0.00000000000E+00  0.40152303859E+01  0.40152311957E+01  0.25500000000E-02 0.  1.
          1   -1    0    0  501    0  0.00000000000E+00 -0.00000000000E+00 -0.40643505393E+03  0.40643505396E+03  0.50400000000E-02 0. -1.
        -24    2    1    2    0    0  0.00000000000E+00 -0.35527136788E-14 -0.40241982355E+03  0.41045028516E+03  0.80794320371E+02 0.  0.
         66    2    3    3    0    0  0.36285442265E+02  0.17049776359E+02 -0.22548240098E+03  0.22902759952E+03  0.19999995441E+01 0.  0.
         13    1    3    3    0    0 -0.36285442265E+02 -0.17049776359E+02 -0.17693742257E+03  0.18142268564E+03  0.10566000000E+00 0. -1.
         13    1    4    4    0    0  0.38846130211E+01  0.23279822111E+01 -0.25847718481E+02  0.26241673617E+02  0.10566000000E+00 0. -1.
        -13    1    4    4    0    0  0.11781200531E+02  0.47877618859E+01 -0.69597170178E+02  0.70749534349E+02  0.10566000000E+00 0.  1.
        -14    1    4    4    0    0  0.20619628713E+02  0.99340322617E+01 -0.13003751232E+03  0.13203639156E+03  0.00000000000E+00 0.  1.
<mgrwt>
<rscale>  0 0.80794320E+02</rscale>
<asrwt>0</asrwt>
<pdfrwt beam="1">  1        1 0.62528438E-01 0.80794320E+02</pdfrwt>
<pdfrwt beam="2">  1       -2 0.61772813E-03 0.80794320E+02</pdfrwt>
<totfact> 0.18554832E+05</totfact>
</mgrwt>
</event>
<event>
 8    1  0.7756875E-018  0.8060185E+02  0.7818608E-02  0.1327352E+00
         -2   -1    0    0    0  501 -0.00000000000E+00  0.00000000000E+00  0.35355558977E+03  0.35355558977E+03  0.25500000000E-02 0.  1.
          1   -1    0    0  501    0  0.00000000000E+00 -0.00000000000E+00 -0.45938013207E+01  0.45938040854E+01  0.50400000000E-02 0. -1.
        -24    2    1    2    0    0  0.00000000000E+00  0.00000000000E+00  0.34896178844E+03  0.35814939386E+03  0.80601851888E+02 0.  0.
         66    2    3    3    0    0 -0.25878463503E+02  0.16827544786E+02  0.28954335825E+03  0.29119103256E+03  0.20000003365E+01 0.  0.
         13    1    3    3    0    0  0.25878463503E+02 -0.16827544786E+02  0.59418430193E+02  0.66958361296E+02  0.10566000000E+00 0. -1.
         13    1    4    4    0    0 -0.14802754725E+01  0.13161554652E+01  0.17451428554E+02  0.17563798089E+02  0.10566000000E+00 0. -1.
        -13    1    4    4    0    0 -0.18318776265E+01  0.15268917767E+01  0.24535918678E+02  0.24651767554E+02  0.10566000000E+00 0.  1.
        -14    1    4    4    0    0 -0.22566310404E+02  0.13984497544E+02  0.24755601102E+03  0.24897546692E+03  0.00000000000E+00 0.  1.
<mgrwt>
<rscale>  0 0.80601852E+02</rscale>
<asrwt>0</asrwt>
<pdfrwt beam="1">  1        1 0.70673878E-03 0.80601852E+02</pdfrwt>
<pdfrwt beam="2">  1       -2 0.54393175E-01 0.80601852E+02</pdfrwt>
<totfact> 0.62693915E+04</totfact>
</mgrwt>
</event>
<event>
 8    1  0.7756875E-018  0.7752074E+02  0.7818608E-02  0.1336238E+00
          1   -1    0    0  501    0  0.00000000000E+00  0.00000000000E+00  0.38958296072E+02  0.38958296398E+02  0.50400000000E-02 0. -1.
         -2   -1    0    0    0  501 -0.00000000000E+00 -0.00000000000E+00 -0.38563450604E+02  0.38563450688E+02  0.25500000000E-02 0.  1.
        -24    2    1    2    0    0 -0.71054273576E-14  0.00000000000E+00  0.39484546837E+00  0.77521747086E+02  0.77520741536E+02 0.  0.
         66    2    3    3    0    0  0.35147624356E+02 -0.10501517401E+02 -0.12241420099E+02  0.38723245348E+02  0.19999996636E+01 0.  0.
         13    1    3    3    0    0 -0.35147624356E+02  0.10501517401E+02  0.12636265567E+02  0.38798501738E+02  0.10566000000E+00 0. -1.
         13    1    4    4    0    0  0.54980507289E+01 -0.21848449113E+01 -0.16868716981E+01  0.61529512647E+01  0.10566000000E+00 0. -1.
        -13    1    4    4    0    0  0.16925504088E+02 -0.42810278165E+01 -0.56848917202E+01  0.18361074198E+02  0.10566000000E+00 0.  1.
        -14    1    4    4    0    0  0.12724069539E+02 -0.40356446735E+01 -0.48696566806E+01  0.14209219885E+02  0.00000000000E+00 0.  1.
<mgrwt>
<rscale>  0 0.77520742E+02</rscale>
<asrwt>0</asrwt>
<pdfrwt beam="1">  1        1 0.59935840E-02 0.77520742E+02</pdfrwt>
<pdfrwt beam="2">  1       -2 0.59328386E-02 0.77520742E+02</pdfrwt>
<totfact> 0.13814026E+05</totfact>
</mgrwt>
</event>
<event>
 8    1  0.7756875E-018  0.8368033E+02  0.7818608E-02  0.1318920E+00
          1   -1    0    0  501    0  0.00000000000E+00  0.00000000000E+00  0.17720329518E+03  0.17720329525E+03  0.50400000000E-02 0. -1.
         -2   -1    0    0    0  501 -0.00000000000E+00 -0.00000000000E+00 -0.98790448673E+01  0.98790451964E+01  0.25500000000E-02 0.  1.
        -24    2    1    2    0    0  0.17763568394E-14  0.00000000000E+00  0.16732425031E+03  0.18708234045E+03  0.83680328422E+02 0.  0.
         66    2    3    3    0    0 -0.10399427063E+02 -0.26815234692E+02  0.15847098170E+02  0.32898866366E+02  0.19999982305E+01 0.  0.
         13    1    3    3    0    0  0.10399427063E+02  0.26815234692E+02  0.15147715214E+03  0.15418347408E+03  0.10566000000E+00 0. -1.
         13    1    4    4    0    0 -0.87802925652E+00 -0.15054510700E+01  0.12495926412E+01  0.21470826961E+01  0.10566000000E+00 0. -1.
        -13    1    4    4    0    0 -0.48086874791E+01 -0.11659569899E+02  0.63349333286E+01  0.14114233590E+02  0.10566000000E+00 0.  1.
        -14    1    4    4    0    0 -0.47127103276E+01 -0.13650213722E+02  0.82625722000E+01  0.16637550080E+02  0.00000000000E+00 0.  1.
<mgrwt>
<rscale>  0 0.83680328E+02</rscale>
<asrwt>0</asrwt>
<pdfrwt beam="1">  1        1 0.27262044E-01 0.83680328E+02</pdfrwt>
<pdfrwt beam="2">  1       -2 0.15198532E-02 0.83680328E+02</pdfrwt>
<totfact> 0.14446991E+05</totfact>
</mgrwt>
</event>
<event>
 8    1  0.7756875E-018  0.7919674E+02  0.7818608E-02  0.1331347E+00
          1   -1    0    0  501    0  0.00000000000E+00  0.00000000000E+00  0.44788811210E+02  0.44788811494E+02  0.50400000000E-02 0. -1.
         -2   -1    0    0    0  501 -0.00000000000E+00 -0.00000000000E+00 -0.35009437507E+02  0.35009437599E+02  0.25500000000E-02 0.  1.
        -24    2    1    2    0    0  0.00000000000E+00 -0.71054273576E-14  0.97793737035E+01  0.79798249093E+02  0.79196744935E+02 0.  0.
         66    2    3    3    0    0 -0.11957050421E+02 -0.36654237895E+02  0.13878033312E+02  0.41025650714E+02  0.19999993809E+01 0.  0.
         13    1    3    3    0    0  0.11957050421E+02  0.36654237895E+02 -0.40986596086E+01  0.38772598379E+02  0.10566000000E+00 0. -1.
         13    1    4    4    0    0 -0.22075430702E+01 -0.73352299230E+01  0.34269351781E+01  0.83924902848E+01  0.10566000000E+00 0. -1.
        -13    1    4    4    0    0 -0.19573719020E+01 -0.49958827486E+01  0.20772001483E+01  0.57546566963E+01  0.10566000000E+00 0.  1.
        -14    1    4    4    0    0 -0.77921354492E+01 -0.24323125223E+02  0.83738979858E+01  0.26878503733E+02  0.00000000000E+00 0.  1.
<mgrwt>
<rscale>  0 0.79196745E+02</rscale>
<asrwt>0</asrwt>
<pdfrwt beam="1">  1        1 0.68905863E-02 0.79196745E+02</pdfrwt>
<pdfrwt beam="2">  1       -2 0.53860674E-02 0.79196745E+02</pdfrwt>
<totfact> 0.13300200E+05</totfact>
</mgrwt>
</event>
<event>
 8    1  0.7756875E-018  0.7905730E+02  0.7818608E-02  0.1331748E+00
          1   -1    0    0  501    0  0.00000000000E+00  0.00000000000E+00  0.13031272222E+02  0.13031273196E+02  0.50400000000E-02 0. -1.
         -2   -1    0    0    0  501 -0.00000000000E+00 -0.00000000000E+00 -0.11990495772E+03  0.11990495775E+03  0.25500000000E-02 0.  1.
        -24    2    1    2    0    0  0.00000000000E+00 -0.35527136788E-14 -0.10687368550E+03  0.13293623095E+03  0.79057301026E+02 0.  0.
         66    2    3    3    0    0  0.10973370554E+02 -0.30392907115E+02 -0.91681209738E+02  0.97229562828E+02  0.20000011034E+01 0.  0.
         13    1    3    3    0    0 -0.10973370554E+02  0.30392907115E+02 -0.15192475763E+02  0.35706668118E+02  0.10566000000E+00 0. -1.
         13    1    4    4    0    0  0.12253316049E+01 -0.46981979933E+01 -0.13384181344E+02  0.14238046784E+02  0.10566000000E+00 0. -1.
        -13    1    4    4    0    0  0.26346963699E+01 -0.66212098083E+01 -0.22129195079E+02  0.23248537227E+02  0.10566000000E+00 0.  1.
        -14    1    4    4    0    0  0.71133425793E+01 -0.19073499314E+02 -0.56167833314E+02  0.59742978817E+02  0.00000000000E+00 0.  1.
<mgrwt>
<rscale>  0 0.79057301E+02</rscale>
<asrwt>0</asrwt>
<pdfrwt beam="1">  1        1 0.20048113E-02 0.79057301E+02</pdfrwt>
<pdfrwt beam="2">  1       -2 0.18446916E-01 0.79057301E+02</pdfrwt>
<totfact> 0.10429241E+05</totfact>
</mgrwt>
</event>
<event>
 8    1  0.7756875E-018  0.8074496E+02  0.7818608E-02  0.1326951E+00
          1   -1    0    0  501    0  0.00000000000E+00  0.00000000000E+00  0.12407806386E+03  0.12407806396E+03  0.50400000000E-02 0. -1.
         -2   -1    0    0    0  501 -0.00000000000E+00 -0.00000000000E+00 -0.13136383257E+02  0.13136383504E+02  0.25500000000E-02 0.  1.
        -24    2    1    2    0    0  0.00000000000E+00  0.71054273576E-14  0.11094168060E+03  0.13721444746E+03  0.80744957108E+02 0.  0.
         66    2    3    3    0    0 -0.19986904626E+01  0.39988415212E+02  0.47031150688E+02  0.61798036038E+02  0.20000020867E+01 0.  0.
         13    1    3    3    0    0  0.19986904626E+01 -0.39988415212E+02  0.63910529910E+02  0.75416411424E+02  0.10566000000E+00 0. -1.
         13    1    4    4    0    0 -0.16101981147E+01  0.23635458300E+02  0.27860394874E+02  0.36571032164E+02  0.10566000000E+00 0. -1.
        -13    1    4    4    0    0 -0.68838694685E+00  0.14771781945E+02  0.17259922503E+02  0.22728737476E+02  0.10566000000E+00 0.  1.
         14    1    4    4    0    0  0.29989459891E+00  0.15811749667E+01  0.19108333120E+01  0.24982663973E+01  0.00000000000E+00 0. -1.
<mgrwt>
<rscale>  0 0.80744957E+02</rscale>
<asrwt>0</asrwt>
<pdfrwt beam="1">  1        1 0.19088933E-01 0.80744957E+02</pdfrwt>
<pdfrwt beam="2">  1       -2 0.20209821E-02 0.80744957E+02</pdfrwt>
<totfact> 0.14880730E+05</totfact>
</mgrwt>
</event>
<event>
 8    1  0.7756875E-018  0.8712361E+02  0.7818608E-02  0.1309971E+00
         -2   -1    0    0    0  501 -0.00000000000E+00  0.00000000000E+00  0.20872577683E+03  0.20872577684E+03  0.25500000000E-02 0.  1.
          1   -1    0    0  501    0  0.00000000000E+00 -0.00000000000E+00 -0.90915013837E+01  0.90915027807E+01  0.50400000000E-02 0. -1.
        -24    2    1    2    0    0  0.00000000000E+00  0.00000000000E+00  0.19963427545E+03  0.21781727963E+03  0.87123609721E+02 0.  0.
         66    2    3    3    0    0 -0.37712844026E+02  0.18653825963E+02  0.12786640641E+03  0.13462556118E+03  0.20000019847E+01 0.  0.
         13    1    3    3    0    0  0.37712844026E+02 -0.18653825963E+02  0.71767869037E+02  0.83191718445E+02  0.10566000000E+00 0. -1.
         13    1    4    4    0    0 -0.15156580348E+02  0.69362114184E+01  0.49193060307E+02  0.51940362947E+02  0.10566000000E+00 0.  1.
        -13    1    4    4    0    0 -0.18463785729E+02  0.10051115603E+02  0.65365874872E+02  0.68663273081E+02  0.10566000000E+00 0. -1.
         14    1    4    4    0    0 -0.40924779488E+01  0.16664989420E+01  0.13307471229E+02  0.14021925153E+02  0.00000000000E+00 0. -1.
<mgrwt>
<rscale>  0 0.87123610E+02</rscale>
<asrwt>0</asrwt>
<pdfrwt beam="1">  1        1 0.13986927E-02 0.87123610E+02</pdfrwt>
<pdfrwt beam="2">  1       -2 0.32111656E-01 0.87123610E+02</pdfrwt>
<totfact> 0.67039690E+04</totfact>
</mgrwt>
</event>
<event>
 8    1  0.7756875E-018  0.8075390E+02  0.7818608E-02  0.1326926E+00
          1   -1    0    0  501    0  0.00000000000E+00  0.00000000000E+00  0.24096683951E+03  0.24096683956E+03  0.50400000000E-02 0. -1.
         -2   -1    0    0    0  501 -0.00000000000E+00 -0.00000000000E+00 -0.67656524326E+01  0.67656529131E+01  0.25500000000E-02 0.  1.
        -24    2    1    2    0    0 -0.71054273576E-14  0.00000000000E+00  0.23420118707E+03  0.24773249247E+03  0.80753896499E+02 0.  0.
         66    2    3    3    0    0  0.38458419140E+02  0.12215961909E+02  0.11752518989E+03  0.12427570161E+03  0.20000057180E+01 0.  0.
         13    1    3    3    0    0 -0.38458419140E+02 -0.12215961909E+02  0.11667599718E+03  0.12345679086E+03  0.10566000000E+00 0. -1.
         13    1    4    4    0    0  0.20188492279E+02  0.60179161043E+01  0.63263382978E+02  0.66678762171E+02  0.10566000000E+00 0. -1.
        -13    1    4    4    0    0  0.16540014131E+02  0.53304324973E+01  0.48604559696E+02  0.51617826043E+02  0.10566000000E+00 0.  1.
         14    1    4    4    0    0  0.17299127303E+01  0.86761330759E+00  0.56572472171E+01  0.59791133943E+01  0.00000000000E+00 0. -1.
<mgrwt>
<rscale>  0 0.80753896E+02</rscale>
<asrwt>0</asrwt>
<pdfrwt beam="1">  1        1 0.37071817E-01 0.80753896E+02</pdfrwt>
<pdfrwt beam="2">  1       -2 0.10408698E-02 0.80753896E+02</pdfrwt>
<totfact> 0.16866769E+05</totfact>
</mgrwt>
</event>
<event>
 8    1  0.7756875E-018  0.8032108E+02  0.7818608E-02  0.1328143E+00
          1   -1    0    0  501    0  0.00000000000E+00  0.00000000000E+00  0.45195063046E+02  0.45195063327E+02  0.50400000000E-02 0. -1.
         -2   -1    0    0    0  501 -0.00000000000E+00 -0.00000000000E+00 -0.35686842149E+02  0.35686842240E+02  0.25500000000E-02 0.  1.
        -24    2    1    2    0    0  0.00000000000E+00 -0.35527136788E-14  0.95082208966E+01  0.80881905567E+02  0.80321083058E+02 0.  0.
         66    2    3    3    0    0  0.79592240027E+01 -0.11574362425E+02 -0.33102657687E+02  0.36015289359E+02  0.20000023570E+01 0.  0.
         13    1    3    3    0    0 -0.79592240027E+01  0.11574362425E+02  0.42610878583E+02  0.44866616208E+02  0.10566000000E+00 0. -1.
         13    1    4    4    0    0  0.72689998444E+00 -0.57379916786E+00 -0.17168596203E+01  0.19535608677E+01  0.10566000000E+00 0. -1.
        -13    1    4    4    0    0  0.48062241502E+00 -0.56963796748E+00 -0.26447110571E+01  0.27497537946E+01  0.10566000000E+00 0.  1.
        -14    1    4    4    0    0  0.67517016033E+01 -0.10430925289E+02 -0.28741087009E+02  0.31311974697E+02  0.00000000000E+00 0.  1.
<mgrwt>
<rscale>  0 0.80321083E+02</rscale>
<asrwt>0</asrwt>
<pdfrwt beam="1">  1        1 0.69530867E-02 0.80321083E+02</pdfrwt>
<pdfrwt beam="2">  1       -2 0.54902834E-02 0.80321083E+02</pdfrwt>
<totfact> 0.12804462E+05</totfact>
</mgrwt>
</event>
<event>
 8    1  0.7756875E-018  0.7853481E+02  0.7818608E-02  0.1333262E+00
          1   -1    0    0  501    0  0.00000000000E+00  0.00000000000E+00  0.42398555881E+02  0.42398556180E+02  0.50400000000E-02 0. -1.
         -2   -1    0    0    0  501 -0.00000000000E+00 -0.00000000000E+00 -0.36367487624E+02  0.36367487713E+02  0.25500000000E-02 0.  1.
        -24    2    1    2    0    0  0.13877787808E-15  0.00000000000E+00  0.60310682570E+01  0.78766043893E+02  0.78534806846E+02 0.  0.
         66    2    3    3    0    0 -0.29273077055E-01  0.19441321695E+02 -0.31170390458E+02  0.36790747102E+02  0.19999962310E+01 0.  0.
         13    1    3    3    0    0  0.29273077055E-01 -0.19441321695E+02  0.37201458715E+02  0.41975296791E+02  0.10566000000E+00 0. -1.
         13    1    4    4    0    0  0.70320548239E+00  0.53662482095E+01 -0.81089859063E+01  0.97497658567E+01  0.10566000000E+00 0. -1.
        -13    1    4    4    0    0 -0.64310916930E+00  0.95195971844E+01 -0.16304328026E+02  0.18891230674E+02  0.10566000000E+00 0.  1.
        -14    1    4    4    0    0 -0.89369390147E-01  0.45554763007E+01 -0.67570765255E+01  0.81497505720E+01  0.00000000000E+00 0.  1.
<mgrwt>
<rscale>  0 0.78534807E+02</rscale>
<asrwt>0</asrwt>
<pdfrwt beam="1">  1        1 0.65228548E-02 0.78534807E+02</pdfrwt>
<pdfrwt beam="2">  1       -2 0.55949981E-02 0.78534807E+02</pdfrwt>
<totfact> 0.13498904E+05</totfact>
</mgrwt>
</event>
<event>
 8    1  0.7756875E-018  0.8148919E+02  0.7818608E-02  0.1324878E+00
          1   -1    0    0  501    0  0.00000000000E+00  0.00000000000E+00  0.25156965390E+02  0.25156965895E+02  0.50400000000E-02 0. -1.
         -2   -1    0    0    0  501 -0.00000000000E+00 -0.00000000000E+00 -0.65990545302E+02  0.65990545351E+02  0.25500000000E-02 0.  1.
        -24    2    1    2    0    0 -0.35527136788E-14  0.00000000000E+00 -0.40833579912E+02  0.91147511247E+02  0.81489186755E+02 0.  0.
         66    2    3    3    0    0 -0.17465031153E+02  0.32325645100E+02 -0.40063582092E+02  0.54397290771E+02  0.19999972223E+01 0.  0.
         13    1    3    3    0    0  0.17465031153E+02 -0.32325645100E+02 -0.76999782009E+00  0.36750220476E+02  0.10566000000E+00 0. -1.
         13    1    4    4    0    0 -0.63664870320E+01  0.11874434671E+02 -0.13384250394E+02  0.18991673927E+02  0.10566000000E+00 0. -1.
        -13    1    4    4    0    0 -0.43691895573E+01  0.81439172917E+01 -0.11009527408E+02  0.14374771790E+02  0.10566000000E+00 0.  1.
         14    1    4    4    0    0 -0.67293545641E+01  0.12307293137E+02 -0.15669804290E+02  0.21030845054E+02  0.00000000000E+00 0. -1.
<mgrwt>
<rscale>  0 0.81489187E+02</rscale>
<asrwt>0</asrwt>
<pdfrwt beam="1">  1        1 0.38703024E-02 0.81489187E+02</pdfrwt>
<pdfrwt beam="2">  1       -2 0.10152392E-01 0.81489187E+02</pdfrwt>
<totfact> 0.11094676E+05</totfact>
</mgrwt>
</event>
<event>
 8    1  0.7756875E-018  0.8013764E+02  0.7818608E-02  0.1328661E+00
          1   -1    0    0  501    0  0.00000000000E+00  0.00000000000E+00  0.25834144643E+02  0.25834145134E+02  0.50400000000E-02 0. -1.
         -2   -1    0    0    0  501 -0.00000000000E+00 -0.00000000000E+00 -0.62146832867E+02  0.62146832919E+02  0.25500000000E-02 0.  1.
        -24    2    1    2    0    0  0.00000000000E+00 -0.71054273576E-14 -0.36312688224E+02  0.87980978054E+02  0.80137638929E+02 0.  0.
         66    2    3    3    0    0 -0.54209019055E+01 -0.39481301480E+02 -0.13866817576E+02  0.42242726915E+02  0.20000008651E+01 0.  0.
         13    1    3    3    0    0  0.54209019055E+01  0.39481301480E+02 -0.22445870648E+02  0.45738251139E+02  0.10566000000E+00 0. -1.
         13    1    4    4    0    0 -0.67255065226E+00 -0.75195081381E+01 -0.19456200350E+01  0.77969178766E+01  0.10566000000E+00 0. -1.
        -13    1    4    4    0    0 -0.53058795502E+00 -0.29426657366E+01 -0.11877856908E+01  0.32191309539E+01  0.10566000000E+00 0.  1.
         14    1    4    4    0    0 -0.42177632982E+01 -0.29019127606E+02 -0.10733411851E+02  0.31226678084E+02  0.00000000000E+00 0. -1.
<mgrwt>
<rscale>  0 0.80137639E+02</rscale>
<asrwt>0</asrwt>
<pdfrwt beam="1">  1        1 0.39744839E-02 0.80137639E+02</pdfrwt>
<pdfrwt beam="2">  1       -2 0.95610511E-02 0.80137639E+02</pdfrwt>
<totfact> 0.11709876E+05</totfact>
</mgrwt>
</event>
<event>
 8    1  0.7756875E-018  0.8108785E+02  0.7818608E-02  0.1325992E+00
         -2   -1    0    0    0  501 -0.00000000000E+00  0.00000000000E+00  0.90845719726E+01  0.90845723305E+01  0.25500000000E-02 0.  1.
          1   -1    0    0  501    0  0.00000000000E+00 -0.00000000000E+00 -0.18094522582E+03  0.18094522589E+03  0.50400000000E-02 0. -1.
        -24    2    1    2    0    0 -0.88817841970E-15  0.00000000000E+00 -0.17186065385E+03  0.19002979822E+03  0.81087852796E+02 0.  0.
         66    2    3    3    0    0 -0.61630251684E+01 -0.37517046215E+02 -0.53148840641E+02  0.65378214217E+02  0.19999991872E+01 0.  0.
         13    1    3    3    0    0  0.61630251684E+01  0.37517046215E+02 -0.11871181321E+03  0.12465158401E+03  0.10566000000E+00 0. -1.
         13    1    4    4    0    0 -0.97081822878E-01 -0.39007849306E+01 -0.57933487921E+01  0.69856712073E+01  0.10566000000E+00 0. -1.
        -13    1    4    4    0    0 -0.15668465344E+01 -0.99498644118E+01 -0.14063108855E+02  0.17298468273E+02  0.10566000000E+00 0.  1.
         14    1    4    4    0    0 -0.44990968112E+01 -0.23666396873E+02 -0.33292382994E+02  0.41094074737E+02  0.00000000000E+00 0. -1.
<mgrwt>
<rscale>  0 0.81087853E+02</rscale>
<asrwt>0</asrwt>
<pdfrwt beam="1">  1        1 0.27837724E-01 0.81087853E+02</pdfrwt>
<pdfrwt beam="2">  1       -2 0.13976266E-02 0.81087853E+02</pdfrwt>
<totfact> 0.15777103E+05</totfact>
</mgrwt>
</event>
<event>
 8    1  0.7756875E-018  0.8862519E+02  0.7818608E-02  0.1306216E+00
          1   -1    0    0  501    0  0.00000000000E+00  0.00000000000E+00  0.79767639131E+02  0.79767639290E+02  0.50400000000E-02 0. -1.
         -2   -1    0    0    0  501 -0.00000000000E+00 -0.00000000000E+00 -0.24616574942E+02  0.24616575074E+02  0.25500000000E-02 0.  1.
        -24    2    1    2    0    0  0.00000000000E+00  0.71054273576E-14  0.55151064189E+02  0.10438421436E+03  0.88625190140E+02 0.  0.
         66    2    3    3    0    0  0.13931737429E+02 -0.42003757481E+02  0.25485210758E+02  0.51106799129E+02  0.19999998895E+01 0.  0.
         13    1    3    3    0    0 -0.13931737429E+02  0.42003757481E+02  0.29665853431E+02  0.53277415235E+02  0.10566000000E+00 0. -1.
         13    1    4    4    0    0  0.19652569427E+01 -0.61790249656E+01  0.44042179833E+01  0.78390614525E+01  0.10566000000E+00 0.  1.
        -13    1    4    4    0    0  0.10234687443E+02 -0.31659592819E+02  0.18462188287E+02  0.38051835763E+02  0.10566000000E+00 0. -1.
         14    1    4    4    0    0  0.17317930427E+01 -0.41651396968E+01  0.26188044873E+01  0.52159019142E+01  0.00000000000E+00 0. -1.
<mgrwt>
<rscale>  0 0.88625190E+02</rscale>
<asrwt>0</asrwt>
<pdfrwt beam="1">  1        1 0.12271945E-01 0.88625190E+02</pdfrwt>
<pdfrwt beam="2">  1       -2 0.37871654E-02 0.88625190E+02</pdfrwt>
<totfact> 0.10693201E+05</totfact>
</mgrwt>
</event>
<event>
 8    1  0.7756875E-018  0.8176730E+02  0.7818608E-02  0.1324110E+00
          1   -1    0    0  501    0  0.00000000000E+00  0.00000000000E+00  0.90733872024E+02  0.90733872164E+02  0.50400000000E-02 0. -1.
         -2   -1    0    0    0  501 -0.00000000000E+00 -0.00000000000E+00 -0.18421706111E+02  0.18421706287E+02  0.25500000000E-02 0.  1.
        -24    2    1    2    0    0  0.00000000000E+00  0.00000000000E+00  0.72312165913E+02  0.10915557845E+03  0.81767297668E+02 0.  0.
         66    2    3    3    0    0  0.35662558065E+02  0.18843391056E+02  0.27467007911E+02  0.48839819363E+02  0.19999993977E+01 0.  0.
         13    1    3    3    0    0 -0.35662558065E+02 -0.18843391056E+02  0.44845158002E+02  0.60315759088E+02  0.10566000000E+00 0. -1.
         13    1    4    4    0    0  0.70518178784E+01  0.35121761475E+01  0.59882587042E+01  0.98961569827E+01  0.10566000000E+00 0. -1.
        -13    1    4    4    0    0  0.16336190241E+01  0.99103014271E+00  0.15968910197E+01  0.24924038245E+01  0.10566000000E+00 0.  1.
        -14    1    4    4    0    0  0.26977121162E+02  0.14340184765E+02  0.19881858187E+02  0.36451258556E+02  0.00000000000E+00 0.  1.
<mgrwt>
<rscale>  0 0.81767298E+02</rscale>
<asrwt>0</asrwt>
<pdfrwt beam="1">  1        1 0.13959057E-01 0.81767298E+02</pdfrwt>
<pdfrwt beam="2">  1       -2 0.28341086E-02 0.81767298E+02</pdfrwt>
<totfact> 0.13629907E+05</totfact>
</mgrwt>
</event>
<event>
 8    1  0.7756875E-018  0.8110933E+02  0.7818608E-02  0.1325932E+00
          1   -1    0    0  501    0  0.00000000000E+00  0.00000000000E+00  0.23176787798E+03  0.23176787803E+03  0.50400000000E-02 0. -1.
         -2   -1    0    0    0  501 -0.00000000000E+00 -0.00000000000E+00 -0.70962406978E+01  0.70962411560E+01  0.25500000000E-02 0.  1.
        -24    2    1    2    0    0 -0.35527136788E-14 -0.71054273576E-14  0.22467163728E+03  0.23886411919E+03  0.81109326453E+02 0.  0.
         66    2    3    3    0    0  0.23338914621E+02  0.26779652703E+02  0.16987384699E+03  0.17355972639E+03  0.19999993016E+01 0.  0.
         13    1    3    3    0    0 -0.23338914621E+02 -0.26779652703E+02  0.54797790287E+02  0.65304392800E+02  0.10566000000E+00 0. -1.
         13    1    4    4    0    0  0.45520975175E+01  0.48574240569E+01  0.28959431287E+02  0.29714911825E+02  0.10566000000E+00 0. -1.
        -13    1    4    4    0    0  0.24672036714E+01  0.30081140047E+01  0.20551233761E+02  0.20916505849E+02  0.10566000000E+00 0.  1.
        -14    1    4    4    0    0  0.16319613433E+02  0.18914114642E+02  0.12036318195E+03  0.12292830871E+03  0.00000000000E+00 0.  1.
<mgrwt>
<rscale>  0 0.81109326E+02</rscale>
<asrwt>0</asrwt>
<pdfrwt beam="1">  1        1 0.35656591E-01 0.81109326E+02</pdfrwt>
<pdfrwt beam="2">  1       -2 0.10917296E-02 0.81109326E+02</pdfrwt>
<totfact> 0.16545075E+05</totfact>
</mgrwt>
</event>
<event>
 8    1  0.7756875E-018  0.7947662E+02  0.7818608E-02  0.1330543E+00
          1   -1    0    0  501    0  0.00000000000E+00  0.00000000000E+00  0.18666020259E+03  0.18666020266E+03  0.50400000000E-02 0. -1.
         -2   -1    0    0    0  501 -0.00000000000E+00 -0.00000000000E+00 -0.84599359148E+01  0.84599362991E+01  0.25500000000E-02 0.  1.
        -24    2    1    2    0    0  0.00000000000E+00  0.00000000000E+00  0.17820026668E+03  0.19512013896E+03  0.79476622876E+02 0.  0.
         66    2    3    3    0    0  0.33392681836E+02 -0.67207872378E+01  0.39029304566E+02  0.51841361605E+02  0.19999942040E+01 0.  0.
         13    1    3    3    0    0 -0.33392681836E+02  0.67207872378E+01  0.13917096211E+03  0.14327877736E+03  0.10566000000E+00 0. -1.
         13    1    4    4    0    0  0.12778531396E+02 -0.33761340414E+01  0.14327823412E+02  0.19493250972E+02  0.10566000000E+00 0. -1.
        -13    1    4    4    0    0  0.12757123410E+02 -0.19274680133E+01  0.15203559492E+02  0.19940379031E+02  0.10566000000E+00 0.  1.
         14    1    4    4    0    0  0.78570270303E+01 -0.14171851830E+01  0.94979216617E+01  0.12407731601E+02  0.00000000000E+00 0. -1.
<mgrwt>
<rscale>  0 0.79476623E+02</rscale>
<asrwt>0</asrwt>
<pdfrwt beam="1">  1        1 0.28716953E-01 0.79476623E+02</pdfrwt>
<pdfrwt beam="2">  1       -2 0.13015287E-02 0.79476623E+02</pdfrwt>
<totfact> 0.16742372E+05</totfact>
</mgrwt>
</event>
<event>
 8    1  0.7756875E-018  0.7878895E+02  0.7818608E-02  0.1332524E+00
         -2   -1    0    0    0  501 -0.00000000000E+00  0.00000000000E+00  0.21340859508E+02  0.21340859660E+02  0.25500000000E-02 0.  1.
          1   -1    0    0  501    0  0.00000000000E+00 -0.00000000000E+00 -0.72720815591E+02  0.72720815766E+02  0.50400000000E-02 0. -1.
        -24    2    1    2    0    0 -0.35527136788E-14  0.00000000000E+00 -0.51379956084E+02  0.94061675426E+02  0.78788951616E+02 0.  0.
         66    2    3    3    0    0 -0.30046915743E+02 -0.20160867534E+02 -0.44226152055E+02  0.57177182729E+02  0.19999934684E+01 0.  0.
         13    1    3    3    0    0  0.30046915743E+02  0.20160867534E+02 -0.71538040286E+01  0.36884492697E+02  0.10566000000E+00 0. -1.
         13    1    4    4    0    0 -0.18189514140E+02 -0.11968830288E+02 -0.26768068444E+02  0.34505825238E+02  0.10566000000E+00 0. -1.
        -13    1    4    4    0    0 -0.61218116409E+01 -0.35929136818E+01 -0.80947339763E+01  0.10766684201E+02  0.10566000000E+00 0.  1.
         14    1    4    4    0    0 -0.57355899620E+01 -0.45991235639E+01 -0.93633496352E+01  0.11904673291E+02  0.00000000000E+00 0. -1.
<mgrwt>
<rscale>  0 0.78788952E+02</rscale>
<asrwt>0</asrwt>
<pdfrwt beam="1">  1        1 0.11187818E-01 0.78788952E+02</pdfrwt>
<pdfrwt beam="2">  1       -2 0.32832092E-02 0.78788952E+02</pdfrwt>
<totfact> 0.14548341E+05</totfact>
</mgrwt>
</event>
<event>
 8    1  0.7756875E-018  0.8092188E+02  0.7818608E-02  0.1326455E+00
          1   -1    0    0  501    0  0.00000000000E+00  0.00000000000E+00  0.72477955092E+01  0.72477972616E+01  0.50400000000E-02 0. -1.
         -2   -1    0    0    0  501 -0.00000000000E+00 -0.00000000000E+00 -0.22587386829E+03  0.22587386831E+03  0.25500000000E-02 0.  1.
        -24    2    1    2    0    0 -0.17763568394E-14 -0.35527136788E-14 -0.21862607278E+03  0.23312166557E+03  0.80921883670E+02 0.  0.
         66    2    3    3    0    0  0.12895264289E+02  0.29781040711E+02 -0.39887578090E+02  0.51460830835E+02  0.19999993484E+01 0.  0.
         13    1    3    3    0    0 -0.12895264289E+02 -0.29781040711E+02 -0.17873849469E+03  0.18166083473E+03  0.10566000000E+00 0. -1.
         13    1    4    4    0    0  0.11288116149E+02  0.25009397433E+02 -0.34166363043E+02  0.43820577972E+02  0.10566000000E+00 0. -1.
        -13    1    4    4    0    0  0.82072313365E+00  0.31993399544E+01 -0.38091753833E+01  0.50428507555E+01  0.10566000000E+00 0.  1.
         14    1    4    4    0    0  0.78642500635E+00  0.15723033237E+01 -0.19120396636E+01  0.25974021074E+01  0.00000000000E+00 0. -1.
<mgrwt>
<rscale>  0 0.80921884E+02</rscale>
<asrwt>0</asrwt>
<pdfrwt beam="1">  1        1 0.11150458E-02 0.80921884E+02</pdfrwt>
<pdfrwt beam="2">  1       -2 0.34749821E-01 0.80921884E+02</pdfrwt>
<totfact> 0.78442491E+04</totfact>
</mgrwt>
</event>
<event>
 8    1  0.7756875E-018  0.7945846E+02  0.7818608E-02  0.1330595E+00
         -2   -1    0    0    0  501 -0.00000000000E+00  0.00000000000E+00  0.18560842718E+02  0.18560842893E+02  0.25500000000E-02 0.  1.
          1   -1    0    0  501    0  0.00000000000E+00 -0.00000000000E+00 -0.85039881416E+02  0.85039881565E+02  0.50400000000E-02 0. -1.
        -24    2    1    2    0    0 -0.71054273576E-14 -0.88817841970E-15 -0.66479038698E+02  0.10360072446E+03  0.79458464131E+02 0.  0.
         66    2    3    3    0    0  0.38918688587E+02  0.77434421101E+01 -0.31520149176E+02  0.50716319028E+02  0.19999986701E+01 0.  0.
         13    1    3    3    0    0 -0.38918688587E+02 -0.77434421101E+01 -0.34958889522E+02  0.52884405430E+02  0.10566000000E+00 0. -1.
         13    1    4    4    0    0  0.59019689322E+01  0.12993072780E+01 -0.50937444867E+01  0.79043553570E+01  0.10566000000E+00 0. -1.
        -13    1    4    4    0    0  0.83179811834E+01  0.18559452993E+01 -0.75940278350E+01  0.11415505539E+02  0.10566000000E+00 0.  1.
         14    1    4    4    0    0  0.24698738471E+02  0.45881895329E+01 -0.18832376854E+02  0.31396458132E+02  0.00000000000E+00 0. -1.
<mgrwt>
<rscale>  0 0.79458464E+02</rscale>
<asrwt>0</asrwt>
<pdfrwt beam="1">  1        1 0.13083059E-01 0.79458464E+02</pdfrwt>
<pdfrwt beam="2">  1       -2 0.28555143E-02 0.79458464E+02</pdfrwt>
<totfact> 0.14576757E+05</totfact>
</mgrwt>
</event>
<event>
 8    1  0.7756875E-018  0.7560090E+02  0.7818608E-02  0.1342020E+00
         -2   -1    0    0    0  501 -0.00000000000E+00  0.00000000000E+00  0.35038214297E+01  0.35038223577E+01  0.25500000000E-02 0.  1.
          1   -1    0    0  501    0  0.00000000000E+00 -0.00000000000E+00 -0.40780444725E+03  0.40780444728E+03  0.50400000000E-02 0. -1.
        -24    2    1    2    0    0 -0.17763568394E-14  0.71054273576E-14 -0.40430062582E+03  0.41130826964E+03  0.75600903663E+02 0.  0.
         66    2    3    3    0    0  0.12468059403E+02 -0.35608384682E+02 -0.21241091689E+03  0.21574477324E+03  0.20000007550E+01 0.  0.
         13    1    3    3    0    0 -0.12468059403E+02  0.35608384682E+02 -0.19188970893E+03  0.19556349640E+03  0.10566000000E+00 0. -1.
         13    1    4    4    0    0  0.45742152489E+01 -0.14607975798E+02 -0.83208049096E+02  0.84604414781E+02  0.10566000000E+00 0. -1.
        -13    1    4    4    0    0  0.31230810448E+01 -0.72984932580E+01 -0.43743398876E+02  0.44458044810E+02  0.10566000000E+00 0.  1.
        -14    1    4    4    0    0  0.47707631095E+01 -0.13701915626E+02 -0.85459468916E+02  0.86682313651E+02  0.00000000000E+00 0.  1.
<mgrwt>
<rscale>  0 0.75600904E+02</rscale>
<asrwt>0</asrwt>
<pdfrwt beam="1">  1        1 0.62739109E-01 0.75600904E+02</pdfrwt>
<pdfrwt beam="2">  1       -2 0.53904984E-03 0.75600904E+02</pdfrwt>
<totfact> 0.22093918E+05</totfact>
</mgrwt>
</event>
<event>
 8    1  0.7756875E-018  0.8065308E+02  0.7818608E-02  0.1327208E+00
          1   -1    0    0  501    0  0.00000000000E+00  0.00000000000E+00  0.49045498756E+01  0.49045524652E+01  0.50400000000E-02 0. -1.
         -2   -1    0    0    0  501 -0.00000000000E+00 -0.00000000000E+00 -0.33157564013E+03  0.33157564014E+03  0.25500000000E-02 0.  1.
        -24    2    1    2    0    0  0.00000000000E+00  0.00000000000E+00 -0.32667109026E+03  0.33648019261E+03  0.80653076863E+02 0.  0.
         66    2    3    3    0    0 -0.14421113257E+02 -0.83302955872E+01 -0.31654451199E+03  0.31698862819E+03  0.19999988976E+01 0.  0.
         13    1    3    3    0    0  0.14421113257E+02  0.83302955872E+01 -0.10126578263E+02  0.19491564419E+02  0.10566000000E+00 0. -1.
         13    1    4    4    0    0 -0.43083352147E+01 -0.20426947651E+01 -0.80869926751E+02  0.81010434951E+02  0.10566000000E+00 0. -1.
        -13    1    4    4    0    0 -0.39749262317E+01 -0.29333130803E+01 -0.10599091018E+03  0.10610602513E+03  0.10566000000E+00 0.  1.
        -14    1    4    4    0    0 -0.61378518100E+01 -0.33542877418E+01 -0.12968367507E+03  0.12987216811E+03  0.00000000000E+00 0.  1.
<mgrwt>
<rscale>  0 0.80653077E+02</rscale>
<asrwt>0</asrwt>
<pdfrwt beam="1">  1        1 0.75454659E-03 0.80653077E+02</pdfrwt>
<pdfrwt beam="2">  1       -2 0.51011620E-01 0.80653077E+02</pdfrwt>
<totfact> 0.65035325E+04</totfact>
</mgrwt>
</event>
<event>
 8    1  0.7756875E-018  0.7919377E+02  0.7818608E-02  0.1331355E+00
          1   -1    0    0  501    0  0.00000000000E+00  0.00000000000E+00  0.46205650484E+01  0.46205677972E+01  0.50400000000E-02 0. -1.
         -2   -1    0    0    0  501 -0.00000000000E+00 -0.00000000000E+00 -0.33933354774E+03  0.33933354775E+03  0.25500000000E-02 0.  1.
        -24    2    1    2    0    0  0.00000000000E+00  0.35527136788E-14 -0.33471298269E+03  0.34395411555E+03  0.79193767554E+02 0.  0.
         66    2    3    3    0    0  0.16993509617E+02 -0.30706259154E+02 -0.24686798882E+03  0.24935809115E+03  0.19999987731E+01 0.  0.
         13    1    3    3    0    0 -0.16993509617E+02  0.30706259154E+02 -0.87844993873E+02  0.94596024404E+02  0.10566000000E+00 0. -1.
         13    1    4    4    0    0  0.29327388096E+01 -0.45798218178E+01 -0.36879606629E+02  0.37278576608E+02  0.10566000000E+00 0. -1.
        -13    1    4    4    0    0  0.13647410534E+02 -0.25028195778E+02 -0.20329944331E+03  0.20528842444E+03  0.10566000000E+00 0.  1.
         14    1    4    4    0    0  0.41336027341E+00 -0.10982415577E+01 -0.66889388862E+01  0.67910900935E+01  0.00000000000E+00 0. -1.
<mgrwt>
<rscale>  0 0.79193768E+02</rscale>
<asrwt>0</asrwt>
<pdfrwt beam="1">  1        1 0.71085664E-03 0.79193768E+02</pdfrwt>
<pdfrwt beam="2">  1       -2 0.52205142E-01 0.79193768E+02</pdfrwt>
<totfact> 0.67255892E+04</totfact>
</mgrwt>
</event>
<event>
 8    1  0.7756875E-018  0.7884375E+02  0.7818608E-02  0.1332365E+00
         -2   -1    0    0    0  501 -0.00000000000E+00  0.00000000000E+00  0.10633737654E+02  0.10633737960E+02  0.25500000000E-02 0.  1.
          1   -1    0    0  501    0  0.00000000000E+00 -0.00000000000E+00 -0.14614657717E+03  0.14614657726E+03  0.50400000000E-02 0. -1.
        -24    2    1    2    0    0  0.00000000000E+00 -0.71054273576E-14 -0.13551283952E+03  0.15678031522E+03  0.78843754132E+02 0.  0.
         66    2    3    3    0    0 -0.21232480705E+01  0.38878006356E+02 -0.79742766323E+02  0.88763260086E+02  0.19999999376E+01 0.  0.
         13    1    3    3    0    0  0.21232480705E+01 -0.38878006356E+02 -0.55770073193E+02  0.68017055130E+02  0.10566000000E+00 0. -1.
         13    1    4    4    0    0 -0.11168296479E+00  0.57945230971E+01 -0.11081941098E+02  0.12506380513E+02  0.10566000000E+00 0. -1.
        -13    1    4    4    0    0 -0.13919577125E+01  0.17529119029E+02 -0.34880746591E+02  0.39062580650E+02  0.10566000000E+00 0.  1.
        -14    1    4    4    0    0 -0.61960739319E+00  0.15554364229E+02 -0.33780078634E+02  0.37194298923E+02  0.00000000000E+00 0.  1.
<mgrwt>
<rscale>  0 0.78843754E+02</rscale>
<asrwt>0</asrwt>
<pdfrwt beam="1">  1        1 0.22484087E-01 0.78843754E+02</pdfrwt>
<pdfrwt beam="2">  1       -2 0.16359598E-02 0.78843754E+02</pdfrwt>
<totfact> 0.16336164E+05</totfact>
</mgrwt>
</event>
<event>
 8    1  0.7756875E-018  0.8019901E+02  0.7818608E-02  0.1328488E+00
         -2   -1    0    0    0  501 -0.00000000000E+00  0.00000000000E+00  0.12423390673E+03  0.12423390676E+03  0.25500000000E-02 0.  1.
          1   -1    0    0  501    0  0.00000000000E+00 -0.00000000000E+00 -0.12943085347E+02  0.12943086329E+02  0.50400000000E-02 0. -1.
        -24    2    1    2    0    0 -0.35527136788E-14  0.00000000000E+00  0.11129082139E+03  0.13717699309E+03  0.80199005655E+02 0.  0.
         66    2    3    3    0    0  0.98970491215E+01  0.17597489297E+02  0.11489095827E+03  0.11666857139E+03  0.20000118496E+01 0.  0.
         13    1    3    3    0    0 -0.98970491215E+01 -0.17597489297E+02 -0.36001368846E+01  0.20508421697E+02  0.10566000000E+00 0. -1.
         13    1    4    4    0    0  0.42308254291E+01  0.68279343276E+01  0.44012267294E+02  0.44739372005E+02  0.10566000000E+00 0. -1.
        -13    1    4    4    0    0  0.11342172235E+01  0.32336222028E+01  0.17835375643E+02  0.18161898294E+02  0.10566000000E+00 0.  1.
        -14    1    4    4    0    0  0.45320064689E+01  0.75359327663E+01  0.53043315335E+02  0.53767301095E+02  0.00000000000E+00 0.  1.
<mgrwt>
<rscale>  0 0.80199006E+02</rscale>
<asrwt>0</asrwt>
<pdfrwt beam="1">  1        1 0.19912440E-02 0.80199006E+02</pdfrwt>
<pdfrwt beam="2">  1       -2 0.19112909E-01 0.80199006E+02</pdfrwt>
<totfact> 0.99516964E+04</totfact>
</mgrwt>
</event>
<event>
 8    1  0.7756875E-018  0.8062077E+02  0.7818608E-02  0.1327299E+00
         -2   -1    0    0    0  501 -0.00000000000E+00  0.00000000000E+00  0.25669308641E+02  0.25669308768E+02  0.25500000000E-02 0.  1.
          1   -1    0    0  501    0  0.00000000000E+00 -0.00000000000E+00 -0.63302334824E+02  0.63302335025E+02  0.50400000000E-02 0. -1.
        -24    2    1    2    0    0  0.00000000000E+00  0.35527136788E-14 -0.37633026183E+02  0.88971643793E+02  0.80620771142E+02 0.  0.
         66    2    3    3    0    0 -0.33254702071E+01  0.28503810643E+02  0.12374175313E+02  0.31315270868E+02  0.20000004019E+01 0.  0.
         13    1    3    3    0    0  0.33254702071E+01 -0.28503810643E+02 -0.50007201496E+02  0.57656372924E+02  0.10566000000E+00 0. -1.
         13    1    4    4    0    0 -0.24019100015E+01  0.16683623763E+02  0.72369635050E+01  0.18343862143E+02  0.10566000000E+00 0.  1.
        -13    1    4    4    0    0 -0.80156709228E+00  0.39546104226E+01  0.19659348451E+01  0.44897123792E+01  0.10566000000E+00 0. -1.
         14    1    4    4    0    0 -0.12199311327E+00  0.78655764575E+01  0.31712769629E+01  0.84816963459E+01  0.00000000000E+00 0. -1.
<mgrwt>
<rscale>  0 0.80620771E+02</rscale>
<asrwt>0</asrwt>
<pdfrwt beam="1">  1        1 0.97388207E-02 0.80620771E+02</pdfrwt>
<pdfrwt beam="2">  1       -2 0.39491244E-02 0.80620771E+02</pdfrwt>
<totfact> 0.13365319E+05</totfact>
</mgrwt>
</event>
<event>
 8    1  0.7756875E-018  0.8562851E+02  0.7818608E-02  0.1313797E+00
          1   -1    0    0  501    0  0.00000000000E+00  0.00000000000E+00  0.26256191407E+02  0.26256191891E+02  0.50400000000E-02 0. -1.
         -2   -1    0    0    0  501 -0.00000000000E+00 -0.00000000000E+00 -0.69814398439E+02  0.69814398485E+02  0.25500000000E-02 0.  1.
        -24    2    1    2    0    0  0.00000000000E+00  0.00000000000E+00 -0.43558207031E+02  0.96070590377E+02  0.85628505391E+02 0.  0.
         66    2    3    3    0    0  0.28105481025E+02 -0.16212716542E+02 -0.53090740882E+02  0.62252686731E+02  0.19999991197E+01 0.  0.
         13    1    3    3    0    0 -0.28105481025E+02  0.16212716542E+02  0.95325338507E+01  0.33817903646E+02  0.10566000000E+00 0. -1.
         13    1    4    4    0    0  0.26684166137E+01 -0.18324563913E+01 -0.62791013697E+01  0.70651696155E+01  0.10566000000E+00 0. -1.
        -13    1    4    4    0    0  0.23959838930E+02 -0.13603064065E+02 -0.44417064636E+02  0.52268575917E+02  0.10566000000E+00 0.  1.
         14    1    4    4    0    0  0.14772254818E+01 -0.77719608601E+00 -0.23945748760E+01  0.29189411980E+01  0.00000000000E+00 0. -1.
<mgrwt>
<rscale>  0 0.85628505E+02</rscale>
<asrwt>0</asrwt>
<pdfrwt beam="1">  1        1 0.40394141E-02 0.85628505E+02</pdfrwt>
<pdfrwt beam="2">  1       -2 0.10740677E-01 0.85628505E+02</pdfrwt>
<totfact> 0.96726261E+04</totfact>
</mgrwt>
</event>
<event>
 8    1  0.7756875E-018  0.8800660E+02  0.7818608E-02  0.1307752E+00
          1   -1    0    0  501    0  0.00000000000E+00  0.00000000000E+00  0.47763244547E+02  0.47763244813E+02  0.50400000000E-02 0. -1.
         -2   -1    0    0    0  501 -0.00000000000E+00 -0.00000000000E+00 -0.40539343933E+02  0.40539344014E+02  0.25500000000E-02 0.  1.
        -24    2    1    2    0    0  0.00000000000E+00 -0.71054273576E-14  0.72239006141E+01  0.88302588827E+02  0.88006604601E+02 0.  0.
         66    2    3    3    0    0  0.12026139837E+02  0.40626764814E+02 -0.82209207041E+01  0.43205851382E+02  0.19999994444E+01 0.  0.
         13    1    3    3    0    0 -0.12026139837E+02 -0.40626764814E+02  0.15444821318E+02  0.45096737445E+02  0.10566000000E+00 0. -1.
         13    1    4    4    0    0  0.79153943034E+01  0.25068765964E+02 -0.45512443603E+01  0.26679982819E+02  0.10566000000E+00 0.  1.
        -13    1    4    4    0    0  0.30653389027E+01  0.10175218288E+02 -0.25579244453E+01  0.10930942837E+02  0.10566000000E+00 0. -1.
         14    1    4    4    0    0  0.10454066313E+01  0.53827805609E+01 -0.11117518984E+01  0.55949257256E+01  0.00000000000E+00 0. -1.
<mgrwt>
<rscale>  0 0.88006605E+02</rscale>
<asrwt>0</asrwt>
<pdfrwt beam="1">  1        1 0.73481915E-02 0.88006605E+02</pdfrwt>
<pdfrwt beam="2">  1       -2 0.62368222E-02 0.88006605E+02</pdfrwt>
<totfact> 0.99890544E+04</totfact>
</mgrwt>
</event>
<event>
 8    1  0.7756875E-018  0.8103704E+02  0.7818608E-02  0.1326134E+00
          1   -1    0    0  501    0  0.00000000000E+00  0.00000000000E+00  0.76062475142E+02  0.76062475309E+02  0.50400000000E-02 0. -1.
         -2   -1    0    0    0  501 -0.00000000000E+00 -0.00000000000E+00 -0.21584237184E+02  0.21584237335E+02  0.25500000000E-02 0.  1.
        -24    2    1    2    0    0  0.44408920985E-15  0.00000000000E+00  0.54478237958E+02  0.97646712644E+02  0.81037041402E+02 0.  0.
         66    2    3    3    0    0 -0.20494671905E+01 -0.37463894529E+02  0.45609200688E+02  0.59092663633E+02  0.19999997032E+01 0.  0.
         13    1    3    3    0    0  0.20494671905E+01  0.37463894529E+02  0.88690372701E+01  0.38554049011E+02  0.10566000000E+00 0. -1.
         13    1    4    4    0    0  0.19004842555E-01 -0.10714108221E+01  0.11707251078E+01  0.15906110924E+01  0.10566000000E+00 0.  1.
        -13    1    4    4    0    0  0.22583699700E-01 -0.50122060479E+01  0.69302779072E+01  0.85535159669E+01  0.10566000000E+00 0.  1.
        -14    1    4    4    0    0 -0.20910557327E+01 -0.31380277659E+02  0.37508197673E+02  0.48948536574E+02  0.00000000000E+00 0.  1.
<mgrwt>
<rscale>  0 0.81037041E+02</rscale>
<asrwt>0</asrwt>
<pdfrwt beam="1">  1        1 0.11701920E-01 0.81037041E+02</pdfrwt>
<pdfrwt beam="2">  1       -2 0.33206518E-02 0.81037041E+02</pdfrwt>
<totfact> 0.13569184E+05</totfact>
</mgrwt>
</event>
<event>
 8    1  0.7756875E-018  0.8077351E+02  0.7818608E-02  0.1326871E+00
          1   -1    0    0  501    0  0.00000000000E+00  0.00000000000E+00  0.61436235862E+02  0.61436236068E+02  0.50400000000E-02 0. -1.
         -2   -1    0    0    0  501 -0.00000000000E+00 -0.00000000000E+00 -0.26549317826E+02  0.26549317948E+02  0.25500000000E-02 0.  1.
        -24    2    1    2    0    0  0.00000000000E+00 -0.35527136788E-14  0.34886918036E+02  0.87985554017E+02  0.80773514629E+02 0.  0.
         66    2    3    3    0    0  0.24637706076E+02 -0.25326668328E+02  0.38705792960E+02  0.52446115938E+02  0.19999947672E+01 0.  0.
         13    1    3    3    0    0 -0.24637706076E+02  0.25326668328E+02 -0.38188749238E+01  0.35539438079E+02  0.10566000000E+00 0. -1.
         13    1    4    4    0    0  0.88093992242E+00 -0.88503277190E+00  0.12020952370E+01  0.17365296279E+01  0.10566000000E+00 0. -1.
        -13    1    4    4    0    0  0.13014013141E+02 -0.14623910431E+02  0.21754794391E+02  0.29266115857E+02  0.10566000000E+00 0.  1.
        -14    1    4    4    0    0  0.10742753012E+02 -0.98177251243E+01  0.15748903332E+02  0.21443470453E+02  0.00000000000E+00 0.  1.
<mgrwt>
<rscale>  0 0.80773515E+02</rscale>
<asrwt>0</asrwt>
<pdfrwt beam="1">  1        1 0.94517286E-02 0.80773515E+02</pdfrwt>
<pdfrwt beam="2">  1       -2 0.40845105E-02 0.80773515E+02</pdfrwt>
<totfact> 0.13233140E+05</totfact>
</mgrwt>
</event>
<event>
 8    1  0.7756875E-018  0.8022120E+02  0.7818608E-02  0.1328425E+00
          1   -1    0    0  501    0  0.00000000000E+00  0.00000000000E+00  0.11601870447E+02  0.11601871541E+02  0.50400000000E-02 0. -1.
         -2   -1    0    0    0  501 -0.00000000000E+00 -0.00000000000E+00 -0.13867247473E+03  0.13867247475E+03  0.25500000000E-02 0.  1.
        -24    2    1    2    0    0  0.00000000000E+00  0.71054273576E-14 -0.12707060428E+03  0.15027434630E+03  0.80221198454E+02 0.  0.
         66    2    3    3    0    0  0.10350351989E+02  0.34246218018E+02 -0.97444882318E+02  0.10382407395E+03  0.20000017342E+01 0.  0.
         13    1    3    3    0    0 -0.10350351989E+02 -0.34246218018E+02 -0.29625721966E+02  0.46450272345E+02  0.10566000000E+00 0. -1.
         13    1    4    4    0    0  0.13590735809E+01  0.62058024770E+01 -0.18588810007E+02  0.19644696151E+02  0.10566000000E+00 0. -1.
        -13    1    4    4    0    0  0.37096724950E+01  0.10214774660E+02 -0.28923963964E+02  0.30898384211E+02  0.10566000000E+00 0.  1.
        -14    1    4    4    0    0  0.52816059136E+01  0.17825640881E+02 -0.49932108347E+02  0.53280993589E+02  0.00000000000E+00 0.  1.
<mgrwt>
<rscale>  0 0.80221198E+02</rscale>
<asrwt>0</asrwt>
<pdfrwt beam="1">  1        1 0.17849033E-02 0.80221198E+02</pdfrwt>
<pdfrwt beam="2">  1       -2 0.21334226E-01 0.80221198E+02</pdfrwt>
<totfact> 0.96226662E+04</totfact>
</mgrwt>
</event>
<event>
 8    1  0.7756875E-018  0.8018209E+02  0.7818608E-02  0.1328535E+00
         -2   -1    0    0    0  501 -0.00000000000E+00  0.00000000000E+00  0.11192726879E+03  0.11192726882E+03  0.25500000000E-02 0.  1.
          1   -1    0    0  501    0  0.00000000000E+00 -0.00000000000E+00 -0.14360144087E+02  0.14360144971E+02  0.50400000000E-02 0. -1.
        -24    2    1    2    0    0  0.35527136788E-14 -0.35527136788E-14  0.97567124702E+02  0.12628741379E+03  0.80182086896E+02 0.  0.
         66    2    3    3    0    0 -0.29441776967E+02  0.26907177489E+02  0.54805562870E+02  0.67811976503E+02  0.20000010943E+01 0.  0.
         13    1    3    3    0    0  0.29441776967E+02 -0.26907177489E+02  0.42761561832E+02  0.58475437286E+02  0.10566000000E+00 0. -1.
         13    1    4    4    0    0 -0.77808639281E+01  0.61897470602E+01  0.14375265609E+02  0.17478965573E+02  0.10566000000E+00 0. -1.
        -13    1    4    4    0    0 -0.18777124888E+02  0.17853788013E+02  0.34611124493E+02  0.43235162405E+02  0.10566000000E+00 0.  1.
        -14    1    4    4    0    0 -0.28837881510E+01  0.28636424160E+01  0.58191727675E+01  0.70978485250E+01  0.00000000000E+00 0.  1.
<mgrwt>
<rscale>  0 0.80182087E+02</rscale>
<asrwt>0</asrwt>
<pdfrwt beam="1">  1        1 0.22092531E-02 0.80182087E+02</pdfrwt>
<pdfrwt beam="2">  1       -2 0.17219579E-01 0.80182087E+02</pdfrwt>
<totfact> 0.10249214E+05</totfact>
</mgrwt>
</event>
<event>
 8    1  0.7756875E-018  0.8750609E+02  0.7818608E-02  0.1309006E+00
          1   -1    0    0  501    0  0.00000000000E+00  0.00000000000E+00  0.10418560881E+02  0.10418562100E+02  0.50400000000E-02 0. -1.
         -2   -1    0    0    0  501 -0.00000000000E+00 -0.00000000000E+00 -0.18374214475E+03  0.18374214476E+03  0.25500000000E-02 0.  1.
        -24    2    1    2    0    0 -0.35527136788E-14 -0.22204460493E-15 -0.17332358386E+03  0.19416070686E+03  0.87506087594E+02 0.  0.
         66    2    3    3    0    0 -0.23309607857E+02 -0.59693503591E+00 -0.16879235974E+03  0.17040702702E+03  0.20000007558E+01 0.  0.
         13    1    3    3    0    0  0.23309607857E+02  0.59693503591E+00 -0.45312241275E+01  0.23753679841E+02  0.10566000000E+00 0. -1.
         13    1    4    4    0    0 -0.21385999696E+01  0.28966090997E+00 -0.16643147868E+02  0.16782820033E+02  0.10566000000E+00 0.  1.
        -13    1    4    4    0    0 -0.33733471085E+01 -0.63249543115E+00 -0.25703103526E+02  0.25931452256E+02  0.10566000000E+00 0. -1.
         14    1    4    4    0    0 -0.17797660779E+02 -0.25410051473E+00 -0.12644610834E+03  0.12769275473E+03  0.00000000000E+00 0. -1.
<mgrwt>
<rscale>  0 0.87506088E+02</rscale>
<asrwt>0</asrwt>
<pdfrwt beam="1">  1        1 0.16028558E-02 0.87506088E+02</pdfrwt>
<pdfrwt beam="2">  1       -2 0.28268020E-01 0.87506088E+02</pdfrwt>
<totfact> 0.69761834E+04</totfact>
</mgrwt>
</event>
<event>
 8    1  0.8826029E-018  0.7562800E+02  0.7818608E-02  0.1341937E+00
         -2   -1    0    0    0  501 -0.00000000000E+00  0.00000000000E+00  0.13782790424E+02  0.13782790660E+02  0.25500000000E-02 0.  1.
          1   -1    0    0  501    0  0.00000000000E+00 -0.00000000000E+00 -0.10374522005E+03  0.10374522017E+03  0.50400000000E-02 0. -1.
        -24    2    1    2    0    0  0.00000000000E+00  0.17763568394E-14 -0.89962429622E+02  0.11752801083E+03  0.75628001334E+02 0.  0.
         66    2    3    3    0    0  0.24210623230E+02  0.10946320525E+02 -0.32581543540E+01  0.26843840633E+02  0.19999999831E+01 0.  0.
         13    1    3    3    0    0 -0.24210623230E+02 -0.10946320525E+02 -0.86704275268E+02  0.90684170195E+02  0.10566000000E+00 0. -1.
         13    1    4    4    0    0  0.46321966940E+01  0.18122459958E+01 -0.74953686351E+00  0.50313468681E+01  0.10566000000E+00 0. -1.
        -13    1    4    4    0    0  0.19141498374E+02  0.87411843012E+01 -0.22264486304E+01  0.21160659265E+02  0.10566000000E+00 0.  1.
         14    1    4    4    0    0  0.43692816142E+00  0.39289022806E+00 -0.28216886007E+00  0.65183449981E+00  0.00000000000E+00 0. -1.
<mgrwt>
<rscale>  0 0.75628001E+02</rscale>
<asrwt>0</asrwt>
<pdfrwt beam="1">  1        1 0.15960803E-01 0.75628001E+02</pdfrwt>
<pdfrwt beam="2">  1       -2 0.21204294E-02 0.75628001E+02</pdfrwt>
<totfact> 0.17204264E+05</totfact>
</mgrwt>
</event>
<event>
 8    1  0.7756875E-018  0.7948116E+02  0.7818608E-02  0.1330530E+00
          1   -1    0    0  501    0  0.00000000000E+00  0.00000000000E+00  0.14265483657E+02  0.14265484547E+02  0.50400000000E-02 0. -1.
         -2   -1    0    0    0  501 -0.00000000000E+00 -0.00000000000E+00 -0.11070874102E+03  0.11070874104E+03  0.25500000000E-02 0.  1.
        -24    2    1    2    0    0 -0.17763568394E-14  0.00000000000E+00 -0.96443257358E+02  0.12497422559E+03  0.79481162375E+02 0.  0.
         66    2    3    3    0    0  0.12614813895E+02 -0.26254144061E+02 -0.90703162112E+02  0.95286290880E+02  0.20000006456E+01 0.  0.
         13    1    3    3    0    0 -0.12614813895E+02  0.26254144061E+02 -0.57400952457E+01  0.29687934711E+02  0.10566000000E+00 0. -1.
         13    1    4    4    0    0  0.62866361338E+00 -0.11060234528E+01 -0.33658442312E+01  0.35998023891E+01  0.10566000000E+00 0. -1.
        -13    1    4    4    0    0  0.88184264294E+01 -0.19742258886E+02 -0.66417787102E+02  0.69848801265E+02  0.10566000000E+00 0.  1.
         14    1    4    4    0    0  0.31677238520E+01 -0.54058617216E+01 -0.20919530779E+02  0.21837687226E+02  0.00000000000E+00 0. -1.
<mgrwt>
<rscale>  0 0.79481162E+02</rscale>
<asrwt>0</asrwt>
<pdfrwt beam="1">  1        1 0.21946899E-02 0.79481162E+02</pdfrwt>
<pdfrwt beam="2">  1       -2 0.17032113E-01 0.79481162E+02</pdfrwt>
<totfact> 0.10513139E+05</totfact>
</mgrwt>
</event>
<event>
 8    1  0.7756875E-018  0.7983788E+02  0.7818608E-02  0.1329512E+00
         -2   -1    0    0    0  501 -0.00000000000E+00  0.00000000000E+00  0.40067020090E+03  0.40067020091E+03  0.25500000000E-02 0.  1.
          1   -1    0    0  501    0  0.00000000000E+00 -0.00000000000E+00 -0.39771395498E+01  0.39771427433E+01  0.50400000000E-02 0. -1.
        -24    2    1    2    0    0 -0.71054273576E-14  0.44408920985E-15  0.39669306135E+03  0.40464734365E+03  0.79837884496E+02 0.  0.
         66    2    3    3    0    0 -0.39117883065E+02  0.21871798546E+01  0.16036531166E+03  0.16509399057E+03  0.20000024451E+01 0.  0.
         13    1    3    3    0    0  0.39117883065E+02 -0.21871798546E+01  0.23632774970E+03  0.23955335308E+03  0.10566000000E+00 0. -1.
         13    1    4    4    0    0 -0.10585450512E+02 -0.22672658119E+00  0.42820766148E+02  0.44110456187E+02  0.10566000000E+00 0. -1.
        -13    1    4    4    0    0 -0.23105303719E+02  0.21248566100E+01  0.95908991299E+02  0.98675811887E+02  0.10566000000E+00 0.  1.
        -14    1    4    4    0    0 -0.54271288347E+01  0.28904982584E+00  0.21635554208E+02  0.22307722499E+02  0.00000000000E+00 0.  1.
<mgrwt>
<rscale>  0 0.79837884E+02</rscale>
<asrwt>0</asrwt>
<pdfrwt beam="1">  1        1 0.61186782E-03 0.79837884E+02</pdfrwt>
<pdfrwt beam="2">  1       -2 0.61641575E-01 0.79837884E+02</pdfrwt>
<totfact> 0.59338114E+04</totfact>
</mgrwt>
</event>
<event>
 8    1  0.7756875E-018  0.8039356E+02  0.7818608E-02  0.1327938E+00
          1   -1    0    0  501    0  0.00000000000E+00  0.00000000000E+00  0.35658761490E+03  0.35658761493E+03  0.50400000000E-02 0. -1.
         -2   -1    0    0    0  501 -0.00000000000E+00 -0.00000000000E+00 -0.45312317085E+01  0.45312324260E+01  0.25500000000E-02 0.  1.
        -24    2    1    2    0    0  0.00000000000E+00  0.71054273576E-14  0.35205638319E+03  0.36111884736E+03  0.80393563013E+02 0.  0.
         66    2    3    3    0    0  0.20092547625E+02 -0.33209429773E+02  0.12962907159E+03  0.13533023647E+03  0.20000017606E+01 0.  0.
         13    1    3    3    0    0 -0.20092547625E+02  0.33209429773E+02  0.22242731161E+03  0.22578861089E+03  0.10566000000E+00 0. -1.
         13    1    4    4    0    0  0.26492736004E+01 -0.43039426238E+01  0.18028852888E+02  0.18724136114E+02  0.10566000000E+00 0. -1.
        -13    1    4    4    0    0  0.93491675180E+01 -0.15903238819E+02  0.58317983955E+02  0.61166317159E+02  0.10566000000E+00 0.  1.
        -14    1    4    4    0    0  0.80941065069E+01 -0.13002248331E+02  0.53282234742E+02  0.55439783197E+02  0.00000000000E+00 0.  1.
<mgrwt>
<rscale>  0 0.80393563E+02</rscale>
<asrwt>0</asrwt>
<pdfrwt beam="1">  1        1 0.54859647E-01 0.80393563E+02</pdfrwt>
<pdfrwt beam="2">  1       -2 0.69711245E-03 0.80393563E+02</pdfrwt>
<totfact> 0.18385937E+05</totfact>
</mgrwt>
</event>
<event>
 8    1  0.7756875E-018  0.8134691E+02  0.7818608E-02  0.1325272E+00
          1   -1    0    0  501    0  0.00000000000E+00  0.00000000000E+00  0.34615734264E+01  0.34615770955E+01  0.50400000000E-02 0. -1.
         -2   -1    0    0    0  501 -0.00000000000E+00 -0.00000000000E+00 -0.47791247328E+03  0.47791247329E+03  0.25500000000E-02 0.  1.
        -24    2    1    2    0    0  0.00000000000E+00  0.00000000000E+00 -0.47445089986E+03  0.48137405039E+03  0.81346911494E+02 0.  0.
         66    2    3    3    0    0 -0.16499662899E+02 -0.25447299080E+02 -0.39752756876E+03  0.39868781249E+03  0.19999995101E+01 0.  0.
         13    1    3    3    0    0  0.16499662899E+02  0.25447299080E+02 -0.76923331102E+02  0.82686237900E+02  0.10566000000E+00 0. -1.
         13    1    4    4    0    0 -0.13021798506E+01 -0.20900689458E+01 -0.27436033384E+02  0.27546527049E+02  0.10566000000E+00 0.  1.
        -13    1    4    4    0    0 -0.75219746490E+01 -0.12700292703E+02 -0.19506158031E+03  0.19561929561E+03  0.10566000000E+00 0.  1.
         14    1    4    4    0    0 -0.76755083991E+01 -0.10656937431E+02 -0.17502995507E+03  0.17552198983E+03  0.00000000000E+00 0. -1.
<mgrwt>
<rscale>  0 0.81346911E+02</rscale>
<asrwt>0</asrwt>
<pdfrwt beam="1">  1        1 0.53255042E-03 0.81346911E+02</pdfrwt>
<pdfrwt beam="2">  1       -2 0.73524944E-01 0.81346911E+02</pdfrwt>
<totfact> 0.49936402E+04</totfact>
</mgrwt>
</event>
<event>
 8    1  0.7756875E-018  0.7928703E+02  0.7818608E-02  0.1331087E+00
         -2   -1    0    0    0  501 -0.00000000000E+00  0.00000000000E+00  0.60151260096E+02  0.60151260150E+02  0.25500000000E-02 0.  1.
          1   -1    0    0  501    0  0.00000000000E+00 -0.00000000000E+00 -0.26127600019E+02  0.26127600505E+02  0.50400000000E-02 0. -1.
        -24    2    1    2    0    0  0.00000000000E+00 -0.17763568394E-14  0.34023660077E+02  0.86278860656E+02  0.79287025111E+02 0.  0.
         66    2    3    3    0    0 -0.25436883405E+02 -0.61719150852E+01  0.49385357974E+02  0.55928893613E+02  0.19999963500E+01 0.  0.
         13    1    3    3    0    0  0.25436883405E+02  0.61719150852E+01 -0.15361697897E+02  0.30349967043E+02  0.10566000000E+00 0. -1.
         13    1    4    4    0    0 -0.43091110324E+01 -0.13796303688E+01  0.80089791825E+01  0.91992787449E+01  0.10566000000E+00 0. -1.
        -13    1    4    4    0    0 -0.19139852572E+02 -0.40404362938E+01  0.36540325089E+02  0.41447142285E+02  0.10566000000E+00 0.  1.
         14    1    4    4    0    0 -0.19879198009E+01 -0.75184842268E+00  0.48360537024E+01  0.52824725837E+01  0.00000000000E+00 0. -1.
<mgrwt>
<rscale>  0 0.79287025E+02</rscale>
<asrwt>0</asrwt>
<pdfrwt beam="1">  1        1 0.40196308E-02 0.79287025E+02</pdfrwt>
<pdfrwt beam="2">  1       -2 0.92540401E-02 0.79287025E+02</pdfrwt>
<totfact> 0.12104366E+05</totfact>
</mgrwt>
</event>
<event>
 8    1  0.7756875E-018  0.8027245E+02  0.7818608E-02  0.1328280E+00
          1   -1    0    0  501    0  0.00000000000E+00  0.00000000000E+00  0.35107096829E+03  0.35107096833E+03  0.50400000000E-02 0. -1.
         -2   -1    0    0    0  501 -0.00000000000E+00 -0.00000000000E+00 -0.45885771764E+01  0.45885778850E+01  0.25500000000E-02 0.  1.
        -24    2    1    2    0    0  0.35527136788E-14 -0.35527136788E-14  0.34648239111E+03  0.35565954621E+03  0.80272445206E+02 0.  0.
         66    2    3    3    0    0  0.29120086779E+02 -0.27570027025E+02  0.16932273431E+03  0.17401802836E+03  0.19999990633E+01 0.  0.
         13    1    3    3    0    0 -0.29120086779E+02  0.27570027025E+02  0.17715965680E+03  0.18164151785E+03  0.10566000000E+00 0. -1.
         13    1    4    4    0    0  0.17457592952E+01 -0.19718425934E+01  0.98264020956E+01  0.10173749599E+02  0.10566000000E+00 0. -1.
        -13    1    4    4    0    0  0.18164223765E+02 -0.17310766625E+02  0.10472515999E+03  0.10768923793E+03  0.10566000000E+00 0.  1.
        -14    1    4    4    0    0  0.92101037183E+01 -0.82874178068E+01  0.54771172221E+02  0.56155040832E+02  0.00000000000E+00 0.  1.
<mgrwt>
<rscale>  0 0.80272445E+02</rscale>
<asrwt>0</asrwt>
<pdfrwt beam="1">  1        1 0.54010924E-01 0.80272445E+02</pdfrwt>
<pdfrwt beam="2">  1       -2 0.70593493E-03 0.80272445E+02</pdfrwt>
<totfact> 0.18408049E+05</totfact>
</mgrwt>
</event>
<event>
 8    1  0.7756875E-018  0.7818171E+02  0.7818608E-02  0.1334292E+00
         -2   -1    0    0    0  501 -0.00000000000E+00  0.00000000000E+00  0.26903890283E+03  0.26903890285E+03  0.25500000000E-02 0.  1.
          1   -1    0    0  501    0  0.00000000000E+00 -0.00000000000E+00 -0.56798276625E+01  0.56798298986E+01  0.50400000000E-02 0. -1.
        -24    2    1    2    0    0  0.00000000000E+00  0.00000000000E+00  0.26335907517E+03  0.27471873274E+03  0.78181709150E+02 0.  0.
         66    2    3    3    0    0  0.10676927505E+02 -0.30945989665E+02  0.20667220492E+03  0.20925833647E+03  0.20000097636E+01 0.  0.
         13    1    3    3    0    0 -0.10676927505E+02  0.30945989665E+02  0.56686870252E+02  0.65460396274E+02  0.10566000000E+00 0. -1.
         13    1    4    4    0    0  0.38607399349E+01 -0.11602299273E+02  0.83280657653E+02  0.84173616796E+02  0.10566000000E+00 0. -1.
        -13    1    4    4    0    0  0.45719368998E+01 -0.12855473016E+02  0.82732932716E+02  0.83850552254E+02  0.10566000000E+00 0.  1.
         14    1    4    4    0    0  0.22442506703E+01 -0.64882173757E+01  0.40658614549E+02  0.41234167420E+02  0.00000000000E+00 0. -1.
<mgrwt>
<rscale>  0 0.78181709E+02</rscale>
<asrwt>0</asrwt>
<pdfrwt beam="1">  1        1 0.87381996E-03 0.78181709E+02</pdfrwt>
<pdfrwt beam="2">  1       -2 0.41390594E-01 0.78181709E+02</pdfrwt>
<totfact> 0.78939182E+04</totfact>
</mgrwt>
</event>
<event>
 8    1  0.7756875E-018  0.8153490E+02  0.7818608E-02  0.1324751E+00
         -2   -1    0    0    0  501 -0.00000000000E+00  0.00000000000E+00  0.13527200327E+02  0.13527200567E+02  0.25500000000E-02 0.  1.
          1   -1    0    0  501    0  0.00000000000E+00 -0.00000000000E+00 -0.12286245815E+03  0.12286245825E+03  0.50400000000E-02 0. -1.
        -24    2    1    2    0    0  0.88817841970E-15 -0.35527136788E-14 -0.10933525782E+03  0.13638965882E+03  0.81534903138E+02 0.  0.
         66    2    3    3    0    0  0.57463982985E+01 -0.28584041693E+02 -0.70949787549E+01  0.30073364862E+02  0.20000044322E+01 0.  0.
         13    1    3    3    0    0 -0.57463982985E+01  0.28584041693E+02 -0.10224027907E+03  0.10631629395E+03  0.10566000000E+00 0. -1.
         13    1    4    4    0    0  0.39400868027E+00 -0.29885338915E+01 -0.11417341964E+01  0.32251044435E+01  0.10566000000E+00 0. -1.
        -13    1    4    4    0    0  0.23675390846E+01 -0.97847229749E+01 -0.17543651045E+01  0.10219344694E+02  0.10566000000E+00 0.  1.
        -14    1    4    4    0    0  0.29848505336E+01 -0.15810784826E+02 -0.41988794540E+01  0.16628915725E+02  0.00000000000E+00 0.  1.
<mgrwt>
<rscale>  0 0.81534903E+02</rscale>
<asrwt>0</asrwt>
<pdfrwt beam="1">  1        1 0.18901916E-01 0.81534903E+02</pdfrwt>
<pdfrwt beam="2">  1       -2 0.20811078E-02 0.81534903E+02</pdfrwt>
<totfact> 0.14470613E+05</totfact>
</mgrwt>
</event>
<event>
 8    1  0.7756875E-018  0.8264760E+02  0.7818608E-02  0.1321702E+00
         -2   -1    0    0    0  501 -0.00000000000E+00  0.00000000000E+00  0.61167529132E+01  0.61167534448E+01  0.25500000000E-02 0.  1.
          1   -1    0    0  501    0  0.00000000000E+00 -0.00000000000E+00 -0.27917691192E+03  0.27917691197E+03  0.50400000000E-02 0. -1.
        -24    2    1    2    0    0 -0.35527136788E-14  0.35527136788E-14 -0.27306015901E+03  0.28529366541E+03  0.82647595770E+02 0.  0.
         66    2    3    3    0    0  0.31464039159E+02 -0.20387811393E+02 -0.76820372284E+02  0.85504492354E+02  0.20000002986E+01 0.  0.
         13    1    3    3    0    0 -0.31464039159E+02  0.20387811393E+02 -0.19623978673E+03  0.19978917306E+03  0.10566000000E+00 0. -1.
         13    1    4    4    0    0  0.13525310712E+02 -0.88271062427E+01 -0.33751440714E+02  0.37416877860E+02  0.10566000000E+00 0. -1.
        -13    1    4    4    0    0  0.14086389294E+02 -0.83994038002E+01 -0.32602137874E+02  0.36495025764E+02  0.10566000000E+00 0.  1.
        -14    1    4    4    0    0  0.38523391537E+01 -0.31613013505E+01 -0.10466793696E+02  0.11592588730E+02  0.00000000000E+00 0.  1.
<mgrwt>
<rscale>  0 0.82647596E+02</rscale>
<asrwt>0</asrwt>
<pdfrwt beam="1">  1        1 0.42950284E-01 0.82647596E+02</pdfrwt>
<pdfrwt beam="2">  1       -2 0.94103917E-03 0.82647596E+02</pdfrwt>
<totfact> 0.16326347E+05</totfact>
</mgrwt>
</event>
<event>
 8    1  0.7756875E-018  0.8049380E+02  0.7818608E-02  0.1327656E+00
         -2   -1    0    0    0  501 -0.00000000000E+00  0.00000000000E+00  0.27985957838E+02  0.27985957954E+02  0.25500000000E-02 0.  1.
          1   -1    0    0  501    0  0.00000000000E+00 -0.00000000000E+00 -0.57879491673E+02  0.57879491892E+02  0.50400000000E-02 0. -1.
        -24    2    1    2    0    0  0.00000000000E+00 -0.35527136788E-14 -0.29893533835E+02  0.85865449846E+02  0.80493801700E+02 0.  0.
         66    2    3    3    0    0 -0.82571048596E+01 -0.16737832247E+02  0.23051398565E+02  0.29727122120E+02  0.20000011852E+01 0.  0.
         13    1    3    3    0    0  0.82571048596E+01  0.16737832247E+02 -0.52944932400E+02  0.56138327726E+02  0.10566000000E+00 0. -1.
         13    1    4    4    0    0 -0.75955212238E+00 -0.27354149318E+01  0.33954879683E+01  0.44271793339E+01  0.10566000000E+00 0. -1.
        -13    1    4    4    0    0 -0.37698927563E+01 -0.77158408472E+01  0.98157264323E+01  0.13042466822E+02  0.10566000000E+00 0. -1.
        -14    1    4    4    0    0 -0.37276599809E+01 -0.62865764683E+01  0.98401841647E+01  0.12257475964E+02  0.00000000000E+00 0.  1.
<mgrwt>
<rscale>  0 0.80493802E+02</rscale>
<asrwt>0</asrwt>
<pdfrwt beam="1">  1        1 0.89045372E-02 0.80493802E+02</pdfrwt>
<pdfrwt beam="2">  1       -2 0.43055320E-02 0.80493802E+02</pdfrwt>
<totfact> 0.13235499E+05</totfact>
</mgrwt>
</event>
<event>
 8    1  0.7756875E-018  0.8120881E+02  0.7818608E-02  0.1325656E+00
          1   -1    0    0  501    0  0.00000000000E+00  0.00000000000E+00  0.15932889443E+01  0.15932969157E+01  0.50400000000E-02 0. -1.
         -2   -1    0    0    0  501 -0.00000000000E+00 -0.00000000000E+00 -0.10347861987E+04  0.10347861987E+04  0.25500000000E-02 0.  1.
        -24    2    1    2    0    0  0.35527136788E-14  0.00000000000E+00 -0.10331929098E+04  0.10363794957E+04  0.81208805988E+02 0.  0.
         66    2    3    3    0    0  0.26083523070E+02 -0.78145233995E+01 -0.90089093773E+03  0.90130455377E+03  0.19999994160E+01 0.  0.
         13    1    3    3    0    0 -0.26083523070E+02  0.78145233995E+01 -0.13230197205E+03  0.13507494188E+03  0.10566000000E+00 0. -1.
         13    1    4    4    0    0  0.89247355936E+01 -0.34039469585E+01 -0.30319204365E+03  0.30334248674E+03  0.10566000000E+00 0. -1.
        -13    1    4    4    0    0  0.16798126263E+02 -0.44439129993E+01 -0.58597372239E+03  0.58623130240E+03  0.10566000000E+00 0.  1.
         14    1    4    4    0    0  0.36066121343E+00  0.33336558316E-01 -0.11725171687E+02  0.11730764635E+02  0.00000000000E+00 0. -1.
<mgrwt>
<rscale>  0 0.81208806E+02</rscale>
<asrwt>0</asrwt>
<pdfrwt beam="1">  1        1 0.24512282E-03 0.81208806E+02</pdfrwt>
<pdfrwt beam="2">  1       -2 0.15919734E+00 0.81208806E+02</pdfrwt>
<totfact> 0.24093706E+04</totfact>
</mgrwt>
</event>
<event>
 8    1  0.7756875E-018  0.8039034E+02  0.7818608E-02  0.1327947E+00
         -2   -1    0    0    0  501 -0.00000000000E+00  0.00000000000E+00  0.10556255520E+03  0.10556255523E+03  0.25500000000E-02 0.  1.
          1   -1    0    0  501    0  0.00000000000E+00 -0.00000000000E+00 -0.15305159937E+02  0.15305160767E+02  0.50400000000E-02 0. -1.
        -24    2    1    2    0    0 -0.35527136788E-14 -0.35527136788E-14  0.90257395266E+02  0.12086771600E+03  0.80390343767E+02 0.  0.
         66    2    3    3    0    0  0.23703778645E+02  0.25689678451E+02  0.74917634702E+02  0.82695106459E+02  0.19999855145E+01 0.  0.
         13    1    3    3    0    0 -0.23703778645E+02 -0.25689678451E+02  0.15339760564E+02  0.38172609541E+02  0.10566000000E+00 0. -1.
         13    1    4    4    0    0  0.97038961725E+01  0.11001536624E+02  0.31103001668E+02  0.34389057647E+02  0.10566000000E+00 0.  1.
        -13    1    4    4    0    0  0.13805083494E+02  0.14238166831E+02  0.42402372906E+02  0.46811089680E+02  0.10566000000E+00 0. -1.
         14    1    4    4    0    0  0.19479897855E+00  0.44997499515E+00  0.14122601284E+01  0.14949591328E+01  0.00000000000E+00 0. -1.
<mgrwt>
<rscale>  0 0.80390344E+02</rscale>
<asrwt>0</asrwt>
<pdfrwt beam="1">  1        1 0.23546400E-02 0.80390344E+02</pdfrwt>
<pdfrwt beam="2">  1       -2 0.16240393E-01 0.80390344E+02</pdfrwt>
<totfact> 0.10338852E+05</totfact>
</mgrwt>
</event>
<event>
 8    1  0.7756875E-018  0.8093077E+02  0.7818608E-02  0.1326431E+00
          1   -1    0    0  501    0  0.00000000000E+00  0.00000000000E+00  0.15747299501E+03  0.15747299509E+03  0.50400000000E-02 0. -1.
         -2   -1    0    0    0  501 -0.00000000000E+00 -0.00000000000E+00 -0.10398273076E+02  0.10398273389E+02  0.25500000000E-02 0.  1.
        -24    2    1    2    0    0  0.35527136788E-14  0.00000000000E+00  0.14707472193E+03  0.16787126848E+03  0.80930766394E+02 0.  0.
         66    2    3    3    0    0 -0.18237169565E+02 -0.33409357236E+02  0.45242686102E+02  0.59158094529E+02  0.19999994814E+01 0.  0.
         13    1    3    3    0    0  0.18237169565E+02  0.33409357236E+02  0.10183203583E+03  0.10871317395E+03  0.10566000000E+00 0. -1.
         13    1    4    4    0    0 -0.49352606712E+01 -0.98182959790E+01  0.12450335253E+02  0.16606557312E+02  0.10566000000E+00 0.  1.
        -13    1    4    4    0    0 -0.49169662674E+01 -0.91297769694E+01  0.11593486588E+02  0.15554725330E+02  0.10566000000E+00 0.  1.
        -14    1    4    4    0    0 -0.83849426266E+01 -0.14461284288E+02  0.21198864261E+02  0.26996811887E+02  0.00000000000E+00 0.  1.
<mgrwt>
<rscale>  0 0.80930766E+02</rscale>
<asrwt>0</asrwt>
<pdfrwt beam="1">  1        1 0.24226613E-01 0.80930766E+02</pdfrwt>
<pdfrwt beam="2">  1       -2 0.15997345E-02 0.80930766E+02</pdfrwt>
<totfact> 0.15446746E+05</totfact>
</mgrwt>
</event>
<event>
 8    1  0.7756875E-018  0.8032676E+02  0.7818608E-02  0.1328127E+00
          1   -1    0    0  501    0  0.00000000000E+00  0.00000000000E+00  0.93157254435E+02  0.93157254571E+02  0.50400000000E-02 0. -1.
         -2   -1    0    0    0  501 -0.00000000000E+00 -0.00000000000E+00 -0.17315852282E+02  0.17315852469E+02  0.25500000000E-02 0.  1.
        -24    2    1    2    0    0  0.00000000000E+00  0.00000000000E+00  0.75841402153E+02  0.11047310704E+03  0.80326764522E+02 0.  0.
         66    2    3    3    0    0  0.37976146140E+02  0.12919269723E+02  0.39887703123E+02  0.56604982479E+02  0.19999937842E+01 0.  0.
         13    1    3    3    0    0 -0.37976146140E+02 -0.12919269723E+02  0.35953699030E+02  0.53868124562E+02  0.10566000000E+00 0. -1.
         13    1    4    4    0    0  0.17843922186E+02  0.65380458612E+01  0.18589657011E+02  0.26584546535E+02  0.10566000000E+00 0. -1.
        -13    1    4    4    0    0  0.61059652143E+01  0.23587726123E+01  0.60181844956E+01  0.88924871714E+01  0.10566000000E+00 0. -1.
        -14    1    4    4    0    0  0.14026258740E+02  0.40224512492E+01  0.15279861617E+02  0.21127948772E+02  0.00000000000E+00 0.  1.
<mgrwt>
<rscale>  0 0.80326765E+02</rscale>
<asrwt>0</asrwt>
<pdfrwt beam="1">  1        1 0.14331885E-01 0.80326765E+02</pdfrwt>
<pdfrwt beam="2">  1       -2 0.26639773E-02 0.80326765E+02</pdfrwt>
<totfact> 0.14366652E+05</totfact>
</mgrwt>
</event>
<event>
 8    1  0.8530228E-018  0.7860637E+02  0.7818608E-02  0.1333054E+00
         -2   -1    0    0    0  501 -0.00000000000E+00  0.00000000000E+00  0.27380441906E+02  0.27380442024E+02  0.25500000000E-02 0.  1.
          1   -1    0    0  501    0  0.00000000000E+00 -0.00000000000E+00 -0.56417648608E+02  0.56417648833E+02  0.50400000000E-02 0. -1.
        -24    2    1    2    0    0 -0.17763568394E-14  0.17763568394E-14 -0.29037206703E+02  0.83798090858E+02  0.78606365253E+02 0.  0.
         66    2    3    3    0    0 -0.14777251258E+02  0.15492810375E+02  0.20576244162E+02  0.29761991824E+02  0.20000013614E+01 0.  0.
         13    1    3    3    0    0  0.14777251258E+02 -0.15492810375E+02 -0.49613450865E+02  0.54036099034E+02  0.10566000000E+00 0. -1.
         13    1    4    4    0    0 -0.66320492960E+01  0.73721224563E+01  0.94561501105E+01  0.13702635014E+02  0.10566000000E+00 0. -1.
        -13    1    4    4    0    0 -0.54740160040E+01  0.63349720404E+01  0.79817406092E+01  0.11567889572E+02  0.10566000000E+00 0.  1.
         14    1    4    4    0    0 -0.26711859575E+01  0.17857158788E+01  0.31383534425E+01  0.44914672379E+01  0.00000000000E+00 0. -1.
<mgrwt>
<rscale>  0 0.78606365E+02</rscale>
<asrwt>0</asrwt>
<pdfrwt beam="1">  1        1 0.86796383E-02 0.78606365E+02</pdfrwt>
<pdfrwt beam="2">  1       -2 0.42123757E-02 0.78606365E+02</pdfrwt>
<totfact> 0.14075236E+05</totfact>
</mgrwt>
</event>
<event>
 8    1  0.7756875E-018  0.8072852E+02  0.7818608E-02  0.1326997E+00
          1   -1    0    0  501    0  0.00000000000E+00  0.00000000000E+00  0.17489124910E+03  0.17489124917E+03  0.50400000000E-02 0. -1.
         -2   -1    0    0    0  501 -0.00000000000E+00 -0.00000000000E+00 -0.93159240478E+01  0.93159243968E+01  0.25500000000E-02 0.  1.
        -24    2    1    2    0    0  0.00000000000E+00  0.00000000000E+00  0.16557532505E+03  0.18420717357E+03  0.80728523634E+02 0.  0.
         66    2    3    3    0    0  0.20000129319E+02  0.18650516614E+02  0.15171146541E+02  0.31337048887E+02  0.20000007111E+01 0.  0.
         13    1    3    3    0    0 -0.20000129319E+02 -0.18650516614E+02  0.15040417851E+03  0.15287012468E+03  0.10566000000E+00 0. -1.
         13    1    4    4    0    0  0.10004825543E+02  0.94818761663E+01  0.71113412557E+01  0.15510797796E+02  0.10566000000E+00 0. -1.
        -13    1    4    4    0    0  0.59912385811E+01  0.62982793688E+01  0.51884756586E+01  0.10123966932E+02  0.10566000000E+00 0.  1.
         14    1    4    4    0    0  0.40040651944E+01  0.28703610794E+01  0.28713296272E+01  0.57022841594E+01  0.00000000000E+00 0. -1.
<mgrwt>
<rscale>  0 0.80728524E+02</rscale>
<asrwt>0</asrwt>
<pdfrwt beam="1">  1        1 0.26906344E-01 0.80728524E+02</pdfrwt>
<pdfrwt beam="2">  1       -2 0.14332192E-02 0.80728524E+02</pdfrwt>
<totfact> 0.15861144E+05</totfact>
</mgrwt>
</event>
<event>
 8    1  0.7756875E-018  0.8142707E+02  0.7818608E-02  0.1325050E+00
         -2   -1    0    0    0  501 -0.00000000000E+00  0.00000000000E+00  0.15257577521E+02  0.15257577734E+02  0.25500000000E-02 0.  1.
          1   -1    0    0  501    0  0.00000000000E+00 -0.00000000000E+00 -0.10864057754E+03  0.10864057766E+03  0.50400000000E-02 0. -1.
        -24    2    1    2    0    0  0.00000000000E+00  0.00000000000E+00 -0.93383000022E+02  0.12389815539E+03  0.81427072999E+02 0.  0.
         66    2    3    3    0    0 -0.27189148732E+02  0.19075707842E+02 -0.10955734530E+02  0.35030851515E+02  0.20000000681E+01 0.  0.
         13    1    3    3    0    0  0.27189148732E+02 -0.19075707842E+02 -0.82427265492E+02  0.88867303880E+02  0.10566000000E+00 0. -1.
         13    1    4    4    0    0 -0.33077122566E+00  0.40074595002E+00 -0.17954763114E+00  0.55982881994E+00  0.10566000000E+00 0. -1.
        -13    1    4    4    0    0 -0.25251269228E+02  0.17707214748E+02 -0.98299907623E+01  0.32369923296E+02  0.10566000000E+00 0.  1.
        -14    1    4    4    0    0 -0.16071082785E+01  0.96774714423E+00 -0.94619613686E+00  0.21010993987E+01  0.00000000000E+00 0.  1.
<mgrwt>
<rscale>  0 0.81427073E+02</rscale>
<asrwt>0</asrwt>
<pdfrwt beam="1">  1        1 0.16713935E-01 0.81427073E+02</pdfrwt>
<pdfrwt beam="2">  1       -2 0.23473197E-02 0.81427073E+02</pdfrwt>
<totfact> 0.14212696E+05</totfact>
</mgrwt>
</event>
<event>
 8    1  0.7756875E-018  0.7996724E+02  0.7818608E-02  0.1329144E+00
         -2   -1    0    0    0  501 -0.00000000000E+00  0.00000000000E+00  0.39154880725E+01  0.39154889029E+01  0.25500000000E-02 0.  1.
          1   -1    0    0  501    0  0.00000000000E+00 -0.00000000000E+00 -0.40829894024E+03  0.40829894027E+03  0.50400000000E-02 0. -1.
        -24    2    1    2    0    0  0.00000000000E+00  0.00000000000E+00 -0.40438345217E+03  0.41221442918E+03  0.79967238494E+02 0.  0.
         66    2    3    3    0    0 -0.37593096461E+02  0.13530032918E+02 -0.19913121877E+03  0.20310968707E+03  0.20000000016E+01 0.  0.
         13    1    3    3    0    0  0.37593096461E+02 -0.13530032918E+02 -0.20525223340E+03  0.20910474211E+03  0.10566000000E+00 0. -1.
         13    1    4    4    0    0 -0.10997125054E+02  0.45076305910E+01 -0.56724444174E+02  0.57956269927E+02  0.10566000000E+00 0. -1.
        -13    1    4    4    0    0 -0.65741002935E+01  0.21517724710E+01 -0.37349664786E+02  0.37984964698E+02  0.10566000000E+00 0.  1.
         14    1    4    4    0    0 -0.20021871113E+02  0.68706298562E+01 -0.10505710981E+03  0.10716845244E+03  0.00000000000E+00 0. -1.
<mgrwt>
<rscale>  0 0.79967238E+02</rscale>
<asrwt>0</asrwt>
<pdfrwt beam="1">  1        1 0.62815188E-01 0.79967238E+02</pdfrwt>
<pdfrwt beam="2">  1       -2 0.60238317E-03 0.79967238E+02</pdfrwt>
<totfact> 0.19077261E+05</totfact>
</mgrwt>
</event>
<event>
 8    1  0.7756875E-018  0.7830792E+02  0.7818608E-02  0.1333923E+00
         -2   -1    0    0    0  501 -0.00000000000E+00  0.00000000000E+00  0.20881060326E+02  0.20881060482E+02  0.25500000000E-02 0.  1.
          1   -1    0    0  501    0  0.00000000000E+00 -0.00000000000E+00 -0.73417371943E+02  0.73417372116E+02  0.50400000000E-02 0. -1.
        -24    2    1    2    0    0  0.00000000000E+00 -0.71054273576E-14 -0.52536311617E+02  0.94298432598E+02  0.78307920111E+02 0.  0.
         66    2    3    3    0    0  0.13754897017E+02 -0.27338944458E+02 -0.55644345633E+02  0.63536668742E+02  0.19999994753E+01 0.  0.
         13    1    3    3    0    0 -0.13754897017E+02  0.27338944458E+02  0.31080340160E+01  0.30761763856E+02  0.10566000000E+00 0. -1.
         13    1    4    4    0    0  0.11604580705E+01 -0.31609086433E+01 -0.62353659879E+01  0.70872391961E+01  0.10566000000E+00 0. -1.
        -13    1    4    4    0    0  0.95175850765E+01 -0.18087315994E+02 -0.38288209233E+02  0.43401999446E+02  0.10566000000E+00 0.  1.
        -14    1    4    4    0    0  0.30768538704E+01 -0.60907198203E+01 -0.11120770412E+02  0.13047430101E+02  0.00000000000E+00 0.  1.
<mgrwt>
<rscale>  0 0.78307920E+02</rscale>
<asrwt>0</asrwt>
<pdfrwt beam="1">  1        1 0.11294980E-01 0.78307920E+02</pdfrwt>
<pdfrwt beam="2">  1       -2 0.32124709E-02 0.78307920E+02</pdfrwt>
<totfact> 0.14815424E+05</totfact>
</mgrwt>
</event>
<event>
 8    1  0.7756875E-018  0.8064190E+02  0.7818608E-02  0.1327240E+00
         -2   -1    0    0    0  501 -0.00000000000E+00  0.00000000000E+00  0.14534073242E+03  0.14534073244E+03  0.25500000000E-02 0.  1.
          1   -1    0    0  501    0  0.00000000000E+00 -0.00000000000E+00 -0.11185982795E+02  0.11185983930E+02  0.50400000000E-02 0. -1.
        -24    2    1    2    0    0  0.00000000000E+00  0.71054273576E-14  0.13415474962E+03  0.15652671637E+03  0.80641900344E+02 0.  0.
         66    2    3    3    0    0 -0.11594167489E+02  0.36941231304E+02  0.88793155890E+02  0.96888099350E+02  0.19999931607E+01 0.  0.
         13    1    3    3    0    0  0.11594167489E+02 -0.36941231304E+02  0.45361593731E+02  0.59638617019E+02  0.10566000000E+00 0. -1.
         13    1    4    4    0    0 -0.27635827226E+01  0.78202026060E+01  0.17824862243E+02  0.19660362059E+02  0.10566000000E+00 0. -1.
        -13    1    4    4    0    0 -0.43112721614E+01  0.12475450083E+02  0.29841474858E+02  0.32630487403E+02  0.10566000000E+00 0.  1.
         14    1    4    4    0    0 -0.45193126054E+01  0.16645578615E+02  0.41126818789E+02  0.44597249888E+02  0.00000000000E+00 0. -1.
<mgrwt>
<rscale>  0 0.80641900E+02</rscale>
<asrwt>0</asrwt>
<pdfrwt beam="1">  1        1 0.17209206E-02 0.80641900E+02</pdfrwt>
<pdfrwt beam="2">  1       -2 0.22360112E-01 0.80641900E+02</pdfrwt>
<totfact> 0.93540754E+04</totfact>
</mgrwt>
</event>
<event>
 8    1  0.7756875E-018  0.8087396E+02  0.7818608E-02  0.1326589E+00
         -2   -1    0    0    0  501 -0.00000000000E+00  0.00000000000E+00  0.55196894771E+02  0.55196894830E+02  0.25500000000E-02 0.  1.
          1   -1    0    0  501    0  0.00000000000E+00 -0.00000000000E+00 -0.29623936535E+02  0.29623936963E+02  0.50400000000E-02 0. -1.
        -24    2    1    2    0    0  0.17763568394E-14  0.00000000000E+00  0.25572958237E+02  0.84820831793E+02  0.80873959426E+02 0.  0.
         66    2    3    3    0    0  0.87349003194E+01 -0.17763669259E+02  0.49745756919E+02  0.53576923759E+02  0.19999997167E+01 0.  0.
         13    1    3    3    0    0 -0.87349003194E+01  0.17763669259E+02 -0.24172798682E+02  0.31243908035E+02  0.10566000000E+00 0. -1.
         13    1    4    4    0    0  0.56175604679E+00 -0.72581316982E+00  0.33927703144E+01  0.35163090103E+01  0.10566000000E+00 0. -1.
        -13    1    4    4    0    0  0.27247968983E+01 -0.62873996969E+01  0.16526050826E+02  0.17890708008E+02  0.10566000000E+00 0.  1.
         14    1    4    4    0    0  0.54483473743E+01 -0.10750456392E+02  0.29826935779E+02  0.32169906741E+02  0.00000000000E+00 0. -1.
<mgrwt>
<rscale>  0 0.80873959E+02</rscale>
<asrwt>0</asrwt>
<pdfrwt beam="1">  1        1 0.45575288E-02 0.80873959E+02</pdfrwt>
<pdfrwt beam="2">  1       -2 0.84918298E-02 0.80873959E+02</pdfrwt>
<totfact> 0.11695933E+05</totfact>
</mgrwt>
</event>
<event>
 8    1  0.7756875E-018  0.7823740E+02  0.7818608E-02  0.1334129E+00
         -2   -1    0    0    0  501 -0.00000000000E+00  0.00000000000E+00  0.11672510175E+04  0.11672510176E+04  0.25500000000E-02 0.  1.
          1   -1    0    0  501    0  0.00000000000E+00 -0.00000000000E+00 -0.13110006973E+01  0.13110103851E+01  0.50400000000E-02 0. -1.
        -24    2    1    2    0    0  0.11102230246E-15  0.00000000000E+00  0.11659400169E+04  0.11685620279E+04  0.78237396683E+02 0.  0.
         66    2    3    3    0    0 -0.70475811565E+00 -0.12956380821E+02  0.11341466511E+04  0.11342226371E+04  0.19999999198E+01 0.  0.
         13    1    3    3    0    0  0.70475811565E+00  0.12956380821E+02  0.31793365794E+02  0.34339390801E+02  0.10566000000E+00 0. -1.
         13    1    4    4    0    0 -0.66884835661E+00 -0.85530712324E+01  0.67495791777E+03  0.67501244752E+03  0.10566000000E+00 0. -1.
        -13    1    4    4    0    0 -0.18743999991E-01 -0.43325707823E+01  0.44061412086E+03  0.44063543455E+03  0.10566000000E+00 0.  1.
        -14    1    4    4    0    0 -0.17165759052E-01 -0.70738806638E-01  0.18574612428E+02  0.18574755059E+02  0.00000000000E+00 0.  1.
<mgrwt>
<rscale>  0 0.78237397E+02</rscale>
<asrwt>0</asrwt>
<pdfrwt beam="1">  1        1 0.20169329E-03 0.78237397E+02</pdfrwt>
<pdfrwt beam="2">  1       -2 0.17957696E+00 0.78237397E+02</pdfrwt>
<totfact> 0.22814509E+04</totfact>
</mgrwt>
</event>
<event>
 8    1  0.7756875E-018  0.7947011E+02  0.7818608E-02  0.1330562E+00
         -2   -1    0    0    0  501 -0.00000000000E+00  0.00000000000E+00  0.64308199679E+01  0.64308204735E+01  0.25500000000E-02 0.  1.
          1   -1    0    0  501    0  0.00000000000E+00 -0.00000000000E+00 -0.24551682436E+03  0.24551682441E+03  0.50400000000E-02 0. -1.
        -24    2    1    2    0    0  0.00000000000E+00 -0.35527136788E-14 -0.23908600440E+03  0.25194764489E+03  0.79470109268E+02 0.  0.
         66    2    3    3    0    0 -0.25937223613E+02 -0.28608341619E+02 -0.90270490655E+02  0.98203555335E+02  0.20000045953E+01 0.  0.
         13    1    3    3    0    0  0.25937223613E+02  0.28608341619E+02 -0.14881551374E+03  0.15374408955E+03  0.10566000000E+00 0. -1.
         13    1    4    4    0    0 -0.51046071657E+01 -0.54871340665E+01 -0.18255019854E+02  0.19733792552E+02  0.10566000000E+00 0. -1.
        -13    1    4    4    0    0 -0.69631793822E+01 -0.88665318034E+01 -0.26510341621E+02  0.28808169505E+02  0.10566000000E+00 0.  1.
         14    1    4    4    0    0 -0.13869437065E+02 -0.14254675749E+02 -0.45505129180E+02  0.49661593277E+02  0.00000000000E+00 0. -1.
<mgrwt>
<rscale>  0 0.79470109E+02</rscale>
<asrwt>0</asrwt>
<pdfrwt beam="1">  1        1 0.37771812E-01 0.79470109E+02</pdfrwt>
<pdfrwt beam="2">  1       -2 0.98935715E-03 0.79470109E+02</pdfrwt>
<totfact> 0.17661622E+05</totfact>
</mgrwt>
</event>
<event>
 8    1  0.7756875E-018  0.7792440E+02  0.7818608E-02  0.1335047E+00
          1   -1    0    0  501    0  0.00000000000E+00  0.00000000000E+00  0.19520099658E+03  0.19520099665E+03  0.50400000000E-02 0. -1.
         -2   -1    0    0    0  501 -0.00000000000E+00 -0.00000000000E+00 -0.77768707847E+01  0.77768712028E+01  0.25500000000E-02 0.  1.
        -24    2    1    2    0    0 -0.71054273576E-14  0.00000000000E+00  0.18742412580E+03  0.20297786785E+03  0.77924398657E+02 0.  0.
         66    2    3    3    0    0  0.24165405389E+02 -0.17987528091E+02  0.29517243442E+02  0.42223046325E+02  0.19999990219E+01 0.  0.
         13    1    3    3    0    0 -0.24165405389E+02  0.17987528091E+02  0.15790688236E+03  0.16075482153E+03  0.10566000000E+00 0. -1.
         13    1    4    4    0    0  0.20224016674E+01 -0.19657760250E+01  0.29390217974E+01  0.40747266223E+01  0.10566000000E+00 0. -1.
        -13    1    4    4    0    0  0.40201339882E+01 -0.23249391074E+01  0.47643097772E+01  0.66540687422E+01  0.10566000000E+00 0.  1.
         14    1    4    4    0    0  0.18122869733E+02 -0.13696812958E+02  0.21813911867E+02  0.31494250960E+02  0.00000000000E+00 0. -1.
<mgrwt>
<rscale>  0 0.77924399E+02</rscale>
<asrwt>0</asrwt>
<pdfrwt beam="1">  1        1 0.30030921E-01 0.77924399E+02</pdfrwt>
<pdfrwt beam="2">  1       -2 0.11964417E-02 0.77924399E+02</pdfrwt>
<totfact> 0.17794036E+05</totfact>
</mgrwt>
</event>
<event>
 8    1  0.7756875E-018  0.7796476E+02  0.7818608E-02  0.1334928E+00
         -2   -1    0    0    0  501 -0.00000000000E+00  0.00000000000E+00  0.62574568289E+02  0.62574568341E+02  0.25500000000E-02 0.  1.
          1   -1    0    0  501    0  0.00000000000E+00 -0.00000000000E+00 -0.24285040165E+02  0.24285040688E+02  0.50400000000E-02 0. -1.
        -24    2    1    2    0    0 -0.88817841970E-15  0.00000000000E+00  0.38289528124E+02  0.86859609029E+02  0.77964759454E+02 0.  0.
         66    2    3    3    0    0  0.72236815751E+01  0.22589742773E+02  0.53588650469E+02  0.58636349780E+02  0.20000006151E+01 0.  0.
         13    1    3    3    0    0 -0.72236815751E+01 -0.22589742773E+02 -0.15299122344E+02  0.28223259249E+02  0.10566000000E+00 0. -1.
         13    1    4    4    0    0  0.49028938102E+00  0.29259914646E+01  0.65899427068E+01  0.72277464429E+01  0.10566000000E+00 0. -1.
        -13    1    4    4    0    0  0.66340976543E+01  0.18350485376E+02  0.44183360044E+02  0.48300435133E+02  0.10566000000E+00 0.  1.
        -14    1    4    4    0    0  0.99294539835E-01  0.13132659325E+01  0.28153477173E+01  0.31081682041E+01  0.00000000000E+00 0.  1.
<mgrwt>
<rscale>  0 0.77964759E+02</rscale>
<asrwt>0</asrwt>
<pdfrwt beam="1">  1        1 0.37361601E-02 0.77964759E+02</pdfrwt>
<pdfrwt beam="2">  1       -2 0.96268566E-02 0.77964759E+02</pdfrwt>
<totfact> 0.12537513E+05</totfact>
</mgrwt>
</event>
<event>
 8    1  0.7756875E-018  0.8936292E+02  0.7818608E-02  0.1304402E+00
          1   -1    0    0  501    0  0.00000000000E+00  0.00000000000E+00  0.10387197738E+02  0.10387198961E+02  0.50400000000E-02 0. -1.
         -2   -1    0    0    0  501 -0.00000000000E+00 -0.00000000000E+00 -0.19220127753E+03  0.19220127755E+03  0.25500000000E-02 0.  1.
        -24    2    1    2    0    0  0.00000000000E+00  0.00000000000E+00 -0.18181407979E+03  0.20258847651E+03  0.89362918502E+02 0.  0.
         66    2    3    3    0    0  0.21151615888E+02  0.37094172793E+02 -0.61302044268E+02  0.74734925990E+02  0.20000053515E+01 0.  0.
         13    1    3    3    0    0 -0.21151615888E+02 -0.37094172793E+02 -0.12051203552E+03  0.12785355052E+03  0.10566000000E+00 0. -1.
         13    1    4    4    0    0  0.31869105956E+01  0.46337586714E+01 -0.83527495902E+01  0.10070139439E+02  0.10566000000E+00 0. -1.
        -13    1    4    4    0    0  0.15618407108E+02  0.28929808229E+02 -0.47209978886E+02  0.57529659440E+02  0.10566000000E+00 0.  1.
        -14    1    4    4    0    0  0.23462981845E+01  0.35306058933E+01 -0.57393157915E+01  0.71351271116E+01  0.00000000000E+00 0.  1.
<mgrwt>
<rscale>  0 0.89362919E+02</rscale>
<asrwt>0</asrwt>
<pdfrwt beam="1">  1        1 0.15980307E-02 0.89362919E+02</pdfrwt>
<pdfrwt beam="2">  1       -2 0.29569425E-01 0.89362919E+02</pdfrwt>
<totfact> 0.64915703E+04</totfact>
</mgrwt>
</event>
<event>
 8    1  0.7756875E-018  0.7899007E+02  0.7818608E-02  0.1331942E+00
         -2   -1    0    0    0  501 -0.00000000000E+00  0.00000000000E+00  0.36986493628E+01  0.36986502419E+01  0.25500000000E-02 0.  1.
          1   -1    0    0  501    0  0.00000000000E+00 -0.00000000000E+00 -0.42173707942E+03  0.42173707945E+03  0.50400000000E-02 0. -1.
        -24    2    1    2    0    0  0.00000000000E+00  0.00000000000E+00 -0.41803843006E+03  0.42543572970E+03  0.78990069591E+02 0.  0.
         66    2    3    3    0    0  0.19077397629E+02 -0.34277053904E+02 -0.23262299634E+03  0.23591592136E+03  0.20000004216E+01 0.  0.
         13    1    3    3    0    0 -0.19077397629E+02  0.34277053904E+02 -0.18541543373E+03  0.18951980834E+03  0.10566000000E+00 0. -1.
         13    1    4    4    0    0  0.11657053935E+00 -0.30815008263E+00 -0.27200802772E+01  0.27419967020E+01  0.10566000000E+00 0. -1.
        -13    1    4    4    0    0  0.11510664746E+02 -0.20833089780E+02 -0.13735239695E+03  0.13939944456E+03  0.10566000000E+00 0.  1.
        -14    1    4    4    0    0  0.74501623431E+01 -0.13135814041E+02 -0.92550519110E+02  0.93774480094E+02  0.00000000000E+00 0.  1.
<mgrwt>
<rscale>  0 0.78990070E+02</rscale>
<asrwt>0</asrwt>
<pdfrwt beam="1">  1        1 0.64882590E-01 0.78990070E+02</pdfrwt>
<pdfrwt beam="2">  1       -2 0.56902338E-03 0.78990070E+02</pdfrwt>
<totfact> 0.19803346E+05</totfact>
</mgrwt>
</event>
<event>
 8    1  0.7756875E-018  0.8030016E+02  0.7818608E-02  0.1328202E+00
         -2   -1    0    0    0  501 -0.00000000000E+00  0.00000000000E+00  0.58379216724E+01  0.58379222294E+01  0.25500000000E-02 0.  1.
          1   -1    0    0  501    0  0.00000000000E+00 -0.00000000000E+00 -0.27613063187E+03  0.27613063192E+03  0.50400000000E-02 0. -1.
        -24    2    1    2    0    0  0.00000000000E+00  0.00000000000E+00 -0.27029271020E+03  0.28196855415E+03  0.80300164015E+02 0.  0.
         66    2    3    3    0    0 -0.24607534386E+02 -0.24996420363E+02 -0.20365084865E+03  0.20665918784E+03  0.19999953181E+01 0.  0.
         13    1    3    3    0    0  0.24607534386E+02  0.24996420363E+02 -0.66641861547E+02  0.75309366310E+02  0.10566000000E+00 0. -1.
         13    1    4    4    0    0 -0.48473039557E+01 -0.39916476778E+01 -0.38359845146E+02  0.38870534991E+02  0.10566000000E+00 0. -1.
        -13    1    4    4    0    0 -0.73429869576E+01 -0.79300233937E+01 -0.63171521318E+02  0.64089445294E+02  0.10566000000E+00 0.  1.
         14    1    4    4    0    0 -0.12417243472E+02 -0.13074749291E+02 -0.10211948219E+03  0.10369920755E+03  0.00000000000E+00 0. -1.
<mgrwt>
<rscale>  0 0.80300164E+02</rscale>
<asrwt>0</asrwt>
<pdfrwt beam="1">  1        1 0.42481626E-01 0.80300164E+02</pdfrwt>
<pdfrwt beam="2">  1       -2 0.89814206E-03 0.80300164E+02</pdfrwt>
<totfact> 0.17581441E+05</totfact>
</mgrwt>
</event>
<event>
 8    1  0.7756875E-018  0.7974662E+02  0.7818608E-02  0.1329772E+00
         -2   -1    0    0    0  501 -0.00000000000E+00  0.00000000000E+00  0.18559614883E+03  0.18559614884E+03  0.25500000000E-02 0.  1.
          1   -1    0    0  501    0  0.00000000000E+00 -0.00000000000E+00 -0.85663449914E+01  0.85663464741E+01  0.50400000000E-02 0. -1.
        -24    2    1    2    0    0 -0.11102230246E-15  0.00000000000E+00  0.17702980383E+03  0.19416249532E+03  0.79746618375E+02 0.  0.
         66    2    3    3    0    0 -0.54920489590E+00 -0.15136314978E+02  0.17830864708E+03  0.17896196042E+03  0.19999991164E+01 0.  0.
         13    1    3    3    0    0  0.54920489590E+00  0.15136314978E+02 -0.12788432450E+01  0.15200534899E+02  0.10566000000E+00 0. -1.
         13    1    4    4    0    0 -0.87472907267E-01 -0.47265918831E+01  0.56824009236E+02  0.57020413117E+02  0.10566000000E+00 0. -1.
        -13    1    4    4    0    0  0.46721808743E+00 -0.62907341954E+01  0.69569282777E+02  0.69854762898E+02  0.10566000000E+00 0.  1.
         14    1    4    4    0    0 -0.92895007606E+00 -0.41189888994E+01  0.51915355067E+02  0.52086784403E+02  0.00000000000E+00 0. -1.
<mgrwt>
<rscale>  0 0.79746618E+02</rscale>
<asrwt>0</asrwt>
<pdfrwt beam="1">  1        1 0.13178993E-02 0.79746618E+02</pdfrwt>
<pdfrwt beam="2">  1       -2 0.28553254E-01 0.79746618E+02</pdfrwt>
<totfact> 0.88343799E+04</totfact>
</mgrwt>
</event>
<event>
 8    1  0.7756875E-018  0.7932600E+02  0.7818608E-02  0.1330975E+00
          1   -1    0    0  501    0  0.00000000000E+00  0.00000000000E+00  0.11040115123E+01  0.11040230164E+01  0.50400000000E-02 0. -1.
         -2   -1    0    0    0  501 -0.00000000000E+00 -0.00000000000E+00 -0.14249357486E+04  0.14249357486E+04  0.25500000000E-02 0.  1.
        -24    2    1    2    0    0  0.00000000000E+00  0.00000000000E+00 -0.14238317371E+04  0.14260397716E+04  0.79326002673E+02 0.  0.
         66    2    3    3    0    0 -0.16910689403E+02  0.58746819568E+01 -0.13481175412E+04  0.13482378826E+04  0.20000040324E+01 0.  0.
         13    1    3    3    0    0  0.16910689403E+02 -0.58746819568E+01 -0.75714195877E+02  0.77801888959E+02  0.10566000000E+00 0. -1.
         13    1    4    4    0    0 -0.34247515411E+01  0.87087652793E+00 -0.30170158505E+03  0.30172229771E+03  0.10566000000E+00 0. -1.
        -13    1    4    4    0    0 -0.10464419466E+02  0.43779254749E+01 -0.83868345581E+03  0.83876016866E+03  0.10566000000E+00 0.  1.
         14    1    4    4    0    0 -0.30215183951E+01  0.62587995401E+00 -0.20773250034E+03  0.20775541628E+03  0.00000000000E+00 0. -1.
<mgrwt>
<rscale>  0 0.79326003E+02</rscale>
<asrwt>0</asrwt>
<pdfrwt beam="1">  1        1 0.16984995E-03 0.79326003E+02</pdfrwt>
<pdfrwt beam="2">  1       -2 0.21921941E+00 0.79326003E+02</pdfrwt>
<totfact> 0.16516434E+04</totfact>
</mgrwt>
</event>
<event>
 8    1  0.7756875E-018  0.7967069E+02  0.7818608E-02  0.1329989E+00
         -2   -1    0    0    0  501 -0.00000000000E+00  0.00000000000E+00  0.28823937644E+03  0.28823937645E+03  0.25500000000E-02 0.  1.
          1   -1    0    0  501    0  0.00000000000E+00 -0.00000000000E+00 -0.55053351055E+01  0.55053374125E+01  0.50400000000E-02 0. -1.
        -24    2    1    2    0    0  0.00000000000E+00  0.71054273576E-14  0.28273404133E+03  0.29374471386E+03  0.79670689677E+02 0.  0.
         66    2    3    3    0    0  0.20425553501E+01 -0.39032129502E+02  0.16933361161E+03  0.17379744298E+03  0.20000002531E+01 0.  0.
         13    1    3    3    0    0 -0.20425553501E+01  0.39032129502E+02  0.11340042973E+03  0.11994727088E+03  0.10566000000E+00 0. -1.
         13    1    4    4    0    0  0.15610734593E+01 -0.27166134610E+02  0.11971919522E+03  0.12277268706E+03  0.10566000000E+00 0. -1.
        -13    1    4    4    0    0  0.48104948483E+00 -0.11462027348E+02  0.48527208429E+02  0.49864923558E+02  0.10566000000E+00 0.  1.
         14    1    4    4    0    0  0.43240604628E-03 -0.40396754383E+00  0.10872079619E+01  0.11598323654E+01  0.00000000000E+00 0. -1.
<mgrwt>
<rscale>  0 0.79670690E+02</rscale>
<asrwt>0</asrwt>
<pdfrwt beam="1">  1        1 0.84697488E-03 0.79670690E+02</pdfrwt>
<pdfrwt beam="2">  1       -2 0.44344516E-01 0.79670690E+02</pdfrwt>
<totfact> 0.72561846E+04</totfact>
</mgrwt>
</event>
<event>
 8    1  0.7756875E-018  0.7964536E+02  0.7818608E-02  0.1330061E+00
         -2   -1    0    0    0  501 -0.00000000000E+00  0.00000000000E+00  0.96104097857E+02  0.96104097891E+02  0.25500000000E-02 0.  1.
          1   -1    0    0  501    0  0.00000000000E+00 -0.00000000000E+00 -0.16501332596E+02  0.16501333366E+02  0.50400000000E-02 0. -1.
        -24    2    1    2    0    0  0.88817841970E-15  0.00000000000E+00  0.79602765261E+02  0.11260543126E+03  0.79645357123E+02 0.  0.
         66    2    3    3    0    0  0.60643300466E+01  0.38881907024E+02  0.48222019392E+02  0.62273123858E+02  0.20000020135E+01 0.  0.
         13    1    3    3    0    0 -0.60643300466E+01 -0.38881907024E+02  0.31380745869E+02  0.50332307398E+02  0.10566000000E+00 0. -1.
         13    1    4    4    0    0  0.17267382190E+01  0.81055937640E+01  0.95926907412E+01  0.12677269218E+02  0.10566000000E+00 0. -1.
        -13    1    4    4    0    0  0.34794384787E+01  0.22359551308E+02  0.27405798376E+02  0.35540750913E+02  0.10566000000E+00 0.  1.
         14    1    4    4    0    0  0.85815334890E+00  0.84167619525E+01  0.11223530275E+02  0.14055103727E+02  0.00000000000E+00 0. -1.
<mgrwt>
<rscale>  0 0.79645357E+02</rscale>
<asrwt>0</asrwt>
<pdfrwt beam="1">  1        1 0.25386667E-02 0.79645357E+02</pdfrwt>
<pdfrwt beam="2">  1       -2 0.14785246E-01 0.79645357E+02</pdfrwt>
<totfact> 0.10839157E+05</totfact>
</mgrwt>
</event>
<event>
 8    1  0.7756875E-018  0.8021885E+02  0.7818608E-02  0.1328432E+00
         -2   -1    0    0    0  501 -0.00000000000E+00  0.00000000000E+00  0.13249557179E+03  0.13249557181E+03  0.25500000000E-02 0.  1.
          1   -1    0    0  501    0  0.00000000000E+00 -0.00000000000E+00 -0.12142033875E+02  0.12142034921E+02  0.50400000000E-02 0. -1.
        -24    2    1    2    0    0  0.35527136788E-14  0.00000000000E+00  0.12035353791E+03  0.14463760673E+03  0.80218845626E+02 0.  0.
         66    2    3    3    0    0 -0.17786788180E+02 -0.22228165805E+02  0.11109359890E+03  0.11470069267E+03  0.19999988322E+01 0.  0.
         13    1    3    3    0    0  0.17786788180E+02  0.22228165805E+02  0.92599390160E+01  0.29936914060E+02  0.10566000000E+00 0. -1.
         13    1    4    4    0    0 -0.54444580979E+01 -0.59700714879E+01  0.30730366289E+02  0.31774997306E+02  0.10566000000E+00 0. -1.
        -13    1    4    4    0    0 -0.66567781922E+01 -0.87925767273E+01  0.46072073366E+02  0.47373718555E+02  0.10566000000E+00 0.  1.
        -14    1    4    4    0    0 -0.56855518898E+01 -0.74655175897E+01  0.34291159242E+02  0.35551976813E+02  0.00000000000E+00 0.  1.
<mgrwt>
<rscale>  0 0.80218846E+02</rscale>
<asrwt>0</asrwt>
<pdfrwt beam="1">  1        1 0.18680054E-02 0.80218846E+02</pdfrwt>
<pdfrwt beam="2">  1       -2 0.20383933E-01 0.80218846E+02</pdfrwt>
<totfact> 0.97585367E+04</totfact>
</mgrwt>
</event>
<event>
 8    1  0.7756875E-018  0.7922233E+02  0.7818608E-02  0.1331273E+00
          1   -1    0    0  501    0  0.00000000000E+00  0.00000000000E+00  0.54312080472E+02  0.54312080706E+02  0.50400000000E-02 0. -1.
         -2   -1    0    0    0  501 -0.00000000000E+00 -0.00000000000E+00 -0.28889415830E+02  0.28889415943E+02  0.25500000000E-02 0.  1.
        -24    2    1    2    0    0  0.88817841970E-15 -0.71054273576E-14  0.25422664642E+02  0.83201496649E+02  0.79222327453E+02 0.  0.
         66    2    3    3    0    0  0.61413578223E+01  0.32220193673E+02 -0.10556401257E+02  0.34515138157E+02  0.19999995630E+01 0.  0.
         13    1    3    3    0    0 -0.61413578223E+01 -0.32220193673E+02  0.35979065899E+02  0.48686358492E+02  0.10566000000E+00 0. -1.
         13    1    4    4    0    0  0.54833214041E-01  0.27546906073E+01 -0.73676754254E+00  0.28540002577E+01  0.10566000000E+00 0. -1.
        -13    1    4    4    0    0  0.49377961046E+01  0.22341526439E+02 -0.76540579002E+01  0.24127192136E+02  0.10566000000E+00 0.  1.
         14    1    4    4    0    0  0.11487285036E+01  0.71239766263E+01 -0.21655758143E+01  0.75339457627E+01  0.00000000000E+00 0. -1.
<mgrwt>
<rscale>  0 0.79222327E+02</rscale>
<asrwt>0</asrwt>
<pdfrwt beam="1">  1        1 0.83557046E-02 0.79222327E+02</pdfrwt>
<pdfrwt beam="2">  1       -2 0.44445256E-02 0.79222327E+02</pdfrwt>
<totfact> 0.13694282E+05</totfact>
</mgrwt>
</event>
<event>
 8    1  0.7756875E-018  0.7881754E+02  0.7818608E-02  0.1332441E+00
         -2   -1    0    0    0  501 -0.00000000000E+00  0.00000000000E+00  0.16298055870E+02  0.16298056069E+02  0.25500000000E-02 0.  1.
          1   -1    0    0  501    0  0.00000000000E+00 -0.00000000000E+00 -0.95290587944E+02  0.95290588077E+02  0.50400000000E-02 0. -1.
        -24    2    1    2    0    0  0.00000000000E+00 -0.35527136788E-14 -0.78992532074E+02  0.11158864415E+03  0.78817544867E+02 0.  0.
         66    2    3    3    0    0 -0.29141576332E+02 -0.24575810343E+02 -0.25517202260E+02  0.45916549707E+02  0.20000001889E+01 0.  0.
         13    1    3    3    0    0  0.29141576332E+02  0.24575810343E+02 -0.53475329815E+02  0.65672094439E+02  0.10566000000E+00 0. -1.
         13    1    4    4    0    0 -0.88497457460E+01 -0.81827766548E+01 -0.82852969152E+01  0.14626453520E+02  0.10566000000E+00 0.  1.
        -13    1    4    4    0    0 -0.57175076682E+01 -0.51471497244E+01 -0.55692501594E+01  0.94979342804E+01  0.10566000000E+00 0. -1.
        -14    1    4    4    0    0 -0.14574322918E+02 -0.11245883963E+02 -0.11662655185E+02  0.21792161907E+02  0.00000000000E+00 0.  1.
<mgrwt>
<rscale>  0 0.78817545E+02</rscale>
<asrwt>0</asrwt>
<pdfrwt beam="1">  1        1 0.14660090E-01 0.78817545E+02</pdfrwt>
<pdfrwt beam="2">  1       -2 0.25073933E-02 0.78817545E+02</pdfrwt>
<totfact> 0.15180062E+05</totfact>
</mgrwt>
</event>
<event>
 8    1  0.7756875E-018  0.7996857E+02  0.7818608E-02  0.1329141E+00
         -2   -1    0    0    0  501 -0.00000000000E+00  0.00000000000E+00  0.18437684124E+02  0.18437684300E+02  0.25500000000E-02 0.  1.
          1   -1    0    0  501    0  0.00000000000E+00 -0.00000000000E+00 -0.86710629072E+02  0.86710629219E+02  0.50400000000E-02 0. -1.
        -24    2    1    2    0    0  0.00000000000E+00 -0.35527136788E-14 -0.68272944949E+02  0.10514831352E+03  0.79968573977E+02 0.  0.
         66    2    3    3    0    0  0.21895203370E+02  0.28007633172E+02 -0.10166842373E+02  0.37029610015E+02  0.19999718735E+01 0.  0.
         13    1    3    3    0    0 -0.21895203370E+02 -0.28007633172E+02 -0.58106102575E+02  0.68118703504E+02  0.10566000000E+00 0. -1.
         13    1    4    4    0    0  0.16912746063E+02  0.22436098054E+02 -0.83333173477E+01  0.29306566113E+02  0.10566000000E+00 0. -1.
        -13    1    4    4    0    0  0.48432469268E+01  0.55230344165E+01 -0.18464618435E+01  0.75750600878E+01  0.10566000000E+00 0.  1.
         14    1    4    4    0    0  0.13921037993E+00  0.48500701818E-01  0.12936818002E-01  0.14798381404E+00  0.00000000000E+00 0. -1.
<mgrwt>
<rscale>  0 0.79968574E+02</rscale>
<asrwt>0</asrwt>
<pdfrwt beam="1">  1        1 0.13340097E-01 0.79968574E+02</pdfrwt>
<pdfrwt beam="2">  1       -2 0.28365669E-02 0.79968574E+02</pdfrwt>
<totfact> 0.14371124E+05</totfact>
</mgrwt>
</event>
<event>
 8    1  0.7756875E-018  0.7158746E+02  0.7818608E-02  0.1354777E+00
          1   -1    0    0  501    0  0.00000000000E+00  0.00000000000E+00  0.92671963045E+01  0.92671976750E+01  0.50400000000E-02 0. -1.
         -2   -1    0    0    0  501 -0.00000000000E+00 -0.00000000000E+00 -0.13825011223E+03  0.13825011225E+03  0.25500000000E-02 0.  1.
        -24    2    1    2    0    0 -0.35527136788E-14  0.35527136788E-14 -0.12898291592E+03  0.14751730993E+03  0.71587457894E+02 0.  0.
         66    2    3    3    0    0 -0.27717853723E+02  0.21688836494E+02 -0.77655796516E+02  0.85282517453E+02  0.20000017964E+01 0.  0.
         13    1    3    3    0    0  0.27717853723E+02 -0.21688836494E+02 -0.51327119407E+02  0.62234792472E+02  0.10566000000E+00 0. -1.
         13    1    4    4    0    0 -0.13300097852E+02  0.11255919662E+02 -0.39012528366E+02  0.42726769874E+02  0.10566000000E+00 0. -1.
        -13    1    4    4    0    0 -0.12783811262E+02  0.96154632412E+01 -0.34631903104E+02  0.38147907418E+02  0.10566000000E+00 0.  1.
         14    1    4    4    0    0 -0.16339446084E+01  0.81745359040E+00 -0.40113650459E+01  0.44078401612E+01  0.00000000000E+00 0. -1.
<mgrwt>
<rscale>  0 0.71587458E+02</rscale>
<asrwt>0</asrwt>
<pdfrwt beam="1">  1        1 0.14257227E-02 0.71587458E+02</pdfrwt>
<pdfrwt beam="2">  1       -2 0.21269247E-01 0.71587458E+02</pdfrwt>
<totfact> 0.12893347E+05</totfact>
</mgrwt>
</event>
<event>
 8    1  0.7756875E-018  0.7731278E+02  0.7818608E-02  0.1336855E+00
          1   -1    0    0  501    0  0.00000000000E+00  0.00000000000E+00  0.51024818713E+02  0.51024818962E+02  0.50400000000E-02 0. -1.
         -2   -1    0    0    0  501 -0.00000000000E+00 -0.00000000000E+00 -0.29286071111E+02  0.29286071222E+02  0.25500000000E-02 0.  1.
        -24    2    1    2    0    0  0.00000000000E+00 -0.35527136788E-14  0.21738747602E+02  0.80310890184E+02  0.77312779894E+02 0.  0.
         66    2    3    3    0    0  0.23418708868E+02 -0.30009619044E+02  0.17711951312E+02  0.42032444388E+02  0.20000004363E+01 0.  0.
         13    1    3    3    0    0 -0.23418708868E+02  0.30009619044E+02  0.40267962900E+01  0.38278445797E+02  0.10566000000E+00 0. -1.
         13    1    4    4    0    0  0.89696692573E+01 -0.12533488579E+02  0.67016977480E+01  0.16806761118E+02  0.10566000000E+00 0. -1.
        -13    1    4    4    0    0  0.19419538111E+01 -0.26813628285E+01  0.18840781092E+01  0.38107486902E+01  0.10566000000E+00 0. -1.
        -14    1    4    4    0    0  0.12507085800E+02 -0.14794767636E+02  0.91261754545E+01  0.21414934579E+02  0.00000000000E+00 0.  1.
<mgrwt>
<rscale>  0 0.77312780E+02</rscale>
<asrwt>0</asrwt>
<pdfrwt beam="1">  1        1 0.78499721E-02 0.77312780E+02</pdfrwt>
<pdfrwt beam="2">  1       -2 0.45055495E-02 0.77312780E+02</pdfrwt>
<totfact> 0.14509714E+05</totfact>
</mgrwt>
</event>
<event>
 8    1  0.7756875E-018  0.7102699E+02  0.7818608E-02  0.1356635E+00
          1   -1    0    0  501    0  0.00000000000E+00  0.00000000000E+00  0.82654530822E+01  0.82654546188E+01  0.50400000000E-02 0. -1.
         -2   -1    0    0    0  501 -0.00000000000E+00 -0.00000000000E+00 -0.15258791877E+03  0.15258791879E+03  0.25500000000E-02 0.  1.
        -24    2    1    2    0    0  0.35527136788E-14  0.00000000000E+00 -0.14432246569E+03  0.16085337341E+03  0.71026992301E+02 0.  0.
         66    2    3    3    0    0 -0.16358469385E+02  0.30789633250E+02 -0.87172477182E+02  0.93907623833E+02  0.19999998945E+01 0.  0.
         13    1    3    3    0    0  0.16358469385E+02 -0.30789633250E+02 -0.57149988509E+02  0.66945749580E+02  0.10566000000E+00 0. -1.
         13    1    4    4    0    0 -0.94897041508E+00  0.25405875768E+01 -0.69008683315E+01  0.74154081377E+01  0.10566000000E+00 0. -1.
        -13    1    4    4    0    0 -0.35637876165E+01  0.72309195675E+01 -0.21442201063E+02  0.22907770089E+02  0.10566000000E+00 0.  1.
        -14    1    4    4    0    0 -0.11845711353E+02  0.21018126106E+02 -0.58829407787E+02  0.63584445606E+02  0.00000000000E+00 0.  1.
<mgrwt>
<rscale>  0 0.71026992E+02</rscale>
<asrwt>0</asrwt>
<pdfrwt beam="1">  1        1 0.12716084E-02 0.71026992E+02</pdfrwt>
<pdfrwt beam="2">  1       -2 0.23475062E-01 0.71026992E+02</pdfrwt>
<totfact> 0.12747297E+05</totfact>
</mgrwt>
</event>
<event>
 8    1  0.7756875E-018  0.7650565E+02  0.7818608E-02  0.1339271E+00
          1   -1    0    0  501    0  0.00000000000E+00  0.00000000000E+00  0.14104663371E+03  0.14104663380E+03  0.50400000000E-02 0. -1.
         -2   -1    0    0    0  501 -0.00000000000E+00 -0.00000000000E+00 -0.10374430053E+02  0.10374430367E+02  0.25500000000E-02 0.  1.
        -24    2    1    2    0    0 -0.35527136788E-14 -0.17763568394E-14  0.13067220366E+03  0.15142106417E+03  0.76505645969E+02 0.  0.
         66    2    3    3    0    0 -0.23071513990E+02 -0.13888600619E+02  0.11682769762E+02  0.29422357094E+02  0.20000006728E+01 0.  0.
         13    1    3    3    0    0  0.23071513990E+02  0.13888600619E+02  0.11898943390E+03  0.12199870708E+03  0.10566000000E+00 0. -1.
         13    1    4    4    0    0 -0.39457977702E+01 -0.28277098942E+01  0.17825605001E+01  0.51724219917E+01  0.10566000000E+00 0. -1.
        -13    1    4    4    0    0 -0.18229308240E+02 -0.10839206748E+02  0.93830835659E+01  0.23191582591E+02  0.10566000000E+00 0.  1.
         14    1    4    4    0    0 -0.89640798049E+00 -0.22168397700E+00  0.51712569626E+00  0.10583525116E+01  0.00000000000E+00 0. -1.
<mgrwt>
<rscale>  0 0.76505646E+02</rscale>
<asrwt>0</asrwt>
<pdfrwt beam="1">  1        1 0.21699481E-01 0.76505646E+02</pdfrwt>
<pdfrwt beam="2">  1       -2 0.15960662E-02 0.76505646E+02</pdfrwt>
<totfact> 0.17587638E+05</totfact>
</mgrwt>
</event>
<event>
 8    1  0.7756875E-018  0.7858787E+02  0.7818608E-02  0.1333107E+00
          1   -1    0    0  501    0  0.00000000000E+00  0.00000000000E+00  0.63503062587E+02  0.63503062787E+02  0.50400000000E-02 0. -1.
         -2   -1    0    0    0  501 -0.00000000000E+00 -0.00000000000E+00 -0.24313999720E+02  0.24313999853E+02  0.25500000000E-02 0.  1.
        -24    2    1    2    0    0  0.00000000000E+00  0.00000000000E+00  0.39189062867E+02  0.87817062640E+02  0.78587873380E+02 0.  0.
         66    2    3    3    0    0  0.17759130575E+02  0.11075269217E+02 -0.17520687478E+02  0.27368280558E+02  0.19999959905E+01 0.  0.
         13    1    3    3    0    0 -0.17759130575E+02 -0.11075269217E+02  0.56709750345E+02  0.60448782083E+02  0.10566000000E+00 0. -1.
         13    1    4    4    0    0  0.55727944743E+00  0.33247182663E+00 -0.39173602445E+00  0.76532283807E+00  0.10566000000E+00 0.  1.
        -13    1    4    4    0    0  0.10879127103E+02  0.71605171948E+01 -0.11983857044E+02  0.17698938010E+02  0.10566000000E+00 0.  1.
        -14    1    4    4    0    0  0.63227240246E+01  0.35822801958E+01 -0.51450944101E+01  0.89040197092E+01  0.00000000000E+00 0.  1.
<mgrwt>
<rscale>  0 0.78587873E+02</rscale>
<asrwt>0</asrwt>
<pdfrwt beam="1">  1        1 0.97697019E-02 0.78587873E+02</pdfrwt>
<pdfrwt beam="2">  1       -2 0.37406154E-02 0.78587873E+02</pdfrwt>
<totfact> 0.14343901E+05</totfact>
</mgrwt>
</event>
<event>
 8    1  0.7756875E-018  0.8588686E+02  0.7818608E-02  0.1313129E+00
          1   -1    0    0  501    0  0.00000000000E+00  0.00000000000E+00  0.39271115284E+02  0.39271115608E+02  0.50400000000E-02 0. -1.
         -2   -1    0    0    0  501 -0.00000000000E+00 -0.00000000000E+00 -0.46959153795E+02  0.46959153864E+02  0.25500000000E-02 0.  1.
        -24    2    1    2    0    0  0.00000000000E+00  0.00000000000E+00 -0.76880385105E+01  0.86230269472E+02  0.85886864170E+02 0.  0.
         66    2    3    3    0    0 -0.55334644402E+01 -0.42406172619E+02 -0.74980322203E+01  0.43464044816E+02  0.19999999344E+01 0.  0.
         13    1    3    3    0    0  0.55334644402E+01  0.42406172619E+02 -0.19000629024E+00  0.42766224656E+02  0.10566000000E+00 0. -1.
         13    1    4    4    0    0 -0.18694693557E+01 -0.90425844866E+01 -0.17079174047E+01  0.93910274074E+01  0.10566000000E+00 0. -1.
        -13    1    4    4    0    0 -0.21496964245E+01 -0.17774182713E+02 -0.26601467177E+01  0.18100561053E+02  0.10566000000E+00 0.  1.
         14    1    4    4    0    0 -0.15142986600E+01 -0.15589405419E+02 -0.31299680979E+01  0.15972456356E+02  0.00000000000E+00 0. -1.
<mgrwt>
<rscale>  0 0.85886864E+02</rscale>
<asrwt>0</asrwt>
<pdfrwt beam="1">  1        1 0.60417101E-02 0.85886864E+02</pdfrwt>
<pdfrwt beam="2">  1       -2 0.72244852E-02 0.85886864E+02</pdfrwt>
<totfact> 0.10347195E+05</totfact>
</mgrwt>
</event>
<event>
 8    1  0.7756875E-018  0.7966245E+02  0.7818608E-02  0.1330012E+00
         -2   -1    0    0    0  501 -0.00000000000E+00  0.00000000000E+00  0.41603850640E+01  0.41603858454E+01  0.25500000000E-02 0.  1.
          1   -1    0    0  501    0  0.00000000000E+00 -0.00000000000E+00 -0.38134121157E+03  0.38134121160E+03  0.50400000000E-02 0. -1.
        -24    2    1    2    0    0  0.00000000000E+00  0.00000000000E+00 -0.37718082650E+03  0.38550159745E+03  0.79662448818E+02 0.  0.
         66    2    3    3    0    0  0.18950420644E+02  0.32416019202E+02 -0.25265306087E+03  0.25543587436E+03  0.20000002859E+01 0.  0.
         13    1    3    3    0    0 -0.18950420644E+02 -0.32416019202E+02 -0.12452776564E+03  0.13006572309E+03  0.10566000000E+00 0. -1.
         13    1    4    4    0    0  0.93315369319E+00  0.14920424348E+01 -0.12242180229E+02  0.12368472308E+02  0.10566000000E+00 0.  1.
        -13    1    4    4    0    0  0.11815736482E+02  0.19180917612E+02 -0.14642262719E+03  0.14814559104E+03  0.10566000000E+00 0.  1.
         14    1    4    4    0    0  0.62015304688E+01  0.11743059155E+02 -0.93988253451E+02  0.94921811009E+02  0.00000000000E+00 0. -1.
<mgrwt>
<rscale>  0 0.79662449E+02</rscale>
<asrwt>0</asrwt>
<pdfrwt beam="1">  1        1 0.58667851E-01 0.79662449E+02</pdfrwt>
<pdfrwt beam="2">  1       -2 0.64005960E-03 0.79662449E+02</pdfrwt>
<totfact> 0.19053115E+05</totfact>
</mgrwt>
</event>
<event>
 8    1  0.7756875E-018  0.7439890E+02  0.7818608E-02  0.1345743E+00
         -2   -1    0    0    0  501 -0.00000000000E+00  0.00000000000E+00  0.21985043631E+03  0.21985043632E+03  0.25500000000E-02 0.  1.
          1   -1    0    0  501    0  0.00000000000E+00 -0.00000000000E+00 -0.62942740715E+01  0.62942760893E+01  0.50400000000E-02 0. -1.
        -24    2    1    2    0    0  0.00000000000E+00  0.00000000000E+00  0.21355616224E+03  0.22614471241E+03  0.74398901354E+02 0.  0.
         66    2    3    3    0    0 -0.95029169876E+01 -0.33205967913E+02  0.14862664905E+03  0.15260020492E+03  0.19999989512E+01 0.  0.
         13    1    3    3    0    0  0.95029169876E+01  0.33205967913E+02  0.64929513184E+02  0.73544507495E+02  0.10566000000E+00 0. -1.
         13    1    4    4    0    0 -0.37816412688E+01 -0.15121639733E+02  0.67342901086E+02  0.69123384535E+02  0.10566000000E+00 0. -1.
        -13    1    4    4    0    0 -0.42636803777E+01 -0.13814983466E+02  0.59586210958E+02  0.61315254537E+02  0.10566000000E+00 0.  1.
        -14    1    4    4    0    0 -0.14575953412E+01 -0.42693447136E+01  0.21697537009E+02  0.22161565845E+02  0.00000000000E+00 0.  1.
<mgrwt>
<rscale>  0 0.74398901E+02</rscale>
<asrwt>0</asrwt>
<pdfrwt beam="1">  1        1 0.96835015E-03 0.74398901E+02</pdfrwt>
<pdfrwt beam="2">  1       -2 0.33823139E-01 0.74398901E+02</pdfrwt>
<totfact> 0.98557432E+04</totfact>
</mgrwt>
</event>
<event>
 8    1  0.7756875E-018  0.7941712E+02  0.7818608E-02  0.1330714E+00
          1   -1    0    0  501    0  0.00000000000E+00  0.00000000000E+00  0.91889504195E+01  0.91889518017E+01  0.50400000000E-02 0. -1.
         -2   -1    0    0    0  501 -0.00000000000E+00 -0.00000000000E+00 -0.17159409970E+03  0.17159409971E+03  0.25500000000E-02 0.  1.
        -24    2    1    2    0    0  0.88817841970E-15  0.00000000000E+00 -0.16240514928E+03  0.18078305152E+03  0.79417121606E+02 0.  0.
         66    2    3    3    0    0 -0.74404766243E+01 -0.88687617679E+01 -0.16765870992E+03  0.16806980287E+03  0.19999995754E+01 0.  0.
         13    1    3    3    0    0  0.74404766243E+01  0.88687617679E+01  0.52535606405E+01  0.12713248646E+02  0.10566000000E+00 0. -1.
         13    1    4    4    0    0 -0.16986136305E+01 -0.29334919284E+01 -0.40616765970E+02  0.40758109685E+02  0.10566000000E+00 0. -1.
        -13    1    4    4    0    0 -0.33249068686E+01 -0.30045146347E+01 -0.70103597479E+02  0.70246762612E+02  0.10566000000E+00 0.  1.
        -14    1    4    4    0    0 -0.24169561252E+01 -0.29307552048E+01 -0.56938346467E+02  0.57064930574E+02  0.00000000000E+00 0.  1.
<mgrwt>
<rscale>  0 0.79417122E+02</rscale>
<asrwt>0</asrwt>
<pdfrwt beam="1">  1        1 0.14136849E-02 0.79417122E+02</pdfrwt>
<pdfrwt beam="2">  1       -2 0.26399090E-01 0.79417122E+02</pdfrwt>
<totfact> 0.91942142E+04</totfact>
</mgrwt>
</event>
<event>
 8    1  0.7756875E-018  0.7964459E+02  0.7818608E-02  0.1330063E+00
          1   -1    0    0  501    0  0.00000000000E+00  0.00000000000E+00  0.15929976827E+03  0.15929976835E+03  0.50400000000E-02 0. -1.
         -2   -1    0    0    0  501 -0.00000000000E+00 -0.00000000000E+00 -0.99549107346E+01  0.99549110612E+01  0.25500000000E-02 0.  1.
        -24    2    1    2    0    0  0.00000000000E+00  0.35527136788E-14  0.14934485754E+03  0.16925467942E+03  0.79644585694E+02 0.  0.
         66    2    3    3    0    0  0.12265618214E+02 -0.21242462002E+02  0.81204555995E+01  0.25915813613E+02  0.20000035078E+01 0.  0.
         13    1    3    3    0    0 -0.12265618214E+02  0.21242462002E+02  0.14122440194E+03  0.14333886580E+03  0.10566000000E+00 0. -1.
         13    1    4    4    0    0  0.18760747063E+01 -0.37027230814E+01  0.16602656582E+01  0.44718520338E+01  0.10566000000E+00 0. -1.
        -13    1    4    4    0    0  0.37848553377E+01 -0.77913554061E+01  0.30696789828E+01  0.91904538563E+01  0.10566000000E+00 0.  1.
        -14    1    4    4    0    0  0.66046881698E+01 -0.97483835141E+01  0.33905109585E+01  0.12253507723E+02  0.00000000000E+00 0.  1.
<mgrwt>
<rscale>  0 0.79644586E+02</rscale>
<asrwt>0</asrwt>
<pdfrwt beam="1">  1        1 0.24507658E-01 0.79644586E+02</pdfrwt>
<pdfrwt beam="2">  1       -2 0.15315247E-02 0.79644586E+02</pdfrwt>
<totfact> 0.16156482E+05</totfact>
</mgrwt>
</event>
<event>
 8    1  0.7756875E-018  0.7721860E+02  0.7818608E-02  0.1337135E+00
         -2   -1    0    0    0  501 -0.00000000000E+00  0.00000000000E+00  0.51090623006E+02  0.51090623069E+02  0.25500000000E-02 0.  1.
          1   -1    0    0  501    0  0.00000000000E+00 -0.00000000000E+00 -0.29177139009E+02  0.29177139444E+02  0.50400000000E-02 0. -1.
        -24    2    1    2    0    0  0.00000000000E+00 -0.44408920985E-15  0.21913483997E+02  0.80267762513E+02  0.77218604740E+02 0.  0.
         66    2    3    3    0    0 -0.25362364239E+02 -0.29416235412E+01  0.41033309886E+02  0.48369775510E+02  0.19999984578E+01 0.  0.
         13    1    3    3    0    0  0.25362364239E+02  0.29416235412E+01 -0.19119825889E+02  0.31897987004E+02  0.10566000000E+00 0. -1.
         13    1    4    4    0    0 -0.12206038804E+02 -0.10385654050E+01  0.18142702962E+02  0.21891432941E+02  0.10566000000E+00 0. -1.
        -13    1    4    4    0    0 -0.85498739439E+01 -0.10312552508E+01  0.14378602876E+02  0.16760644873E+02  0.10566000000E+00 0.  1.
        -14    1    4    4    0    0 -0.46064514907E+01 -0.87180288542E+00  0.85120040478E+01  0.97176976963E+01  0.00000000000E+00 0.  1.
<mgrwt>
<rscale>  0 0.77218605E+02</rscale>
<asrwt>0</asrwt>
<pdfrwt beam="1">  1        1 0.44887907E-02 0.77218605E+02</pdfrwt>
<pdfrwt beam="2">  1       -2 0.78600958E-02 0.77218605E+02</pdfrwt>
<totfact> 0.13321166E+05</totfact>
</mgrwt>
</event>
<event>
 8    1  0.7756875E-018  0.8000844E+02  0.7818608E-02  0.1329027E+00
          1   -1    0    0  501    0  0.00000000000E+00  0.00000000000E+00  0.23779955700E+02  0.23779956234E+02  0.50400000000E-02 0. -1.
         -2   -1    0    0    0  501 -0.00000000000E+00 -0.00000000000E+00 -0.67297747495E+02  0.67297747544E+02  0.25500000000E-02 0.  1.
        -24    2    1    2    0    0  0.00000000000E+00  0.00000000000E+00 -0.43517791796E+02  0.91077703777E+02  0.80008436571E+02 0.  0.
         66    2    3    3    0    0 -0.15113511097E+02  0.29472121009E+02 -0.47260044471E+02  0.57745440824E+02  0.19999995199E+01 0.  0.
         13    1    3    3    0    0  0.15113511097E+02 -0.29472121009E+02  0.37422526753E+01  0.33332262953E+02  0.10566000000E+00 0. -1.
         13    1    4    4    0    0 -0.11798925618E+01  0.15310063235E+01 -0.30285482415E+01  0.35943560351E+01  0.10566000000E+00 0. -1.
        -13    1    4    4    0    0 -0.57429597112E+01  0.12619495334E+02 -0.19836269638E+02  0.24201694278E+02  0.10566000000E+00 0.  1.
         14    1    4    4    0    0 -0.81906588241E+01  0.15321619352E+02 -0.24395226592E+02  0.29949390511E+02  0.00000000000E+00 0. -1.
<mgrwt>
<rscale>  0 0.80008437E+02</rscale>
<asrwt>0</asrwt>
<pdfrwt beam="1">  1        1 0.36584548E-02 0.80008437E+02</pdfrwt>
<pdfrwt beam="2">  1       -2 0.10353500E-01 0.80008437E+02</pdfrwt>
<totfact> 0.11578353E+05</totfact>
</mgrwt>
</event>
<event>
 8    1  0.7756875E-018  0.7880837E+02  0.7818608E-02  0.1332468E+00
          1   -1    0    0  501    0  0.00000000000E+00  0.00000000000E+00  0.56872846876E+02  0.56872847099E+02  0.50400000000E-02 0. -1.
         -2   -1    0    0    0  501 -0.00000000000E+00 -0.00000000000E+00 -0.27301073010E+02  0.27301073129E+02  0.25500000000E-02 0.  1.
        -24    2    1    2    0    0  0.00000000000E+00  0.00000000000E+00  0.29571773866E+02  0.84173920229E+02  0.78808369080E+02 0.  0.
         66    2    3    3    0    0  0.58107971506E+00  0.29106402709E+02 -0.13527253366E+02  0.32163751563E+02  0.19999996656E+01 0.  0.
         13    1    3    3    0    0 -0.58107971506E+00 -0.29106402709E+02  0.43099027232E+02  0.52010168666E+02  0.10566000000E+00 0. -1.
         13    1    4    4    0    0  0.24471418915E+00  0.64428041964E+00 -0.25996513029E+00  0.74412915416E+00  0.10566000000E+00 0. -1.
        -13    1    4    4    0    0  0.21975120581E+00  0.57945151487E+01 -0.23165791025E+01  0.62451900832E+01  0.10566000000E+00 0.  1.
        -14    1    4    4    0    0  0.11661432011E+00  0.22667607141E+02 -0.10950709134E+02  0.25174432325E+02  0.00000000000E+00 0.  1.
<mgrwt>
<rscale>  0 0.78808369E+02</rscale>
<asrwt>0</asrwt>
<pdfrwt beam="1">  1        1 0.87496687E-02 0.78808369E+02</pdfrwt>
<pdfrwt beam="2">  1       -2 0.42001651E-02 0.78808369E+02</pdfrwt>
<totfact> 0.13993340E+05</totfact>
</mgrwt>
</event>
<event>
 8    1  0.7756875E-018  0.7127497E+02  0.7818608E-02  0.1355810E+00
         -2   -1    0    0    0  501 -0.00000000000E+00  0.00000000000E+00  0.16675396824E+02  0.16675397019E+02  0.25500000000E-02 0.  1.
          1   -1    0    0  501    0  0.00000000000E+00 -0.00000000000E+00 -0.76161928591E+02  0.76161928758E+02  0.50400000000E-02 0. -1.
        -24    2    1    2    0    0 -0.35527136788E-14  0.00000000000E+00 -0.59486531768E+02  0.92837325777E+02  0.71274971734E+02 0.  0.
         66    2    3    3    0    0 -0.21862688700E+02 -0.28101563665E+02 -0.30537821547E+02  0.46949266055E+02  0.20000001738E+01 0.  0.
         13    1    3    3    0    0  0.21862688700E+02  0.28101563665E+02 -0.28948710221E+02  0.45888059722E+02  0.10566000000E+00 0. -1.
         13    1    4    4    0    0 -0.57650749531E+01 -0.80546202159E+01 -0.94264620700E+01  0.13674148867E+02  0.10566000000E+00 0. -1.
        -13    1    4    4    0    0 -0.15847622457E+02 -0.19644957104E+02 -0.20819292373E+02  0.32718887146E+02  0.10566000000E+00 0.  1.
         14    1    4    4    0    0 -0.24999128997E+00 -0.40198634449E+00 -0.29206710402E+00  0.55623004186E+00  0.00000000000E+00 0. -1.
<mgrwt>
<rscale>  0 0.71274972E+02</rscale>
<asrwt>0</asrwt>
<pdfrwt beam="1">  1        1 0.11717220E-01 0.71274972E+02</pdfrwt>
<pdfrwt beam="2">  1       -2 0.25654457E-02 0.71274972E+02</pdfrwt>
<totfact> 0.19209390E+05</totfact>
</mgrwt>
</event>
<event>
 8    1  0.7756875E-018  0.7208614E+02  0.7818608E-02  0.1353139E+00
          1   -1    0    0  501    0  0.00000000000E+00  0.00000000000E+00  0.23287408314E+03  0.23287408319E+03  0.50400000000E-02 0. -1.
         -2   -1    0    0    0  501 -0.00000000000E+00 -0.00000000000E+00 -0.55785629779E+01  0.55785635607E+01  0.25500000000E-02 0.  1.
        -24    2    1    2    0    0  0.00000000000E+00  0.44408920985E-15  0.22729552016E+03  0.23845264675E+03  0.72086137771E+02 0.  0.
         66    2    3    3    0    0 -0.35725442212E+02  0.39069373160E+01  0.12151141422E+03  0.12673040361E+03  0.20000079206E+01 0.  0.
         13    1    3    3    0    0  0.35725442212E+02 -0.39069373160E+01  0.10578410593E+03  0.11172224314E+03  0.10566000000E+00 0. -1.
         13    1    4    4    0    0 -0.15253210477E+02  0.21344182791E+01  0.49737044065E+02  0.52067272712E+02  0.10566000000E+00 0. -1.
        -13    1    4    4    0    0 -0.16623279051E+02  0.12263717405E+01  0.57210301653E+02  0.59589153151E+02  0.10566000000E+00 0.  1.
         14    1    4    4    0    0 -0.38489526842E+01  0.54614729633E+00  0.14564068507E+02  0.15073977746E+02  0.00000000000E+00 0. -1.
<mgrwt>
<rscale>  0 0.72086138E+02</rscale>
<asrwt>0</asrwt>
<pdfrwt beam="1">  1        1 0.35826779E-01 0.72086138E+02</pdfrwt>
<pdfrwt beam="2">  1       -2 0.85824059E-03 0.72086138E+02</pdfrwt>
<totfact> 0.22590685E+05</totfact>
</mgrwt>
</event>
<event>
 8    1  0.7756875E-018  0.7656081E+02  0.7818608E-02  0.1339105E+00
         -2   -1    0    0    0  501 -0.00000000000E+00  0.00000000000E+00  0.11556906284E+03  0.11556906287E+03  0.25500000000E-02 0.  1.
          1   -1    0    0  501    0  0.00000000000E+00 -0.00000000000E+00 -0.12679770931E+02  0.12679771932E+02  0.50400000000E-02 0. -1.
        -24    2    1    2    0    0  0.88817841970E-15  0.00000000000E+00  0.10288929191E+03  0.12824883480E+03  0.76560807455E+02 0.  0.
         66    2    3    3    0    0 -0.65878760212E+01  0.28680010194E+02  0.92424057876E+02  0.97016233525E+02  0.19999994881E+01 0.  0.
         13    1    3    3    0    0  0.65878760212E+01 -0.28680010194E+02  0.10465234037E+02  0.31232601279E+02  0.10566000000E+00 0. -1.
         13    1    4    4    0    0 -0.28474416309E+01  0.16127165661E+02  0.52703565758E+02  0.55189404814E+02  0.10566000000E+00 0. -1.
        -13    1    4    4    0    0 -0.23826969559E+01  0.85894307828E+01  0.26676323732E+02  0.28126375128E+02  0.10566000000E+00 0.  1.
         14    1    4    4    0    0 -0.13577374344E+01  0.39634137494E+01  0.13044168386E+02  0.13700453582E+02  0.00000000000E+00 0. -1.
<mgrwt>
<rscale>  0 0.76560807E+02</rscale>
<asrwt>0</asrwt>
<pdfrwt beam="1">  1        1 0.19507341E-02 0.76560807E+02</pdfrwt>
<pdfrwt beam="2">  1       -2 0.17779855E-01 0.76560807E+02</pdfrwt>
<totfact> 0.11438592E+05</totfact>
</mgrwt>
</event>
<event>
 8    1  0.7756875E-018  0.7895136E+02  0.7818608E-02  0.1332054E+00
          1   -1    0    0  501    0  0.00000000000E+00  0.00000000000E+00  0.38700342742E+02  0.38700343071E+02  0.50400000000E-02 0. -1.
         -2   -1    0    0    0  501 -0.00000000000E+00 -0.00000000000E+00 -0.40266550017E+02  0.40266550097E+02  0.25500000000E-02 0.  1.
        -24    2    1    2    0    0  0.00000000000E+00  0.00000000000E+00 -0.15662072743E+01  0.78966893168E+02  0.78951359782E+02 0.  0.
         66    2    3    3    0    0  0.37041725909E+02 -0.12938040840E+02  0.33211031167E+01  0.39427301289E+02  0.20000004885E+01 0.  0.
         13    1    3    3    0    0 -0.37041725909E+02  0.12938040840E+02 -0.48873103910E+01  0.39539591879E+02  0.10566000000E+00 0. -1.
         13    1    4    4    0    0  0.11952843160E+01 -0.19740392612E+00  0.25590044025E+00  0.12427075187E+01  0.10566000000E+00 0.  1.
        -13    1    4    4    0    0  0.12785203022E+02 -0.49998731836E+01  0.14619582177E+01  0.13806108577E+02  0.10566000000E+00 0.  1.
        -14    1    4    4    0    0  0.23061238570E+02 -0.77407637299E+01  0.16032444587E+01  0.24378485193E+02  0.00000000000E+00 0.  1.
<mgrwt>
<rscale>  0 0.78951360E+02</rscale>
<asrwt>0</asrwt>
<pdfrwt beam="1">  1        1 0.59538989E-02 0.78951360E+02</pdfrwt>
<pdfrwt beam="2">  1       -2 0.61948539E-02 0.78951360E+02</pdfrwt>
<totfact> 0.13108098E+05</totfact>
</mgrwt>
</event>
<event>
 8    1  0.7756875E-018  0.7765848E+02  0.7818608E-02  0.1335831E+00
          1   -1    0    0  501    0  0.00000000000E+00  0.00000000000E+00  0.37691915881E+03  0.37691915884E+03  0.50400000000E-02 0. -1.
         -2   -1    0    0    0  501 -0.00000000000E+00 -0.00000000000E+00 -0.40000877510E+01  0.40000885638E+01  0.25500000000E-02 0.  1.
        -24    2    1    2    0    0  0.00000000000E+00  0.00000000000E+00  0.37291907106E+03  0.38091924740E+03  0.77658479807E+02 0.  0.
         66    2    3    3    0    0 -0.20672905730E+01  0.37358162647E+02  0.23703559389E+03  0.23997870484E+03  0.20000001711E+01 0.  0.
         13    1    3    3    0    0  0.20672905730E+01 -0.37358162647E+02  0.13588347716E+03  0.14094054256E+03  0.10566000000E+00 0. -1.
         13    1    4    4    0    0 -0.60309450181E+00  0.67432922255E+01  0.46216767418E+02  0.46710132387E+02  0.10566000000E+00 0. -1.
        -13    1    4    4    0    0 -0.16582810985E+01  0.24653049025E+02  0.15410038593E+03  0.15606877596E+03  0.10566000000E+00 0.  1.
         14    1    4    4    0    0  0.19408502730E+00  0.59618213968E+01  0.36718440544E+02  0.37199796496E+02  0.00000000000E+00 0. -1.
<mgrwt>
<rscale>  0 0.77658480E+02</rscale>
<asrwt>0</asrwt>
<pdfrwt beam="1">  1        1 0.57987584E-01 0.77658480E+02</pdfrwt>
<pdfrwt beam="2">  1       -2 0.61539796E-03 0.77658480E+02</pdfrwt>
<totfact> 0.20329628E+05</totfact>
</mgrwt>
</event>
<event>
 8    1  0.7756875E-018  0.7947637E+02  0.7818608E-02  0.1330544E+00
         -2   -1    0    0    0  501 -0.00000000000E+00  0.00000000000E+00  0.79690229266E+02  0.79690229307E+02  0.25500000000E-02 0.  1.
          1   -1    0    0  501    0  0.00000000000E+00 -0.00000000000E+00 -0.19815769324E+02  0.19815769965E+02  0.50400000000E-02 0. -1.
        -24    2    1    2    0    0  0.00000000000E+00  0.00000000000E+00  0.59874459942E+02  0.99505999272E+02  0.79476367165E+02 0.  0.
         66    2    3    3    0    0 -0.33372187043E+02  0.85605720192E+00  0.56887157304E+02  0.65989274446E+02  0.19999934552E+01 0.  0.
         13    1    3    3    0    0  0.33372187043E+02 -0.85605720192E+00  0.29873026385E+01  0.33516724826E+02  0.10566000000E+00 0. -1.
         13    1    4    4    0    0 -0.49156569926E+00  0.93559351566E-02  0.56484571710E+00  0.75626654689E+00  0.10566000000E+00 0. -1.
        -13    1    4    4    0    0 -0.28685018310E+02  0.10752956385E+01  0.49462774456E+02  0.57188842942E+02  0.10566000000E+00 0.  1.
         14    1    4    4    0    0 -0.41956030341E+01 -0.22859437172E+00  0.68595371308E+01  0.80441649570E+01  0.00000000000E+00 0. -1.
<mgrwt>
<rscale>  0 0.79476367E+02</rscale>
<asrwt>0</asrwt>
<pdfrwt beam="1">  1        1 0.30485800E-02 0.79476367E+02</pdfrwt>
<pdfrwt beam="2">  1       -2 0.12260035E-01 0.79476367E+02</pdfrwt>
<totfact> 0.11374100E+05</totfact>
</mgrwt>
</event>
<event>
 8    1  0.7756875E-018  0.8049207E+02  0.7818608E-02  0.1327661E+00
         -2   -1    0    0    0  501 -0.00000000000E+00  0.00000000000E+00  0.13488428483E+02  0.13488428724E+02  0.25500000000E-02 0.  1.
          1   -1    0    0  501    0  0.00000000000E+00 -0.00000000000E+00 -0.12008392627E+03  0.12008392637E+03  0.50400000000E-02 0. -1.
        -24    2    1    2    0    0 -0.35527136788E-14  0.00000000000E+00 -0.10659549778E+03  0.13357235510E+03  0.80492073514E+02 0.  0.
         66    2    3    3    0    0 -0.30726711010E+02  0.95334947039E+01 -0.13272170135E+02  0.34859271172E+02  0.19999989385E+01 0.  0.
         13    1    3    3    0    0  0.30726711010E+02 -0.95334947039E+01 -0.93323327649E+02  0.98713083927E+02  0.10566000000E+00 0. -1.
         13    1    4    4    0    0 -0.16847666472E+02  0.43432180203E+01 -0.69449787480E+01  0.18733694301E+02  0.10566000000E+00 0. -1.
        -13    1    4    4    0    0 -0.49600050852E+01  0.18837395716E+01 -0.25969752543E+01  0.59080935780E+01  0.10566000000E+00 0.  1.
         14    1    4    4    0    0 -0.89190394532E+01  0.33065371120E+01 -0.37302161331E+01  0.10217483293E+02  0.00000000000E+00 0. -1.
<mgrwt>
<rscale>  0 0.80492074E+02</rscale>
<asrwt>0</asrwt>
<pdfrwt beam="1">  1        1 0.18474450E-01 0.80492074E+02</pdfrwt>
<pdfrwt beam="2">  1       -2 0.20751429E-02 0.80492074E+02</pdfrwt>
<totfact> 0.14920207E+05</totfact>
</mgrwt>
</event>
<event>
 8    1  0.7756875E-018  0.8079923E+02  0.7818608E-02  0.1326799E+00
          1   -1    0    0  501    0  0.00000000000E+00  0.00000000000E+00  0.74560551007E+02  0.74560551178E+02  0.50400000000E-02 0. -1.
         -2   -1    0    0    0  501 -0.00000000000E+00 -0.00000000000E+00 -0.21889980046E+02  0.21889980195E+02  0.25500000000E-02 0.  1.
        -24    2    1    2    0    0  0.00000000000E+00  0.00000000000E+00  0.52670570961E+02  0.96450531373E+02  0.80799232402E+02 0.  0.
         66    2    3    3    0    0  0.27111004874E+02  0.17298086840E+02 -0.27881013881E+01  0.32341983609E+02  0.20000002063E+01 0.  0.
         13    1    3    3    0    0 -0.27111004874E+02 -0.17298086840E+02  0.55458672349E+02  0.64108547764E+02  0.10566000000E+00 0. -1.
         13    1    4    4    0    0  0.27944997952E+01  0.14774073694E+01 -0.18673917638E+00  0.31682798482E+01  0.10566000000E+00 0. -1.
        -13    1    4    4    0    0  0.16727457066E+02  0.11737793672E+02 -0.20698485288E+01  0.20539694670E+02  0.10566000000E+00 0.  1.
        -14    1    4    4    0    0  0.75890480129E+01  0.40828857993E+01 -0.53151368285E+00  0.86340090912E+01  0.00000000000E+00 0.  1.
<mgrwt>
<rscale>  0 0.80799232E+02</rscale>
<asrwt>0</asrwt>
<pdfrwt beam="1">  1        1 0.11470854E-01 0.80799232E+02</pdfrwt>
<pdfrwt beam="2">  1       -2 0.33676892E-02 0.80799232E+02</pdfrwt>
<totfact> 0.13634853E+05</totfact>
</mgrwt>
</event>
<event>
 8    1  0.7756875E-018  0.7794730E+02  0.7818608E-02  0.1334980E+00
         -2   -1    0    0    0  501 -0.00000000000E+00  0.00000000000E+00  0.17271154753E+02  0.17271154941E+02  0.25500000000E-02 0.  1.
          1   -1    0    0  501    0  0.00000000000E+00 -0.00000000000E+00 -0.87946941828E+02  0.87946941973E+02  0.50400000000E-02 0. -1.
        -24    2    1    2    0    0  0.00000000000E+00  0.00000000000E+00 -0.70675787075E+02  0.10521809691E+03  0.77947296550E+02 0.  0.
         66    2    3    3    0    0 -0.67783302283E+01 -0.19306605211E+02  0.93731303229E+01  0.22595272549E+02  0.20000010124E+01 0.  0.
         13    1    3    3    0    0  0.67783302283E+01  0.19306605211E+02 -0.80048917398E+02  0.82622824365E+02  0.10566000000E+00 0. -1.
         13    1    4    4    0    0 -0.19268227108E+00 -0.17417855137E+01  0.61611237893E+00  0.18605648960E+01  0.10566000000E+00 0. -1.
        -13    1    4    4    0    0 -0.48675420957E+01 -0.11887314113E+02  0.64008349187E+01  0.14352109760E+02  0.10566000000E+00 0.  1.
        -14    1    4    4    0    0 -0.17181058615E+01 -0.56775055842E+01  0.23561830253E+01  0.63825978926E+01  0.00000000000E+00 0.  1.
<mgrwt>
<rscale>  0 0.77947297E+02</rscale>
<asrwt>0</asrwt>
<pdfrwt beam="1">  1        1 0.13530299E-01 0.77947297E+02</pdfrwt>
<pdfrwt beam="2">  1       -2 0.26571008E-02 0.77947297E+02</pdfrwt>
<totfact> 0.15438994E+05</totfact>
</mgrwt>
</event>
<event>
 8    1  0.7756875E-018  0.7986773E+02  0.7818608E-02  0.1329427E+00
         -2   -1    0    0    0  501 -0.00000000000E+00  0.00000000000E+00  0.53270230042E+01  0.53270236146E+01  0.25500000000E-02 0.  1.
          1   -1    0    0  501    0  0.00000000000E+00 -0.00000000000E+00 -0.29936300975E+03  0.29936300979E+03  0.50400000000E-02 0. -1.
        -24    2    1    2    0    0  0.00000000000E+00  0.11102230246E-15 -0.29403598675E+03  0.30469003341E+03  0.79867734136E+02 0.  0.
         66    2    3    3    0    0 -0.38523842650E+02  0.70507109661E+00 -0.10744100927E+03  0.11415846027E+03  0.20000002885E+01 0.  0.
         13    1    3    3    0    0  0.38523842650E+02 -0.70507109661E+00 -0.18659497748E+03  0.19053157314E+03  0.10566000000E+00 0. -1.
         13    1    4    4    0    0 -0.76407544263E+01 -0.27428631688E+00 -0.22750275859E+02  0.24000887002E+02  0.10566000000E+00 0. -1.
        -13    1    4    4    0    0 -0.89684854511E+01  0.66269138454E+00 -0.23798676350E+02  0.25441325657E+02  0.10566000000E+00 0.  1.
         14    1    4    4    0    0 -0.21914602772E+02  0.31666602895E+00 -0.60892057060E+02  0.64716247613E+02  0.00000000000E+00 0. -1.
<mgrwt>
<rscale>  0 0.79867734E+02</rscale>
<asrwt>0</asrwt>
<pdfrwt beam="1">  1        1 0.46055834E-01 0.79867734E+02</pdfrwt>
<pdfrwt beam="2">  1       -2 0.81954229E-03 0.79867734E+02</pdfrwt>
<totfact> 0.18113148E+05</totfact>
</mgrwt>
</event>
<event>
 8    1  0.7756875E-018  0.7970360E+02  0.7818608E-02  0.1329895E+00
          1   -1    0    0  501    0  0.00000000000E+00  0.00000000000E+00  0.31476004176E+01  0.31476044527E+01  0.50400000000E-02 0. -1.
         -2   -1    0    0    0  501 -0.00000000000E+00 -0.00000000000E+00 -0.50456365956E+03  0.50456365957E+03  0.25500000000E-02 0.  1.
        -24    2    1    2    0    0  0.17763568394E-14  0.00000000000E+00 -0.50141605914E+03  0.50771126402E+03  0.79703596192E+02 0.  0.
         66    2    3    3    0    0 -0.10822174232E+02 -0.16729540891E+02 -0.47052987670E+03  0.47095579608E+03  0.19999999228E+01 0.  0.
         13    1    3    3    0    0  0.10822174232E+02  0.16729540891E+02 -0.30886182438E+02  0.36755467936E+02  0.10566000000E+00 0. -1.
         13    1    4    4    0    0 -0.10073362364E+01 -0.10697180532E+01 -0.42210533176E+02  0.42236232053E+02  0.10566000000E+00 0. -1.
        -13    1    4    4    0    0 -0.11391307344E+01 -0.12120421916E+01 -0.37165604717E+02  0.37202956914E+02  0.10566000000E+00 0.  1.
         14    1    4    4    0    0 -0.86757072610E+01 -0.14447780647E+02 -0.39115373881E+03  0.39151660712E+03  0.00000000000E+00 0. -1.
<mgrwt>
<rscale>  0 0.79703596E+02</rscale>
<asrwt>0</asrwt>
<pdfrwt beam="1">  1        1 0.48424693E-03 0.79703596E+02</pdfrwt>
<pdfrwt beam="2">  1       -2 0.77625114E-01 0.79703596E+02</pdfrwt>
<totfact> 0.50519051E+04</totfact>
</mgrwt>
</event>
<event>
 8    1  0.7756875E-018  0.8052503E+02  0.7818608E-02  0.1327568E+00
          1   -1    0    0  501    0  0.00000000000E+00  0.00000000000E+00  0.18607896015E+02  0.18607896697E+02  0.50400000000E-02 0. -1.
         -2   -1    0    0    0  501 -0.00000000000E+00 -0.00000000000E+00 -0.87117317643E+02  0.87117317681E+02  0.25500000000E-02 0.  1.
        -24    2    1    2    0    0  0.00000000000E+00  0.35527136788E-14 -0.68509421629E+02  0.10572521438E+03  0.80525027808E+02 0.  0.
         66    2    3    3    0    0  0.60311741484E+01 -0.31901800695E+02 -0.30683168423E+01  0.32672840639E+02  0.19999994942E+01 0.  0.
         13    1    3    3    0    0 -0.60311741484E+01  0.31901800695E+02 -0.65441104786E+02  0.73052373739E+02  0.10566000000E+00 0. -1.
         13    1    4    4    0    0  0.30384468307E+01 -0.13828217646E+02 -0.87833290504E+00  0.14185710949E+02  0.10566000000E+00 0. -1.
        -13    1    4    4    0    0  0.27180368434E+01 -0.13306062035E+02 -0.15748689287E+01  0.13672248803E+02  0.10566000000E+00 0.  1.
         14    1    4    4    0    0  0.27469047429E+00 -0.47675210143E+01 -0.61511500860E+00  0.48148808866E+01  0.00000000000E+00 0. -1.
<mgrwt>
<rscale>  0 0.80525028E+02</rscale>
<asrwt>0</asrwt>
<pdfrwt beam="1">  1        1 0.28627534E-02 0.80525028E+02</pdfrwt>
<pdfrwt beam="2">  1       -2 0.13402664E-01 0.80525028E+02</pdfrwt>
<totfact> 0.10785091E+05</totfact>
</mgrwt>
</event>
<event>
 8    1  0.7756875E-018  0.8095192E+02  0.7818608E-02  0.1326372E+00
          1   -1    0    0  501    0  0.00000000000E+00  0.00000000000E+00  0.70801747691E+01  0.70801765629E+01  0.50400000000E-02 0. -1.
         -2   -1    0    0    0  501 -0.00000000000E+00 -0.00000000000E+00 -0.23139301169E+03  0.23139301170E+03  0.25500000000E-02 0.  1.
        -24    2    1    2    0    0  0.00000000000E+00  0.00000000000E+00 -0.22431283692E+03  0.23847318827E+03  0.80951916065E+02 0.  0.
         66    2    3    3    0    0 -0.16249223991E+02  0.12608983754E+02 -0.21483522129E+03  0.21582677324E+03  0.19999969213E+01 0.  0.
         13    1    3    3    0    0  0.16249223991E+02 -0.12608983754E+02 -0.94776156301E+01  0.22646415029E+02  0.10566000000E+00 0. -1.
         13    1    4    4    0    0 -0.10465073596E+02  0.77909122242E+01 -0.13867422798E+03  0.13928664239E+03  0.10566000000E+00 0.  1.
        -13    1    4    4    0    0 -0.20396075610E+01  0.15274667876E+01 -0.31043201323E+02  0.31147787501E+02  0.10566000000E+00 0. -1.
        -14    1    4    4    0    0 -0.37445428337E+01  0.32906047418E+01 -0.45117791989E+02  0.45392343348E+02  0.00000000000E+00 0.  1.
<mgrwt>
<rscale>  0 0.80951916E+02</rscale>
<asrwt>0</asrwt>
<pdfrwt beam="1">  1        1 0.10892580E-02 0.80951916E+02</pdfrwt>
<pdfrwt beam="2">  1       -2 0.35598919E-01 0.80951916E+02</pdfrwt>
<totfact> 0.77526050E+04</totfact>
</mgrwt>
</event>
<event>
 8    1  0.7756875E-018  0.8048004E+02  0.7818608E-02  0.1327695E+00
          1   -1    0    0  501    0  0.00000000000E+00  0.00000000000E+00  0.84913430285E+01  0.84913445242E+01  0.50400000000E-02 0. -1.
         -2   -1    0    0    0  501 -0.00000000000E+00 -0.00000000000E+00 -0.19069529775E+03  0.19069529777E+03  0.25500000000E-02 0.  1.
        -24    2    1    2    0    0  0.00000000000E+00  0.00000000000E+00 -0.18220395472E+03  0.19918664229E+03  0.80480043186E+02 0.  0.
         66    2    3    3    0    0  0.39011187275E+02 -0.87169501335E+01 -0.80257923679E+02  0.89683846156E+02  0.19999989356E+01 0.  0.
         13    1    3    3    0    0 -0.39011187275E+02  0.87169501335E+01 -0.10194603104E+03  0.10950279614E+03  0.10566000000E+00 0. -1.
         13    1    4    4    0    0  0.45208270541E+01 -0.45738007352E+00 -0.92699425649E+01  0.10324246848E+02  0.10566000000E+00 0. -1.
        -13    1    4    4    0    0  0.29934726809E+02 -0.73330575552E+01 -0.61081340334E+02  0.68416393528E+02  0.10566000000E+00 0.  1.
         14    1    4    4    0    0  0.45556334118E+01 -0.92651250480E+00 -0.99066407799E+01  0.10943205780E+02  0.00000000000E+00 0. -1.
<mgrwt>
<rscale>  0 0.80480043E+02</rscale>
<asrwt>0</asrwt>
<pdfrwt beam="1">  1        1 0.13063607E-02 0.80480043E+02</pdfrwt>
<pdfrwt beam="2">  1       -2 0.29337735E-01 0.80480043E+02</pdfrwt>
<totfact> 0.85379946E+04</totfact>
</mgrwt>
</event>
<event>
 8    1  0.7756875E-018  0.7971253E+02  0.7818608E-02  0.1329869E+00
         -2   -1    0    0    0  501 -0.00000000000E+00  0.00000000000E+00  0.84753682385E+03  0.84753682385E+03  0.25500000000E-02 0.  1.
          1   -1    0    0  501    0  0.00000000000E+00 -0.00000000000E+00 -0.18742772259E+01  0.18742840022E+01  0.50400000000E-02 0. -1.
        -24    2    1    2    0    0  0.00000000000E+00  0.00000000000E+00  0.84566254662E+03  0.84941110785E+03  0.79712529670E+02 0.  0.
         66    2    3    3    0    0  0.19157858657E+01  0.31160463159E+02  0.68668232247E+03  0.68739454224E+03  0.20000001195E+01 0.  0.
         13    1    3    3    0    0 -0.19157858657E+01 -0.31160463159E+02  0.15898022415E+03  0.16201656561E+03  0.10566000000E+00 0. -1.
         13    1    4    4    0    0  0.32833479918E+00  0.43627583671E+01  0.86373335273E+02  0.86484135393E+02  0.10566000000E+00 0. -1.
        -13    1    4    4    0    0  0.60513973026E+00  0.18365717628E+02  0.41926065551E+03  0.41966316755E+03  0.10566000000E+00 0.  1.
        -14    1    4    4    0    0  0.98231133627E+00  0.84319871640E+01  0.18104833169E+03  0.18124723929E+03  0.00000000000E+00 0.  1.
<mgrwt>
<rscale>  0 0.79712530E+02</rscale>
<asrwt>0</asrwt>
<pdfrwt beam="1">  1        1 0.28835020E-03 0.79712530E+02</pdfrwt>
<pdfrwt beam="2">  1       -2 0.13039058E+00 0.79712530E+02</pdfrwt>
<totfact> 0.31597159E+04</totfact>
</mgrwt>
</event>
<event>
 8    1  0.7756875E-018  0.7782712E+02  0.7818608E-02  0.1335333E+00
         -2   -1    0    0    0  501 -0.00000000000E+00  0.00000000000E+00  0.47137172885E+02  0.47137172954E+02  0.25500000000E-02 0.  1.
          1   -1    0    0  501    0  0.00000000000E+00 -0.00000000000E+00 -0.32124652171E+02  0.32124652566E+02  0.50400000000E-02 0. -1.
        -24    2    1    2    0    0  0.00000000000E+00  0.00000000000E+00  0.15012520714E+02  0.79261825520E+02  0.77827123849E+02 0.  0.
         66    2    3    3    0    0 -0.14835440900E+01  0.24070869278E+02  0.38580177727E+02  0.45541604999E+02  0.20000053902E+01 0.  0.
         13    1    3    3    0    0  0.14835440900E+01 -0.24070869278E+02 -0.23567657014E+02  0.33720220521E+02  0.10566000000E+00 0. -1.
         13    1    4    4    0    0 -0.94258829657E-01  0.10319222852E+01  0.22228652771E+01  0.24547998707E+01  0.10566000000E+00 0. -1.
        -13    1    4    4    0    0 -0.10180420437E+01  0.21873879008E+02  0.34333524475E+02  0.40722291921E+02  0.10566000000E+00 0.  1.
        -14    1    4    4    0    0 -0.37124321672E+00  0.11650679847E+01  0.20237879756E+01  0.23645132068E+01  0.00000000000E+00 0.  1.
<mgrwt>
<rscale>  0 0.77827124E+02</rscale>
<asrwt>0</asrwt>
<pdfrwt beam="1">  1        1 0.49422543E-02 0.77827124E+02</pdfrwt>
<pdfrwt beam="2">  1       -2 0.72518727E-02 0.77827124E+02</pdfrwt>
<totfact> 0.13240211E+05</totfact>
</mgrwt>
</event>
<event>
 8    1  0.7756875E-018  0.7990467E+02  0.7818608E-02  0.1329322E+00
          1   -1    0    0  501    0  0.00000000000E+00  0.00000000000E+00  0.30149217470E+02  0.30149217891E+02  0.50400000000E-02 0. -1.
         -2   -1    0    0    0  501 -0.00000000000E+00 -0.00000000000E+00 -0.52942968215E+02  0.52942968277E+02  0.25500000000E-02 0.  1.
        -24    2    1    2    0    0 -0.35527136788E-14 -0.71054273576E-14 -0.22793750745E+02  0.83092186167E+02  0.79904670258E+02 0.  0.
         66    2    3    3    0    0  0.28092231670E+02  0.25220427765E+02 -0.24920211363E+02  0.45279801217E+02  0.20000017552E+01 0.  0.
         13    1    3    3    0    0 -0.28092231670E+02 -0.25220427765E+02  0.21264606176E+01  0.37812384950E+02  0.10566000000E+00 0. -1.
         13    1    4    4    0    0  0.27033343028E+01  0.23426239574E+01 -0.23629580127E+01  0.42884307111E+01  0.10566000000E+00 0. -1.
        -13    1    4    4    0    0  0.12630590998E+02  0.10162249138E+02 -0.10446566786E+02  0.19285877169E+02  0.10566000000E+00 0.  1.
         14    1    4    4    0    0  0.12758306369E+02  0.12715554670E+02 -0.12110686564E+02  0.21705493337E+02  0.00000000000E+00 0. -1.
<mgrwt>
<rscale>  0 0.79904670E+02</rscale>
<asrwt>0</asrwt>
<pdfrwt beam="1">  1        1 0.46383412E-02 0.79904670E+02</pdfrwt>
<pdfrwt beam="2">  1       -2 0.81450720E-02 0.79904670E+02</pdfrwt>
<totfact> 0.12146964E+05</totfact>
</mgrwt>
</event>
<event>
 8    1  0.8906840E-018  0.7881832E+02  0.7818608E-02  0.1332439E+00
          1   -1    0    0  501    0  0.00000000000E+00  0.00000000000E+00  0.13885326426E+02  0.13885327340E+02  0.50400000000E-02 0. -1.
         -2   -1    0    0    0  501 -0.00000000000E+00 -0.00000000000E+00 -0.11185057699E+03  0.11185057702E+03  0.25500000000E-02 0.  1.
        -24    2    1    2    0    0  0.17763568394E-14  0.00000000000E+00 -0.97965250563E+02  0.12573590436E+03  0.78818318473E+02 0.  0.
         66    2    3    3    0    0 -0.10058310880E+02 -0.44141098840E+01 -0.10934838932E+03  0.10991689694E+03  0.20000002393E+01 0.  0.
         13    1    3    3    0    0  0.10058310880E+02  0.44141098840E+01  0.11383138758E+02  0.15819007423E+02  0.10566000000E+00 0. -1.
         13    1    4    4    0    0 -0.42658272805E+01 -0.12229152748E+01 -0.46171412331E+02  0.46384299983E+02  0.10566000000E+00 0. -1.
        -13    1    4    4    0    0 -0.52734632341E+01 -0.25137460972E+01 -0.56494696503E+02  0.56796040628E+02  0.10566000000E+00 0.  1.
         14    1    4    4    0    0 -0.51902036497E+00 -0.67744851196E+00 -0.66822804866E+01  0.67365563256E+01  0.00000000000E+00 0. -1.
<mgrwt>
<rscale>  0 0.78818318E+02</rscale>
<asrwt>0</asrwt>
<pdfrwt beam="1">  1        1 0.21362042E-02 0.78818318E+02</pdfrwt>
<pdfrwt beam="2">  1       -2 0.17207781E-01 0.78818318E+02</pdfrwt>
<totfact> 0.10711959E+05</totfact>
</mgrwt>
</event>
<event>
 8    1  0.7756875E-018  0.7899219E+02  0.7818608E-02  0.1331936E+00
          1   -1    0    0  501    0  0.00000000000E+00  0.00000000000E+00  0.26322980194E+02  0.26322980676E+02  0.50400000000E-02 0. -1.
         -2   -1    0    0    0  501 -0.00000000000E+00 -0.00000000000E+00 -0.59261579927E+02  0.59261579981E+02  0.25500000000E-02 0.  1.
        -24    2    1    2    0    0 -0.44408920985E-15  0.00000000000E+00 -0.32938599733E+02  0.85584560658E+02  0.78992187403E+02 0.  0.
         66    2    3    3    0    0  0.28700621716E+01  0.14682340742E+02 -0.56053837152E+02  0.58050331932E+02  0.19999978734E+01 0.  0.
         13    1    3    3    0    0 -0.28700621716E+01 -0.14682340742E+02  0.23115237419E+02  0.27534228726E+02  0.10566000000E+00 0. -1.
         13    1    4    4    0    0  0.18606153510E+01  0.66511097798E+01 -0.23386048125E+02  0.24384781355E+02  0.10566000000E+00 0. -1.
        -13    1    4    4    0    0  0.56279512694E+00  0.23659180806E+01 -0.10860169770E+02  0.11129634235E+02  0.10566000000E+00 0.  1.
        -14    1    4    4    0    0  0.44665169373E+00  0.56653128818E+01 -0.21807619256E+02  0.22535916343E+02  0.00000000000E+00 0.  1.
<mgrwt>
<rscale>  0 0.78992187E+02</rscale>
<asrwt>0</asrwt>
<pdfrwt beam="1">  1        1 0.40496893E-02 0.78992187E+02</pdfrwt>
<pdfrwt beam="2">  1       -2 0.91171661E-02 0.78992187E+02</pdfrwt>
<totfact> 0.12252708E+05</totfact>
</mgrwt>
</event>
<event>
 8    1  0.7756875E-018  0.8339657E+02  0.7818608E-02  0.1319680E+00
          1   -1    0    0  501    0  0.00000000000E+00  0.00000000000E+00  0.90052744317E+02  0.90052744458E+02  0.50400000000E-02 0. -1.
         -2   -1    0    0    0  501 -0.00000000000E+00 -0.00000000000E+00 -0.19308094601E+02  0.19308094769E+02  0.25500000000E-02 0.  1.
        -24    2    1    2    0    0  0.35527136788E-14 -0.88817841970E-15  0.70744649717E+02  0.10936083923E+03  0.83396568832E+02 0.  0.
         66    2    3    3    0    0  0.27691285850E+02 -0.45617142219E+01 -0.50068375060E+01  0.28577700336E+02  0.19999965115E+01 0.  0.
         13    1    3    3    0    0 -0.27691285850E+02  0.45617142219E+01  0.75751487223E+02  0.80783138891E+02  0.10566000000E+00 0. -1.
         13    1    4    4    0    0  0.86726972392E+01 -0.14963558957E+01 -0.24683199047E+01  0.91410352563E+01  0.10566000000E+00 0. -1.
        -13    1    4    4    0    0  0.11954625648E+02 -0.21091786438E+01 -0.17369942910E+01  0.12263360964E+02  0.10566000000E+00 0.  1.
         14    1    4    4    0    0  0.70639629624E+01 -0.95617968237E+00 -0.80152331027E+00  0.71733041156E+01  0.00000000000E+00 0. -1.
<mgrwt>
<rscale>  0 0.83396569E+02</rscale>
<asrwt>0</asrwt>
<pdfrwt beam="1">  1        1 0.13854268E-01 0.83396569E+02</pdfrwt>
<pdfrwt beam="2">  1       -2 0.29704761E-02 0.83396569E+02</pdfrwt>
<totfact> 0.12900489E+05</totfact>
</mgrwt>
</event>
<event>
 8    1  0.7756875E-018  0.7791274E+02  0.7818608E-02  0.1335081E+00
          1   -1    0    0  501    0  0.00000000000E+00  0.00000000000E+00  0.72416774874E+02  0.72416775050E+02  0.50400000000E-02 0. -1.
         -2   -1    0    0    0  501 -0.00000000000E+00 -0.00000000000E+00 -0.20956454279E+02  0.20956454434E+02  0.25500000000E-02 0.  1.
        -24    2    1    2    0    0 -0.71054273576E-14  0.00000000000E+00  0.51460320595E+02  0.93373229484E+02  0.77912742144E+02 0.  0.
         66    2    3    3    0    0  0.36554670174E+02 -0.12476328212E+02  0.31580280043E+02  0.49932121606E+02  0.20000008306E+01 0.  0.
         13    1    3    3    0    0 -0.36554670174E+02  0.12476328212E+02  0.19880040552E+02  0.43441107877E+02  0.10566000000E+00 0. -1.
         13    1    4    4    0    0  0.23027385227E+01 -0.90541142818E+00  0.23973275813E+01  0.34468417611E+01  0.10566000000E+00 0. -1.
        -13    1    4    4    0    0  0.19727811788E+02 -0.59334736390E+01  0.16346260862E+02  0.26298366405E+02  0.10566000000E+00 0.  1.
        -14    1    4    4    0    0  0.14524119863E+02 -0.56374431447E+01  0.12836691600E+02  0.20186913440E+02  0.00000000000E+00 0.  1.
<mgrwt>
<rscale>  0 0.77912742E+02</rscale>
<asrwt>0</asrwt>
<pdfrwt beam="1">  1        1 0.11141042E-01 0.77912742E+02</pdfrwt>
<pdfrwt beam="2">  1       -2 0.32240700E-02 0.77912742E+02</pdfrwt>
<totfact> 0.14988801E+05</totfact>
</mgrwt>
</event>
<event>
 8    1  0.7756875E-018  0.7978224E+02  0.7818608E-02  0.1329671E+00
          1   -1    0    0  501    0  0.00000000000E+00  0.00000000000E+00  0.16051896929E+03  0.16051896937E+03  0.50400000000E-02 0. -1.
         -2   -1    0    0    0  501 -0.00000000000E+00 -0.00000000000E+00 -0.99134784236E+01  0.99134787515E+01  0.25500000000E-02 0.  1.
        -24    2    1    2    0    0  0.00000000000E+00  0.00000000000E+00  0.15060549087E+03  0.17043244812E+03  0.79782237957E+02 0.  0.
         66    2    3    3    0    0 -0.63305519191E+01  0.25263191986E+02  0.10873165642E+02  0.28293647529E+02  0.20000006349E+01 0.  0.
         13    1    3    3    0    0  0.63305519191E+01 -0.25263191986E+02  0.13973232523E+03  0.14213880059E+03  0.10566000000E+00 0. -1.
         13    1    4    4    0    0 -0.30864529816E+01  0.85435216678E+01  0.35975685752E+01  0.97709578950E+01  0.10566000000E+00 0. -1.
        -13    1    4    4    0    0 -0.18974991239E+01  0.93374737822E+01  0.39685677264E+01  0.10322287217E+02  0.10566000000E+00 0.  1.
        -14    1    4    4    0    0 -0.13465998136E+01  0.73821965356E+01  0.33070293406E+01  0.82004024174E+01  0.00000000000E+00 0.  1.
<mgrwt>
<rscale>  0 0.79782238E+02</rscale>
<asrwt>0</asrwt>
<pdfrwt beam="1">  1        1 0.24695227E-01 0.79782238E+02</pdfrwt>
<pdfrwt beam="2">  1       -2 0.15251505E-02 0.79782238E+02</pdfrwt>
<totfact> 0.16105144E+05</totfact>
</mgrwt>
</event>
<event>
 8    1  0.7756875E-018  0.7911336E+02  0.7818608E-02  0.1331587E+00
          1   -1    0    0  501    0  0.00000000000E+00  0.00000000000E+00  0.14589287902E+02  0.14589288773E+02  0.50400000000E-02 0. -1.
         -2   -1    0    0    0  501 -0.00000000000E+00 -0.00000000000E+00 -0.10725204321E+03  0.10725204324E+03  0.25500000000E-02 0.  1.
        -24    2    1    2    0    0 -0.35527136788E-14  0.71054273576E-14 -0.92662755305E+02  0.12184133201E+03  0.79113361484E+02 0.  0.
         66    2    3    3    0    0 -0.19767979415E+02  0.34067686105E+02 -0.51548455040E+02  0.64904726061E+02  0.20000003197E+01 0.  0.
         13    1    3    3    0    0  0.19767979415E+02 -0.34067686105E+02 -0.41114300265E+02  0.56936605949E+02  0.10566000000E+00 0. -1.
         13    1    4    4    0    0 -0.66605417798E+00  0.19832172072E+01 -0.26425816944E+01  0.33721181334E+01  0.10566000000E+00 0. -1.
        -13    1    4    4    0    0 -0.57518168237E+01  0.93311751952E+01 -0.14411441168E+02  0.18106767460E+02  0.10566000000E+00 0.  1.
        -14    1    4    4    0    0 -0.13350108413E+02  0.22753293703E+02 -0.34494432178E+02  0.43425840467E+02  0.00000000000E+00 0.  1.
<mgrwt>
<rscale>  0 0.79113361E+02</rscale>
<asrwt>0</asrwt>
<pdfrwt beam="1">  1        1 0.22445060E-02 0.79113361E+02</pdfrwt>
<pdfrwt beam="2">  1       -2 0.16500314E-01 0.79113361E+02</pdfrwt>
<totfact> 0.10727687E+05</totfact>
</mgrwt>
</event>
<event>
 8    1  0.7756875E-018  0.8033614E+02  0.7818608E-02  0.1328100E+00
         -2   -1    0    0    0  501 -0.00000000000E+00  0.00000000000E+00  0.48029731017E+03  0.48029731017E+03  0.25500000000E-02 0.  1.
          1   -1    0    0  501    0  0.00000000000E+00 -0.00000000000E+00 -0.33593215849E+01  0.33593253657E+01  0.50400000000E-02 0. -1.
        -24    2    1    2    0    0 -0.22204460493E-15  0.00000000000E+00  0.47693798858E+03  0.48365663554E+03  0.80336144721E+02 0.  0.
         66    2    3    3    0    0 -0.14592039408E+01  0.11329128259E+02  0.47030373021E+03  0.47044667826E+03  0.20000017423E+01 0.  0.
         13    1    3    3    0    0  0.14592039408E+01 -0.11329128259E+02  0.66342583675E+01  0.13209957281E+02  0.10566000000E+00 0. -1.
         13    1    4    4    0    0 -0.14645568897E+00  0.22544644143E+01  0.10680049759E+03  0.10682444247E+03  0.10566000000E+00 0. -1.
        -13    1    4    4    0    0 -0.96170594827E+00  0.87725643245E+01  0.34916478598E+03  0.34927631139E+03  0.10566000000E+00 0.  1.
         14    1    4    4    0    0 -0.35104230352E+00  0.30209952047E+00  0.14338446641E+02  0.14345924401E+02  0.00000000000E+00 0. -1.
<mgrwt>
<rscale>  0 0.80336145E+02</rscale>
<asrwt>0</asrwt>
<pdfrwt beam="1">  1        1 0.51681904E-03 0.80336145E+02</pdfrwt>
<pdfrwt beam="2">  1       -2 0.73891887E-01 0.80336145E+02</pdfrwt>
<totfact> 0.51385921E+04</totfact>
</mgrwt>
</event>
<event>
 8    1  0.7756875E-018  0.7896378E+02  0.7818608E-02  0.1332018E+00
         -2   -1    0    0    0  501 -0.00000000000E+00  0.00000000000E+00  0.40239358461E+01  0.40239366541E+01  0.25500000000E-02 0.  1.
          1   -1    0    0  501    0  0.00000000000E+00 -0.00000000000E+00 -0.38738673420E+03  0.38738673423E+03  0.50400000000E-02 0. -1.
        -24    2    1    2    0    0  0.00000000000E+00  0.00000000000E+00 -0.38336279835E+03  0.39141067088E+03  0.78963777280E+02 0.  0.
         66    2    3    3    0    0 -0.78081559423E+01  0.36802573163E+02 -0.25075037444E+03  0.25356487722E+03  0.19999970496E+01 0.  0.
         13    1    3    3    0    0  0.78081559423E+01 -0.36802573163E+02 -0.13261242391E+03  0.13784579366E+03  0.10566000000E+00 0. -1.
         13    1    4    4    0    0 -0.11430531403E+01  0.34429957876E+01 -0.25005408060E+02  0.25267417493E+02  0.10566000000E+00 0. -1.
        -13    1    4    4    0    0 -0.26620439875E+01  0.11984165834E+02 -0.77782895409E+02  0.78745772529E+02  0.10566000000E+00 0.  1.
        -14    1    4    4    0    0 -0.40030588145E+01  0.21375411542E+02 -0.14796207097E+03  0.14955168720E+03  0.00000000000E+00 0.  1.
<mgrwt>
<rscale>  0 0.78963777E+02</rscale>
<asrwt>0</asrwt>
<pdfrwt beam="1">  1        1 0.59597930E-01 0.78963777E+02</pdfrwt>
<pdfrwt beam="2">  1       -2 0.61906742E-03 0.78963777E+02</pdfrwt>
<totfact> 0.19550729E+05</totfact>
</mgrwt>
</event>
<event>
 8    1  0.7756875E-018  0.7922530E+02  0.7818608E-02  0.1331264E+00
         -2   -1    0    0    0  501 -0.00000000000E+00  0.00000000000E+00  0.65131144629E+01  0.65131149620E+01  0.25500000000E-02 0.  1.
          1   -1    0    0  501    0  0.00000000000E+00 -0.00000000000E+00 -0.24092344142E+03  0.24092344147E+03  0.50400000000E-02 0. -1.
        -24    2    1    2    0    0  0.00000000000E+00 -0.71054273576E-14 -0.23441032696E+03  0.24743655644E+03  0.79225299470E+02 0.  0.
         66    2    3    3    0    0 -0.11300286732E+02  0.31455020830E+02 -0.51023432183E+02  0.61028726249E+02  0.19999950630E+01 0.  0.
         13    1    3    3    0    0  0.11300286732E+02 -0.31455020830E+02 -0.18338689478E+03  0.18640783019E+03  0.10566000000E+00 0. -1.
         13    1    4    4    0    0 -0.82550748358E+00  0.18439771612E+01 -0.32511130870E+01  0.38291793790E+01  0.10566000000E+00 0. -1.
        -13    1    4    4    0    0 -0.10164521311E+02  0.27448240753E+02 -0.44645550803E+02  0.53385014606E+02  0.10566000000E+00 0.  1.
         14    1    4    4    0    0 -0.31025793762E+00  0.21628029158E+01 -0.31267682929E+01  0.38145322646E+01  0.00000000000E+00 0. -1.
<mgrwt>
<rscale>  0 0.79225299E+02</rscale>
<asrwt>0</asrwt>
<pdfrwt beam="1">  1        1 0.37065138E-01 0.79225299E+02</pdfrwt>
<pdfrwt beam="2">  1       -2 0.10020178E-02 0.79225299E+02</pdfrwt>
<totfact> 0.17740905E+05</totfact>
</mgrwt>
</event>
<event>
 8    1  0.7756875E-018  0.8449270E+02  0.7818608E-02  0.1316765E+00
          1   -1    0    0  501    0  0.00000000000E+00  0.00000000000E+00  0.38680409280E+03  0.38680409284E+03  0.50400000000E-02 0. -1.
         -2   -1    0    0    0  501 -0.00000000000E+00 -0.00000000000E+00 -0.46141031166E+01  0.46141038213E+01  0.25500000000E-02 0.  1.
        -24    2    1    2    0    0  0.35527136788E-14  0.71054273576E-14  0.38218998969E+03  0.39141819666E+03  0.84492700619E+02 0.  0.
         66    2    3    3    0    0  0.21432663268E+02  0.36373299667E+02  0.18837203282E+03  0.19305542911E+03  0.19999935819E+01 0.  0.
         13    1    3    3    0    0 -0.21432663268E+02 -0.36373299667E+02  0.19381795686E+03  0.19836276755E+03  0.10566000000E+00 0. -1.
         13    1    4    4    0    0  0.31408731691E+01  0.57429675122E+01  0.27195349867E+02  0.27972217977E+02  0.10566000000E+00 0. -1.
        -13    1    4    4    0    0  0.14581476346E+02  0.24772078899E+02  0.12754307733E+03  0.13074220085E+03  0.10566000000E+00 0.  1.
         14    1    4    4    0    0  0.37103137530E+01  0.58582532562E+01  0.33633605632E+02  0.34341010281E+02  0.00000000000E+00 0. -1.
<mgrwt>
<rscale>  0 0.84492701E+02</rscale>
<asrwt>0</asrwt>
<pdfrwt beam="1">  1        1 0.59508330E-01 0.84492701E+02</pdfrwt>
<pdfrwt beam="2">  1       -2 0.70986199E-03 0.84492701E+02</pdfrwt>
<totfact> 0.16355583E+05</totfact>
</mgrwt>
</event>
<event>
 8    1  0.7756875E-018  0.8080362E+02  0.7818608E-02  0.1326786E+00
          1   -1    0    0  501    0  0.00000000000E+00  0.00000000000E+00  0.19920465185E+02  0.19920465823E+02  0.50400000000E-02 0. -1.
         -2   -1    0    0    0  501 -0.00000000000E+00 -0.00000000000E+00 -0.81941160834E+02  0.81941160874E+02  0.25500000000E-02 0.  1.
        -24    2    1    2    0    0  0.35527136788E-14  0.00000000000E+00 -0.62020695649E+02  0.10186162670E+03  0.80803615665E+02 0.  0.
         66    2    3    3    0    0  0.22482725835E+02  0.18991424504E+02 -0.65876681494E+02  0.72179528447E+02  0.19999991192E+01 0.  0.
         13    1    3    3    0    0 -0.22482725835E+02 -0.18991424504E+02  0.38559858449E+01  0.29682098250E+02  0.10566000000E+00 0. -1.
         13    1    4    4    0    0  0.51582388613E+01  0.39716581920E+01 -0.13685778096E+02  0.15155632058E+02  0.10566000000E+00 0. -1.
        -13    1    4    4    0    0  0.61588193640E+01  0.60705695144E+01 -0.20728062611E+02  0.22459888999E+02  0.10566000000E+00 0.  1.
        -14    1    4    4    0    0  0.11165667610E+02  0.89491967972E+01 -0.31462840786E+02  0.34564007389E+02  0.00000000000E+00 0.  1.
<mgrwt>
<rscale>  0 0.80803616E+02</rscale>
<asrwt>0</asrwt>
<pdfrwt beam="1">  1        1 0.30646871E-02 0.80803616E+02</pdfrwt>
<pdfrwt beam="2">  1       -2 0.12606332E-01 0.80803616E+02</pdfrwt>
<totfact> 0.10838086E+05</totfact>
</mgrwt>
</event>
<event>
 8    1  0.7756875E-018  0.7821700E+02  0.7818608E-02  0.1334189E+00
          1   -1    0    0  501    0  0.00000000000E+00  0.00000000000E+00  0.41779938480E+02  0.41779938784E+02  0.50400000000E-02 0. -1.
         -2   -1    0    0    0  501 -0.00000000000E+00 -0.00000000000E+00 -0.36607878907E+02  0.36607878995E+02  0.25500000000E-02 0.  1.
        -24    2    1    2    0    0  0.17763568394E-14  0.00000000000E+00  0.51720595733E+01  0.78387817779E+02  0.78217004391E+02 0.  0.
         66    2    3    3    0    0  0.13741850928E+02  0.17608619896E+01 -0.34037008891E+02  0.36802948948E+02  0.19999937988E+01 0.  0.
         13    1    3    3    0    0 -0.13741850928E+02 -0.17608619896E+01  0.39209068464E+02  0.41584868831E+02  0.10566000000E+00 0. -1.
         13    1    4    4    0    0  0.44507221511E+01  0.60942881601E+00 -0.13131706071E+02  0.13879236273E+02  0.10566000000E+00 0. -1.
        -13    1    4    4    0    0  0.60032737471E+01  0.35606915331E+00 -0.13832799540E+02  0.15083885046E+02  0.10566000000E+00 0.  1.
         14    1    4    4    0    0  0.32878550295E+01  0.79536402030E+00 -0.70725032791E+01  0.78398276290E+01  0.00000000000E+00 0. -1.
<mgrwt>
<rscale>  0 0.78217004E+02</rscale>
<asrwt>0</asrwt>
<pdfrwt beam="1">  1        1 0.64276829E-02 0.78217004E+02</pdfrwt>
<pdfrwt beam="2">  1       -2 0.56319814E-02 0.78217004E+02</pdfrwt>
<totfact> 0.13621398E+05</totfact>
</mgrwt>
</event>
<event>
 8    1  0.7756875E-018  0.7305589E+02  0.7818608E-02  0.1349999E+00
         -2   -1    0    0    0  501 -0.00000000000E+00  0.00000000000E+00  0.76482535691E+01  0.76482539942E+01  0.25500000000E-02 0.  1.
          1   -1    0    0  501    0  0.00000000000E+00 -0.00000000000E+00 -0.17445691170E+03  0.17445691177E+03  0.50400000000E-02 0. -1.
        -24    2    1    2    0    0  0.17763568394E-14  0.35527136788E-14 -0.16680865813E+03  0.18210516576E+03  0.73055889369E+02 0.  0.
         66    2    3    3    0    0  0.14381589755E+02  0.27129754163E+02 -0.34275966022E+02  0.46061866312E+02  0.19999991472E+01 0.  0.
         13    1    3    3    0    0 -0.14381589755E+02 -0.27129754163E+02 -0.13253269211E+03  0.13604329945E+03  0.10566000000E+00 0. -1.
         13    1    4    4    0    0  0.96338617854E+00  0.13806151117E+01 -0.23558184724E+01  0.28974567687E+01  0.10566000000E+00 0. -1.
        -13    1    4    4    0    0  0.96877596590E+01  0.18672045886E+02 -0.23836951657E+02  0.31791656344E+02  0.10566000000E+00 0.  1.
        -14    1    4    4    0    0  0.37304439178E+01  0.70770931653E+01 -0.80831958927E+01  0.11372753199E+02  0.00000000000E+00 0.  1.
<mgrwt>
<rscale>  0 0.73055889E+02</rscale>
<asrwt>0</asrwt>
<pdfrwt beam="1">  1        1 0.26839522E-01 0.73055889E+02</pdfrwt>
<pdfrwt beam="2">  1       -2 0.11766546E-02 0.73055889E+02</pdfrwt>
<totfact> 0.20654381E+05</totfact>
</mgrwt>
</event>
<event>
 8    1  0.7756875E-018  0.7974150E+02  0.7818608E-02  0.1329787E+00
         -2   -1    0    0    0  501 -0.00000000000E+00  0.00000000000E+00  0.44364254564E+02  0.44364254637E+02  0.25500000000E-02 0.  1.
          1   -1    0    0  501    0  0.00000000000E+00 -0.00000000000E+00 -0.35832375370E+02  0.35832375724E+02  0.50400000000E-02 0. -1.
        -24    2    1    2    0    0  0.00000000000E+00  0.00000000000E+00  0.85318791941E+01  0.80196630361E+02  0.79741498348E+02 0.  0.
         66    2    3    3    0    0 -0.20924803660E+02 -0.18265913330E+02  0.33000551289E+02  0.43180173533E+02  0.20000007548E+01 0.  0.
         13    1    3    3    0    0  0.20924803660E+02  0.18265913330E+02 -0.24468672095E+02  0.37016456828E+02  0.10566000000E+00 0. -1.
         13    1    4    4    0    0 -0.84841290053E+01 -0.82347492532E+01  0.14573004285E+02  0.18766330440E+02  0.10566000000E+00 0. -1.
        -13    1    4    4    0    0 -0.21815665551E+01 -0.17418848932E+01  0.26640877906E+01  0.38603009478E+01  0.10566000000E+00 0.  1.
         14    1    4    4    0    0 -0.10259108099E+02 -0.82892791832E+01  0.15763459214E+02  0.20553542146E+02  0.00000000000E+00 0. -1.
<mgrwt>
<rscale>  0 0.79741498E+02</rscale>
<asrwt>0</asrwt>
<pdfrwt beam="1">  1        1 0.55126732E-02 0.79741498E+02</pdfrwt>
<pdfrwt beam="2">  1       -2 0.68252699E-02 0.79741498E+02</pdfrwt>
<totfact> 0.12584549E+05</totfact>
</mgrwt>
</event>
<event>
 8    1  0.7756875E-018  0.7921269E+02  0.7818608E-02  0.1331301E+00
          1   -1    0    0  501    0  0.00000000000E+00  0.00000000000E+00  0.66324041952E+01  0.66324061102E+01  0.50400000000E-02 0. -1.
         -2   -1    0    0    0  501 -0.00000000000E+00 -0.00000000000E+00 -0.23651490682E+03  0.23651490683E+03  0.25500000000E-02 0.  1.
        -24    2    1    2    0    0  0.00000000000E+00  0.00000000000E+00 -0.22988250262E+03  0.24314731294E+03  0.79212693293E+02 0.  0.
         66    2    3    3    0    0  0.37875243602E+02  0.85026506160E+01 -0.13875696709E+03  0.14409831731E+03  0.19999975555E+01 0.  0.
         13    1    3    3    0    0 -0.37875243602E+02 -0.85026506160E+01 -0.91125535527E+02  0.99048995626E+02  0.10566000000E+00 0. -1.
         13    1    4    4    0    0  0.29461748648E+02  0.66684156655E+01 -0.11045741173E+03  0.11451337638E+03  0.10566000000E+00 0. -1.
        -13    1    4    4    0    0  0.51725230077E+01  0.89509138960E+00 -0.17006223638E+02  0.17798286134E+02  0.10566000000E+00 0.  1.
         14    1    4    4    0    0  0.32409719464E+01  0.93914356090E+00 -0.11293331730E+02  0.11786654799E+02  0.00000000000E+00 0. -1.
<mgrwt>
<rscale>  0 0.79212693E+02</rscale>
<asrwt>0</asrwt>
<pdfrwt beam="1">  1        1 0.10203702E-02 0.79212693E+02</pdfrwt>
<pdfrwt beam="2">  1       -2 0.36386902E-01 0.79212693E+02</pdfrwt>
<totfact> 0.81185839E+04</totfact>
</mgrwt>
</event>
<event>
 8    1  0.7756875E-018  0.7895946E+02  0.7818608E-02  0.1332031E+00
          1   -1    0    0  501    0  0.00000000000E+00  0.00000000000E+00  0.11274136185E+03  0.11274136197E+03  0.50400000000E-02 0. -1.
         -2   -1    0    0    0  501 -0.00000000000E+00 -0.00000000000E+00 -0.13824998079E+02  0.13824998314E+02  0.25500000000E-02 0.  1.
        -24    2    1    2    0    0  0.00000000000E+00  0.00000000000E+00  0.98916363775E+02  0.12656636028E+03  0.78959461322E+02 0.  0.
         66    2    3    3    0    0  0.33403875243E+02 -0.19269209280E+02  0.36124546967E+02  0.52878201601E+02  0.20000008580E+01 0.  0.
         13    1    3    3    0    0 -0.33403875243E+02  0.19269209280E+02  0.62791816808E+02  0.73688158680E+02  0.10566000000E+00 0. -1.
         13    1    4    4    0    0  0.67351894384E+01 -0.34880006354E+01  0.77895984551E+01  0.10872807058E+02  0.10566000000E+00 0. -1.
        -13    1    4    4    0    0  0.19394716958E+02 -0.10967208079E+02  0.19999775598E+02  0.29940555889E+02  0.10566000000E+00 0.  1.
         14    1    4    4    0    0  0.72739688460E+01 -0.48140005658E+01  0.83351729140E+01  0.12064838653E+02  0.00000000000E+00 0. -1.
<mgrwt>
<rscale>  0 0.78959461E+02</rscale>
<asrwt>0</asrwt>
<pdfrwt beam="1">  1        1 0.17344825E-01 0.78959461E+02</pdfrwt>
<pdfrwt beam="2">  1       -2 0.21269228E-02 0.78959461E+02</pdfrwt>
<totfact> 0.15540529E+05</totfact>
</mgrwt>
</event>
<event>
 8    1  0.7756875E-018  0.7787234E+02  0.7818608E-02  0.1335200E+00
         -2   -1    0    0    0  501 -0.00000000000E+00  0.00000000000E+00  0.46072846329E+03  0.46072846329E+03  0.25500000000E-02 0.  1.
          1   -1    0    0  501    0  0.00000000000E+00 -0.00000000000E+00 -0.32904940363E+01  0.32904978961E+01  0.50400000000E-02 0. -1.
        -24    2    1    2    0    0  0.00000000000E+00  0.88817841970E-15  0.45743796925E+03  0.46401896119E+03  0.77872335471E+02 0.  0.
         66    2    3    3    0    0  0.37764320041E+02 -0.62005762513E+01  0.27076271373E+03  0.27346121875E+03  0.20000006985E+01 0.  0.
         13    1    3    3    0    0 -0.37764320041E+02  0.62005762513E+01  0.18667525552E+03  0.19055774244E+03  0.10566000000E+00 0. -1.
         13    1    4    4    0    0  0.18060509900E+02 -0.25799716748E+01  0.12873709514E+03  0.13002341751E+03  0.10566000000E+00 0. -1.
        -13    1    4    4    0    0  0.18743174396E+01 -0.47116395472E-01  0.15059234991E+02  0.15175869279E+02  0.10566000000E+00 0.  1.
        -14    1    4    4    0    0  0.17829492702E+02 -0.35734881810E+01  0.12696638359E+03  0.12826193196E+03  0.00000000000E+00 0.  1.
<mgrwt>
<rscale>  0 0.77872335E+02</rscale>
<asrwt>0</asrwt>
<pdfrwt beam="1">  1        1 0.50623072E-03 0.77872335E+02</pdfrwt>
<pdfrwt beam="2">  1       -2 0.70881222E-01 0.77872335E+02</pdfrwt>
<totfact> 0.57423781E+04</totfact>
</mgrwt>
</event>
<event>
 8    1  0.7756875E-018  0.7996388E+02  0.7818608E-02  0.1329154E+00
         -2   -1    0    0    0  501 -0.00000000000E+00  0.00000000000E+00  0.11792974407E+03  0.11792974410E+03  0.25500000000E-02 0.  1.
          1   -1    0    0  501    0  0.00000000000E+00 -0.00000000000E+00 -0.13555149232E+02  0.13555150169E+02  0.50400000000E-02 0. -1.
        -24    2    1    2    0    0  0.00000000000E+00  0.71054273576E-14  0.10437459484E+03  0.13148489426E+03  0.79963875422E+02 0.  0.
         66    2    3    3    0    0  0.40455045847E+01  0.36371272147E+02  0.25843518313E+02  0.44845545878E+02  0.20000003508E+01 0.  0.
         13    1    3    3    0    0 -0.40455045847E+01 -0.36371272147E+02  0.78531076523E+02  0.86639348386E+02  0.10566000000E+00 0. -1.
         13    1    4    4    0    0  0.77150937044E+00  0.42399508186E+01  0.32769838541E+01  0.54149974024E+01  0.10566000000E+00 0. -1.
        -13    1    4    4    0    0  0.23873739025E+01  0.16258009400E+02  0.11169852502E+02  0.19869554418E+02  0.10566000000E+00 0.  1.
         14    1    4    4    0    0  0.88662131182E+00  0.15873311928E+02  0.11396681956E+02  0.19560994058E+02  0.00000000000E+00 0. -1.
<mgrwt>
<rscale>  0 0.79963875E+02</rscale>
<asrwt>0</asrwt>
<pdfrwt beam="1">  1        1 0.20854076E-02 0.79963875E+02</pdfrwt>
<pdfrwt beam="2">  1       -2 0.18143038E-01 0.79963875E+02</pdfrwt>
<totfact> 0.10175465E+05</totfact>
</mgrwt>
</event>
<event>
 8    1  0.7756875E-018  0.8109890E+02  0.7818608E-02  0.1325962E+00
          1   -1    0    0  501    0  0.00000000000E+00  0.00000000000E+00  0.95529062023E+02  0.95529062156E+02  0.50400000000E-02 0. -1.
         -2   -1    0    0    0  501 -0.00000000000E+00 -0.00000000000E+00 -0.17212122336E+02  0.17212122525E+02  0.25500000000E-02 0.  1.
        -24    2    1    2    0    0 -0.35527136788E-14  0.00000000000E+00  0.78316939687E+02  0.11274118468E+03  0.81098900618E+02 0.  0.
         66    2    3    3    0    0  0.29738969796E+02  0.23858573534E+01  0.10562312649E+01  0.29920131381E+02  0.19999993761E+01 0.  0.
         13    1    3    3    0    0 -0.29738969796E+02 -0.23858573534E+01  0.77260708422E+02  0.82821053301E+02  0.10566000000E+00 0. -1.
         13    1    4    4    0    0  0.11112661715E+02  0.93718043059E+00 -0.38824804028E+00  0.11159366386E+02  0.10566000000E+00 0. -1.
        -13    1    4    4    0    0  0.99392579313E+01  0.47119842059E+00  0.43057319706E+00  0.99602928416E+01  0.10566000000E+00 0.  1.
        -14    1    4    4    0    0  0.86870501496E+01  0.97747850227E+00  0.10139061081E+01  0.88004721533E+01  0.00000000000E+00 0.  1.
<mgrwt>
<rscale>  0 0.81098901E+02</rscale>
<asrwt>0</asrwt>
<pdfrwt beam="1">  1        1 0.14696779E-01 0.81098901E+02</pdfrwt>
<pdfrwt beam="2">  1       -2 0.26480188E-02 0.81098901E+02</pdfrwt>
<totfact> 0.14057730E+05</totfact>
</mgrwt>
</event>
<event>
 8    1  0.7756875E-018  0.7884614E+02  0.7818608E-02  0.1332358E+00
          1   -1    0    0  501    0  0.00000000000E+00  0.00000000000E+00  0.25576327701E+02  0.25576328197E+02  0.50400000000E-02 0. -1.
         -2   -1    0    0    0  501 -0.00000000000E+00 -0.00000000000E+00 -0.60766290299E+02  0.60766290352E+02  0.25500000000E-02 0.  1.
        -24    2    1    2    0    0  0.00000000000E+00  0.00000000000E+00 -0.35189962598E+02  0.86342618550E+02  0.78846143281E+02 0.  0.
         66    2    3    3    0    0  0.13141999361E+02 -0.34163012370E+02 -0.33563995498E+02  0.49702770100E+02  0.20000000901E+01 0.  0.
         13    1    3    3    0    0 -0.13141999361E+02  0.34163012370E+02 -0.16259670998E+01  0.36639848450E+02  0.10566000000E+00 0. -1.
         13    1    4    4    0    0  0.17808373754E+01 -0.50059443775E+01 -0.41193808412E+01  0.67239366013E+01  0.10566000000E+00 0. -1.
        -13    1    4    4    0    0  0.76580827525E+00 -0.14356425269E+01 -0.14943938871E+01  0.22117660149E+01  0.10566000000E+00 0. -1.
        -14    1    4    4    0    0  0.10595353710E+02 -0.27721425466E+02 -0.27950220770E+02  0.40767067483E+02  0.00000000000E+00 0.  1.
<mgrwt>
<rscale>  0 0.78846143E+02</rscale>
<asrwt>0</asrwt>
<pdfrwt beam="1">  1        1 0.39348197E-02 0.78846143E+02</pdfrwt>
<pdfrwt beam="2">  1       -2 0.93486600E-02 0.78846143E+02</pdfrwt>
<totfact> 0.12253050E+05</totfact>
</mgrwt>
</event>
<event>
 8    1  0.7756875E-018  0.8111419E+02  0.7818608E-02  0.1325919E+00
         -2   -1    0    0    0  501 -0.00000000000E+00  0.00000000000E+00  0.30782798155E+03  0.30782798156E+03  0.25500000000E-02 0.  1.
          1   -1    0    0  501    0  0.00000000000E+00 -0.00000000000E+00 -0.53434959921E+01  0.53434983690E+01  0.50400000000E-02 0. -1.
        -24    2    1    2    0    0 -0.35527136788E-14  0.17763568394E-14  0.30248448556E+03  0.31317147993E+03  0.81114190115E+02 0.  0.
         66    2    3    3    0    0 -0.15811780522E+02 -0.12760863586E+02  0.28674109080E+03  0.28746705064E+03  0.20000011167E+01 0.  0.
         13    1    3    3    0    0  0.15811780522E+02  0.12760863586E+02  0.15743394752E+02  0.25704429289E+02  0.10566000000E+00 0. -1.
         13    1    4    4    0    0 -0.17245313986E+01 -0.12987546686E+01  0.32966445636E+02  0.33037228609E+02  0.10566000000E+00 0.  1.
        -13    1    4    4    0    0 -0.48474055435E+01 -0.39019728803E+01  0.98981903353E+02  0.99177371856E+02  0.10566000000E+00 0. -1.
        -14    1    4    4    0    0 -0.92398435800E+01 -0.75601360370E+01  0.15479274181E+03  0.15525245017E+03  0.00000000000E+00 0.  1.
<mgrwt>
<rscale>  0 0.81114190E+02</rscale>
<asrwt>0</asrwt>
<pdfrwt beam="1">  1        1 0.82207648E-03 0.81114190E+02</pdfrwt>
<pdfrwt beam="2">  1       -2 0.47358152E-01 0.81114190E+02</pdfrwt>
<totfact> 0.66849822E+04</totfact>
</mgrwt>
</event>
<event>
 8    1  0.7839820E-018  0.8113656E+02  0.7818608E-02  0.1325857E+00
          1   -1    0    0  501    0  0.00000000000E+00  0.00000000000E+00  0.11505165593E+02  0.11505166697E+02  0.50400000000E-02 0. -1.
         -2   -1    0    0    0  501 -0.00000000000E+00 -0.00000000000E+00 -0.14304749820E+03  0.14304749822E+03  0.25500000000E-02 0.  1.
        -24    2    1    2    0    0  0.00000000000E+00  0.00000000000E+00 -0.13154233260E+03  0.15455266491E+03  0.81136557518E+02 0.  0.
         66    2    3    3    0    0  0.16916893418E+02  0.54336423111E+01 -0.13522886562E+03  0.13640583485E+03  0.19999832719E+01 0.  0.
         13    1    3    3    0    0 -0.16916893418E+02 -0.54336423111E+01  0.36865330162E+01  0.18146830065E+02  0.10566000000E+00 0. -1.
         13    1    4    4    0    0  0.38419787994E+00  0.15752471094E+00 -0.20131535897E+01  0.20582452373E+01  0.10566000000E+00 0. -1.
        -13    1    4    4    0    0  0.83439923580E+01  0.32583777326E+01 -0.66264344829E+02  0.66867135378E+02  0.10566000000E+00 0.  1.
         14    1    4    4    0    0  0.81887031799E+01  0.20177398676E+01 -0.66951367199E+02  0.67480454235E+02  0.00000000000E+00 0. -1.
<mgrwt>
<rscale>  0 0.81136558E+02</rscale>
<asrwt>0</asrwt>
<pdfrwt beam="1">  1        1 0.17700257E-02 0.81136558E+02</pdfrwt>
<pdfrwt beam="2">  1       -2 0.22007306E-01 0.81136558E+02</pdfrwt>
<totfact> 0.92549515E+04</totfact>
</mgrwt>
</event>
<event>
 8    1  0.7756875E-018  0.8568221E+02  0.7818608E-02  0.1313658E+00
          1   -1    0    0  501    0  0.00000000000E+00  0.00000000000E+00  0.23130235599E+03  0.23130235604E+03  0.50400000000E-02 0. -1.
         -2   -1    0    0    0  501 -0.00000000000E+00 -0.00000000000E+00 -0.79348959357E+01  0.79348963454E+01  0.25500000000E-02 0.  1.
        -24    2    1    2    0    0  0.00000000000E+00  0.00000000000E+00  0.22336746005E+03  0.23923725239E+03  0.85682207722E+02 0.  0.
         66    2    3    3    0    0 -0.31384955175E+02  0.24565162322E+02  0.68049996470E+02  0.78887670945E+02  0.19999990942E+01 0.  0.
         13    1    3    3    0    0  0.31384955175E+02 -0.24565162322E+02  0.15531746358E+03  0.16034958144E+03  0.10566000000E+00 0. -1.
         13    1    4    4    0    0 -0.71097514266E+01  0.60023780363E+01  0.15151858258E+02  0.17781087710E+02  0.10566000000E+00 0. -1.
        -13    1    4    4    0    0 -0.36355181872E+01  0.33919283740E+01  0.88706941038E+01  0.10169687729E+02  0.10566000000E+00 0.  1.
         14    1    4    4    0    0 -0.20639685561E+02  0.15170855912E+02  0.44027444108E+02  0.50936895507E+02  0.00000000000E+00 0. -1.
<mgrwt>
<rscale>  0 0.85682208E+02</rscale>
<asrwt>0</asrwt>
<pdfrwt beam="1">  1        1 0.35584975E-01 0.85682208E+02</pdfrwt>
<pdfrwt beam="2">  1       -2 0.12207534E-02 0.85682208E+02</pdfrwt>
<totfact> 0.14293722E+05</totfact>
</mgrwt>
</event>
<event>
 8    1  0.7756875E-018  0.7958384E+02  0.7818608E-02  0.1330237E+00
         -2   -1    0    0    0  501 -0.00000000000E+00  0.00000000000E+00  0.76832198348E+02  0.76832198390E+02  0.25500000000E-02 0.  1.
          1   -1    0    0  501    0  0.00000000000E+00 -0.00000000000E+00 -0.20608505733E+02  0.20608506350E+02  0.50400000000E-02 0. -1.
        -24    2    1    2    0    0  0.00000000000E+00 -0.17763568394E-14  0.56223692615E+02  0.97440704740E+02  0.79583838366E+02 0.  0.
         66    2    3    3    0    0  0.37974541467E+02  0.99341698839E+01  0.35934742392E+02  0.53254664002E+02  0.19999990755E+01 0.  0.
         13    1    3    3    0    0 -0.37974541467E+02 -0.99341698839E+01  0.20288950223E+02  0.44186040738E+02  0.10566000000E+00 0. -1.
         13    1    4    4    0    0  0.20527381096E+01  0.72652895305E+00  0.25447104929E+01  0.33508646040E+01  0.10566000000E+00 0. -1.
        -13    1    4    4    0    0  0.18063309644E+02  0.45618364158E+01  0.17142735960E+02  0.25317544648E+02  0.10566000000E+00 0.  1.
         14    1    4    4    0    0  0.17858493714E+02  0.46458045151E+01  0.16247295939E+02  0.24586254750E+02  0.00000000000E+00 0. -1.
<mgrwt>
<rscale>  0 0.79583838E+02</rscale>
<asrwt>0</asrwt>
<pdfrwt beam="1">  1        1 0.31705394E-02 0.79583838E+02</pdfrwt>
<pdfrwt beam="2">  1       -2 0.11820338E-01 0.79583838E+02</pdfrwt>
<totfact> 0.11423545E+05</totfact>
</mgrwt>
</event>
<event>
 8    1  0.7756875E-018  0.8034399E+02  0.7818608E-02  0.1328078E+00
          1   -1    0    0  501    0  0.00000000000E+00  0.00000000000E+00  0.20710630288E+02  0.20710630901E+02  0.50400000000E-02 0. -1.
         -2   -1    0    0    0  501 -0.00000000000E+00 -0.00000000000E+00 -0.77920804374E+02  0.77920804415E+02  0.25500000000E-02 0.  1.
        -24    2    1    2    0    0  0.88817841970E-15  0.00000000000E+00 -0.57210174086E+02  0.98631435316E+02  0.80343985547E+02 0.  0.
         66    2    3    3    0    0  0.53704661867E+01 -0.33942280668E+02 -0.54104670958E+02  0.64126716252E+02  0.19999984725E+01 0.  0.
         13    1    3    3    0    0 -0.53704661867E+01  0.33942280668E+02 -0.31055031284E+01  0.34504719064E+02  0.10566000000E+00 0. -1.
         13    1    4    4    0    0  0.36164567817E+00 -0.15812455095E+01 -0.22159647750E+01  0.27482337742E+01  0.10566000000E+00 0. -1.
        -13    1    4    4    0    0  0.10204454610E+01 -0.11555308211E+02 -0.18412338747E+02  0.21762165310E+02  0.10566000000E+00 0.  1.
        -14    1    4    4    0    0  0.39883750475E+01 -0.20805726947E+02 -0.33476367435E+02  0.39616317168E+02  0.00000000000E+00 0.  1.
<mgrwt>
<rscale>  0 0.80343986E+02</rscale>
<asrwt>0</asrwt>
<pdfrwt beam="1">  1        1 0.31862509E-02 0.80343986E+02</pdfrwt>
<pdfrwt beam="2">  1       -2 0.11987816E-01 0.80343986E+02</pdfrwt>
<totfact> 0.11117141E+05</totfact>
</mgrwt>
</event>
<event>
 8    1  0.7756875E-018  0.7976353E+02  0.7818608E-02  0.1329724E+00
         -2   -1    0    0    0  501 -0.00000000000E+00  0.00000000000E+00  0.32546508214E+02  0.32546508314E+02  0.25500000000E-02 0.  1.
          1   -1    0    0  501    0  0.00000000000E+00 -0.00000000000E+00 -0.48870225445E+02  0.48870225705E+02  0.50400000000E-02 0. -1.
        -24    2    1    2    0    0  0.00000000000E+00  0.44408920985E-15 -0.16323717231E+02  0.81416734019E+02  0.79763530727E+02 0.  0.
         66    2    3    3    0    0 -0.23344733023E+02  0.18473498063E+01  0.24753006200E+02  0.34133569646E+02  0.19999999120E+01 0.  0.
         13    1    3    3    0    0  0.23344733023E+02 -0.18473498063E+01 -0.41076723431E+02  0.47283164372E+02  0.10566000000E+00 0. -1.
         13    1    4    4    0    0 -0.44383912133E+01  0.15041816710E+00  0.53429559139E+01  0.69484015514E+01  0.10566000000E+00 0. -1.
        -13    1    4    4    0    0 -0.74684432008E+01  0.10690487262E+01  0.69282458267E+01  0.10243645020E+02  0.10566000000E+00 0.  1.
        -14    1    4    4    0    0 -0.11437898609E+02  0.62788291301E+00  0.12481804459E+02  0.16941523075E+02  0.00000000000E+00 0.  1.
<mgrwt>
<rscale>  0 0.79763531E+02</rscale>
<asrwt>0</asrwt>
<pdfrwt beam="1">  1        1 0.75184963E-02 0.79763531E+02</pdfrwt>
<pdfrwt beam="2">  1       -2 0.50071551E-02 0.79763531E+02</pdfrwt>
<totfact> 0.13218369E+05</totfact>
</mgrwt>
</event>
<event>
 8    1  0.7756875E-018  0.7859178E+02  0.7818608E-02  0.1333096E+00
          1   -1    0    0  501    0  0.00000000000E+00  0.00000000000E+00  0.21548632055E+03  0.21548632061E+03  0.50400000000E-02 0. -1.
         -2   -1    0    0    0  501 -0.00000000000E+00 -0.00000000000E+00 -0.71659630257E+01  0.71659634794E+01  0.25500000000E-02 0.  1.
        -24    2    1    2    0    0  0.35527136788E-14  0.71054273576E-14  0.20832035752E+03  0.22265228408E+03  0.78591782335E+02 0.  0.
         66    2    3    3    0    0 -0.15775195150E+02 -0.35489749626E+02  0.87761023141E+02  0.95991542808E+02  0.19999993668E+01 0.  0.
         13    1    3    3    0    0  0.15775195150E+02  0.35489749626E+02  0.12055933438E+03  0.12666074128E+03  0.10566000000E+00 0. -1.
         13    1    4    4    0    0 -0.58228081775E-01 -0.17427639808E+00  0.56759240175E+00  0.60587782808E+00  0.10566000000E+00 0.  1.
        -13    1    4    4    0    0 -0.35130053338E+01 -0.91935842334E+01  0.22286967807E+02  0.24363564919E+02  0.10566000000E+00 0.  1.
        -14    1    4    4    0    0 -0.12203961735E+02 -0.26121888994E+02  0.64906462932E+02  0.71022100061E+02  0.00000000000E+00 0.  1.
<mgrwt>
<rscale>  0 0.78591782E+02</rscale>
<asrwt>0</asrwt>
<pdfrwt beam="1">  1        1 0.33151737E-01 0.78591782E+02</pdfrwt>
<pdfrwt beam="2">  1       -2 0.11024560E-02 0.78591782E+02</pdfrwt>
<totfact> 0.17732474E+05</totfact>
</mgrwt>
</event>
<event>
 8    1  0.7756875E-018  0.7937747E+02  0.7818608E-02  0.1330827E+00
         -2   -1    0    0    0  501 -0.00000000000E+00  0.00000000000E+00  0.51632467242E+01  0.51632473539E+01  0.25500000000E-02 0.  1.
          1   -1    0    0  501    0  0.00000000000E+00 -0.00000000000E+00 -0.30507851056E+03  0.30507851060E+03  0.50400000000E-02 0. -1.
        -24    2    1    2    0    0  0.00000000000E+00  0.35527136788E-14 -0.29991526383E+03  0.31024175795E+03  0.79377470970E+02 0.  0.
         66    2    3    3    0    0  0.23284620642E+02  0.31907611413E+02 -0.16410204701E+03  0.16880092138E+03  0.19999997633E+01 0.  0.
         13    1    3    3    0    0 -0.23284620642E+02 -0.31907611413E+02 -0.13581321682E+03  0.14144083658E+03  0.10566000000E+00 0. -1.
         13    1    4    4    0    0  0.40601690753E+01  0.45981869879E+01 -0.26718815467E+02  0.27414130672E+02  0.10566000000E+00 0. -1.
        -13    1    4    4    0    0  0.18025201458E+02  0.25786579985E+02 -0.13006901633E+03  0.13382008731E+03  0.10566000000E+00 0.  1.
        -14    1    4    4    0    0  0.11992501083E+01  0.15228444402E+01 -0.73142152179E+01  0.75667033948E+01  0.00000000000E+00 0.  1.
<mgrwt>
<rscale>  0 0.79377471E+02</rscale>
<asrwt>0</asrwt>
<pdfrwt beam="1">  1        1 0.46935141E-01 0.79377471E+02</pdfrwt>
<pdfrwt beam="2">  1       -2 0.79434594E-03 0.79377471E+02</pdfrwt>
<totfact> 0.18475583E+05</totfact>
</mgrwt>
</event>
<event>
 8    1  0.7756875E-018  0.8143844E+02  0.7818608E-02  0.1325018E+00
          1   -1    0    0  501    0  0.00000000000E+00  0.00000000000E+00  0.15218355910E+03  0.15218355918E+03  0.50400000000E-02 0. -1.
         -2   -1    0    0    0  501 -0.00000000000E+00 -0.00000000000E+00 -0.10895099512E+02  0.10895099811E+02  0.25500000000E-02 0.  1.
        -24    2    1    2    0    0  0.00000000000E+00  0.71054273576E-14  0.14128845958E+03  0.16307865899E+03  0.81438444279E+02 0.  0.
         66    2    3    3    0    0  0.19624617515E+02  0.33121294390E+02  0.44279488389E+02  0.58709614677E+02  0.20000021872E+01 0.  0.
         13    1    3    3    0    0 -0.19624617515E+02 -0.33121294390E+02  0.97008971194E+02  0.10436904431E+03  0.10566000000E+00 0. -1.
         13    1    4    4    0    0  0.92275230237E+00  0.16540870420E+01  0.23535469578E+01  0.30228832383E+01  0.10566000000E+00 0.  1.
        -13    1    4    4    0    0  0.28391225300E+01  0.61386128959E+01  0.77590208166E+01  0.10293529671E+02  0.10566000000E+00 0.  1.
         14    1    4    4    0    0  0.15862742683E+02  0.25328594452E+02  0.34166920615E+02  0.45393201767E+02  0.00000000000E+00 0. -1.
<mgrwt>
<rscale>  0 0.81438444E+02</rscale>
<asrwt>0</asrwt>
<pdfrwt beam="1">  1        1 0.23412854E-01 0.81438444E+02</pdfrwt>
<pdfrwt beam="2">  1       -2 0.16761693E-02 0.81438444E+02</pdfrwt>
<totfact> 0.15093993E+05</totfact>
</mgrwt>
</event>
<event>
 8    1  0.7756875E-018  0.8355444E+02  0.7818608E-02  0.1319257E+00
          1   -1    0    0  501    0  0.00000000000E+00  0.00000000000E+00  0.86880275316E+02  0.86880275463E+02  0.50400000000E-02 0. -1.
         -2   -1    0    0    0  501 -0.00000000000E+00 -0.00000000000E+00 -0.20088980267E+02  0.20088980429E+02  0.25500000000E-02 0.  1.
        -24    2    1    2    0    0  0.00000000000E+00  0.00000000000E+00  0.66791295050E+02  0.10696925589E+03  0.83554441004E+02 0.  0.
         66    2    3    3    0    0 -0.25483005911E+02  0.12021999141E+02 -0.60326745747E+01  0.28884342051E+02  0.19999998961E+01 0.  0.
         13    1    3    3    0    0  0.25483005911E+02 -0.12021999141E+02  0.72823969624E+02  0.78084913841E+02  0.10566000000E+00 0. -1.
         13    1    4    4    0    0 -0.73414267218E+01  0.31907065837E+01 -0.11681684588E+01  0.80902989066E+01  0.10566000000E+00 0.  1.
        -13    1    4    4    0    0 -0.17149509052E+01  0.53511698217E+00 -0.66245174579E+00  0.19176582446E+01  0.10566000000E+00 0.  1.
         14    1    4    4    0    0 -0.16426628284E+02  0.82961755747E+01 -0.42020543701E+01  0.18876384900E+02  0.00000000000E+00 0. -1.
<mgrwt>
<rscale>  0 0.83554441E+02</rscale>
<asrwt>0</asrwt>
<pdfrwt beam="1">  1        1 0.13366196E-01 0.83554441E+02</pdfrwt>
<pdfrwt beam="2">  1       -2 0.30906123E-02 0.83554441E+02</pdfrwt>
<totfact> 0.12756784E+05</totfact>
</mgrwt>
</event>
<event>
 8    1  0.7756875E-018  0.8086998E+02  0.7818608E-02  0.1326601E+00
          1   -1    0    0  501    0  0.00000000000E+00  0.00000000000E+00  0.45159018954E+02  0.45159019235E+02  0.50400000000E-02 0. -1.
         -2   -1    0    0    0  501 -0.00000000000E+00 -0.00000000000E+00 -0.36205136535E+02  0.36205136624E+02  0.25500000000E-02 0.  1.
        -24    2    1    2    0    0  0.35527136788E-14 -0.35527136788E-14  0.89538824190E+01  0.81364155859E+02  0.80869981132E+02 0.  0.
         66    2    3    3    0    0 -0.27537159836E+02  0.23431472413E+02  0.22635842920E+02  0.42704923088E+02  0.19999999904E+01 0.  0.
         13    1    3    3    0    0  0.27537159836E+02 -0.23431472413E+02 -0.13681960501E+02  0.38659232771E+02  0.10566000000E+00 0. -1.
         13    1    4    4    0    0 -0.14358708951E+02  0.11987506632E+02  0.11316315337E+02  0.21861907393E+02  0.10566000000E+00 0. -1.
        -13    1    4    4    0    0 -0.10092423676E+02  0.81169277762E+01  0.80469434600E+01  0.15248147273E+02  0.10566000000E+00 0.  1.
         14    1    4    4    0    0 -0.30860272087E+01  0.33270380043E+01  0.32725841231E+01  0.55948684219E+01  0.00000000000E+00 0. -1.
<mgrwt>
<rscale>  0 0.80869981E+02</rscale>
<asrwt>0</asrwt>
<pdfrwt beam="1">  1        1 0.69475414E-02 0.80869981E+02</pdfrwt>
<pdfrwt beam="2">  1       -2 0.55700211E-02 0.80869981E+02</pdfrwt>
<totfact> 0.12560936E+05</totfact>
</mgrwt>
</event>
<event>
 8    1  0.7756875E-018  0.7898884E+02  0.7818608E-02  0.1331946E+00
         -2   -1    0    0    0  501 -0.00000000000E+00  0.00000000000E+00  0.22194932194E+02  0.22194932341E+02  0.25500000000E-02 0.  1.
          1   -1    0    0  501    0  0.00000000000E+00 -0.00000000000E+00 -0.70277722271E+02  0.70277722452E+02  0.50400000000E-02 0. -1.
        -24    2    1    2    0    0  0.00000000000E+00  0.35527136788E-14 -0.48082790077E+02  0.92472654793E+02  0.78988842142E+02 0.  0.
         66    2    3    3    0    0 -0.19785166753E+02  0.13847825588E+02  0.12490794872E+02  0.27262337706E+02  0.20000009260E+01 0.  0.
         13    1    3    3    0    0  0.19785166753E+02 -0.13847825588E+02 -0.60573584949E+02  0.65210317087E+02  0.10566000000E+00 0. -1.
         13    1    4    4    0    0 -0.14335586097E+01  0.13522976367E+01  0.88035497815E+00  0.21610155272E+01  0.10566000000E+00 0. -1.
        -13    1    4    4    0    0 -0.66406776402E+01  0.54148283766E+01  0.45531622898E+01  0.97036805771E+01  0.10566000000E+00 0.  1.
         14    1    4    4    0    0 -0.11710930503E+02  0.70806995746E+01  0.70572776044E+01  0.15397641602E+02  0.00000000000E+00 0. -1.
<mgrwt>
<rscale>  0 0.78988842E+02</rscale>
<asrwt>0</asrwt>
<pdfrwt beam="1">  1        1 0.10811957E-01 0.78988842E+02</pdfrwt>
<pdfrwt beam="2">  1       -2 0.34146050E-02 0.78988842E+02</pdfrwt>
<totfact> 0.14370686E+05</totfact>
</mgrwt>
</event>
<event>
 8    1  0.7756875E-018  0.7780311E+02  0.7818608E-02  0.1335404E+00
         -2   -1    0    0    0  501 -0.00000000000E+00  0.00000000000E+00  0.10505567987E+02  0.10505568297E+02  0.25500000000E-02 0.  1.
          1   -1    0    0  501    0  0.00000000000E+00 -0.00000000000E+00 -0.14405035379E+03  0.14405035387E+03  0.50400000000E-02 0. -1.
        -24    2    1    2    0    0  0.00000000000E+00  0.00000000000E+00 -0.13354478580E+03  0.15455592217E+03  0.77803105748E+02 0.  0.
         66    2    3    3    0    0 -0.13187901385E+02 -0.33235454213E+02 -0.97126626466E+02  0.10351858630E+03  0.19999952337E+01 0.  0.
         13    1    3    3    0    0  0.13187901385E+02  0.33235454213E+02 -0.36418159333E+02  0.51037335872E+02  0.10566000000E+00 0. -1.
         13    1    4    4    0    0 -0.28770916695E+01 -0.65231189650E+01 -0.21036512573E+02  0.22212040942E+02  0.10566000000E+00 0. -1.
        -13    1    4    4    0    0 -0.36297870912E+01 -0.83604024841E+01 -0.23284588798E+02  0.25005097951E+02  0.10566000000E+00 0.  1.
         14    1    4    4    0    0 -0.66810226242E+01 -0.18351932764E+02 -0.52805525094E+02  0.56301447406E+02  0.00000000000E+00 0. -1.
<mgrwt>
<rscale>  0 0.77803106E+02</rscale>
<asrwt>0</asrwt>
<pdfrwt beam="1">  1        1 0.22161592E-01 0.77803106E+02</pdfrwt>
<pdfrwt beam="2">  1       -2 0.16162414E-02 0.77803106E+02</pdfrwt>
<totfact> 0.16881122E+05</totfact>
</mgrwt>
</event>
<event>
 8    1  0.7756875E-018  0.8516623E+02  0.7818608E-02  0.1314998E+00
          1   -1    0    0  501    0  0.00000000000E+00  0.00000000000E+00  0.16548092367E+03  0.16548092374E+03  0.50400000000E-02 0. -1.
         -2   -1    0    0    0  501 -0.00000000000E+00 -0.00000000000E+00 -0.10957890573E+02  0.10957890870E+02  0.25500000000E-02 0.  1.
        -24    2    1    2    0    0  0.00000000000E+00 -0.88817841970E-15  0.15452303309E+03  0.17643881461E+03  0.85166234775E+02 0.  0.
         66    2    3    3    0    0 -0.37553104568E+02  0.58593077490E+01  0.37629496252E+02  0.53521455101E+02  0.20000045089E+01 0.  0.
         13    1    3    3    0    0  0.37553104568E+02 -0.58593077490E+01  0.11689353684E+03  0.12291735951E+03  0.10566000000E+00 0. -1.
         13    1    4    4    0    0 -0.52500432399E+01  0.34984080736E+00  0.53613767125E+01  0.75127136841E+01  0.10566000000E+00 0. -1.
        -13    1    4    4    0    0 -0.23990522568E+02  0.42736567095E+01  0.24744315880E+02  0.34728974174E+02  0.10566000000E+00 0.  1.
        -14    1    4    4    0    0 -0.83125387598E+01  0.12358102321E+01  0.75238036591E+01  0.11279767243E+02  0.00000000000E+00 0.  1.
<mgrwt>
<rscale>  0 0.85166235E+02</rscale>
<asrwt>0</asrwt>
<pdfrwt beam="1">  1        1 0.25458601E-01 0.85166235E+02</pdfrwt>
<pdfrwt beam="2">  1       -2 0.16858295E-02 0.85166235E+02</pdfrwt>
<totfact> 0.13600907E+05</totfact>
</mgrwt>
</event>
<event>
 8    1  0.7756875E-018  0.7823604E+02  0.7818608E-02  0.1334133E+00
         -2   -1    0    0    0  501 -0.00000000000E+00  0.00000000000E+00  0.22556863568E+02  0.22556863712E+02  0.25500000000E-02 0.  1.
          1   -1    0    0  501    0  0.00000000000E+00 -0.00000000000E+00 -0.67838316605E+02  0.67838316792E+02  0.50400000000E-02 0. -1.
        -24    2    1    2    0    0  0.00000000000E+00  0.00000000000E+00 -0.45281453038E+02  0.90395180504E+02  0.78236044565E+02 0.  0.
         66    2    3    3    0    0  0.21713684007E+02  0.86703178728E+01  0.13543470155E+02  0.27093985904E+02  0.20000007984E+01 0.  0.
         13    1    3    3    0    0 -0.21713684007E+02 -0.86703178728E+01 -0.58824923193E+02  0.63301194600E+02  0.10566000000E+00 0. -1.
         13    1    4    4    0    0  0.13997954696E+02  0.62869923175E+01  0.81564034339E+01  0.17378351161E+02  0.10566000000E+00 0. -1.
        -13    1    4    4    0    0  0.53475703123E+01  0.15885844839E+01  0.39171543110E+01  0.68172847116E+01  0.10566000000E+00 0.  1.
         14    1    4    4    0    0  0.23681589986E+01  0.79474107143E+00  0.14699124100E+01  0.28983500317E+01  0.00000000000E+00 0. -1.
<mgrwt>
<rscale>  0 0.78236045E+02</rscale>
<asrwt>0</asrwt>
<pdfrwt beam="1">  1        1 0.10436664E-01 0.78236045E+02</pdfrwt>
<pdfrwt beam="2">  1       -2 0.34702868E-02 0.78236045E+02</pdfrwt>
<totfact> 0.14670561E+05</totfact>
</mgrwt>
</event>
<event>
 8    1  0.7756875E-018  0.7973220E+02  0.7818608E-02  0.1329813E+00
          1   -1    0    0  501    0  0.00000000000E+00  0.00000000000E+00  0.73458536854E+02  0.73458537027E+02  0.50400000000E-02 0. -1.
         -2   -1    0    0    0  501 -0.00000000000E+00 -0.00000000000E+00 -0.21635413276E+02  0.21635413426E+02  0.25500000000E-02 0.  1.
        -24    2    1    2    0    0  0.00000000000E+00  0.00000000000E+00  0.51823123578E+02  0.95093950453E+02  0.79732197232E+02 0.  0.
         66    2    3    3    0    0  0.26132563968E+02 -0.13544297351E+02 -0.60957180512E+01  0.30125017339E+02  0.20000002060E+01 0.  0.
         13    1    3    3    0    0 -0.26132563968E+02  0.13544297351E+02  0.57918841630E+02  0.64968933115E+02  0.10566000000E+00 0. -1.
         13    1    4    4    0    0  0.28481578156E+01 -0.10364325813E+01 -0.62178304818E+00  0.30957993528E+01  0.10566000000E+00 0. -1.
        -13    1    4    4    0    0  0.18253834767E+02 -0.92764566327E+01 -0.38659486583E+01  0.20837750705E+02  0.10566000000E+00 0.  1.
        -14    1    4    4    0    0  0.50305713851E+01 -0.32314081373E+01 -0.16079863447E+01  0.61914672812E+01  0.00000000000E+00 0.  1.
<mgrwt>
<rscale>  0 0.79732197E+02</rscale>
<asrwt>0</asrwt>
<pdfrwt beam="1">  1        1 0.11301313E-01 0.79732197E+02</pdfrwt>
<pdfrwt beam="2">  1       -2 0.33285252E-02 0.79732197E+02</pdfrwt>
<totfact> 0.14105829E+05</totfact>
</mgrwt>
</event>
<event>
 8    1  0.7756875E-018  0.8035307E+02  0.7818608E-02  0.1328052E+00
          1   -1    0    0  501    0  0.00000000000E+00  0.00000000000E+00  0.91428795318E+01  0.91428809210E+01  0.50400000000E-02 0. -1.
         -2   -1    0    0    0  501 -0.00000000000E+00 -0.00000000000E+00 -0.17654766443E+03  0.17654766444E+03  0.25500000000E-02 0.  1.
        -24    2    1    2    0    0 -0.17763568394E-14 -0.71054273576E-14 -0.16740478489E+03  0.18569054537E+03  0.80353074818E+02 0.  0.
         66    2    3    3    0    0 -0.76687869858E+01 -0.39293149013E+02 -0.90834517034E+02  0.99285806274E+02  0.19999973708E+01 0.  0.
         13    1    3    3    0    0  0.76687869858E+01  0.39293149013E+02 -0.76570267860E+02  0.86404739091E+02  0.10566000000E+00 0. -1.
         13    1    4    4    0    0 -0.65678572768E+01 -0.33546212966E+02 -0.77007161539E+02  0.84253185376E+02  0.10566000000E+00 0. -1.
        -13    1    4    4    0    0 -0.64718648686E+00 -0.36390117943E+01 -0.78229775455E+01  0.86528260644E+01  0.10566000000E+00 0.  1.
         14    1    4    4    0    0 -0.45374322218E+00 -0.21079242533E+01 -0.60043779490E+01  0.63797948340E+01  0.00000000000E+00 0. -1.
<mgrwt>
<rscale>  0 0.80353075E+02</rscale>
<asrwt>0</asrwt>
<pdfrwt beam="1">  1        1 0.14065971E-02 0.80353075E+02</pdfrwt>
<pdfrwt beam="2">  1       -2 0.27161177E-01 0.80353075E+02</pdfrwt>
<totfact> 0.88284366E+04</totfact>
</mgrwt>
</event>
<event>
 8    1  0.7756875E-018  0.7993120E+02  0.7818608E-02  0.1329247E+00
          1   -1    0    0  501    0  0.00000000000E+00  0.00000000000E+00  0.86735703695E+01  0.86735718339E+01  0.50400000000E-02 0. -1.
         -2   -1    0    0    0  501 -0.00000000000E+00 -0.00000000000E+00 -0.18415128870E+03  0.18415128872E+03  0.25500000000E-02 0.  1.
        -24    2    1    2    0    0 -0.17763568394E-14 -0.88817841970E-15 -0.17547771833E+03  0.19282486055E+03  0.79931203020E+02 0.  0.
         66    2    3    3    0    0 -0.11123121309E+02 -0.73462404326E+01 -0.17862092983E+03  0.17912880204E+03  0.20000177084E+01 0.  0.
         13    1    3    3    0    0  0.11123121309E+02  0.73462404326E+01  0.31432115004E+01  0.13696058511E+02  0.10566000000E+00 0. -1.
         13    1    4    4    0    0 -0.41174452825E+01 -0.24372569583E+01 -0.71701696372E+02  0.71861241318E+02  0.10566000000E+00 0. -1.
        -13    1    4    4    0    0 -0.40056491331E+01 -0.21574246464E+01 -0.53184022102E+02  0.53378376494E+02  0.10566000000E+00 0.  1.
        -14    1    4    4    0    0 -0.30000268936E+01 -0.27515588278E+01 -0.53735211355E+02  0.53889184228E+02  0.00000000000E+00 0.  1.
<mgrwt>
<rscale>  0 0.79931203E+02</rscale>
<asrwt>0</asrwt>
<pdfrwt beam="1">  1        1 0.13343957E-02 0.79931203E+02</pdfrwt>
<pdfrwt beam="2">  1       -2 0.28330965E-01 0.79931203E+02</pdfrwt>
<totfact> 0.88082179E+04</totfact>
</mgrwt>
</event>
<event>
 8    1  0.7756875E-018  0.7955776E+02  0.7818608E-02  0.1330311E+00
         -2   -1    0    0    0  501 -0.00000000000E+00  0.00000000000E+00  0.92747947506E+01  0.92747951012E+01  0.25500000000E-02 0.  1.
          1   -1    0    0  501    0  0.00000000000E+00 -0.00000000000E+00 -0.17060856474E+03  0.17060856481E+03  0.50400000000E-02 0. -1.
        -24    2    1    2    0    0  0.00000000000E+00  0.00000000000E+00 -0.16133376999E+03  0.17988335991E+03  0.79557764143E+02 0.  0.
         66    2    3    3    0    0  0.22671316984E+02 -0.29550072162E+02 -0.11214205222E+03  0.11818221211E+03  0.20000014947E+01 0.  0.
         13    1    3    3    0    0 -0.22671316984E+02  0.29550072162E+02 -0.49191717769E+02  0.61701147799E+02  0.10566000000E+00 0. -1.
         13    1    4    4    0    0  0.24837235827E+01 -0.24985666234E+01 -0.10584678850E+02  0.11156088401E+02  0.10566000000E+00 0.  1.
        -13    1    4    4    0    0  0.12220037504E+02 -0.16456833138E+02 -0.59868761080E+02  0.63280616233E+02  0.10566000000E+00 0.  1.
        -14    1    4    4    0    0  0.79675558981E+01 -0.10594672401E+02 -0.41688612287E+02  0.43745507480E+02  0.00000000000E+00 0.  1.
<mgrwt>
<rscale>  0 0.79557764E+02</rscale>
<asrwt>0</asrwt>
<pdfrwt beam="1">  1        1 0.26247469E-01 0.79557764E+02</pdfrwt>
<pdfrwt beam="2">  1       -2 0.14268917E-02 0.79557764E+02</pdfrwt>
<totfact> 0.16413287E+05</totfact>
</mgrwt>
</event>
<event>
 8    1  0.7756875E-018  0.8013683E+02  0.7818608E-02  0.1328664E+00
         -2   -1    0    0    0  501 -0.00000000000E+00  0.00000000000E+00  0.69416513728E+02  0.69416513775E+02  0.25500000000E-02 0.  1.
          1   -1    0    0  501    0  0.00000000000E+00 -0.00000000000E+00 -0.23128181362E+02  0.23128181911E+02  0.50400000000E-02 0. -1.
        -24    2    1    2    0    0  0.00000000000E+00  0.88817841970E-15  0.46288332366E+02  0.92544695686E+02  0.80136826655E+02 0.  0.
         66    2    3    3    0    0  0.39286604030E+02  0.45013477810E+01  0.30441632174E+02  0.49943892183E+02  0.20000022366E+01 0.  0.
         13    1    3    3    0    0 -0.39286604030E+02 -0.45013477810E+01  0.15846700193E+02  0.42600803503E+02  0.10566000000E+00 0. -1.
         13    1    4    4    0    0  0.89122481535E+01  0.52902354714E+00  0.74587684412E+01  0.11634106058E+02  0.10566000000E+00 0. -1.
        -13    1    4    4    0    0  0.47871108592E+01  0.29014246392E+00  0.37649431169E+01  0.60980795122E+01  0.10566000000E+00 0.  1.
        -14    1    4    4    0    0  0.25587245017E+02  0.36821817699E+01  0.19217920616E+02  0.32211706613E+02  0.00000000000E+00 0.  1.
<mgrwt>
<rscale>  0 0.80136827E+02</rscale>
<asrwt>0</asrwt>
<pdfrwt beam="1">  1        1 0.35581818E-02 0.80136827E+02</pdfrwt>
<pdfrwt beam="2">  1       -2 0.10679464E-01 0.80136827E+02</pdfrwt>
<totfact> 0.11460578E+05</totfact>
</mgrwt>
</event>
<event>
 8    1  0.7756875E-018  0.7979286E+02  0.7818608E-02  0.1329640E+00
          1   -1    0    0  501    0  0.00000000000E+00  0.00000000000E+00  0.17082398480E+02  0.17082399223E+02  0.50400000000E-02 0. -1.
         -2   -1    0    0    0  501 -0.00000000000E+00 -0.00000000000E+00 -0.93179245867E+02  0.93179245902E+02  0.25500000000E-02 0.  1.
        -24    2    1    2    0    0  0.00000000000E+00  0.00000000000E+00 -0.76096847387E+02  0.11026164513E+03  0.79792858098E+02 0.  0.
         66    2    3    3    0    0  0.37582318391E+02 -0.99224427697E+01 -0.50341531888E+02  0.63632974046E+02  0.20000067184E+01 0.  0.
         13    1    3    3    0    0 -0.37582318391E+02  0.99224427697E+01 -0.25755315499E+02  0.46628671080E+02  0.10566000000E+00 0. -1.
         13    1    4    4    0    0  0.13834588387E+02 -0.39049877138E+01 -0.20075344066E+02  0.24691605218E+02  0.10566000000E+00 0. -1.
        -13    1    4    4    0    0  0.11675190624E+02 -0.30442408479E+01 -0.15237024616E+02  0.19435934802E+02  0.10566000000E+00 0.  1.
         14    1    4    4    0    0  0.12072539380E+02 -0.29732142079E+01 -0.15029163206E+02  0.19505434025E+02  0.00000000000E+00 0. -1.
<mgrwt>
<rscale>  0 0.79792858E+02</rscale>
<asrwt>0</asrwt>
<pdfrwt beam="1">  1        1 0.26280614E-02 0.79792858E+02</pdfrwt>
<pdfrwt beam="2">  1       -2 0.14335268E-01 0.79792858E+02</pdfrwt>
<totfact> 0.10868203E+05</totfact>
</mgrwt>
</event>
<event>
 8    1  0.7756875E-018  0.7890423E+02  0.7818608E-02  0.1332190E+00
          1   -1    0    0  501    0  0.00000000000E+00  0.00000000000E+00  0.32472709291E+01  0.32472748403E+01  0.50400000000E-02 0. -1.
         -2   -1    0    0    0  501 -0.00000000000E+00 -0.00000000000E+00 -0.47931583651E+03  0.47931583652E+03  0.25500000000E-02 0.  1.
        -24    2    1    2    0    0  0.00000000000E+00  0.00000000000E+00 -0.47606856558E+03  0.48256311136E+03  0.78904228710E+02 0.  0.
         66    2    3    3    0    0 -0.18238929339E+02 -0.56909916621E+00 -0.45193248043E+03  0.45230515062E+03  0.19999991225E+01 0.  0.
         13    1    3    3    0    0  0.18238929339E+02  0.56909916621E+00 -0.24136085154E+02  0.30257960736E+02  0.10566000000E+00 0. -1.
         13    1    4    4    0    0 -0.28683980816E+01 -0.29243520341E+00 -0.66394882145E+02  0.66457541069E+02  0.10566000000E+00 0. -1.
        -13    1    4    4    0    0 -0.10020107611E+02  0.35032263168E+00 -0.23559094798E+03  0.23580422222E+03  0.10566000000E+00 0.  1.
         14    1    4    4    0    0 -0.53504236463E+01 -0.62698659448E+00 -0.14994665030E+03  0.15004338733E+03  0.00000000000E+00 0. -1.
<mgrwt>
<rscale>  0 0.78904229E+02</rscale>
<asrwt>0</asrwt>
<pdfrwt beam="1">  1        1 0.49958083E-03 0.78904229E+02</pdfrwt>
<pdfrwt beam="2">  1       -2 0.73740842E-01 0.78904229E+02</pdfrwt>
<totfact> 0.53911298E+04</totfact>
</mgrwt>
</event>
<event>
 8    1  0.7756875E-018  0.7972661E+02  0.7818608E-02  0.1329829E+00
          1   -1    0    0  501    0  0.00000000000E+00  0.00000000000E+00  0.43842582819E+03  0.43842582822E+03  0.50400000000E-02 0. -1.
         -2   -1    0    0    0  501 -0.00000000000E+00 -0.00000000000E+00 -0.36245196276E+01  0.36245205246E+01  0.25500000000E-02 0.  1.
        -24    2    1    2    0    0  0.35527136788E-14  0.00000000000E+00  0.43480130856E+03  0.44205034874E+03  0.79726613478E+02 0.  0.
         66    2    3    3    0    0 -0.22743516971E+02  0.29127023258E+02  0.30004277600E+03  0.30231658650E+03  0.19999988957E+01 0.  0.
         13    1    3    3    0    0  0.22743516971E+02 -0.29127023258E+02  0.13475853256E+03  0.13973376224E+03  0.10566000000E+00 0. -1.
         13    1    4    4    0    0 -0.88722459572E+01  0.12086443744E+02  0.11583367439E+03  0.11680004349E+03  0.10566000000E+00 0. -1.
        -13    1    4    4    0    0 -0.13288455448E+02  0.16545617859E+02  0.17791157259E+03  0.17917276396E+03  0.10566000000E+00 0.  1.
        -14    1    4    4    0    0 -0.58281556657E+00  0.49496165445E+00  0.62975290146E+01  0.63437790562E+01  0.00000000000E+00 0.  1.
<mgrwt>
<rscale>  0 0.79726613E+02</rscale>
<asrwt>0</asrwt>
<pdfrwt beam="1">  1        1 0.67450113E-01 0.79726613E+02</pdfrwt>
<pdfrwt beam="2">  1       -2 0.55761859E-03 0.79726613E+02</pdfrwt>
<totfact> 0.19440947E+05</totfact>
</mgrwt>
</event>
<event>
 8    1  0.7756875E-018  0.8180453E+02  0.7818608E-02  0.1324007E+00
         -2   -1    0    0    0  501 -0.00000000000E+00  0.00000000000E+00  0.26738989360E+02  0.26738989482E+02  0.25500000000E-02 0.  1.
          1   -1    0    0  501    0  0.00000000000E+00 -0.00000000000E+00 -0.62567637622E+02  0.62567637825E+02  0.50400000000E-02 0. -1.
        -24    2    1    2    0    0  0.11102230246E-15  0.00000000000E+00 -0.35828648262E+02  0.89306627307E+02  0.81804533154E+02 0.  0.
         66    2    3    3    0    0 -0.68714228671E+00  0.16233019026E+02  0.23025053952E+02  0.28251304037E+02  0.19999997669E+01 0.  0.
         13    1    3    3    0    0  0.68714228671E+00 -0.16233019026E+02 -0.58853702214E+02  0.61055323270E+02  0.10566000000E+00 0. -1.
         13    1    4    4    0    0  0.34943559426E+00  0.92668603816E+01  0.12727281611E+02  0.15747751198E+02  0.10566000000E+00 0. -1.
        -13    1    4    4    0    0 -0.62209234421E+00  0.37770099213E+01  0.48788464095E+01  0.62021858367E+01  0.10566000000E+00 0.  1.
         14    1    4    4    0    0 -0.41448553675E+00  0.31891487233E+01  0.54189259320E+01  0.63013670021E+01  0.00000000000E+00 0. -1.
<mgrwt>
<rscale>  0 0.81804533E+02</rscale>
<asrwt>0</asrwt>
<pdfrwt beam="1">  1        1 0.96257904E-02 0.81804533E+02</pdfrwt>
<pdfrwt beam="2">  1       -2 0.41136907E-02 0.81804533E+02</pdfrwt>
<totfact> 0.12815097E+05</totfact>
</mgrwt>
</event>
<event>
 8    1  0.7756875E-018  0.7882052E+02  0.7818608E-02  0.1332432E+00
         -2   -1    0    0    0  501 -0.00000000000E+00  0.00000000000E+00  0.87435266604E+02  0.87435266641E+02  0.25500000000E-02 0.  1.
          1   -1    0    0  501    0  0.00000000000E+00 -0.00000000000E+00 -0.17763640817E+02  0.17763641532E+02  0.50400000000E-02 0. -1.
        -24    2    1    2    0    0  0.00000000000E+00 -0.35527136788E-14  0.69671625787E+02  0.10519890817E+03  0.78820522969E+02 0.  0.
         66    2    3    3    0    0  0.31362777977E+02  0.20103574356E+02  0.51918203052E+02  0.63931818051E+02  0.20000016984E+01 0.  0.
         13    1    3    3    0    0 -0.31362777977E+02 -0.20103574356E+02  0.17753422735E+02  0.41267090123E+02  0.10566000000E+00 0. -1.
         13    1    4    4    0    0  0.23369771074E+02  0.13984233517E+02  0.37976788934E+02  0.46732779169E+02  0.10566000000E+00 0. -1.
        -13    1    4    4    0    0  0.19066275087E+01  0.15635022079E+01  0.35384663406E+01  0.43141251361E+01  0.10566000000E+00 0.  1.
         14    1    4    4    0    0  0.60863793944E+01  0.45558386314E+01  0.10402947777E+02  0.12884913745E+02  0.00000000000E+00 0. -1.
<mgrwt>
<rscale>  0 0.78820523E+02</rscale>
<asrwt>0</asrwt>
<pdfrwt beam="1">  1        1 0.27328679E-02 0.78820523E+02</pdfrwt>
<pdfrwt beam="2">  1       -2 0.13451579E-01 0.78820523E+02</pdfrwt>
<totfact> 0.11380982E+05</totfact>
</mgrwt>
</event>
<event>
 8    1  0.7756875E-018  0.7947736E+02  0.7818608E-02  0.1330541E+00
          1   -1    0    0  501    0  0.00000000000E+00  0.00000000000E+00  0.49648686285E+02  0.49648686541E+02  0.50400000000E-02 0. -1.
         -2   -1    0    0    0  501 -0.00000000000E+00 -0.00000000000E+00 -0.31806739970E+02  0.31806740072E+02  0.25500000000E-02 0.  1.
        -24    2    1    2    0    0  0.35527136788E-14  0.00000000000E+00  0.17841946315E+02  0.81455426613E+02  0.79477364554E+02 0.  0.
         66    2    3    3    0    0  0.31225291060E+02 -0.64454374945E+00 -0.16213963185E+02  0.35246657160E+02  0.20000000935E+01 0.  0.
         13    1    3    3    0    0 -0.31225291060E+02  0.64454374945E+00  0.34055909500E+02  0.46208769453E+02  0.10566000000E+00 0. -1.
         13    1    4    4    0    0  0.80615845565E+01 -0.19252173278E+00 -0.38440472370E+01  0.89338722498E+01  0.10566000000E+00 0. -1.
        -13    1    4    4    0    0  0.10819222526E+02 -0.10056559144E+01 -0.56938956307E+01  0.12267784289E+02  0.10566000000E+00 0.  1.
         14    1    4    4    0    0  0.12344483978E+02  0.55363389769E+00 -0.66760203171E+01  0.14045000621E+02  0.00000000000E+00 0. -1.
<mgrwt>
<rscale>  0 0.79477365E+02</rscale>
<asrwt>0</asrwt>
<pdfrwt beam="1">  1        1 0.76382595E-02 0.79477365E+02</pdfrwt>
<pdfrwt beam="2">  1       -2 0.48933446E-02 0.79477365E+02</pdfrwt>
<totfact> 0.13384290E+05</totfact>
</mgrwt>
</event>
<event>
 8    1  0.7756875E-018  0.7962571E+02  0.7818608E-02  0.1330117E+00
          1   -1    0    0  501    0  0.00000000000E+00  0.00000000000E+00  0.35928238315E+02  0.35928238668E+02  0.50400000000E-02 0. -1.
         -2   -1    0    0    0  501 -0.00000000000E+00 -0.00000000000E+00 -0.44117485529E+02  0.44117485603E+02  0.25500000000E-02 0.  1.
        -24    2    1    2    0    0  0.35527136788E-14  0.00000000000E+00 -0.81892472140E+01  0.80045724271E+02  0.79625713210E+02 0.  0.
         66    2    3    3    0    0 -0.25799783899E+02  0.30037769692E+02 -0.80115983154E+01  0.40448512494E+02  0.19999995198E+01 0.  0.
         13    1    3    3    0    0  0.25799783899E+02 -0.30037769692E+02 -0.17764889852E+00  0.39597211777E+02  0.10566000000E+00 0. -1.
         13    1    4    4    0    0 -0.13997994189E+02  0.15190750654E+02 -0.36226029039E+01  0.20972295119E+02  0.10566000000E+00 0. -1.
        -13    1    4    4    0    0 -0.48792203436E+01  0.63777205831E+01 -0.16171286444E+01  0.81919704642E+01  0.10566000000E+00 0.  1.
         14    1    4    4    0    0 -0.69225693671E+01  0.84692984553E+01 -0.27718667671E+01  0.11284246911E+02  0.00000000000E+00 0. -1.
<mgrwt>
<rscale>  0 0.79625713E+02</rscale>
<asrwt>0</asrwt>
<pdfrwt beam="1">  1        1 0.55274213E-02 0.79625713E+02</pdfrwt>
<pdfrwt beam="2">  1       -2 0.67873055E-02 0.79625713E+02</pdfrwt>
<totfact> 0.12642117E+05</totfact>
</mgrwt>
</event>
<event>
 8    1  0.7756875E-018  0.8255132E+02  0.7818608E-02  0.1321963E+00
          1   -1    0    0  501    0  0.00000000000E+00  0.00000000000E+00  0.69906789050E+02  0.69906789232E+02  0.50400000000E-02 0. -1.
         -2   -1    0    0    0  501 -0.00000000000E+00 -0.00000000000E+00 -0.24370738540E+02  0.24370738674E+02  0.25500000000E-02 0.  1.
        -24    2    1    2    0    0  0.00000000000E+00  0.00000000000E+00  0.45536050510E+02  0.94277527906E+02  0.82551319626E+02 0.  0.
         66    2    3    3    0    0  0.33467444198E+02 -0.22662598162E+02  0.32199741793E+02  0.51715438310E+02  0.20000028550E+01 0.  0.
         13    1    3    3    0    0 -0.33467444198E+02  0.22662598162E+02  0.13336308717E+02  0.42562089596E+02  0.10566000000E+00 0. -1.
         13    1    4    4    0    0  0.20034844336E+01 -0.97148952073E+00  0.14490184574E+01  0.26586764170E+01  0.10566000000E+00 0. -1.
        -13    1    4    4    0    0  0.17566698562E+02 -0.12243159887E+02  0.17634315185E+02  0.27739215895E+02  0.10566000000E+00 0.  1.
         14    1    4    4    0    0  0.13897261202E+02 -0.94479487549E+01  0.13116408150E+02  0.21317545997E+02  0.00000000000E+00 0. -1.
<mgrwt>
<rscale>  0 0.82551320E+02</rscale>
<asrwt>0</asrwt>
<pdfrwt beam="1">  1        1 0.10754891E-01 0.82551320E+02</pdfrwt>
<pdfrwt beam="2">  1       -2 0.37493444E-02 0.82551320E+02</pdfrwt>
<totfact> 0.12722819E+05</totfact>
</mgrwt>
</event>
<event>
 8    1  0.7756875E-018  0.7738023E+02  0.7818608E-02  0.1336655E+00
         -2   -1    0    0    0  501 -0.00000000000E+00  0.00000000000E+00  0.69124924995E+02  0.69124925042E+02  0.25500000000E-02 0.  1.
          1   -1    0    0  501    0  0.00000000000E+00 -0.00000000000E+00 -0.21655357739E+02  0.21655358326E+02  0.50400000000E-02 0. -1.
        -24    2    1    2    0    0  0.35527136788E-14  0.00000000000E+00  0.47469567255E+02  0.90780283368E+02  0.77380230246E+02 0.  0.
         66    2    3    3    0    0  0.24713165712E+02  0.90671899924E+01  0.56973636307E+02  0.62792911458E+02  0.20000003550E+01 0.  0.
         13    1    3    3    0    0 -0.24713165712E+02 -0.90671899924E+01 -0.95040690518E+01  0.27987371910E+02  0.10566000000E+00 0. -1.
         13    1    4    4    0    0  0.95480382462E+01  0.34919887013E+01  0.20395446233E+02  0.22789129219E+02  0.10566000000E+00 0. -1.
        -13    1    4    4    0    0  0.29896877742E+00  0.19111765740E+00  0.60593752466E+00  0.71009337994E+00  0.10566000000E+00 0. -1.
        -14    1    4    4    0    0  0.14866158688E+02  0.53840836337E+01  0.35972252549E+02  0.39293688859E+02  0.00000000000E+00 0.  1.
<mgrwt>
<rscale>  0 0.77380230E+02</rscale>
<asrwt>0</asrwt>
<pdfrwt beam="1">  1        1 0.33315936E-02 0.77380230E+02</pdfrwt>
<pdfrwt beam="2">  1       -2 0.10634604E-01 0.77380230E+02</pdfrwt>
<totfact> 0.12536047E+05</totfact>
</mgrwt>
</event>
<event>
 8    1  0.7756875E-018  0.7631439E+02  0.7818608E-02  0.1339848E+00
          1   -1    0    0  501    0  0.00000000000E+00  0.00000000000E+00  0.17023145900E+02  0.17023146646E+02  0.50400000000E-02 0. -1.
         -2   -1    0    0    0  501 -0.00000000000E+00 -0.00000000000E+00 -0.85528934760E+02  0.85528934798E+02  0.25500000000E-02 0.  1.
        -24    2    1    2    0    0  0.00000000000E+00  0.00000000000E+00 -0.68505788860E+02  0.10255208144E+03  0.76314391179E+02 0.  0.
         66    2    3    3    0    0 -0.27253490394E+01 -0.29333654025E+02 -0.66808669168E+02  0.73043063074E+02  0.20000003572E+01 0.  0.
         13    1    3    3    0    0  0.27253490394E+01  0.29333654025E+02 -0.16971196929E+01  0.29509018370E+02  0.10566000000E+00 0. -1.
         13    1    4    4    0    0  0.13651549104E+00 -0.76354604861E+01 -0.17442802765E+02  0.19041570987E+02  0.10566000000E+00 0. -1.
        -13    1    4    4    0    0 -0.21197085755E+01 -0.16164701411E+02 -0.37192217782E+02  0.40608656266E+02  0.10566000000E+00 0.  1.
         14    1    4    4    0    0 -0.74215595492E+00 -0.55334921278E+01 -0.12173648621E+02  0.13392835821E+02  0.00000000000E+00 0. -1.
<mgrwt>
<rscale>  0 0.76314391E+02</rscale>
<asrwt>0</asrwt>
<pdfrwt beam="1">  1        1 0.26189456E-02 0.76314391E+02</pdfrwt>
<pdfrwt beam="2">  1       -2 0.13158297E-01 0.76314391E+02</pdfrwt>
<totfact> 0.12419826E+05</totfact>
</mgrwt>
</event>
<event>
 8    1  0.7756875E-018  0.7950249E+02  0.7818608E-02  0.1330469E+00
          1   -1    0    0  501    0  0.00000000000E+00  0.00000000000E+00  0.21353390165E+02  0.21353390760E+02  0.50400000000E-02 0. -1.
         -2   -1    0    0    0  501 -0.00000000000E+00 -0.00000000000E+00 -0.74000492765E+02  0.74000492809E+02  0.25500000000E-02 0.  1.
        -24    2    1    2    0    0  0.00000000000E+00  0.00000000000E+00 -0.52647102600E+02  0.95353883569E+02  0.79502488638E+02 0.  0.
         66    2    3    3    0    0 -0.13922330829E+02 -0.10228588308E+02 -0.69245562529E+02  0.71396100897E+02  0.19999947251E+01 0.  0.
         13    1    3    3    0    0  0.13922330829E+02  0.10228588308E+02  0.16598459929E+02  0.23957782672E+02  0.10566000000E+00 0. -1.
         13    1    4    4    0    0 -0.35432830617E+00 -0.12140643996E+00 -0.10019548823E+01  0.10748793858E+01  0.10566000000E+00 0. -1.
        -13    1    4    4    0    0 -0.33575932789E+01 -0.28612317406E+01 -0.19812723438E+02  0.20298158877E+02  0.10566000000E+00 0.  1.
        -14    1    4    4    0    0 -0.10210409244E+02 -0.72459501279E+01 -0.48430884208E+02  0.50023062635E+02  0.00000000000E+00 0.  1.
<mgrwt>
<rscale>  0 0.79502489E+02</rscale>
<asrwt>0</asrwt>
<pdfrwt beam="1">  1        1 0.32851370E-02 0.79502489E+02</pdfrwt>
<pdfrwt beam="2">  1       -2 0.11384691E-01 0.79502489E+02</pdfrwt>
<totfact> 0.11543399E+05</totfact>
</mgrwt>
</event>
<event>
 8    1  0.7756875E-018  0.8173596E+02  0.7818608E-02  0.1324196E+00
          1   -1    0    0  501    0  0.00000000000E+00  0.00000000000E+00  0.44918641291E+02  0.44918641574E+02  0.50400000000E-02 0. -1.
         -2   -1    0    0    0  501 -0.00000000000E+00 -0.00000000000E+00 -0.37182600445E+02  0.37182600532E+02  0.25500000000E-02 0.  1.
        -24    2    1    2    0    0 -0.17763568394E-14  0.00000000000E+00  0.77360408457E+01  0.82101242106E+02  0.81735962877E+02 0.  0.
         66    2    3    3    0    0 -0.99846360341E+01  0.24326386701E+02 -0.27521872049E+02  0.38117180988E+02  0.19999996782E+01 0.  0.
         13    1    3    3    0    0  0.99846360341E+01 -0.24326386701E+02  0.35257912895E+02  0.43984061118E+02  0.10566000000E+00 0. -1.
         13    1    4    4    0    0 -0.27408433209E+01  0.71410312784E+01 -0.70389378943E+01  0.10395400932E+02  0.10566000000E+00 0. -1.
        -13    1    4    4    0    0 -0.43328918220E+01  0.91050696918E+01 -0.11451798866E+02  0.15258804243E+02  0.10566000000E+00 0.  1.
        -14    1    4    4    0    0 -0.29109008912E+01  0.80802857309E+01 -0.90311352890E+01  0.12462975812E+02  0.00000000000E+00 0.  1.
<mgrwt>
<rscale>  0 0.81735963E+02</rscale>
<asrwt>0</asrwt>
<pdfrwt beam="1">  1        1 0.69105602E-02 0.81735963E+02</pdfrwt>
<pdfrwt beam="2">  1       -2 0.57204001E-02 0.81735963E+02</pdfrwt>
<totfact> 0.12180614E+05</totfact>
</mgrwt>
</event>
<event>
 8    1  0.1009717E-017  0.6960217E+02  0.7818608E-02  0.1361451E+00
         -2   -1    0    0    0  501 -0.00000000000E+00  0.00000000000E+00  0.40051986274E+02  0.40051986356E+02  0.25500000000E-02 0.  1.
          1   -1    0    0  501    0  0.00000000000E+00 -0.00000000000E+00 -0.30238586992E+02  0.30238587412E+02  0.50400000000E-02 0. -1.
        -24    2    1    2    0    0  0.00000000000E+00  0.88817841970E-15  0.98133992829E+01  0.70290573767E+02  0.69602169183E+02 0.  0.
         66    2    3    3    0    0 -0.19790947374E+02 -0.73922789056E+01  0.32802435118E+02  0.39068236923E+02  0.20000002992E+01 0.  0.
         13    1    3    3    0    0  0.19790947374E+02  0.73922789056E+01 -0.22989035835E+02  0.31222336845E+02  0.10566000000E+00 0. -1.
         13    1    4    4    0    0 -0.82193580157E+01 -0.26518507299E+01  0.13040831918E+02  0.15641758840E+02  0.10566000000E+00 0. -1.
        -13    1    4    4    0    0 -0.97525938082E+01 -0.34288261743E+01  0.16250447528E+02  0.19260273721E+02  0.10566000000E+00 0.  1.
         14    1    4    4    0    0 -0.18189955497E+01 -0.13116020015E+01  0.35111556727E+01  0.41662043611E+01  0.00000000000E+00 0. -1.
<mgrwt>
<rscale>  0 0.69602169E+02</rscale>
<asrwt>0</asrwt>
<pdfrwt beam="1">  1        1 0.46520904E-02 0.69602169E+02</pdfrwt>
<pdfrwt beam="2">  1       -2 0.61618440E-02 0.69602169E+02</pdfrwt>
<totfact> 0.17954268E+05</totfact>
</mgrwt>
</event>
<event>
 8    1  0.7756875E-018  0.7837428E+02  0.7818608E-02  0.1333729E+00
          1   -1    0    0  501    0  0.00000000000E+00  0.00000000000E+00  0.75160179382E+02  0.75160179551E+02  0.50400000000E-02 0. -1.
         -2   -1    0    0    0  501 -0.00000000000E+00 -0.00000000000E+00 -0.20431457886E+02  0.20431458045E+02  0.25500000000E-02 0.  1.
        -24    2    1    2    0    0 -0.88817841970E-15  0.71054273576E-14  0.54728721496E+02  0.95591637597E+02  0.78374282911E+02 0.  0.
         66    2    3    3    0    0  0.76187940981E+01 -0.31477202482E+02  0.52789678105E+00  0.32452102728E+02  0.19999992195E+01 0.  0.
         13    1    3    3    0    0 -0.76187940981E+01  0.31477202482E+02  0.54200824715E+02  0.63139534868E+02  0.10566000000E+00 0. -1.
         13    1    4    4    0    0  0.22765389221E+01 -0.90248359637E+01 -0.25391063937E+00  0.93116018109E+01  0.10566000000E+00 0.  1.
        -13    1    4    4    0    0  0.12885866579E+01 -0.41974144047E+01  0.65399054968E+00  0.44404516588E+01  0.10566000000E+00 0. -1.
        -14    1    4    4    0    0  0.40536685181E+01 -0.18254952114E+02  0.12781687074E+00  0.18700049259E+02  0.00000000000E+00 0.  1.
<mgrwt>
<rscale>  0 0.78374283E+02</rscale>
<asrwt>0</asrwt>
<pdfrwt beam="1">  1        1 0.11563105E-01 0.78374283E+02</pdfrwt>
<pdfrwt beam="2">  1       -2 0.31433012E-02 0.78374283E+02</pdfrwt>
<totfact> 0.14835895E+05</totfact>
</mgrwt>
</event>
<event>
 8    1  0.7756875E-018  0.8249976E+02  0.7818608E-02  0.1322103E+00
          1   -1    0    0  501    0  0.00000000000E+00  0.00000000000E+00  0.52733293078E+02  0.52733293319E+02  0.50400000000E-02 0. -1.
         -2   -1    0    0    0  501 -0.00000000000E+00 -0.00000000000E+00 -0.32267144293E+02  0.32267144394E+02  0.25500000000E-02 0.  1.
        -24    2    1    2    0    0  0.17763568394E-14 -0.55511151231E-16  0.20466148785E+02  0.85000437713E+02  0.82499764638E+02 0.  0.
         66    2    3    3    0    0  0.12712954930E+02 -0.35972496526E+00 -0.30164360953E+02  0.32796910002E+02  0.20000022099E+01 0.  0.
         13    1    3    3    0    0 -0.12712954930E+02  0.35972496526E+00  0.50630509739E+02  0.52203527711E+02  0.10566000000E+00 0. -1.
         13    1    4    4    0    0  0.41089632552E+01 -0.22209051654E+00 -0.11199881086E+02  0.11932367896E+02  0.10566000000E+00 0. -1.
        -13    1    4    4    0    0  0.81167332977E+01 -0.34951403851E+00 -0.17212826354E+02  0.19034076669E+02  0.10566000000E+00 0.  1.
        -14    1    4    4    0    0  0.48725837697E+00  0.21187958979E+00 -0.17516535135E+01  0.18304654375E+01  0.00000000000E+00 0.  1.
<mgrwt>
<rscale>  0 0.82499765E+02</rscale>
<asrwt>0</asrwt>
<pdfrwt beam="1">  1        1 0.81128142E-02 0.82499765E+02</pdfrwt>
<pdfrwt beam="2">  1       -2 0.49641762E-02 0.82499765E+02</pdfrwt>
<totfact> 0.12179364E+05</totfact>
</mgrwt>
</event>
<event>
 8    1  0.7756875E-018  0.7581855E+02  0.7818608E-02  0.1341355E+00
         -2   -1    0    0    0  501 -0.00000000000E+00  0.00000000000E+00  0.36154692835E+01  0.36154701827E+01  0.25500000000E-02 0.  1.
          1   -1    0    0  501    0  0.00000000000E+00 -0.00000000000E+00 -0.39749005449E+03  0.39749005452E+03  0.50400000000E-02 0. -1.
        -24    2    1    2    0    0 -0.88817841970E-15  0.00000000000E+00 -0.39387458521E+03  0.40110552470E+03  0.75818553646E+02 0.  0.
         66    2    3    3    0    0  0.60561900115E+01 -0.36615346221E+02 -0.23727609166E+03  0.24016932505E+03  0.20000005029E+01 0.  0.
         13    1    3    3    0    0 -0.60561900115E+01  0.36615346221E+02 -0.15659849354E+03  0.16093619966E+03  0.10566000000E+00 0. -1.
         13    1    4    4    0    0  0.11773258804E+00 -0.78820697113E+00 -0.64434616285E+01  0.64934192060E+01  0.10566000000E+00 0. -1.
        -13    1    4    4    0    0  0.22108662789E+01 -0.10631350613E+02 -0.71829846687E+02  0.72646070676E+02  0.10566000000E+00 0.  1.
         14    1    4    4    0    0  0.37275911446E+01 -0.25195788636E+02 -0.15900278335E+03  0.16102983516E+03  0.00000000000E+00 0. -1.
<mgrwt>
<rscale>  0 0.75818554E+02</rscale>
<asrwt>0</asrwt>
<pdfrwt beam="1">  1        1 0.61152282E-01 0.75818554E+02</pdfrwt>
<pdfrwt beam="2">  1       -2 0.55622643E-03 0.75818554E+02</pdfrwt>
<totfact> 0.21838495E+05</totfact>
</mgrwt>
</event>
<event>
 8    1  0.7756875E-018  0.8019679E+02  0.7818608E-02  0.1328494E+00
         -2   -1    0    0    0  501 -0.00000000000E+00  0.00000000000E+00  0.44892399375E+02  0.44892399447E+02  0.25500000000E-02 0.  1.
          1   -1    0    0  501    0  0.00000000000E+00 -0.00000000000E+00 -0.35816332353E+02  0.35816332708E+02  0.50400000000E-02 0. -1.
        -24    2    1    2    0    0 -0.35527136788E-14  0.00000000000E+00  0.90760670217E+01  0.80708732155E+02  0.80196785805E+02 0.  0.
         66    2    3    3    0    0 -0.20797622848E+02 -0.21814865631E+02 -0.22036954275E+02  0.37390598113E+02  0.19999987256E+01 0.  0.
         13    1    3    3    0    0  0.20797622848E+02  0.21814865631E+02  0.31113021296E+02  0.43318134042E+02  0.10566000000E+00 0. -1.
         13    1    4    4    0    0 -0.18619559563E+01 -0.24474346856E+01 -0.16992138426E+01  0.35150118409E+01  0.10566000000E+00 0. -1.
        -13    1    4    4    0    0 -0.16756202418E+02 -0.16902900843E+02 -0.17830798974E+02  0.29739316275E+02  0.10566000000E+00 0.  1.
         14    1    4    4    0    0 -0.21794644737E+01 -0.24645301025E+01 -0.25069414576E+01  0.41362699972E+01  0.00000000000E+00 0. -1.
<mgrwt>
<rscale>  0 0.80196786E+02</rscale>
<asrwt>0</asrwt>
<pdfrwt beam="1">  1        1 0.55102051E-02 0.80196786E+02</pdfrwt>
<pdfrwt beam="2">  1       -2 0.69065229E-02 0.80196786E+02</pdfrwt>
<totfact> 0.12381944E+05</totfact>
</mgrwt>
</event>
<event>
 8    1  0.7756875E-018  0.7847916E+02  0.7818608E-02  0.1333424E+00
         -2   -1    0    0    0  501 -0.00000000000E+00  0.00000000000E+00  0.73805214789E+02  0.73805214833E+02  0.25500000000E-02 0.  1.
          1   -1    0    0  501    0  0.00000000000E+00 -0.00000000000E+00 -0.20862272374E+02  0.20862272983E+02  0.50400000000E-02 0. -1.
        -24    2    1    2    0    0  0.71054273576E-14 -0.17763568394E-14  0.52942942415E+02  0.94667487815E+02  0.78479157091E+02 0.  0.
         66    2    3    3    0    0  0.29025730842E+02 -0.10268752305E+02  0.55783961584E+02  0.63747868174E+02  0.20000004929E+01 0.  0.
         13    1    3    3    0    0 -0.29025730842E+02  0.10268752305E+02 -0.28410191688E+01  0.30919619641E+02  0.10566000000E+00 0. -1.
         13    1    4    4    0    0  0.47860255500E+01 -0.20673935374E+01  0.98646619327E+01  0.11158085664E+02  0.10566000000E+00 0. -1.
        -13    1    4    4    0    0  0.19898489097E+02 -0.67763299846E+01  0.36489235299E+02  0.42111090857E+02  0.10566000000E+00 0.  1.
        -14    1    4    4    0    0  0.43412161946E+01 -0.14250287825E+01  0.94300643523E+01  0.10478691653E+02  0.00000000000E+00 0.  1.
<mgrwt>
<rscale>  0 0.78479157E+02</rscale>
<asrwt>0</asrwt>
<pdfrwt beam="1">  1        1 0.32095804E-02 0.78479157E+02</pdfrwt>
<pdfrwt beam="2">  1       -2 0.11354649E-01 0.78479157E+02</pdfrwt>
<totfact> 0.11936491E+05</totfact>
</mgrwt>
</event>
<event>
 8    1  0.7756875E-018  0.7964565E+02  0.7818608E-02  0.1330060E+00
          1   -1    0    0  501    0  0.00000000000E+00  0.00000000000E+00  0.28876534016E+03  0.28876534020E+03  0.50400000000E-02 0. -1.
         -2   -1    0    0    0  501 -0.00000000000E+00 -0.00000000000E+00 -0.54918542021E+01  0.54918547942E+01  0.25500000000E-02 0.  1.
        -24    2    1    2    0    0  0.00000000000E+00  0.00000000000E+00  0.28327348596E+03  0.29425719500E+03  0.79645646218E+02 0.  0.
         66    2    3    3    0    0 -0.38858771046E+02 -0.27907060444E+01  0.11169722185E+03  0.11831340370E+03  0.19999995896E+01 0.  0.
         13    1    3    3    0    0  0.38858771046E+02  0.27907060444E+01  0.17157626411E+03  0.17594379130E+03  0.10566000000E+00 0. -1.
         13    1    4    4    0    0 -0.24458636038E+01 -0.51167925539E+00  0.62166761318E+01  0.67009171456E+01  0.10566000000E+00 0. -1.
        -13    1    4    4    0    0 -0.18967736032E+02 -0.12907142866E+01  0.55283646887E+02  0.58461386665E+02  0.10566000000E+00 0.  1.
         14    1    4    4    0    0 -0.17445171410E+02 -0.98831250246E+00  0.50196898828E+02  0.53151099886E+02  0.00000000000E+00 0. -1.
<mgrwt>
<rscale>  0 0.79645646E+02</rscale>
<asrwt>0</asrwt>
<pdfrwt beam="1">  1        1 0.44425431E-01 0.79645646E+02</pdfrwt>
<pdfrwt beam="2">  1       -2 0.84490080E-03 0.79645646E+02</pdfrwt>
<totfact> 0.18121231E+05</totfact>
</mgrwt>
</event>
<event>
 8    1  0.7756875E-018  0.8093579E+02  0.7818608E-02  0.1326417E+00
          1   -1    0    0  501    0  0.00000000000E+00  0.00000000000E+00  0.23495649910E+02  0.23495650450E+02  0.50400000000E-02 0. -1.
         -2   -1    0    0    0  501 -0.00000000000E+00 -0.00000000000E+00 -0.69700163761E+02  0.69700163808E+02  0.25500000000E-02 0.  1.
        -24    2    1    2    0    0  0.00000000000E+00  0.00000000000E+00 -0.46204513852E+02  0.93195814259E+02  0.80935793658E+02 0.  0.
         66    2    3    3    0    0  0.34634816041E+02 -0.53678661763E+01 -0.46353980141E+02  0.58147020075E+02  0.19999998017E+01 0.  0.
         13    1    3    3    0    0 -0.34634816041E+02  0.53678661763E+01  0.14946628948E+00  0.35048794183E+02  0.10566000000E+00 0. -1.
         13    1    4    4    0    0  0.11601465113E+02 -0.23636487927E+01 -0.15447477026E+02  0.19463209882E+02  0.10566000000E+00 0. -1.
        -13    1    4    4    0    0  0.12783599473E+02 -0.21669080549E+01 -0.17899770732E+02  0.22102689029E+02  0.10566000000E+00 0.  1.
         14    1    4    4    0    0  0.10249751456E+02 -0.83730932861E+00 -0.13006732383E+02  0.16581121165E+02  0.00000000000E+00 0. -1.
<mgrwt>
<rscale>  0 0.80935794E+02</rscale>
<asrwt>0</asrwt>
<pdfrwt beam="1">  1        1 0.36147155E-02 0.80935794E+02</pdfrwt>
<pdfrwt beam="2">  1       -2 0.10723102E-01 0.80935794E+02</pdfrwt>
<totfact> 0.11166247E+05</totfact>
</mgrwt>
</event>
<event>
 8    1  0.7756875E-018  0.8168522E+02  0.7818608E-02  0.1324336E+00
         -2   -1    0    0    0  501 -0.00000000000E+00  0.00000000000E+00  0.10150260758E+02  0.10150261078E+02  0.25500000000E-02 0.  1.
          1   -1    0    0  501    0  0.00000000000E+00 -0.00000000000E+00 -0.16434244649E+03  0.16434244657E+03  0.50400000000E-02 0. -1.
        -24    2    1    2    0    0  0.17763568394E-14  0.00000000000E+00 -0.15419218573E+03  0.17449270765E+03  0.81685218250E+02 0.  0.
         66    2    3    3    0    0 -0.10815387824E+02 -0.26326905102E+02 -0.14642239020E+02  0.32069825574E+02  0.20000007005E+01 0.  0.
         13    1    3    3    0    0  0.10815387824E+02  0.26326905102E+02 -0.13954994671E+03  0.14242288207E+03  0.10566000000E+00 0. -1.
         13    1    4    4    0    0 -0.95462754833E-01 -0.64767672654E+00 -0.10452594740E+00  0.67133299408E+00  0.10566000000E+00 0.  1.
        -13    1    4    4    0    0 -0.79996787011E+01 -0.19252608553E+02 -0.10695885808E+02  0.23432262645E+02  0.10566000000E+00 0.  1.
        -14    1    4    4    0    0 -0.27202463681E+01 -0.64266198225E+01 -0.38418272638E+01  0.79662299346E+01  0.00000000000E+00 0.  1.
<mgrwt>
<rscale>  0 0.81685218E+02</rscale>
<asrwt>0</asrwt>
<pdfrwt beam="1">  1        1 0.25283451E-01 0.81685218E+02</pdfrwt>
<pdfrwt beam="2">  1       -2 0.15615787E-02 0.81685218E+02</pdfrwt>
<totfact> 0.15189842E+05</totfact>
</mgrwt>
</event>
<event>
 8    1  0.7756875E-018  0.7898047E+02  0.7818608E-02  0.1331970E+00
         -2   -1    0    0    0  501 -0.00000000000E+00  0.00000000000E+00  0.80422342346E+01  0.80422346388E+01  0.25500000000E-02 0.  1.
          1   -1    0    0  501    0  0.00000000000E+00 -0.00000000000E+00 -0.19391109749E+03  0.19391109755E+03  0.50400000000E-02 0. -1.
        -24    2    1    2    0    0 -0.35527136788E-14  0.35527136788E-14 -0.18586886325E+03  0.20195333219E+03  0.78980466296E+02 0.  0.
         66    2    3    3    0    0  0.24580848846E+02 -0.30463378664E+02 -0.80148124336E+02  0.89218593221E+02  0.19999930442E+01 0.  0.
         13    1    3    3    0    0 -0.24580848846E+02  0.30463378664E+02 -0.10572073891E+03  0.11273473897E+03  0.10566000000E+00 0. -1.
         13    1    4    4    0    0  0.40154226992E+01 -0.54392876854E+01 -0.14690341746E+02  0.16171789469E+02  0.10566000000E+00 0. -1.
        -13    1    4    4    0    0  0.13623217959E+02 -0.15517933704E+02 -0.41701381100E+02  0.46534016415E+02  0.10566000000E+00 0.  1.
        -14    1    4    4    0    0  0.69422081872E+01 -0.95061572747E+01 -0.23756401490E+02  0.26512787337E+02  0.00000000000E+00 0.  1.
<mgrwt>
<rscale>  0 0.78980466E+02</rscale>
<asrwt>0</asrwt>
<pdfrwt beam="1">  1        1 0.29832473E-01 0.78980466E+02</pdfrwt>
<pdfrwt beam="2">  1       -2 0.12372670E-02 0.78980466E+02</pdfrwt>
<totfact> 0.17148401E+05</totfact>
</mgrwt>
</event>
<event>
 8    1  0.7756875E-018  0.8125595E+02  0.7818608E-02  0.1325525E+00
         -2   -1    0    0    0  501 -0.00000000000E+00  0.00000000000E+00  0.18534621844E+03  0.18534621846E+03  0.25500000000E-02 0.  1.
          1   -1    0    0  501    0  0.00000000000E+00 -0.00000000000E+00 -0.89056691788E+01  0.89056706050E+01  0.50400000000E-02 0. -1.
        -24    2    1    2    0    0  0.71054273576E-14  0.00000000000E+00  0.17644054927E+03  0.19425188907E+03  0.81255947357E+02 0.  0.
         66    2    3    3    0    0 -0.40067591528E+02  0.59321757525E+00  0.72622151945E+02  0.82968311733E+02  0.20000001833E+01 0.  0.
         13    1    3    3    0    0  0.40067591528E+02 -0.59321757525E+00  0.10381839732E+03  0.11128357733E+03  0.10566000000E+00 0. -1.
         13    1    4    4    0    0 -0.10838258463E+02  0.14308738897E+00  0.18343595321E+02  0.21306970076E+02  0.10566000000E+00 0. -1.
        -13    1    4    4    0    0 -0.26797439060E+02  0.68145103136E+00  0.49344413795E+02  0.56155582558E+02  0.10566000000E+00 0.  1.
         14    1    4    4    0    0 -0.24318940063E+01 -0.23132084507E+00  0.49341428296E+01  0.55057590988E+01  0.00000000000E+00 0. -1.
<mgrwt>
<rscale>  0 0.81255947E+02</rscale>
<asrwt>0</asrwt>
<pdfrwt beam="1">  1        1 0.13701030E-02 0.81255947E+02</pdfrwt>
<pdfrwt beam="2">  1       -2 0.28514805E-01 0.81255947E+02</pdfrwt>
<totfact> 0.84216934E+04</totfact>
</mgrwt>
</event>
<event>
 8    1  0.7756875E-018  0.8051445E+02  0.7818608E-02  0.1327598E+00
         -2   -1    0    0    0  501 -0.00000000000E+00  0.00000000000E+00  0.77608843149E+01  0.77608847338E+01  0.25500000000E-02 0.  1.
          1   -1    0    0  501    0  0.00000000000E+00 -0.00000000000E+00 -0.20882211398E+03  0.20882211404E+03  0.50400000000E-02 0. -1.
        -24    2    1    2    0    0  0.35527136788E-14  0.00000000000E+00 -0.20106122967E+03  0.21658299878E+03  0.80514453882E+02 0.  0.
         66    2    3    3    0    0  0.27017868351E+02  0.19595336187E+02 -0.40160628997E+02  0.52257234300E+02  0.20000012010E+01 0.  0.
         13    1    3    3    0    0 -0.27017868351E+02 -0.19595336187E+02 -0.16090060067E+03  0.16432576448E+03  0.10566000000E+00 0. -1.
         13    1    4    4    0    0  0.13606918731E+02  0.90440978167E+01 -0.18824679432E+02  0.24926364806E+02  0.10566000000E+00 0. -1.
        -13    1    4    4    0    0  0.87523324694E+01  0.69079690442E+01 -0.13369024538E+02  0.17408771959E+02  0.10566000000E+00 0.  1.
        -14    1    4    4    0    0  0.46586171506E+01  0.36432693261E+01 -0.79669250260E+01  0.99220975357E+01  0.00000000000E+00 0.  1.
<mgrwt>
<rscale>  0 0.80514454E+02</rscale>
<asrwt>0</asrwt>
<pdfrwt beam="1">  1        1 0.32126475E-01 0.80514454E+02</pdfrwt>
<pdfrwt beam="2">  1       -2 0.11939824E-02 0.80514454E+02</pdfrwt>
<totfact> 0.16530825E+05</totfact>
</mgrwt>
</event>
<event>
 8    1  0.7756875E-018  0.6940033E+02  0.7818608E-02  0.1362144E+00
          1   -1    0    0  501    0  0.00000000000E+00  0.00000000000E+00  0.86357070325E+02  0.86357070472E+02  0.50400000000E-02 0. -1.
         -2   -1    0    0    0  501 -0.00000000000E+00 -0.00000000000E+00 -0.13943287002E+02  0.13943287235E+02  0.25500000000E-02 0.  1.
        -24    2    1    2    0    0  0.00000000000E+00  0.00000000000E+00  0.72413783322E+02  0.10030035771E+03  0.69400329546E+02 0.  0.
         66    2    3    3    0    0 -0.10524084807E+02  0.32488848981E+02  0.44886028426E+02  0.56436133984E+02  0.20000004970E+01 0.  0.
         13    1    3    3    0    0  0.10524084807E+02 -0.32488848981E+02  0.27527754896E+02  0.43864223723E+02  0.10566000000E+00 0. -1.
         13    1    4    4    0    0 -0.19697619021E+01  0.74647997081E+01  0.97614968119E+01  0.12445930286E+02  0.10566000000E+00 0.  1.
        -13    1    4    4    0    0 -0.33340889057E+01  0.92267070725E+01  0.14139330492E+02  0.17209883876E+02  0.10566000000E+00 0.  1.
         14    1    4    4    0    0 -0.52202339995E+01  0.15797342201E+02  0.20985201122E+02  0.26780319822E+02  0.00000000000E+00 0. -1.
<mgrwt>
<rscale>  0 0.69400330E+02</rscale>
<asrwt>0</asrwt>
<pdfrwt beam="1">  1        1 0.13285704E-01 0.69400330E+02</pdfrwt>
<pdfrwt beam="2">  1       -2 0.21451210E-02 0.69400330E+02</pdfrwt>
<totfact> 0.21017045E+05</totfact>
</mgrwt>
</event>
<event>
 8    1  0.7756875E-018  0.8109371E+02  0.7818608E-02  0.1325976E+00
         -2   -1    0    0    0  501 -0.00000000000E+00  0.00000000000E+00  0.97357903520E+01  0.97357906859E+01  0.25500000000E-02 0.  1.
          1   -1    0    0  501    0  0.00000000000E+00 -0.00000000000E+00 -0.16886633798E+03  0.16886633805E+03  0.50400000000E-02 0. -1.
        -24    2    1    2    0    0 -0.35527136788E-14 -0.35527136788E-14 -0.15913054762E+03  0.17860212874E+03  0.81093706305E+02 0.  0.
         66    2    3    3    0    0  0.27381545641E+02 -0.29214077105E+02 -0.93337785276E+02  0.10158323440E+03  0.20000022646E+01 0.  0.
         13    1    3    3    0    0 -0.27381545641E+02  0.29214077105E+02 -0.65792762348E+02  0.77018894332E+02  0.10566000000E+00 0. -1.
         13    1    4    4    0    0  0.45803533669E+01 -0.41856969097E+01 -0.15822544334E+02  0.16995992728E+02  0.10566000000E+00 0. -1.
        -13    1    4    4    0    0  0.84734046676E+01 -0.94533261204E+01 -0.29055725378E+02  0.31708205604E+02  0.10566000000E+00 0.  1.
         14    1    4    4    0    0  0.14327787607E+02 -0.15575054075E+02 -0.48459515565E+02  0.52879036072E+02  0.00000000000E+00 0. -1.
<mgrwt>
<rscale>  0 0.81093706E+02</rscale>
<asrwt>0</asrwt>
<pdfrwt beam="1">  1        1 0.25979435E-01 0.81093706E+02</pdfrwt>
<pdfrwt beam="2">  1       -2 0.14978141E-02 0.81093706E+02</pdfrwt>
<totfact> 0.15567375E+05</totfact>
</mgrwt>
</event>
<event>
 8    1  0.7756875E-018  0.8063981E+02  0.7818608E-02  0.1327245E+00
         -2   -1    0    0    0  501 -0.00000000000E+00  0.00000000000E+00  0.16592999866E+02  0.16593000062E+02  0.25500000000E-02 0.  1.
          1   -1    0    0  501    0  0.00000000000E+00 -0.00000000000E+00 -0.97974743219E+02  0.97974743348E+02  0.50400000000E-02 0. -1.
        -24    2    1    2    0    0  0.00000000000E+00  0.00000000000E+00 -0.81381743353E+02  0.11456774341E+03  0.80639814478E+02 0.  0.
         66    2    3    3    0    0 -0.26143042845E+02 -0.80361417953E+01  0.13257002980E+01  0.27455340944E+02  0.20000002349E+01 0.  0.
         13    1    3    3    0    0  0.26143042845E+02  0.80361417953E+01 -0.82707443651E+02  0.87112402466E+02  0.10566000000E+00 0. -1.
         13    1    4    4    0    0 -0.87670112230E+01 -0.32910720166E+01 -0.12570343071E+00  0.93658211701E+01  0.10566000000E+00 0. -1.
        -13    1    4    4    0    0 -0.16831983248E+02 -0.45308802970E+01  0.12714713028E+01  0.17477767009E+02  0.10566000000E+00 0.  1.
         14    1    4    4    0    0 -0.54404837412E+00 -0.21418948178E+00  0.17993242587E+00  0.61175276490E+00  0.00000000000E+00 0. -1.
<mgrwt>
<rscale>  0 0.80639814E+02</rscale>
<asrwt>0</asrwt>
<pdfrwt beam="1">  1        1 0.15073037E-01 0.80639814E+02</pdfrwt>
<pdfrwt beam="2">  1       -2 0.25527693E-02 0.80639814E+02</pdfrwt>
<totfact> 0.14336370E+05</totfact>
</mgrwt>
</event>
<event>
 8    1  0.7756875E-018  0.8443905E+02  0.7818608E-02  0.1316906E+00
          1   -1    0    0  501    0  0.00000000000E+00  0.00000000000E+00  0.31207947807E+03  0.31207947811E+03  0.50400000000E-02 0. -1.
         -2   -1    0    0    0  501 -0.00000000000E+00 -0.00000000000E+00 -0.57116477004E+01  0.57116482696E+01  0.25500000000E-02 0.  1.
        -24    2    1    2    0    0 -0.17763568394E-14  0.00000000000E+00  0.30636783037E+03  0.31779112638E+03  0.84439046185E+02 0.  0.
         66    2    3    3    0    0  0.12243191067E+02 -0.37777687260E+02  0.20694929385E+03  0.21073457147E+03  0.20000009918E+01 0.  0.
         13    1    3    3    0    0 -0.12243191067E+02  0.37777687260E+02  0.99418536516E+02  0.10705655491E+03  0.10566000000E+00 0. -1.
         13    1    4    4    0    0  0.10400381949E+01 -0.38380109429E+01  0.19157180471E+02  0.19565805250E+02  0.10566000000E+00 0.  1.
        -13    1    4    4    0    0  0.41446545435E+01 -0.11005636725E+02  0.64431559523E+02  0.65496100858E+02  0.10566000000E+00 0.  1.
        -14    1    4    4    0    0  0.70584983286E+01 -0.22934039592E+02  0.12336055386E+03  0.12567266536E+03  0.00000000000E+00 0.  1.
<mgrwt>
<rscale>  0 0.84439046E+02</rscale>
<asrwt>0</asrwt>
<pdfrwt beam="1">  1        1 0.48012230E-01 0.84439046E+02</pdfrwt>
<pdfrwt beam="2">  1       -2 0.87871503E-03 0.84439046E+02</pdfrwt>
<totfact> 0.15759717E+05</totfact>
</mgrwt>
</event>
<event>
 8    1  0.9080594E-018  0.7981875E+02  0.7818608E-02  0.1329567E+00
         -2   -1    0    0    0  501 -0.00000000000E+00  0.00000000000E+00  0.91839679223E+02  0.91839679259E+02  0.25500000000E-02 0.  1.
          1   -1    0    0  501    0  0.00000000000E+00 -0.00000000000E+00 -0.17342812183E+02  0.17342812916E+02  0.50400000000E-02 0. -1.
        -24    2    1    2    0    0 -0.17763568394E-14  0.00000000000E+00  0.74496867040E+02  0.10918249217E+03  0.79818753427E+02 0.  0.
         66    2    3    3    0    0  0.82135822632E+01 -0.21959762219E+02  0.81407025284E+02  0.84739588474E+02  0.19999997236E+01 0.  0.
         13    1    3    3    0    0 -0.82135822632E+01  0.21959762219E+02 -0.69101582437E+01  0.24442903700E+02  0.10566000000E+00 0. -1.
         13    1    4    4    0    0  0.35787829052E+01 -0.99577858273E+01  0.36647578897E+02  0.38144742609E+02  0.10566000000E+00 0. -1.
        -13    1    4    4    0    0  0.29767360533E+01 -0.86822628206E+01  0.33802332139E+02  0.35026439547E+02  0.10566000000E+00 0.  1.
         14    1    4    4    0    0  0.16580633048E+01 -0.33197135713E+01  0.10957114247E+02  0.11568406318E+02  0.00000000000E+00 0. -1.
<mgrwt>
<rscale>  0 0.79818753E+02</rscale>
<asrwt>0</asrwt>
<pdfrwt beam="1">  1        1 0.26681250E-02 0.79818753E+02</pdfrwt>
<pdfrwt beam="2">  1       -2 0.14129181E-01 0.79818753E+02</pdfrwt>
<totfact> 0.10896419E+05</totfact>
</mgrwt>
</event>
<event>
 8    1  0.7756875E-018  0.8005549E+02  0.7818608E-02  0.1328894E+00
         -2   -1    0    0    0  501 -0.00000000000E+00  0.00000000000E+00  0.88658129480E+02  0.88658129517E+02  0.25500000000E-02 0.  1.
          1   -1    0    0  501    0  0.00000000000E+00 -0.00000000000E+00 -0.18071893617E+02  0.18071894319E+02  0.50400000000E-02 0. -1.
        -24    2    1    2    0    0  0.00000000000E+00  0.00000000000E+00  0.70586235863E+02  0.10673002384E+03  0.80055488848E+02 0.  0.
         66    2    3    3    0    0  0.14579209901E+02  0.33823289714E+02  0.56125276304E+02  0.67161111748E+02  0.20000006652E+01 0.  0.
         13    1    3    3    0    0 -0.14579209901E+02 -0.33823289714E+02  0.14460959559E+02  0.39568912088E+02  0.10566000000E+00 0. -1.
         13    1    4    4    0    0  0.12226679866E+01  0.37205620814E+01  0.52887078899E+01  0.65817242716E+01  0.10566000000E+00 0. -1.
        -13    1    4    4    0    0  0.79805954014E+01  0.16974574739E+02  0.29378705244E+02  0.34856069434E+02  0.10566000000E+00 0.  1.
        -14    1    4    4    0    0  0.53759465129E+01  0.13128152893E+02  0.21457863170E+02  0.25723318043E+02  0.00000000000E+00 0.  1.
<mgrwt>
<rscale>  0 0.80055489E+02</rscale>
<asrwt>0</asrwt>
<pdfrwt beam="1">  1        1 0.27802914E-02 0.80055489E+02</pdfrwt>
<pdfrwt beam="2">  1       -2 0.13639712E-01 0.80055489E+02</pdfrwt>
<totfact> 0.10903428E+05</totfact>
</mgrwt>
</event>
<event>
 8    1  0.7756875E-018  0.8759531E+02  0.7818608E-02  0.1308782E+00
         -2   -1    0    0    0  501 -0.00000000000E+00  0.00000000000E+00  0.14981635395E+02  0.14981635612E+02  0.25500000000E-02 0.  1.
          1   -1    0    0  501    0  0.00000000000E+00 -0.00000000000E+00 -0.12803906496E+03  0.12803906506E+03  0.50400000000E-02 0. -1.
        -24    2    1    2    0    0  0.00000000000E+00  0.00000000000E+00 -0.11305742957E+03  0.14302070067E+03  0.87595310609E+02 0.  0.
         66    2    3    3    0    0 -0.23608830376E+02  0.36793694483E+02 -0.60236934336E+02  0.74455631535E+02  0.19999959216E+01 0.  0.
         13    1    3    3    0    0  0.23608830376E+02 -0.36793694483E+02 -0.52820495232E+02  0.68565069139E+02  0.10566000000E+00 0. -1.
         13    1    4    4    0    0 -0.90557601457E+01  0.12841836882E+02 -0.21280091143E+02  0.26453223044E+02  0.10566000000E+00 0. -1.
        -13    1    4    4    0    0 -0.49636618236E+01  0.77731593416E+01 -0.12068910550E+02  0.15189789688E+02  0.10566000000E+00 0.  1.
         14    1    4    4    0    0 -0.95894084065E+01  0.16178698259E+02 -0.26887932642E+02  0.32812618803E+02  0.00000000000E+00 0. -1.
<mgrwt>
<rscale>  0 0.87595311E+02</rscale>
<asrwt>0</asrwt>
<pdfrwt beam="1">  1        1 0.19698317E-01 0.87595311E+02</pdfrwt>
<pdfrwt beam="2">  1       -2 0.23048671E-02 0.87595311E+02</pdfrwt>
<totfact> 0.12010943E+05</totfact>
</mgrwt>
</event>
<event>
 8    1  0.7756875E-018  0.7971522E+02  0.7818608E-02  0.1329862E+00
         -2   -1    0    0    0  501 -0.00000000000E+00  0.00000000000E+00  0.10099833232E+03  0.10099833235E+03  0.25500000000E-02 0.  1.
          1   -1    0    0  501    0  0.00000000000E+00 -0.00000000000E+00 -0.15729260598E+02  0.15729261406E+02  0.50400000000E-02 0. -1.
        -24    2    1    2    0    0  0.00000000000E+00 -0.17763568394E-14  0.85269071720E+02  0.11672759376E+03  0.79715221584E+02 0.  0.
         66    2    3    3    0    0  0.36869390503E+02  0.14617051214E+02  0.48064184285E+02  0.62347220869E+02  0.19999992043E+01 0.  0.
         13    1    3    3    0    0 -0.36869390503E+02 -0.14617051214E+02  0.37204887435E+02  0.54380372887E+02  0.10566000000E+00 0. -1.
         13    1    4    4    0    0  0.13384734959E+02  0.57941209298E+01  0.18729473768E+02  0.23738730356E+02  0.10566000000E+00 0. -1.
        -13    1    4    4    0    0  0.82024909906E+01  0.29157444968E+01  0.10739854869E+02  0.13825269294E+02  0.10566000000E+00 0.  1.
        -14    1    4    4    0    0  0.15282164554E+02  0.59071857871E+01  0.18594855649E+02  0.24783221219E+02  0.00000000000E+00 0.  1.
<mgrwt>
<rscale>  0 0.79715222E+02</rscale>
<asrwt>0</asrwt>
<pdfrwt beam="1">  1        1 0.24198863E-02 0.79715222E+02</pdfrwt>
<pdfrwt beam="2">  1       -2 0.15538205E-01 0.79715222E+02</pdfrwt>
<totfact> 0.10683630E+05</totfact>
</mgrwt>
</event>
<event>
 8    1  0.7756875E-018  0.7924130E+02  0.7818608E-02  0.1331218E+00
         -2   -1    0    0    0  501 -0.00000000000E+00  0.00000000000E+00  0.52710050603E+01  0.52710056771E+01  0.25500000000E-02 0.  1.
          1   -1    0    0  501    0  0.00000000000E+00 -0.00000000000E+00 -0.29781715684E+03  0.29781715688E+03  0.50400000000E-02 0. -1.
        -24    2    1    2    0    0 -0.44408920985E-15  0.00000000000E+00 -0.29254615178E+03  0.30308816256E+03  0.79241298341E+02 0.  0.
         66    2    3    3    0    0 -0.30808664200E+01 -0.38512737663E+02 -0.17950545136E+03  0.18362714877E+03  0.19999993424E+01 0.  0.
         13    1    3    3    0    0  0.30808664200E+01  0.38512737663E+02 -0.11304070042E+03  0.11946101379E+03  0.10566000000E+00 0. -1.
         13    1    4    4    0    0 -0.19681837826E+01 -0.25850663860E+02 -0.11836174508E+03  0.12116783580E+03  0.10566000000E+00 0. -1.
        -13    1    4    4    0    0 -0.92081761391E+00 -0.50403421508E+01 -0.23919439490E+02  0.24462291463E+02  0.10566000000E+00 0.  1.
        -14    1    4    4    0    0 -0.19186502349E+00 -0.76217316521E+01 -0.37224266790E+02  0.37997021509E+02  0.00000000000E+00 0.  1.
<mgrwt>
<rscale>  0 0.79241298E+02</rscale>
<asrwt>0</asrwt>
<pdfrwt beam="1">  1        1 0.45818011E-01 0.79241298E+02</pdfrwt>
<pdfrwt beam="2">  1       -2 0.81092414E-03 0.79241298E+02</pdfrwt>
<totfact> 0.18474680E+05</totfact>
</mgrwt>
</event>
<event>
 8    1  0.7756875E-018  0.8493153E+02  0.7818608E-02  0.1315612E+00
          1   -1    0    0  501    0  0.00000000000E+00  0.00000000000E+00  0.67921718492E+02  0.67921718679E+02  0.50400000000E-02 0. -1.
         -2   -1    0    0    0  501 -0.00000000000E+00 -0.00000000000E+00 -0.26550285547E+02  0.26550285669E+02  0.25500000000E-02 0.  1.
        -24    2    1    2    0    0  0.71054273576E-14  0.00000000000E+00  0.41371432945E+02  0.94472004348E+02  0.84931526194E+02 0.  0.
         66    2    3    3    0    0  0.29280056252E+02  0.30624782687E+02  0.23452732038E+02  0.48468852119E+02  0.19999942495E+01 0.  0.
         13    1    3    3    0    0 -0.29280056252E+02 -0.30624782687E+02  0.17918700907E+02  0.46003152229E+02  0.10566000000E+00 0. -1.
         13    1    4    4    0    0  0.27443268022E+01  0.29576915477E+01  0.24892140405E+01  0.47420058481E+01  0.10566000000E+00 0. -1.
        -13    1    4    4    0    0  0.65684685103E+01  0.60050597138E+01  0.43882897507E+01  0.99233951704E+01  0.10566000000E+00 0.  1.
        -14    1    4    4    0    0  0.19967260939E+02  0.21662031426E+02  0.16575228247E+02  0.33803451101E+02  0.00000000000E+00 0.  1.
<mgrwt>
<rscale>  0 0.84931526E+02</rscale>
<asrwt>0</asrwt>
<pdfrwt beam="1">  1        1 0.10449495E-01 0.84931526E+02</pdfrwt>
<pdfrwt beam="2">  1       -2 0.40846594E-02 0.84931526E+02</pdfrwt>
<totfact> 0.11707931E+05</totfact>
</mgrwt>
</event>
<event>
 8    1  0.7756875E-018  0.8198568E+02  0.7818608E-02  0.1323509E+00
         -2   -1    0    0    0  501 -0.00000000000E+00  0.00000000000E+00  0.24911712571E+02  0.24911712701E+02  0.25500000000E-02 0.  1.
          1   -1    0    0  501    0  0.00000000000E+00 -0.00000000000E+00 -0.67454726889E+02  0.67454727077E+02  0.50400000000E-02 0. -1.
        -24    2    1    2    0    0  0.00000000000E+00  0.00000000000E+00 -0.42543014318E+02  0.92366439779E+02  0.81985676371E+02 0.  0.
         66    2    3    3    0    0 -0.36922953386E+02  0.56901296669E+01 -0.23406884671E+01  0.37485475590E+02  0.19999988440E+01 0.  0.
         13    1    3    3    0    0  0.36922953386E+02 -0.56901296669E+01 -0.40202325851E+02  0.54880964188E+02  0.10566000000E+00 0. -1.
         13    1    4    4    0    0 -0.29254651275E+01  0.10741883314E+00 -0.34622772037E+00  0.29497326469E+01  0.10566000000E+00 0. -1.
        -13    1    4    4    0    0 -0.22495066411E+02  0.30835917704E+01 -0.11534472716E+01  0.22734954490E+02  0.10566000000E+00 0.  1.
        -14    1    4    4    0    0 -0.11502421848E+02  0.24991190634E+01 -0.84101347509E+00  0.11800788453E+02  0.00000000000E+00 0.  1.
<mgrwt>
<rscale>  0 0.81985676E+02</rscale>
<asrwt>0</asrwt>
<pdfrwt beam="1">  1        1 0.10377650E-01 0.81985676E+02</pdfrwt>
<pdfrwt beam="2">  1       -2 0.38325712E-02 0.81985676E+02</pdfrwt>
<totfact> 0.12891428E+05</totfact>
</mgrwt>
</event>
<event>
 8    1  0.7756875E-018  0.7931994E+02  0.7818608E-02  0.1330992E+00
         -2   -1    0    0    0  501 -0.00000000000E+00  0.00000000000E+00  0.27933041831E+03  0.27933041832E+03  0.25500000000E-02 0.  1.
          1   -1    0    0  501    0  0.00000000000E+00 -0.00000000000E+00 -0.56310121977E+01  0.56310144532E+01  0.50400000000E-02 0. -1.
        -24    2    1    2    0    0  0.00000000000E+00  0.00000000000E+00  0.27369940611E+03  0.28496143277E+03  0.79319942403E+02 0.  0.
         66    2    3    3    0    0  0.15426425645E+02 -0.34414907612E+02  0.18072263218E+03  0.18462673225E+03  0.20000014532E+01 0.  0.
         13    1    3    3    0    0 -0.15426425645E+02  0.34414907612E+02  0.92976773928E+02  0.10033470052E+03  0.10566000000E+00 0. -1.
         13    1    4    4    0    0  0.94311007779E+01 -0.22662288987E+02  0.11739453583E+03  0.11993336988E+03  0.10566000000E+00 0. -1.
        -13    1    4    4    0    0  0.49582546465E+01 -0.98234465506E+01  0.51222536947E+02  0.52391257349E+02  0.10566000000E+00 0.  1.
        -14    1    4    4    0    0  0.10370702206E+01 -0.19291720740E+01  0.12105559406E+02  0.12302105026E+02  0.00000000000E+00 0.  1.
<mgrwt>
<rscale>  0 0.79319942E+02</rscale>
<asrwt>0</asrwt>
<pdfrwt beam="1">  1        1 0.86630966E-03 0.79319942E+02</pdfrwt>
<pdfrwt beam="2">  1       -2 0.42973915E-01 0.79319942E+02</pdfrwt>
<totfact> 0.74607608E+04</totfact>
</mgrwt>
</event>
<event>
 8    1  0.1110885E-017  0.8077551E+02  0.7818608E-02  0.1326865E+00
          1   -1    0    0  501    0  0.00000000000E+00  0.00000000000E+00  0.10319640365E+03  0.10319640377E+03  0.50400000000E-02 0. -1.
         -2   -1    0    0    0  501 -0.00000000000E+00 -0.00000000000E+00 -0.15806469557E+02  0.15806469762E+02  0.25500000000E-02 0.  1.
        -24    2    1    2    0    0 -0.44408920985E-15  0.00000000000E+00  0.87389934091E+02  0.11900287353E+03  0.80775511937E+02 0.  0.
         66    2    3    3    0    0 -0.21076084881E+01  0.17017580785E+02 -0.10110110284E+02  0.20006359016E+02  0.20000004483E+01 0.  0.
         13    1    3    3    0    0  0.21076084881E+01 -0.17017580785E+02  0.97500044375E+02  0.98996514517E+02  0.10566000000E+00 0. -1.
         13    1    4    4    0    0 -0.58314892731E+00  0.59979433437E+01 -0.37609805933E+01  0.71043315016E+01  0.10566000000E+00 0. -1.
        -13    1    4    4    0    0 -0.91575027372E+00  0.95689477198E+01 -0.58416860482E+01  0.11248991908E+02  0.10566000000E+00 0.  1.
         14    1    4    4    0    0 -0.60870928705E+00  0.14506897217E+01 -0.50744364294E+00  0.16530356063E+01  0.00000000000E+00 0. -1.
<mgrwt>
<rscale>  0 0.80775512E+02</rscale>
<asrwt>0</asrwt>
<pdfrwt beam="1">  1        1 0.15876370E-01 0.80775512E+02</pdfrwt>
<pdfrwt beam="2">  1       -2 0.24317645E-02 0.80775512E+02</pdfrwt>
<totfact> 0.14397206E+05</totfact>
</mgrwt>
</event>
<event>
 8    1  0.7756875E-018  0.7942138E+02  0.7818608E-02  0.1330702E+00
         -2   -1    0    0    0  501 -0.00000000000E+00  0.00000000000E+00  0.16893257068E+03  0.16893257070E+03  0.25500000000E-02 0.  1.
          1   -1    0    0  501    0  0.00000000000E+00 -0.00000000000E+00 -0.93347224517E+01  0.93347238123E+01  0.50400000000E-02 0. -1.
        -24    2    1    2    0    0  0.00000000000E+00  0.22204460493E-15  0.15959784823E+03  0.17826729451E+03  0.79421377055E+02 0.  0.
         66    2    3    3    0    0 -0.31019387956E+02 -0.13690407538E+01  0.13532525175E+03  0.13885604224E+03  0.20000008536E+01 0.  0.
         13    1    3    3    0    0  0.31019387956E+02  0.13690407538E+01  0.24272596476E+02  0.39411252270E+02  0.10566000000E+00 0. -1.
         13    1    4    4    0    0 -0.34847870867E+01 -0.42496865475E+00  0.17545632157E+02  0.17893705911E+02  0.10566000000E+00 0. -1.
        -13    1    4    4    0    0 -0.13589222524E+02 -0.10183866268E+00  0.59173702317E+02  0.60714212091E+02  0.10566000000E+00 0.  1.
        -14    1    4    4    0    0 -0.13945378345E+02 -0.84223343639E+00  0.58605917278E+02  0.60248124239E+02  0.00000000000E+00 0.  1.
<mgrwt>
<rscale>  0 0.79421377E+02</rscale>
<asrwt>0</asrwt>
<pdfrwt beam="1">  1        1 0.14361113E-02 0.79421377E+02</pdfrwt>
<pdfrwt beam="2">  1       -2 0.25989625E-01 0.79421377E+02</pdfrwt>
<totfact> 0.92447753E+04</totfact>
</mgrwt>
</event>
<event>
 8    1  0.7756875E-018  0.8896294E+02  0.7818608E-02  0.1305383E+00
         -2   -1    0    0    0  501 -0.00000000000E+00  0.00000000000E+00  0.38926345501E+03  0.38926345502E+03  0.25500000000E-02 0.  1.
          1   -1    0    0  501    0  0.00000000000E+00 -0.00000000000E+00 -0.50829345333E+01  0.50829370320E+01  0.50400000000E-02 0. -1.
        -24    2    1    2    0    0  0.00000000000E+00  0.35527136788E-14  0.38418052048E+03  0.39434639205E+03  0.88962939527E+02 0.  0.
         66    2    3    3    0    0  0.33666444164E+02  0.28131283652E+02  0.16028469170E+03  0.16619260206E+03  0.20000002994E+01 0.  0.
         13    1    3    3    0    0 -0.33666444164E+02 -0.28131283652E+02  0.22389582877E+03  0.22815378999E+03  0.10566000000E+00 0. -1.
         13    1    4    4    0    0  0.39653412604E+01  0.29528322342E+01  0.17978478327E+02  0.18646179140E+02  0.10566000000E+00 0. -1.
        -13    1    4    4    0    0  0.20499838610E+02  0.16443346426E+02  0.97149789739E+02  0.10064154130E+03  0.10566000000E+00 0.  1.
         14    1    4    4    0    0  0.92012642931E+01  0.87351049924E+01  0.45156423638E+02  0.46904881618E+02  0.00000000000E+00 0. -1.
<mgrwt>
<rscale>  0 0.88962940E+02</rscale>
<asrwt>0</asrwt>
<pdfrwt beam="1">  1        1 0.78199022E-03 0.88962940E+02</pdfrwt>
<pdfrwt beam="2">  1       -2 0.59886678E-01 0.88962940E+02</pdfrwt>
<totfact> 0.45671611E+04</totfact>
</mgrwt>
</event>
<event>
 8    1  0.7756875E-018  0.7891324E+02  0.7818608E-02  0.1332164E+00
          1   -1    0    0  501    0  0.00000000000E+00  0.00000000000E+00  0.20651626361E+03  0.20651626367E+03  0.50400000000E-02 0. -1.
         -2   -1    0    0    0  501 -0.00000000000E+00 -0.00000000000E+00 -0.75385097843E+01  0.75385102156E+01  0.25500000000E-02 0.  1.
        -24    2    1    2    0    0  0.00000000000E+00 -0.11102230246E-15  0.19897775383E+03  0.21405477389E+03  0.78913241642E+02 0.  0.
         66    2    3    3    0    0  0.37115272546E+02  0.97152625417E+00  0.63532793474E+02  0.73613199672E+02  0.19999999572E+01 0.  0.
         13    1    3    3    0    0 -0.37115272546E+02 -0.97152625417E+00  0.13544496035E+03  0.14044157422E+03  0.10566000000E+00 0. -1.
         13    1    4    4    0    0  0.41827341119E+01 -0.83001335361E-02  0.79930574588E+01  0.90219435333E+01  0.10566000000E+00 0. -1.
        -13    1    4    4    0    0  0.15114109541E+02  0.10927360626E+01  0.25125540907E+02  0.29341682794E+02  0.10566000000E+00 0.  1.
        -14    1    4    4    0    0  0.17818428894E+02 -0.11290967488E+00  0.30414195108E+02  0.35249573344E+02  0.00000000000E+00 0.  1.
<mgrwt>
<rscale>  0 0.78913242E+02</rscale>
<asrwt>0</asrwt>
<pdfrwt beam="1">  1        1 0.31771729E-01 0.78913242E+02</pdfrwt>
<pdfrwt beam="2">  1       -2 0.11597709E-02 0.78913242E+02</pdfrwt>
<totfact> 0.17397742E+05</totfact>
</mgrwt>
</event>
<event>
 8    1  0.7756875E-018  0.7810250E+02  0.7818608E-02  0.1334524E+00
          1   -1    0    0  501    0  0.00000000000E+00  0.00000000000E+00  0.11316976409E+02  0.11316977531E+02  0.50400000000E-02 0. -1.
         -2   -1    0    0    0  501 -0.00000000000E+00 -0.00000000000E+00 -0.13475330153E+03  0.13475330156E+03  0.25500000000E-02 0.  1.
        -24    2    1    2    0    0  0.27755575616E-16  0.00000000000E+00 -0.12343632512E+03  0.14607027909E+03  0.78102497226E+02 0.  0.
         66    2    3    3    0    0  0.66885710237E-01 -0.22159600116E+02 -0.12183780320E+03  0.12385274576E+03  0.19999977083E+01 0.  0.
         13    1    3    3    0    0 -0.66885710237E-01  0.22159600116E+02 -0.15985219203E+01  0.22217533332E+02  0.10566000000E+00 0. -1.
         13    1    4    4    0    0  0.36543638672E+00 -0.15821897582E+01 -0.76540127789E+01  0.78250842704E+01  0.10566000000E+00 0. -1.
        -13    1    4    4    0    0 -0.24419590862E+00 -0.19872299136E+02 -0.10917373261E+03  0.11096793663E+03  0.10566000000E+00 0.  1.
        -14    1    4    4    0    0 -0.54354767859E-01 -0.70511122234E+00 -0.50100578186E+01  0.50597248564E+01  0.00000000000E+00 0.  1.
<mgrwt>
<rscale>  0 0.78102497E+02</rscale>
<asrwt>0</asrwt>
<pdfrwt beam="1">  1        1 0.17410735E-02 0.78102497E+02</pdfrwt>
<pdfrwt beam="2">  1       -2 0.20731276E-01 0.78102497E+02</pdfrwt>
<totfact> 0.10399018E+05</totfact>
</mgrwt>
</event>
<event>
 8    1  0.7756875E-018  0.8061625E+02  0.7818608E-02  0.1327312E+00
         -2   -1    0    0    0  501 -0.00000000000E+00  0.00000000000E+00  0.25065272284E+03  0.25065272285E+03  0.25500000000E-02 0.  1.
          1   -1    0    0  501    0  0.00000000000E+00 -0.00000000000E+00 -0.64820542052E+01  0.64820561646E+01  0.50400000000E-02 0. -1.
        -24    2    1    2    0    0  0.00000000000E+00  0.00000000000E+00  0.24417066863E+03  0.25713477901E+03  0.80616246245E+02 0.  0.
         66    2    3    3    0    0 -0.10533152756E+02  0.18920202907E+02  0.23050479476E+03  0.23152836072E+03  0.20000068331E+01 0.  0.
         13    1    3    3    0    0  0.10533152756E+02 -0.18920202907E+02  0.13665873876E+02  0.25606418294E+02  0.10566000000E+00 0. -1.
         13    1    4    4    0    0 -0.64084664185E+01  0.13189397455E+02  0.15629309408E+03  0.15697952436E+03  0.10566000000E+00 0. -1.
        -13    1    4    4    0    0 -0.30050148760E+01  0.44692090081E+01  0.54913320699E+02  0.55176878289E+02  0.10566000000E+00 0.  1.
         14    1    4    4    0    0 -0.11196714615E+01  0.12615964438E+01  0.19298379973E+02  0.19371958067E+02  0.00000000000E+00 0. -1.
<mgrwt>
<rscale>  0 0.80616246E+02</rscale>
<asrwt>0</asrwt>
<pdfrwt beam="1">  1        1 0.99723915E-03 0.80616246E+02</pdfrwt>
<pdfrwt beam="2">  1       -2 0.38561962E-01 0.80616246E+02</pdfrwt>
<totfact> 0.75507592E+04</totfact>
</mgrwt>
</event>
<event>
 8    1  0.7756875E-018  0.7880585E+02  0.7818608E-02  0.1332475E+00
         -2   -1    0    0    0  501 -0.00000000000E+00  0.00000000000E+00  0.96513096598E+01  0.96513099967E+01  0.25500000000E-02 0.  1.
          1   -1    0    0  501    0  0.00000000000E+00 -0.00000000000E+00 -0.16086836433E+03  0.16086836441E+03  0.50400000000E-02 0. -1.
        -24    2    1    2    0    0  0.00000000000E+00  0.00000000000E+00 -0.15121705467E+03  0.17051967441E+03  0.78805848364E+02 0.  0.
         66    2    3    3    0    0 -0.17421858904E+02  0.21613448088E+02 -0.15228569207E+02  0.31726513016E+02  0.20000005357E+01 0.  0.
         13    1    3    3    0    0  0.17421858904E+02 -0.21613448088E+02 -0.13598848547E+03  0.13879316139E+03  0.10566000000E+00 0. -1.
         13    1    4    4    0    0 -0.71018208016E+00  0.10582290750E+01 -0.75000826733E+00  0.14825261545E+01  0.10566000000E+00 0. -1.
        -13    1    4    4    0    0 -0.14253895968E+01  0.24415882641E+01 -0.19356170992E+01  0.34279536672E+01  0.10566000000E+00 0.  1.
        -14    1    4    4    0    0 -0.15286287228E+02  0.18113630748E+02 -0.12542943840E+02  0.26816033194E+02  0.00000000000E+00 0.  1.
<mgrwt>
<rscale>  0 0.78805848E+02</rscale>
<asrwt>0</asrwt>
<pdfrwt beam="1">  1        1 0.24748977E-01 0.78805848E+02</pdfrwt>
<pdfrwt beam="2">  1       -2 0.14848170E-02 0.78805848E+02</pdfrwt>
<totfact> 0.16649164E+05</totfact>
</mgrwt>
</event>
<event>
 8    1  0.7756875E-018  0.8006116E+02  0.7818608E-02  0.1328878E+00
         -2   -1    0    0    0  501 -0.00000000000E+00  0.00000000000E+00  0.23055077384E+02  0.23055077525E+02  0.25500000000E-02 0.  1.
          1   -1    0    0  501    0  0.00000000000E+00 -0.00000000000E+00 -0.69505173869E+02  0.69505174052E+02  0.50400000000E-02 0. -1.
        -24    2    1    2    0    0  0.71054273576E-14 -0.17763568394E-14 -0.46450096485E+02  0.92560251577E+02  0.80061156053E+02 0.  0.
         66    2    3    3    0    0 -0.35029837714E+02  0.89073464213E+01 -0.34157839207E+01  0.36360664635E+02  0.20000005915E+01 0.  0.
         13    1    3    3    0    0  0.35029837714E+02 -0.89073464213E+01 -0.43034312565E+02  0.56199586942E+02  0.10566000000E+00 0. -1.
         13    1    4    4    0    0 -0.34883285962E+01  0.86001493650E+00  0.19646310935E-01  0.35943861923E+01  0.10566000000E+00 0. -1.
        -13    1    4    4    0    0 -0.20130841907E+02  0.56795062174E+01 -0.17295060919E+01  0.20988328712E+02  0.10566000000E+00 0.  1.
         14    1    4    4    0    0 -0.11410667210E+02  0.23678252674E+01 -0.17059241398E+01  0.11777949730E+02  0.00000000000E+00 0. -1.
<mgrwt>
<rscale>  0 0.80061156E+02</rscale>
<asrwt>0</asrwt>
<pdfrwt beam="1">  1        1 0.10693104E-01 0.80061156E+02</pdfrwt>
<pdfrwt beam="2">  1       -2 0.35469350E-02 0.80061156E+02</pdfrwt>
<totfact> 0.13826105E+05</totfact>
</mgrwt>
</event>
<event>
 8    1  0.7756875E-018  0.8077552E+02  0.7818608E-02  0.1326865E+00
         -2   -1    0    0    0  501 -0.00000000000E+00  0.00000000000E+00  0.12121635223E+02  0.12121635491E+02  0.25500000000E-02 0.  1.
          1   -1    0    0  501    0  0.00000000000E+00 -0.00000000000E+00 -0.13456692182E+03  0.13456692191E+03  0.50400000000E-02 0. -1.
        -24    2    1    2    0    0  0.00000000000E+00  0.00000000000E+00 -0.12244528659E+03  0.14668855740E+03  0.80775520201E+02 0.  0.
         66    2    3    3    0    0  0.14945572547E+02 -0.25791804248E+02 -0.11840139980E+02  0.32136835780E+02  0.19999985206E+01 0.  0.
         13    1    3    3    0    0 -0.14945572547E+02  0.25791804248E+02 -0.11060514661E+03  0.11455172162E+03  0.10566000000E+00 0. -1.
         13    1    4    4    0    0  0.43418404491E+00 -0.87463668584E+00 -0.57818965959E+00  0.11397247190E+01  0.10566000000E+00 0. -1.
        -13    1    4    4    0    0  0.37665070666E+01 -0.60992741574E+01 -0.35137511246E+01  0.79840673676E+01  0.10566000000E+00 0.  1.
        -14    1    4    4    0    0  0.10744881436E+02 -0.18817893405E+02 -0.77481991960E+01  0.23013043694E+02  0.00000000000E+00 0.  1.
<mgrwt>
<rscale>  0 0.80775520E+02</rscale>
<asrwt>0</asrwt>
<pdfrwt beam="1">  1        1 0.20702602E-01 0.80775520E+02</pdfrwt>
<pdfrwt beam="2">  1       -2 0.18648671E-02 0.80775520E+02</pdfrwt>
<totfact> 0.15083578E+05</totfact>
</mgrwt>
</event>
<event>
 8    1  0.7756875E-018  0.8038402E+02  0.7818608E-02  0.1327965E+00
         -2   -1    0    0    0  501 -0.00000000000E+00  0.00000000000E+00  0.13188615711E+02  0.13188615958E+02  0.25500000000E-02 0.  1.
          1   -1    0    0  501    0  0.00000000000E+00 -0.00000000000E+00 -0.12248424706E+03  0.12248424717E+03  0.50400000000E-02 0. -1.
        -24    2    1    2    0    0  0.00000000000E+00 -0.35527136788E-14 -0.10929563135E+03  0.13567286312E+03  0.80384020525E+02 0.  0.
         66    2    3    3    0    0 -0.32699196667E+02 -0.23313832105E+02 -0.53352054832E+02  0.66807290100E+02  0.20000064027E+01 0.  0.
         13    1    3    3    0    0  0.32699196667E+02  0.23313832105E+02 -0.55943576520E+02  0.68865573024E+02  0.10566000000E+00 0. -1.
         13    1    4    4    0    0 -0.22138629849E+01 -0.12761671960E+01 -0.34773794746E+01  0.43166102528E+01  0.10566000000E+00 0.  1.
        -13    1    4    4    0    0 -0.10310820356E+02 -0.69119491190E+01 -0.15451539681E+02  0.19820426322E+02  0.10566000000E+00 0.  1.
        -14    1    4    4    0    0 -0.20174513326E+02 -0.15125715790E+02 -0.34423135677E+02  0.42670253525E+02  0.00000000000E+00 0.  1.
<mgrwt>
<rscale>  0 0.80384021E+02</rscale>
<asrwt>0</asrwt>
<pdfrwt beam="1">  1        1 0.18843730E-01 0.80384021E+02</pdfrwt>
<pdfrwt beam="2">  1       -2 0.20290179E-02 0.80384021E+02</pdfrwt>
<totfact> 0.15026522E+05</totfact>
</mgrwt>
</event>
<event>
 8    1  0.7756875E-018  0.7712540E+02  0.7818608E-02  0.1337413E+00
         -2   -1    0    0    0  501 -0.00000000000E+00  0.00000000000E+00  0.19263654574E+02  0.19263654742E+02  0.25500000000E-02 0.  1.
          1   -1    0    0  501    0  0.00000000000E+00 -0.00000000000E+00 -0.77196247346E+02  0.77196247510E+02  0.50400000000E-02 0. -1.
        -24    2    1    2    0    0  0.00000000000E+00  0.00000000000E+00 -0.57932592772E+02  0.96459902253E+02  0.77125400727E+02 0.  0.
         66    2    3    3    0    0 -0.19524208963E+02 -0.33223671770E+01  0.12359801561E+02  0.23430697653E+02  0.20000096572E+01 0.  0.
         13    1    3    3    0    0  0.19524208963E+02  0.33223671770E+01 -0.70292394333E+02  0.73029204599E+02  0.10566000000E+00 0. -1.
         13    1    4    4    0    0 -0.21046518734E+01 -0.14911969809E+00  0.10666769750E+01  0.23665924865E+01  0.10566000000E+00 0. -1.
        -13    1    4    4    0    0 -0.71531745888E+01 -0.73161084232E+00  0.39150066695E+01  0.81878936474E+01  0.10566000000E+00 0.  1.
        -14    1    4    4    0    0 -0.10266382501E+02 -0.24416366366E+01  0.73781179163E+01  0.12876211520E+02  0.00000000000E+00 0.  1.
<mgrwt>
<rscale>  0 0.77125401E+02</rscale>
<asrwt>0</asrwt>
<pdfrwt beam="1">  1        1 0.11876346E-01 0.77125401E+02</pdfrwt>
<pdfrwt beam="2">  1       -2 0.29636392E-02 0.77125401E+02</pdfrwt>
<totfact> 0.15563076E+05</totfact>
</mgrwt>
</event>
<event>
 8    1  0.7756875E-018  0.8387697E+02  0.7818608E-02  0.1318396E+00
          1   -1    0    0  501    0  0.00000000000E+00  0.00000000000E+00  0.45679796698E+01  0.45679824502E+01  0.50400000000E-02 0. -1.
         -2   -1    0    0    0  501 -0.00000000000E+00 -0.00000000000E+00 -0.38503583585E+03  0.38503583586E+03  0.25500000000E-02 0.  1.
        -24    2    1    2    0    0 -0.35527136788E-14  0.17763568394E-14 -0.38046785618E+03  0.38960381831E+03  0.83876967365E+02 0.  0.
         66    2    3    3    0    0 -0.29074838807E+02  0.13806195622E+02 -0.31505434635E+03  0.31670048696E+03  0.19999997226E+01 0.  0.
         13    1    3    3    0    0  0.29074838807E+02 -0.13806195622E+02 -0.65413509839E+02  0.72903331356E+02  0.10566000000E+00 0. -1.
         13    1    4    4    0    0 -0.47932284826E+01  0.21155756951E+01 -0.53407476218E+02  0.53663957922E+02  0.10566000000E+00 0. -1.
        -13    1    4    4    0    0 -0.30468301165E+01  0.12322663229E+01 -0.27331671158E+02  0.27528767978E+02  0.10566000000E+00 0.  1.
        -14    1    4    4    0    0 -0.21234780208E+02  0.10458353604E+02 -0.23431519897E+03  0.23550776106E+03  0.00000000000E+00 0.  1.
<mgrwt>
<rscale>  0 0.83876967E+02</rscale>
<asrwt>0</asrwt>
<pdfrwt beam="1">  1        1 0.70276662E-03 0.83876967E+02</pdfrwt>
<pdfrwt beam="2">  1       -2 0.59236257E-01 0.83876967E+02</pdfrwt>
<totfact> 0.53600285E+04</totfact>
</mgrwt>
</event>
<event>
 8    1  0.7756875E-018  0.7725340E+02  0.7818608E-02  0.1337032E+00
         -2   -1    0    0    0  501 -0.00000000000E+00  0.00000000000E+00  0.11342700361E+02  0.11342700648E+02  0.25500000000E-02 0.  1.
          1   -1    0    0  501    0  0.00000000000E+00 -0.00000000000E+00 -0.13154026328E+03  0.13154026338E+03  0.50400000000E-02 0. -1.
        -24    2    1    2    0    0  0.00000000000E+00 -0.71054273576E-14 -0.12019756292E+03  0.14288296402E+03  0.77253396539E+02 0.  0.
         66    2    3    3    0    0  0.52599887648E+01 -0.36111649456E+02 -0.36868709347E+02  0.51913586156E+02  0.19999976083E+01 0.  0.
         13    1    3    3    0    0 -0.52599887648E+01  0.36111649456E+02 -0.83328853571E+02  0.90969377868E+02  0.10566000000E+00 0. -1.
         13    1    4    4    0    0  0.28899155585E+01 -0.17935550426E+02 -0.17312763830E+02  0.25095388750E+02  0.10566000000E+00 0.  1.
        -13    1    4    4    0    0  0.50016857781E+00 -0.19879518948E+01 -0.23475108401E+01  0.31183477231E+01  0.10566000000E+00 0. -1.
        -14    1    4    4    0    0  0.18699046285E+01 -0.16188147135E+02 -0.17208434677E+02  0.23699849683E+02  0.00000000000E+00 0.  1.
<mgrwt>
<rscale>  0 0.77253397E+02</rscale>
<asrwt>0</asrwt>
<pdfrwt beam="1">  1        1 0.20236963E-01 0.77253397E+02</pdfrwt>
<pdfrwt beam="2">  1       -2 0.17450309E-02 0.77253397E+02</pdfrwt>
<totfact> 0.16925798E+05</totfact>
</mgrwt>
</event>
<event>
 8    1  0.7756875E-018  0.8035880E+02  0.7818608E-02  0.1328036E+00
          1   -1    0    0  501    0  0.00000000000E+00  0.00000000000E+00  0.62721936185E+01  0.62721956434E+01  0.50400000000E-02 0. -1.
         -2   -1    0    0    0  501 -0.00000000000E+00 -0.00000000000E+00 -0.25738747860E+03  0.25738747861E+03  0.25500000000E-02 0.  1.
        -24    2    1    2    0    0  0.00000000000E+00  0.00000000000E+00 -0.25111528498E+03  0.26365967426E+03  0.80358804605E+02 0.  0.
         66    2    3    3    0    0  0.73211387524E+01 -0.11957183716E+02 -0.24909117975E+03  0.24949346513E+03  0.19999992782E+01 0.  0.
         13    1    3    3    0    0 -0.73211387524E+01  0.11957183716E+02 -0.20241052318E+01  0.14166209129E+02  0.10566000000E+00 0. -1.
         13    1    4    4    0    0  0.16874356602E+01 -0.25216330338E+01 -0.57327422813E+02  0.57407757688E+02  0.10566000000E+00 0.  1.
        -13    1    4    4    0    0  0.87214233731E+00 -0.27436287882E+01 -0.55376979839E+02  0.55451863731E+02  0.10566000000E+00 0. -1.
         14    1    4    4    0    0  0.47615607549E+01 -0.66919218941E+01 -0.13638677710E+03  0.13663384371E+03  0.00000000000E+00 0. -1.
<mgrwt>
<rscale>  0 0.80358805E+02</rscale>
<asrwt>0</asrwt>
<pdfrwt beam="1">  1        1 0.96495322E-03 0.80358805E+02</pdfrwt>
<pdfrwt beam="2">  1       -2 0.39598066E-01 0.80358805E+02</pdfrwt>
<totfact> 0.75166654E+04</totfact>
</mgrwt>
</event>
<event>
 8    1  0.7756875E-018  0.8199405E+02  0.7818608E-02  0.1323486E+00
         -2   -1    0    0    0  501 -0.00000000000E+00  0.00000000000E+00  0.81406053048E+01  0.81406057042E+01  0.25500000000E-02 0.  1.
          1   -1    0    0  501    0  0.00000000000E+00 -0.00000000000E+00 -0.20646571162E+03  0.20646571168E+03  0.50400000000E-02 0. -1.
        -24    2    1    2    0    0 -0.71054273576E-14  0.17763568394E-14 -0.19832510632E+03  0.21460631739E+03  0.81994046534E+02 0.  0.
         66    2    3    3    0    0 -0.37781733967E+02  0.98023176607E+01 -0.13182866475E+03  0.13750033346E+03  0.19999993601E+01 0.  0.
         13    1    3    3    0    0  0.37781733967E+02 -0.98023176607E+01 -0.66496441565E+02  0.77105983930E+02  0.10566000000E+00 0. -1.
         13    1    4    4    0    0 -0.13784541609E+02  0.37052688653E+01 -0.51522029643E+02  0.53462821729E+02  0.10566000000E+00 0. -1.
        -13    1    4    4    0    0 -0.13380968703E+02  0.33741307735E+01 -0.45253119919E+02  0.47310581357E+02  0.10566000000E+00 0.  1.
         14    1    4    4    0    0 -0.10616223655E+02  0.27229180219E+01 -0.35053515191E+02  0.36726930372E+02  0.00000000000E+00 0. -1.
<mgrwt>
<rscale>  0 0.81994047E+02</rscale>
<asrwt>0</asrwt>
<pdfrwt beam="1">  1        1 0.31763952E-01 0.81994047E+02</pdfrwt>
<pdfrwt beam="2">  1       -2 0.12524010E-02 0.81994047E+02</pdfrwt>
<totfact> 0.15714971E+05</totfact>
</mgrwt>
</event>
<event>
 8    1  0.7756875E-018  0.7961555E+02  0.7818608E-02  0.1330146E+00
         -2   -1    0    0    0  501 -0.00000000000E+00  0.00000000000E+00  0.66079483994E+01  0.66079488914E+01  0.25500000000E-02 0.  1.
          1   -1    0    0  501    0  0.00000000000E+00 -0.00000000000E+00 -0.23981100445E+03  0.23981100451E+03  0.50400000000E-02 0. -1.
        -24    2    1    2    0    0  0.00000000000E+00 -0.35527136788E-14 -0.23320305605E+03  0.24641895340E+03  0.79615546477E+02 0.  0.
         66    2    3    3    0    0 -0.32376078375E+02  0.16732400668E+02 -0.67301315241E+02  0.76561417645E+02  0.19999889031E+01 0.  0.
         13    1    3    3    0    0  0.32376078375E+02 -0.16732400668E+02 -0.16590174081E+03  0.16985753575E+03  0.10566000000E+00 0. -1.
         13    1    4    4    0    0 -0.18100995546E+01  0.12940795949E+01 -0.37672012984E+01  0.43765365363E+01  0.10566000000E+00 0. -1.
        -13    1    4    4    0    0 -0.25278395554E+02  0.13231985522E+02 -0.52550212981E+02  0.59796477915E+02  0.10566000000E+00 0.  1.
         14    1    4    4    0    0 -0.52875832662E+01  0.22063355514E+01 -0.10983900961E+02  0.12388403194E+02  0.00000000000E+00 0. -1.
<mgrwt>
<rscale>  0 0.79615546E+02</rscale>
<asrwt>0</asrwt>
<pdfrwt beam="1">  1        1 0.36893994E-01 0.79615546E+02</pdfrwt>
<pdfrwt beam="2">  1       -2 0.10166077E-02 0.79615546E+02</pdfrwt>
<totfact> 0.17496141E+05</totfact>
</mgrwt>
</event>
<event>
 8    1  0.7756875E-018  0.8024399E+02  0.7818608E-02  0.1328360E+00
          1   -1    0    0  501    0  0.00000000000E+00  0.00000000000E+00  0.73347634365E+02  0.73347634538E+02  0.50400000000E-02 0. -1.
         -2   -1    0    0    0  501 -0.00000000000E+00 -0.00000000000E+00 -0.21947188587E+02  0.21947188735E+02  0.25500000000E-02 0.  1.
        -24    2    1    2    0    0 -0.20816681712E-16  0.00000000000E+00  0.51400445778E+02  0.95294823274E+02  0.80243987417E+02 0.  0.
         66    2    3    3    0    0 -0.55309162885E-01 -0.24079919979E+02 -0.12358625119E+02  0.27140029671E+02  0.19999976021E+01 0.  0.
         13    1    3    3    0    0  0.55309162885E-01  0.24079919979E+02  0.63759070897E+02  0.68154793603E+02  0.10566000000E+00 0. -1.
         13    1    4    4    0    0  0.11220659894E+00 -0.73856658772E+01 -0.30721989049E+01  0.80006387819E+01  0.10566000000E+00 0. -1.
        -13    1    4    4    0    0  0.63578100230E-01 -0.11872769449E+02 -0.71561363580E+01  0.13863194010E+02  0.10566000000E+00 0.  1.
        -14    1    4    4    0    0 -0.23109386206E+00 -0.48214846530E+01 -0.21302898562E+01  0.52761968788E+01  0.00000000000E+00 0.  1.
<mgrwt>
<rscale>  0 0.80243987E+02</rscale>
<asrwt>0</asrwt>
<pdfrwt beam="1">  1        1 0.11284252E-01 0.80243987E+02</pdfrwt>
<pdfrwt beam="2">  1       -2 0.33764905E-02 0.80243987E+02</pdfrwt>
<totfact> 0.13857995E+05</totfact>
</mgrwt>
</event>
<event>
 8    1  0.7756875E-018  0.8266271E+02  0.7818608E-02  0.1321660E+00
          1   -1    0    0  501    0  0.00000000000E+00  0.00000000000E+00  0.45731561607E+02  0.45731561885E+02  0.50400000000E-02 0. -1.
         -2   -1    0    0    0  501 -0.00000000000E+00 -0.00000000000E+00 -0.37354526814E+02  0.37354526901E+02  0.25500000000E-02 0.  1.
        -24    2    1    2    0    0  0.00000000000E+00  0.00000000000E+00  0.83770347928E+01  0.83086088786E+02  0.82662708871E+02 0.  0.
         66    2    3    3    0    0  0.38122662073E+02  0.22281339370E+01 -0.11636878749E+02  0.39971475908E+02  0.19999987192E+01 0.  0.
         13    1    3    3    0    0 -0.38122662073E+02 -0.22281339370E+01  0.20013913542E+02  0.43114612878E+02  0.10566000000E+00 0. -1.
         13    1    4    4    0    0  0.54507754789E+01  0.68011329699E+00 -0.13025750258E+01  0.56463592829E+01  0.10566000000E+00 0. -1.
        -13    1    4    4    0    0  0.24369778716E+02  0.16727571453E+01 -0.75434238839E+01  0.25565575273E+02  0.10566000000E+00 0.  1.
        -14    1    4    4    0    0  0.83021078781E+01 -0.12473650535E+00 -0.27908798390E+01  0.87595413517E+01  0.00000000000E+00 0.  1.
<mgrwt>
<rscale>  0 0.82662709E+02</rscale>
<asrwt>0</asrwt>
<pdfrwt beam="1">  1        1 0.70356249E-02 0.82662709E+02</pdfrwt>
<pdfrwt beam="2">  1       -2 0.57468503E-02 0.82662709E+02</pdfrwt>
<totfact> 0.11835324E+05</totfact>
</mgrwt>
</event>
<event>
 8    1  0.7756875E-018  0.7974793E+02  0.7818608E-02  0.1329768E+00
         -2   -1    0    0    0  501 -0.00000000000E+00  0.00000000000E+00  0.24451573148E+02  0.24451573281E+02  0.25500000000E-02 0.  1.
          1   -1    0    0  501    0  0.00000000000E+00 -0.00000000000E+00 -0.65023761665E+02  0.65023761860E+02  0.50400000000E-02 0. -1.
        -24    2    1    2    0    0  0.00000000000E+00  0.00000000000E+00 -0.40572188517E+02  0.89475335142E+02  0.79747934880E+02 0.  0.
         66    2    3    3    0    0 -0.37562121352E+00  0.32890603127E+02  0.49393136798E+01  0.33321609872E+02  0.19999998744E+01 0.  0.
         13    1    3    3    0    0  0.37562121352E+00 -0.32890603127E+02 -0.45511502197E+02  0.56153725269E+02  0.10566000000E+00 0. -1.
         13    1    4    4    0    0 -0.45803752328E+00  0.60353443815E+01  0.71072826095E+00  0.60952012988E+01  0.10566000000E+00 0. -1.
        -13    1    4    4    0    0 -0.16204058464E+00  0.13019089629E+02  0.13349391403E+01  0.13088780633E+02  0.10566000000E+00 0.  1.
        -14    1    4    4    0    0  0.24445689440E+00  0.13836169116E+02  0.28936462785E+01  0.14137627940E+02  0.00000000000E+00 0.  1.
<mgrwt>
<rscale>  0 0.79747935E+02</rscale>
<asrwt>0</asrwt>
<pdfrwt beam="1">  1        1 0.10003656E-01 0.79747935E+02</pdfrwt>
<pdfrwt beam="2">  1       -2 0.37617805E-02 0.79747935E+02</pdfrwt>
<totfact> 0.13829587E+05</totfact>
</mgrwt>
</event>
<event>
 8    1  0.7756875E-018  0.8603882E+02  0.7818608E-02  0.1312738E+00
         -2   -1    0    0    0  501 -0.00000000000E+00  0.00000000000E+00  0.51654296650E+01  0.51654302944E+01  0.25500000000E-02 0.  1.
          1   -1    0    0  501    0  0.00000000000E+00 -0.00000000000E+00 -0.35827987283E+03  0.35827987287E+03  0.50400000000E-02 0. -1.
        -24    2    1    2    0    0  0.00000000000E+00  0.00000000000E+00 -0.35311444317E+03  0.36344530316E+03  0.86038819246E+02 0.  0.
         66    2    3    3    0    0 -0.42880208821E+02  0.12678158898E+00 -0.18996775987E+03  0.19475748553E+03  0.19999996035E+01 0.  0.
         13    1    3    3    0    0  0.42880208821E+02 -0.12678158898E+00 -0.16314668330E+03  0.16868781763E+03  0.10566000000E+00 0. -1.
         13    1    4    4    0    0 -0.10535762872E+02  0.76749706113E+00 -0.45408686776E+02  0.46621361518E+02  0.10566000000E+00 0. -1.
        -13    1    4    4    0    0 -0.23422626629E+02 -0.69361294485E+00 -0.10394762716E+03  0.10655618655E+03  0.10566000000E+00 0.  1.
        -14    1    4    4    0    0 -0.89218193194E+01  0.52897472693E-01 -0.40611445940E+02  0.41579937463E+02  0.00000000000E+00 0.  1.
<mgrwt>
<rscale>  0 0.86038819E+02</rscale>
<asrwt>0</asrwt>
<pdfrwt beam="1">  1        1 0.55119961E-01 0.86038819E+02</pdfrwt>
<pdfrwt beam="2">  1       -2 0.79468182E-03 0.86038819E+02</pdfrwt>
<totfact> 0.15382436E+05</totfact>
</mgrwt>
</event>
<event>
 8    1  0.7756875E-018  0.8020532E+02  0.7818608E-02  0.1328470E+00
         -2   -1    0    0    0  501 -0.00000000000E+00  0.00000000000E+00  0.22067582878E+02  0.22067583025E+02  0.25500000000E-02 0.  1.
          1   -1    0    0  501    0  0.00000000000E+00 -0.00000000000E+00 -0.72877188966E+02  0.72877189141E+02  0.50400000000E-02 0. -1.
        -24    2    1    2    0    0  0.35527136788E-14 -0.17763568394E-14 -0.50809606088E+02  0.94944772166E+02  0.80205322085E+02 0.  0.
         66    2    3    3    0    0 -0.27251896647E+02  0.12450680742E+02  0.60894115710E+01  0.30639292645E+02  0.19999996769E+01 0.  0.
         13    1    3    3    0    0  0.27251896647E+02 -0.12450680742E+02 -0.56899017659E+02  0.64305479521E+02  0.10566000000E+00 0. -1.
         13    1    4    4    0    0 -0.56514663496E+01  0.25824072769E+01  0.89847333411E+00  0.62790379528E+01  0.10566000000E+00 0. -1.
        -13    1    4    4    0    0 -0.69389898835E+01  0.27183694997E+01  0.22491987279E+01  0.77851892908E+01  0.10566000000E+00 0.  1.
        -14    1    4    4    0    0 -0.14661440414E+02  0.71499039649E+01  0.29417395090E+01  0.16575065401E+02  0.00000000000E+00 0.  1.
<mgrwt>
<rscale>  0 0.80205322E+02</rscale>
<asrwt>0</asrwt>
<pdfrwt beam="1">  1        1 0.11211875E-01 0.80205322E+02</pdfrwt>
<pdfrwt beam="2">  1       -2 0.33950128E-02 0.80205322E+02</pdfrwt>
<totfact> 0.13862048E+05</totfact>
</mgrwt>
</event>
<event>
 8    1  0.7756875E-018  0.8652627E+02  0.7818608E-02  0.1311489E+00
          1   -1    0    0  501    0  0.00000000000E+00  0.00000000000E+00  0.45588257971E+02  0.45588258250E+02  0.50400000000E-02 0. -1.
         -2   -1    0    0    0  501 -0.00000000000E+00 -0.00000000000E+00 -0.41056600220E+02  0.41056600299E+02  0.25500000000E-02 0.  1.
        -24    2    1    2    0    0  0.35527136788E-14  0.00000000000E+00  0.45316577516E+01  0.86644858549E+02  0.86526271103E+02 0.  0.
         66    2    3    3    0    0 -0.30351001651E+02  0.16672940784E+02 -0.23662923428E+02  0.41989334507E+02  0.20000028974E+01 0.  0.
         13    1    3    3    0    0  0.30351001651E+02 -0.16672940784E+02  0.28194581179E+02  0.44655524042E+02  0.10566000000E+00 0. -1.
         13    1    4    4    0    0 -0.65426589699E+01  0.37578683036E+01 -0.55429788702E+01  0.93628916140E+01  0.10566000000E+00 0.  1.
        -13    1    4    4    0    0 -0.28100875562E+01  0.21190383621E+01 -0.23493672558E+01  0.42329193462E+01  0.10566000000E+00 0.  1.
        -14    1    4    4    0    0 -0.20998255125E+02  0.10796034118E+02 -0.15770577302E+02  0.28393523546E+02  0.00000000000E+00 0.  1.
<mgrwt>
<rscale>  0 0.86526271E+02</rscale>
<asrwt>0</asrwt>
<pdfrwt beam="1">  1        1 0.70135782E-02 0.86526271E+02</pdfrwt>
<pdfrwt beam="2">  1       -2 0.63164000E-02 0.86526271E+02</pdfrwt>
<totfact> 0.10397461E+05</totfact>
</mgrwt>
</event>
<event>
 8    1  0.7756875E-018  0.7859457E+02  0.7818608E-02  0.1333088E+00
         -2   -1    0    0    0  501 -0.00000000000E+00  0.00000000000E+00  0.52717988628E+01  0.52717994796E+01  0.25500000000E-02 0.  1.
          1   -1    0    0  501    0  0.00000000000E+00 -0.00000000000E+00 -0.29293162009E+03  0.29293162014E+03  0.50400000000E-02 0. -1.
        -24    2    1    2    0    0 -0.35527136788E-14  0.35527136788E-14 -0.28765982123E+03  0.29820341962E+03  0.78594571826E+02 0.  0.
         66    2    3    3    0    0  0.19280257596E+02 -0.29920136637E+02 -0.80965514382E+02  0.88466702380E+02  0.20000003804E+01 0.  0.
         13    1    3    3    0    0 -0.19280257596E+02  0.29920136637E+02 -0.20669430685E+03  0.20973671724E+03  0.10566000000E+00 0. -1.
         13    1    4    4    0    0  0.73512502176E+01 -0.11785514330E+02 -0.33476965170E+02  0.36244414588E+02  0.10566000000E+00 0. -1.
        -13    1    4    4    0    0  0.97242347869E+01 -0.15025635806E+02 -0.39895381002E+02  0.43726228546E+02  0.10566000000E+00 0.  1.
         14    1    4    4    0    0  0.22047725917E+01 -0.31089865006E+01 -0.75931682102E+01  0.84960592459E+01  0.00000000000E+00 0. -1.
<mgrwt>
<rscale>  0 0.78594572E+02</rscale>
<asrwt>0</asrwt>
<pdfrwt beam="1">  1        1 0.45066391E-01 0.78594572E+02</pdfrwt>
<pdfrwt beam="2">  1       -2 0.81104626E-03 0.78594572E+02</pdfrwt>
<totfact> 0.18818236E+05</totfact>
</mgrwt>
</event>
<event>
 8    1  0.7756875E-018  0.7854729E+02  0.7818608E-02  0.1333225E+00
         -2   -1    0    0    0  501 -0.00000000000E+00  0.00000000000E+00  0.10469481535E+02  0.10469481845E+02  0.25500000000E-02 0.  1.
          1   -1    0    0  501    0  0.00000000000E+00 -0.00000000000E+00 -0.14732524931E+03  0.14732524939E+03  0.50400000000E-02 0. -1.
        -24    2    1    2    0    0  0.17763568394E-14  0.00000000000E+00 -0.13685576777E+03  0.15779473124E+03  0.78547285338E+02 0.  0.
         66    2    3    3    0    0 -0.10269086933E+02  0.34937646179E+02 -0.39062228421E+02  0.53441098001E+02  0.19999998447E+01 0.  0.
         13    1    3    3    0    0  0.10269086933E+02 -0.34937646179E+02 -0.97793539351E+02  0.10435363324E+03  0.10566000000E+00 0. -1.
         13    1    4    4    0    0 -0.14723017632E+01  0.73036999317E+01 -0.78564353385E+01  0.10828039778E+02  0.10566000000E+00 0. -1.
        -13    1    4    4    0    0 -0.35428575867E+01  0.10545159777E+02 -0.12647622630E+02  0.16844160911E+02  0.10566000000E+00 0.  1.
        -14    1    4    4    0    0 -0.52539275836E+01  0.17088786470E+02 -0.18558170453E+02  0.25768897311E+02  0.00000000000E+00 0.  1.
<mgrwt>
<rscale>  0 0.78547285E+02</rscale>
<asrwt>0</asrwt>
<pdfrwt beam="1">  1        1 0.22665422E-01 0.78547285E+02</pdfrwt>
<pdfrwt beam="2">  1       -2 0.16106896E-02 0.78547285E+02</pdfrwt>
<totfact> 0.16525432E+05</totfact>
</mgrwt>
</event>
<event>
 8    1  0.7756875E-018  0.7986254E+02  0.7818608E-02  0.1329442E+00
         -2   -1    0    0    0  501 -0.00000000000E+00  0.00000000000E+00  0.40130909041E+03  0.40130909042E+03  0.25500000000E-02 0.  1.
          1   -1    0    0  501    0  0.00000000000E+00 -0.00000000000E+00 -0.39732609845E+01  0.39732641811E+01  0.50400000000E-02 0. -1.
        -24    2    1    2    0    0  0.88817841970E-15  0.00000000000E+00  0.39733582942E+03  0.40528235460E+03  0.79862541934E+02 0.  0.
         66    2    3    3    0    0  0.77431022120E+01 -0.30703371026E+02  0.32204159332E+03  0.32360074235E+03  0.19999999302E+01 0.  0.
         13    1    3    3    0    0 -0.77431022120E+01  0.30703371026E+02  0.75294236106E+02  0.81681612245E+02  0.10566000000E+00 0. -1.
         13    1    4    4    0    0  0.28303464474E+01 -0.11547521333E+02  0.12680296590E+03  0.12735917492E+03  0.10566000000E+00 0.  1.
        -13    1    4    4    0    0  0.37460210464E+01 -0.13732965279E+02  0.14542616399E+03  0.14612120772E+03  0.10566000000E+00 0. -1.
         14    1    4    4    0    0  0.11667347182E+01 -0.54228844139E+01  0.49812463425E+02  0.50120359713E+02  0.00000000000E+00 0. -1.
<mgrwt>
<rscale>  0 0.79862542E+02</rscale>
<asrwt>0</asrwt>
<pdfrwt beam="1">  1        1 0.61127118E-03 0.79862542E+02</pdfrwt>
<pdfrwt beam="2">  1       -2 0.61739859E-01 0.79862542E+02</pdfrwt>
<totfact> 0.59228114E+04</totfact>
</mgrwt>
</event>
<event>
 8    1  0.7756875E-018  0.8080876E+02  0.7818608E-02  0.1326772E+00
          1   -1    0    0  501    0  0.00000000000E+00  0.00000000000E+00  0.11547841154E+02  0.11547842253E+02  0.50400000000E-02 0. -1.
         -2   -1    0    0    0  501 -0.00000000000E+00 -0.00000000000E+00 -0.14136962774E+03  0.14136962776E+03  0.25500000000E-02 0.  1.
        -24    2    1    2    0    0  0.00000000000E+00  0.00000000000E+00 -0.12982178659E+03  0.15291747002E+03  0.80808764152E+02 0.  0.
         66    2    3    3    0    0 -0.29887473237E+02 -0.21793186710E+02 -0.34302554408E+02  0.50486327665E+02  0.19999996654E+01 0.  0.
         13    1    3    3    0    0  0.29887473237E+02  0.21793186710E+02 -0.95519232179E+02  0.10243114235E+03  0.10566000000E+00 0. -1.
         13    1    4    4    0    0 -0.22576941907E+02 -0.16212236190E+02 -0.25035055766E+02  0.37407487076E+02  0.10566000000E+00 0. -1.
        -13    1    4    4    0    0 -0.62337782873E+01 -0.46818869307E+01 -0.82083499525E+01  0.11321140841E+02  0.10566000000E+00 0.  1.
         14    1    4    4    0    0 -0.10767530434E+01 -0.89906358991E+00 -0.10591486896E+01  0.17576997473E+01  0.00000000000E+00 0. -1.
<mgrwt>
<rscale>  0 0.80808764E+02</rscale>
<asrwt>0</asrwt>
<pdfrwt beam="1">  1        1 0.17765911E-02 0.80808764E+02</pdfrwt>
<pdfrwt beam="2">  1       -2 0.21749172E-01 0.80808764E+02</pdfrwt>
<totfact> 0.93869022E+04</totfact>
</mgrwt>
</event>
<event>
 8    1  0.7756875E-018  0.8146658E+02  0.7818608E-02  0.1324940E+00
          1   -1    0    0  501    0  0.00000000000E+00  0.00000000000E+00  0.12646171684E+03  0.12646171694E+03  0.50400000000E-02 0. -1.
         -2   -1    0    0    0  501 -0.00000000000E+00 -0.00000000000E+00 -0.13120184073E+02  0.13120184321E+02  0.25500000000E-02 0.  1.
        -24    2    1    2    0    0  0.00000000000E+00  0.35527136788E-14  0.11334153276E+03  0.13958190126E+03  0.81466582780E+02 0.  0.
         66    2    3    3    0    0 -0.88187648001E+01  0.29957947641E+02  0.11961851225E+02  0.33501270452E+02  0.19999994360E+01 0.  0.
         13    1    3    3    0    0  0.88187648001E+01 -0.29957947641E+02  0.10137968154E+03  0.10608063081E+03  0.10566000000E+00 0. -1.
         13    1    4    4    0    0 -0.40607657200E+01  0.10703908358E+02  0.41997445509E+01  0.12194773090E+02  0.10566000000E+00 0. -1.
        -13    1    4    4    0    0 -0.11284366216E+01  0.52406569060E+01  0.23044815424E+01  0.58360648755E+01  0.10566000000E+00 0.  1.
        -14    1    4    4    0    0 -0.36295624584E+01  0.14013382376E+02  0.54576251319E+01  0.15470432487E+02  0.00000000000E+00 0.  1.
<mgrwt>
<rscale>  0 0.81466583E+02</rscale>
<asrwt>0</asrwt>
<pdfrwt beam="1">  1        1 0.19455648E-01 0.81466583E+02</pdfrwt>
<pdfrwt beam="2">  1       -2 0.20184899E-02 0.81466583E+02</pdfrwt>
<totfact> 0.14578349E+05</totfact>
</mgrwt>
</event>
<event>
 8    1  0.7756875E-018  0.7880239E+02  0.7818608E-02  0.1332485E+00
          1   -1    0    0  501    0  0.00000000000E+00  0.00000000000E+00  0.80956171497E+02  0.80956171654E+02  0.50400000000E-02 0. -1.
         -2   -1    0    0    0  501 -0.00000000000E+00 -0.00000000000E+00 -0.19176476355E+02  0.19176476524E+02  0.25500000000E-02 0.  1.
        -24    2    1    2    0    0 -0.35527136788E-14  0.00000000000E+00  0.61779695142E+02  0.10013264818E+03  0.78802388918E+02 0.  0.
         66    2    3    3    0    0  0.28526299656E+02 -0.19597327488E+02  0.54771571075E+02  0.64820752396E+02  0.19999816292E+01 0.  0.
         13    1    3    3    0    0 -0.28526299656E+02  0.19597327488E+02  0.70081240677E+01  0.35311895782E+02  0.10566000000E+00 0. -1.
         13    1    4    4    0    0  0.52081068032E+01 -0.41257716106E+01  0.10631536058E+02  0.12537427601E+02  0.10566000000E+00 0. -1.
        -13    1    4    4    0    0  0.18126740045E+02 -0.12655782529E+02  0.34327924020E+02  0.40830932731E+02  0.10566000000E+00 0.  1.
        -14    1    4    4    0    0  0.51914528071E+01 -0.28157733487E+01  0.98121109962E+01  0.11452392065E+02  0.00000000000E+00 0.  1.
<mgrwt>
<rscale>  0 0.78802389E+02</rscale>
<asrwt>0</asrwt>
<pdfrwt beam="1">  1        1 0.12454796E-01 0.78802389E+02</pdfrwt>
<pdfrwt beam="2">  1       -2 0.29502272E-02 0.78802389E+02</pdfrwt>
<totfact> 0.14791066E+05</totfact>
</mgrwt>
</event>
<event>
 8    1  0.7756875E-018  0.7866797E+02  0.7818608E-02  0.1332875E+00
         -2   -1    0    0    0  501 -0.00000000000E+00  0.00000000000E+00  0.47788350813E+03  0.47788350814E+03  0.25500000000E-02 0.  1.
          1   -1    0    0  501    0  0.00000000000E+00 -0.00000000000E+00 -0.32375281284E+01  0.32375320514E+01  0.50400000000E-02 0. -1.
        -24    2    1    2    0    0  0.00000000000E+00  0.00000000000E+00  0.47464598000E+03  0.48112104019E+03  0.78667966671E+02 0.  0.
         66    2    3    3    0    0  0.44406247166E+01 -0.20081222419E+02  0.44235059381E+03  0.44283295098E+03  0.19999976427E+01 0.  0.
         13    1    3    3    0    0 -0.44406247166E+01  0.20081222419E+02  0.32295386192E+02  0.38288089206E+02  0.10566000000E+00 0. -1.
         13    1    4    4    0    0  0.24962623541E+01 -0.84839196120E+01  0.20552081552E+03  0.20571102302E+03  0.10566000000E+00 0. -1.
        -13    1    4    4    0    0  0.10131329227E+01 -0.48590103422E+01  0.99352845160E+02  0.99476808480E+02  0.10566000000E+00 0.  1.
         14    1    4    4    0    0  0.93122943986E+00 -0.67382924644E+01  0.13747693313E+03  0.13764511948E+03  0.00000000000E+00 0. -1.
<mgrwt>
<rscale>  0 0.78667967E+02</rscale>
<asrwt>0</asrwt>
<pdfrwt beam="1">  1        1 0.49808177E-03 0.78667967E+02</pdfrwt>
<pdfrwt beam="2">  1       -2 0.73520509E-01 0.78667967E+02</pdfrwt>
<totfact> 0.54451508E+04</totfact>
</mgrwt>
</event>
<event>
 8    1  0.7756875E-018  0.7915133E+02  0.7818608E-02  0.1331477E+00
         -2   -1    0    0    0  501 -0.00000000000E+00  0.00000000000E+00  0.11682749748E+03  0.11682749751E+03  0.25500000000E-02 0.  1.
          1   -1    0    0  501    0  0.00000000000E+00 -0.00000000000E+00 -0.13406373030E+02  0.13406373978E+02  0.50400000000E-02 0. -1.
        -24    2    1    2    0    0  0.11102230246E-15  0.71054273576E-14  0.10342112445E+03  0.13023387148E+03  0.79151325318E+02 0.  0.
         66    2    3    3    0    0  0.83312219048E+00  0.26935911543E+02  0.99374010082E+02  0.10298267478E+03  0.20000002725E+01 0.  0.
         13    1    3    3    0    0 -0.83312219048E+00 -0.26935911543E+02  0.40471143653E+01  0.27251196707E+02  0.10566000000E+00 0. -1.
         13    1    4    4    0    0  0.31931198644E-01  0.70124917238E+01  0.24364709016E+02  0.25354018799E+02  0.10566000000E+00 0. -1.
        -13    1    4    4    0    0  0.30553273164E+00  0.14944100767E+01  0.46944756481E+01  0.49371932688E+01  0.10566000000E+00 0.  1.
        -14    1    4    4    0    0  0.49565826019E+00  0.18429009742E+02  0.70314825418E+02  0.72691462709E+02  0.00000000000E+00 0.  1.
<mgrwt>
<rscale>  0 0.79151325E+02</rscale>
<asrwt>0</asrwt>
<pdfrwt beam="1">  1        1 0.20625190E-02 0.79151325E+02</pdfrwt>
<pdfrwt beam="2">  1       -2 0.17973461E-01 0.79151325E+02</pdfrwt>
<totfact> 0.10472691E+05</totfact>
</mgrwt>
</event>
<event>
 8    1  0.7756875E-018  0.7873414E+02  0.7818608E-02  0.1332683E+00
          1   -1    0    0  501    0  0.00000000000E+00  0.00000000000E+00  0.37715708452E+02  0.37715708789E+02  0.50400000000E-02 0. -1.
         -2   -1    0    0    0  501 -0.00000000000E+00 -0.00000000000E+00 -0.41090730327E+02  0.41090730406E+02  0.25500000000E-02 0.  1.
        -24    2    1    2    0    0 -0.17763568394E-14  0.00000000000E+00 -0.33750218754E+01  0.78806439195E+02  0.78734135456E+02 0.  0.
         66    2    3    3    0    0  0.15303414743E+02  0.36175611451E+02  0.52516134229E+00  0.39333765612E+02  0.19999890363E+01 0.  0.
         13    1    3    3    0    0 -0.15303414743E+02 -0.36175611451E+02 -0.39001832177E+01  0.39472673583E+02  0.10566000000E+00 0. -1.
         13    1    4    4    0    0  0.27257730862E+01  0.79876333351E+01  0.50913722482E+00  0.84559156786E+01  0.10566000000E+00 0. -1.
        -13    1    4    4    0    0  0.11386713159E+02  0.25441968962E+02  0.25476213952E+00  0.27875205631E+02  0.10566000000E+00 0.  1.
         14    1    4    4    0    0  0.11909284975E+01  0.27460091541E+01 -0.23873802205E+00  0.30026443020E+01  0.00000000000E+00 0. -1.
<mgrwt>
<rscale>  0 0.78734135E+02</rscale>
<asrwt>0</asrwt>
<pdfrwt beam="1">  1        1 0.58024167E-02 0.78734135E+02</pdfrwt>
<pdfrwt beam="2">  1       -2 0.63216508E-02 0.78734135E+02</pdfrwt>
<totfact> 0.13155333E+05</totfact>
</mgrwt>
</event>
<event>
 8    1  0.7756875E-018  0.8401071E+02  0.7818608E-02  0.1318040E+00
         -2   -1    0    0    0  501 -0.00000000000E+00  0.00000000000E+00  0.14179126380E+03  0.14179126383E+03  0.25500000000E-02 0.  1.
          1   -1    0    0  501    0  0.00000000000E+00 -0.00000000000E+00 -0.12443994024E+02  0.12443995045E+02  0.50400000000E-02 0. -1.
        -24    2    1    2    0    0 -0.35527136788E-14  0.17763568394E-14  0.12934726978E+03  0.15423525887E+03  0.84010706935E+02 0.  0.
         66    2    3    3    0    0 -0.26771085888E+02  0.14019252069E+02  0.11821066399E+03  0.12202865053E+03  0.20000002944E+01 0.  0.
         13    1    3    3    0    0  0.26771085888E+02 -0.14019252069E+02  0.11136605787E+02  0.32206608338E+02  0.10566000000E+00 0. -1.
         13    1    4    4    0    0 -0.74194112527E+01  0.43554182998E+01  0.31741817053E+02  0.32887253545E+02  0.10566000000E+00 0. -1.
        -13    1    4    4    0    0 -0.18666434597E+01  0.10941544041E+01  0.10038946023E+02  0.10270011341E+02  0.10566000000E+00 0.  1.
        -14    1    4    4    0    0 -0.17485031176E+02  0.85696793647E+01  0.76429900916E+02  0.78871385646E+02  0.00000000000E+00 0.  1.
<mgrwt>
<rscale>  0 0.84010707E+02</rscale>
<asrwt>0</asrwt>
<pdfrwt beam="1">  1        1 0.19144606E-02 0.84010707E+02</pdfrwt>
<pdfrwt beam="2">  1       -2 0.21814042E-01 0.84010707E+02</pdfrwt>
<totfact> 0.84848401E+04</totfact>
</mgrwt>
</event>
<event>
 8    1  0.7756875E-018  0.7875987E+02  0.7818608E-02  0.1332608E+00
          1   -1    0    0  501    0  0.00000000000E+00  0.00000000000E+00  0.54613783412E+01  0.54613806668E+01  0.50400000000E-02 0. -1.
         -2   -1    0    0    0  501 -0.00000000000E+00 -0.00000000000E+00 -0.28395375333E+03  0.28395375334E+03  0.25500000000E-02 0.  1.
        -24    2    1    2    0    0  0.00000000000E+00  0.00000000000E+00 -0.27849237499E+03  0.28941513401E+03  0.78759868373E+02 0.  0.
         66    2    3    3    0    0 -0.78525842857E+01 -0.17457664408E+02 -0.26568933914E+03  0.26638554396E+03  0.19999940928E+01 0.  0.
         13    1    3    3    0    0  0.78525842857E+01  0.17457664408E+02 -0.12803035856E+02  0.23029590047E+02  0.10566000000E+00 0. -1.
         13    1    4    4    0    0 -0.96656182409E+00 -0.12044195997E+01 -0.21775513220E+02  0.21830460562E+02  0.10566000000E+00 0. -1.
        -13    1    4    4    0    0 -0.35290656589E+01 -0.86763695055E+01 -0.12078214149E+03  0.12114483299E+03  0.10566000000E+00 0.  1.
         14    1    4    4    0    0 -0.33569568027E+01 -0.75768753030E+01 -0.12313168443E+03  0.12341025042E+03  0.00000000000E+00 0. -1.
<mgrwt>
<rscale>  0 0.78759868E+02</rscale>
<asrwt>0</asrwt>
<pdfrwt beam="1">  1        1 0.84021246E-03 0.78759868E+02</pdfrwt>
<pdfrwt beam="2">  1       -2 0.43685181E-01 0.78759868E+02</pdfrwt>
<totfact> 0.75339011E+04</totfact>
</mgrwt>
</event>
<event>
 8    1  0.7756875E-018  0.7453155E+02  0.7818608E-02  0.1345328E+00
          1   -1    0    0  501    0  0.00000000000E+00  0.00000000000E+00  0.12426712860E+03  0.12426712870E+03  0.50400000000E-02 0. -1.
         -2   -1    0    0    0  501 -0.00000000000E+00 -0.00000000000E+00 -0.11175424879E+02  0.11175425170E+02  0.25500000000E-02 0.  1.
        -24    2    1    2    0    0  0.00000000000E+00  0.00000000000E+00  0.11309170372E+03  0.13544255387E+03  0.74531550022E+02 0.  0.
         66    2    3    3    0    0  0.15177109366E+02 -0.30568703541E+02  0.29513507376E+02  0.45164559027E+02  0.19999973822E+01 0.  0.
         13    1    3    3    0    0 -0.15177109366E+02  0.30568703541E+02  0.83578196343E+02  0.90277994843E+02  0.10566000000E+00 0. -1.
         13    1    4    4    0    0  0.42795021783E+01 -0.84843077433E+01  0.72673753794E+01  0.11963424498E+02  0.10566000000E+00 0. -1.
        -13    1    4    4    0    0  0.71681869401E+01 -0.13497172779E+02  0.13652420082E+02  0.20492835704E+02  0.10566000000E+00 0.  1.
         14    1    4    4    0    0  0.37294202476E+01 -0.85872230193E+01  0.85937119144E+01  0.12708298825E+02  0.00000000000E+00 0. -1.
<mgrwt>
<rscale>  0 0.74531550E+02</rscale>
<asrwt>0</asrwt>
<pdfrwt beam="1">  1        1 0.19118019E-01 0.74531550E+02</pdfrwt>
<pdfrwt beam="2">  1       -2 0.17192962E-02 0.74531550E+02</pdfrwt>
<totfact> 0.18438850E+05</totfact>
</mgrwt>
</event>
<event>
 8    1  0.7756875E-018  0.7849990E+02  0.7818608E-02  0.1333363E+00
          1   -1    0    0  501    0  0.00000000000E+00  0.00000000000E+00  0.50306689210E+02  0.50306689463E+02  0.50400000000E-02 0. -1.
         -2   -1    0    0    0  501 -0.00000000000E+00 -0.00000000000E+00 -0.30623331475E+02  0.30623331582E+02  0.25500000000E-02 0.  1.
        -24    2    1    2    0    0  0.88817841970E-15  0.00000000000E+00  0.19683357735E+02  0.80930021044E+02  0.78499896398E+02 0.  0.
         66    2    3    3    0    0  0.36525412547E+01 -0.37559379551E+02  0.20880034177E+02  0.43174342684E+02  0.19999972807E+01 0.  0.
         13    1    3    3    0    0 -0.36525412547E+01  0.37559379551E+02 -0.11966764424E+01  0.37755678360E+02  0.10566000000E+00 0. -1.
         13    1    4    4    0    0  0.22060600174E+01 -0.25915023653E+02  0.14988499017E+02  0.30018684490E+02  0.10566000000E+00 0. -1.
        -13    1    4    4    0    0  0.22133715033E+00 -0.31213036586E+01  0.12272840370E+01  0.33628732962E+01  0.10566000000E+00 0.  1.
        -14    1    4    4    0    0  0.12251440870E+01 -0.85230522397E+01  0.46642511235E+01  0.97927848980E+01  0.00000000000E+00 0.  1.
<mgrwt>
<rscale>  0 0.78499896E+02</rscale>
<asrwt>0</asrwt>
<pdfrwt beam="1">  1        1 0.77394907E-02 0.78499896E+02</pdfrwt>
<pdfrwt beam="2">  1       -2 0.47112818E-02 0.78499896E+02</pdfrwt>
<totfact> 0.13880384E+05</totfact>
</mgrwt>
</event>
<event>
 8    1  0.7756875E-018  0.8014741E+02  0.7818608E-02  0.1328634E+00
         -2   -1    0    0    0  501 -0.00000000000E+00  0.00000000000E+00  0.13754181015E+02  0.13754181251E+02  0.25500000000E-02 0.  1.
          1   -1    0    0  501    0  0.00000000000E+00 -0.00000000000E+00 -0.11675735261E+03  0.11675735271E+03  0.50400000000E-02 0. -1.
        -24    2    1    2    0    0  0.00000000000E+00 -0.35527136788E-14 -0.10300317159E+03  0.13051153397E+03  0.80147408818E+02 0.  0.
         66    2    3    3    0    0  0.94597109971E+01 -0.20873897859E+02  0.19484719611E+01  0.23086842240E+02  0.19999994188E+01 0.  0.
         13    1    3    3    0    0 -0.94597109971E+01  0.20873897859E+02 -0.10495164355E+03  0.10742469173E+03  0.10566000000E+00 0. -1.
         13    1    4    4    0    0  0.33117778180E+01 -0.80826937823E+01  0.33691199796E+00  0.87419954715E+01  0.10566000000E+00 0. -1.
        -13    1    4    4    0    0  0.45474659362E+01 -0.81937175849E+01  0.75539067506E+00  0.94020334720E+01  0.10566000000E+00 0.  1.
         14    1    4    4    0    0  0.16004672429E+01 -0.45974864917E+01  0.85616928811E+00  0.49428132967E+01  0.00000000000E+00 0. -1.
<mgrwt>
<rscale>  0 0.80147409E+02</rscale>
<asrwt>0</asrwt>
<pdfrwt beam="1">  1        1 0.17962669E-01 0.80147409E+02</pdfrwt>
<pdfrwt beam="2">  1       -2 0.21160279E-02 0.80147409E+02</pdfrwt>
<totfact> 0.15019430E+05</totfact>
</mgrwt>
</event>
<event>
 8    1  0.7756875E-018  0.7974004E+02  0.7818608E-02  0.1329791E+00
         -2   -1    0    0    0  501 -0.00000000000E+00  0.00000000000E+00  0.74308184342E+02  0.74308184385E+02  0.25500000000E-02 0.  1.
          1   -1    0    0  501    0  0.00000000000E+00 -0.00000000000E+00 -0.21392237971E+02  0.21392238565E+02  0.50400000000E-02 0. -1.
        -24    2    1    2    0    0 -0.35527136788E-14  0.88817841970E-15  0.52915946370E+02  0.95700422950E+02  0.79740037451E+02 0.  0.
         66    2    3    3    0    0  0.28631288597E+02 -0.65700684584E+01 -0.58338430284E+01  0.30015832637E+02  0.19999995361E+01 0.  0.
         13    1    3    3    0    0 -0.28631288597E+02  0.65700684584E+01  0.58749789399E+02  0.65684590314E+02  0.10566000000E+00 0. -1.
         13    1    4    4    0    0  0.54903919535E+00 -0.13596937550E+00 -0.25828856447E+00  0.63072079975E+00  0.10566000000E+00 0. -1.
        -13    1    4    4    0    0  0.10711862064E+02 -0.20070232201E+01 -0.14945458322E+01  0.11000770990E+02  0.10566000000E+00 0.  1.
        -14    1    4    4    0    0  0.17370387337E+02 -0.44270758628E+01 -0.40810086318E+01  0.18384340847E+02  0.00000000000E+00 0.  1.
<mgrwt>
<rscale>  0 0.79740037E+02</rscale>
<asrwt>0</asrwt>
<pdfrwt beam="1">  1        1 0.32911137E-02 0.79740037E+02</pdfrwt>
<pdfrwt beam="2">  1       -2 0.11432028E-01 0.79740037E+02</pdfrwt>
<totfact> 0.11446307E+05</totfact>
</mgrwt>
</event>
<event>
 8    1  0.7756875E-018  0.7898747E+02  0.7818608E-02  0.1331950E+00
          1   -1    0    0  501    0  0.00000000000E+00  0.00000000000E+00  0.48996007257E+02  0.48996007517E+02  0.50400000000E-02 0. -1.
         -2   -1    0    0    0  501 -0.00000000000E+00 -0.00000000000E+00 -0.31834333501E+02  0.31834333603E+02  0.25500000000E-02 0.  1.
        -24    2    1    2    0    0  0.00000000000E+00 -0.17763568394E-14  0.17161673756E+02  0.80830341120E+02  0.78987473687E+02 0.  0.
         66    2    3    3    0    0  0.61936466935E+01 -0.13609175107E+02 -0.28792300494E+02  0.32504883855E+02  0.20000000575E+01 0.  0.
         13    1    3    3    0    0 -0.61936466935E+01  0.13609175107E+02  0.45953974250E+02  0.48325457265E+02  0.10566000000E+00 0. -1.
         13    1    4    4    0    0  0.30515150129E+01 -0.88609182411E+01 -0.17896585874E+02  0.20202142607E+02  0.10566000000E+00 0. -1.
        -13    1    4    4    0    0  0.21652933568E+01 -0.30703470252E+01 -0.67814271747E+01  0.77533505491E+01  0.10566000000E+00 0.  1.
         14    1    4    4    0    0  0.97683832384E+00 -0.16779098410E+01 -0.41142874453E+01  0.45493906986E+01  0.00000000000E+00 0. -1.
<mgrwt>
<rscale>  0 0.78987474E+02</rscale>
<asrwt>0</asrwt>
<pdfrwt beam="1">  1        1 0.75378473E-02 0.78987474E+02</pdfrwt>
<pdfrwt beam="2">  1       -2 0.48975898E-02 0.78987474E+02</pdfrwt>
<totfact> 0.13588172E+05</totfact>
</mgrwt>
</event>
<event>
 8    1  0.7756875E-018  0.7461328E+02  0.7818608E-02  0.1345073E+00
          1   -1    0    0  501    0  0.00000000000E+00  0.00000000000E+00  0.14549463694E+03  0.14549463703E+03  0.50400000000E-02 0. -1.
         -2   -1    0    0    0  501 -0.00000000000E+00 -0.00000000000E+00 -0.95658876308E+01  0.95658879707E+01  0.25500000000E-02 0.  1.
        -24    2    1    2    0    0  0.35527136788E-14 -0.88817841970E-15  0.13592874931E+03  0.15506052500E+03  0.74613279809E+02 0.  0.
         66    2    3    3    0    0  0.24402961753E+02 -0.76015243127E+01  0.11614334890E+02  0.28145701157E+02  0.20000011218E+01 0.  0.
         13    1    3    3    0    0 -0.24402961753E+02  0.76015243127E+01  0.12431441442E+03  0.12691482384E+03  0.10566000000E+00 0. -1.
         13    1    4    4    0    0  0.46190727911E+01 -0.21254015069E+01  0.19966059390E+01  0.54635852996E+01  0.10566000000E+00 0. -1.
        -13    1    4    4    0    0  0.14372281346E+02 -0.37485420112E+01  0.72379317511E+01  0.16523100750E+02  0.10566000000E+00 0.  1.
        -14    1    4    4    0    0  0.54116076152E+01 -0.17275807946E+01  0.23797971997E+01  0.61590151075E+01  0.00000000000E+00 0.  1.
<mgrwt>
<rscale>  0 0.74613280E+02</rscale>
<asrwt>0</asrwt>
<pdfrwt beam="1">  1        1 0.22383791E-01 0.74613280E+02</pdfrwt>
<pdfrwt beam="2">  1       -2 0.14716750E-02 0.74613280E+02</pdfrwt>
<totfact> 0.18901682E+05</totfact>
</mgrwt>
</event>
<event>
 8    1  0.7756875E-018  0.7906431E+02  0.7818608E-02  0.1331728E+00
          1   -1    0    0  501    0  0.00000000000E+00  0.00000000000E+00  0.18849334028E+03  0.18849334035E+03  0.50400000000E-02 0. -1.
         -2   -1    0    0    0  501 -0.00000000000E+00 -0.00000000000E+00 -0.82909634149E+01  0.82909638070E+01  0.25500000000E-02 0.  1.
        -24    2    1    2    0    0 -0.26645352591E-14 -0.71054273576E-14  0.18020237686E+03  0.19678430415E+03  0.79064313907E+02 0.  0.
         66    2    3    3    0    0 -0.78195243092E+01 -0.34259105380E+02  0.45223249418E+02  0.57305964358E+02  0.20000003032E+01 0.  0.
         13    1    3    3    0    0  0.78195243092E+01  0.34259105380E+02  0.13497912744E+03  0.13947833979E+03  0.10566000000E+00 0. -1.
         13    1    4    4    0    0 -0.15703708026E+01 -0.47207002167E+01  0.62647609067E+01  0.80005917436E+01  0.10566000000E+00 0. -1.
        -13    1    4    4    0    0 -0.24589024365E+01 -0.90534200146E+01  0.11666402009E+02  0.14970862200E+02  0.10566000000E+00 0.  1.
        -14    1    4    4    0    0 -0.37902510701E+01 -0.20484985149E+02  0.27292086503E+02  0.34334510415E+02  0.00000000000E+00 0.  1.
<mgrwt>
<rscale>  0 0.79064314E+02</rscale>
<asrwt>0</asrwt>
<pdfrwt beam="1">  1        1 0.28998974E-01 0.79064314E+02</pdfrwt>
<pdfrwt beam="2">  1       -2 0.12755329E-02 0.79064314E+02</pdfrwt>
<totfact> 0.17007159E+05</totfact>
</mgrwt>
</event>
<event>
 8    1  0.7756875E-018  0.8062116E+02  0.7818608E-02  0.1327298E+00
         -2   -1    0    0    0  501 -0.00000000000E+00  0.00000000000E+00  0.16318950123E+03  0.16318950125E+03  0.25500000000E-02 0.  1.
          1   -1    0    0  501    0  0.00000000000E+00 -0.00000000000E+00 -0.99573984145E+01  0.99573996900E+01  0.50400000000E-02 0. -1.
        -24    2    1    2    0    0  0.00000000000E+00 -0.35527136788E-14  0.15323210282E+03  0.17314690094E+03  0.80621163300E+02 0.  0.
         66    2    3    3    0    0  0.12076435161E+02 -0.10022973281E+02  0.15634787193E+03  0.15714629280E+03  0.20000009484E+01 0.  0.
         13    1    3    3    0    0 -0.12076435161E+02  0.10022973281E+02 -0.31157691164E+01  0.16000608139E+02  0.10566000000E+00 0. -1.
         13    1    4    4    0    0  0.22651316710E+01 -0.12713044656E+01  0.28676833181E+02  0.28794425882E+02  0.10566000000E+00 0. -1.
        -13    1    4    4    0    0  0.28774999988E+01 -0.18749723917E+01  0.33888701544E+02  0.34062454170E+02  0.10566000000E+00 0.  1.
         14    1    4    4    0    0  0.69338034915E+01 -0.68766964240E+01  0.93782337208E+02  0.94289412750E+02  0.00000000000E+00 0. -1.
<mgrwt>
<rscale>  0 0.80621163E+02</rscale>
<asrwt>0</asrwt>
<pdfrwt beam="1">  1        1 0.15319074E-02 0.80621163E+02</pdfrwt>
<pdfrwt beam="2">  1       -2 0.25106079E-01 0.80621163E+02</pdfrwt>
<totfact> 0.90038719E+04</totfact>
</mgrwt>
</event>
<event>
 8    1  0.7756875E-018  0.8053966E+02  0.7818608E-02  0.1327527E+00
         -2   -1    0    0    0  501 -0.00000000000E+00  0.00000000000E+00  0.11361317755E+03  0.11361317758E+03  0.25500000000E-02 0.  1.
          1   -1    0    0  501    0  0.00000000000E+00 -0.00000000000E+00 -0.14273511185E+02  0.14273512074E+02  0.50400000000E-02 0. -1.
        -24    2    1    2    0    0  0.00000000000E+00  0.35527136788E-14  0.99339666364E+02  0.12788668965E+03  0.80539655306E+02 0.  0.
         66    2    3    3    0    0  0.27486508512E+02 -0.27567711699E+02  0.33494182708E+02  0.51394037976E+02  0.19999964236E+01 0.  0.
         13    1    3    3    0    0 -0.27486508512E+02  0.27567711699E+02  0.65845483656E+02  0.76492651676E+02  0.10566000000E+00 0. -1.
         13    1    4    4    0    0  0.48687380523E+01 -0.52957203062E+01  0.56882955608E+01  0.91715393586E+01  0.10566000000E+00 0. -1.
        -13    1    4    4    0    0  0.17847394444E+02 -0.17541897993E+02  0.21147509030E+02  0.32763943228E+02  0.10566000000E+00 0.  1.
         14    1    4    4    0    0  0.47703760151E+01 -0.47300934001E+01  0.66583781171E+01  0.94585553891E+01  0.00000000000E+00 0. -1.
<mgrwt>
<rscale>  0 0.80539655E+02</rscale>
<asrwt>0</asrwt>
<pdfrwt beam="1">  1        1 0.21959249E-02 0.80539655E+02</pdfrwt>
<pdfrwt beam="2">  1       -2 0.17478950E-01 0.80539655E+02</pdfrwt>
<totfact> 0.10092262E+05</totfact>
</mgrwt>
</event>
<event>
 8    1  0.7756875E-018  0.8091572E+02  0.7818608E-02  0.1326473E+00
         -2   -1    0    0    0  501 -0.00000000000E+00  0.00000000000E+00  0.80009815529E+01  0.80009819592E+01  0.25500000000E-02 0.  1.
          1   -1    0    0  501    0  0.00000000000E+00 -0.00000000000E+00 -0.20457968768E+03  0.20457968775E+03  0.50400000000E-02 0. -1.
        -24    2    1    2    0    0  0.00000000000E+00 -0.35527136788E-14 -0.19657870613E+03  0.21258066971E+03  0.80915718054E+02 0.  0.
         66    2    3    3    0    0  0.28804125389E+02  0.22471028844E+02 -0.52829214579E+02  0.64261580367E+02  0.20000053548E+01 0.  0.
         13    1    3    3    0    0 -0.28804125389E+02 -0.22471028844E+02 -0.14374949155E+03  0.14831908934E+03  0.10566000000E+00 0. -1.
         13    1    4    4    0    0  0.33807304619E+00  0.47076509802E+00 -0.86501423424E+00  0.10465786273E+01  0.10566000000E+00 0. -1.
        -13    1    4    4    0    0  0.64916552384E+01  0.55625858749E+01 -0.12852559110E+02  0.15436430581E+02  0.10566000000E+00 0.  1.
        -14    1    4    4    0    0  0.21974397105E+02  0.16437677871E+02 -0.39111641235E+02  0.47778571159E+02  0.00000000000E+00 0.  1.
<mgrwt>
<rscale>  0 0.80915718E+02</rscale>
<asrwt>0</asrwt>
<pdfrwt beam="1">  1        1 0.31473794E-01 0.80915718E+02</pdfrwt>
<pdfrwt beam="2">  1       -2 0.12309204E-02 0.80915718E+02</pdfrwt>
<totfact> 0.16248820E+05</totfact>
</mgrwt>
</event>
<event>
 8    1  0.8100970E-018  0.7688060E+02  0.7818608E-02  0.1338144E+00
         -2   -1    0    0    0  501 -0.00000000000E+00  0.00000000000E+00  0.14424525659E+03  0.14424525662E+03  0.25500000000E-02 0.  1.
          1   -1    0    0  501    0  0.00000000000E+00 -0.00000000000E+00 -0.10244057836E+02  0.10244059076E+02  0.50400000000E-02 0. -1.
        -24    2    1    2    0    0 -0.17763568394E-14  0.00000000000E+00  0.13400119876E+03  0.15448931569E+03  0.76880604800E+02 0.  0.
         66    2    3    3    0    0  0.12495439268E+02  0.12822068836E+02  0.13534152490E+03  0.13653523287E+03  0.20000004478E+01 0.  0.
         13    1    3    3    0    0 -0.12495439268E+02 -0.12822068836E+02 -0.13403261402E+01  0.17954082820E+02  0.10566000000E+00 0. -1.
         13    1    4    4    0    0  0.82673487857E+01  0.89119946570E+01  0.91852624754E+02  0.92653594333E+02  0.10566000000E+00 0. -1.
        -13    1    4    4    0    0  0.39584146559E+01  0.38043421748E+01  0.42429293900E+02  0.42783153353E+02  0.10566000000E+00 0.  1.
         14    1    4    4    0    0  0.26967582611E+00  0.10573200377E+00  0.10596062450E+01  0.10984851853E+01  0.00000000000E+00 0. -1.
<mgrwt>
<rscale>  0 0.76880605E+02</rscale>
<asrwt>0</asrwt>
<pdfrwt beam="1">  1        1 0.15760090E-02 0.76880605E+02</pdfrwt>
<pdfrwt beam="2">  1       -2 0.22191579E-01 0.76880605E+02</pdfrwt>
<totfact> 0.10601651E+05</totfact>
</mgrwt>
</event>
<event>
 8    1  0.7756875E-018  0.8409585E+02  0.7818608E-02  0.1317814E+00
         -2   -1    0    0    0  501 -0.00000000000E+00  0.00000000000E+00  0.10212327072E+03  0.10212327075E+03  0.25500000000E-02 0.  1.
          1   -1    0    0  501    0  0.00000000000E+00 -0.00000000000E+00 -0.17312682397E+02  0.17312683131E+02  0.50400000000E-02 0. -1.
        -24    2    1    2    0    0 -0.17763568394E-14 -0.17763568394E-14  0.84810588323E+02  0.11943595388E+03  0.84095845250E+02 0.  0.
         66    2    3    3    0    0  0.15001686475E+02  0.11641332018E+02  0.95672943363E+02  0.97559639538E+02  0.19999916651E+01 0.  0.
         13    1    3    3    0    0 -0.15001686475E+02 -0.11641332018E+02 -0.10862355041E+02  0.21876314345E+02  0.10566000000E+00 0. -1.
         13    1    4    4    0    0  0.34284514359E+01  0.21870917417E+01  0.18993415836E+02  0.19424177169E+02  0.10566000000E+00 0. -1.
        -13    1    4    4    0    0  0.11040538099E+02  0.91044200345E+01  0.71601405167E+02  0.73017507021E+02  0.10566000000E+00 0.  1.
         14    1    4    4    0    0  0.53269694034E+00  0.34982024160E+00  0.50781223604E+01  0.51179553475E+01  0.00000000000E+00 0. -1.
<mgrwt>
<rscale>  0 0.84095845E+02</rscale>
<asrwt>0</asrwt>
<pdfrwt beam="1">  1        1 0.26634897E-02 0.84095845E+02</pdfrwt>
<pdfrwt beam="2">  1       -2 0.15711272E-01 0.84095845E+02</pdfrwt>
<totfact> 0.92890987E+04</totfact>
</mgrwt>
</event>
<event>
 8    1  0.7756875E-018  0.7907811E+02  0.7818608E-02  0.1331688E+00
          1   -1    0    0  501    0  0.00000000000E+00  0.00000000000E+00  0.79012101886E+01  0.79012117960E+01  0.50400000000E-02 0. -1.
         -2   -1    0    0    0  501 -0.00000000000E+00 -0.00000000000E+00 -0.19786041107E+03  0.19786041108E+03  0.25500000000E-02 0.  1.
        -24    2    1    2    0    0  0.35527136788E-14  0.00000000000E+00 -0.18995920088E+03  0.20576162288E+03  0.79078109813E+02 0.  0.
         66    2    3    3    0    0 -0.31829584678E+02  0.19085396578E+02 -0.59748989972E+02  0.70365592613E+02  0.19999994755E+01 0.  0.
         13    1    3    3    0    0  0.31829584678E+02 -0.19085396578E+02 -0.13021021091E+03  0.13539603027E+03  0.10566000000E+00 0. -1.
         13    1    4    4    0    0 -0.10620640066E+02  0.73845183285E+01 -0.20116801170E+02  0.23917064195E+02  0.10566000000E+00 0. -1.
        -13    1    4    4    0    0 -0.10846243035E+02  0.59505294085E+01 -0.20257390911E+02  0.23736529628E+02  0.10566000000E+00 0.  1.
         14    1    4    4    0    0 -0.10362701577E+02  0.57503488407E+01 -0.19374797890E+02  0.22711998790E+02  0.00000000000E+00 0. -1.
<mgrwt>
<rscale>  0 0.79078110E+02</rscale>
<asrwt>0</asrwt>
<pdfrwt beam="1">  1        1 0.12155711E-02 0.79078110E+02</pdfrwt>
<pdfrwt beam="2">  1       -2 0.30440059E-01 0.79078110E+02</pdfrwt>
<totfact> 0.88038793E+04</totfact>
</mgrwt>
</event>
<event>
 8    1  0.7756875E-018  0.7635065E+02  0.7818608E-02  0.1339739E+00
         -2   -1    0    0    0  501 -0.00000000000E+00  0.00000000000E+00  0.19270420819E+02  0.19270420988E+02  0.25500000000E-02 0.  1.
          1   -1    0    0  501    0  0.00000000000E+00 -0.00000000000E+00 -0.75626542635E+02  0.75626542803E+02  0.50400000000E-02 0. -1.
        -24    2    1    2    0    0  0.35527136788E-14  0.00000000000E+00 -0.56356121816E+02  0.94896963791E+02  0.76350646825E+02 0.  0.
         66    2    3    3    0    0  0.29737163114E+02  0.42077364384E+00  0.14994760127E+01  0.29845005445E+02  0.20000002900E+01 0.  0.
         13    1    3    3    0    0 -0.29737163114E+02 -0.42077364384E+00 -0.57855597829E+02  0.65051958346E+02  0.10566000000E+00 0. -1.
         13    1    4    4    0    0  0.40418300837E+01  0.34458377104E+00  0.49535583819E+00  0.40879909299E+01  0.10566000000E+00 0.  1.
        -13    1    4    4    0    0  0.12676528099E+02  0.71935830707E-01 -0.23519505383E+00  0.12679354091E+02  0.10566000000E+00 0.  1.
         14    1    4    4    0    0  0.13018804931E+02  0.42540420933E-02  0.12393152283E+01  0.13077660424E+02  0.00000000000E+00 0. -1.
<mgrwt>
<rscale>  0 0.76350647E+02</rscale>
<asrwt>0</asrwt>
<pdfrwt beam="1">  1        1 0.11634853E-01 0.76350647E+02</pdfrwt>
<pdfrwt beam="2">  1       -2 0.29646802E-02 0.76350647E+02</pdfrwt>
<totfact> 0.15944046E+05</totfact>
</mgrwt>
</event>
<event>
 8    1  0.7756875E-018  0.7909683E+02  0.7818608E-02  0.1331634E+00
          1   -1    0    0  501    0  0.00000000000E+00  0.00000000000E+00  0.37857828399E+03  0.37857828402E+03  0.50400000000E-02 0. -1.
         -2   -1    0    0    0  501 -0.00000000000E+00 -0.00000000000E+00 -0.41314496891E+01  0.41314504760E+01  0.25500000000E-02 0.  1.
        -24    2    1    2    0    0  0.00000000000E+00 -0.71054273576E-14  0.37444683430E+03  0.38270973450E+03  0.79096834088E+02 0.  0.
         66    2    3    3    0    0 -0.33322788907E+02 -0.21251230894E+02  0.18626878136E+03  0.19042605384E+03  0.19999992131E+01 0.  0.
         13    1    3    3    0    0  0.33322788907E+02  0.21251230894E+02  0.18817805294E+03  0.19228368066E+03  0.10566000000E+00 0. -1.
         13    1    4    4    0    0 -0.33150146516E+01 -0.21259831034E+01  0.19508771361E+02  0.19902573963E+02  0.10566000000E+00 0. -1.
        -13    1    4    4    0    0 -0.13051386724E+01 -0.12479594832E+01  0.90747749447E+01  0.92532963942E+01  0.10566000000E+00 0.  1.
        -14    1    4    4    0    0 -0.28702635584E+02 -0.17877288307E+02  0.15768523505E+03  0.16127018348E+03  0.00000000000E+00 0.  1.
<mgrwt>
<rscale>  0 0.79096834E+02</rscale>
<asrwt>0</asrwt>
<pdfrwt beam="1">  1        1 0.58242817E-01 0.79096834E+02</pdfrwt>
<pdfrwt beam="2">  1       -2 0.63560766E-03 0.79096834E+02</pdfrwt>
<totfact> 0.19388907E+05</totfact>
</mgrwt>
</event>
<event>
 8    1  0.7756875E-018  0.8049822E+02  0.7818608E-02  0.1327643E+00
          1   -1    0    0  501    0  0.00000000000E+00  0.00000000000E+00  0.38444619623E+02  0.38444619953E+02  0.50400000000E-02 0. -1.
         -2   -1    0    0    0  501 -0.00000000000E+00 -0.00000000000E+00 -0.42138296692E+02  0.42138296769E+02  0.25500000000E-02 0.  1.
        -24    2    1    2    0    0 -0.71054273576E-14  0.00000000000E+00 -0.36936770687E+01  0.80582916722E+02  0.80498218721E+02 0.  0.
         66    2    3    3    0    0 -0.37426196204E+02 -0.38357484138E+01 -0.16095052164E+02  0.40969302945E+02  0.19999878474E+01 0.  0.
         13    1    3    3    0    0  0.37426196204E+02  0.38357484138E+01  0.12401375095E+02  0.39613613778E+02  0.10566000000E+00 0. -1.
         13    1    4    4    0    0 -0.13398470172E+01 -0.51387478738E-01 -0.51481819866E+00  0.14401501713E+01  0.10566000000E+00 0.  1.
        -13    1    4    4    0    0 -0.87386647672E+01 -0.40118344091E+00 -0.43811854153E+01  0.97842301560E+01  0.10566000000E+00 0. -1.
        -14    1    4    4    0    0 -0.27347684420E+02 -0.33831774942E+01 -0.11199048550E+02  0.29744922617E+02  0.00000000000E+00 0.  1.
<mgrwt>
<rscale>  0 0.80498219E+02</rscale>
<asrwt>0</asrwt>
<pdfrwt beam="1">  1        1 0.59145569E-02 0.80498219E+02</pdfrwt>
<pdfrwt beam="2">  1       -2 0.64828149E-02 0.80498219E+02</pdfrwt>
<totfact> 0.12396148E+05</totfact>
</mgrwt>
</event>
<event>
 8    1  0.7756875E-018  0.8010839E+02  0.7818608E-02  0.1328744E+00
          1   -1    0    0  501    0  0.00000000000E+00  0.00000000000E+00  0.30595424711E+02  0.30595425127E+02  0.50400000000E-02 0. -1.
         -2   -1    0    0    0  501 -0.00000000000E+00 -0.00000000000E+00 -0.52437204504E+02  0.52437204566E+02  0.25500000000E-02 0.  1.
        -24    2    1    2    0    0  0.00000000000E+00  0.00000000000E+00 -0.21841779792E+02  0.83032629692E+02  0.80108390629E+02 0.  0.
         66    2    3    3    0    0 -0.22207221912E+02  0.99558892844E+01 -0.43869142430E+02  0.50207390846E+02  0.20000003650E+01 0.  0.
         13    1    3    3    0    0  0.22207221912E+02 -0.99558892844E+01  0.22027362638E+02  0.32825238846E+02  0.10566000000E+00 0. -1.
         13    1    4    4    0    0 -0.91334783590E+01  0.38558736521E+01 -0.18598640793E+02  0.21076261337E+02  0.10566000000E+00 0.  1.
        -13    1    4    4    0    0 -0.81630767743E+01  0.35499795565E+01 -0.14308878438E+02  0.16852102049E+02  0.10566000000E+00 0.  1.
        -14    1    4    4    0    0 -0.49106667789E+01  0.25500360759E+01 -0.10961623199E+02  0.12279027460E+02  0.00000000000E+00 0.  1.
<mgrwt>
<rscale>  0 0.80108391E+02</rscale>
<asrwt>0</asrwt>
<pdfrwt beam="1">  1        1 0.47069885E-02 0.80108391E+02</pdfrwt>
<pdfrwt beam="2">  1       -2 0.80672622E-02 0.80108391E+02</pdfrwt>
<totfact> 0.12089744E+05</totfact>
</mgrwt>
</event>
<event>
 8    1  0.7756875E-018  0.7622095E+02  0.7818608E-02  0.1340131E+00
          1   -1    0    0  501    0  0.00000000000E+00  0.00000000000E+00  0.12505590512E+03  0.12505590522E+03  0.50400000000E-02 0. -1.
         -2   -1    0    0    0  501 -0.00000000000E+00 -0.00000000000E+00 -0.11614070635E+02  0.11614070915E+02  0.25500000000E-02 0.  1.
        -24    2    1    2    0    0  0.35527136788E-14 -0.35527136788E-14  0.11344183448E+03  0.13666997613E+03  0.76220945715E+02 0.  0.
         66    2    3    3    0    0  0.28083345052E+02 -0.25265150834E+02  0.65433816123E+02  0.75581653954E+02  0.20000015106E+01 0.  0.
         13    1    3    3    0    0 -0.28083345052E+02  0.25265150834E+02  0.48008018359E+02  0.61088322180E+02  0.10566000000E+00 0. -1.
         13    1    4    4    0    0  0.23715350298E+01 -0.16268261219E+01  0.52022816318E+01  0.59452199152E+01  0.10566000000E+00 0. -1.
        -13    1    4    4    0    0  0.21499125674E+02 -0.19151429041E+02  0.49376272460E+02  0.57157826106E+02  0.10566000000E+00 0.  1.
         14    1    4    4    0    0  0.42126843478E+01 -0.44868956706E+01  0.10855262031E+02  0.12478607933E+02  0.00000000000E+00 0. -1.
<mgrwt>
<rscale>  0 0.76220946E+02</rscale>
<asrwt>0</asrwt>
<pdfrwt beam="1">  1        1 0.19239370E-01 0.76220946E+02</pdfrwt>
<pdfrwt beam="2">  1       -2 0.17867802E-02 0.76220946E+02</pdfrwt>
<totfact> 0.17389737E+05</totfact>
</mgrwt>
</event>
<event>
 8    1  0.7756875E-018  0.7984767E+02  0.7818608E-02  0.1329484E+00
          1   -1    0    0  501    0  0.00000000000E+00  0.00000000000E+00  0.44367229997E+02  0.44367230283E+02  0.50400000000E-02 0. -1.
         -2   -1    0    0    0  501 -0.00000000000E+00 -0.00000000000E+00 -0.35925444489E+02  0.35925444579E+02  0.25500000000E-02 0.  1.
        -24    2    1    2    0    0  0.00000000000E+00  0.00000000000E+00  0.84417855082E+01  0.80292674862E+02  0.79847666803E+02 0.  0.
         66    2    3    3    0    0 -0.26921646936E+01 -0.39788844826E+02  0.54582175891E+01  0.40301266224E+02  0.19999991759E+01 0.  0.
         13    1    3    3    0    0  0.26921646936E+01  0.39788844826E+02  0.29835679191E+01  0.39991408638E+02  0.10566000000E+00 0. -1.
         13    1    4    4    0    0 -0.25528138813E+00 -0.16374527650E+01 -0.29487823919E-01  0.16608593294E+01  0.10566000000E+00 0. -1.
        -13    1    4    4    0    0 -0.58637923481E+00 -0.18669241594E+02  0.26248407789E+01  0.18862273868E+02  0.10566000000E+00 0.  1.
        -14    1    4    4    0    0 -0.18505040707E+01 -0.19482150466E+02  0.28628646340E+01  0.19778133027E+02  0.00000000000E+00 0.  1.
<mgrwt>
<rscale>  0 0.79847667E+02</rscale>
<asrwt>0</asrwt>
<pdfrwt beam="1">  1        1 0.68257277E-02 0.79847667E+02</pdfrwt>
<pdfrwt beam="2">  1       -2 0.55269915E-02 0.79847667E+02</pdfrwt>
<totfact> 0.12979816E+05</totfact>
</mgrwt>
</event>
<event>
 8    1  0.7756875E-018  0.8989541E+02  0.7818608E-02  0.1303105E+00
          1   -1    0    0  501    0  0.00000000000E+00  0.00000000000E+00  0.85084979811E+02  0.85084979960E+02  0.50400000000E-02 0. -1.
         -2   -1    0    0    0  501 -0.00000000000E+00 -0.00000000000E+00 -0.23744451716E+02  0.23744451853E+02  0.25500000000E-02 0.  1.
        -24    2    1    2    0    0 -0.17763568394E-14  0.00000000000E+00  0.61340528095E+02  0.10882943181E+03  0.89895410572E+02 0.  0.
         66    2    3    3    0    0 -0.99728951492E+01  0.40793006699E+02  0.11362289650E+02  0.43550311758E+02  0.19999987251E+01 0.  0.
         13    1    3    3    0    0  0.99728951492E+01 -0.40793006699E+02  0.49978238445E+02  0.65279120056E+02  0.10566000000E+00 0. -1.
         13    1    4    4    0    0 -0.12475541388E+01  0.79872676994E+01  0.20678211966E+01  0.83450515378E+01  0.10566000000E+00 0. -1.
        -13    1    4    4    0    0 -0.52193832868E+01  0.21038793842E+02  0.60784745753E+01  0.22512925741E+02  0.10566000000E+00 0.  1.
        -14    1    4    4    0    0 -0.35059577236E+01  0.11766945157E+02  0.32159938779E+01  0.12692334478E+02  0.00000000000E+00 0.  1.
<mgrwt>
<rscale>  0 0.89895411E+02</rscale>
<asrwt>0</asrwt>
<pdfrwt beam="1">  1        1 0.13089997E-01 0.89895411E+02</pdfrwt>
<pdfrwt beam="2">  1       -2 0.36529926E-02 0.89895411E+02</pdfrwt>
<totfact> 0.10396614E+05</totfact>
</mgrwt>
</event>
<event>
 8    1  0.7756875E-018  0.7976029E+02  0.7818608E-02  0.1329733E+00
          1   -1    0    0  501    0  0.00000000000E+00  0.00000000000E+00  0.22217829993E+02  0.22217830565E+02  0.50400000000E-02 0. -1.
         -2   -1    0    0    0  501 -0.00000000000E+00 -0.00000000000E+00 -0.71583313007E+02  0.71583313052E+02  0.25500000000E-02 0.  1.
        -24    2    1    2    0    0  0.00000000000E+00  0.00000000000E+00 -0.49365483014E+02  0.93801143617E+02  0.79760288557E+02 0.  0.
         66    2    3    3    0    0 -0.34108648014E+02  0.15319693369E+02 -0.84736590014E+01  0.38391349272E+02  0.19999819377E+01 0.  0.
         13    1    3    3    0    0  0.34108648014E+02 -0.15319693369E+02 -0.40891824012E+02  0.55409794345E+02  0.10566000000E+00 0. -1.
         13    1    4    4    0    0 -0.39518036877E+01  0.20322256263E+01 -0.54163796026E+00  0.44778598792E+01  0.10566000000E+00 0.  1.
        -13    1    4    4    0    0 -0.14993258767E+02  0.60823936802E+01 -0.36239542745E+01  0.16581240302E+02  0.10566000000E+00 0.  1.
        -14    1    4    4    0    0 -0.15163585560E+02  0.72050740625E+01 -0.43080667666E+01  0.17332249091E+02  0.00000000000E+00 0.  1.
<mgrwt>
<rscale>  0 0.79760289E+02</rscale>
<asrwt>0</asrwt>
<pdfrwt beam="1">  1        1 0.34181278E-02 0.79760289E+02</pdfrwt>
<pdfrwt beam="2">  1       -2 0.11012817E-01 0.79760289E+02</pdfrwt>
<totfact> 0.11526890E+05</totfact>
</mgrwt>
</event>
<event>
 8    1  0.9801371E-018  0.7410842E+02  0.7818608E-02  0.1346654E+00
         -2   -1    0    0    0  501 -0.00000000000E+00  0.00000000000E+00  0.84036689475E+01  0.84036693344E+01  0.25500000000E-02 0.  1.
          1   -1    0    0  501    0  0.00000000000E+00 -0.00000000000E+00 -0.16338272507E+03  0.16338272515E+03  0.50400000000E-02 0. -1.
        -24    2    1    2    0    0  0.00000000000E+00  0.00000000000E+00 -0.15497905613E+03  0.17178639449E+03  0.74108417152E+02 0.  0.
         66    2    3    3    0    0 -0.24128211964E+02 -0.21914820517E+02 -0.36826084944E+02  0.49219817744E+02  0.19999889020E+01 0.  0.
         13    1    3    3    0    0  0.24128211964E+02  0.21914820517E+02 -0.11815297118E+03  0.12256657674E+03  0.10566000000E+00 0. -1.
         13    1    4    4    0    0 -0.49590918993E+01 -0.50539463354E+01 -0.84609967212E+01  0.11033340182E+02  0.10566000000E+00 0. -1.
        -13    1    4    4    0    0 -0.17107692885E+02 -0.15273484460E+02 -0.26013190826E+02  0.34679240828E+02  0.10566000000E+00 0.  1.
         14    1    4    4    0    0 -0.20614271795E+01 -0.15873897221E+01 -0.23518973963E+01  0.35072367341E+01  0.00000000000E+00 0. -1.
<mgrwt>
<rscale>  0 0.74108417E+02</rscale>
<asrwt>0</asrwt>
<pdfrwt beam="1">  1        1 0.25135802E-01 0.74108417E+02</pdfrwt>
<pdfrwt beam="2">  1       -2 0.12928723E-02 0.74108417E+02</pdfrwt>
<totfact> 0.19652143E+05</totfact>
</mgrwt>
</event>
<event>
 8    1  0.7756875E-018  0.8268997E+02  0.7818608E-02  0.1321586E+00
         -2   -1    0    0    0  501 -0.00000000000E+00  0.00000000000E+00  0.19090091279E+03  0.19090091280E+03  0.25500000000E-02 0.  1.
          1   -1    0    0  501    0  0.00000000000E+00 -0.00000000000E+00 -0.89544225604E+01  0.89544239787E+01  0.50400000000E-02 0. -1.
        -24    2    1    2    0    0  0.00000000000E+00  0.00000000000E+00  0.18194649023E+03  0.19985533678E+03  0.82689965139E+02 0.  0.
         66    2    3    3    0    0 -0.11665477477E+02  0.28843198382E+02  0.15674660555E+03  0.15981711992E+03  0.20000027158E+01 0.  0.
         13    1    3    3    0    0  0.11665477477E+02 -0.28843198382E+02  0.25199884676E+02  0.40038216861E+02  0.10566000000E+00 0. -1.
         13    1    4    4    0    0 -0.96048163463E+00  0.26244975554E+01  0.12054199041E+02  0.12374384467E+02  0.10566000000E+00 0. -1.
        -13    1    4    4    0    0 -0.87465874571E+01  0.21250038268E+02  0.11491067323E+03  0.11718592451E+03  0.10566000000E+00 0.  1.
         14    1    4    4    0    0 -0.19584083856E+01  0.49686625586E+01  0.29781733283E+02  0.30256810941E+02  0.00000000000E+00 0. -1.
<mgrwt>
<rscale>  0 0.82689965E+02</rscale>
<asrwt>0</asrwt>
<pdfrwt beam="1">  1        1 0.13776035E-02 0.82689965E+02</pdfrwt>
<pdfrwt beam="2">  1       -2 0.29369372E-01 0.82689965E+02</pdfrwt>
<totfact> 0.79579180E+04</totfact>
</mgrwt>
</event>
<event>
 8    1  0.7756875E-018  0.7889815E+02  0.7818608E-02  0.1332208E+00
         -2   -1    0    0    0  501 -0.00000000000E+00  0.00000000000E+00  0.26435861101E+02  0.26435861224E+02  0.25500000000E-02 0.  1.
          1   -1    0    0  501    0  0.00000000000E+00 -0.00000000000E+00 -0.58868120934E+02  0.58868121150E+02  0.50400000000E-02 0. -1.
        -24    2    1    2    0    0  0.71054273576E-14  0.00000000000E+00 -0.32432259833E+02  0.85303982374E+02  0.78898149097E+02 0.  0.
         66    2    3    3    0    0  0.35367183775E+02  0.14235600078E+02 -0.53749721689E+01  0.38553602937E+02  0.19999939671E+01 0.  0.
         13    1    3    3    0    0 -0.35367183775E+02 -0.14235600078E+02 -0.27057287664E+02  0.46750379437E+02  0.10566000000E+00 0. -1.
         13    1    4    4    0    0  0.11630331776E+02  0.43309910586E+01 -0.19126596562E+01  0.12557528888E+02  0.10566000000E+00 0. -1.
        -13    1    4    4    0    0  0.13100413993E+02  0.48879831588E+01 -0.13532449389E+01  0.14048333070E+02  0.10566000000E+00 0.  1.
         14    1    4    4    0    0  0.10636438006E+02  0.50166258602E+01 -0.21090675738E+01  0.11947740980E+02  0.00000000000E+00 0. -1.
<mgrwt>
<rscale>  0 0.78898149E+02</rscale>
<asrwt>0</asrwt>
<pdfrwt beam="1">  1        1 0.90566340E-02 0.78898149E+02</pdfrwt>
<pdfrwt beam="2">  1       -2 0.40670556E-02 0.78898149E+02</pdfrwt>
<totfact> 0.14024049E+05</totfact>
</mgrwt>
</event>
<event>
 8    1  0.7756875E-018  0.7953899E+02  0.7818608E-02  0.1330365E+00
          1   -1    0    0  501    0  0.00000000000E+00  0.00000000000E+00  0.14172098538E+03  0.14172098547E+03  0.50400000000E-02 0. -1.
         -2   -1    0    0    0  501 -0.00000000000E+00 -0.00000000000E+00 -0.11160045822E+02  0.11160046114E+02  0.25500000000E-02 0.  1.
        -24    2    1    2    0    0  0.00000000000E+00  0.71054273576E-14  0.13056093956E+03  0.15288103158E+03  0.79538989682E+02 0.  0.
         66    2    3    3    0    0 -0.11689365389E+02 -0.36226886622E+02  0.43357676083E+02  0.57731418330E+02  0.20000023950E+01 0.  0.
         13    1    3    3    0    0  0.11689365389E+02  0.36226886622E+02  0.87203263472E+02  0.95149613251E+02  0.10566000000E+00 0. -1.
         13    1    4    4    0    0 -0.66345770733E+01 -0.23111008773E+02  0.27875124486E+02  0.36812634633E+02  0.10566000000E+00 0. -1.
        -13    1    4    4    0    0 -0.44854672034E+01 -0.12060617794E+02  0.14153998343E+02  0.19129159697E+02  0.10566000000E+00 0.  1.
         14    1    4    4    0    0 -0.56932111273E+00 -0.10552600540E+01  0.13285532549E+01  0.17896240002E+01  0.00000000000E+00 0. -1.
<mgrwt>
<rscale>  0 0.79538990E+02</rscale>
<asrwt>0</asrwt>
<pdfrwt beam="1">  1        1 0.21803229E-01 0.79538990E+02</pdfrwt>
<pdfrwt beam="2">  1       -2 0.17169301E-02 0.79538990E+02</pdfrwt>
<totfact> 0.15868278E+05</totfact>
</mgrwt>
</event>
<event>
 8    1  0.7756875E-018  0.7897307E+02  0.7818608E-02  0.1331991E+00
         -2   -1    0    0    0  501 -0.00000000000E+00  0.00000000000E+00  0.56112376906E+01  0.56112382701E+01  0.25500000000E-02 0.  1.
          1   -1    0    0  501    0  0.00000000000E+00 -0.00000000000E+00 -0.27786855568E+03  0.27786855572E+03  0.50400000000E-02 0. -1.
        -24    2    1    2    0    0 -0.35527136788E-14 -0.35527136788E-14 -0.27225731799E+03  0.28347979399E+03  0.78973073924E+02 0.  0.
         66    2    3    3    0    0 -0.24800238187E+02 -0.24230527971E+02 -0.68581861622E+02  0.76874196322E+02  0.20000041665E+01 0.  0.
         13    1    3    3    0    0  0.24800238187E+02  0.24230527971E+02 -0.20367545636E+03  0.20660559767E+03  0.10566000000E+00 0. -1.
         13    1    4    4    0    0 -0.17182045556E+02 -0.16800055217E+02 -0.46443269459E+02  0.52291997351E+02  0.10566000000E+00 0.  1.
        -13    1    4    4    0    0 -0.54753591021E+01 -0.51760398211E+01 -0.16593901429E+02  0.18224699564E+02  0.10566000000E+00 0. -1.
         14    1    4    4    0    0 -0.21428335283E+01 -0.22544329324E+01 -0.55446907340E+01  0.63574994072E+01  0.00000000000E+00 0. -1.
<mgrwt>
<rscale>  0 0.78973074E+02</rscale>
<asrwt>0</asrwt>
<pdfrwt beam="1">  1        1 0.42748998E-01 0.78973074E+02</pdfrwt>
<pdfrwt beam="2">  1       -2 0.86326760E-03 0.78973074E+02</pdfrwt>
<totfact> 0.18394018E+05</totfact>
</mgrwt>
</event>
<event>
 8    1  0.7756875E-018  0.7980601E+02  0.7818608E-02  0.1329603E+00
         -2   -1    0    0    0  501 -0.00000000000E+00  0.00000000000E+00  0.66471768076E+03  0.66471768076E+03  0.25500000000E-02 0.  1.
          1   -1    0    0  501    0  0.00000000000E+00 -0.00000000000E+00 -0.23953748466E+01  0.23953801489E+01  0.50400000000E-02 0. -1.
        -24    2    1    2    0    0  0.00000000000E+00  0.55511151231E-16  0.66232230591E+03  0.66711306091E+03  0.79806009369E+02 0.  0.
         66    2    3    3    0    0 -0.33981322646E+02 -0.22262654712E+00  0.50580630049E+03  0.50695048423E+03  0.19999992964E+01 0.  0.
         13    1    3    3    0    0  0.33981322646E+02  0.22262654712E+00  0.15651600543E+03  0.16016257668E+03  0.10566000000E+00 0. -1.
         13    1    4    4    0    0 -0.41164456689E+01 -0.43349821405E+00  0.61450356021E+02  0.61589694469E+02  0.10566000000E+00 0. -1.
        -13    1    4    4    0    0 -0.19866430314E+02 -0.28177077510E+00  0.30325830882E+03  0.30390848537E+03  0.10566000000E+00 0.  1.
         14    1    4    4    0    0 -0.99984466633E+01  0.49264244203E+00  0.14109763564E+03  0.14145230439E+03  0.00000000000E+00 0. -1.
<mgrwt>
<rscale>  0 0.79806009E+02</rscale>
<asrwt>0</asrwt>
<pdfrwt beam="1">  1        1 0.36851915E-03 0.79806009E+02</pdfrwt>
<pdfrwt beam="2">  1       -2 0.10226439E+00 0.79806009E+02</pdfrwt>
<totfact> 0.39953623E+04</totfact>
</mgrwt>
</event>
<event>
 8    1  0.7756875E-018  0.7955011E+02  0.7818608E-02  0.1330333E+00
          1   -1    0    0  501    0  0.00000000000E+00  0.00000000000E+00  0.70107323903E+02  0.70107324084E+02  0.50400000000E-02 0. -1.
         -2   -1    0    0    0  501 -0.00000000000E+00 -0.00000000000E+00 -0.22566189071E+02  0.22566189215E+02  0.25500000000E-02 0.  1.
        -24    2    1    2    0    0  0.00000000000E+00 -0.71054273576E-14  0.47541134832E+02  0.92673513300E+02  0.79550113552E+02 0.  0.
         66    2    3    3    0    0 -0.75919426838E+01  0.38807597258E+02  0.19070227524E+02  0.43947022295E+02  0.19999980397E+01 0.  0.
         13    1    3    3    0    0  0.75919426838E+01 -0.38807597258E+02  0.28470907308E+02  0.48726491004E+02  0.10566000000E+00 0. -1.
         13    1    4    4    0    0 -0.56862687792E-01  0.15863741000E+01  0.62976593450E+00  0.17110187954E+01  0.10566000000E+00 0. -1.
        -13    1    4    4    0    0 -0.30585659659E+01  0.12384816114E+02  0.64749149231E+01  0.14306438524E+02  0.10566000000E+00 0.  1.
         14    1    4    4    0    0 -0.44765140301E+01  0.24836407044E+02  0.11965546667E+02  0.27929564976E+02  0.00000000000E+00 0. -1.
<mgrwt>
<rscale>  0 0.79550114E+02</rscale>
<asrwt>0</asrwt>
<pdfrwt beam="1">  1        1 0.10785742E-01 0.79550114E+02</pdfrwt>
<pdfrwt beam="2">  1       -2 0.34717215E-02 0.79550114E+02</pdfrwt>
<totfact> 0.14089785E+05</totfact>
</mgrwt>
</event>
<event>
 8    1  0.7756875E-018  0.7991530E+02  0.7818608E-02  0.1329292E+00
         -2   -1    0    0    0  501 -0.00000000000E+00  0.00000000000E+00  0.18265111550E+03  0.18265111552E+03  0.25500000000E-02 0.  1.
          1   -1    0    0  501    0  0.00000000000E+00 -0.00000000000E+00 -0.87413303696E+01  0.87413318226E+01  0.50400000000E-02 0. -1.
        -24    2    1    2    0    0  0.00000000000E+00 -0.35527136788E-14  0.17390978513E+03  0.19139244734E+03  0.79915302257E+02 0.  0.
         66    2    3    3    0    0  0.17713678305E+02 -0.16089398659E+02  0.16357115958E+03  0.16532443072E+03  0.19999992650E+01 0.  0.
         13    1    3    3    0    0 -0.17713678305E+02  0.16089398659E+02  0.10338625547E+02  0.26068016620E+02  0.10566000000E+00 0. -1.
         13    1    4    4    0    0  0.60548231363E+01 -0.60712833992E+01  0.62582345107E+02  0.63167099415E+02  0.10566000000E+00 0. -1.
        -13    1    4    4    0    0  0.29552107199E+01 -0.30442874508E+01  0.26210611893E+02  0.26551992323E+02  0.10566000000E+00 0.  1.
        -14    1    4    4    0    0  0.87036444486E+01 -0.69738278087E+01  0.74778202583E+02  0.75605338982E+02  0.00000000000E+00 0.  1.
<mgrwt>
<rscale>  0 0.79915302E+02</rscale>
<asrwt>0</asrwt>
<pdfrwt beam="1">  1        1 0.13448201E-02 0.79915302E+02</pdfrwt>
<pdfrwt beam="2">  1       -2 0.28100173E-01 0.79915302E+02</pdfrwt>
<totfact> 0.88402349E+04</totfact>
</mgrwt>
</event>
<event>
 8    1  0.7756875E-018  0.8235892E+02  0.7818608E-02  0.1322487E+00
          1   -1    0    0  501    0  0.00000000000E+00  0.00000000000E+00  0.22615939428E+02  0.22615939990E+02  0.50400000000E-02 0. -1.
         -2   -1    0    0    0  501 -0.00000000000E+00 -0.00000000000E+00 -0.74980213540E+02  0.74980213583E+02  0.25500000000E-02 0.  1.
        -24    2    1    2    0    0  0.00000000000E+00  0.00000000000E+00 -0.52364274111E+02  0.97596153573E+02  0.82358921733E+02 0.  0.
         66    2    3    3    0    0  0.25243488494E+02  0.92076110436E+01 -0.63137345220E+02  0.68646472441E+02  0.20000011757E+01 0.  0.
         13    1    3    3    0    0 -0.25243488494E+02 -0.92076110436E+01  0.10773071109E+02  0.28949681132E+02  0.10566000000E+00 0. -1.
         13    1    4    4    0    0  0.12345521966E+02  0.45359482549E+01 -0.29422377579E+02  0.32228468869E+02  0.10566000000E+00 0. -1.
        -13    1    4    4    0    0  0.95254939018E+01  0.34827149500E+01 -0.23507940985E+02  0.25602710616E+02  0.10566000000E+00 0.  1.
         14    1    4    4    0    0  0.33724726265E+01  0.11889478388E+01 -0.10207026656E+02  0.10815292957E+02  0.00000000000E+00 0. -1.
<mgrwt>
<rscale>  0 0.82358922E+02</rscale>
<asrwt>0</asrwt>
<pdfrwt beam="1">  1        1 0.34793754E-02 0.82358922E+02</pdfrwt>
<pdfrwt beam="2">  1       -2 0.11535417E-01 0.82358922E+02</pdfrwt>
<totfact> 0.10522817E+05</totfact>
</mgrwt>
</event>
<event>
 8    1  0.7802633E-018  0.7969053E+02  0.7818608E-02  0.1329932E+00
         -2   -1    0    0    0  501 -0.00000000000E+00  0.00000000000E+00  0.82654997483E+01  0.82655001417E+01  0.25500000000E-02 0.  1.
          1   -1    0    0  501    0  0.00000000000E+00 -0.00000000000E+00 -0.19208097975E+03  0.19208097982E+03  0.50400000000E-02 0. -1.
        -24    2    1    2    0    0  0.17763568394E-14  0.00000000000E+00 -0.18381548000E+03  0.20034647996E+03  0.79690534841E+02 0.  0.
         66    2    3    3    0    0  0.13264868965E+02 -0.31633783919E+02 -0.41122616114E+02  0.53588455979E+02  0.20000061165E+01 0.  0.
         13    1    3    3    0    0 -0.13264868965E+02  0.31633783919E+02 -0.14269286389E+03  0.14675802398E+03  0.10566000000E+00 0. -1.
         13    1    4    4    0    0  0.44483777515E+00 -0.20441618739E+01 -0.25958309111E+01  0.33355630061E+01  0.10566000000E+00 0. -1.
        -13    1    4    4    0    0  0.79140636864E+01 -0.19365262919E+02 -0.24584050502E+02  0.32280528420E+02  0.10566000000E+00 0.  1.
         14    1    4    4    0    0  0.49059675039E+01 -0.10224359126E+02 -0.13942734701E+02  0.17972364553E+02  0.00000000000E+00 0. -1.
<mgrwt>
<rscale>  0 0.79690535E+02</rscale>
<asrwt>0</asrwt>
<pdfrwt beam="1">  1        1 0.29550917E-01 0.79690535E+02</pdfrwt>
<pdfrwt beam="2">  1       -2 0.12716155E-02 0.79690535E+02</pdfrwt>
<totfact> 0.16715187E+05</totfact>
</mgrwt>
</event>
<event>
 8    1  0.7756875E-018  0.7866092E+02  0.7818608E-02  0.1332895E+00
          1   -1    0    0  501    0  0.00000000000E+00  0.00000000000E+00  0.14225625095E+02  0.14225625988E+02  0.50400000000E-02 0. -1.
         -2   -1    0    0    0  501 -0.00000000000E+00 -0.00000000000E+00 -0.10873932417E+03  0.10873932420E+03  0.25500000000E-02 0.  1.
        -24    2    1    2    0    0 -0.35527136788E-14  0.00000000000E+00 -0.94513699079E+02  0.12296495019E+03  0.78660915721E+02 0.  0.
         66    2    3    3    0    0  0.23982670219E+02  0.28507202013E+02 -0.27696943491E+02  0.46464499025E+02  0.19999883467E+01 0.  0.
         13    1    3    3    0    0 -0.23982670219E+02 -0.28507202013E+02 -0.66816755587E+02  0.76500451167E+02  0.10566000000E+00 0. -1.
         13    1    4    4    0    0  0.26431434042E+01  0.36082957284E+01 -0.36762539182E+01  0.57906832089E+01  0.10566000000E+00 0.  1.
        -13    1    4    4    0    0  0.57374032889E+01  0.64239885363E+01 -0.70571509718E+01  0.11135527338E+02  0.10566000000E+00 0. -1.
         14    1    4    4    0    0  0.15602123526E+02  0.18474917748E+02 -0.16963538601E+02  0.29538288478E+02  0.00000000000E+00 0. -1.
<mgrwt>
<rscale>  0 0.78660916E+02</rscale>
<asrwt>0</asrwt>
<pdfrwt beam="1">  1        1 0.21885578E-02 0.78660916E+02</pdfrwt>
<pdfrwt beam="2">  1       -2 0.16729126E-01 0.78660916E+02</pdfrwt>
<totfact> 0.10847460E+05</totfact>
</mgrwt>
</event>
<event>
 8    1  0.7756875E-018  0.7939949E+02  0.7818608E-02  0.1330764E+00
          1   -1    0    0  501    0  0.00000000000E+00  0.00000000000E+00  0.67162628432E+01  0.67162647343E+01  0.50400000000E-02 0. -1.
         -2   -1    0    0    0  501 -0.00000000000E+00 -0.00000000000E+00 -0.23466466295E+03  0.23466466297E+03  0.25500000000E-02 0.  1.
        -24    2    1    2    0    0  0.00000000000E+00 -0.88817841970E-15 -0.22794840011E+03  0.24138092770E+03  0.79399490837E+02 0.  0.
         66    2    3    3    0    0  0.10262353905E+02  0.48533172574E+01 -0.22961717365E+03  0.22990632247E+03  0.20000202015E+01 0.  0.
         13    1    3    3    0    0 -0.10262353905E+02 -0.48533172574E+01  0.16687735386E+01  0.11474605232E+02  0.10566000000E+00 0. -1.
         13    1    4    4    0    0  0.81413000744E+00  0.28624758213E-01 -0.10408270565E+02  0.10440636342E+02  0.10566000000E+00 0. -1.
        -13    1    4    4    0    0  0.87510911610E+01  0.45117428407E+01 -0.20471763162E+03  0.20495428095E+03  0.10566000000E+00 0.  1.
         14    1    4    4    0    0  0.69713273678E+00  0.31294965847E+00 -0.14491271467E+02  0.14511405179E+02  0.00000000000E+00 0. -1.
<mgrwt>
<rscale>  0 0.79399491E+02</rscale>
<asrwt>0</asrwt>
<pdfrwt beam="1">  1        1 0.10332715E-02 0.79399491E+02</pdfrwt>
<pdfrwt beam="2">  1       -2 0.36102250E-01 0.79399491E+02</pdfrwt>
<totfact> 0.80983823E+04</totfact>
</mgrwt>
</event>
<event>
 8    1  0.7756875E-018  0.8046023E+02  0.7818608E-02  0.1327750E+00
          1   -1    0    0  501    0  0.00000000000E+00  0.00000000000E+00  0.69909217544E+02  0.69909217726E+02  0.50400000000E-02 0. -1.
         -2   -1    0    0    0  501 -0.00000000000E+00 -0.00000000000E+00 -0.23150913101E+02  0.23150913242E+02  0.25500000000E-02 0.  1.
        -24    2    1    2    0    0  0.35527136788E-14  0.00000000000E+00  0.46758304443E+02  0.93060130968E+02  0.80460232049E+02 0.  0.
         66    2    3    3    0    0  0.25222385442E+02  0.24821043304E+02  0.13208838565E+01  0.35468262864E+02  0.20000045866E+01 0.  0.
         13    1    3    3    0    0 -0.25222385442E+02 -0.24821043304E+02  0.45437420587E+02  0.57591868104E+02  0.10566000000E+00 0. -1.
         13    1    4    4    0    0  0.48844759912E+01  0.44316124838E+01  0.90071358586E+00  0.66573075575E+01  0.10566000000E+00 0. -1.
        -13    1    4    4    0    0  0.14912403628E+02  0.15328070210E+02  0.47997823884E+00  0.21390910721E+02  0.10566000000E+00 0.  1.
         14    1    4    4    0    0  0.54255058224E+01  0.50613606106E+01 -0.59807968227E-01  0.74200445856E+01  0.00000000000E+00 0. -1.
<mgrwt>
<rscale>  0 0.80460232E+02</rscale>
<asrwt>0</asrwt>
<pdfrwt beam="1">  1        1 0.10755264E-01 0.80460232E+02</pdfrwt>
<pdfrwt beam="2">  1       -2 0.35616790E-02 0.80460232E+02</pdfrwt>
<totfact> 0.13651564E+05</totfact>
</mgrwt>
</event>
<event>
 8    1  0.8247374E-018  0.7189709E+02  0.7818608E-02  0.1353758E+00
         -2   -1    0    0    0  501 -0.00000000000E+00  0.00000000000E+00  0.71370271470E+02  0.71370271516E+02  0.25500000000E-02 0.  1.
          1   -1    0    0  501    0  0.00000000000E+00 -0.00000000000E+00 -0.18106947872E+02  0.18106948573E+02  0.50400000000E-02 0. -1.
        -24    2    1    2    0    0  0.00000000000E+00  0.00000000000E+00  0.53263323598E+02  0.89477220089E+02  0.71897088078E+02 0.  0.
         66    2    3    3    0    0  0.21022293433E+02 -0.11597492372E+02  0.59903310067E+02  0.64566595149E+02  0.20000004267E+01 0.  0.
         13    1    3    3    0    0 -0.21022293433E+02  0.11597492372E+02 -0.66399864684E+01  0.24910624939E+02  0.10566000000E+00 0. -1.
         13    1    4    4    0    0  0.12200428832E+02 -0.70507502406E+01  0.34064865647E+02  0.36864478542E+02  0.10566000000E+00 0. -1.
        -13    1    4    4    0    0  0.86172575275E+01 -0.45949985850E+01  0.25061426493E+02  0.26897163441E+02  0.10566000000E+00 0.  1.
         14    1    4    4    0    0  0.20460707429E+00  0.48256453230E-01  0.77701792707E+00  0.80495316579E+00  0.00000000000E+00 0. -1.
<mgrwt>
<rscale>  0 0.71897088E+02</rscale>
<asrwt>0</asrwt>
<pdfrwt beam="1">  1        1 0.27856844E-02 0.71897088E+02</pdfrwt>
<pdfrwt beam="2">  1       -2 0.10980042E-01 0.71897088E+02</pdfrwt>
<totfact> 0.15004565E+05</totfact>
</mgrwt>
</event>
<event>
 8    1  0.7756875E-018  0.8056233E+02  0.7818608E-02  0.1327463E+00
          1   -1    0    0  501    0  0.00000000000E+00  0.00000000000E+00  0.10035530453E+03  0.10035530465E+03  0.50400000000E-02 0. -1.
         -2   -1    0    0    0  501 -0.00000000000E+00 -0.00000000000E+00 -0.16168277353E+02  0.16168277554E+02  0.25500000000E-02 0.  1.
        -24    2    1    2    0    0  0.17763568394E-14  0.00000000000E+00  0.84187027172E+02  0.11652358221E+03  0.80562334041E+02 0.  0.
         66    2    3    3    0    0  0.87763271861E+01  0.26719030393E+02  0.45875409528E+00  0.28198243936E+02  0.20000004414E+01 0.  0.
         13    1    3    3    0    0 -0.87763271861E+01 -0.26719030393E+02  0.83728273077E+02  0.88325338270E+02  0.10566000000E+00 0. -1.
         13    1    4    4    0    0  0.19765535831E+01  0.49265447260E+01 -0.42400443048E+00  0.53262135515E+01  0.10566000000E+00 0. -1.
        -13    1    4    4    0    0  0.17893160059E+01  0.66667846673E+01  0.67788158808E+00  0.69367396558E+01  0.10566000000E+00 0.  1.
         14    1    4    4    0    0  0.50104575971E+01  0.15125701000E+02  0.20487693768E+00  0.15935290729E+02  0.00000000000E+00 0. -1.
<mgrwt>
<rscale>  0 0.80562334E+02</rscale>
<asrwt>0</asrwt>
<pdfrwt beam="1">  1        1 0.15439278E-01 0.80562334E+02</pdfrwt>
<pdfrwt beam="2">  1       -2 0.24874273E-02 0.80562334E+02</pdfrwt>
<totfact> 0.14431986E+05</totfact>
</mgrwt>
</event>
<event>
 8    1  0.7756875E-018  0.8824240E+02  0.7818608E-02  0.1307165E+00
          1   -1    0    0  501    0  0.00000000000E+00  0.00000000000E+00  0.10974781271E+03  0.10974781282E+03  0.50400000000E-02 0. -1.
         -2   -1    0    0    0  501 -0.00000000000E+00 -0.00000000000E+00 -0.17737757737E+02  0.17737757920E+02  0.25500000000E-02 0.  1.
        -24    2    1    2    0    0 -0.17763568394E-14  0.71054273576E-14  0.92010054970E+02  0.12748557074E+03  0.88242396455E+02 0.  0.
         66    2    3    3    0    0 -0.15002116420E+02  0.41452895991E+02  0.47656059470E+02  0.64950027538E+02  0.19999974590E+01 0.  0.
         13    1    3    3    0    0  0.15002116420E+02 -0.41452895991E+02  0.44353995500E+02  0.62535543205E+02  0.10566000000E+00 0. -1.
         13    1    4    4    0    0 -0.24810285592E+01  0.75559595193E+01  0.80885593426E+01  0.11343896299E+02  0.10566000000E+00 0. -1.
        -13    1    4    4    0    0 -0.11821159266E+02  0.30790009901E+02  0.36005709781E+02  0.48828135506E+02  0.10566000000E+00 0.  1.
        -14    1    4    4    0    0 -0.69992859482E+00  0.31069265707E+01  0.35617903459E+01  0.47779957327E+01  0.00000000000E+00 0.  1.
<mgrwt>
<rscale>  0 0.88242396E+02</rscale>
<asrwt>0</asrwt>
<pdfrwt beam="1">  1        1 0.16884279E-01 0.88242396E+02</pdfrwt>
<pdfrwt beam="2">  1       -2 0.27288858E-02 0.88242396E+02</pdfrwt>
<totfact> 0.11445940E+05</totfact>
</mgrwt>
</event>
<event>
 8    1  0.7756875E-018  0.7953932E+02  0.7818608E-02  0.1330364E+00
         -2   -1    0    0    0  501 -0.00000000000E+00  0.00000000000E+00  0.39375413332E+02  0.39375413415E+02  0.25500000000E-02 0.  1.
          1   -1    0    0  501    0  0.00000000000E+00 -0.00000000000E+00 -0.40167856010E+02  0.40167856326E+02  0.50400000000E-02 0. -1.
        -24    2    1    2    0    0  0.00000000000E+00  0.00000000000E+00 -0.79244267823E+00  0.79543269741E+02  0.79539322324E+02 0.  0.
         66    2    3    3    0    0 -0.19518946438E+02 -0.15831247560E+02  0.30394719337E+02  0.39489956420E+02  0.20000062874E+01 0.  0.
         13    1    3    3    0    0  0.19518946438E+02  0.15831247560E+02 -0.31187162015E+02  0.40053313321E+02  0.10566000000E+00 0. -1.
         13    1    4    4    0    0 -0.69117010198E+01 -0.48384588056E+01  0.10364713849E+02  0.13364907475E+02  0.10566000000E+00 0. -1.
        -13    1    4    4    0    0 -0.21852422948E+01 -0.21494387618E+01  0.43725280462E+01  0.53409302962E+01  0.10566000000E+00 0.  1.
         14    1    4    4    0    0 -0.10422003124E+02 -0.88433499924E+01  0.15657477442E+02  0.20784118650E+02  0.00000000000E+00 0. -1.
<mgrwt>
<rscale>  0 0.79539322E+02</rscale>
<asrwt>0</asrwt>
<pdfrwt beam="1">  1        1 0.61796702E-02 0.79539322E+02</pdfrwt>
<pdfrwt beam="2">  1       -2 0.60577559E-02 0.79539322E+02</pdfrwt>
<totfact> 0.12914456E+05</totfact>
</mgrwt>
</event>
<event>
 8    1  0.7756875E-018  0.7992948E+02  0.7818608E-02  0.1329252E+00
         -2   -1    0    0    0  501 -0.00000000000E+00  0.00000000000E+00  0.38463748976E+02  0.38463749060E+02  0.25500000000E-02 0.  1.
          1   -1    0    0  501    0  0.00000000000E+00 -0.00000000000E+00 -0.41524307410E+02  0.41524307716E+02  0.50400000000E-02 0. -1.
        -24    2    1    2    0    0  0.00000000000E+00  0.00000000000E+00 -0.30605584344E+01  0.79988056776E+02  0.79929482726E+02 0.  0.
         66    2    3    3    0    0  0.18910541488E+02 -0.17047009864E+02  0.29264136628E+02  0.38840685054E+02  0.19999995538E+01 0.  0.
         13    1    3    3    0    0 -0.18910541488E+02  0.17047009864E+02 -0.32324695063E+02  0.41147371722E+02  0.10566000000E+00 0. -1.
         13    1    4    4    0    0  0.15248814220E+02 -0.14181146646E+02  0.23269328149E+02  0.31226656111E+02  0.10566000000E+00 0. -1.
        -13    1    4    4    0    0  0.34700663163E+01 -0.28650865830E+01  0.57840782355E+01  0.73291750175E+01  0.10566000000E+00 0.  1.
         14    1    4    4    0    0  0.19166095217E+00 -0.77663516053E-03  0.21073024348E+00  0.28485392619E+00  0.00000000000E+00 0. -1.
<mgrwt>
<rscale>  0 0.79929483E+02</rscale>
<asrwt>0</asrwt>
<pdfrwt beam="1">  1        1 0.63883550E-02 0.79929483E+02</pdfrwt>
<pdfrwt beam="2">  1       -2 0.59174999E-02 0.79929483E+02</pdfrwt>
<totfact> 0.12806273E+05</totfact>
</mgrwt>
</event>
<event>
 8    1  0.7756875E-018  0.8585810E+02  0.7818608E-02  0.1313204E+00
         -2   -1    0    0    0  501 -0.00000000000E+00  0.00000000000E+00  0.29212970177E+02  0.29212970289E+02  0.25500000000E-02 0.  1.
          1   -1    0    0  501    0  0.00000000000E+00 -0.00000000000E+00 -0.63085100387E+02  0.63085100588E+02  0.50400000000E-02 0. -1.
        -24    2    1    2    0    0  0.00000000000E+00  0.00000000000E+00 -0.33872130209E+02  0.92298070877E+02  0.85858096197E+02 0.  0.
         66    2    3    3    0    0  0.13916095084E+01 -0.19313581764E+02  0.24214311475E+02  0.31069018221E+02  0.19999988537E+01 0.  0.
         13    1    3    3    0    0 -0.13916095084E+01  0.19313581764E+02 -0.58086441684E+02  0.61229052656E+02  0.10566000000E+00 0. -1.
         13    1    4    4    0    0  0.16885733774E+00 -0.40071003598E+00  0.77984505835E+00  0.89911272045E+00  0.10566000000E+00 0. -1.
        -13    1    4    4    0    0  0.96173532536E+00 -0.18399634729E+02  0.22688728645E+02  0.29227744773E+02  0.10566000000E+00 0.  1.
        -14    1    4    4    0    0  0.26101684529E+00 -0.51323699943E+00  0.74573777160E+00  0.94216072679E+00  0.00000000000E+00 0.  1.
<mgrwt>
<rscale>  0 0.85858096E+02</rscale>
<asrwt>0</asrwt>
<pdfrwt beam="1">  1        1 0.97054001E-02 0.85858096E+02</pdfrwt>
<pdfrwt beam="2">  1       -2 0.44943031E-02 0.85858096E+02</pdfrwt>
<totfact> 0.11222643E+05</totfact>
</mgrwt>
</event>
<event>
 8    1  0.7756875E-018  0.8041059E+02  0.7818608E-02  0.1327890E+00
         -2   -1    0    0    0  501 -0.00000000000E+00  0.00000000000E+00  0.19651576129E+02  0.19651576294E+02  0.25500000000E-02 0.  1.
          1   -1    0    0  501    0  0.00000000000E+00 -0.00000000000E+00 -0.82256287932E+02  0.82256288086E+02  0.50400000000E-02 0. -1.
        -24    2    1    2    0    0  0.00000000000E+00 -0.17763568394E-14 -0.62604711803E+02  0.10190786438E+03  0.80410589369E+02 0.  0.
         66    2    3    3    0    0 -0.22086622040E+02  0.10040723293E+02  0.92694740057E+01  0.26049148685E+02  0.20000003623E+01 0.  0.
         13    1    3    3    0    0  0.22086622040E+02 -0.10040723293E+02 -0.71874185809E+02  0.75858715696E+02  0.10566000000E+00 0. -1.
         13    1    4    4    0    0 -0.59917414736E+01  0.36314669321E+01  0.29779225353E+01  0.76136525155E+01  0.10566000000E+00 0. -1.
        -13    1    4    4    0    0 -0.50370375124E+01  0.21014417264E+01  0.18358444465E+01  0.57592788697E+01  0.10566000000E+00 0.  1.
         14    1    4    4    0    0 -0.11057843054E+02  0.43078146348E+01  0.44557070239E+01  0.12676217299E+02  0.00000000000E+00 0. -1.
<mgrwt>
<rscale>  0 0.80410589E+02</rscale>
<asrwt>0</asrwt>
<pdfrwt beam="1">  1        1 0.12654813E-01 0.80410589E+02</pdfrwt>
<pdfrwt beam="2">  1       -2 0.30233195E-02 0.80410589E+02</pdfrwt>
<totfact> 0.14036222E+05</totfact>
</mgrwt>
</event>
<event>
 8    1  0.7756875E-018  0.7934325E+02  0.7818608E-02  0.1330926E+00
         -2   -1    0    0    0  501 -0.00000000000E+00  0.00000000000E+00  0.12978533274E+02  0.12978533525E+02  0.25500000000E-02 0.  1.
          1   -1    0    0  501    0  0.00000000000E+00 -0.00000000000E+00 -0.12126468405E+03  0.12126468415E+03  0.50400000000E-02 0. -1.
        -24    2    1    2    0    0  0.00000000000E+00  0.00000000000E+00 -0.10828615077E+03  0.13424321768E+03  0.79343248252E+02 0.  0.
         66    2    3    3    0    0 -0.17767156659E+02 -0.17491298129E+02 -0.20226852362E+01  0.25093995793E+02  0.20000008297E+01 0.  0.
         13    1    3    3    0    0  0.17767156659E+02  0.17491298129E+02 -0.10626346554E+03  0.10914922189E+03  0.10566000000E+00 0. -1.
         13    1    4    4    0    0 -0.16379403195E+01 -0.11545579638E+01  0.11567658124E+00  0.20100740506E+01  0.10566000000E+00 0. -1.
        -13    1    4    4    0    0 -0.25132982803E+01 -0.24044983021E+01 -0.70441579689E+00  0.35504430683E+01  0.10566000000E+00 0.  1.
         14    1    4    4    0    0 -0.13615918059E+02 -0.13932241863E+02 -0.14339460205E+01  0.19533478674E+02  0.00000000000E+00 0. -1.
<mgrwt>
<rscale>  0 0.79343248E+02</rscale>
<asrwt>0</asrwt>
<pdfrwt beam="1">  1        1 0.18656105E-01 0.79343248E+02</pdfrwt>
<pdfrwt beam="2">  1       -2 0.19966975E-02 0.79343248E+02</pdfrwt>
<totfact> 0.15534455E+05</totfact>
</mgrwt>
</event>
<event>
 8    1  0.7756875E-018  0.7777114E+02  0.7818608E-02  0.1335498E+00
          1   -1    0    0  501    0  0.00000000000E+00  0.00000000000E+00  0.12392549909E+02  0.12392550934E+02  0.50400000000E-02 0. -1.
         -2   -1    0    0    0  501 -0.00000000000E+00 -0.00000000000E+00 -0.12201584411E+03  0.12201584413E+03  0.25500000000E-02 0.  1.
        -24    2    1    2    0    0  0.00000000000E+00  0.00000000000E+00 -0.10962329420E+03  0.13440839507E+03  0.77771138823E+02 0.  0.
         66    2    3    3    0    0 -0.16649349264E+02 -0.29155949666E+02 -0.88662134350E+02  0.94827444877E+02  0.20000006220E+01 0.  0.
         13    1    3    3    0    0  0.16649349264E+02  0.29155949666E+02 -0.20961159849E+02  0.39580950192E+02  0.10566000000E+00 0. -1.
         13    1    4    4    0    0 -0.91048925911E+01 -0.14081180930E+02 -0.45043277325E+02  0.48063361531E+02  0.10566000000E+00 0. -1.
        -13    1    4    4    0    0 -0.10543239710E+01 -0.20019961978E+01 -0.59291736168E+01  0.63471136452E+01  0.10566000000E+00 0.  1.
         14    1    4    4    0    0 -0.64901327016E+01 -0.13072772538E+02 -0.37689683409E+02  0.40416969700E+02  0.00000000000E+00 0. -1.
<mgrwt>
<rscale>  0 0.77771139E+02</rscale>
<asrwt>0</asrwt>
<pdfrwt beam="1">  1        1 0.19065463E-02 0.77771139E+02</pdfrwt>
<pdfrwt beam="2">  1       -2 0.18771668E-01 0.77771139E+02</pdfrwt>
<totfact> 0.10824028E+05</totfact>
</mgrwt>
</event>
<event>
 8    1  0.7756875E-018  0.7884269E+02  0.7818608E-02  0.1332368E+00
         -2   -1    0    0    0  501 -0.00000000000E+00  0.00000000000E+00  0.28425504889E+03  0.28425504890E+03  0.25500000000E-02 0.  1.
          1   -1    0    0  501    0  0.00000000000E+00 -0.00000000000E+00 -0.54670698952E+01  0.54670722184E+01  0.50400000000E-02 0. -1.
        -24    2    1    2    0    0  0.00000000000E+00  0.00000000000E+00  0.27878797899E+03  0.28972212112E+03  0.78842692966E+02 0.  0.
         66    2    3    3    0    0  0.21640144664E+02  0.76673795901E+01  0.25712808926E+03  0.25815874744E+03  0.20000052854E+01 0.  0.
         13    1    3    3    0    0 -0.21640144664E+02 -0.76673795901E+01  0.21659889734E+02  0.31563373682E+02  0.10566000000E+00 0. -1.
         13    1    4    4    0    0  0.15276277862E+01  0.33842937441E+00  0.16213504967E+02  0.16289170895E+02  0.10566000000E+00 0. -1.
        -13    1    4    4    0    0  0.16778400633E+02  0.55463864605E+01  0.20227113340E+03  0.20304162062E+03  0.10566000000E+00 0.  1.
        -14    1    4    4    0    0  0.33341162439E+01  0.17825637551E+01  0.38643450890E+02  0.38827955925E+02  0.00000000000E+00 0.  1.
<mgrwt>
<rscale>  0 0.78842693E+02</rscale>
<asrwt>0</asrwt>
<pdfrwt beam="1">  1        1 0.84108791E-03 0.78842693E+02</pdfrwt>
<pdfrwt beam="2">  1       -2 0.43731543E-01 0.78842693E+02</pdfrwt>
<totfact> 0.75093268E+04</totfact>
</mgrwt>
</event>
<event>
 8    1  0.7756875E-018  0.8069131E+02  0.7818608E-02  0.1327101E+00
         -2   -1    0    0    0  501 -0.00000000000E+00  0.00000000000E+00  0.13214042104E+02  0.13214042350E+02  0.25500000000E-02 0.  1.
          1   -1    0    0  501    0  0.00000000000E+00 -0.00000000000E+00 -0.12318500357E+03  0.12318500367E+03  0.50400000000E-02 0. -1.
        -24    2    1    2    0    0  0.00000000000E+00  0.00000000000E+00 -0.10997096146E+03  0.13639904602E+03  0.80691309259E+02 0.  0.
         66    2    3    3    0    0  0.18714187806E+02  0.15051192075E+02 -0.27045457661E+00  0.24100463734E+02  0.19999996097E+01 0.  0.
         13    1    3    3    0    0 -0.18714187806E+02 -0.15051192075E+02 -0.10970050689E+03  0.11229858229E+03  0.10566000000E+00 0. -1.
         13    1    4    4    0    0  0.13606437072E+02  0.11724636561E+02 -0.14432810447E+00  0.17962021794E+02  0.10566000000E+00 0.  1.
        -13    1    4    4    0    0  0.97510730262E+00  0.90623583612E+00  0.13440126454E+00  0.13421346347E+01  0.10566000000E+00 0. -1.
         14    1    4    4    0    0  0.41326434314E+01  0.24203196771E+01 -0.26052773667E+00  0.47963073059E+01  0.00000000000E+00 0. -1.
<mgrwt>
<rscale>  0 0.80691309E+02</rscale>
<asrwt>0</asrwt>
<pdfrwt beam="1">  1        1 0.18951538E-01 0.80691309E+02</pdfrwt>
<pdfrwt beam="2">  1       -2 0.20329297E-02 0.80691309E+02</pdfrwt>
<totfact> 0.14888222E+05</totfact>
</mgrwt>
</event>
<event>
 8    1  0.7756875E-018  0.8221567E+02  0.7818608E-02  0.1322879E+00
         -2   -1    0    0    0  501 -0.00000000000E+00  0.00000000000E+00  0.85356241853E+02  0.85356241891E+02  0.25500000000E-02 0.  1.
          1   -1    0    0  501    0  0.00000000000E+00 -0.00000000000E+00 -0.19797661061E+02  0.19797661703E+02  0.50400000000E-02 0. -1.
        -24    2    1    2    0    0 -0.35527136788E-14  0.00000000000E+00  0.65558580791E+02  0.10515390359E+03  0.82215667154E+02 0.  0.
         66    2    3    3    0    0 -0.27215580093E+02 -0.27904308529E+02  0.49401559696E+02  0.62959132247E+02  0.19999996336E+01 0.  0.
         13    1    3    3    0    0  0.27215580093E+02  0.27904308529E+02  0.16157021096E+02  0.42194771347E+02  0.10566000000E+00 0. -1.
         13    1    4    4    0    0 -0.44251937447E+01 -0.39603823642E+01  0.78028042507E+01  0.98062167199E+01  0.10566000000E+00 0. -1.
        -13    1    4    4    0    0 -0.98698863427E+01 -0.11358136459E+02  0.18596049747E+02  0.23921666967E+02  0.10566000000E+00 0.  1.
        -14    1    4    4    0    0 -0.12920500006E+02 -0.12585789707E+02  0.23002705698E+02  0.29231248560E+02  0.00000000000E+00 0.  1.
<mgrwt>
<rscale>  0 0.82215667E+02</rscale>
<asrwt>0</asrwt>
<pdfrwt beam="1">  1        1 0.30457941E-02 0.82215667E+02</pdfrwt>
<pdfrwt beam="2">  1       -2 0.13131730E-01 0.82215667E+02</pdfrwt>
<totfact> 0.10275329E+05</totfact>
</mgrwt>
</event>
<event>
 8    1  0.7756875E-018  0.8004937E+02  0.7818608E-02  0.1328911E+00
         -2   -1    0    0    0  501 -0.00000000000E+00  0.00000000000E+00  0.27977474171E+02  0.27977474287E+02  0.25500000000E-02 0.  1.
          1   -1    0    0  501    0  0.00000000000E+00 -0.00000000000E+00 -0.57259467430E+02  0.57259467652E+02  0.50400000000E-02 0. -1.
        -24    2    1    2    0    0  0.88817841970E-15  0.00000000000E+00 -0.29281993260E+02  0.85236941939E+02  0.80049366905E+02 0.  0.
         66    2    3    3    0    0 -0.54122558973E+01 -0.20073184430E+02  0.21736699567E+02  0.30144806123E+02  0.19999952588E+01 0.  0.
         13    1    3    3    0    0  0.54122558973E+01  0.20073184430E+02 -0.51018692827E+02  0.55092135817E+02  0.10566000000E+00 0. -1.
         13    1    4    4    0    0 -0.35852822057E+00 -0.12559747352E+01  0.15316245534E+01  0.20157015723E+01  0.10566000000E+00 0.  1.
        -13    1    4    4    0    0 -0.44527417261E+01 -0.14349259454E+02  0.14785824178E+02  0.21079846214E+02  0.10566000000E+00 0.  1.
        -14    1    4    4    0    0 -0.60098595055E+00 -0.44679502415E+01  0.54192508359E+01  0.70492583366E+01  0.00000000000E+00 0.  1.
<mgrwt>
<rscale>  0 0.80049367E+02</rscale>
<asrwt>0</asrwt>
<pdfrwt beam="1">  1        1 0.88091488E-02 0.80049367E+02</pdfrwt>
<pdfrwt beam="2">  1       -2 0.43042268E-02 0.80049367E+02</pdfrwt>
<totfact> 0.13416870E+05</totfact>
</mgrwt>
</event>
<event>
 8    1  0.7756875E-018  0.7703387E+02  0.7818608E-02  0.1337686E+00
          1   -1    0    0  501    0  0.00000000000E+00  0.00000000000E+00  0.17321745145E+03  0.17321745153E+03  0.50400000000E-02 0. -1.
         -2   -1    0    0    0  501 -0.00000000000E+00 -0.00000000000E+00 -0.85646932691E+01  0.85646936487E+01  0.25500000000E-02 0.  1.
        -24    2    1    2    0    0  0.00000000000E+00  0.00000000000E+00  0.16465275818E+03  0.18178214518E+03  0.77033872594E+02 0.  0.
         66    2    3    3    0    0 -0.20152577645E+02 -0.16933417139E+02  0.16111165410E+02  0.30926310188E+02  0.20000023067E+01 0.  0.
         13    1    3    3    0    0  0.20152577645E+02  0.16933417139E+02  0.14854159277E+03  0.15085583499E+03  0.10566000000E+00 0. -1.
         13    1    4    4    0    0 -0.56205953871E+00 -0.72230557684E+00  0.63935387034E+00  0.11214159257E+01  0.10566000000E+00 0. -1.
        -13    1    4    4    0    0 -0.63621594639E+01 -0.59685442593E+01  0.58696918683E+01  0.10514991217E+02  0.10566000000E+00 0.  1.
        -14    1    4    4    0    0 -0.13228358643E+02 -0.10242567303E+02  0.96021196715E+01  0.19289903046E+02  0.00000000000E+00 0.  1.
<mgrwt>
<rscale>  0 0.77033873E+02</rscale>
<asrwt>0</asrwt>
<pdfrwt beam="1">  1        1 0.26648836E-01 0.77033873E+02</pdfrwt>
<pdfrwt beam="2">  1       -2 0.13176453E-02 0.77033873E+02</pdfrwt>
<totfact> 0.17932179E+05</totfact>
</mgrwt>
</event>
<event>
 8    1  0.7756875E-018  0.8011633E+02  0.7818608E-02  0.1328722E+00
         -2   -1    0    0    0  501 -0.00000000000E+00  0.00000000000E+00  0.72950462694E+02  0.72950462739E+02  0.25500000000E-02 0.  1.
          1   -1    0    0  501    0  0.00000000000E+00 -0.00000000000E+00 -0.21996522660E+02  0.21996523237E+02  0.50400000000E-02 0. -1.
        -24    2    1    2    0    0 -0.35527136788E-14 -0.71054273576E-14  0.50953940034E+02  0.94946985977E+02  0.80116328804E+02 0.  0.
         66    2    3    3    0    0 -0.22586771586E+02 -0.32977278226E+02  0.22845871566E+02  0.46082501871E+02  0.20000002966E+01 0.  0.
         13    1    3    3    0    0  0.22586771586E+02  0.32977278226E+02  0.28108068469E+02  0.48864484106E+02  0.10566000000E+00 0. -1.
         13    1    4    4    0    0 -0.65464258498E+01 -0.91249689135E+01  0.60038964349E+01  0.12734939557E+02  0.10566000000E+00 0. -1.
        -13    1    4    4    0    0 -0.62030147132E+01 -0.10496103510E+02  0.73087683514E+01  0.14215302997E+02  0.10566000000E+00 0.  1.
        -14    1    4    4    0    0 -0.98373310231E+01 -0.13356205802E+02  0.95332067794E+01  0.19132259317E+02  0.00000000000E+00 0.  1.
<mgrwt>
<rscale>  0 0.80116329E+02</rscale>
<asrwt>0</asrwt>
<pdfrwt beam="1">  1        1 0.33840805E-02 0.80116329E+02</pdfrwt>
<pdfrwt beam="2">  1       -2 0.11223148E-01 0.80116329E+02</pdfrwt>
<totfact> 0.11353167E+05</totfact>
</mgrwt>
</event>
<event>
 8    1  0.7756875E-018  0.7868725E+02  0.7818608E-02  0.1332819E+00
          1   -1    0    0  501    0  0.00000000000E+00  0.00000000000E+00  0.78694318756E+01  0.78694334896E+01  0.50400000000E-02 0. -1.
         -2   -1    0    0    0  501 -0.00000000000E+00 -0.00000000000E+00 -0.19670045653E+03  0.19670045655E+03  0.25500000000E-02 0.  1.
        -24    2    1    2    0    0  0.71054273576E-14 -0.35527136788E-14 -0.18883102466E+03  0.20456989004E+03  0.78687254606E+02 0.  0.
         66    2    3    3    0    0  0.27219486957E+02 -0.27984920970E+02 -0.10663149050E+03  0.11357081943E+03  0.19999969991E+01 0.  0.
         13    1    3    3    0    0 -0.27219486957E+02  0.27984920970E+02 -0.82199534161E+02  0.90999070611E+02  0.10566000000E+00 0. -1.
         13    1    4    4    0    0  0.39488668180E+01 -0.32291296607E+01 -0.13274707253E+02  0.14221457176E+02  0.10566000000E+00 0. -1.
        -13    1    4    4    0    0  0.10406634508E+02 -0.11306399261E+02 -0.41418039073E+02  0.44176892497E+02  0.10566000000E+00 0.  1.
         14    1    4    4    0    0  0.12863985632E+02 -0.13449392048E+02 -0.51938744170E+02  0.55172469754E+02  0.00000000000E+00 0. -1.
<mgrwt>
<rscale>  0 0.78687255E+02</rscale>
<asrwt>0</asrwt>
<pdfrwt beam="1">  1        1 0.12106821E-02 0.78687255E+02</pdfrwt>
<pdfrwt beam="2">  1       -2 0.30261605E-01 0.78687255E+02</pdfrwt>
<totfact> 0.89380866E+04</totfact>
</mgrwt>
</event>
<event>
 8    1  0.7756875E-018  0.7903317E+02  0.7818608E-02  0.1331818E+00
         -2   -1    0    0    0  501 -0.00000000000E+00  0.00000000000E+00  0.63225148368E+02  0.63225148419E+02  0.25500000000E-02 0.  1.
          1   -1    0    0  501    0  0.00000000000E+00 -0.00000000000E+00 -0.24698409030E+02  0.24698409544E+02  0.50400000000E-02 0. -1.
        -24    2    1    2    0    0  0.00000000000E+00  0.00000000000E+00  0.38526739338E+02  0.87923557963E+02  0.79033172787E+02 0.  0.
         66    2    3    3    0    0  0.34761616337E+02 -0.17030463776E+02  0.27975094707E+02  0.47801805318E+02  0.20000002560E+01 0.  0.
         13    1    3    3    0    0 -0.34761616337E+02  0.17030463776E+02  0.10551644631E+02  0.40121752645E+02  0.10566000000E+00 0. -1.
         13    1    4    4    0    0  0.77814316203E+00 -0.20301501029E+00  0.44404468057E+00  0.92469540334E+00  0.10566000000E+00 0. -1.
        -13    1    4    4    0    0  0.18384574201E+02 -0.86268002583E+01  0.14219876353E+02  0.24791738519E+02  0.10566000000E+00 0.  1.
         14    1    4    4    0    0  0.15598898974E+02 -0.82006485079E+01  0.13311173673E+02  0.22085371396E+02  0.00000000000E+00 0. -1.
<mgrwt>
<rscale>  0 0.79033173E+02</rscale>
<asrwt>0</asrwt>
<pdfrwt beam="1">  1        1 0.37997553E-02 0.79033173E+02</pdfrwt>
<pdfrwt beam="2">  1       -2 0.97269460E-02 0.79033173E+02</pdfrwt>
<totfact> 0.12089143E+05</totfact>
</mgrwt>
</event>
<event>
 8    1  0.7756875E-018  0.7705264E+02  0.7818608E-02  0.1337630E+00
         -2   -1    0    0    0  501 -0.00000000000E+00  0.00000000000E+00  0.10616312523E+02  0.10616312829E+02  0.25500000000E-02 0.  1.
          1   -1    0    0  501    0  0.00000000000E+00 -0.00000000000E+00 -0.13981098863E+03  0.13981098872E+03  0.50400000000E-02 0. -1.
        -24    2    1    2    0    0 -0.35527136788E-14  0.00000000000E+00 -0.12919467610E+03  0.15042730155E+03  0.77052636015E+02 0.  0.
         66    2    3    3    0    0  0.23583130079E+02 -0.15652810903E+02 -0.13690773054E+02  0.31505742116E+02  0.20000014965E+01 0.  0.
         13    1    3    3    0    0 -0.23583130079E+02  0.15652810903E+02 -0.11550390305E+03  0.11892155943E+03  0.10566000000E+00 0. -1.
         13    1    4    4    0    0  0.74902898834E+01 -0.42567008722E+01 -0.35530542846E+01  0.93198338847E+01  0.10566000000E+00 0. -1.
        -13    1    4    4    0    0  0.13085480943E+02 -0.90566616309E+01 -0.84530022615E+01  0.18019915169E+02  0.10566000000E+00 0.  1.
        -14    1    4    4    0    0  0.30073592518E+01 -0.23394483999E+01 -0.16847165076E+01  0.41659930625E+01  0.00000000000E+00 0.  1.
<mgrwt>
<rscale>  0 0.77052636E+02</rscale>
<asrwt>0</asrwt>
<pdfrwt beam="1">  1        1 0.21509382E-01 0.77052636E+02</pdfrwt>
<pdfrwt beam="2">  1       -2 0.16332790E-02 0.77052636E+02</pdfrwt>
<totfact> 0.17229869E+05</totfact>
</mgrwt>
</event>
<event>
 8    1  0.7756875E-018  0.8103734E+02  0.7818608E-02  0.1326133E+00
         -2   -1    0    0    0  501 -0.00000000000E+00  0.00000000000E+00  0.54757360906E+02  0.54757360965E+02  0.25500000000E-02 0.  1.
          1   -1    0    0  501    0  0.00000000000E+00 -0.00000000000E+00 -0.29982502848E+02  0.29982503271E+02  0.50400000000E-02 0. -1.
        -24    2    1    2    0    0  0.00000000000E+00  0.00000000000E+00  0.24774858058E+02  0.84739864237E+02  0.81037343238E+02 0.  0.
         66    2    3    3    0    0  0.25359463099E+02 -0.17961877836E+02  0.39543151104E+02  0.50332814558E+02  0.19999994959E+01 0.  0.
         13    1    3    3    0    0 -0.25359463099E+02  0.17961877836E+02 -0.14768293046E+02  0.34407049679E+02  0.10566000000E+00 0. -1.
         13    1    4    4    0    0  0.48787628775E+00 -0.30619151001E+00  0.74892615282E+00  0.95070023190E+00  0.10566000000E+00 0.  1.
        -13    1    4    4    0    0  0.23996451222E+02 -0.16763594554E+02  0.37625058119E+02  0.47670787031E+02  0.10566000000E+00 0.  1.
        -14    1    4    4    0    0  0.87513558930E+00 -0.89209177229E+00  0.11691668324E+01  0.17113272954E+01  0.00000000000E+00 0.  1.
<mgrwt>
<rscale>  0 0.81037343E+02</rscale>
<asrwt>0</asrwt>
<pdfrwt beam="1">  1        1 0.46126929E-02 0.81037343E+02</pdfrwt>
<pdfrwt beam="2">  1       -2 0.84242092E-02 0.81037343E+02</pdfrwt>
<totfact> 0.11653311E+05</totfact>
</mgrwt>
</event>
<event>
 8    1  0.7756875E-018  0.6942225E+02  0.7818608E-02  0.1362069E+00
          1   -1    0    0  501    0  0.00000000000E+00  0.00000000000E+00  0.57185336326E+02  0.57185336548E+02  0.50400000000E-02 0. -1.
         -2   -1    0    0    0  501 -0.00000000000E+00 -0.00000000000E+00 -0.21069426242E+02  0.21069426397E+02  0.25500000000E-02 0.  1.
        -24    2    1    2    0    0 -0.35527136788E-14  0.00000000000E+00  0.36115910084E+02  0.78254762945E+02  0.69422251205E+02 0.  0.
         66    2    3    3    0    0 -0.19430481084E+02 -0.28450086577E+02  0.22568616813E+02  0.41234615181E+02  0.20000007203E+01 0.  0.
         13    1    3    3    0    0  0.19430481084E+02  0.28450086577E+02  0.13547293271E+02  0.37020147764E+02  0.10566000000E+00 0. -1.
         13    1    4    4    0    0 -0.63894206123E+01 -0.78611381758E+01  0.70011982448E+01  0.12314630733E+02  0.10566000000E+00 0. -1.
        -13    1    4    4    0    0 -0.59402073614E+01 -0.95151522950E+01  0.71844030823E+01  0.13321073469E+02  0.10566000000E+00 0.  1.
         14    1    4    4    0    0 -0.71008531104E+01 -0.11073796107E+02  0.83830154857E+01  0.15598910979E+02  0.00000000000E+00 0. -1.
<mgrwt>
<rscale>  0 0.69422251E+02</rscale>
<asrwt>0</asrwt>
<pdfrwt beam="1">  1        1 0.87977442E-02 0.69422251E+02</pdfrwt>
<pdfrwt beam="2">  1       -2 0.32414502E-02 0.69422251E+02</pdfrwt>
<totfact> 0.19785561E+05</totfact>
</mgrwt>
</event>
<event>
 8    1  0.8581423E-018  0.7925480E+02  0.7818608E-02  0.1331180E+00
         -2   -1    0    0    0  501 -0.00000000000E+00  0.00000000000E+00  0.33393208537E+02  0.33393208634E+02  0.25500000000E-02 0.  1.
          1   -1    0    0  501    0  0.00000000000E+00 -0.00000000000E+00 -0.47025453426E+02  0.47025453696E+02  0.50400000000E-02 0. -1.
        -24    2    1    2    0    0 -0.17763568394E-14  0.13877787808E-16 -0.13632244890E+02  0.80418662330E+02  0.79254798910E+02 0.  0.
         66    2    3    3    0    0  0.11696530949E+02 -0.18684268926E-01  0.31570553917E+02  0.33726978174E+02  0.19999991975E+01 0.  0.
         13    1    3    3    0    0 -0.11696530949E+02  0.18684268926E-01 -0.45202798807E+02  0.46691684156E+02  0.10566000000E+00 0. -1.
         13    1    4    4    0    0  0.22419210603E+01 -0.39207424935E+00  0.47538902922E+01  0.52716761285E+01  0.10566000000E+00 0. -1.
        -13    1    4    4    0    0  0.57575293298E+01 -0.25992846594E+00  0.15991809065E+02  0.16998994911E+02  0.10566000000E+00 0.  1.
         14    1    4    4    0    0  0.36970805586E+01  0.63331844636E+00  0.10824854560E+02  0.11456307135E+02  0.00000000000E+00 0. -1.
<mgrwt>
<rscale>  0 0.79254799E+02</rscale>
<asrwt>0</asrwt>
<pdfrwt beam="1">  1        1 0.72346852E-02 0.79254799E+02</pdfrwt>
<pdfrwt beam="2">  1       -2 0.51374167E-02 0.79254799E+02</pdfrwt>
<totfact> 0.13375024E+05</totfact>
</mgrwt>
</event>
<event>
 8    1  0.7756875E-018  0.7989453E+02  0.7818608E-02  0.1329351E+00
         -2   -1    0    0    0  501 -0.00000000000E+00  0.00000000000E+00  0.55637052322E+02  0.55637052380E+02  0.25500000000E-02 0.  1.
          1   -1    0    0  501    0  0.00000000000E+00 -0.00000000000E+00 -0.28682039268E+02  0.28682039711E+02  0.50400000000E-02 0. -1.
        -24    2    1    2    0    0  0.22204460493E-15 -0.35527136788E-14  0.26955013054E+02  0.84319092091E+02  0.79894533995E+02 0.  0.
         66    2    3    3    0    0 -0.10624632497E+01  0.19683310765E+02  0.50124758266E+02  0.53898542983E+02  0.19999984173E+01 0.  0.
         13    1    3    3    0    0  0.10624632497E+01 -0.19683310765E+02 -0.23169745212E+02  0.30420549108E+02  0.10566000000E+00 0. -1.
         13    1    4    4    0    0  0.38321727119E+00  0.25776451632E+01  0.74647316035E+01  0.79072430095E+01  0.10566000000E+00 0. -1.
        -13    1    4    4    0    0 -0.91470628551E+00  0.68888493411E+01  0.16759629362E+02  0.18143573882E+02  0.10566000000E+00 0.  1.
         14    1    4    4    0    0 -0.53097423537E+00  0.10216816261E+02  0.25900397300E+02  0.27847726091E+02  0.00000000000E+00 0. -1.
<mgrwt>
<rscale>  0 0.79894534E+02</rscale>
<asrwt>0</asrwt>
<pdfrwt beam="1">  1        1 0.44126215E-02 0.79894534E+02</pdfrwt>
<pdfrwt beam="2">  1       -2 0.85595464E-02 0.79894534E+02</pdfrwt>
<totfact> 0.12043854E+05</totfact>
</mgrwt>
</event>
<event>
 8    1  0.7756875E-018  0.8128411E+02  0.7818608E-02  0.1325446E+00
         -2   -1    0    0    0  501 -0.00000000000E+00  0.00000000000E+00  0.24853051591E+03  0.24853051593E+03  0.25500000000E-02 0.  1.
          1   -1    0    0  501    0  0.00000000000E+00 -0.00000000000E+00 -0.66461710184E+01  0.66461729294E+01  0.50400000000E-02 0. -1.
        -24    2    1    2    0    0  0.71054273576E-14  0.17763568394E-14  0.24188434489E+03  0.25517668885E+03  0.81284108103E+02 0.  0.
         66    2    3    3    0    0  0.36350189133E+02  0.14389764384E+02  0.15560044746E+03  0.16044905989E+03  0.20000001418E+01 0.  0.
         13    1    3    3    0    0 -0.36350189133E+02 -0.14389764384E+02  0.86283897436E+02  0.94727628967E+02  0.10566000000E+00 0. -1.
         13    1    4    4    0    0  0.17203195410E+02  0.65321331912E+01  0.74114454312E+02  0.76364796853E+02  0.10566000000E+00 0. -1.
        -13    1    4    4    0    0  0.18739101591E+02  0.77414540848E+01  0.78889008767E+02  0.81452875382E+02  0.10566000000E+00 0.  1.
         14    1    4    4    0    0  0.40789213141E+00  0.11617710831E+00  0.25969843791E+01  0.26313876523E+01  0.00000000000E+00 0. -1.
<mgrwt>
<rscale>  0 0.81284108E+02</rscale>
<asrwt>0</asrwt>
<pdfrwt beam="1">  1        1 0.10224882E-02 0.81284108E+02</pdfrwt>
<pdfrwt beam="2">  1       -2 0.38235458E-01 0.81284108E+02</pdfrwt>
<totfact> 0.74214546E+04</totfact>
</mgrwt>
</event>
<event>
 8    1  0.7756875E-018  0.8790190E+02  0.7818608E-02  0.1308014E+00
          1   -1    0    0  501    0  0.00000000000E+00  0.00000000000E+00  0.34063568120E+03  0.34063568124E+03  0.50400000000E-02 0. -1.
         -2   -1    0    0    0  501 -0.00000000000E+00 -0.00000000000E+00 -0.56708264146E+01  0.56708269879E+01  0.25500000000E-02 0.  1.
        -24    2    1    2    0    0  0.17763568394E-14 -0.71054273576E-14  0.33496485479E+03  0.34630650823E+03  0.87901898146E+02 0.  0.
         66    2    3    3    0    0  0.10935579070E+02 -0.38635648849E+02  0.97382549464E+02  0.10535492965E+03  0.20000025212E+01 0.  0.
         13    1    3    3    0    0 -0.10935579070E+02  0.38635648849E+02  0.23758230532E+03  0.24095157858E+03  0.10566000000E+00 0. -1.
         13    1    4    4    0    0  0.13453664979E+01 -0.55592417506E+01  0.12761447118E+02  0.13985023291E+02  0.10566000000E+00 0. -1.
        -13    1    4    4    0    0  0.25848518141E+01 -0.70493053176E+01  0.18732248654E+02  0.20181240498E+02  0.10566000000E+00 0.  1.
         14    1    4    4    0    0  0.70053607578E+01 -0.26027101781E+02  0.65888853692E+02  0.71188665863E+02  0.00000000000E+00 0. -1.
<mgrwt>
<rscale>  0 0.87901898E+02</rscale>
<asrwt>0</asrwt>
<pdfrwt beam="1">  1        1 0.52405500E-01 0.87901898E+02</pdfrwt>
<pdfrwt beam="2">  1       -2 0.87243471E-03 0.87901898E+02</pdfrwt>
<totfact> 0.14399836E+05</totfact>
</mgrwt>
</event>
<event>
 8    1  0.7756875E-018  0.8116822E+02  0.7818608E-02  0.1325769E+00
         -2   -1    0    0    0  501 -0.00000000000E+00  0.00000000000E+00  0.21570320943E+03  0.21570320945E+03  0.25500000000E-02 0.  1.
          1   -1    0    0  501    0  0.00000000000E+00 -0.00000000000E+00 -0.76358149174E+01  0.76358165807E+01  0.50400000000E-02 0. -1.
        -24    2    1    2    0    0  0.00000000000E+00  0.00000000000E+00  0.20806739451E+03  0.22333902603E+03  0.81168219685E+02 0.  0.
         66    2    3    3    0    0  0.31548203242E+02  0.17351978877E+02  0.15547679477E+03  0.15960392860E+03  0.20000033134E+01 0.  0.
         13    1    3    3    0    0 -0.31548203242E+02 -0.17351978877E+02  0.52590599741E+02  0.63735097426E+02  0.10566000000E+00 0. -1.
         13    1    4    4    0    0  0.30979414317E+01  0.12198698270E+01  0.14955063431E+02  0.15321566818E+02  0.10566000000E+00 0. -1.
        -13    1    4    4    0    0  0.48642513310E+01  0.28166571344E+01  0.26105158335E+02  0.26703650577E+02  0.10566000000E+00 0.  1.
        -14    1    4    4    0    0  0.23586010479E+02  0.13315451916E+02  0.11441657301E+03  0.11757871120E+03  0.00000000000E+00 0.  1.
<mgrwt>
<rscale>  0 0.81168220E+02</rscale>
<asrwt>0</asrwt>
<pdfrwt beam="1">  1        1 0.11747409E-02 0.81168220E+02</pdfrwt>
<pdfrwt beam="2">  1       -2 0.33185108E-01 0.81168220E+02</pdfrwt>
<totfact> 0.79407957E+04</totfact>
</mgrwt>
</event>
<event>
 8    1  0.7756875E-018  0.8175918E+02  0.7818608E-02  0.1324132E+00
          1   -1    0    0  501    0  0.00000000000E+00  0.00000000000E+00  0.96365310212E+01  0.96365323392E+01  0.50400000000E-02 0. -1.
         -2   -1    0    0    0  501 -0.00000000000E+00 -0.00000000000E+00 -0.17341724011E+03  0.17341724012E+03  0.25500000000E-02 0.  1.
        -24    2    1    2    0    0  0.00000000000E+00  0.00000000000E+00 -0.16378070908E+03  0.18305377246E+03  0.81759176518E+02 0.  0.
         66    2    3    3    0    0  0.43574981781E+01 -0.34736251328E+02 -0.12909218091E+03  0.13376989987E+03  0.19999982240E+01 0.  0.
         13    1    3    3    0    0 -0.43574981781E+01  0.34736251328E+02 -0.34688528172E+02  0.49283872590E+02  0.10566000000E+00 0. -1.
         13    1    4    4    0    0  0.66349248055E+00 -0.91441232305E+01 -0.36550681180E+02  0.37683135096E+02  0.10566000000E+00 0. -1.
        -13    1    4    4    0    0  0.17535403696E+01 -0.13183627867E+02 -0.47891407536E+02  0.49703933722E+02  0.10566000000E+00 0.  1.
         14    1    4    4    0    0  0.19404653280E+01 -0.12408500230E+02 -0.44650092196E+02  0.46382831056E+02  0.00000000000E+00 0. -1.
<mgrwt>
<rscale>  0 0.81759177E+02</rscale>
<asrwt>0</asrwt>
<pdfrwt beam="1">  1        1 0.14825435E-02 0.81759177E+02</pdfrwt>
<pdfrwt beam="2">  1       -2 0.26679573E-01 0.81759177E+02</pdfrwt>
<totfact> 0.84977812E+04</totfact>
</mgrwt>
</event>
<event>
 8    1  0.7756875E-018  0.7905047E+02  0.7818608E-02  0.1331768E+00
          1   -1    0    0  501    0  0.00000000000E+00  0.00000000000E+00  0.68899394353E+02  0.68899394537E+02  0.50400000000E-02 0. -1.
         -2   -1    0    0    0  501 -0.00000000000E+00 -0.00000000000E+00 -0.22674279256E+02  0.22674279400E+02  0.25500000000E-02 0.  1.
        -24    2    1    2    0    0 -0.88817841970E-15  0.17763568394E-14  0.46225115097E+02  0.91573673937E+02  0.79050468010E+02 0.  0.
         66    2    3    3    0    0 -0.61514086658E+01  0.14169748547E+02 -0.18985972322E+02  0.24557864691E+02  0.19999926820E+01 0.  0.
         13    1    3    3    0    0  0.61514086658E+01 -0.14169748547E+02  0.65211087419E+02  0.67015809246E+02  0.10566000000E+00 0. -1.
         13    1    4    4    0    0 -0.43908673056E+01  0.86020313868E+01 -0.12020878811E+02  0.15420355090E+02  0.10566000000E+00 0. -1.
        -13    1    4    4    0    0 -0.14208058032E+01  0.30431754111E+01 -0.37397529347E+01  0.50275761318E+01  0.10566000000E+00 0.  1.
         14    1    4    4    0    0 -0.33973555707E+00  0.25245417486E+01 -0.32253405764E+01  0.41099334694E+01  0.00000000000E+00 0. -1.
<mgrwt>
<rscale>  0 0.79050468E+02</rscale>
<asrwt>0</asrwt>
<pdfrwt beam="1">  1        1 0.10599907E-01 0.79050468E+02</pdfrwt>
<pdfrwt beam="2">  1       -2 0.34883507E-02 0.79050468E+02</pdfrwt>
<totfact> 0.14295616E+05</totfact>
</mgrwt>
</event>
<event>
 8    1  0.7756875E-018  0.7611182E+02  0.7818608E-02  0.1340462E+00
         -2   -1    0    0    0  501 -0.00000000000E+00  0.00000000000E+00  0.11458033024E+02  0.11458033308E+02  0.25500000000E-02 0.  1.
          1   -1    0    0  501    0  0.00000000000E+00 -0.00000000000E+00 -0.12639625262E+03  0.12639625272E+03  0.50400000000E-02 0. -1.
        -24    2    1    2    0    0  0.00000000000E+00  0.00000000000E+00 -0.11493821960E+03  0.13785428603E+03  0.76111824657E+02 0.  0.
         66    2    3    3    0    0  0.18505125564E+02  0.23105112378E+02 -0.14268154967E+02  0.32922122386E+02  0.20000015277E+01 0.  0.
         13    1    3    3    0    0 -0.18505125564E+02 -0.23105112378E+02 -0.10067006463E+03  0.10493216364E+03  0.10566000000E+00 0. -1.
         13    1    4    4    0    0  0.64798944679E+01  0.74337964416E+01 -0.51645880333E+01  0.11132587096E+02  0.10566000000E+00 0. -1.
        -13    1    4    4    0    0  0.10745579500E+02  0.14595544953E+02 -0.83559397575E+01  0.19958213962E+02  0.10566000000E+00 0.  1.
         14    1    4    4    0    0  0.12796515960E+01  0.10757709833E+01 -0.74762717628E+00  0.18313213291E+01  0.00000000000E+00 0. -1.
<mgrwt>
<rscale>  0 0.76111825E+02</rscale>
<asrwt>0</asrwt>
<pdfrwt beam="1">  1        1 0.19445576E-01 0.76111825E+02</pdfrwt>
<pdfrwt beam="2">  1       -2 0.17627744E-02 0.76111825E+02</pdfrwt>
<totfact> 0.17488765E+05</totfact>
</mgrwt>
</event>
<event>
 8    1  0.7756875E-018  0.7918618E+02  0.7818608E-02  0.1331377E+00
          1   -1    0    0  501    0  0.00000000000E+00  0.00000000000E+00  0.64127034595E+02  0.64127034793E+02  0.50400000000E-02 0. -1.
         -2   -1    0    0    0  501 -0.00000000000E+00 -0.00000000000E+00 -0.24445427926E+02  0.24445428059E+02  0.25500000000E-02 0.  1.
        -24    2    1    2    0    0  0.00000000000E+00  0.00000000000E+00  0.39681606669E+02  0.88572462852E+02  0.79186181041E+02 0.  0.
         66    2    3    3    0    0 -0.17296010247E+02  0.34811199994E+02  0.11585627958E+02  0.40610323625E+02  0.19999985712E+01 0.  0.
         13    1    3    3    0    0  0.17296010247E+02 -0.34811199994E+02  0.28095978711E+02  0.47962139227E+02  0.10566000000E+00 0. -1.
         13    1    4    4    0    0 -0.25288799733E+01  0.47671377455E+01  0.18039322822E+01  0.56908849855E+01  0.10566000000E+00 0. -1.
        -13    1    4    4    0    0 -0.12580134396E+02  0.26724901132E+02  0.88748739781E+01  0.30842416800E+02  0.10566000000E+00 0.  1.
        -14    1    4    4    0    0 -0.21869958776E+01  0.33191611169E+01  0.90682169749E+00  0.40770218395E+01  0.00000000000E+00 0.  1.
<mgrwt>
<rscale>  0 0.79186181E+02</rscale>
<asrwt>0</asrwt>
<pdfrwt beam="1">  1        1 0.98656976E-02 0.79186181E+02</pdfrwt>
<pdfrwt beam="2">  1       -2 0.37608351E-02 0.79186181E+02</pdfrwt>
<totfact> 0.14069942E+05</totfact>
</mgrwt>
</event>
<event>
 8    1  0.7756875E-018  0.8000276E+02  0.7818608E-02  0.1329044E+00
         -2   -1    0    0    0  501 -0.00000000000E+00  0.00000000000E+00  0.17173039589E+03  0.17173039591E+03  0.25500000000E-02 0.  1.
          1   -1    0    0  501    0  0.00000000000E+00 -0.00000000000E+00 -0.93175721621E+01  0.93175735252E+01  0.50400000000E-02 0. -1.
        -24    2    1    2    0    0  0.00000000000E+00  0.00000000000E+00  0.16241282373E+03  0.18104796944E+03  0.80002761984E+02 0.  0.
         66    2    3    3    0    0 -0.25019905903E+02  0.25218193789E+02  0.12274830469E+03  0.12780101437E+03  0.19999949846E+01 0.  0.
         13    1    3    3    0    0  0.25019905903E+02 -0.25218193789E+02  0.39664519044E+02  0.53246955072E+02  0.10566000000E+00 0. -1.
         13    1    4    4    0    0 -0.12162974124E+02  0.13379050980E+02  0.60385366648E+02  0.63034439903E+02  0.10566000000E+00 0. -1.
        -13    1    4    4    0    0 -0.99310219550E+01  0.92198205390E+01  0.48771320613E+02  0.50619000052E+02  0.10566000000E+00 0.  1.
         14    1    4    4    0    0 -0.29259098244E+01  0.26193222697E+01  0.13591617427E+02  0.14147574411E+02  0.00000000000E+00 0. -1.
<mgrwt>
<rscale>  0 0.80002762E+02</rscale>
<asrwt>0</asrwt>
<pdfrwt beam="1">  1        1 0.14334728E-02 0.80002762E+02</pdfrwt>
<pdfrwt beam="2">  1       -2 0.26420060E-01 0.80002762E+02</pdfrwt>
<totfact> 0.90192240E+04</totfact>
</mgrwt>
</event>
<event>
 8    1  0.7756875E-018  0.7941439E+02  0.7818608E-02  0.1330722E+00
         -2   -1    0    0    0  501 -0.00000000000E+00  0.00000000000E+00  0.12263205508E+02  0.12263205773E+02  0.25500000000E-02 0.  1.
          1   -1    0    0  501    0  0.00000000000E+00 -0.00000000000E+00 -0.12856846065E+03  0.12856846075E+03  0.50400000000E-02 0. -1.
        -24    2    1    2    0    0  0.00000000000E+00  0.00000000000E+00 -0.11630525514E+03  0.14083166652E+03  0.79414393669E+02 0.  0.
         66    2    3    3    0    0  0.30567115471E+02 -0.22786432221E+02 -0.38675289822E+02  0.54344715361E+02  0.20000008106E+01 0.  0.
         13    1    3    3    0    0 -0.30567115471E+02  0.22786432221E+02 -0.77629965320E+02  0.86486951162E+02  0.10566000000E+00 0. -1.
         13    1    4    4    0    0  0.71631200696E+00 -0.87909355824E+00 -0.13725179546E+01  0.17835015971E+01  0.10566000000E+00 0. -1.
        -13    1    4    4    0    0  0.93326321281E+01 -0.70682412300E+01 -0.11758786672E+02  0.16593320480E+02  0.10566000000E+00 0.  1.
         14    1    4    4    0    0  0.20518171336E+02 -0.14839097433E+02 -0.25543985195E+02  0.35967893284E+02  0.00000000000E+00 0. -1.
<mgrwt>
<rscale>  0 0.79414394E+02</rscale>
<asrwt>0</asrwt>
<pdfrwt beam="1">  1        1 0.19779762E-01 0.79414394E+02</pdfrwt>
<pdfrwt beam="2">  1       -2 0.18866471E-02 0.79414394E+02</pdfrwt>
<totfact> 0.15658111E+05</totfact>
</mgrwt>
</event>
<event>
 8    1  0.7756875E-018  0.7893657E+02  0.7818608E-02  0.1332097E+00
          1   -1    0    0  501    0  0.00000000000E+00  0.00000000000E+00  0.92581174731E+02  0.92581174868E+02  0.50400000000E-02 0. -1.
         -2   -1    0    0    0  501 -0.00000000000E+00 -0.00000000000E+00 -0.16825725580E+02  0.16825725773E+02  0.25500000000E-02 0.  1.
        -24    2    1    2    0    0  0.44408920985E-15  0.00000000000E+00  0.75755449151E+02  0.10940690064E+03  0.78936568406E+02 0.  0.
         66    2    3    3    0    0  0.31049066726E+01 -0.33086729500E+02  0.84555834584E+01  0.34349221482E+02  0.20000025924E+01 0.  0.
         13    1    3    3    0    0 -0.31049066726E+01  0.33086729500E+02  0.67299865693E+02  0.75057679159E+02  0.10566000000E+00 0. -1.
         13    1    4    4    0    0  0.48383897683E+00 -0.25283091783E+01  0.27831762232E+00  0.25913456333E+01  0.10566000000E+00 0. -1.
        -13    1    4    4    0    0  0.20218262105E+01 -0.27013132008E+02  0.70860920928E+01  0.28000374056E+02  0.10566000000E+00 0.  1.
        -14    1    4    4    0    0  0.59924148524E+00 -0.35452883130E+01  0.10911737433E+01  0.37575017922E+01  0.00000000000E+00 0.  1.
<mgrwt>
<rscale>  0 0.78936568E+02</rscale>
<asrwt>0</asrwt>
<pdfrwt beam="1">  1        1 0.14243258E-01 0.78936568E+02</pdfrwt>
<pdfrwt beam="2">  1       -2 0.25885732E-02 0.78936568E+02</pdfrwt>
<totfact> 0.15046600E+05</totfact>
</mgrwt>
</event>
<event>
 8    1  0.7756875E-018  0.8082006E+02  0.7818608E-02  0.1326740E+00
         -2   -1    0    0    0  501 -0.00000000000E+00  0.00000000000E+00  0.22858209294E+02  0.22858209436E+02  0.25500000000E-02 0.  1.
          1   -1    0    0  501    0  0.00000000000E+00 -0.00000000000E+00 -0.71439128589E+02  0.71439128766E+02  0.50400000000E-02 0. -1.
        -24    2    1    2    0    0  0.71054273576E-14 -0.17763568394E-14 -0.48580919295E+02  0.94297338202E+02  0.80820061077E+02 0.  0.
         66    2    3    3    0    0  0.26597977673E+02 -0.15163764213E+02  0.64221543744E+01  0.31347028922E+02  0.19999985070E+01 0.  0.
         13    1    3    3    0    0 -0.26597977673E+02  0.15163764213E+02 -0.55003073670E+02  0.62950309281E+02  0.10566000000E+00 0. -1.
         13    1    4    4    0    0  0.40030651671E+01 -0.21178290643E+01  0.11323616230E+01  0.46693829955E+01  0.10566000000E+00 0. -1.
        -13    1    4    4    0    0  0.18257457652E+02 -0.10104861304E+02  0.48133755998E+01  0.21415478762E+02  0.10566000000E+00 0.  1.
         14    1    4    4    0    0  0.43374548533E+01 -0.29410738446E+01  0.47641715168E+00  0.52621671644E+01  0.00000000000E+00 0. -1.
<mgrwt>
<rscale>  0 0.80820061E+02</rscale>
<asrwt>0</asrwt>
<pdfrwt beam="1">  1        1 0.10990635E-01 0.80820061E+02</pdfrwt>
<pdfrwt beam="2">  1       -2 0.35166476E-02 0.80820061E+02</pdfrwt>
<totfact> 0.13532246E+05</totfact>
</mgrwt>
</event>
<event>
 8    1  0.7756875E-018  0.7640709E+02  0.7818608E-02  0.1339568E+00
         -2   -1    0    0    0  501 -0.00000000000E+00  0.00000000000E+00  0.52415814836E+01  0.52415821039E+01  0.25500000000E-02 0.  1.
          1   -1    0    0  501    0  0.00000000000E+00 -0.00000000000E+00 -0.27844855906E+03  0.27844855910E+03  0.50400000000E-02 0. -1.
        -24    2    1    2    0    0  0.17763568394E-14  0.00000000000E+00 -0.27320697757E+03  0.28369014121E+03  0.76407091445E+02 0.  0.
         66    2    3    3    0    0 -0.14230086446E+02  0.33719841583E+02 -0.96367567518E+02  0.10310301213E+03  0.19999909003E+01 0.  0.
         13    1    3    3    0    0  0.14230086446E+02 -0.33719841583E+02 -0.17683941005E+03  0.18058712908E+03  0.10566000000E+00 0. -1.
         13    1    4    4    0    0 -0.11846732560E-01  0.11949368071E+00 -0.33578285482E+00  0.37193177599E+00  0.10566000000E+00 0.  1.
        -13    1    4    4    0    0 -0.11111926585E+01  0.30041366074E+01 -0.85752717764E+01  0.91545636682E+01  0.10566000000E+00 0. -1.
        -14    1    4    4    0    0 -0.13107047055E+02  0.30596211295E+02 -0.87456512887E+02  0.93576516683E+02  0.00000000000E+00 0.  1.
<mgrwt>
<rscale>  0 0.76407091E+02</rscale>
<asrwt>0</asrwt>
<pdfrwt beam="1">  1        1 0.42838228E-01 0.76407091E+02</pdfrwt>
<pdfrwt beam="2">  1       -2 0.80639742E-03 0.76407091E+02</pdfrwt>
<totfact> 0.20072249E+05</totfact>
</mgrwt>
</event>
<event>
 8    1  0.7756875E-018  0.7816369E+02  0.7818608E-02  0.1334345E+00
          1   -1    0    0  501    0  0.00000000000E+00  0.00000000000E+00  0.24939491991E+02  0.24939492500E+02  0.50400000000E-02 0. -1.
         -2   -1    0    0    0  501 -0.00000000000E+00 -0.00000000000E+00 -0.61243850030E+02  0.61243850084E+02  0.25500000000E-02 0.  1.
        -24    2    1    2    0    0 -0.35527136788E-14  0.17763568394E-14 -0.36304358040E+02  0.86183342583E+02  0.78163688028E+02 0.  0.
         66    2    3    3    0    0  0.14750017921E+02 -0.15698962513E+02 -0.54085219235E+02  0.58251449673E+02  0.19999991649E+01 0.  0.
         13    1    3    3    0    0 -0.14750017921E+02  0.15698962513E+02  0.17780861195E+02  0.27931892910E+02  0.10566000000E+00 0. -1.
         13    1    4    4    0    0  0.38868605292E+01 -0.40195746687E+01 -0.12011974958E+02  0.13250032895E+02  0.10566000000E+00 0. -1.
        -13    1    4    4    0    0  0.45927116060E+01 -0.46982549468E+01 -0.16438958486E+02  0.17703590585E+02  0.10566000000E+00 0.  1.
         14    1    4    4    0    0  0.62704457860E+01 -0.69811328977E+01 -0.25634285790E+02  0.27297826193E+02  0.00000000000E+00 0. -1.
<mgrwt>
<rscale>  0 0.78163688E+02</rscale>
<asrwt>0</asrwt>
<pdfrwt beam="1">  1        1 0.38368450E-02 0.78163688E+02</pdfrwt>
<pdfrwt beam="2">  1       -2 0.94221307E-02 0.78163688E+02</pdfrwt>
<totfact> 0.12507212E+05</totfact>
</mgrwt>
</event>
<event>
 8    1  0.7756875E-018  0.7921273E+02  0.7818608E-02  0.1331301E+00
         -2   -1    0    0    0  501 -0.00000000000E+00  0.00000000000E+00  0.99001839368E+02  0.99001839401E+02  0.25500000000E-02 0.  1.
          1   -1    0    0  501    0  0.00000000000E+00 -0.00000000000E+00 -0.15844797773E+02  0.15844798575E+02  0.50400000000E-02 0. -1.
        -24    2    1    2    0    0  0.00000000000E+00  0.00000000000E+00  0.83157041595E+02  0.11484663798E+03  0.79212730589E+02 0.  0.
         66    2    3    3    0    0  0.25618596564E+02 -0.25102971068E+02  0.17336183900E+02  0.39887528335E+02  0.19999995249E+01 0.  0.
         13    1    3    3    0    0 -0.25618596564E+02  0.25102971068E+02  0.65820857696E+02  0.74959109641E+02  0.10566000000E+00 0. -1.
         13    1    4    4    0    0  0.11567227975E+02 -0.10730925737E+02  0.70668283955E+01  0.17288862247E+02  0.10566000000E+00 0. -1.
        -13    1    4    4    0    0  0.78387547181E+01 -0.72970977303E+01  0.52122717037E+01  0.11911030651E+02  0.10566000000E+00 0.  1.
         14    1    4    4    0    0  0.62126138710E+01 -0.70749476002E+01  0.50570838004E+01  0.10687635436E+02  0.00000000000E+00 0. -1.
<mgrwt>
<rscale>  0 0.79212731E+02</rscale>
<asrwt>0</asrwt>
<pdfrwt beam="1">  1        1 0.24376613E-02 0.79212731E+02</pdfrwt>
<pdfrwt beam="2">  1       -2 0.15231052E-01 0.79212731E+02</pdfrwt>
<totfact> 0.10911802E+05</totfact>
</mgrwt>
</event>
<event>
 8    1  0.7756875E-018  0.7957386E+02  0.7818608E-02  0.1330265E+00
         -2   -1    0    0    0  501 -0.00000000000E+00  0.00000000000E+00  0.54266853947E+03  0.54266853948E+03  0.25500000000E-02 0.  1.
          1   -1    0    0  501    0  0.00000000000E+00 -0.00000000000E+00 -0.29170634638E+01  0.29170678178E+01  0.50400000000E-02 0. -1.
        -24    2    1    2    0    0 -0.17763568394E-14  0.00000000000E+00  0.53975147601E+03  0.54558560729E+03  0.79573858994E+02 0.  0.
         66    2    3    3    0    0 -0.13830259133E+02  0.35614747524E+02  0.34556159147E+03  0.34767297826E+03  0.20000018813E+01 0.  0.
         13    1    3    3    0    0  0.13830259133E+02 -0.35614747524E+02  0.19418988454E+03  0.19791262903E+03  0.10566000000E+00 0. -1.
         13    1    4    4    0    0 -0.29816116504E+01  0.97686154993E+01  0.96244792040E+02  0.96785262389E+02  0.10566000000E+00 0. -1.
        -13    1    4    4    0    0 -0.91699560034E+01  0.22048273441E+02  0.21222645878E+03  0.21356567005E+03  0.10566000000E+00 0.  1.
         14    1    4    4    0    0 -0.16786914793E+01  0.37978585835E+01  0.37090340648E+02  0.37322045821E+02  0.00000000000E+00 0. -1.
<mgrwt>
<rscale>  0 0.79573859E+02</rscale>
<asrwt>0</asrwt>
<pdfrwt beam="1">  1        1 0.44877990E-03 0.79573859E+02</pdfrwt>
<pdfrwt beam="2">  1       -2 0.83487362E-01 0.79573859E+02</pdfrwt>
<totfact> 0.47900123E+04</totfact>
</mgrwt>
</event>
<event>
 8    1  0.7756875E-018  0.8044811E+02  0.7818608E-02  0.1327785E+00
         -2   -1    0    0    0  501 -0.00000000000E+00  0.00000000000E+00  0.14366250643E+03  0.14366250645E+03  0.25500000000E-02 0.  1.
          1   -1    0    0  501    0  0.00000000000E+00 -0.00000000000E+00 -0.11262328738E+02  0.11262329865E+02  0.50400000000E-02 0. -1.
        -24    2    1    2    0    0  0.00000000000E+00  0.17763568394E-14  0.13240017769E+03  0.15492483631E+03  0.80448106597E+02 0.  0.
         66    2    3    3    0    0 -0.12909512811E+02 -0.14929476309E+02  0.13368214847E+03  0.13514607505E+03  0.19999999683E+01 0.  0.
         13    1    3    3    0    0  0.12909512811E+02  0.14929476309E+02 -0.12819707783E+01  0.19778761260E+02  0.10566000000E+00 0. -1.
         13    1    4    4    0    0 -0.18303335154E+01 -0.14598529632E+01  0.14535990474E+02  0.14723704512E+02  0.10566000000E+00 0. -1.
        -13    1    4    4    0    0 -0.62584560224E+01 -0.74096396076E+01  0.70379172153E+02  0.71044423201E+02  0.10566000000E+00 0.  1.
        -14    1    4    4    0    0 -0.48207232735E+01 -0.60599837379E+01  0.48766985839E+02  0.49377947341E+02  0.00000000000E+00 0.  1.
<mgrwt>
<rscale>  0 0.80448107E+02</rscale>
<asrwt>0</asrwt>
<pdfrwt beam="1">  1        1 0.17326660E-02 0.80448107E+02</pdfrwt>
<pdfrwt beam="2">  1       -2 0.22101925E-01 0.80448107E+02</pdfrwt>
<totfact> 0.94472435E+04</totfact>
</mgrwt>
</event>
<event>
 8    1  0.7756875E-018  0.8044081E+02  0.7818608E-02  0.1327805E+00
         -2   -1    0    0    0  501 -0.00000000000E+00  0.00000000000E+00  0.13590986255E+02  0.13590986494E+02  0.25500000000E-02 0.  1.
          1   -1    0    0  501    0  0.00000000000E+00 -0.00000000000E+00 -0.11902601159E+03  0.11902601170E+03  0.50400000000E-02 0. -1.
        -24    2    1    2    0    0  0.00000000000E+00 -0.35527136788E-14 -0.10543502534E+03  0.13261699820E+03  0.80440808312E+02 0.  0.
         66    2    3    3    0    0 -0.21257807616E+02  0.22462351656E+02 -0.10420876686E+02  0.32696273442E+02  0.19999998895E+01 0.  0.
         13    1    3    3    0    0  0.21257807616E+02 -0.22462351656E+02 -0.95014148655E+02  0.99920724753E+02  0.10566000000E+00 0. -1.
         13    1    4    4    0    0 -0.70567150729E+01  0.80491636296E+01 -0.31431285405E+01  0.11156911930E+02  0.10566000000E+00 0. -1.
        -13    1    4    4    0    0 -0.11499608082E+02  0.12318248700E+02 -0.59376043410E+01  0.17867471741E+02  0.10566000000E+00 0.  1.
         14    1    4    4    0    0 -0.27014844615E+01  0.20949393259E+01 -0.13401438041E+01  0.36718897711E+01  0.00000000000E+00 0. -1.
<mgrwt>
<rscale>  0 0.80440808E+02</rscale>
<asrwt>0</asrwt>
<pdfrwt beam="1">  1        1 0.18311694E-01 0.80440808E+02</pdfrwt>
<pdfrwt beam="2">  1       -2 0.20909211E-02 0.80440808E+02</pdfrwt>
<totfact> 0.14922605E+05</totfact>
</mgrwt>
</event>
<event>
 8    1  0.7756875E-018  0.8307996E+02  0.7818608E-02  0.1320531E+00
         -2   -1    0    0    0  501 -0.00000000000E+00  0.00000000000E+00  0.29245582265E+03  0.29245582266E+03  0.25500000000E-02 0.  1.
          1   -1    0    0  501    0  0.00000000000E+00 -0.00000000000E+00 -0.59002737881E+01  0.59002759407E+01  0.50400000000E-02 0. -1.
        -24    2    1    2    0    0  0.00000000000E+00  0.00000000000E+00  0.28655554886E+03  0.29835609860E+03  0.83079955401E+02 0.  0.
         66    2    3    3    0    0  0.12380972833E+01  0.41305382503E+02  0.15767913638E+03  0.16301649476E+03  0.20000017788E+01 0.  0.
         13    1    3    3    0    0 -0.12380972833E+01 -0.41305382503E+02  0.12887641249E+03  0.13533960384E+03  0.10566000000E+00 0. -1.
         13    1    4    4    0    0  0.71959354747E+00  0.71948473907E+01  0.28971021345E+02  0.29859921059E+02  0.10566000000E+00 0. -1.
        -13    1    4    4    0    0  0.41521312499E+00  0.31729337086E+02  0.12067132288E+03  0.12477380559E+03  0.10566000000E+00 0.  1.
        -14    1    4    4    0    0  0.10329061083E+00  0.23811980262E+01  0.80367921545E+01  0.83827681063E+01  0.00000000000E+00 0.  1.
<mgrwt>
<rscale>  0 0.83079955E+02</rscale>
<asrwt>0</asrwt>
<pdfrwt beam="1">  1        1 0.90773466E-03 0.83079955E+02</pdfrwt>
<pdfrwt beam="2">  1       -2 0.44993201E-01 0.83079955E+02</pdfrwt>
<totfact> 0.64608277E+04</totfact>
</mgrwt>
</event>
<event>
 8    1  0.7756875E-018  0.7976869E+02  0.7818608E-02  0.1329709E+00
          1   -1    0    0  501    0  0.00000000000E+00  0.00000000000E+00  0.10642884853E+03  0.10642884865E+03  0.50400000000E-02 0. -1.
         -2   -1    0    0    0  501 -0.00000000000E+00 -0.00000000000E+00 -0.14946706560E+02  0.14946706778E+02  0.25500000000E-02 0.  1.
        -24    2    1    2    0    0  0.35527136788E-14  0.88817841970E-15  0.91482141967E+02  0.12137555542E+03  0.79768685308E+02 0.  0.
         66    2    3    3    0    0 -0.23311543516E+02 -0.61327901544E+01 -0.25325775403E+01  0.24319809462E+02  0.20000017696E+01 0.  0.
         13    1    3    3    0    0  0.23311543516E+02  0.61327901544E+01  0.94014719508E+02  0.97055745963E+02  0.10566000000E+00 0. -1.
         13    1    4    4    0    0 -0.40946975982E+01 -0.13453222630E+01 -0.69462168027E+00  0.43669329885E+01  0.10566000000E+00 0. -1.
        -13    1    4    4    0    0 -0.99615485347E+01 -0.21846975762E+01 -0.16866668934E+01  0.10337376938E+02  0.10566000000E+00 0.  1.
        -14    1    4    4    0    0 -0.92552973836E+01 -0.26027703152E+01 -0.15128896659E+00  0.96154995359E+01  0.00000000000E+00 0.  1.
<mgrwt>
<rscale>  0 0.79768685E+02</rscale>
<asrwt>0</asrwt>
<pdfrwt beam="1">  1        1 0.16373669E-01 0.79768685E+02</pdfrwt>
<pdfrwt beam="2">  1       -2 0.22994933E-02 0.79768685E+02</pdfrwt>
<totfact> 0.14971490E+05</totfact>
</mgrwt>
</event>
<event>
 8    1  0.7756875E-018  0.7953940E+02  0.7818608E-02  0.1330364E+00
          1   -1    0    0  501    0  0.00000000000E+00  0.00000000000E+00  0.18807227783E+02  0.18807228459E+02  0.50400000000E-02 0. -1.
         -2   -1    0    0    0  501 -0.00000000000E+00 -0.00000000000E+00 -0.84096866981E+02  0.84096867020E+02  0.25500000000E-02 0.  1.
        -24    2    1    2    0    0  0.00000000000E+00  0.00000000000E+00 -0.65289639197E+02  0.10290409548E+03  0.79539398286E+02 0.  0.
         66    2    3    3    0    0  0.17174542834E+02 -0.10493662715E+01 -0.79016293839E+02  0.80892773328E+02  0.19999984076E+01 0.  0.
         13    1    3    3    0    0 -0.17174542834E+02  0.10493662715E+01  0.13726654641E+02  0.22011322150E+02  0.10566000000E+00 0. -1.
         13    1    4    4    0    0  0.48085558207E+01 -0.21439390566E+00 -0.20617682580E+02  0.21172344528E+02  0.10566000000E+00 0. -1.
        -13    1    4    4    0    0  0.62829653934E+01  0.34205623235E+00 -0.30372079703E+02  0.31017205647E+02  0.10566000000E+00 0.  1.
         14    1    4    4    0    0  0.60830216198E+01 -0.11770285982E+01 -0.28026531556E+02  0.28703223153E+02  0.00000000000E+00 0. -1.
<mgrwt>
<rscale>  0 0.79539398E+02</rscale>
<asrwt>0</asrwt>
<pdfrwt beam="1">  1        1 0.28934198E-02 0.79539398E+02</pdfrwt>
<pdfrwt beam="2">  1       -2 0.12937979E-01 0.79539398E+02</pdfrwt>
<totfact> 0.11218348E+05</totfact>
</mgrwt>
</event>
<event>
 8    1  0.7756875E-018  0.7995743E+02  0.7818608E-02  0.1329172E+00
          1   -1    0    0  501    0  0.00000000000E+00  0.00000000000E+00  0.32987038718E+02  0.32987039103E+02  0.50400000000E-02 0. -1.
         -2   -1    0    0    0  501 -0.00000000000E+00 -0.00000000000E+00 -0.48452293384E+02  0.48452293451E+02  0.25500000000E-02 0.  1.
        -24    2    1    2    0    0  0.35527136788E-14  0.00000000000E+00 -0.15465254665E+02  0.81439332554E+02  0.79957431081E+02 0.  0.
         66    2    3    3    0    0  0.21787640832E+02 -0.33080370558E+02 -0.24175725780E+01  0.39734831824E+02  0.19999984184E+01 0.  0.
         13    1    3    3    0    0 -0.21787640832E+02  0.33080370558E+02 -0.13047682087E+02  0.41704500730E+02  0.10566000000E+00 0. -1.
         13    1    4    4    0    0  0.18382674047E+02 -0.28825798586E+02 -0.18717129918E+01  0.34239799106E+02  0.10566000000E+00 0.  1.
        -13    1    4    4    0    0  0.22369337008E+01 -0.24610882144E+01 -0.31654499683E+00  0.33424829621E+01  0.10566000000E+00 0. -1.
        -14    1    4    4    0    0  0.11680330838E+01 -0.17934837570E+01 -0.22931458936E+00  0.21525497561E+01  0.00000000000E+00 0.  1.
<mgrwt>
<rscale>  0 0.79957431E+02</rscale>
<asrwt>0</asrwt>
<pdfrwt beam="1">  1        1 0.50749290E-02 0.79957431E+02</pdfrwt>
<pdfrwt beam="2">  1       -2 0.74541991E-02 0.79957431E+02</pdfrwt>
<totfact> 0.12315000E+05</totfact>
</mgrwt>
</event>
<event>
 8    1  0.7756875E-018  0.7915614E+02  0.7818608E-02  0.1331463E+00
         -2   -1    0    0    0  501 -0.00000000000E+00  0.00000000000E+00  0.27206819203E+03  0.27206819204E+03  0.25500000000E-02 0.  1.
          1   -1    0    0  501    0  0.00000000000E+00 -0.00000000000E+00 -0.57574661384E+01  0.57574683443E+01  0.50400000000E-02 0. -1.
        -24    2    1    2    0    0 -0.35527136788E-14  0.00000000000E+00  0.26631072589E+03  0.27782566038E+03  0.79156142175E+02 0.  0.
         66    2    3    3    0    0 -0.17781011940E+02  0.29216976698E+02  0.20296356112E+03  0.20583489319E+03  0.19999996804E+01 0.  0.
         13    1    3    3    0    0  0.17781011940E+02 -0.29216976698E+02  0.63347164771E+02  0.71990767196E+02  0.10566000000E+00 0. -1.
         13    1    4    4    0    0 -0.15216940705E+01  0.18733618815E+01  0.12873675505E+02  0.13098386260E+02  0.10566000000E+00 0. -1.
        -13    1    4    4    0    0 -0.70121607368E+01  0.11406368322E+02  0.82961749866E+02  0.84035342216E+02  0.10566000000E+00 0.  1.
         14    1    4    4    0    0 -0.92471571322E+01  0.15937246495E+02  0.10712813575E+03  0.10870116471E+03  0.00000000000E+00 0. -1.
<mgrwt>
<rscale>  0 0.79156142E+02</rscale>
<asrwt>0</asrwt>
<pdfrwt beam="1">  1        1 0.88576419E-03 0.79156142E+02</pdfrwt>
<pdfrwt beam="2">  1       -2 0.41856645E-01 0.79156142E+02</pdfrwt>
<totfact> 0.76025258E+04</totfact>
</mgrwt>
</event>
<event>
 8    1  0.7756875E-018  0.7873768E+02  0.7818608E-02  0.1332672E+00
          1   -1    0    0  501    0  0.00000000000E+00  0.00000000000E+00  0.38383967190E+02  0.38383967521E+02  0.50400000000E-02 0. -1.
         -2   -1    0    0    0  501 -0.00000000000E+00 -0.00000000000E+00 -0.40378978952E+02  0.40378979033E+02  0.25500000000E-02 0.  1.
        -24    2    1    2    0    0 -0.88817841970E-15 -0.35527136788E-14 -0.19950117618E+01  0.78762946554E+02  0.78737676356E+02 0.  0.
         66    2    3    3    0    0  0.76379313966E+01  0.17169449563E+02 -0.35574722310E+02  0.40282612371E+02  0.19999994160E+01 0.  0.
         13    1    3    3    0    0 -0.76379313966E+01 -0.17169449563E+02  0.33579710548E+02  0.38480334183E+02  0.10566000000E+00 0. -1.
         13    1    4    4    0    0  0.10234167192E+01  0.37579223494E+01 -0.64663486676E+01  0.75494497344E+01  0.10566000000E+00 0. -1.
        -13    1    4    4    0    0  0.29217448041E+01  0.60901360146E+01 -0.12386018123E+02  0.14108542035E+02  0.10566000000E+00 0.  1.
        -14    1    4    4    0    0  0.36927698733E+01  0.73213911990E+01 -0.16722355519E+02  0.18624620601E+02  0.00000000000E+00 0.  1.
<mgrwt>
<rscale>  0 0.78737676E+02</rscale>
<asrwt>0</asrwt>
<pdfrwt beam="1">  1        1 0.59052258E-02 0.78737676E+02</pdfrwt>
<pdfrwt beam="2">  1       -2 0.62121506E-02 0.78737676E+02</pdfrwt>
<totfact> 0.13191052E+05</totfact>
</mgrwt>
</event>
<event>
 8    1  0.7756875E-018  0.7683163E+02  0.7818608E-02  0.1338291E+00
          1   -1    0    0  501    0  0.00000000000E+00  0.00000000000E+00  0.44129680303E+02  0.44129680591E+02  0.50400000000E-02 0. -1.
         -2   -1    0    0    0  501 -0.00000000000E+00 -0.00000000000E+00 -0.33441771954E+02  0.33441772052E+02  0.25500000000E-02 0.  1.
        -24    2    1    2    0    0  0.00000000000E+00  0.00000000000E+00  0.10687908349E+02  0.77571452643E+02  0.76831626823E+02 0.  0.
         66    2    3    3    0    0  0.20675197351E+02 -0.20446503251E+02 -0.19958635330E+02  0.35325209210E+02  0.20000001945E+01 0.  0.
         13    1    3    3    0    0 -0.20675197351E+02  0.20446503251E+02  0.30646543679E+02  0.42246243433E+02  0.10566000000E+00 0. -1.
         13    1    4    4    0    0  0.12125900127E+02 -0.12611978299E+02 -0.12237064539E+02  0.21350793032E+02  0.10566000000E+00 0. -1.
        -13    1    4    4    0    0  0.53116062210E+01 -0.55350803296E+01 -0.49111293220E+01  0.91093704588E+01  0.10566000000E+00 0.  1.
        -14    1    4    4    0    0  0.32376910022E+01 -0.22994446221E+01 -0.28104414693E+01  0.48650457191E+01  0.00000000000E+00 0.  1.
<mgrwt>
<rscale>  0 0.76831627E+02</rscale>
<asrwt>0</asrwt>
<pdfrwt beam="1">  1        1 0.67891816E-02 0.76831627E+02</pdfrwt>
<pdfrwt beam="2">  1       -2 0.51448881E-02 0.76831627E+02</pdfrwt>
<totfact> 0.14439574E+05</totfact>
</mgrwt>
</event>
<event>
 8    1  0.7756875E-018  0.7898862E+02  0.7818608E-02  0.1331946E+00
         -2   -1    0    0    0  501 -0.00000000000E+00  0.00000000000E+00  0.87504349133E+02  0.87504349171E+02  0.25500000000E-02 0.  1.
          1   -1    0    0  501    0  0.00000000000E+00 -0.00000000000E+00 -0.17825407477E+02  0.17825408189E+02  0.50400000000E-02 0. -1.
        -24    2    1    2    0    0  0.35527136788E-14 -0.35527136788E-14  0.69678941657E+02  0.10532975736E+03  0.78988624972E+02 0.  0.
         66    2    3    3    0    0  0.24495952288E+02 -0.30946134475E+02  0.35240916168E+02  0.52949382399E+02  0.20000016550E+01 0.  0.
         13    1    3    3    0    0 -0.24495952288E+02  0.30946134475E+02  0.34438025489E+02  0.52380374961E+02  0.10566000000E+00 0. -1.
         13    1    4    4    0    0  0.95685534979E+01 -0.12744057905E+02  0.13301632849E+02  0.20758439933E+02  0.10566000000E+00 0. -1.
        -13    1    4    4    0    0  0.72856055294E+01 -0.87299513728E+01  0.11177359371E+02  0.15944799323E+02  0.10566000000E+00 0.  1.
        -14    1    4    4    0    0  0.76417932608E+01 -0.94721251967E+01  0.10761923947E+02  0.16246143143E+02  0.00000000000E+00 0.  1.
<mgrwt>
<rscale>  0 0.78988625E+02</rscale>
<asrwt>0</asrwt>
<pdfrwt beam="1">  1        1 0.27423704E-02 0.78988625E+02</pdfrwt>
<pdfrwt beam="2">  1       -2 0.13462208E-01 0.78988625E+02</pdfrwt>
<totfact> 0.11317242E+05</totfact>
</mgrwt>
</event>
<event>
 8    1  0.7756875E-018  0.7943862E+02  0.7818608E-02  0.1330652E+00
         -2   -1    0    0    0  501 -0.00000000000E+00  0.00000000000E+00  0.87645397068E+02  0.87645397105E+02  0.25500000000E-02 0.  1.
          1   -1    0    0  501    0  0.00000000000E+00 -0.00000000000E+00 -0.18000072331E+02  0.18000073037E+02  0.50400000000E-02 0. -1.
        -24    2    1    2    0    0  0.35527136788E-14 -0.35527136788E-14  0.69645324737E+02  0.10564547014E+03  0.79438618466E+02 0.  0.
         66    2    3    3    0    0  0.25305487560E+02 -0.30341328197E+02  0.29753623865E+02  0.49499919473E+02  0.19999993309E+01 0.  0.
         13    1    3    3    0    0 -0.25305487560E+02  0.30341328197E+02  0.39891700872E+02  0.56145550669E+02  0.10566000000E+00 0. -1.
         13    1    4    4    0    0  0.71686913272E+01 -0.80839899109E+01  0.74154788449E+01  0.13105018839E+02  0.10566000000E+00 0. -1.
        -13    1    4    4    0    0  0.11223607605E+02 -0.14408354867E+02  0.13749308459E+02  0.22860986523E+02  0.10566000000E+00 0.  1.
        -14    1    4    4    0    0  0.69131886270E+01 -0.78489834195E+01  0.85888365609E+01  0.13533914112E+02  0.00000000000E+00 0.  1.
<mgrwt>
<rscale>  0 0.79438618E+02</rscale>
<asrwt>0</asrwt>
<pdfrwt beam="1">  1        1 0.27692419E-02 0.79438618E+02</pdfrwt>
<pdfrwt beam="2">  1       -2 0.13483907E-01 0.79438618E+02</pdfrwt>
<totfact> 0.11150247E+05</totfact>
</mgrwt>
</event>
<event>
 8    1  0.7756875E-018  0.8021767E+02  0.7818608E-02  0.1328435E+00
          1   -1    0    0  501    0  0.00000000000E+00  0.00000000000E+00  0.47760025623E+02  0.47760025889E+02  0.50400000000E-02 0. -1.
         -2   -1    0    0    0  501 -0.00000000000E+00 -0.00000000000E+00 -0.33683373103E+02  0.33683373200E+02  0.25500000000E-02 0.  1.
        -24    2    1    2    0    0  0.00000000000E+00  0.00000000000E+00  0.14076652520E+02  0.81443399089E+02  0.80217673296E+02 0.  0.
         66    2    3    3    0    0 -0.18608476809E+02 -0.17237517013E+02 -0.24468736714E+02  0.35300516679E+02  0.19999998688E+01 0.  0.
         13    1    3    3    0    0  0.18608476809E+02  0.17237517013E+02  0.38545389234E+02  0.46142882411E+02  0.10566000000E+00 0. -1.
         13    1    4    4    0    0 -0.81863049716E+01 -0.76575756627E+01 -0.11047314419E+02  0.15738753891E+02  0.10566000000E+00 0.  1.
        -13    1    4    4    0    0 -0.76451567403E+01 -0.78116702272E+01 -0.10591680135E+02  0.15220560615E+02  0.10566000000E+00 0. -1.
         14    1    4    4    0    0 -0.27770150973E+01 -0.17682711235E+01 -0.28297421594E+01  0.43412021728E+01  0.00000000000E+00 0. -1.
<mgrwt>
<rscale>  0 0.80217673E+02</rscale>
<asrwt>0</asrwt>
<pdfrwt beam="1">  1        1 0.73476963E-02 0.80217673E+02</pdfrwt>
<pdfrwt beam="2">  1       -2 0.51820574E-02 0.80217673E+02</pdfrwt>
<totfact> 0.12963829E+05</totfact>
</mgrwt>
</event>
<event>
 8    1  0.7756875E-018  0.8009742E+02  0.7818608E-02  0.1328775E+00
          1   -1    0    0  501    0  0.00000000000E+00  0.00000000000E+00  0.71227250690E+01  0.71227268521E+01  0.50400000000E-02 0. -1.
         -2   -1    0    0    0  501 -0.00000000000E+00 -0.00000000000E+00 -0.22518051403E+03  0.22518051405E+03  0.25500000000E-02 0.  1.
        -24    2    1    2    0    0  0.35527136788E-14  0.35527136788E-14 -0.21805778896E+03  0.23230324090E+03  0.80097418214E+02 0.  0.
         66    2    3    3    0    0 -0.27394006979E+02 -0.23347069558E+02 -0.15986172232E+03  0.16387582963E+03  0.20000001492E+01 0.  0.
         13    1    3    3    0    0  0.27394006979E+02  0.23347069558E+02 -0.58196066645E+02  0.68427411264E+02  0.10566000000E+00 0. -1.
         13    1    4    4    0    0 -0.42384811413E+01 -0.31329523855E+01 -0.22061181611E+02  0.22682306125E+02  0.10566000000E+00 0. -1.
        -13    1    4    4    0    0 -0.15021546950E+02 -0.12904869439E+02 -0.91613696970E+02  0.93729734687E+02  0.10566000000E+00 0.  1.
        -14    1    4    4    0    0 -0.81339788881E+01 -0.73092477338E+01 -0.46186843737E+02  0.47463788822E+02  0.00000000000E+00 0.  1.
<mgrwt>
<rscale>  0 0.80097418E+02</rscale>
<asrwt>0</asrwt>
<pdfrwt beam="1">  1        1 0.10958042E-02 0.80097418E+02</pdfrwt>
<pdfrwt beam="2">  1       -2 0.34643151E-01 0.80097418E+02</pdfrwt>
<totfact> 0.80654275E+04</totfact>
</mgrwt>
</event>
<event>
 8    1  0.7756875E-018  0.8734026E+02  0.7818608E-02  0.1309424E+00
         -2   -1    0    0    0  501 -0.00000000000E+00  0.00000000000E+00  0.36270028189E+03  0.36270028190E+03  0.25500000000E-02 0.  1.
          1   -1    0    0  501    0  0.00000000000E+00 -0.00000000000E+00 -0.52580044367E+01  0.52580068522E+01  0.50400000000E-02 0. -1.
        -24    2    1    2    0    0  0.00000000000E+00  0.00000000000E+00  0.35744227745E+03  0.36795828875E+03  0.87340257326E+02 0.  0.
         66    2    3    3    0    0  0.33352481654E+02  0.25822398358E+02  0.22608410102E+03  0.22999392390E+03  0.20000016371E+01 0.  0.
         13    1    3    3    0    0 -0.33352481654E+02 -0.25822398358E+02  0.13135817643E+03  0.13796436485E+03  0.10566000000E+00 0. -1.
         13    1    4    4    0    0  0.13773073435E+02  0.10999064189E+02  0.90309443409E+02  0.92013497368E+02  0.10566000000E+00 0. -1.
        -13    1    4    4    0    0  0.14135306168E+02  0.10445675726E+02  0.95278217900E+02  0.96885855480E+02  0.10566000000E+00 0.  1.
         14    1    4    4    0    0  0.54441020503E+01  0.43776584430E+01  0.40496439711E+02  0.41094571051E+02  0.00000000000E+00 0. -1.
<mgrwt>
<rscale>  0 0.87340257E+02</rscale>
<asrwt>0</asrwt>
<pdfrwt beam="1">  1        1 0.80892385E-03 0.87340257E+02</pdfrwt>
<pdfrwt beam="2">  1       -2 0.55800050E-01 0.87340257E+02</pdfrwt>
<totfact> 0.50115419E+04</totfact>
</mgrwt>
</event>
<event>
 8    1  0.7756875E-018  0.8296240E+02  0.7818608E-02  0.1320849E+00
         -2   -1    0    0    0  501 -0.00000000000E+00  0.00000000000E+00  0.27695819138E+02  0.27695819256E+02  0.25500000000E-02 0.  1.
          1   -1    0    0  501    0  0.00000000000E+00 -0.00000000000E+00 -0.62128142126E+02  0.62128142331E+02  0.50400000000E-02 0. -1.
        -24    2    1    2    0    0 -0.35527136788E-14 -0.35527136788E-14 -0.34432322988E+02  0.89823961586E+02  0.82962396353E+02 0.  0.
         66    2    3    3    0    0  0.14060614463E+02  0.18721676372E+02  0.19815775687E+02  0.30738689147E+02  0.19999997919E+01 0.  0.
         13    1    3    3    0    0 -0.14060614463E+02 -0.18721676372E+02 -0.54248098675E+02  0.59085272439E+02  0.10566000000E+00 0. -1.
         13    1    4    4    0    0  0.95971180618E+00  0.99709473027E+00  0.15750543045E+01  0.20993343587E+01  0.10566000000E+00 0. -1.
        -13    1    4    4    0    0  0.59366781719E+01  0.85803663675E+01  0.93551511747E+01  0.14014166128E+02  0.10566000000E+00 0.  1.
        -14    1    4    4    0    0  0.71642244849E+01  0.91442152740E+01  0.88855702081E+01  0.14625188661E+02  0.00000000000E+00 0.  1.
<mgrwt>
<rscale>  0 0.82962396E+02</rscale>
<asrwt>0</asrwt>
<pdfrwt beam="1">  1        1 0.95581757E-02 0.82962396E+02</pdfrwt>
<pdfrwt beam="2">  1       -2 0.42608953E-02 0.82962396E+02</pdfrwt>
<totfact> 0.12312782E+05</totfact>
</mgrwt>
</event>
<event>
 8    1  0.7756875E-018  0.7821899E+02  0.7818608E-02  0.1334183E+00
          1   -1    0    0  501    0  0.00000000000E+00  0.00000000000E+00  0.23278655524E+03  0.23278655529E+03  0.50400000000E-02 0. -1.
         -2   -1    0    0    0  501 -0.00000000000E+00 -0.00000000000E+00 -0.65706230323E+01  0.65706235271E+01  0.25500000000E-02 0.  1.
        -24    2    1    2    0    0  0.00000000000E+00  0.00000000000E+00  0.22621593221E+03  0.23935717882E+03  0.78218994297E+02 0.  0.
         66    2    3    3    0    0  0.32159371300E+02  0.18091014337E+01  0.45440280224E+02  0.55734343846E+02  0.20000016761E+01 0.  0.
         13    1    3    3    0    0 -0.32159371300E+02 -0.18091014337E+01  0.18077565198E+03  0.18362283497E+03  0.10566000000E+00 0. -1.
         13    1    4    4    0    0  0.13105421956E+02  0.13281485082E+01  0.18135788148E+02  0.22415040461E+02  0.10566000000E+00 0. -1.
        -13    1    4    4    0    0  0.40661194679E+01  0.15367419440E+00  0.50457496660E+01  0.64828772172E+01  0.10566000000E+00 0.  1.
         14    1    4    4    0    0  0.14987829875E+02  0.32727873112E+00  0.22258742410E+02  0.26836426167E+02  0.00000000000E+00 0. -1.
<mgrwt>
<rscale>  0 0.78218994E+02</rscale>
<asrwt>0</asrwt>
<pdfrwt beam="1">  1        1 0.35813310E-01 0.78218994E+02</pdfrwt>
<pdfrwt beam="2">  1       -2 0.10108653E-02 0.78218994E+02</pdfrwt>
<totfact> 0.18228141E+05</totfact>
</mgrwt>
</event>
<event>
 8    1  0.7756875E-018  0.8056779E+02  0.7818608E-02  0.1327448E+00
         -2   -1    0    0    0  501 -0.00000000000E+00  0.00000000000E+00  0.36531116247E+02  0.36531116336E+02  0.25500000000E-02 0.  1.
          1   -1    0    0  501    0  0.00000000000E+00 -0.00000000000E+00 -0.44422193001E+02  0.44422193287E+02  0.50400000000E-02 0. -1.
        -24    2    1    2    0    0  0.00000000000E+00  0.44408920985E-15 -0.78910767541E+01  0.80953309623E+02  0.80567792862E+02 0.  0.
         66    2    3    3    0    0  0.39198434384E+02  0.29743724603E+01  0.47782456017E+01  0.39650924188E+02  0.20000020659E+01 0.  0.
         13    1    3    3    0    0 -0.39198434384E+02 -0.29743724603E+01 -0.12669322356E+02  0.41302385435E+02  0.10566000000E+00 0. -1.
         13    1    4    4    0    0  0.63551415250E+01  0.12218787629E+00  0.85564470175E+00  0.64145183429E+01  0.10566000000E+00 0. -1.
        -13    1    4    4    0    0  0.34764026010E+01  0.52870747842E+00  0.84030599839E+00  0.36169303074E+01  0.10566000000E+00 0.  1.
        -14    1    4    4    0    0  0.29366890258E+02  0.23234771055E+01  0.30822949015E+01  0.29619475538E+02  0.00000000000E+00 0.  1.
<mgrwt>
<rscale>  0 0.80567793E+02</rscale>
<asrwt>0</asrwt>
<pdfrwt beam="1">  1        1 0.68341836E-02 0.80567793E+02</pdfrwt>
<pdfrwt beam="2">  1       -2 0.56201717E-02 0.80567793E+02</pdfrwt>
<totfact> 0.12659963E+05</totfact>
</mgrwt>
</event>
<event>
 8    1  0.7756875E-018  0.7344299E+02  0.7818608E-02  0.1348761E+00
          1   -1    0    0  501    0  0.00000000000E+00  0.00000000000E+00  0.12494241386E+03  0.12494241397E+03  0.50400000000E-02 0. -1.
         -2   -1    0    0    0  501 -0.00000000000E+00 -0.00000000000E+00 -0.10792718819E+02  0.10792719120E+02  0.25500000000E-02 0.  1.
        -24    2    1    2    0    0  0.00000000000E+00  0.35527136788E-14  0.11414969505E+03  0.13573513309E+03  0.73442994729E+02 0.  0.
         66    2    3    3    0    0 -0.66102989129E+01  0.22952164688E+02  0.56341396141E+01  0.24621970723E+02  0.19999993789E+01 0.  0.
         13    1    3    3    0    0  0.66102989129E+01 -0.22952164688E+02  0.10851555543E+03  0.11111316236E+03  0.10566000000E+00 0. -1.
         13    1    4    4    0    0 -0.23577702919E+01  0.10676840561E+02  0.32171052940E+01  0.11398023321E+02  0.10566000000E+00 0. -1.
        -13    1    4    4    0    0 -0.16857815392E+01  0.56080102117E+01  0.10948790865E+01  0.59583187379E+01  0.10566000000E+00 0.  1.
         14    1    4    4    0    0 -0.25667470818E+01  0.66673139152E+01  0.13221552337E+01  0.72656286643E+01  0.00000000000E+00 0. -1.
<mgrwt>
<rscale>  0 0.73442995E+02</rscale>
<asrwt>0</asrwt>
<pdfrwt beam="1">  1        1 0.19221911E-01 0.73442995E+02</pdfrwt>
<pdfrwt beam="2">  1       -2 0.16604182E-02 0.73442995E+02</pdfrwt>
<totfact> 0.19190966E+05</totfact>
</mgrwt>
</event>
<event>
 8    1  0.7756875E-018  0.7795870E+02  0.7818608E-02  0.1334946E+00
          1   -1    0    0  501    0  0.00000000000E+00  0.00000000000E+00  0.66412744502E+01  0.66412763626E+01  0.50400000000E-02 0. -1.
         -2   -1    0    0    0  501 -0.00000000000E+00 -0.00000000000E+00 -0.22877980423E+03  0.22877980425E+03  0.25500000000E-02 0.  1.
        -24    2    1    2    0    0 -0.88817841970E-15  0.00000000000E+00 -0.22213852978E+03  0.23542108061E+03  0.77958699203E+02 0.  0.
         66    2    3    3    0    0  0.57343442830E+01 -0.24904973853E+02 -0.19991887018E+03  0.20155568730E+03  0.20000005035E+01 0.  0.
         13    1    3    3    0    0 -0.57343442830E+01  0.24904973853E+02 -0.22219659597E+02  0.33865393304E+02  0.10566000000E+00 0. -1.
         13    1    4    4    0    0  0.25286488411E+00 -0.40911048502E+01 -0.31040500282E+02  0.31310140551E+02  0.10566000000E+00 0. -1.
        -13    1    4    4    0    0  0.14599952745E+01 -0.46183999914E+01 -0.38335228585E+02  0.38640162000E+02  0.10566000000E+00 0.  1.
         14    1    4    4    0    0  0.40214841245E+01 -0.16195469012E+02 -0.13054314132E+03  0.13160538475E+03  0.00000000000E+00 0. -1.
<mgrwt>
<rscale>  0 0.77958699E+02</rscale>
<asrwt>0</asrwt>
<pdfrwt beam="1">  1        1 0.10217349E-02 0.77958699E+02</pdfrwt>
<pdfrwt beam="2">  1       -2 0.35196887E-01 0.77958699E+02</pdfrwt>
<totfact> 0.85878307E+04</totfact>
</mgrwt>
</event>
<event>
 8    1  0.7756875E-018  0.8041811E+02  0.7818608E-02  0.1327869E+00
         -2   -1    0    0    0  501 -0.00000000000E+00  0.00000000000E+00  0.30034668132E+03  0.30034668133E+03  0.25500000000E-02 0.  1.
          1   -1    0    0  501    0  0.00000000000E+00 -0.00000000000E+00 -0.53830057782E+01  0.53830081376E+01  0.50400000000E-02 0. -1.
        -24    2    1    2    0    0  0.00000000000E+00 -0.17763568394E-14  0.29496367554E+03  0.30572968947E+03  0.80418114460E+02 0.  0.
         66    2    3    3    0    0  0.17971847854E+02  0.13571949508E+02  0.27409622434E+03  0.27502713563E+03  0.20000010612E+01 0.  0.
         13    1    3    3    0    0 -0.17971847854E+02 -0.13571949508E+02  0.20867451201E+02  0.30702553842E+02  0.10566000000E+00 0. -1.
         13    1    4    4    0    0  0.13518437871E+01  0.10496633037E+01  0.24816144601E+02  0.24875318522E+02  0.10566000000E+00 0. -1.
        -13    1    4    4    0    0  0.57753834657E+01  0.34675098638E+01  0.81384192273E+02  0.81662577689E+02  0.10566000000E+00 0.  1.
        -14    1    4    4    0    0  0.10844620602E+02  0.90547763407E+01  0.16789588747E+03  0.16848923941E+03  0.00000000000E+00 0.  1.
<mgrwt>
<rscale>  0 0.80418114E+02</rscale>
<asrwt>0</asrwt>
<pdfrwt beam="1">  1        1 0.82815475E-03 0.80418114E+02</pdfrwt>
<pdfrwt beam="2">  1       -2 0.46207191E-01 0.80418114E+02</pdfrwt>
<totfact> 0.69285934E+04</totfact>
</mgrwt>
</event>
<event>
 8    1  0.7756875E-018  0.7770301E+02  0.7818608E-02  0.1335699E+00
          1   -1    0    0  501    0  0.00000000000E+00  0.00000000000E+00  0.45887193289E+02  0.45887193566E+02  0.50400000000E-02 0. -1.
         -2   -1    0    0    0  501 -0.00000000000E+00 -0.00000000000E+00 -0.32894570478E+02  0.32894570577E+02  0.25500000000E-02 0.  1.
        -24    2    1    2    0    0  0.00000000000E+00  0.00000000000E+00  0.12992622812E+02  0.78781764143E+02  0.77703012258E+02 0.  0.
         66    2    3    3    0    0 -0.22422354529E+02 -0.30330189943E+02 -0.28333009042E+01  0.37877565946E+02  0.20000008493E+01 0.  0.
         13    1    3    3    0    0  0.22422354529E+02  0.30330189943E+02  0.15825923716E+02  0.40904198197E+02  0.10566000000E+00 0. -1.
         13    1    4    4    0    0 -0.29161236790E+01 -0.45748851254E+01 -0.92924347077E+00  0.55052709911E+01  0.10566000000E+00 0. -1.
        -13    1    4    4    0    0 -0.10618836543E+02 -0.14549423190E+02 -0.92216391289E+00  0.18036267768E+02  0.10566000000E+00 0.  1.
         14    1    4    4    0    0 -0.88873943066E+01 -0.11205881628E+02 -0.98189352058E+00  0.14336027187E+02  0.00000000000E+00 0. -1.
<mgrwt>
<rscale>  0 0.77703012E+02</rscale>
<asrwt>0</asrwt>
<pdfrwt beam="1">  1        1 0.70595683E-02 0.77703012E+02</pdfrwt>
<pdfrwt beam="2">  1       -2 0.50607031E-02 0.77703012E+02</pdfrwt>
<totfact> 0.14078035E+05</totfact>
</mgrwt>
</event>
<event>
 8    1  0.7756875E-018  0.8451563E+02  0.7818608E-02  0.1316704E+00
         -2   -1    0    0    0  501 -0.00000000000E+00  0.00000000000E+00  0.94266774536E+02  0.94266774570E+02  0.25500000000E-02 0.  1.
          1   -1    0    0  501    0  0.00000000000E+00 -0.00000000000E+00 -0.18943288366E+02  0.18943289036E+02  0.50400000000E-02 0. -1.
        -24    2    1    2    0    0 -0.17763568394E-14  0.71054273576E-14  0.75323486170E+02  0.11321006361E+03  0.84515625378E+02 0.  0.
         66    2    3    3    0    0 -0.12498447045E+02  0.34062844993E+02  0.66637068502E+02  0.75901169177E+02  0.19999990992E+01 0.  0.
         13    1    3    3    0    0  0.12498447045E+02 -0.34062844993E+02  0.86864176686E+01  0.37308894429E+02  0.10566000000E+00 0. -1.
         13    1    4    4    0    0 -0.70108209502E+00  0.17366163813E+01  0.27209252509E+01  0.33048374871E+01  0.10566000000E+00 0.  1.
        -13    1    4    4    0    0 -0.58507136550E+01  0.16676621652E+02  0.33621623972E+02  0.37983750770E+02  0.10566000000E+00 0.  1.
         14    1    4    4    0    0 -0.59466512955E+01  0.15649606960E+02  0.30294519279E+02  0.34612580920E+02  0.00000000000E+00 0. -1.
<mgrwt>
<rscale>  0 0.84515625E+02</rscale>
<asrwt>0</asrwt>
<pdfrwt beam="1">  1        1 0.29143522E-02 0.84515625E+02</pdfrwt>
<pdfrwt beam="2">  1       -2 0.14502580E-01 0.84515625E+02</pdfrwt>
<totfact> 0.93551472E+04</totfact>
</mgrwt>
</event>
<event>
 8    1  0.7756875E-018  0.7913977E+02  0.7818608E-02  0.1331511E+00
          1   -1    0    0  501    0  0.00000000000E+00  0.00000000000E+00  0.12244972222E+03  0.12244972232E+03  0.50400000000E-02 0. -1.
         -2   -1    0    0    0  501 -0.00000000000E+00 -0.00000000000E+00 -0.12787090438E+02  0.12787090692E+02  0.25500000000E-02 0.  1.
        -24    2    1    2    0    0  0.00000000000E+00  0.00000000000E+00  0.10966263178E+03  0.13523681301E+03  0.79139767406E+02 0.  0.
         66    2    3    3    0    0  0.26015532773E+02  0.27398601768E+02  0.34917504652E+02  0.51485177103E+02  0.20000014771E+01 0.  0.
         13    1    3    3    0    0 -0.26015532773E+02 -0.27398601768E+02  0.74745127126E+02  0.83751635908E+02  0.10566000000E+00 0. -1.
         13    1    4    4    0    0  0.12909747675E+02  0.12340341303E+02  0.17021968110E+02  0.24671930830E+02  0.10566000000E+00 0. -1.
        -13    1    4    4    0    0  0.55495053598E+01  0.63158320274E+01  0.77980637956E+01  0.11467680974E+02  0.10566000000E+00 0.  1.
         14    1    4    4    0    0  0.75562797379E+01  0.87424284376E+01  0.10097472746E+02  0.15345565298E+02  0.00000000000E+00 0. -1.
<mgrwt>
<rscale>  0 0.79139767E+02</rscale>
<asrwt>0</asrwt>
<pdfrwt beam="1">  1        1 0.18838419E-01 0.79139767E+02</pdfrwt>
<pdfrwt beam="2">  1       -2 0.19672447E-02 0.79139767E+02</pdfrwt>
<totfact> 0.15668550E+05</totfact>
</mgrwt>
</event>
<event>
 8    1  0.7756875E-018  0.8131542E+02  0.7818608E-02  0.1325359E+00
         -2   -1    0    0    0  501 -0.00000000000E+00  0.00000000000E+00  0.29106887805E+03  0.29106887806E+03  0.25500000000E-02 0.  1.
          1   -1    0    0  501    0  0.00000000000E+00 -0.00000000000E+00 -0.56792365914E+01  0.56792388278E+01  0.50400000000E-02 0. -1.
        -24    2    1    2    0    0  0.88817841970E-15  0.71054273576E-14  0.28538964146E+03  0.29674811689E+03  0.81315419357E+02 0.  0.
         66    2    3    3    0    0  0.72425684653E+01  0.27981683641E+02  0.24700248286E+03  0.24869591063E+03  0.20000013549E+01 0.  0.
         13    1    3    3    0    0 -0.72425684653E+01 -0.27981683641E+02  0.38387158593E+02  0.48052206258E+02  0.10566000000E+00 0. -1.
         13    1    4    4    0    0  0.30328815212E+01  0.96639044716E+01  0.86134461610E+02  0.86728000443E+02  0.10566000000E+00 0.  1.
        -13    1    4    4    0    0  0.30423138773E+01  0.11023005536E+02  0.94010376782E+02  0.94703349632E+02  0.10566000000E+00 0. -1.
        -14    1    4    4    0    0  0.11673730668E+01  0.72947736339E+01  0.66857644472E+02  0.67264560554E+02  0.00000000000E+00 0.  1.
<mgrwt>
<rscale>  0 0.81315419E+02</rscale>
<asrwt>0</asrwt>
<pdfrwt beam="1">  1        1 0.87372900E-03 0.81315419E+02</pdfrwt>
<pdfrwt beam="2">  1       -2 0.44779821E-01 0.81315419E+02</pdfrwt>
<totfact> 0.68473352E+04</totfact>
</mgrwt>
</event>
<event>
 8    1  0.7756875E-018  0.7747607E+02  0.7818608E-02  0.1336370E+00
          1   -1    0    0  501    0  0.00000000000E+00  0.00000000000E+00  0.15227104354E+02  0.15227105189E+02  0.50400000000E-02 0. -1.
         -2   -1    0    0    0  501 -0.00000000000E+00 -0.00000000000E+00 -0.98550272837E+02  0.98550272870E+02  0.25500000000E-02 0.  1.
        -24    2    1    2    0    0  0.00000000000E+00  0.00000000000E+00 -0.83323168483E+02  0.11377737806E+03  0.77476069544E+02 0.  0.
         66    2    3    3    0    0  0.16102786286E+02 -0.24704280117E+01 -0.93260794318E+02  0.94694131164E+02  0.19999948307E+01 0.  0.
         13    1    3    3    0    0 -0.16102786286E+02  0.24704280117E+01  0.99376258358E+01  0.19083246894E+02  0.10566000000E+00 0. -1.
         13    1    4    4    0    0  0.49817541099E+01 -0.71535793566E+00 -0.25027739759E+02  0.25528974372E+02  0.10566000000E+00 0. -1.
        -13    1    4    4    0    0  0.44889168056E+01 -0.43212207915E+00 -0.30308156334E+02  0.30642007244E+02  0.10566000000E+00 0.  1.
        -14    1    4    4    0    0  0.66321153708E+01 -0.13229479969E+01 -0.37924898226E+02  0.38523149548E+02  0.00000000000E+00 0.  1.
<mgrwt>
<rscale>  0 0.77476070E+02</rscale>
<asrwt>0</asrwt>
<pdfrwt beam="1">  1        1 0.23426316E-02 0.77476070E+02</pdfrwt>
<pdfrwt beam="2">  1       -2 0.15161580E-01 0.77476070E+02</pdfrwt>
<totfact> 0.11561102E+05</totfact>
</mgrwt>
</event>
<event>
 8    1  0.7756875E-018  0.7855982E+02  0.7818608E-02  0.1333189E+00
          1   -1    0    0  501    0  0.00000000000E+00  0.00000000000E+00  0.46845048969E+02  0.46845049240E+02  0.50400000000E-02 0. -1.
         -2   -1    0    0    0  501 -0.00000000000E+00 -0.00000000000E+00 -0.32936483623E+02  0.32936483721E+02  0.25500000000E-02 0.  1.
        -24    2    1    2    0    0 -0.35527136788E-14  0.00000000000E+00  0.13908565346E+02  0.79781532961E+02  0.78559816775E+02 0.  0.
         66    2    3    3    0    0 -0.16109698582E+02  0.21679573340E+02 -0.21968933118E+02  0.34873489710E+02  0.19999933895E+01 0.  0.
         13    1    3    3    0    0  0.16109698582E+02 -0.21679573340E+02  0.35877498464E+02  0.44908043252E+02  0.10566000000E+00 0. -1.
         13    1    4    4    0    0 -0.10376834670E+02  0.12673749032E+02 -0.13516603883E+02  0.21237051510E+02  0.10566000000E+00 0. -1.
        -13    1    4    4    0    0 -0.42783955021E+01  0.71718545053E+01 -0.63731005468E+01  0.10505605158E+02  0.10566000000E+00 0.  1.
        -14    1    4    4    0    0 -0.14544684091E+01  0.18339698035E+01 -0.20792286888E+01  0.31308330415E+01  0.00000000000E+00 0.  1.
<mgrwt>
<rscale>  0 0.78559817E+02</rscale>
<asrwt>0</asrwt>
<pdfrwt beam="1">  1        1 0.72069306E-02 0.78559817E+02</pdfrwt>
<pdfrwt beam="2">  1       -2 0.50671514E-02 0.78559817E+02</pdfrwt>
<totfact> 0.13698858E+05</totfact>
</mgrwt>
</event>
<event>
 8    1  0.7756875E-018  0.7884067E+02  0.7818608E-02  0.1332374E+00
         -2   -1    0    0    0  501 -0.00000000000E+00  0.00000000000E+00  0.21241538122E+01  0.21241553429E+01  0.25500000000E-02 0.  1.
          1   -1    0    0  501    0  0.00000000000E+00 -0.00000000000E+00 -0.73156764783E+03  0.73156764785E+03  0.50400000000E-02 0. -1.
        -24    2    1    2    0    0  0.00000000000E+00 -0.88817841970E-15 -0.72944349402E+03  0.73369180319E+03  0.78840669097E+02 0.  0.
         66    2    3    3    0    0 -0.29938246221E+02  0.79681652043E+01 -0.59141276136E+03  0.59222702112E+03  0.20000010645E+01 0.  0.
         13    1    3    3    0    0  0.29938246221E+02 -0.79681652043E+01 -0.13803073266E+03  0.14146478207E+03  0.10566000000E+00 0. -1.
         13    1    4    4    0    0 -0.14978926406E+02  0.37845281261E+01 -0.31004312391E+03  0.31042783499E+03  0.10566000000E+00 0. -1.
        -13    1    4    4    0    0 -0.31345802896E+01  0.11963847389E+01 -0.59929058653E+02  0.60022996968E+02  0.10566000000E+00 0.  1.
         14    1    4    4    0    0 -0.11824739525E+02  0.29872523393E+01 -0.22144057879E+03  0.22177618916E+03  0.00000000000E+00 0. -1.
<mgrwt>
<rscale>  0 0.78840669E+02</rscale>
<asrwt>0</asrwt>
<pdfrwt beam="1">  1        1 0.11254867E+00 0.78840669E+02</pdfrwt>
<pdfrwt beam="2">  1       -2 0.32679360E-03 0.78840669E+02</pdfrwt>
<totfact> 0.20779214E+05</totfact>
</mgrwt>
</event>
<event>
 8    1  0.7756875E-018  0.7992350E+02  0.7818608E-02  0.1329269E+00
          1   -1    0    0  501    0  0.00000000000E+00  0.00000000000E+00  0.35744687502E+01  0.35744723034E+01  0.50400000000E-02 0. -1.
         -2   -1    0    0    0  501 -0.00000000000E+00 -0.00000000000E+00 -0.44676310521E+03  0.44676310522E+03  0.25500000000E-02 0.  1.
        -24    2    1    2    0    0  0.00000000000E+00  0.35527136788E-14 -0.44318863646E+03  0.45033757752E+03  0.79923502427E+02 0.  0.
         66    2    3    3    0    0 -0.24524378928E+02 -0.22866828427E+02 -0.34396596956E+03  0.34560226449E+03  0.20000009361E+01 0.  0.
         13    1    3    3    0    0  0.24524378928E+02  0.22866828427E+02 -0.99222666902E+02  0.10473531303E+03  0.10566000000E+00 0. -1.
         13    1    4    4    0    0 -0.18529677052E+01 -0.12741554403E+01 -0.23136171430E+02  0.23245441572E+02  0.10566000000E+00 0. -1.
        -13    1    4    4    0    0 -0.21799064807E+02 -0.21038451318E+02 -0.30866882606E+03  0.31015201274E+03  0.10566000000E+00 0.  1.
        -14    1    4    4    0    0 -0.87234641653E+00 -0.55422166828E+00 -0.12160972066E+02  0.12204810180E+02  0.00000000000E+00 0.  1.
<mgrwt>
<rscale>  0 0.79923502E+02</rscale>
<asrwt>0</asrwt>
<pdfrwt beam="1">  1        1 0.54991890E-03 0.79923502E+02</pdfrwt>
<pdfrwt beam="2">  1       -2 0.68732741E-01 0.79923502E+02</pdfrwt>
<totfact> 0.54901434E+04</totfact>
</mgrwt>
</event>
<event>
 8    1  0.7756875E-018  0.7820764E+02  0.7818608E-02  0.1334216E+00
         -2   -1    0    0    0  501 -0.00000000000E+00  0.00000000000E+00  0.39193586608E+02  0.39193586691E+02  0.25500000000E-02 0.  1.
          1   -1    0    0  501    0  0.00000000000E+00 -0.00000000000E+00 -0.39014261048E+02  0.39014261374E+02  0.50400000000E-02 0. -1.
        -24    2    1    2    0    0 -0.71054273576E-14  0.17763568394E-14  0.17932556014E+00  0.78207848065E+02  0.78207642474E+02 0.  0.
         66    2    3    3    0    0  0.34580713520E+02 -0.15319513411E+02  0.99178022359E+01  0.39151960792E+02  0.19999984838E+01 0.  0.
         13    1    3    3    0    0 -0.34580713520E+02  0.15319513411E+02 -0.97384766758E+01  0.39055887273E+02  0.10566000000E+00 0. -1.
         13    1    4    4    0    0  0.28309093883E+01 -0.12889968887E+01  0.13314360032E+01  0.33851804693E+01  0.10566000000E+00 0. -1.
        -13    1    4    4    0    0  0.21890814394E+02 -0.10058604755E+02  0.60425771258E+01  0.24837616367E+02  0.10566000000E+00 0.  1.
         14    1    4    4    0    0  0.98589897377E+01 -0.39719117676E+01  0.25437891069E+01  0.10929163955E+02  0.00000000000E+00 0. -1.
<mgrwt>
<rscale>  0 0.78207642E+02</rscale>
<asrwt>0</asrwt>
<pdfrwt beam="1">  1        1 0.60021940E-02 0.78207642E+02</pdfrwt>
<pdfrwt beam="2">  1       -2 0.60297826E-02 0.78207642E+02</pdfrwt>
<totfact> 0.13479196E+05</totfact>
</mgrwt>
</event>
<event>
 8    1  0.7756875E-018  0.8008463E+02  0.7818608E-02  0.1328811E+00
          1   -1    0    0  501    0  0.00000000000E+00  0.00000000000E+00  0.75723134982E+01  0.75723151755E+01  0.50400000000E-02 0. -1.
         -2   -1    0    0    0  501 -0.00000000000E+00 -0.00000000000E+00 -0.21174331837E+03  0.21174331838E+03  0.25500000000E-02 0.  1.
        -24    2    1    2    0    0  0.00000000000E+00  0.00000000000E+00 -0.20417100487E+03  0.21931563356E+03  0.80084629573E+02 0.  0.
         66    2    3    3    0    0  0.33207308741E+02 -0.10295638211E+02 -0.15641486848E+03  0.16024461488E+03  0.19999997403E+01 0.  0.
         13    1    3    3    0    0 -0.33207308741E+02  0.10295638211E+02 -0.47756136394E+02  0.59071018675E+02  0.10566000000E+00 0. -1.
         13    1    4    4    0    0  0.16132045342E+01 -0.80064231879E+00 -0.85228084399E+01  0.87116522389E+01  0.10566000000E+00 0. -1.
        -13    1    4    4    0    0  0.10471051896E+02 -0.36556193865E+01 -0.51574993893E+02  0.52754124388E+02  0.10566000000E+00 0.  1.
         14    1    4    4    0    0  0.21123052311E+02 -0.58393765056E+01 -0.96317066143E+02  0.98778838256E+02  0.00000000000E+00 0. -1.
<mgrwt>
<rscale>  0 0.80084630E+02</rscale>
<asrwt>0</asrwt>
<pdfrwt beam="1">  1        1 0.11649716E-02 0.80084630E+02</pdfrwt>
<pdfrwt beam="2">  1       -2 0.32575891E-01 0.80084630E+02</pdfrwt>
<totfact> 0.82862850E+04</totfact>
</mgrwt>
</event>
<event>
 8    1  0.7756875E-018  0.8710025E+02  0.7818608E-02  0.1310030E+00
          1   -1    0    0  501    0  0.00000000000E+00  0.00000000000E+00  0.22476450658E+03  0.22476450664E+03  0.50400000000E-02 0. -1.
         -2   -1    0    0    0  501 -0.00000000000E+00 -0.00000000000E+00 -0.84382253109E+01  0.84382256962E+01  0.25500000000E-02 0.  1.
        -24    2    1    2    0    0  0.35527136788E-14  0.35527136788E-14  0.21632628127E+03  0.23320273233E+03  0.87100254878E+02 0.  0.
         66    2    3    3    0    0 -0.24693266786E+02 -0.26315385050E+02  0.43056571412E+02  0.56214991421E+02  0.20000009656E+01 0.  0.
         13    1    3    3    0    0  0.24693266786E+02  0.26315385050E+02  0.17326970986E+03  0.17698774091E+03  0.10566000000E+00 0. -1.
         13    1    4    4    0    0 -0.97005357724E+00 -0.70009864444E+00  0.13916865255E+01  0.18382321604E+01  0.10566000000E+00 0. -1.
        -13    1    4    4    0    0 -0.17684668263E+02 -0.19505935106E+02  0.30581312924E+02  0.40354143035E+02  0.10566000000E+00 0.  1.
         14    1    4    4    0    0 -0.60385449462E+01 -0.61093512995E+01  0.11083571963E+02  0.14022616226E+02  0.00000000000E+00 0. -1.
<mgrwt>
<rscale>  0 0.87100255E+02</rscale>
<asrwt>0</asrwt>
<pdfrwt beam="1">  1        1 0.34579144E-01 0.87100255E+02</pdfrwt>
<pdfrwt beam="2">  1       -2 0.12981889E-02 0.87100255E+02</pdfrwt>
<totfact> 0.13602762E+05</totfact>
</mgrwt>
</event>
<event>
 8    1  0.7756875E-018  0.8167319E+02  0.7818608E-02  0.1324369E+00
         -2   -1    0    0    0  501 -0.00000000000E+00  0.00000000000E+00  0.23370923624E+03  0.23370923626E+03  0.25500000000E-02 0.  1.
          1   -1    0    0  501    0  0.00000000000E+00 -0.00000000000E+00 -0.71354784990E+01  0.71354802790E+01  0.50400000000E-02 0. -1.
        -24    2    1    2    0    0  0.35527136788E-14  0.00000000000E+00  0.22657375774E+03  0.24084471654E+03  0.81673188900E+02 0.  0.
         66    2    3    3    0    0 -0.28011050647E+02 -0.28957844536E+02  0.13256694063E+03  0.13856828451E+03  0.20000019156E+01 0.  0.
         13    1    3    3    0    0  0.28011050647E+02  0.28957844536E+02  0.94006817119E+02  0.10227643202E+03  0.10566000000E+00 0. -1.
         13    1    4    4    0    0 -0.79153906244E+01 -0.84690232629E+01  0.35469459615E+02  0.37315834349E+02  0.10566000000E+00 0. -1.
        -13    1    4    4    0    0 -0.31525695724E+01 -0.34678842884E+01  0.16465260574E+02  0.17119605315E+02  0.10566000000E+00 0.  1.
         14    1    4    4    0    0 -0.16943090450E+02 -0.17020936984E+02  0.80632220438E+02  0.84132844850E+02  0.00000000000E+00 0. -1.
<mgrwt>
<rscale>  0 0.81673189E+02</rscale>
<asrwt>0</asrwt>
<pdfrwt beam="1">  1        1 0.10977660E-02 0.81673189E+02</pdfrwt>
<pdfrwt beam="2">  1       -2 0.35955270E-01 0.81673189E+02</pdfrwt>
<totfact> 0.75428111E+04</totfact>
</mgrwt>
</event>
<event>
 8    1  0.7756875E-018  0.8093449E+02  0.7818608E-02  0.1326420E+00
          1   -1    0    0  501    0  0.00000000000E+00  0.00000000000E+00  0.20781367543E+03  0.20781367549E+03  0.50400000000E-02 0. -1.
         -2   -1    0    0    0  501 -0.00000000000E+00 -0.00000000000E+00 -0.78801263600E+01  0.78801267726E+01  0.25500000000E-02 0.  1.
        -24    2    1    2    0    0 -0.35527136788E-14 -0.35527136788E-14  0.19993354907E+03  0.21569380226E+03  0.80934493828E+02 0.  0.
         66    2    3    3    0    0  0.27629271202E+02 -0.26337122652E+02  0.64414429962E+02  0.74901531650E+02  0.19999998532E+01 0.  0.
         13    1    3    3    0    0 -0.27629271202E+02  0.26337122652E+02  0.13551911910E+03  0.14079227061E+03  0.10566000000E+00 0. -1.
         13    1    4    4    0    0  0.31209870497E+01 -0.35517313169E+01  0.72840824182E+01  0.86847208488E+01  0.10566000000E+00 0.  1.
        -13    1    4    4    0    0  0.10408007523E+02 -0.91144182893E+01  0.24084064662E+02  0.27775035122E+02  0.10566000000E+00 0. -1.
        -14    1    4    4    0    0  0.14100276629E+02 -0.13670973046E+02  0.33046282882E+02  0.38441775679E+02  0.00000000000E+00 0.  1.
<mgrwt>
<rscale>  0 0.80934494E+02</rscale>
<asrwt>0</asrwt>
<pdfrwt beam="1">  1        1 0.31971331E-01 0.80934494E+02</pdfrwt>
<pdfrwt beam="2">  1       -2 0.12123273E-02 0.80934494E+02</pdfrwt>
<totfact> 0.16288582E+05</totfact>
</mgrwt>
</event>
<event>
 8    1  0.7756875E-018  0.8025714E+02  0.7818608E-02  0.1328323E+00
          1   -1    0    0  501    0  0.00000000000E+00  0.00000000000E+00  0.58817392058E+02  0.58817392274E+02  0.50400000000E-02 0. -1.
         -2   -1    0    0    0  501 -0.00000000000E+00 -0.00000000000E+00 -0.27377995003E+02  0.27377995121E+02  0.25500000000E-02 0.  1.
        -24    2    1    2    0    0 -0.35527136788E-14  0.71054273576E-14  0.31439397056E+02  0.86195387396E+02  0.80257143739E+02 0.  0.
         66    2    3    3    0    0  0.21138359471E+02 -0.32933993240E+02  0.63162803139E+01  0.39690975662E+02  0.20000000326E+01 0.  0.
         13    1    3    3    0    0 -0.21138359471E+02  0.32933993240E+02  0.25123116742E+02  0.46504411734E+02  0.10566000000E+00 0. -1.
         13    1    4    4    0    0  0.11870062503E+02 -0.19075610449E+02  0.41805375420E+01  0.22853125738E+02  0.10566000000E+00 0.  1.
        -13    1    4    4    0    0  0.31724868029E+01 -0.49547205940E+01  0.12127531136E+01  0.60079832581E+01  0.10566000000E+00 0. -1.
         14    1    4    4    0    0  0.60958101648E+01 -0.89036621974E+01  0.92298965830E+00  0.10829866666E+02  0.00000000000E+00 0. -1.
<mgrwt>
<rscale>  0 0.80257144E+02</rscale>
<asrwt>0</asrwt>
<pdfrwt beam="1">  1        1 0.90488296E-02 0.80257144E+02</pdfrwt>
<pdfrwt beam="2">  1       -2 0.42119993E-02 0.80257144E+02</pdfrwt>
<totfact> 0.13377356E+05</totfact>
</mgrwt>
</event>
<event>
 8    1  0.7756875E-018  0.8294117E+02  0.7818608E-02  0.1320906E+00
          1   -1    0    0  501    0  0.00000000000E+00  0.00000000000E+00  0.11820788903E+02  0.11820789977E+02  0.50400000000E-02 0. -1.
         -2   -1    0    0    0  501 -0.00000000000E+00 -0.00000000000E+00 -0.14549024162E+03  0.14549024165E+03  0.25500000000E-02 0.  1.
        -24    2    1    2    0    0  0.00000000000E+00  0.00000000000E+00 -0.13366945272E+03  0.15731103162E+03  0.82941172403E+02 0.  0.
         66    2    3    3    0    0 -0.96180713494E+01  0.28977157468E+02 -0.12003479351E+03  0.12387305849E+03  0.20000039714E+01 0.  0.
         13    1    3    3    0    0  0.96180713494E+01 -0.28977157468E+02 -0.13634659215E+02  0.33437973134E+02  0.10566000000E+00 0. -1.
         13    1    4    4    0    0 -0.51491032530E+01  0.14340191988E+02 -0.58647185809E+02  0.60594207132E+02  0.10566000000E+00 0.  1.
        -13    1    4    4    0    0 -0.65805110354E+00  0.10512431545E+01 -0.49022689128E+01  0.50578204746E+01  0.10566000000E+00 0.  1.
        -14    1    4    4    0    0 -0.38109169928E+01  0.13585722325E+02 -0.56485338784E+02  0.58221030882E+02  0.00000000000E+00 0.  1.
<mgrwt>
<rscale>  0 0.82941172E+02</rscale>
<asrwt>0</asrwt>
<pdfrwt beam="1">  1        1 0.18185831E-02 0.82941172E+02</pdfrwt>
<pdfrwt beam="2">  1       -2 0.22383113E-01 0.82941172E+02</pdfrwt>
<totfact> 0.86978045E+04</totfact>
</mgrwt>
</event>
<event>
 8    1  0.7756875E-018  0.8013422E+02  0.7818608E-02  0.1328671E+00
         -2   -1    0    0    0  501 -0.00000000000E+00  0.00000000000E+00  0.42962182394E+01  0.42962189962E+01  0.25500000000E-02 0.  1.
          1   -1    0    0  501    0  0.00000000000E+00 -0.00000000000E+00 -0.37367124024E+03  0.37367124027E+03  0.50400000000E-02 0. -1.
        -24    2    1    2    0    0  0.00000000000E+00  0.88817841970E-15 -0.36937502200E+03  0.37796745927E+03  0.80134221087E+02 0.  0.
         66    2    3    3    0    0 -0.39503717144E+02 -0.64466528628E+01 -0.17949647147E+03  0.18391597611E+03  0.19999991641E+01 0.  0.
         13    1    3    3    0    0  0.39503717144E+02  0.64466528628E+01 -0.18987855052E+03  0.19405148315E+03  0.10566000000E+00 0. -1.
         13    1    4    4    0    0 -0.11963065683E+01 -0.31569799611E+00 -0.44995280444E+01  0.46677329923E+01  0.10566000000E+00 0. -1.
        -13    1    4    4    0    0 -0.14805670953E+02 -0.23577684498E+01 -0.69805639979E+02  0.71397517473E+02  0.10566000000E+00 0.  1.
        -14    1    4    4    0    0 -0.23501739623E+02 -0.37731864169E+01 -0.10519130345E+03  0.10785072565E+03  0.00000000000E+00 0.  1.
<mgrwt>
<rscale>  0 0.80134221E+02</rscale>
<asrwt>0</asrwt>
<pdfrwt beam="1">  1        1 0.57487858E-01 0.80134221E+02</pdfrwt>
<pdfrwt beam="2">  1       -2 0.66095701E-03 0.80134221E+02</pdfrwt>
<totfact> 0.18694523E+05</totfact>
</mgrwt>
</event>
<event>
 8    1  0.7756875E-018  0.8053657E+02  0.7818608E-02  0.1327536E+00
         -2   -1    0    0    0  501 -0.00000000000E+00  0.00000000000E+00  0.38583849114E+03  0.38583849115E+03  0.25500000000E-02 0.  1.
          1   -1    0    0  501    0  0.00000000000E+00 -0.00000000000E+00 -0.42026247274E+01  0.42026277495E+01  0.50400000000E-02 0. -1.
        -24    2    1    2    0    0  0.00000000000E+00  0.00000000000E+00  0.38163586641E+03  0.39004111890E+03  0.80536574912E+02 0.  0.
         66    2    3    3    0    0  0.24196605073E+01 -0.39986800742E+02  0.17234723982E+03  0.17695301652E+03  0.19999977382E+01 0.  0.
         13    1    3    3    0    0 -0.24196605073E+01  0.39986800742E+02  0.20928862658E+03  0.21308810237E+03  0.10566000000E+00 0. -1.
         13    1    4    4    0    0  0.15192445464E+01 -0.17436448771E+02  0.74592961404E+02  0.76618920019E+02  0.10566000000E+00 0. -1.
        -13    1    4    4    0    0  0.10502545607E+01 -0.20147773523E+02  0.88664252895E+02  0.90930724830E+02  0.10566000000E+00 0.  1.
         14    1    4    4    0    0 -0.14983859981E+00 -0.24025784484E+01  0.90900255248E+01  0.94033716745E+01  0.00000000000E+00 0. -1.
<mgrwt>
<rscale>  0 0.80536575E+02</rscale>
<asrwt>0</asrwt>
<pdfrwt beam="1">  1        1 0.64655797E-03 0.80536575E+02</pdfrwt>
<pdfrwt beam="2">  1       -2 0.59359760E-01 0.80536575E+02</pdfrwt>
<totfact> 0.59468351E+04</totfact>
</mgrwt>
</event>
<event>
 8    1  0.7756875E-018  0.7892810E+02  0.7818608E-02  0.1332121E+00
         -2   -1    0    0    0  501 -0.00000000000E+00  0.00000000000E+00  0.47213327923E+02  0.47213327992E+02  0.25500000000E-02 0.  1.
          1   -1    0    0  501    0  0.00000000000E+00 -0.00000000000E+00 -0.32986686790E+02  0.32986687175E+02  0.50400000000E-02 0. -1.
        -24    2    1    2    0    0  0.44408920985E-15 -0.17763568394E-14  0.14226641133E+02  0.80200015167E+02  0.78928100921E+02 0.  0.
         66    2    3    3    0    0 -0.24906194600E+01  0.15913266107E+02  0.43697601901E+02  0.46614543366E+02  0.20000044557E+01 0.  0.
         13    1    3    3    0    0  0.24906194600E+01 -0.15913266107E+02 -0.29470960768E+02  0.33585471802E+02  0.10566000000E+00 0. -1.
         13    1    4    4    0    0 -0.13036669810E+01  0.54486970066E+01  0.16420007631E+02  0.17349802919E+02  0.10566000000E+00 0. -1.
        -13    1    4    4    0    0 -0.14065843958E+01  0.97599542038E+01  0.25305344257E+02  0.27158917463E+02  0.10566000000E+00 0.  1.
        -14    1    4    4    0    0  0.21963191679E+00  0.70461489676E+00  0.19722500121E+01  0.21058229845E+01  0.00000000000E+00 0.  1.
<mgrwt>
<rscale>  0 0.78928101E+02</rscale>
<asrwt>0</asrwt>
<pdfrwt beam="1">  1        1 0.50748749E-02 0.78928101E+02</pdfrwt>
<pdfrwt beam="2">  1       -2 0.72635890E-02 0.78928101E+02</pdfrwt>
<totfact> 0.12778236E+05</totfact>
</mgrwt>
</event>
<event>
 8    1  0.7756875E-018  0.7885465E+02  0.7818608E-02  0.1332334E+00
         -2   -1    0    0    0  501 -0.00000000000E+00  0.00000000000E+00  0.65212112211E+01  0.65212117197E+01  0.25500000000E-02 0.  1.
          1   -1    0    0  501    0  0.00000000000E+00 -0.00000000000E+00 -0.23837812132E+03  0.23837812137E+03  0.50400000000E-02 0. -1.
        -24    2    1    2    0    0 -0.35527136788E-14  0.00000000000E+00 -0.23185691010E+03  0.24489933309E+03  0.78854654832E+02 0.  0.
         66    2    3    3    0    0 -0.31829516925E+02  0.11002387027E+02 -0.52480816115E+02  0.62389155500E+02  0.19999989908E+01 0.  0.
         13    1    3    3    0    0  0.31829516925E+02 -0.11002387027E+02 -0.17937609398E+03  0.18251017759E+03  0.10566000000E+00 0. -1.
         13    1    4    4    0    0 -0.12018220387E+02  0.34651488880E+01 -0.18491921933E+02  0.22325035697E+02  0.10566000000E+00 0. -1.
        -13    1    4    4    0    0 -0.16954603361E+02  0.67228838138E+01 -0.29097818162E+02  0.34341664603E+02  0.10566000000E+00 0.  1.
         14    1    4    4    0    0 -0.28566931772E+01  0.81435432509E+00 -0.48910760203E+01  0.57224551996E+01  0.00000000000E+00 0. -1.
<mgrwt>
<rscale>  0 0.78854655E+02</rscale>
<asrwt>0</asrwt>
<pdfrwt beam="1">  1        1 0.36673551E-01 0.78854655E+02</pdfrwt>
<pdfrwt beam="2">  1       -2 0.10032635E-02 0.78854655E+02</pdfrwt>
<totfact> 0.17925045E+05</totfact>
</mgrwt>
</event>
<event>
 8    1  0.7756875E-018  0.7977906E+02  0.7818608E-02  0.1329680E+00
         -2   -1    0    0    0  501 -0.00000000000E+00  0.00000000000E+00  0.94772667068E+01  0.94772670498E+01  0.25500000000E-02 0.  1.
          1   -1    0    0  501    0  0.00000000000E+00 -0.00000000000E+00 -0.16789384663E+03  0.16789384671E+03  0.50400000000E-02 0. -1.
        -24    2    1    2    0    0 -0.11102230246E-15  0.35527136788E-14 -0.15841657993E+03  0.17737111376E+03  0.79779064926E+02 0.  0.
         66    2    3    3    0    0 -0.99790306192E+00  0.27310604337E+02 -0.14732840334E+02  0.31111436790E+02  0.19999987655E+01 0.  0.
         13    1    3    3    0    0  0.99790306192E+00 -0.27310604337E+02 -0.14368373959E+03  0.14625967697E+03  0.10566000000E+00 0. -1.
         13    1    4    4    0    0 -0.17925808485E+00  0.15900310081E+01 -0.74477218611E+00  0.17681011601E+01  0.10566000000E+00 0. -1.
        -13    1    4    4    0    0 -0.27695089344E+00  0.39268546612E+01 -0.28596433230E+01  0.48667867529E+01  0.10566000000E+00 0.  1.
        -14    1    4    4    0    0 -0.54169408362E+00  0.21793718667E+02 -0.11128424825E+02  0.24476548877E+02  0.00000000000E+00 0.  1.
<mgrwt>
<rscale>  0 0.79779065E+02</rscale>
<asrwt>0</asrwt>
<pdfrwt beam="1">  1        1 0.25829820E-01 0.79779065E+02</pdfrwt>
<pdfrwt beam="2">  1       -2 0.14580412E-02 0.79779065E+02</pdfrwt>
<totfact> 0.16243125E+05</totfact>
</mgrwt>
</event>
<event>
 8    1  0.7756875E-018  0.8079035E+02  0.7818608E-02  0.1326823E+00
          1   -1    0    0  501    0  0.00000000000E+00  0.00000000000E+00  0.96784215869E+02  0.96784216000E+02  0.50400000000E-02 0. -1.
         -2   -1    0    0    0  501 -0.00000000000E+00 -0.00000000000E+00 -0.16859878001E+02  0.16859878194E+02  0.25500000000E-02 0.  1.
        -24    2    1    2    0    0 -0.71054273576E-14  0.00000000000E+00  0.79924337868E+02  0.11364409419E+03  0.80790348196E+02 0.  0.
         66    2    3    3    0    0  0.39468381925E+02  0.48616373885E+01  0.30202864788E+02  0.49976011616E+02  0.20000014462E+01 0.  0.
         13    1    3    3    0    0 -0.39468381925E+02 -0.48616373885E+01  0.49721473080E+02  0.63668082578E+02  0.10566000000E+00 0. -1.
         13    1    4    4    0    0  0.11615460382E+02  0.93486834746E+00  0.94164904083E+01  0.14982468233E+02  0.10566000000E+00 0. -1.
        -13    1    4    4    0    0  0.19986058310E+02  0.24399669732E+01  0.15291760963E+02  0.25283296521E+02  0.10566000000E+00 0.  1.
         14    1    4    4    0    0  0.78668632336E+01  0.14868020678E+01  0.54946134168E+01  0.97102468622E+01  0.00000000000E+00 0. -1.
<mgrwt>
<rscale>  0 0.80790348E+02</rscale>
<asrwt>0</asrwt>
<pdfrwt beam="1">  1        1 0.14889879E-01 0.80790348E+02</pdfrwt>
<pdfrwt beam="2">  1       -2 0.25938274E-02 0.80790348E+02</pdfrwt>
<totfact> 0.14234872E+05</totfact>
</mgrwt>
</event>
<event>
 8    1  0.7756875E-018  0.8068710E+02  0.7818608E-02  0.1327113E+00
         -2   -1    0    0    0  501 -0.00000000000E+00  0.00000000000E+00  0.48647318992E+01  0.48647325675E+01  0.25500000000E-02 0.  1.
          1   -1    0    0  501    0  0.00000000000E+00 -0.00000000000E+00 -0.33457175608E+03  0.33457175611E+03  0.50400000000E-02 0. -1.
        -24    2    1    2    0    0  0.00000000000E+00  0.00000000000E+00 -0.32970702418E+03  0.33943648868E+03  0.80687099693E+02 0.  0.
         66    2    3    3    0    0 -0.39710672320E+02 -0.65498025275E+01 -0.17505057415E+03  0.17962889779E+03  0.19999999852E+01 0.  0.
         13    1    3    3    0    0  0.39710672320E+02  0.65498025275E+01 -0.15465645003E+03  0.15980759090E+03  0.10566000000E+00 0. -1.
         13    1    4    4    0    0 -0.84789186046E+01 -0.17723313691E+01 -0.40742767274E+02  0.41653540887E+02  0.10566000000E+00 0. -1.
        -13    1    4    4    0    0 -0.11335208637E+02 -0.18066127949E+01 -0.47625947184E+02  0.48989721512E+02  0.10566000000E+00 0.  1.
         14    1    4    4    0    0 -0.19896545078E+02 -0.29708583634E+01 -0.86681859693E+02  0.88985635387E+02  0.00000000000E+00 0. -1.
<mgrwt>
<rscale>  0 0.80687100E+02</rscale>
<asrwt>0</asrwt>
<pdfrwt beam="1">  1        1 0.51472560E-01 0.80687100E+02</pdfrwt>
<pdfrwt beam="2">  1       -2 0.74842061E-03 0.80687100E+02</pdfrwt>
<totfact> 0.18002824E+05</totfact>
</mgrwt>
</event>
<event>
 8    1  0.7756875E-018  0.8054578E+02  0.7818608E-02  0.1327510E+00
          1   -1    0    0  501    0  0.00000000000E+00  0.00000000000E+00  0.69366368791E+02  0.69366368974E+02  0.50400000000E-02 0. -1.
         -2   -1    0    0    0  501 -0.00000000000E+00 -0.00000000000E+00 -0.23381731745E+02  0.23381731884E+02  0.25500000000E-02 0.  1.
        -24    2    1    2    0    0  0.71054273576E-14 -0.35527136788E-14  0.45984637046E+02  0.92748100858E+02  0.80545784300E+02 0.  0.
         66    2    3    3    0    0  0.26984848619E+02 -0.26020803684E+02  0.61364933765E+01  0.38038412526E+02  0.19999992943E+01 0.  0.
         13    1    3    3    0    0 -0.26984848619E+02  0.26020803684E+02  0.39848143669E+02  0.54709688331E+02  0.10566000000E+00 0. -1.
         13    1    4    4    0    0  0.60119844420E+01 -0.61155780811E+01  0.15990785193E+01  0.87242460043E+01  0.10566000000E+00 0. -1.
        -13    1    4    4    0    0  0.99304269915E+01 -0.10528341652E+02  0.24002248344E+01  0.14670773718E+02  0.10566000000E+00 0.  1.
        -14    1    4    4    0    0  0.11042437186E+02 -0.93768839508E+01  0.21371900228E+01  0.14643392804E+02  0.00000000000E+00 0.  1.
<mgrwt>
<rscale>  0 0.80545784E+02</rscale>
<asrwt>0</asrwt>
<pdfrwt beam="1">  1        1 0.10671749E-01 0.80545784E+02</pdfrwt>
<pdfrwt beam="2">  1       -2 0.35971895E-02 0.80545784E+02</pdfrwt>
<totfact> 0.13595005E+05</totfact>
</mgrwt>
</event>
<event>
 8    1  0.7756875E-018  0.7952009E+02  0.7818608E-02  0.1330419E+00
         -2   -1    0    0    0  501 -0.00000000000E+00  0.00000000000E+00  0.76596596771E+02  0.76596596814E+02  0.25500000000E-02 0.  1.
          1   -1    0    0  501    0  0.00000000000E+00 -0.00000000000E+00 -0.20638791091E+02  0.20638791707E+02  0.50400000000E-02 0. -1.
        -24    2    1    2    0    0  0.00000000000E+00  0.88817841970E-15  0.55957805680E+02  0.97235388521E+02  0.79520090318E+02 0.  0.
         66    2    3    3    0    0 -0.23187875403E+02 -0.35484510591E+01  0.67212980531E+02  0.71216948991E+02  0.20000002688E+01 0.  0.
         13    1    3    3    0    0  0.23187875403E+02  0.35484510591E+01 -0.11255174851E+02  0.26018439530E+02  0.10566000000E+00 0. -1.
         13    1    4    4    0    0 -0.57204699250E+01 -0.20776083890E+00  0.16561047768E+02  0.17522739738E+02  0.10566000000E+00 0. -1.
        -13    1    4    4    0    0 -0.49612948375E+01 -0.66257599687E+00  0.15448300652E+02  0.16239292179E+02  0.10566000000E+00 0.  1.
        -14    1    4    4    0    0 -0.12506110640E+02 -0.26781142234E+01  0.35203632112E+02  0.37454917074E+02  0.00000000000E+00 0.  1.
<mgrwt>
<rscale>  0 0.79520090E+02</rscale>
<asrwt>0</asrwt>
<pdfrwt beam="1">  1        1 0.31751986E-02 0.79520090E+02</pdfrwt>
<pdfrwt beam="2">  1       -2 0.11784092E-01 0.79520090E+02</pdfrwt>
<totfact> 0.11454278E+05</totfact>
</mgrwt>
</event>
<event>
 8    1  0.7756875E-018  0.7879984E+02  0.7818608E-02  0.1332492E+00
         -2   -1    0    0    0  501 -0.00000000000E+00  0.00000000000E+00  0.17374503469E+02  0.17374503657E+02  0.25500000000E-02 0.  1.
          1   -1    0    0  501    0  0.00000000000E+00 -0.00000000000E+00 -0.89346656369E+02  0.89346656511E+02  0.50400000000E-02 0. -1.
        -24    2    1    2    0    0  0.17763568394E-14  0.00000000000E+00 -0.71972152899E+02  0.10672116017E+03  0.78799842859E+02 0.  0.
         66    2    3    3    0    0 -0.85383439594E+01  0.22379129821E+02  0.63149342607E+01  0.24851703414E+02  0.19999996768E+01 0.  0.
         13    1    3    3    0    0  0.85383439594E+01 -0.22379129821E+02 -0.78287087160E+02  0.81869456754E+02  0.10566000000E+00 0. -1.
         13    1    4    4    0    0 -0.49976054577E+01  0.14687835457E+02  0.39263430070E+01  0.16004246442E+02  0.10566000000E+00 0.  1.
        -13    1    4    4    0    0 -0.31139271438E+00  0.13317483175E+01  0.19678744276E+00  0.13857879842E+01  0.10566000000E+00 0. -1.
        -14    1    4    4    0    0 -0.32293457873E+01  0.63595460468E+01  0.21918038110E+01  0.74616689876E+01  0.00000000000E+00 0.  1.
<mgrwt>
<rscale>  0 0.78799843E+02</rscale>
<asrwt>0</asrwt>
<pdfrwt beam="1">  1        1 0.13745639E-01 0.78799843E+02</pdfrwt>
<pdfrwt beam="2">  1       -2 0.26730006E-02 0.78799843E+02</pdfrwt>
<totfact> 0.15029631E+05</totfact>
</mgrwt>
</event>
<event>
 8    1  0.7756875E-018  0.7537848E+02  0.7818608E-02  0.1342703E+00
         -2   -1    0    0    0  501 -0.00000000000E+00  0.00000000000E+00  0.40256893117E+02  0.40256893197E+02  0.25500000000E-02 0.  1.
          1   -1    0    0  501    0  0.00000000000E+00 -0.00000000000E+00 -0.35285353938E+02  0.35285354298E+02  0.50400000000E-02 0. -1.
        -24    2    1    2    0    0  0.00000000000E+00  0.35527136788E-14  0.49715391786E+01  0.75542247496E+02  0.75378478062E+02 0.  0.
         66    2    3    3    0    0 -0.24269898050E+02 -0.28533628305E+02  0.64047097707E+01  0.38055435980E+02  0.20000012065E+01 0.  0.
         13    1    3    3    0    0  0.24269898050E+02  0.28533628305E+02 -0.14331705922E+01  0.37486811515E+02  0.10566000000E+00 0. -1.
         13    1    4    4    0    0 -0.10899397157E+02 -0.11557955521E+02  0.26220863589E+01  0.16101853778E+02  0.10566000000E+00 0. -1.
        -13    1    4    4    0    0 -0.93410237043E+01 -0.12351141771E+02  0.29318873558E+01  0.15761108920E+02  0.10566000000E+00 0.  1.
        -14    1    4    4    0    0 -0.40294771891E+01 -0.46245310128E+01  0.85073605604E+00  0.61924732815E+01  0.00000000000E+00 0.  1.
<mgrwt>
<rscale>  0 0.75378478E+02</rscale>
<asrwt>0</asrwt>
<pdfrwt beam="1">  1        1 0.54285160E-02 0.75378478E+02</pdfrwt>
<pdfrwt beam="2">  1       -2 0.61933682E-02 0.75378478E+02</pdfrwt>
<totfact> 0.14713350E+05</totfact>
</mgrwt>
</event>
<event>
 8    1  0.7756875E-018  0.7971074E+02  0.7818608E-02  0.1329874E+00
          1   -1    0    0  501    0  0.00000000000E+00  0.00000000000E+00  0.52813861047E+01  0.52813885095E+01  0.50400000000E-02 0. -1.
         -2   -1    0    0    0  501 -0.00000000000E+00 -0.00000000000E+00 -0.30076384316E+03  0.30076384317E+03  0.25500000000E-02 0.  1.
        -24    2    1    2    0    0  0.35527136788E-14  0.00000000000E+00 -0.29548245706E+03  0.30604523168E+03  0.79710735832E+02 0.  0.
         66    2    3    3    0    0  0.25497705584E+02  0.13996209978E+02 -0.25230778865E+03  0.25398670654E+03  0.20000005289E+01 0.  0.
         13    1    3    3    0    0 -0.25497705584E+02 -0.13996209978E+02 -0.43174668407E+02  0.52058525142E+02  0.10566000000E+00 0. -1.
         13    1    4    4    0    0  0.64705720174E+01  0.31674550234E+01 -0.68180180881E+02  0.68559822801E+02  0.10566000000E+00 0. -1.
        -13    1    4    4    0    0  0.30226022561E+01  0.13970742680E+01 -0.26757165841E+02  0.26963772525E+02  0.10566000000E+00 0.  1.
         14    1    4    4    0    0  0.16004531310E+02  0.94316806870E+01 -0.15737044193E+03  0.15846311122E+03  0.00000000000E+00 0. -1.
<mgrwt>
<rscale>  0 0.79710736E+02</rscale>
<asrwt>0</asrwt>
<pdfrwt beam="1">  1        1 0.81252136E-03 0.79710736E+02</pdfrwt>
<pdfrwt beam="2">  1       -2 0.46271347E-01 0.79710736E+02</pdfrwt>
<totfact> 0.70832271E+04</totfact>
</mgrwt>
</event>
<event>
 8    1  0.7756875E-018  0.8026394E+02  0.7818608E-02  0.1328304E+00
          1   -1    0    0  501    0  0.00000000000E+00  0.00000000000E+00  0.49600821243E+03  0.49600821245E+03  0.50400000000E-02 0. -1.
         -2   -1    0    0    0  501 -0.00000000000E+00 -0.00000000000E+00 -0.32470724051E+01  0.32470734064E+01  0.25500000000E-02 0.  1.
        -24    2    1    2    0    0  0.00000000000E+00  0.00000000000E+00  0.49276114002E+03  0.49925528586E+03  0.80263935503E+02 0.  0.
         66    2    3    3    0    0  0.22159839441E+02  0.31006613083E+02  0.32424823780E+03  0.32648642895E+03  0.20000079999E+01 0.  0.
         13    1    3    3    0    0 -0.22159839441E+02 -0.31006613083E+02  0.16851290222E+03  0.17276885691E+03  0.10566000000E+00 0. -1.
         13    1    4    4    0    0  0.62163263346E+01  0.73573809761E+01  0.80504198784E+02  0.81078424713E+02  0.10566000000E+00 0. -1.
        -13    1    4    4    0    0  0.12938829440E+02  0.18881222267E+02  0.19726185632E+03  0.19858540980E+03  0.10566000000E+00 0.  1.
         14    1    4    4    0    0  0.30046836662E+01  0.47680098402E+01  0.46482182695E+02  0.46822594437E+02  0.00000000000E+00 0. -1.
<mgrwt>
<rscale>  0 0.80263936E+02</rscale>
<asrwt>0</asrwt>
<pdfrwt beam="1">  1        1 0.76308907E-01 0.80263936E+02</pdfrwt>
<pdfrwt beam="2">  1       -2 0.49955000E-03 0.80263936E+02</pdfrwt>
<totfact> 0.19421405E+05</totfact>
</mgrwt>
</event>
<event>
 8    1  0.7756875E-018  0.7774470E+02  0.7818608E-02  0.1335576E+00
          1   -1    0    0  501    0  0.00000000000E+00  0.00000000000E+00  0.19484686319E+03  0.19484686325E+03  0.50400000000E-02 0. -1.
         -2   -1    0    0    0  501 -0.00000000000E+00 -0.00000000000E+00 -0.77551141547E+01  0.77551145739E+01  0.25500000000E-02 0.  1.
        -24    2    1    2    0    0  0.71054273576E-14 -0.35527136788E-14  0.18709174903E+03  0.20260197783E+03  0.77744703119E+02 0.  0.
         66    2    3    3    0    0 -0.30907670108E+02  0.17755679121E+02  0.53361578731E+02  0.64202852737E+02  0.20000005904E+01 0.  0.
         13    1    3    3    0    0  0.30907670108E+02 -0.17755679121E+02  0.13373017030E+03  0.13839912509E+03  0.10566000000E+00 0. -1.
         13    1    4    4    0    0 -0.53833359939E+01  0.34486415196E+01  0.94852384061E+01  0.11439158466E+02  0.10566000000E+00 0. -1.
        -13    1    4    4    0    0 -0.88145644184E+01  0.48132650214E+01  0.13701003785E+02  0.16988017389E+02  0.10566000000E+00 0.  1.
        -14    1    4    4    0    0 -0.16709769696E+02  0.94937725796E+01  0.30175336540E+02  0.35775676882E+02  0.00000000000E+00 0.  1.
<mgrwt>
<rscale>  0 0.77744703E+02</rscale>
<asrwt>0</asrwt>
<pdfrwt beam="1">  1        1 0.29976436E-01 0.77744703E+02</pdfrwt>
<pdfrwt beam="2">  1       -2 0.11930947E-02 0.77744703E+02</pdfrwt>
<totfact> 0.17896915E+05</totfact>
</mgrwt>
</event>
<event>
 8    1  0.7756875E-018  0.8072567E+02  0.7818608E-02  0.1327005E+00
          1   -1    0    0  501    0  0.00000000000E+00  0.00000000000E+00  0.33200926726E+03  0.33200926730E+03  0.50400000000E-02 0. -1.
         -2   -1    0    0    0  501 -0.00000000000E+00 -0.00000000000E+00 -0.49069660062E+01  0.49069666688E+01  0.25500000000E-02 0.  1.
        -24    2    1    2    0    0  0.00000000000E+00  0.71054273576E-14  0.32710230125E+03  0.33691623397E+03  0.80725666457E+02 0.  0.
         66    2    3    3    0    0  0.10942106629E+02 -0.37389536447E+02  0.11998855454E+03  0.12617036242E+03  0.19999997155E+01 0.  0.
         13    1    3    3    0    0 -0.10942106629E+02  0.37389536447E+02  0.20711374671E+03  0.21074587154E+03  0.10566000000E+00 0. -1.
         13    1    4    4    0    0  0.17623058420E+00 -0.36444236418E+00  0.97749401986E+00  0.10632657476E+01  0.10566000000E+00 0. -1.
        -13    1    4    4    0    0  0.68093970915E+01 -0.24900725391E+02  0.80831906896E+02  0.84854123944E+02  0.10566000000E+00 0.  1.
        -14    1    4    4    0    0  0.39564789528E+01 -0.12124368692E+02  0.38179153627E+02  0.40252972729E+02  0.00000000000E+00 0.  1.
<mgrwt>
<rscale>  0 0.80725666E+02</rscale>
<asrwt>0</asrwt>
<pdfrwt beam="1">  1        1 0.51078349E-01 0.80725666E+02</pdfrwt>
<pdfrwt beam="2">  1       -2 0.75491790E-03 0.80725666E+02</pdfrwt>
<totfact> 0.17954859E+05</totfact>
</mgrwt>
</event>
<event>
 8    1  0.7756875E-018  0.7979549E+02  0.7818608E-02  0.1329633E+00
          1   -1    0    0  501    0  0.00000000000E+00  0.00000000000E+00  0.21822999507E+02  0.21823000089E+02  0.50400000000E-02 0. -1.
         -2   -1    0    0    0  501 -0.00000000000E+00 -0.00000000000E+00 -0.72942763369E+02  0.72942763414E+02  0.25500000000E-02 0.  1.
        -24    2    1    2    0    0  0.00000000000E+00  0.00000000000E+00 -0.51119763863E+02  0.94765763502E+02  0.79795486557E+02 0.  0.
         66    2    3    3    0    0  0.20977490296E+02  0.11921599715E+02 -0.63274647050E+02  0.67748509974E+02  0.20000013960E+01 0.  0.
         13    1    3    3    0    0 -0.20977490296E+02 -0.11921599715E+02  0.12154883187E+02  0.27017253528E+02  0.10566000000E+00 0. -1.
         13    1    4    4    0    0  0.61090857620E+01  0.34867939790E+01 -0.17237538830E+02  0.18617802503E+02  0.10566000000E+00 0. -1.
        -13    1    4    4    0    0  0.12433534113E+02  0.72261863464E+01 -0.40101287964E+02  0.42602053942E+02  0.10566000000E+00 0.  1.
        -14    1    4    4    0    0  0.24348704214E+01  0.12086193891E+01 -0.59358202558E+01  0.65286535293E+01  0.00000000000E+00 0.  1.
<mgrwt>
<rscale>  0 0.79795487E+02</rscale>
<asrwt>0</asrwt>
<pdfrwt beam="1">  1        1 0.33573846E-02 0.79795487E+02</pdfrwt>
<pdfrwt beam="2">  1       -2 0.11221963E-01 0.79795487E+02</pdfrwt>
<totfact> 0.11469850E+05</totfact>
</mgrwt>
</event>
<event>
 8    1  0.7756875E-018  0.7482232E+02  0.7818608E-02  0.1344422E+00
         -2   -1    0    0    0  501 -0.00000000000E+00  0.00000000000E+00  0.54660642400E+02  0.54660642460E+02  0.25500000000E-02 0.  1.
          1   -1    0    0  501    0  0.00000000000E+00 -0.00000000000E+00 -0.25605164712E+02  0.25605165208E+02  0.50400000000E-02 0. -1.
        -24    2    1    2    0    0  0.00000000000E+00  0.00000000000E+00  0.29055477689E+02  0.80265807668E+02  0.74822316837E+02 0.  0.
         66    2    3    3    0    0 -0.28149989696E+02 -0.14941303881E+02  0.35502793157E+02  0.47750526302E+02  0.19999896497E+01 0.  0.
         13    1    3    3    0    0  0.28149989696E+02  0.14941303881E+02 -0.64473154687E+01  0.32515281366E+02  0.10566000000E+00 0. -1.
         13    1    4    4    0    0 -0.34697978430E+01 -0.25037272686E+01  0.52035967172E+01  0.67377095617E+01  0.10566000000E+00 0. -1.
        -13    1    4    4    0    0 -0.71569129117E+01 -0.36420718484E+01  0.85350555046E+01  0.11719403836E+02  0.10566000000E+00 0.  1.
         14    1    4    4    0    0 -0.17523278941E+02 -0.87955047637E+01  0.21764140935E+02  0.29293412904E+02  0.00000000000E+00 0. -1.
<mgrwt>
<rscale>  0 0.74822317E+02</rscale>
<asrwt>0</asrwt>
<pdfrwt beam="1">  1        1 0.39392562E-02 0.74822317E+02</pdfrwt>
<pdfrwt beam="2">  1       -2 0.84093295E-02 0.74822317E+02</pdfrwt>
<totfact> 0.14253816E+05</totfact>
</mgrwt>
</event>
<event>
 8    1  0.7756875E-018  0.8041313E+02  0.7818608E-02  0.1327883E+00
         -2   -1    0    0    0  501 -0.00000000000E+00  0.00000000000E+00  0.51978882754E+02  0.51978882816E+02  0.25500000000E-02 0.  1.
          1   -1    0    0  501    0  0.00000000000E+00 -0.00000000000E+00 -0.31100475282E+02  0.31100475690E+02  0.50400000000E-02 0. -1.
        -24    2    1    2    0    0  0.00000000000E+00  0.88817841970E-15  0.20878407472E+02  0.83079358506E+02  0.80413132704E+02 0.  0.
         66    2    3    3    0    0  0.33531766325E+02  0.63760668978E+01  0.32350742194E+02  0.47070203976E+02  0.19999999682E+01 0.  0.
         13    1    3    3    0    0 -0.33531766325E+02 -0.63760668978E+01 -0.11472334723E+02  0.36009154530E+02  0.10566000000E+00 0. -1.
         13    1    4    4    0    0  0.16253198747E+01  0.56939540458E+00  0.18520061540E+01  0.25311986591E+01  0.10566000000E+00 0. -1.
        -13    1    4    4    0    0  0.12734987349E+02  0.21678650807E+01  0.13027405677E+02  0.18346770956E+02  0.10566000000E+00 0.  1.
        -14    1    4    4    0    0  0.19171459101E+02  0.36388064125E+01  0.17471330363E+02  0.26192234361E+02  0.00000000000E+00 0.  1.
<mgrwt>
<rscale>  0 0.80413133E+02</rscale>
<asrwt>0</asrwt>
<pdfrwt beam="1">  1        1 0.47846886E-02 0.80413133E+02</pdfrwt>
<pdfrwt beam="2">  1       -2 0.79967511E-02 0.80413133E+02</pdfrwt>
<totfact> 0.11993213E+05</totfact>
</mgrwt>
</event>
<event>
 8    1  0.7756875E-018  0.8043300E+02  0.7818608E-02  0.1327827E+00
          1   -1    0    0  501    0  0.00000000000E+00  0.00000000000E+00  0.84149462579E+01  0.84149477673E+01  0.50400000000E-02 0. -1.
         -2   -1    0    0    0  501 -0.00000000000E+00 -0.00000000000E+00 -0.19220164770E+03  0.19220164772E+03  0.25500000000E-02 0.  1.
        -24    2    1    2    0    0  0.00000000000E+00  0.00000000000E+00 -0.18378670144E+03  0.20061659549E+03  0.80432995448E+02 0.  0.
         66    2    3    3    0    0 -0.94124905611E+01  0.34560278041E+02 -0.13742085414E+03  0.14202640214E+03  0.19999883655E+01 0.  0.
         13    1    3    3    0    0  0.94124905611E+01 -0.34560278041E+02 -0.46365847301E+02  0.58590193350E+02  0.10566000000E+00 0. -1.
         13    1    4    4    0    0 -0.14694313584E+01  0.56945045040E+01 -0.23565434640E+02  0.24288422836E+02  0.10566000000E+00 0. -1.
        -13    1    4    4    0    0 -0.22136185939E+00  0.22891831915E+01 -0.80306811565E+01  0.83541824633E+01  0.10566000000E+00 0.  1.
        -14    1    4    4    0    0 -0.77216973433E+01  0.26576590346E+02 -0.10582473835E+03  0.10938379684E+03  0.00000000000E+00 0.  1.
<mgrwt>
<rscale>  0 0.80432995E+02</rscale>
<asrwt>0</asrwt>
<pdfrwt beam="1">  1        1 0.12946074E-02 0.80432995E+02</pdfrwt>
<pdfrwt beam="2">  1       -2 0.29569481E-01 0.80432995E+02</pdfrwt>
<totfact> 0.85244779E+04</totfact>
</mgrwt>
</event>
<event>
 8    1  0.7756875E-018  0.7999989E+02  0.7818608E-02  0.1329052E+00
         -2   -1    0    0    0  501 -0.00000000000E+00  0.00000000000E+00  0.86485352919E+02  0.86485352957E+02  0.25500000000E-02 0.  1.
          1   -1    0    0  501    0  0.00000000000E+00 -0.00000000000E+00 -0.18500190004E+02  0.18500190690E+02  0.50400000000E-02 0. -1.
        -24    2    1    2    0    0 -0.17763568394E-14 -0.14210854715E-13  0.67985162915E+02  0.10498554365E+03  0.79999887489E+02 0.  0.
         66    2    3    3    0    0  0.74243622663E+01  0.38636385170E+02  0.43302473089E+02  0.58540546552E+02  0.20000002489E+01 0.  0.
         13    1    3    3    0    0 -0.74243622663E+01 -0.38636385170E+02  0.24682689827E+02  0.46444997095E+02  0.10566000000E+00 0. -1.
         13    1    4    4    0    0  0.29390986121E+01  0.13202632178E+02  0.13952334575E+02  0.19432616942E+02  0.10566000000E+00 0. -1.
        -13    1    4    4    0    0  0.12288537851E+00  0.55444223729E+00  0.51153036033E+00  0.77157913132E+00  0.10566000000E+00 0.  1.
        -14    1    4    4    0    0  0.43623782757E+01  0.24879310755E+02  0.28838608153E+02  0.38336350479E+02  0.00000000000E+00 0.  1.
<mgrwt>
<rscale>  0 0.79999887E+02</rscale>
<asrwt>0</asrwt>
<pdfrwt beam="1">  1        1 0.28461831E-02 0.79999887E+02</pdfrwt>
<pdfrwt beam="2">  1       -2 0.13305439E-01 0.79999887E+02</pdfrwt>
<totfact> 0.10984931E+05</totfact>
</mgrwt>
</event>
<event>
 8    1  0.7756875E-018  0.8331407E+02  0.7818608E-02  0.1319901E+00
         -2   -1    0    0    0  501 -0.00000000000E+00  0.00000000000E+00  0.83113499063E+01  0.83113502975E+01  0.25500000000E-02 0.  1.
          1   -1    0    0  501    0  0.00000000000E+00 -0.00000000000E+00 -0.20878782013E+03  0.20878782019E+03  0.50400000000E-02 0. -1.
        -24    2    1    2    0    0  0.35527136788E-14 -0.17763568394E-14 -0.20047647022E+03  0.21709917048E+03  0.83314072720E+02 0.  0.
         66    2    3    3    0    0  0.30740448191E+02 -0.15222359946E+02 -0.38818560335E+02  0.51841836639E+02  0.20000005837E+01 0.  0.
         13    1    3    3    0    0 -0.30740448191E+02  0.15222359946E+02 -0.16165790988E+03  0.16525733384E+03  0.10566000000E+00 0. -1.
         13    1    4    4    0    0  0.97846810951E+01 -0.54380101758E+01 -0.12321564871E+02  0.16647644390E+02  0.10566000000E+00 0.  1.
        -13    1    4    4    0    0  0.44853034698E+01 -0.22535721947E+01 -0.65367836503E+01  0.82424049512E+01  0.10566000000E+00 0. -1.
        -14    1    4    4    0    0  0.16470463626E+02 -0.75307775753E+01 -0.19960211813E+02  0.26951787298E+02  0.00000000000E+00 0.  1.
<mgrwt>
<rscale>  0 0.83314073E+02</rscale>
<asrwt>0</asrwt>
<pdfrwt beam="1">  1        1 0.32121199E-01 0.83314073E+02</pdfrwt>
<pdfrwt beam="2">  1       -2 0.12786694E-02 0.83314073E+02</pdfrwt>
<totfact> 0.15093809E+05</totfact>
</mgrwt>
</event>
<event>
 8    1  0.7756875E-018  0.8039518E+02  0.7818608E-02  0.1327934E+00
          1   -1    0    0  501    0  0.00000000000E+00  0.00000000000E+00  0.26743855841E+03  0.26743855846E+03  0.50400000000E-02 0. -1.
         -2   -1    0    0    0  501 -0.00000000000E+00 -0.00000000000E+00 -0.60419347726E+01  0.60419353107E+01  0.25500000000E-02 0.  1.
        -24    2    1    2    0    0 -0.14210854715E-13 -0.88817841970E-15  0.26139662364E+03  0.27348049377E+03  0.80395184076E+02 0.  0.
         66    2    3    3    0    0 -0.39040650828E+02 -0.65591073660E+01  0.15401215914E+03  0.15903125312E+03  0.19999994774E+01 0.  0.
         13    1    3    3    0    0  0.39040650828E+02  0.65591073660E+01  0.10738446449E+03  0.11444924065E+03  0.10566000000E+00 0. -1.
         13    1    4    4    0    0 -0.14006676698E+02 -0.20458865968E+01  0.52566616412E+02  0.54439259447E+02  0.10566000000E+00 0. -1.
        -13    1    4    4    0    0 -0.67373769888E+01 -0.13259060245E+01  0.25498695739E+02  0.26407289219E+02  0.10566000000E+00 0.  1.
        -14    1    4    4    0    0 -0.18296597141E+02 -0.31873147448E+01  0.75946846992E+02  0.78184704452E+02  0.00000000000E+00 0.  1.
<mgrwt>
<rscale>  0 0.80395184E+02</rscale>
<asrwt>0</asrwt>
<pdfrwt beam="1">  1        1 0.41144387E-01 0.80395184E+02</pdfrwt>
<pdfrwt beam="2">  1       -2 0.92952862E-03 0.80395184E+02</pdfrwt>
<totfact> 0.17417758E+05</totfact>
</mgrwt>
</event>
<event>
 8    1  0.7756875E-018  0.7952869E+02  0.7818608E-02  0.1330394E+00
         -2   -1    0    0    0  501 -0.00000000000E+00  0.00000000000E+00  0.18442434033E+03  0.18442434035E+03  0.25500000000E-02 0.  1.
          1   -1    0    0  501    0  0.00000000000E+00 -0.00000000000E+00 -0.85737223385E+01  0.85737238199E+01  0.50400000000E-02 0. -1.
        -24    2    1    2    0    0  0.00000000000E+00  0.00000000000E+00  0.17585061799E+03  0.19299806417E+03  0.79528692460E+02 0.  0.
         66    2    3    3    0    0 -0.36483597381E+02  0.14891917171E+02  0.10044412359E+03  0.10791591189E+03  0.19999998728E+01 0.  0.
         13    1    3    3    0    0  0.36483597381E+02 -0.14891917171E+02  0.75406494398E+02  0.85082152278E+02  0.10566000000E+00 0. -1.
         13    1    4    4    0    0 -0.28256484284E+01  0.15774620837E+01  0.91786493891E+01  0.97330079785E+01  0.10566000000E+00 0. -1.
        -13    1    4    4    0    0 -0.23758390805E+02  0.91087776009E+01  0.64175170395E+02  0.69035459166E+02  0.10566000000E+00 0.  1.
        -14    1    4    4    0    0 -0.98995581476E+01  0.42056774860E+01  0.27090303809E+02  0.29147444744E+02  0.00000000000E+00 0.  1.
<mgrwt>
<rscale>  0 0.79528692E+02</rscale>
<asrwt>0</asrwt>
<pdfrwt beam="1">  1        1 0.13190344E-02 0.79528692E+02</pdfrwt>
<pdfrwt beam="2">  1       -2 0.28372974E-01 0.79528692E+02</pdfrwt>
<totfact> 0.89185315E+04</totfact>
</mgrwt>
</event>
<event>
 8    1  0.7756875E-018  0.7982037E+02  0.7818608E-02  0.1329562E+00
          1   -1    0    0  501    0  0.00000000000E+00  0.00000000000E+00  0.56042756690E+02  0.56042756916E+02  0.50400000000E-02 0. -1.
         -2   -1    0    0    0  501 -0.00000000000E+00 -0.00000000000E+00 -0.28421563057E+02  0.28421563171E+02  0.25500000000E-02 0.  1.
        -24    2    1    2    0    0  0.00000000000E+00  0.00000000000E+00  0.27621193633E+02  0.84464320087E+02  0.79820367264E+02 0.  0.
         66    2    3    3    0    0  0.34439262568E+02  0.10349056328E+02 -0.44371086435E+01  0.36288478819E+02  0.19999971920E+01 0.  0.
         13    1    3    3    0    0 -0.34439262568E+02 -0.10349056328E+02  0.32058302277E+02  0.48175841269E+02  0.10566000000E+00 0. -1.
         13    1    4    4    0    0  0.10565089539E+01  0.31491575822E+00 -0.13511716806E-01  0.11075783072E+01  0.10566000000E+00 0. -1.
        -13    1    4    4    0    0  0.26147966332E+02  0.71094676571E+01 -0.35241689677E+01  0.27325658357E+02  0.10566000000E+00 0.  1.
        -14    1    4    4    0    0  0.72347872813E+01  0.29246729128E+01 -0.89942795892E+00  0.78552421545E+01  0.00000000000E+00 0.  1.
<mgrwt>
<rscale>  0 0.79820367E+02</rscale>
<asrwt>0</asrwt>
<pdfrwt beam="1">  1        1 0.86219625E-02 0.79820367E+02</pdfrwt>
<pdfrwt beam="2">  1       -2 0.43725482E-02 0.79820367E+02</pdfrwt>
<totfact> 0.13478158E+05</totfact>
</mgrwt>
</event>
<event>
 8    1  0.7756875E-018  0.7959623E+02  0.7818608E-02  0.1330201E+00
         -2   -1    0    0    0  501 -0.00000000000E+00  0.00000000000E+00  0.50358365813E+02  0.50358365878E+02  0.25500000000E-02 0.  1.
          1   -1    0    0  501    0  0.00000000000E+00 -0.00000000000E+00 -0.31452369637E+02  0.31452370041E+02  0.50400000000E-02 0. -1.
        -24    2    1    2    0    0  0.00000000000E+00  0.00000000000E+00  0.18905996176E+02  0.81810735919E+02  0.79596229937E+02 0.  0.
         66    2    3    3    0    0  0.93811284679E+01  0.38415315197E+02  0.13836915182E+02  0.41942844587E+02  0.19999943222E+01 0.  0.
         13    1    3    3    0    0 -0.93811284679E+01 -0.38415315197E+02  0.50690809946E+01  0.39867891331E+02  0.10566000000E+00 0. -1.
         13    1    4    4    0    0  0.34478741827E+01  0.16322578028E+02  0.51456712945E+01  0.17458622138E+02  0.10566000000E+00 0. -1.
        -13    1    4    4    0    0  0.46914265707E+01  0.18596846611E+02  0.73023917092E+01  0.20522872018E+02  0.10566000000E+00 0.  1.
         14    1    4    4    0    0  0.12418277145E+01  0.34958905583E+01  0.13888521781E+01  0.39613504314E+01  0.00000000000E+00 0. -1.
<mgrwt>
<rscale>  0 0.79596230E+02</rscale>
<asrwt>0</asrwt>
<pdfrwt beam="1">  1        1 0.48388261E-02 0.79596230E+02</pdfrwt>
<pdfrwt beam="2">  1       -2 0.77474409E-02 0.79596230E+02</pdfrwt>
<totfact> 0.12373522E+05</totfact>
</mgrwt>
</event>
<event>
 8    1  0.7756875E-018  0.7946608E+02  0.7818608E-02  0.1330573E+00
         -2   -1    0    0    0  501 -0.00000000000E+00  0.00000000000E+00  0.40870487256E+02  0.40870487335E+02  0.25500000000E-02 0.  1.
          1   -1    0    0  501    0  0.00000000000E+00 -0.00000000000E+00 -0.38627244972E+02  0.38627245301E+02  0.50400000000E-02 0. -1.
        -24    2    1    2    0    0  0.00000000000E+00  0.00000000000E+00  0.22432422830E+01  0.79497732636E+02  0.79466076777E+02 0.  0.
         66    2    3    3    0    0  0.13665912928E+02 -0.37163109321E+02  0.40993379461E+01  0.39857978277E+02  0.19999975346E+01 0.  0.
         13    1    3    3    0    0 -0.13665912928E+02  0.37163109321E+02 -0.18560956630E+01  0.39639754360E+02  0.10566000000E+00 0. -1.
         13    1    4    4    0    0  0.10191310899E+01 -0.35056146468E+01  0.18192125689E+00  0.36568048361E+01  0.10566000000E+00 0. -1.
        -13    1    4    4    0    0  0.90555782542E+01 -0.23953380388E+02  0.20855164968E+01  0.25692965430E+02  0.10566000000E+00 0.  1.
        -14    1    4    4    0    0  0.35912035841E+01 -0.97041142864E+01  0.18319001923E+01  0.10508208010E+02  0.00000000000E+00 0.  1.
<mgrwt>
<rscale>  0 0.79466077E+02</rscale>
<asrwt>0</asrwt>
<pdfrwt beam="1">  1        1 0.59426531E-02 0.79466077E+02</pdfrwt>
<pdfrwt beam="2">  1       -2 0.62877673E-02 0.79466077E+02</pdfrwt>
<totfact> 0.12866270E+05</totfact>
</mgrwt>
</event>
<event>
 8    1  0.7756875E-018  0.7945039E+02  0.7818608E-02  0.1330618E+00
          1   -1    0    0  501    0  0.00000000000E+00  0.00000000000E+00  0.83911359938E+02  0.83911360089E+02  0.50400000000E-02 0. -1.
         -2   -1    0    0    0  501 -0.00000000000E+00 -0.00000000000E+00 -0.18806645193E+02  0.18806645366E+02  0.25500000000E-02 0.  1.
        -24    2    1    2    0    0  0.00000000000E+00  0.00000000000E+00  0.65104714745E+02  0.10271800546E+03  0.79450391835E+02 0.  0.
         66    2    3    3    0    0  0.25595890198E+02  0.11902356261E+02 -0.35177197666E+01  0.28516486859E+02  0.19999977104E+01 0.  0.
         13    1    3    3    0    0 -0.25595890198E+02 -0.11902356261E+02  0.68622434512E+02  0.74201518596E+02  0.10566000000E+00 0. -1.
         13    1    4    4    0    0  0.18483959872E+02  0.89644145045E+01 -0.29661110411E+01  0.20756359958E+02  0.10566000000E+00 0. -1.
        -13    1    4    4    0    0  0.60050671074E+01  0.23545790297E+01 -0.74560281078E+00  0.64939942222E+01  0.10566000000E+00 0.  1.
         14    1    4    4    0    0  0.11068632184E+01  0.58336272725E+00  0.19399408534E+00  0.12661326790E+01  0.00000000000E+00 0. -1.
<mgrwt>
<rscale>  0 0.79450392E+02</rscale>
<asrwt>0</asrwt>
<pdfrwt beam="1">  1        1 0.12909440E-01 0.79450392E+02</pdfrwt>
<pdfrwt beam="2">  1       -2 0.28933301E-02 0.79450392E+02</pdfrwt>
<totfact> 0.14549261E+05</totfact>
</mgrwt>
</event>
<event>
 8    1  0.7756875E-018  0.7677529E+02  0.7818608E-02  0.1338460E+00
         -2   -1    0    0    0  501 -0.00000000000E+00  0.00000000000E+00  0.66550928997E+01  0.66550933883E+01  0.25500000000E-02 0.  1.
          1   -1    0    0  501    0  0.00000000000E+00 -0.00000000000E+00 -0.22142606796E+03  0.22142606802E+03  0.50400000000E-02 0. -1.
        -24    2    1    2    0    0 -0.35527136788E-14 -0.71054273576E-14 -0.21477097506E+03  0.22808116141E+03  0.76775285475E+02 0.  0.
         66    2    3    3    0    0 -0.18192613725E+02 -0.32301354448E+02 -0.13675558807E+03  0.14170546769E+03  0.20000030177E+01 0.  0.
         13    1    3    3    0    0  0.18192613725E+02  0.32301354448E+02 -0.78015386993E+02  0.86375693716E+02  0.10566000000E+00 0. -1.
         13    1    4    4    0    0 -0.69128069049E+01 -0.12662277352E+02 -0.56339457979E+02  0.58157251108E+02  0.10566000000E+00 0.  1.
        -13    1    4    4    0    0 -0.53958051811E+01 -0.10157042247E+02 -0.41101935994E+02  0.42680915258E+02  0.10566000000E+00 0. -1.
        -14    1    4    4    0    0 -0.58840016387E+01 -0.94820348495E+01 -0.39314194096E+02  0.40867301325E+02  0.00000000000E+00 0.  1.
<mgrwt>
<rscale>  0 0.76775285E+02</rscale>
<asrwt>0</asrwt>
<pdfrwt beam="1">  1        1 0.34065543E-01 0.76775285E+02</pdfrwt>
<pdfrwt beam="2">  1       -2 0.10238607E-02 0.76775285E+02</pdfrwt>
<totfact> 0.18962173E+05</totfact>
</mgrwt>
</event>
<event>
 8    1  0.7756875E-018  0.7897669E+02  0.7818608E-02  0.1331981E+00
         -2   -1    0    0    0  501 -0.00000000000E+00  0.00000000000E+00  0.78279501324E+02  0.78279501366E+02  0.25500000000E-02 0.  1.
          1   -1    0    0  501    0  0.00000000000E+00 -0.00000000000E+00 -0.19920021270E+02  0.19920021907E+02  0.50400000000E-02 0. -1.
        -24    2    1    2    0    0 -0.17763568394E-14  0.00000000000E+00  0.58359480055E+02  0.98199523273E+02  0.78976689338E+02 0.  0.
         66    2    3    3    0    0 -0.15328491800E+02 -0.51500378458E+01  0.73957976036E+02  0.75731550699E+02  0.20000003238E+01 0.  0.
         13    1    3    3    0    0  0.15328491800E+02  0.51500378458E+01 -0.15598495981E+02  0.22467972574E+02  0.10566000000E+00 0. -1.
         13    1    4    4    0    0 -0.10530274315E+01 -0.38644975781E+00  0.34152839063E+01  0.35963228975E+01  0.10566000000E+00 0. -1.
        -13    1    4    4    0    0 -0.23187627168E+01 -0.47604295420E+00  0.10655552420E+02  0.10915825157E+02  0.10566000000E+00 0.  1.
        -14    1    4    4    0    0 -0.11956701652E+02 -0.42875451338E+01  0.59887139709E+02  0.61219402645E+02  0.00000000000E+00 0.  1.
<mgrwt>
<rscale>  0 0.78976689E+02</rscale>
<asrwt>0</asrwt>
<pdfrwt beam="1">  1        1 0.30646188E-02 0.78976689E+02</pdfrwt>
<pdfrwt beam="2">  1       -2 0.12043000E-01 0.78976689E+02</pdfrwt>
<totfact> 0.11602522E+05</totfact>
</mgrwt>
</event>
<event>
 8    1  0.7756875E-018  0.8094402E+02  0.7818608E-02  0.1326394E+00
          1   -1    0    0  501    0  0.00000000000E+00  0.00000000000E+00  0.16494397337E+02  0.16494398107E+02  0.50400000000E-02 0. -1.
         -2   -1    0    0    0  501 -0.00000000000E+00 -0.00000000000E+00 -0.99305439928E+02  0.99305439961E+02  0.25500000000E-02 0.  1.
        -24    2    1    2    0    0 -0.17763568394E-14  0.35527136788E-14 -0.82811042590E+02  0.11579983807E+03  0.80944015972E+02 0.  0.
         66    2    3    3    0    0 -0.11726533073E+02  0.24721116281E+02 -0.84046131296E+02  0.88410391629E+02  0.19999985036E+01 0.  0.
         13    1    3    3    0    0  0.11726533073E+02 -0.24721116281E+02  0.12350887058E+01  0.27389446439E+02  0.10566000000E+00 0. -1.
         13    1    4    4    0    0 -0.31054669591E+00  0.13436875249E+01 -0.34658455272E+01  0.37316463751E+01  0.10566000000E+00 0. -1.
        -13    1    4    4    0    0 -0.74633763664E+01  0.14794497833E+02 -0.50511905824E+02  0.53160539378E+02  0.10566000000E+00 0.  1.
        -14    1    4    4    0    0 -0.39526100110E+01  0.85829309228E+01 -0.30068379945E+02  0.31518205876E+02  0.00000000000E+00 0.  1.
<mgrwt>
<rscale>  0 0.80944016E+02</rscale>
<asrwt>0</asrwt>
<pdfrwt beam="1">  1        1 0.25375997E-02 0.80944016E+02</pdfrwt>
<pdfrwt beam="2">  1       -2 0.15277760E-01 0.80944016E+02</pdfrwt>
<totfact> 0.10316629E+05</totfact>
</mgrwt>
</event>
<event>
 8    1  0.7756875E-018  0.8310270E+02  0.7818608E-02  0.1320470E+00
         -2   -1    0    0    0  501 -0.00000000000E+00  0.00000000000E+00  0.34495130105E+02  0.34495130199E+02  0.25500000000E-02 0.  1.
          1   -1    0    0  501    0  0.00000000000E+00 -0.00000000000E+00 -0.50050974087E+02  0.50050974341E+02  0.50400000000E-02 0. -1.
        -24    2    1    2    0    0  0.00000000000E+00  0.35527136788E-14 -0.15555843982E+02  0.84546104540E+02  0.83102704594E+02 0.  0.
         66    2    3    3    0    0 -0.28068417609E+02 -0.25199442317E+02  0.98876725316E+01  0.39046306114E+02  0.19999982147E+01 0.  0.
         13    1    3    3    0    0  0.28068417609E+02  0.25199442317E+02 -0.25443516514E+02  0.45499798426E+02  0.10566000000E+00 0. -1.
         13    1    4    4    0    0 -0.42061382998E+01 -0.30156621385E+01  0.13810453767E+01  0.53576364097E+01  0.10566000000E+00 0. -1.
        -13    1    4    4    0    0 -0.93057297845E+01 -0.91145870744E+01  0.30330615470E+01  0.13374712361E+02  0.10566000000E+00 0.  1.
         14    1    4    4    0    0 -0.14556549525E+02 -0.13069193104E+02  0.54735656079E+01  0.20313957343E+02  0.00000000000E+00 0. -1.
<mgrwt>
<rscale>  0 0.83102705E+02</rscale>
<asrwt>0</asrwt>
<pdfrwt beam="1">  1        1 0.77001499E-02 0.83102705E+02</pdfrwt>
<pdfrwt beam="2">  1       -2 0.53069431E-02 0.83102705E+02</pdfrwt>
<totfact> 0.11833531E+05</totfact>
</mgrwt>
</event>
<event>
 8    1  0.7756875E-018  0.8026892E+02  0.7818608E-02  0.1328290E+00
          1   -1    0    0  501    0  0.00000000000E+00  0.00000000000E+00  0.36268219019E+02  0.36268219369E+02  0.50400000000E-02 0. -1.
         -2   -1    0    0    0  501 -0.00000000000E+00 -0.00000000000E+00 -0.44412844683E+02  0.44412844756E+02  0.25500000000E-02 0.  1.
        -24    2    1    2    0    0  0.00000000000E+00 -0.35527136788E-14 -0.81446256643E+01  0.80681064125E+02  0.80268917902E+02 0.  0.
         66    2    3    3    0    0  0.13814574390E+02  0.24712733633E+02 -0.32632123256E+02  0.43248319482E+02  0.20000001518E+01 0.  0.
         13    1    3    3    0    0 -0.13814574390E+02 -0.24712733633E+02  0.24487497592E+02  0.37432744643E+02  0.10566000000E+00 0. -1.
         13    1    4    4    0    0  0.78196646062E+00  0.16827342030E+01 -0.27185106976E+01  0.32931034590E+01  0.10566000000E+00 0. -1.
        -13    1    4    4    0    0  0.10158155922E+02  0.16969979423E+02 -0.22560883469E+02  0.30002882533E+02  0.10566000000E+00 0.  1.
        -14    1    4    4    0    0  0.28744520077E+01  0.60600200068E+01 -0.73527290897E+01  0.99523334899E+01  0.00000000000E+00 0.  1.
<mgrwt>
<rscale>  0 0.80268918E+02</rscale>
<asrwt>0</asrwt>
<pdfrwt beam="1">  1        1 0.55797260E-02 0.80268918E+02</pdfrwt>
<pdfrwt beam="2">  1       -2 0.68327454E-02 0.80268918E+02</pdfrwt>
<totfact> 0.12376325E+05</totfact>
</mgrwt>
</event>
<event>
 8    1  0.7756875E-018  0.7933555E+02  0.7818608E-02  0.1330948E+00
          1   -1    0    0  501    0  0.00000000000E+00  0.00000000000E+00  0.17922462491E+02  0.17922463199E+02  0.50400000000E-02 0. -1.
         -2   -1    0    0    0  501 -0.00000000000E+00 -0.00000000000E+00 -0.87796667279E+02  0.87796667316E+02  0.25500000000E-02 0.  1.
        -24    2    1    2    0    0  0.00000000000E+00  0.17763568394E-14 -0.69874204788E+02  0.10571913052E+03  0.79335553582E+02 0.  0.
         66    2    3    3    0    0  0.59006245873E+01  0.10162915305E+02 -0.85410648504E+02  0.86238512830E+02  0.19999997830E+01 0.  0.
         13    1    3    3    0    0 -0.59006245873E+01 -0.10162915305E+02  0.15536443716E+02  0.19480617685E+02  0.10566000000E+00 0. -1.
         13    1    4    4    0    0  0.13634879713E+01  0.13476308173E+01 -0.14561817846E+02  0.14687849103E+02  0.10566000000E+00 0. -1.
        -13    1    4    4    0    0  0.16523692186E+01  0.33184726923E+01 -0.31030377037E+02  0.31251208747E+02  0.10566000000E+00 0.  1.
         14    1    4    4    0    0  0.28847673973E+01  0.54968117954E+01 -0.39818453622E+02  0.40299454980E+02  0.00000000000E+00 0. -1.
<mgrwt>
<rscale>  0 0.79335554E+02</rscale>
<asrwt>0</asrwt>
<pdfrwt beam="1">  1        1 0.27573020E-02 0.79335554E+02</pdfrwt>
<pdfrwt beam="2">  1       -2 0.13507179E-01 0.79335554E+02</pdfrwt>
<totfact> 0.11182851E+05</totfact>
</mgrwt>
</event>
<event>
 8    1  0.7756875E-018  0.7391859E+02  0.7818608E-02  0.1347253E+00
         -2   -1    0    0    0  501 -0.00000000000E+00  0.00000000000E+00  0.28997355410E+02  0.28997355522E+02  0.25500000000E-02 0.  1.
          1   -1    0    0  501    0  0.00000000000E+00 -0.00000000000E+00 -0.47107382824E+02  0.47107383094E+02  0.50400000000E-02 0. -1.
        -24    2    1    2    0    0  0.00000000000E+00  0.00000000000E+00 -0.18110027414E+02  0.76104738616E+02  0.73918591348E+02 0.  0.
         66    2    3    3    0    0  0.36268681874E+02 -0.67572379260E+01 -0.10817082068E+02  0.38497880663E+02  0.20000004415E+01 0.  0.
         13    1    3    3    0    0 -0.36268681874E+02  0.67572379260E+01 -0.72929453465E+01  0.37606857954E+02  0.10566000000E+00 0. -1.
         13    1    4    4    0    0  0.55537548785E+01 -0.14855563392E+01 -0.17968090189E+01  0.60241810708E+01  0.10566000000E+00 0.  1.
        -13    1    4    4    0    0  0.43338471043E+01 -0.11842769296E+01 -0.10784484193E+01  0.46215752291E+01  0.10566000000E+00 0.  1.
         14    1    4    4    0    0  0.26381079892E+02 -0.40874046572E+01 -0.79418246293E+01  0.27852124363E+02  0.00000000000E+00 0. -1.
<mgrwt>
<rscale>  0 0.73918591E+02</rscale>
<asrwt>0</asrwt>
<pdfrwt beam="1">  1        1 0.72472897E-02 0.73918591E+02</pdfrwt>
<pdfrwt beam="2">  1       -2 0.44611316E-02 0.73918591E+02</pdfrwt>
<totfact> 0.16225165E+05</totfact>
</mgrwt>
</event>
<event>
 8    1  0.7756875E-018  0.7936413E+02  0.7818608E-02  0.1330866E+00
         -2   -1    0    0    0  501 -0.00000000000E+00  0.00000000000E+00  0.64837472838E+01  0.64837477852E+01  0.25500000000E-02 0.  1.
          1   -1    0    0  501    0  0.00000000000E+00 -0.00000000000E+00 -0.24286357457E+03  0.24286357462E+03  0.50400000000E-02 0. -1.
        -24    2    1    2    0    0  0.00000000000E+00  0.00000000000E+00 -0.23637982728E+03  0.24934732241E+03  0.79364125674E+02 0.  0.
         66    2    3    3    0    0 -0.33775094602E+02  0.19807214284E+02 -0.13803034378E+03  0.14349027341E+03  0.20000013319E+01 0.  0.
         13    1    3    3    0    0  0.33775094602E+02 -0.19807214284E+02 -0.98349483502E+02  0.10585704900E+03  0.10566000000E+00 0. -1.
         13    1    4    4    0    0 -0.26820478661E+01  0.12521246707E+01 -0.93894977898E+01  0.98455588834E+01  0.10566000000E+00 0. -1.
        -13    1    4    4    0    0 -0.22573172124E+02  0.12860041274E+02 -0.92179688390E+02  0.95770741236E+02  0.10566000000E+00 0.  1.
        -14    1    4    4    0    0 -0.85198746119E+01  0.56950483396E+01 -0.36461157604E+02  0.37873973290E+02  0.00000000000E+00 0.  1.
<mgrwt>
<rscale>  0 0.79364126E+02</rscale>
<asrwt>0</asrwt>
<pdfrwt beam="1">  1        1 0.37363620E-01 0.79364126E+02</pdfrwt>
<pdfrwt beam="2">  1       -2 0.99749981E-03 0.79364126E+02</pdfrwt>
<totfact> 0.17686588E+05</totfact>
</mgrwt>
</event>
<event>
 8    1  0.7756875E-018  0.7641503E+02  0.7818608E-02  0.1339544E+00
         -2   -1    0    0    0  501 -0.00000000000E+00  0.00000000000E+00  0.13494142681E+02  0.13494142922E+02  0.25500000000E-02 0.  1.
          1   -1    0    0  501    0  0.00000000000E+00 -0.00000000000E+00 -0.10818132262E+03  0.10818132273E+03  0.50400000000E-02 0. -1.
        -24    2    1    2    0    0  0.00000000000E+00  0.00000000000E+00 -0.94687179934E+02  0.12167546565E+03  0.76415030579E+02 0.  0.
         66    2    3    3    0    0 -0.20425658244E+02  0.30500125921E+02 -0.30649670654E+02  0.47863007663E+02  0.19999988801E+01 0.  0.
         13    1    3    3    0    0  0.20425658244E+02 -0.30500125921E+02 -0.64037509280E+02  0.73812457991E+02  0.10566000000E+00 0. -1.
         13    1    4    4    0    0 -0.42379974071E+01  0.56735690105E+01 -0.64048131586E+01  0.95489686863E+01  0.10566000000E+00 0.  1.
        -13    1    4    4    0    0 -0.37707696609E+00  0.46008475959E+00 -0.68977021199E+00  0.91695801720E+00  0.10566000000E+00 0.  1.
        -14    1    4    4    0    0 -0.15810583871E+02  0.24366472151E+02 -0.23555087283E+02  0.37397080960E+02  0.00000000000E+00 0.  1.
<mgrwt>
<rscale>  0 0.76415031E+02</rscale>
<asrwt>0</asrwt>
<pdfrwt beam="1">  1        1 0.16643280E-01 0.76415031E+02</pdfrwt>
<pdfrwt beam="2">  1       -2 0.20760220E-02 0.76415031E+02</pdfrwt>
<totfact> 0.16850365E+05</totfact>
</mgrwt>
</event>
<event>
 8    1  0.7756875E-018  0.8378840E+02  0.7818608E-02  0.1318632E+00
         -2   -1    0    0    0  501 -0.00000000000E+00  0.00000000000E+00  0.51989932942E+03  0.51989932942E+03  0.25500000000E-02 0.  1.
          1   -1    0    0  501    0  0.00000000000E+00 -0.00000000000E+00 -0.33758903598E+01  0.33758941220E+01  0.50400000000E-02 0. -1.
        -24    2    1    2    0    0  0.35527136788E-14  0.17763568394E-14  0.51652343906E+03  0.52327522354E+03  0.83788403021E+02 0.  0.
         66    2    3    3    0    0 -0.21309790163E+02 -0.10828881888E+02  0.47309684741E+03  0.47370454808E+03  0.20000011720E+01 0.  0.
         13    1    3    3    0    0  0.21309790163E+02  0.10828881888E+02  0.43426591647E+02  0.49570675463E+02  0.10566000000E+00 0. -1.
         13    1    4    4    0    0 -0.38771312150E+01 -0.23795182548E+01  0.89530199139E+02  0.89645758268E+02  0.10566000000E+00 0. -1.
        -13    1    4    4    0    0 -0.64391701207E+01 -0.39534508347E+01  0.14611054309E+03  0.14630582576E+03  0.10566000000E+00 0.  1.
        -14    1    4    4    0    0 -0.10993488828E+02 -0.44959127981E+01  0.23745610518E+03  0.23775296405E+03  0.00000000000E+00 0.  1.
<mgrwt>
<rscale>  0 0.83788403E+02</rscale>
<asrwt>0</asrwt>
<pdfrwt beam="1">  1        1 0.51936824E-03 0.83788403E+02</pdfrwt>
<pdfrwt beam="2">  1       -2 0.79984481E-01 0.83788403E+02</pdfrwt>
<totfact> 0.43367223E+04</totfact>
</mgrwt>
</event>
<event>
 8    1  0.7756875E-018  0.8096004E+02  0.7818608E-02  0.1326349E+00
         -2   -1    0    0    0  501 -0.00000000000E+00  0.00000000000E+00  0.10295597209E+02  0.10295597525E+02  0.25500000000E-02 0.  1.
          1   -1    0    0  501    0  0.00000000000E+00 -0.00000000000E+00 -0.15915852510E+03  0.15915852517E+03  0.50400000000E-02 0. -1.
        -24    2    1    2    0    0  0.00000000000E+00 -0.71054273576E-14 -0.14886292789E+03  0.16945412270E+03  0.80960042003E+02 0.  0.
         66    2    3    3    0    0 -0.11584433332E+02  0.38217661914E+02 -0.88015200970E+02  0.96671942101E+02  0.20000025204E+01 0.  0.
         13    1    3    3    0    0  0.11584433332E+02 -0.38217661914E+02 -0.60847726916E+02  0.72782180598E+02  0.10566000000E+00 0. -1.
         13    1    4    4    0    0 -0.81809375839E+01  0.23889469057E+02 -0.56063613601E+02  0.61488002127E+02  0.10566000000E+00 0.  1.
        -13    1    4    4    0    0 -0.10455081899E+01  0.48674494067E+01 -0.11028400072E+02  0.12100492688E+02  0.10566000000E+00 0. -1.
        -14    1    4    4    0    0 -0.23579875579E+01  0.94607434500E+01 -0.20923187297E+02  0.23083447286E+02  0.00000000000E+00 0.  1.
<mgrwt>
<rscale>  0 0.80960042E+02</rscale>
<asrwt>0</asrwt>
<pdfrwt beam="1">  1        1 0.24485925E-01 0.80960042E+02</pdfrwt>
<pdfrwt beam="2">  1       -2 0.15839382E-02 0.80960042E+02</pdfrwt>
<totfact> 0.15462613E+05</totfact>
</mgrwt>
</event>
<event>
 8    1  0.7756875E-018  0.7814568E+02  0.7818608E-02  0.1334398E+00
          1   -1    0    0  501    0  0.00000000000E+00  0.00000000000E+00  0.46125207971E+02  0.46125208246E+02  0.50400000000E-02 0. -1.
         -2   -1    0    0    0  501 -0.00000000000E+00 -0.00000000000E+00 -0.33098753877E+02  0.33098753975E+02  0.25500000000E-02 0.  1.
        -24    2    1    2    0    0 -0.35527136788E-14  0.00000000000E+00  0.13026454094E+02  0.79223962221E+02  0.78145682439E+02 0.  0.
         66    2    3    3    0    0 -0.27385569995E+02 -0.80534588441E+01 -0.20493240792E+02  0.35196598541E+02  0.19999968441E+01 0.  0.
         13    1    3    3    0    0  0.27385569995E+02  0.80534588441E+01  0.33519694886E+02  0.44027363680E+02  0.10566000000E+00 0. -1.
         13    1    4    4    0    0 -0.22829455626E+01 -0.85917379182E+00 -0.13636143414E+01  0.27965386023E+01  0.10566000000E+00 0. -1.
        -13    1    4    4    0    0 -0.20695937822E+02 -0.60592446777E+01 -0.15148212405E+02  0.26353667515E+02  0.10566000000E+00 0.  1.
         14    1    4    4    0    0 -0.44066866102E+01 -0.11350403746E+01 -0.39814140459E+01  0.60463924234E+01  0.00000000000E+00 0. -1.
<mgrwt>
<rscale>  0 0.78145682E+02</rscale>
<asrwt>0</asrwt>
<pdfrwt beam="1">  1        1 0.70961858E-02 0.78145682E+02</pdfrwt>
<pdfrwt beam="2">  1       -2 0.50921160E-02 0.78145682E+02</pdfrwt>
<totfact> 0.13868439E+05</totfact>
</mgrwt>
</event>
<event>
 8    1  0.7932708E-018  0.7943492E+02  0.7818608E-02  0.1330663E+00
         -2   -1    0    0    0  501 -0.00000000000E+00  0.00000000000E+00  0.13504768704E+03  0.13504768707E+03  0.25500000000E-02 0.  1.
          1   -1    0    0  501    0  0.00000000000E+00 -0.00000000000E+00 -0.11680885672E+02  0.11680886760E+02  0.50400000000E-02 0. -1.
        -24    2    1    2    0    0  0.00000000000E+00  0.88817841970E-15  0.12336680137E+03  0.14672857383E+03  0.79434921142E+02 0.  0.
         66    2    3    3    0    0  0.14936361675E+02 -0.64330600101E+01  0.12860348397E+03  0.12964310720E+03  0.19999986937E+01 0.  0.
         13    1    3    3    0    0 -0.14936361675E+02  0.64330600101E+01 -0.52366825973E+01  0.17085466626E+02  0.10566000000E+00 0. -1.
         13    1    4    4    0    0  0.81693860298E+01 -0.41307752316E+01  0.67861309088E+02  0.68476058643E+02  0.10566000000E+00 0. -1.
        -13    1    4    4    0    0  0.52054539082E+01 -0.21288937980E+01  0.47082664198E+02  0.47417479595E+02  0.10566000000E+00 0.  1.
         14    1    4    4    0    0  0.15615217365E+01 -0.17339098045E+00  0.13659510683E+02  0.13749568963E+02  0.00000000000E+00 0. -1.
<mgrwt>
<rscale>  0 0.79434921E+02</rscale>
<asrwt>0</asrwt>
<pdfrwt beam="1">  1        1 0.17970594E-02 0.79434921E+02</pdfrwt>
<pdfrwt beam="2">  1       -2 0.20776568E-01 0.79434921E+02</pdfrwt>
<totfact> 0.99502564E+04</totfact>
</mgrwt>
</event>
<event>
 8    1  0.7756875E-018  0.7072408E+02  0.7818608E-02  0.1357648E+00
         -2   -1    0    0    0  501 -0.00000000000E+00  0.00000000000E+00  0.17662753331E+01  0.17662771738E+01  0.25500000000E-02 0.  1.
          1   -1    0    0  501    0  0.00000000000E+00 -0.00000000000E+00 -0.70797187784E+03  0.70797187785E+03  0.50400000000E-02 0. -1.
        -24    2    1    2    0    0  0.00000000000E+00  0.00000000000E+00 -0.70620560250E+03  0.70973815503E+03  0.70724081441E+02 0.  0.
         66    2    3    3    0    0 -0.26863879038E+02 -0.11727371514E+02 -0.55138031192E+03  0.55216251920E+03  0.19999981402E+01 0.  0.
         13    1    3    3    0    0  0.26863879038E+02  0.11727371514E+02 -0.15482529058E+03  0.15757563583E+03  0.10566000000E+00 0. -1.
         13    1    4    4    0    0 -0.51938836331E+01 -0.16537505568E+01 -0.10922123732E+03  0.10935721816E+03  0.10566000000E+00 0. -1.
        -13    1    4    4    0    0 -0.18147703986E+02 -0.85257721202E+01 -0.36484609714E+03  0.36539665258E+03  0.10566000000E+00 0.  1.
        -14    1    4    4    0    0 -0.35222914188E+01 -0.15478488373E+01 -0.77312977454E+02  0.77408648455E+02  0.00000000000E+00 0.  1.
<mgrwt>
<rscale>  0 0.70724081E+02</rscale>
<asrwt>0</asrwt>
<pdfrwt beam="1">  1        1 0.10891852E+00 0.70724081E+02</pdfrwt>
<pdfrwt beam="2">  1       -2 0.27173537E-03 0.70724081E+02</pdfrwt>
<totfact> 0.27567964E+05</totfact>
</mgrwt>
</event>
<event>
 8    1  0.7756875E-018  0.7852940E+02  0.7818608E-02  0.1333277E+00
         -2   -1    0    0    0  501 -0.00000000000E+00  0.00000000000E+00  0.55027240341E+01  0.55027246249E+01  0.25500000000E-02 0.  1.
          1   -1    0    0  501    0  0.00000000000E+00 -0.00000000000E+00 -0.28017330539E+03  0.28017330544E+03  0.50400000000E-02 0. -1.
        -24    2    1    2    0    0  0.00000000000E+00  0.00000000000E+00 -0.27467058136E+03  0.28567603006E+03  0.78529395061E+02 0.  0.
         66    2    3    3    0    0  0.12972110818E+02  0.34370312581E+02 -0.87264692450E+02  0.94703329376E+02  0.20000001267E+01 0.  0.
         13    1    3    3    0    0 -0.12972110818E+02 -0.34370312581E+02 -0.18740588891E+03  0.19097270069E+03  0.10566000000E+00 0. -1.
         13    1    4    4    0    0  0.20469884519E+01  0.51325527742E+01 -0.14729215677E+02  0.15731948964E+02  0.10566000000E+00 0. -1.
        -13    1    4    4    0    0  0.92750177121E+01  0.25670311352E+02 -0.63192035649E+02  0.68834841264E+02  0.10566000000E+00 0.  1.
        -14    1    4    4    0    0  0.16501046543E+01  0.35674484552E+01 -0.93434411240E+01  0.10136539147E+02  0.00000000000E+00 0.  1.
<mgrwt>
<rscale>  0 0.78529395E+02</rscale>
<asrwt>0</asrwt>
<pdfrwt beam="1">  1        1 0.43103575E-01 0.78529395E+02</pdfrwt>
<pdfrwt beam="2">  1       -2 0.84657319E-03 0.78529395E+02</pdfrwt>
<totfact> 0.18698905E+05</totfact>
</mgrwt>
</event>
<event>
 8    1  0.7756875E-018  0.7532511E+02  0.7818608E-02  0.1342867E+00
          1   -1    0    0  501    0  0.00000000000E+00  0.00000000000E+00  0.86566969618E+02  0.86566969765E+02  0.50400000000E-02 0. -1.
         -2   -1    0    0    0  501 -0.00000000000E+00 -0.00000000000E+00 -0.16385788125E+02  0.16385788323E+02  0.25500000000E-02 0.  1.
        -24    2    1    2    0    0  0.71054273576E-14  0.00000000000E+00  0.70181181493E+02  0.10295275809E+03  0.75325109772E+02 0.  0.
         66    2    3    3    0    0  0.32592506059E+02 -0.18767144105E+02  0.33189122345E+02  0.50199551995E+02  0.20000073361E+01 0.  0.
         13    1    3    3    0    0 -0.32592506059E+02  0.18767144105E+02  0.36992059148E+02  0.52753206093E+02  0.10566000000E+00 0. -1.
         13    1    4    4    0    0  0.99295136785E+01 -0.55010581197E+01  0.11060554761E+02  0.15849413805E+02  0.10566000000E+00 0. -1.
        -13    1    4    4    0    0  0.16677693815E+02 -0.94351749067E+01  0.16424041490E+02  0.25237438448E+02  0.10566000000E+00 0.  1.
         14    1    4    4    0    0  0.59852985660E+01 -0.38309110791E+01  0.57045260943E+01  0.91126997415E+01  0.00000000000E+00 0. -1.
<mgrwt>
<rscale>  0 0.75325110E+02</rscale>
<asrwt>0</asrwt>
<pdfrwt beam="1">  1        1 0.13317996E-01 0.75325110E+02</pdfrwt>
<pdfrwt beam="2">  1       -2 0.25208904E-02 0.75325110E+02</pdfrwt>
<totfact> 0.16889970E+05</totfact>
</mgrwt>
</event>
<event>
 8    1  0.7756875E-018  0.7933815E+02  0.7818608E-02  0.1330940E+00
          1   -1    0    0  501    0  0.00000000000E+00  0.00000000000E+00  0.92809604480E+02  0.92809604617E+02  0.50400000000E-02 0. -1.
         -2   -1    0    0    0  501 -0.00000000000E+00 -0.00000000000E+00 -0.16955526265E+02  0.16955526457E+02  0.25500000000E-02 0.  1.
        -24    2    1    2    0    0 -0.17763568394E-14 -0.22204460493E-15  0.75854078215E+02  0.10976513107E+03  0.79338154867E+02 0.  0.
         66    2    3    3    0    0  0.15543483382E+02  0.15067996972E+01 -0.12461882872E+02  0.20079064888E+02  0.20000002799E+01 0.  0.
         13    1    3    3    0    0 -0.15543483382E+02 -0.15067996972E+01  0.88315961087E+02  0.89686066185E+02  0.10566000000E+00 0. -1.
         13    1    4    4    0    0  0.83120401756E+00  0.43363625851E+00 -0.46561428828E+00  0.10520937337E+01  0.10566000000E+00 0. -1.
        -13    1    4    4    0    0  0.11090037399E+02  0.54924499236E+00 -0.88142789030E+01  0.14177209746E+02  0.10566000000E+00 0.  1.
         14    1    4    4    0    0  0.36222419653E+01  0.52391844629E+00 -0.31819896808E+01  0.48497614088E+01  0.00000000000E+00 0. -1.
<mgrwt>
<rscale>  0 0.79338155E+02</rscale>
<asrwt>0</asrwt>
<pdfrwt beam="1">  1        1 0.14278401E-01 0.79338155E+02</pdfrwt>
<pdfrwt beam="2">  1       -2 0.26085425E-02 0.79338155E+02</pdfrwt>
<totfact> 0.14847466E+05</totfact>
</mgrwt>
</event>
<event>
 8    1  0.7756875E-018  0.7693456E+02  0.7818608E-02  0.1337983E+00
          1   -1    0    0  501    0  0.00000000000E+00  0.00000000000E+00  0.13574194820E+03  0.13574194829E+03  0.50400000000E-02 0. -1.
         -2   -1    0    0    0  501 -0.00000000000E+00 -0.00000000000E+00 -0.10901064409E+02  0.10901064707E+02  0.25500000000E-02 0.  1.
        -24    2    1    2    0    0  0.00000000000E+00 -0.35527136788E-14  0.12484088379E+03  0.14664301300E+03  0.76934563078E+02 0.  0.
         66    2    3    3    0    0  0.23767410826E+02 -0.22909142163E+02  0.24916794847E+02  0.41407309327E+02  0.19999970783E+01 0.  0.
         13    1    3    3    0    0 -0.23767410826E+02  0.22909142163E+02  0.99924088944E+02  0.10523570367E+03  0.10566000000E+00 0. -1.
         13    1    4    4    0    0  0.87625271614E+00 -0.13656734906E+01  0.13420581567E+01  0.21083564777E+01  0.10566000000E+00 0. -1.
        -13    1    4    4    0    0  0.18221033769E+02 -0.16797747458E+02  0.18413218961E+02  0.30874393723E+02  0.10566000000E+00 0.  1.
         14    1    4    4    0    0  0.46701243410E+01 -0.47457212145E+01  0.51615177292E+01  0.84245591264E+01  0.00000000000E+00 0. -1.
<mgrwt>
<rscale>  0 0.76934563E+02</rscale>
<asrwt>0</asrwt>
<pdfrwt beam="1">  1        1 0.20883378E-01 0.76934563E+02</pdfrwt>
<pdfrwt beam="2">  1       -2 0.16770868E-02 0.76934563E+02</pdfrwt>
<totfact> 0.17209369E+05</totfact>
</mgrwt>
</event>
<event>
 8    1  0.7756875E-018  0.7914362E+02  0.7818608E-02  0.1331499E+00
          1   -1    0    0  501    0  0.00000000000E+00  0.00000000000E+00  0.51480041593E+01  0.51480066264E+01  0.50400000000E-02 0. -1.
         -2   -1    0    0    0  501 -0.00000000000E+00 -0.00000000000E+00 -0.30418155860E+03  0.30418155861E+03  0.25500000000E-02 0.  1.
        -24    2    1    2    0    0 -0.35527136788E-14 -0.17763568394E-14 -0.29903355444E+03  0.30932956523E+03  0.79143624180E+02 0.  0.
         66    2    3    3    0    0  0.31561196480E+02  0.87590336960E+01 -0.23622589740E+03  0.23849424395E+03  0.20000003769E+01 0.  0.
         13    1    3    3    0    0 -0.31561196480E+02 -0.87590336960E+01 -0.62807657042E+02  0.70835321286E+02  0.10566000000E+00 0. -1.
         13    1    4    4    0    0  0.77037522782E+00  0.13763481347E+00 -0.73148334206E+01  0.73573346628E+01  0.10566000000E+00 0.  1.
        -13    1    4    4    0    0  0.92598177612E+01  0.29836709755E+01 -0.66538545408E+02  0.67246083206E+02  0.10566000000E+00 0.  1.
        -14    1    4    4    0    0  0.21531003491E+02  0.56377279071E+01 -0.16237251857E+03  0.16389082608E+03  0.00000000000E+00 0.  1.
<mgrwt>
<rscale>  0 0.79143624E+02</rscale>
<asrwt>0</asrwt>
<pdfrwt beam="1">  1        1 0.79200107E-03 0.79143624E+02</pdfrwt>
<pdfrwt beam="2">  1       -2 0.46797149E-01 0.79143624E+02</pdfrwt>
<totfact> 0.71705841E+04</totfact>
</mgrwt>
</event>
<event>
 8    1  0.7756875E-018  0.8573474E+02  0.7818608E-02  0.1313522E+00
          1   -1    0    0  501    0  0.00000000000E+00  0.00000000000E+00  0.37104094527E+02  0.37104094870E+02  0.50400000000E-02 0. -1.
         -2   -1    0    0    0  501 -0.00000000000E+00 -0.00000000000E+00 -0.49525839427E+02  0.49525839493E+02  0.25500000000E-02 0.  1.
        -24    2    1    2    0    0  0.00000000000E+00  0.00000000000E+00 -0.12421744900E+02  0.86629934362E+02  0.85734740807E+02 0.  0.
         66    2    3    3    0    0  0.27705623637E+02  0.52336198177E+01 -0.38809618364E+02  0.48012277941E+02  0.19999994931E+01 0.  0.
         13    1    3    3    0    0 -0.27705623637E+02 -0.52336198177E+01  0.26387873464E+02  0.38617656422E+02  0.10566000000E+00 0. -1.
         13    1    4    4    0    0  0.11846533729E+02  0.20432957914E+01 -0.17689064040E+02  0.21387603178E+02  0.10566000000E+00 0. -1.
        -13    1    4    4    0    0  0.13855075750E+02  0.27888548798E+01 -0.18991498703E+02  0.23673382154E+02  0.10566000000E+00 0.  1.
         14    1    4    4    0    0  0.20040141582E+01  0.40146914661E+00 -0.21290556215E+01  0.29512926086E+01  0.00000000000E+00 0. -1.
<mgrwt>
<rscale>  0 0.85734741E+02</rscale>
<asrwt>0</asrwt>
<pdfrwt beam="1">  1        1 0.57083222E-02 0.85734741E+02</pdfrwt>
<pdfrwt beam="2">  1       -2 0.76193600E-02 0.85734741E+02</pdfrwt>
<totfact> 0.10295484E+05</totfact>
</mgrwt>
</event>
<event>
 8    1  0.7756875E-018  0.8250474E+02  0.7818608E-02  0.1322090E+00
         -2   -1    0    0    0  501 -0.00000000000E+00  0.00000000000E+00  0.13703871019E+02  0.13703871256E+02  0.25500000000E-02 0.  1.
          1   -1    0    0  501    0  0.00000000000E+00 -0.00000000000E+00 -0.12418082498E+03  0.12418082509E+03  0.50400000000E-02 0. -1.
        -24    2    1    2    0    0  0.00000000000E+00  0.35527136788E-14 -0.11047695396E+03  0.13788469634E+03  0.82504740034E+02 0.  0.
         66    2    3    3    0    0  0.27119148351E+02 -0.30802241380E+02 -0.48685516794E+02  0.63706403339E+02  0.19999998699E+01 0.  0.
         13    1    3    3    0    0 -0.27119148351E+02  0.30802241380E+02 -0.61791437171E+02  0.74178293004E+02  0.10566000000E+00 0. -1.
         13    1    4    4    0    0  0.70134354057E+01 -0.86606617606E+01 -0.12223133821E+02  0.16541206207E+02  0.10566000000E+00 0. -1.
        -13    1    4    4    0    0  0.12237978375E+02 -0.13082369769E+02 -0.21449784259E+02  0.27946751551E+02  0.10566000000E+00 0.  1.
         14    1    4    4    0    0  0.78677345706E+01 -0.90592098507E+01 -0.15012598714E+02  0.19218445581E+02  0.00000000000E+00 0. -1.
<mgrwt>
<rscale>  0 0.82504740E+02</rscale>
<asrwt>0</asrwt>
<pdfrwt beam="1">  1        1 0.19104742E-01 0.82504740E+02</pdfrwt>
<pdfrwt beam="2">  1       -2 0.21082879E-02 0.82504740E+02</pdfrwt>
<totfact> 0.14043673E+05</totfact>
</mgrwt>
</event>
<event>
 8    1  0.7756875E-018  0.7687537E+02  0.7818608E-02  0.1338160E+00
         -2   -1    0    0    0  501 -0.00000000000E+00  0.00000000000E+00  0.84389656757E+01  0.84389660609E+01  0.25500000000E-02 0.  1.
          1   -1    0    0  501    0  0.00000000000E+00 -0.00000000000E+00 -0.17507541225E+03  0.17507541232E+03  0.50400000000E-02 0. -1.
        -24    2    1    2    0    0  0.00000000000E+00 -0.71054273576E-14 -0.16663644658E+03  0.18351437839E+03  0.76875365018E+02 0.  0.
         66    2    3    3    0    0  0.18799908907E+02 -0.32728918349E+02 -0.66354798147E+02  0.76364768741E+02  0.19999991408E+01 0.  0.
         13    1    3    3    0    0 -0.18799908907E+02  0.32728918349E+02 -0.10028164843E+03  0.10714960964E+03  0.10566000000E+00 0. -1.
         13    1    4    4    0    0  0.65216222285E+01 -0.99112309823E+01 -0.21039612033E+02  0.24154512924E+02  0.10566000000E+00 0. -1.
        -13    1    4    4    0    0  0.71321488728E+01 -0.14291289627E+02 -0.27863261782E+02  0.32116678345E+02  0.10566000000E+00 0.  1.
        -14    1    4    4    0    0  0.51461378060E+01 -0.85263977394E+01 -0.17451924332E+02  0.20093577472E+02  0.00000000000E+00 0.  1.
<mgrwt>
<rscale>  0 0.76875365E+02</rscale>
<asrwt>0</asrwt>
<pdfrwt beam="1">  1        1 0.26934676E-01 0.76875365E+02</pdfrwt>
<pdfrwt beam="2">  1       -2 0.12983026E-02 0.76875365E+02</pdfrwt>
<totfact> 0.18066424E+05</totfact>
</mgrwt>
</event>
<event>
 8    1  0.7756875E-018  0.7952224E+02  0.7818608E-02  0.1330413E+00
          1   -1    0    0  501    0  0.00000000000E+00  0.00000000000E+00  0.19591587771E+02  0.19591588419E+02  0.50400000000E-02 0. -1.
         -2   -1    0    0    0  501 -0.00000000000E+00 -0.00000000000E+00 -0.80695178230E+02  0.80695178270E+02  0.25500000000E-02 0.  1.
        -24    2    1    2    0    0  0.17763568394E-14  0.71054273576E-14 -0.61103590459E+02  0.10028676669E+03  0.79522240951E+02 0.  0.
         66    2    3    3    0    0  0.10823932106E+02  0.37726603999E+02 -0.38394824881E+02  0.54941939490E+02  0.19999954300E+01 0.  0.
         13    1    3    3    0    0 -0.10823932106E+02 -0.37726603999E+02 -0.22708765578E+02  0.45344827199E+02  0.10566000000E+00 0. -1.
         13    1    4    4    0    0  0.87051083263E+00  0.22746719844E+01 -0.22922904861E+01  0.33462936893E+01  0.10566000000E+00 0. -1.
        -13    1    4    4    0    0  0.90718438564E+01  0.31474886381E+02 -0.32748805552E+02  0.46319134844E+02  0.10566000000E+00 0.  1.
        -14    1    4    4    0    0  0.88157741667E+00  0.39770456345E+01 -0.33537288435E+01  0.52765109567E+01  0.00000000000E+00 0.  1.
<mgrwt>
<rscale>  0 0.79522241E+02</rscale>
<asrwt>0</asrwt>
<pdfrwt beam="1">  1        1 0.30140905E-02 0.79522241E+02</pdfrwt>
<pdfrwt beam="2">  1       -2 0.12414643E-01 0.79522241E+02</pdfrwt>
<totfact> 0.11326693E+05</totfact>
</mgrwt>
</event>
<event>
 8    1  0.7756875E-018  0.7588159E+02  0.7818608E-02  0.1341163E+00
         -2   -1    0    0    0  501 -0.00000000000E+00  0.00000000000E+00  0.97288612320E+01  0.97288615662E+01  0.25500000000E-02 0.  1.
          1   -1    0    0  501    0  0.00000000000E+00 -0.00000000000E+00 -0.14796223763E+03  0.14796223771E+03  0.50400000000E-02 0. -1.
        -24    2    1    2    0    0  0.00000000000E+00  0.11102230246E-15 -0.13823337640E+03  0.15769109928E+03  0.75881594885E+02 0.  0.
         66    2    3    3    0    0 -0.37381516199E+02  0.88234211819E+00 -0.56129775966E+02  0.67473758106E+02  0.20000005061E+01 0.  0.
         13    1    3    3    0    0  0.37381516199E+02 -0.88234211819E+00 -0.82103600431E+02  0.90217341175E+02  0.10566000000E+00 0. -1.
         13    1    4    4    0    0 -0.44864863668E+01 -0.15916968315E+00 -0.59771002048E+01  0.74760140317E+01  0.10566000000E+00 0. -1.
        -13    1    4    4    0    0 -0.12788593663E+02  0.27538291473E+00 -0.18537174339E+02  0.22522476776E+02  0.10566000000E+00 0.  1.
        -14    1    4    4    0    0 -0.20106436169E+02  0.76612888662E+00 -0.31615501422E+02  0.37475267298E+02  0.00000000000E+00 0.  1.
<mgrwt>
<rscale>  0 0.75881595E+02</rscale>
<asrwt>0</asrwt>
<pdfrwt beam="1">  1        1 0.22763420E-01 0.75881595E+02</pdfrwt>
<pdfrwt beam="2">  1       -2 0.14967480E-02 0.75881595E+02</pdfrwt>
<totfact> 0.18130405E+05</totfact>
</mgrwt>
</event>
<event>
 8    1  0.7756875E-018  0.7979741E+02  0.7818608E-02  0.1329627E+00
          1   -1    0    0  501    0  0.00000000000E+00  0.00000000000E+00  0.33167303997E+01  0.33167342290E+01  0.50400000000E-02 0. -1.
         -2   -1    0    0    0  501 -0.00000000000E+00 -0.00000000000E+00 -0.47996230334E+03  0.47996230335E+03  0.25500000000E-02 0.  1.
        -24    2    1    2    0    0  0.71054273576E-14  0.35527136788E-14 -0.47664557294E+03  0.48327903758E+03  0.79797405700E+02 0.  0.
         66    2    3    3    0    0  0.32190478555E+02  0.18735264139E+02 -0.32469009342E+03  0.32682547912E+03  0.20000018982E+01 0.  0.
         13    1    3    3    0    0 -0.32190478555E+02 -0.18735264139E+02 -0.15195547952E+03  0.15645355846E+03  0.10566000000E+00 0. -1.
         13    1    4    4    0    0  0.65182071454E+01  0.43759624387E+01 -0.67970815780E+02  0.68422796154E+02  0.10566000000E+00 0. -1.
        -13    1    4    4    0    0  0.17634065484E+02  0.10146373641E+02 -0.17230805220E+03  0.17350500045E+03  0.10566000000E+00 0.  1.
         14    1    4    4    0    0  0.80382059258E+01  0.42129280592E+01 -0.84411225434E+02  0.84897682516E+02  0.00000000000E+00 0. -1.
<mgrwt>
<rscale>  0 0.79797406E+02</rscale>
<asrwt>0</asrwt>
<pdfrwt beam="1">  1        1 0.51026689E-03 0.79797406E+02</pdfrwt>
<pdfrwt beam="2">  1       -2 0.73840299E-01 0.79797406E+02</pdfrwt>
<totfact> 0.52314382E+04</totfact>
</mgrwt>
</event>
<event>
 8    1  0.7756875E-018  0.8051172E+02  0.7818608E-02  0.1327605E+00
          1   -1    0    0  501    0  0.00000000000E+00  0.00000000000E+00  0.38824829516E+02  0.38824829843E+02  0.50400000000E-02 0. -1.
         -2   -1    0    0    0  501 -0.00000000000E+00 -0.00000000000E+00 -0.41739633919E+02  0.41739633997E+02  0.25500000000E-02 0.  1.
        -24    2    1    2    0    0 -0.35527136788E-14 -0.35527136788E-14 -0.29148044030E+01  0.80564463841E+02  0.80511718086E+02 0.  0.
         66    2    3    3    0    0 -0.21889857404E+02 -0.28512552036E+02 -0.19536615938E+02  0.40961089445E+02  0.20000013768E+01 0.  0.
         13    1    3    3    0    0  0.21889857404E+02  0.28512552036E+02  0.16621811535E+02  0.39603374395E+02  0.10566000000E+00 0. -1.
         13    1    4    4    0    0 -0.89760587666E+00 -0.69322087229E+00 -0.75148633475E+00  0.13646051570E+01  0.10566000000E+00 0. -1.
        -13    1    4    4    0    0 -0.92178141829E+01 -0.12673806502E+02 -0.86040603306E+01  0.17878324523E+02  0.10566000000E+00 0.  1.
         14    1    4    4    0    0 -0.11774437344E+02 -0.15145524662E+02 -0.10181069273E+02  0.21718159765E+02  0.00000000000E+00 0. -1.
<mgrwt>
<rscale>  0 0.80511718E+02</rscale>
<asrwt>0</asrwt>
<pdfrwt beam="1">  1        1 0.59730508E-02 0.80511718E+02</pdfrwt>
<pdfrwt beam="2">  1       -2 0.64214821E-02 0.80511718E+02</pdfrwt>
<totfact> 0.12410408E+05</totfact>
</mgrwt>
</event>
<event>
 8    1  0.7756875E-018  0.7929370E+02  0.7818608E-02  0.1331068E+00
          1   -1    0    0  501    0  0.00000000000E+00  0.00000000000E+00  0.19651484095E+03  0.19651484101E+03  0.50400000000E-02 0. -1.
         -2   -1    0    0    0  501 -0.00000000000E+00 -0.00000000000E+00 -0.79987488025E+01  0.79987492090E+01  0.25500000000E-02 0.  1.
        -24    2    1    2    0    0  0.00000000000E+00  0.00000000000E+00  0.18851609214E+03  0.20451359022E+03  0.79293704589E+02 0.  0.
         66    2    3    3    0    0  0.12381035469E+02  0.25511349180E+02  0.22946040079E+02  0.36532721426E+02  0.20000007842E+01 0.  0.
         13    1    3    3    0    0 -0.12381035469E+02 -0.25511349180E+02  0.16557005206E+03  0.16798086879E+03  0.10566000000E+00 0. -1.
         13    1    4    4    0    0  0.29721629472E+01  0.48267709841E+01  0.43689932220E+01  0.71575649859E+01  0.10566000000E+00 0.  1.
        -13    1    4    4    0    0  0.28925079133E+01  0.76854132174E+01  0.65350955335E+01  0.10495275891E+02  0.10566000000E+00 0.  1.
         14    1    4    4    0    0  0.65163646083E+01  0.12999164979E+02  0.12041951324E+02  0.18879880549E+02  0.00000000000E+00 0. -1.
<mgrwt>
<rscale>  0 0.79293705E+02</rscale>
<asrwt>0</asrwt>
<pdfrwt beam="1">  1        1 0.30233056E-01 0.79293705E+02</pdfrwt>
<pdfrwt beam="2">  1       -2 0.12305766E-02 0.79293705E+02</pdfrwt>
<totfact> 0.17013009E+05</totfact>
</mgrwt>
</event>
<event>
 8    1  0.7756875E-018  0.8007378E+02  0.7818608E-02  0.1328842E+00
         -2   -1    0    0    0  501 -0.00000000000E+00  0.00000000000E+00  0.12250039166E+02  0.12250039431E+02  0.25500000000E-02 0.  1.
          1   -1    0    0  501    0  0.00000000000E+00 -0.00000000000E+00 -0.13085285572E+03  0.13085285581E+03  0.50400000000E-02 0. -1.
        -24    2    1    2    0    0 -0.35527136788E-14  0.35527136788E-14 -0.11860281655E+03  0.14310289525E+03  0.80073781812E+02 0.  0.
         66    2    3    3    0    0  0.31520382332E+02 -0.23424043209E+02 -0.73033815632E+02  0.82946720903E+02  0.19999950394E+01 0.  0.
         13    1    3    3    0    0 -0.31520382332E+02  0.23424043209E+02 -0.45569000920E+02  0.60156174343E+02  0.10566000000E+00 0. -1.
         13    1    4    4    0    0  0.88652586906E+01 -0.60921233025E+01 -0.21556003616E+02  0.24091061287E+02  0.10566000000E+00 0. -1.
        -13    1    4    4    0    0  0.16859850702E+02 -0.13188089055E+02 -0.38375738784E+02  0.43941879225E+02  0.10566000000E+00 0.  1.
        -14    1    4    4    0    0  0.57952729397E+01 -0.41438308519E+01 -0.13102073231E+02  0.14913780390E+02  0.00000000000E+00 0.  1.
<mgrwt>
<rscale>  0 0.80073782E+02</rscale>
<asrwt>0</asrwt>
<pdfrwt beam="1">  1        1 0.20131208E-01 0.80073782E+02</pdfrwt>
<pdfrwt beam="2">  1       -2 0.18846215E-02 0.80073782E+02</pdfrwt>
<totfact> 0.15363078E+05</totfact>
</mgrwt>
</event>
<event>
 8    1  0.7756875E-018  0.8000736E+02  0.7818608E-02  0.1329031E+00
          1   -1    0    0  501    0  0.00000000000E+00  0.00000000000E+00  0.91150354653E+02  0.91150354792E+02  0.50400000000E-02 0. -1.
         -2   -1    0    0    0  501 -0.00000000000E+00 -0.00000000000E+00 -0.17556644990E+02  0.17556645175E+02  0.25500000000E-02 0.  1.
        -24    2    1    2    0    0 -0.22204460493E-15 -0.35527136788E-14  0.73593709663E+02  0.10870699997E+03  0.80007360536E+02 0.  0.
         66    2    3    3    0    0  0.19535140549E+01  0.25090398587E+02 -0.53866711091E+01  0.25813960275E+02  0.20000002629E+01 0.  0.
         13    1    3    3    0    0 -0.19535140549E+01 -0.25090398587E+02  0.78980380772E+02  0.82893039692E+02  0.10566000000E+00 0. -1.
         13    1    4    4    0    0 -0.35625927221E+00  0.32974143533E+01 -0.56714309678E+00  0.33664042262E+01  0.10566000000E+00 0.  1.
        -13    1    4    4    0    0  0.22141679502E+01  0.21423354071E+02 -0.47945964591E+01  0.22064948643E+02  0.10566000000E+00 0. -1.
         14    1    4    4    0    0  0.95605376902E-01  0.36963016245E+00 -0.24931553255E-01  0.38260740640E+00  0.00000000000E+00 0. -1.
<mgrwt>
<rscale>  0 0.80007361E+02</rscale>
<asrwt>0</asrwt>
<pdfrwt beam="1">  1        1 0.14023131E-01 0.80007361E+02</pdfrwt>
<pdfrwt beam="2">  1       -2 0.27010224E-02 0.80007361E+02</pdfrwt>
<totfact> 0.14470383E+05</totfact>
</mgrwt>
</event>
<event>
 8    1  0.7756875E-018  0.7899733E+02  0.7818608E-02  0.1331921E+00
          1   -1    0    0  501    0  0.00000000000E+00  0.00000000000E+00  0.25623348650E+03  0.25623348655E+03  0.50400000000E-02 0. -1.
         -2   -1    0    0    0  501 -0.00000000000E+00 -0.00000000000E+00 -0.60887615614E+01  0.60887620953E+01  0.25500000000E-02 0.  1.
        -24    2    1    2    0    0  0.00000000000E+00  0.00000000000E+00  0.25014472494E+03  0.26232224865E+03  0.78997333623E+02 0.  0.
         66    2    3    3    0    0  0.41292812180E+01 -0.38857428362E+02  0.10660744055E+03  0.11356098394E+03  0.19999977525E+01 0.  0.
         13    1    3    3    0    0 -0.41292812180E+01  0.38857428362E+02  0.14353728439E+03  0.14876126470E+03  0.10566000000E+00 0. -1.
         13    1    4    4    0    0  0.71238420845E+00 -0.63670304732E+01  0.15495262265E+02  0.16767852725E+02  0.10566000000E+00 0.  1.
        -13    1    4    4    0    0  0.24492815735E+01 -0.24434206232E+02  0.68101168946E+02  0.72393437481E+02  0.10566000000E+00 0.  1.
        -14    1    4    4    0    0  0.96761543602E+00 -0.80561916570E+01  0.23011009339E+02  0.24399693737E+02  0.00000000000E+00 0.  1.
<mgrwt>
<rscale>  0 0.78997334E+02</rscale>
<asrwt>0</asrwt>
<pdfrwt beam="1">  1        1 0.39420548E-01 0.78997334E+02</pdfrwt>
<pdfrwt beam="2">  1       -2 0.93673231E-03 0.78997334E+02</pdfrwt>
<totfact> 0.18091636E+05</totfact>
</mgrwt>
</event>
<event>
 8    1  0.7756875E-018  0.7981705E+02  0.7818608E-02  0.1329571E+00
         -2   -1    0    0    0  501 -0.00000000000E+00  0.00000000000E+00  0.42474100488E+01  0.42474108142E+01  0.25500000000E-02 0.  1.
          1   -1    0    0  501    0  0.00000000000E+00 -0.00000000000E+00 -0.37497919717E+03  0.37497919721E+03  0.50400000000E-02 0. -1.
        -24    2    1    2    0    0 -0.71054273576E-14  0.35527136788E-14 -0.37073178712E+03  0.37922660802E+03  0.79817054862E+02 0.  0.
         66    2    3    3    0    0  0.30487119611E+02 -0.25676378985E+02 -0.19210761141E+03  0.19620926400E+03  0.20000041818E+01 0.  0.
         13    1    3    3    0    0 -0.30487119611E+02  0.25676378985E+02 -0.17862417572E+03  0.18301734403E+03  0.10566000000E+00 0. -1.
         13    1    4    4    0    0  0.10172738854E+02 -0.94155621128E+01 -0.66082030603E+02  0.67520244063E+02  0.10566000000E+00 0. -1.
        -13    1    4    4    0    0  0.77717408072E+01 -0.69142586125E+01 -0.51019671809E+02  0.52069424837E+02  0.10566000000E+00 0.  1.
        -14    1    4    4    0    0  0.12542639950E+02 -0.93465582597E+01 -0.75005908996E+02  0.76619595095E+02  0.00000000000E+00 0.  1.
<mgrwt>
<rscale>  0 0.79817055E+02</rscale>
<asrwt>0</asrwt>
<pdfrwt beam="1">  1        1 0.57689082E-01 0.79817055E+02</pdfrwt>
<pdfrwt beam="2">  1       -2 0.65344805E-03 0.79817055E+02</pdfrwt>
<totfact> 0.18901796E+05</totfact>
</mgrwt>
</event>
<event>
 8    1  0.7756875E-018  0.8063117E+02  0.7818608E-02  0.1327270E+00
          1   -1    0    0  501    0  0.00000000000E+00  0.00000000000E+00  0.73621075783E+01  0.73621093035E+01  0.50400000000E-02 0. -1.
         -2   -1    0    0    0  501 -0.00000000000E+00 -0.00000000000E+00 -0.22077187964E+03  0.22077187966E+03  0.25500000000E-02 0.  1.
        -24    2    1    2    0    0 -0.88817841970E-15  0.00000000000E+00 -0.21340977206E+03  0.22813398896E+03  0.80631173293E+02 0.  0.
         66    2    3    3    0    0 -0.67268504156E+01  0.29053292078E+02 -0.18342424961E+03  0.18584348154E+03  0.19999971108E+01 0.  0.
         13    1    3    3    0    0  0.67268504156E+01 -0.29053292078E+02 -0.29985522455E+02  0.42290507422E+02  0.10566000000E+00 0. -1.
         13    1    4    4    0    0 -0.82731206663E+00  0.27019222051E+01 -0.18599006166E+02  0.18812735666E+02  0.10566000000E+00 0. -1.
        -13    1    4    4    0    0 -0.11391733384E+01  0.83198761525E+01 -0.52869276053E+02  0.53532135857E+02  0.10566000000E+00 0.  1.
        -14    1    4    4    0    0 -0.47603650106E+01  0.18031493721E+02 -0.11195596739E+03  0.11349861002E+03  0.00000000000E+00 0.  1.
<mgrwt>
<rscale>  0 0.80631173E+02</rscale>
<asrwt>0</asrwt>
<pdfrwt beam="1">  1        1 0.11326322E-02 0.80631173E+02</pdfrwt>
<pdfrwt beam="2">  1       -2 0.33964900E-01 0.80631173E+02</pdfrwt>
<totfact> 0.79974116E+04</totfact>
</mgrwt>
</event>
<event>
 8    1  0.7756875E-018  0.7863780E+02  0.7818608E-02  0.1332962E+00
         -2   -1    0    0    0  501 -0.00000000000E+00  0.00000000000E+00  0.30003448611E+02  0.30003448719E+02  0.25500000000E-02 0.  1.
          1   -1    0    0  501    0  0.00000000000E+00 -0.00000000000E+00 -0.51526602742E+02  0.51526602988E+02  0.50400000000E-02 0. -1.
        -24    2    1    2    0    0 -0.17763568394E-14  0.00000000000E+00 -0.21523154131E+02  0.81530051708E+02  0.78637797323E+02 0.  0.
         66    2    3    3    0    0  0.12210379809E+02 -0.23745180192E+02  0.19119584912E+02  0.32901147152E+02  0.19999998225E+01 0.  0.
         13    1    3    3    0    0 -0.12210379809E+02  0.23745180192E+02 -0.40642739043E+02  0.48628904556E+02  0.10566000000E+00 0. -1.
         13    1    4    4    0    0  0.48387424153E+01 -0.84412548186E+01  0.77365401530E+01  0.12431147519E+02  0.10566000000E+00 0. -1.
        -13    1    4    4    0    0  0.30444900886E+01 -0.54368082850E+01  0.44518196418E+01  0.76588293091E+01  0.10566000000E+00 0.  1.
        -14    1    4    4    0    0  0.43271473048E+01 -0.98671170881E+01  0.69312251169E+01  0.12811170323E+02  0.00000000000E+00 0.  1.
<mgrwt>
<rscale>  0 0.78637797E+02</rscale>
<asrwt>0</asrwt>
<pdfrwt beam="1">  1        1 0.79271697E-02 0.78637797E+02</pdfrwt>
<pdfrwt beam="2">  1       -2 0.46159152E-02 0.78637797E+02</pdfrwt>
<totfact> 0.13864286E+05</totfact>
</mgrwt>
</event>
<event>
 8    1  0.7756875E-018  0.8225905E+02  0.7818608E-02  0.1322760E+00
         -2   -1    0    0    0  501 -0.00000000000E+00  0.00000000000E+00  0.31063744200E+02  0.31063744304E+02  0.25500000000E-02 0.  1.
          1   -1    0    0  501    0  0.00000000000E+00 -0.00000000000E+00 -0.54456983217E+02  0.54456983451E+02  0.50400000000E-02 0. -1.
        -24    2    1    2    0    0  0.00000000000E+00  0.00000000000E+00 -0.23393239018E+02  0.85520727755E+02  0.82259049618E+02 0.  0.
         66    2    3    3    0    0  0.23194904295E+02 -0.23764498920E+02  0.13482621714E+02  0.35896184806E+02  0.20000002957E+01 0.  0.
         13    1    3    3    0    0 -0.23194904295E+02  0.23764498920E+02 -0.36875860732E+02  0.49624542949E+02  0.10566000000E+00 0. -1.
         13    1    4    4    0    0  0.25665903623E+01 -0.26362939165E+01  0.18122979773E+01  0.41028063196E+01  0.10566000000E+00 0. -1.
        -13    1    4    4    0    0  0.69935641751E+01 -0.79193389597E+01  0.47955859922E+01  0.11603218453E+02  0.10566000000E+00 0.  1.
        -14    1    4    4    0    0  0.13634749757E+02 -0.13208866043E+02  0.68747377446E+01  0.20190160033E+02  0.00000000000E+00 0.  1.
<mgrwt>
<rscale>  0 0.82259050E+02</rscale>
<asrwt>0</asrwt>
<pdfrwt beam="1">  1        1 0.83779975E-02 0.82259050E+02</pdfrwt>
<pdfrwt beam="2">  1       -2 0.47790376E-02 0.82259050E+02</pdfrwt>
<totfact> 0.12342591E+05</totfact>
</mgrwt>
</event>
<event>
 8    1  0.7756875E-018  0.8265988E+02  0.7818608E-02  0.1321668E+00
          1   -1    0    0  501    0  0.00000000000E+00  0.00000000000E+00  0.61594892764E+02  0.61594892970E+02  0.50400000000E-02 0. -1.
         -2   -1    0    0    0  501 -0.00000000000E+00 -0.00000000000E+00 -0.27732233848E+02  0.27732233965E+02  0.25500000000E-02 0.  1.
        -24    2    1    2    0    0  0.35527136788E-14 -0.35527136788E-14  0.33862658917E+02  0.89327126935E+02  0.82659881064E+02 0.  0.
         66    2    3    3    0    0 -0.26369928163E+02 -0.30118329663E+02  0.59380009157E+01  0.40518474203E+02  0.20000009572E+01 0.  0.
         13    1    3    3    0    0  0.26369928163E+02  0.30118329663E+02  0.27924658001E+02  0.48808652732E+02  0.10566000000E+00 0. -1.
         13    1    4    4    0    0 -0.17035140429E+01 -0.24685538217E+01  0.70179476250E+00  0.30821093409E+01  0.10566000000E+00 0. -1.
        -13    1    4    4    0    0 -0.17963026003E+02 -0.20813895947E+02  0.39742650447E+01  0.27779390101E+02  0.10566000000E+00 0.  1.
        -14    1    4    4    0    0 -0.67033881175E+01 -0.68358798941E+01  0.12619411085E+01  0.96569747614E+01  0.00000000000E+00 0.  1.
<mgrwt>
<rscale>  0 0.82659881E+02</rscale>
<asrwt>0</asrwt>
<pdfrwt beam="1">  1        1 0.94761374E-02 0.82659881E+02</pdfrwt>
<pdfrwt beam="2">  1       -2 0.42664975E-02 0.82659881E+02</pdfrwt>
<totfact> 0.12420640E+05</totfact>
</mgrwt>
</event>
<event>
 8    1  0.7756875E-018  0.7911192E+02  0.7818608E-02  0.1331591E+00
         -2   -1    0    0    0  501 -0.00000000000E+00  0.00000000000E+00  0.24118414191E+02  0.24118414326E+02  0.25500000000E-02 0.  1.
          1   -1    0    0  501    0  0.00000000000E+00 -0.00000000000E+00 -0.64874654015E+02  0.64874654211E+02  0.50400000000E-02 0. -1.
        -24    2    1    2    0    0  0.35527136788E-14  0.00000000000E+00 -0.40756239824E+02  0.88993068536E+02  0.79111915430E+02 0.  0.
         66    2    3    3    0    0  0.10196374476E+02 -0.37706163875E+02 -0.13553413076E+02  0.41393427847E+02  0.20000040615E+01 0.  0.
         13    1    3    3    0    0 -0.10196374476E+02  0.37706163875E+02 -0.27202826748E+02  0.47599640689E+02  0.10566000000E+00 0. -1.
         13    1    4    4    0    0  0.11678069497E+01 -0.33100175882E+01 -0.13745245064E+01  0.37710039990E+01  0.10566000000E+00 0. -1.
        -13    1    4    4    0    0  0.40881626845E+01 -0.15684256675E+02 -0.63816699401E+01  0.17419697381E+02  0.10566000000E+00 0.  1.
         14    1    4    4    0    0  0.49404048422E+01 -0.18711889612E+02 -0.57972186299E+01  0.20202726467E+02  0.00000000000E+00 0. -1.
<mgrwt>
<rscale>  0 0.79111915E+02</rscale>
<asrwt>0</asrwt>
<pdfrwt beam="1">  1        1 0.99807159E-02 0.79111915E+02</pdfrwt>
<pdfrwt beam="2">  1       -2 0.37105253E-02 0.79111915E+02</pdfrwt>
<totfact> 0.14131706E+05</totfact>
</mgrwt>
</event>
<event>
 8    1  0.7756875E-018  0.8099452E+02  0.7818608E-02  0.1326253E+00
          1   -1    0    0  501    0  0.00000000000E+00  0.00000000000E+00  0.15659368698E+02  0.15659369509E+02  0.50400000000E-02 0. -1.
         -2   -1    0    0    0  501 -0.00000000000E+00 -0.00000000000E+00 -0.10473143848E+03  0.10473143851E+03  0.25500000000E-02 0.  1.
        -24    2    1    2    0    0  0.35527136788E-14 -0.71054273576E-14 -0.89072069780E+02  0.12039080802E+03  0.80994524756E+02 0.  0.
         66    2    3    3    0    0 -0.20598687196E+02  0.34486107709E+02 -0.51909296254E+02  0.65667134538E+02  0.19999954151E+01 0.  0.
         13    1    3    3    0    0  0.20598687196E+02 -0.34486107709E+02 -0.37162773525E+02  0.54723673481E+02  0.10566000000E+00 0. -1.
         13    1    4    4    0    0 -0.83805067567E+00  0.12620901160E+01 -0.24667549083E+01  0.28967644380E+01  0.10566000000E+00 0. -1.
        -13    1    4    4    0    0 -0.16090206577E+02  0.27254939286E+02 -0.41139146511E+02  0.51905365839E+02  0.10566000000E+00 0.  1.
        -14    1    4    4    0    0 -0.36704299424E+01  0.59690783072E+01 -0.83033948354E+01  0.10865004261E+02  0.00000000000E+00 0.  1.
<mgrwt>
<rscale>  0 0.80994525E+02</rscale>
<asrwt>0</asrwt>
<pdfrwt beam="1">  1        1 0.24091338E-02 0.80994525E+02</pdfrwt>
<pdfrwt beam="2">  1       -2 0.16112529E-01 0.80994525E+02</pdfrwt>
<totfact> 0.10162981E+05</totfact>
</mgrwt>
</event>
<event>
 8    1  0.7756875E-018  0.8023322E+02  0.7818608E-02  0.1328391E+00
          1   -1    0    0  501    0  0.00000000000E+00  0.00000000000E+00  0.17608156854E+03  0.17608156861E+03  0.50400000000E-02 0. -1.
         -2   -1    0    0    0  501 -0.00000000000E+00 -0.00000000000E+00 -0.91397556071E+01  0.91397559628E+01  0.25500000000E-02 0.  1.
        -24    2    1    2    0    0 -0.35527136788E-14  0.71054273576E-14  0.16694181294E+03  0.18522132458E+03  0.80233223617E+02 0.  0.
         66    2    3    3    0    0 -0.17859041037E+02  0.34581393282E+02  0.10572775786E+03  0.11268175048E+03  0.20000000302E+01 0.  0.
         13    1    3    3    0    0  0.17859041037E+02 -0.34581393282E+02  0.61214055076E+02  0.72539574102E+02  0.10566000000E+00 0. -1.
         13    1    4    4    0    0 -0.93260783325E+01  0.18857275498E+02  0.57432744419E+02  0.61164563857E+02  0.10566000000E+00 0.  1.
        -13    1    4    4    0    0 -0.62384503660E+01  0.11249951309E+02  0.33108686053E+02  0.35520077753E+02  0.10566000000E+00 0. -1.
         14    1    4    4    0    0 -0.22945123384E+01  0.44741664743E+01  0.15186327387E+02  0.15997108865E+02  0.00000000000E+00 0. -1.
<mgrwt>
<rscale>  0 0.80233224E+02</rscale>
<asrwt>0</asrwt>
<pdfrwt beam="1">  1        1 0.27089471E-01 0.80233224E+02</pdfrwt>
<pdfrwt beam="2">  1       -2 0.14061163E-02 0.80233224E+02</pdfrwt>
<totfact> 0.16144179E+05</totfact>
</mgrwt>
</event>
<event>
 8    1  0.7756875E-018  0.7981839E+02  0.7818608E-02  0.1329568E+00
         -2   -1    0    0    0  501 -0.00000000000E+00  0.00000000000E+00  0.16390007262E+02  0.16390007460E+02  0.25500000000E-02 0.  1.
          1   -1    0    0  501    0  0.00000000000E+00 -0.00000000000E+00 -0.97177732401E+02  0.97177732532E+02  0.50400000000E-02 0. -1.
        -24    2    1    2    0    0  0.44408920985E-15  0.00000000000E+00 -0.80787725140E+02  0.11356773999E+03  0.79818387817E+02 0.  0.
         66    2    3    3    0    0  0.34463705845E+01  0.38959902372E+02 -0.29307671278E+02  0.48915140874E+02  0.19999869928E+01 0.  0.
         13    1    3    3    0    0 -0.34463705845E+01 -0.38959902372E+02 -0.51480053862E+02  0.64652599118E+02  0.10566000000E+00 0. -1.
         13    1    4    4    0    0  0.50632907559E+00  0.25262179266E+01 -0.16428288429E+01  0.30574820994E+01  0.10566000000E+00 0. -1.
        -13    1    4    4    0    0  0.24126950234E+01  0.24336441159E+02 -0.18042758999E+02  0.30391376768E+02  0.10566000000E+00 0.  1.
         14    1    4    4    0    0  0.52734648555E+00  0.12097243287E+02 -0.96220834364E+01  0.15466282007E+02  0.00000000000E+00 0. -1.
<mgrwt>
<rscale>  0 0.79818388E+02</rscale>
<asrwt>0</asrwt>
<pdfrwt beam="1">  1        1 0.14950420E-01 0.79818388E+02</pdfrwt>
<pdfrwt beam="2">  1       -2 0.25215396E-02 0.79818388E+02</pdfrwt>
<totfact> 0.14718927E+05</totfact>
</mgrwt>
</event>
<event>
 8    1  0.7756875E-018  0.8062818E+02  0.7818608E-02  0.1327278E+00
         -2   -1    0    0    0  501 -0.00000000000E+00  0.00000000000E+00  0.42956483892E+03  0.42956483893E+03  0.25500000000E-02 0.  1.
          1   -1    0    0  501    0  0.00000000000E+00 -0.00000000000E+00 -0.37834225684E+01  0.37834259253E+01  0.50400000000E-02 0. -1.
        -24    2    1    2    0    0  0.00000000000E+00  0.00000000000E+00  0.42578141636E+03  0.43334826486E+03  0.80628184531E+02 0.  0.
         66    2    3    3    0    0 -0.35949568767E+02  0.26506280162E+00  0.31077191574E+03  0.31285080368E+03  0.20000003244E+01 0.  0.
         13    1    3    3    0    0  0.35949568767E+02 -0.26506280162E+00  0.11500950062E+03  0.12049746118E+03  0.10566000000E+00 0. -1.
         13    1    4    4    0    0 -0.74219203850E+01 -0.48671930552E+00  0.68259106069E+02  0.68663225406E+02  0.10566000000E+00 0. -1.
        -13    1    4    4    0    0 -0.71832559064E+01 -0.58377067401E-01  0.63256158963E+02  0.63662825763E+02  0.10566000000E+00 0.  1.
         14    1    4    4    0    0 -0.21344392476E+02  0.81015917455E+00  0.17925665070E+03  0.18052475251E+03  0.00000000000E+00 0. -1.
<mgrwt>
<rscale>  0 0.80628185E+02</rscale>
<asrwt>0</asrwt>
<pdfrwt beam="1">  1        1 0.58206509E-03 0.80628185E+02</pdfrwt>
<pdfrwt beam="2">  1       -2 0.66086919E-01 0.80628185E+02</pdfrwt>
<totfact> 0.55174188E+04</totfact>
</mgrwt>
</event>
<event>
 8    1  0.7756875E-018  0.8074303E+02  0.7818608E-02  0.1326956E+00
          1   -1    0    0  501    0  0.00000000000E+00  0.00000000000E+00  0.78125846817E+01  0.78125863074E+01  0.50400000000E-02 0. -1.
         -2   -1    0    0    0  501 -0.00000000000E+00 -0.00000000000E+00 -0.20861969700E+03  0.20861969701E+03  0.25500000000E-02 0.  1.
        -24    2    1    2    0    0  0.00000000000E+00  0.71054273576E-14 -0.20080711232E+03  0.21643228332E+03  0.80743030082E+02 0.  0.
         66    2    3    3    0    0  0.41813800299E+01 -0.33225122189E+02 -0.16078900281E+03  0.16425131997E+03  0.20000013075E+01 0.  0.
         13    1    3    3    0    0 -0.41813800299E+01  0.33225122189E+02 -0.40018109513E+02  0.52180963353E+02  0.10566000000E+00 0. -1.
         13    1    4    4    0    0  0.23690860534E+01 -0.16475525579E+02 -0.78980457808E+02  0.80715422265E+02  0.10566000000E+00 0. -1.
        -13    1    4    4    0    0  0.19755164786E+01 -0.13464971525E+02 -0.66356468585E+02  0.67737731071E+02  0.10566000000E+00 0.  1.
        -14    1    4    4    0    0 -0.16322250217E+00 -0.32846250860E+01 -0.15452076412E+02  0.15798166633E+02  0.00000000000E+00 0.  1.
<mgrwt>
<rscale>  0 0.80743030E+02</rscale>
<asrwt>0</asrwt>
<pdfrwt beam="1">  1        1 0.12019364E-02 0.80743030E+02</pdfrwt>
<pdfrwt beam="2">  1       -2 0.32095334E-01 0.80743030E+02</pdfrwt>
<totfact> 0.81638754E+04</totfact>
</mgrwt>
</event>
<event>
 8    1  0.7756875E-018  0.8062364E+02  0.7818608E-02  0.1327291E+00
          1   -1    0    0  501    0  0.00000000000E+00  0.00000000000E+00  0.33252648689E+02  0.33252649071E+02  0.50400000000E-02 0. -1.
         -2   -1    0    0    0  501 -0.00000000000E+00 -0.00000000000E+00 -0.48869572773E+02  0.48869572839E+02  0.25500000000E-02 0.  1.
        -24    2    1    2    0    0 -0.44408920985E-15  0.00000000000E+00 -0.15616924083E+02  0.82122221910E+02  0.80623638058E+02 0.  0.
         66    2    3    3    0    0  0.38042479827E+01  0.18482166561E+02 -0.44069456949E+02  0.47981036019E+02  0.19999995406E+01 0.  0.
         13    1    3    3    0    0 -0.38042479827E+01 -0.18482166561E+02  0.28452532866E+02  0.34141185891E+02  0.10566000000E+00 0. -1.
         13    1    4    4    0    0  0.11249826427E+01  0.72109627614E+01 -0.18401790202E+02  0.19796479903E+02  0.10566000000E+00 0. -1.
        -13    1    4    4    0    0  0.21534662230E+01  0.92683381871E+01 -0.19943965591E+02  0.22097792583E+02  0.10566000000E+00 0.  1.
        -14    1    4    4    0    0  0.52579911702E+00  0.20028656127E+01 -0.57237011563E+01  0.60867635325E+01  0.00000000000E+00 0.  1.
<mgrwt>
<rscale>  0 0.80623638E+02</rscale>
<asrwt>0</asrwt>
<pdfrwt beam="1">  1        1 0.51157922E-02 0.80623638E+02</pdfrwt>
<pdfrwt beam="2">  1       -2 0.75183958E-02 0.80623638E+02</pdfrwt>
<totfact> 0.12043228E+05</totfact>
</mgrwt>
</event>
<event>
 8    1  0.7756875E-018  0.8112106E+02  0.7818608E-02  0.1325900E+00
          1   -1    0    0  501    0  0.00000000000E+00  0.00000000000E+00  0.11314159265E+03  0.11314159276E+03  0.50400000000E-02 0. -1.
         -2   -1    0    0    0  501 -0.00000000000E+00 -0.00000000000E+00 -0.14540689057E+02  0.14540689281E+02  0.25500000000E-02 0.  1.
        -24    2    1    2    0    0 -0.35527136788E-14  0.00000000000E+00  0.98600903594E+02  0.12768228204E+03  0.81121063593E+02 0.  0.
         66    2    3    3    0    0  0.16317324801E+02  0.36868996500E+02  0.42732079669E+02  0.58784425456E+02  0.20000129376E+01 0.  0.
         13    1    3    3    0    0 -0.16317324801E+02 -0.36868996500E+02  0.55868823925E+02  0.68897856588E+02  0.10566000000E+00 0. -1.
         13    1    4    4    0    0  0.32741932645E+01  0.75734242441E+01  0.97915038613E+01  0.12804757249E+02  0.10566000000E+00 0. -1.
        -13    1    4    4    0    0  0.47694020288E+01  0.99693655249E+01  0.11005787928E+02  0.15597242597E+02  0.10566000000E+00 0.  1.
        -14    1    4    4    0    0  0.82737295081E+01  0.19326206731E+02  0.21934787880E+02  0.30382425610E+02  0.00000000000E+00 0.  1.
<mgrwt>
<rscale>  0 0.81121064E+02</rscale>
<asrwt>0</asrwt>
<pdfrwt beam="1">  1        1 0.17406399E-01 0.81121064E+02</pdfrwt>
<pdfrwt beam="2">  1       -2 0.22370291E-02 0.81121064E+02</pdfrwt>
<totfact> 0.14459294E+05</totfact>
</mgrwt>
</event>
<event>
 8    1  0.7756875E-018  0.8104664E+02  0.7818608E-02  0.1326107E+00
         -2   -1    0    0    0  501 -0.00000000000E+00  0.00000000000E+00  0.80514279834E+02  0.80514279875E+02  0.25500000000E-02 0.  1.
          1   -1    0    0  501    0  0.00000000000E+00 -0.00000000000E+00 -0.20395629545E+02  0.20395630168E+02  0.50400000000E-02 0. -1.
        -24    2    1    2    0    0  0.00000000000E+00  0.88817841970E-15  0.60118650289E+02  0.10090991004E+03  0.81046639858E+02 0.  0.
         66    2    3    3    0    0  0.20898543601E+02  0.42864273358E+01  0.72938367964E+02  0.76020576800E+02  0.19999979378E+01 0.  0.
         13    1    3    3    0    0 -0.20898543601E+02 -0.42864273358E+01 -0.12819717676E+02  0.24889333243E+02  0.10566000000E+00 0. -1.
         13    1    4    4    0    0  0.51722417964E+01  0.11124109598E+01  0.16349429926E+02  0.17184428017E+02  0.10566000000E+00 0.  1.
        -13    1    4    4    0    0  0.30175028389E+01  0.11380063586E+01  0.10623119850E+02  0.11102352058E+02  0.10566000000E+00 0. -1.
         14    1    4    4    0    0  0.12708798966E+02  0.20360100174E+01  0.45965818189E+02  0.47733796725E+02  0.00000000000E+00 0. -1.
<mgrwt>
<rscale>  0 0.81046640E+02</rscale>
<asrwt>0</asrwt>
<pdfrwt beam="1">  1        1 0.31377892E-02 0.81046640E+02</pdfrwt>
<pdfrwt beam="2">  1       -2 0.12386812E-01 0.81046640E+02</pdfrwt>
<totfact> 0.10796782E+05</totfact>
</mgrwt>
</event>
<event>
 8    1  0.7756875E-018  0.7786347E+02  0.7818608E-02  0.1335226E+00
          1   -1    0    0  501    0  0.00000000000E+00  0.00000000000E+00  0.84961143215E+02  0.84961143365E+02  0.50400000000E-02 0. -1.
         -2   -1    0    0    0  501 -0.00000000000E+00 -0.00000000000E+00 -0.17839683984E+02  0.17839684166E+02  0.25500000000E-02 0.  1.
        -24    2    1    2    0    0  0.00000000000E+00  0.00000000000E+00  0.67121459231E+02  0.10280082753E+03  0.77863469302E+02 0.  0.
         66    2    3    3    0    0  0.60426158338E+01  0.19932829791E+02 -0.98025688920E+01  0.23106736305E+02  0.19999990484E+01 0.  0.
         13    1    3    3    0    0 -0.60426158338E+01 -0.19932829791E+02  0.76924028123E+02  0.79694091226E+02  0.10566000000E+00 0. -1.
         13    1    4    4    0    0  0.15526228647E+01  0.31538322295E+01 -0.17954063076E+01  0.39486634874E+01  0.10566000000E+00 0. -1.
        -13    1    4    4    0    0  0.43723181316E+01  0.16405577961E+02 -0.79939843247E+01  0.18766328983E+02  0.10566000000E+00 0.  1.
        -14    1    4    4    0    0  0.11767483741E+00  0.37341960061E+00 -0.13178259760E-01  0.39174383468E+00  0.00000000000E+00 0.  1.
<mgrwt>
<rscale>  0 0.77863469E+02</rscale>
<asrwt>0</asrwt>
<pdfrwt beam="1">  1        1 0.13070945E-01 0.77863469E+02</pdfrwt>
<pdfrwt beam="2">  1       -2 0.27445668E-02 0.77863469E+02</pdfrwt>
<totfact> 0.15398225E+05</totfact>
</mgrwt>
</event>
<event>
 8    1  0.7756875E-018  0.7775200E+02  0.7818608E-02  0.1335555E+00
         -2   -1    0    0    0  501 -0.00000000000E+00  0.00000000000E+00  0.20477502185E+03  0.20477502187E+03  0.25500000000E-02 0.  1.
          1   -1    0    0  501    0  0.00000000000E+00 -0.00000000000E+00 -0.73805050336E+01  0.73805067545E+01  0.50400000000E-02 0. -1.
        -24    2    1    2    0    0  0.00000000000E+00  0.00000000000E+00  0.19739451682E+03  0.21215552862E+03  0.77751997113E+02 0.  0.
         66    2    3    3    0    0  0.42041150673E+01  0.38467715566E+02  0.89350182511E+02  0.97390424761E+02  0.19999990065E+01 0.  0.
         13    1    3    3    0    0 -0.42041150673E+01 -0.38467715566E+02  0.10804433430E+03  0.11476510386E+03  0.10566000000E+00 0. -1.
         13    1    4    4    0    0  0.32750093153E+01  0.24003919914E+02  0.56771686012E+02  0.61724787192E+02  0.10566000000E+00 0. -1.
        -13    1    4    4    0    0  0.55466842893E+00  0.67041713144E+01  0.14231443751E+02  0.15741623975E+02  0.10566000000E+00 0.  1.
         14    1    4    4    0    0  0.37443732304E+00  0.77596243377E+01  0.18347052748E+02  0.19924013595E+02  0.00000000000E+00 0. -1.
<mgrwt>
<rscale>  0 0.77751997E+02</rscale>
<asrwt>0</asrwt>
<pdfrwt beam="1">  1        1 0.11354625E-02 0.77751997E+02</pdfrwt>
<pdfrwt beam="2">  1       -2 0.31503848E-01 0.77751997E+02</pdfrwt>
<totfact> 0.90682113E+04</totfact>
</mgrwt>
</event>
<event>
 8    1  0.7756875E-018  0.7401099E+02  0.7818608E-02  0.1346961E+00
          1   -1    0    0  501    0  0.00000000000E+00  0.00000000000E+00  0.47707249281E+02  0.47707249547E+02  0.50400000000E-02 0. -1.
         -2   -1    0    0    0  501 -0.00000000000E+00 -0.00000000000E+00 -0.28704373671E+02  0.28704373784E+02  0.25500000000E-02 0.  1.
        -24    2    1    2    0    0  0.35527136788E-14  0.00000000000E+00  0.19002875610E+02  0.76411623331E+02  0.74010991742E+02 0.  0.
         66    2    3    3    0    0  0.29552415289E+02  0.20415023689E+02  0.43210818853E+00  0.35976452894E+02  0.20000009277E+01 0.  0.
         13    1    3    3    0    0 -0.29552415289E+02 -0.20415023689E+02  0.18570767422E+02  0.40435170437E+02  0.10566000000E+00 0. -1.
         13    1    4    4    0    0  0.18391392747E+02  0.12610652231E+02 -0.49263508778E+00  0.22305284805E+02  0.10566000000E+00 0. -1.
        -13    1    4    4    0    0  0.10789664937E+02  0.76151702462E+01  0.77931343459E+00  0.13229746059E+02  0.10566000000E+00 0.  1.
         14    1    4    4    0    0  0.37135760555E+00  0.18920121170E+00  0.14542984172E+00  0.44142203001E+00  0.00000000000E+00 0. -1.
<mgrwt>
<rscale>  0 0.74010992E+02</rscale>
<asrwt>0</asrwt>
<pdfrwt beam="1">  1        1 0.73395768E-02 0.74010992E+02</pdfrwt>
<pdfrwt beam="2">  1       -2 0.44160575E-02 0.74010992E+02</pdfrwt>
<totfact> 0.16199662E+05</totfact>
</mgrwt>
</event>
<event>
 8    1  0.7756875E-018  0.7877991E+02  0.7818608E-02  0.1332550E+00
          1   -1    0    0  501    0  0.00000000000E+00  0.00000000000E+00  0.20562003166E+02  0.20562003783E+02  0.50400000000E-02 0. -1.
         -2   -1    0    0    0  501 -0.00000000000E+00 -0.00000000000E+00 -0.75458037175E+02  0.75458037218E+02  0.25500000000E-02 0.  1.
        -24    2    1    2    0    0  0.17763568394E-14 -0.35527136788E-14 -0.54896034010E+02  0.96020041002E+02  0.78779906854E+02 0.  0.
         66    2    3    3    0    0 -0.89853509265E+01 -0.20701172814E+02 -0.66777491840E+02  0.70516015999E+02  0.20000021876E+01 0.  0.
         13    1    3    3    0    0  0.89853509265E+01  0.20701172814E+02  0.11881457830E+02  0.25504025003E+02  0.10566000000E+00 0. -1.
         13    1    4    4    0    0 -0.51217741705E+00 -0.61856910998E+00 -0.24007841804E+01  0.25337486392E+01  0.10566000000E+00 0. -1.
        -13    1    4    4    0    0 -0.42927134425E+01 -0.11869271475E+02 -0.38079271784E+02  0.40116693503E+02  0.10566000000E+00 0.  1.
         14    1    4    4    0    0 -0.41804600669E+01 -0.82133322292E+01 -0.26297435876E+02  0.27865573856E+02  0.00000000000E+00 0. -1.
<mgrwt>
<rscale>  0 0.78779907E+02</rscale>
<asrwt>0</asrwt>
<pdfrwt beam="1">  1        1 0.31633852E-02 0.78779907E+02</pdfrwt>
<pdfrwt beam="2">  1       -2 0.11608929E-01 0.78779907E+02</pdfrwt>
<totfact> 0.11766943E+05</totfact>
</mgrwt>
</event>
<event>
 8    1  0.7756875E-018  0.7973299E+02  0.7818608E-02  0.1329811E+00
         -2   -1    0    0    0  501 -0.00000000000E+00  0.00000000000E+00  0.52477551283E+01  0.52477557479E+01  0.25500000000E-02 0.  1.
          1   -1    0    0  501    0  0.00000000000E+00 -0.00000000000E+00 -0.30286039713E+03  0.30286039718E+03  0.50400000000E-02 0. -1.
        -24    2    1    2    0    0  0.00000000000E+00 -0.35527136788E-14 -0.29761264200E+03  0.30810815292E+03  0.79732987004E+02 0.  0.
         66    2    3    3    0    0  0.32323385476E+02 -0.20867774089E+02 -0.10891504637E+03  0.11552814615E+03  0.19999960740E+01 0.  0.
         13    1    3    3    0    0 -0.32323385476E+02  0.20867774089E+02 -0.18869759564E+03  0.19258000677E+03  0.10566000000E+00 0. -1.
         13    1    4    4    0    0  0.95413160423E+00 -0.47730994090E+00 -0.27195241365E+01  0.29232118402E+01  0.10566000000E+00 0.  1.
        -13    1    4    4    0    0  0.24288141471E+01 -0.16646671714E+01 -0.96868252478E+01  0.10125018636E+02  0.10566000000E+00 0.  1.
         14    1    4    4    0    0  0.28940439725E+02 -0.18725796977E+02 -0.96508696981E+02  0.10247991568E+03  0.00000000000E+00 0. -1.
<mgrwt>
<rscale>  0 0.79732987E+02</rscale>
<asrwt>0</asrwt>
<pdfrwt beam="1">  1        1 0.46593894E-01 0.79732987E+02</pdfrwt>
<pdfrwt beam="2">  1       -2 0.80734723E-03 0.79732987E+02</pdfrwt>
<totfact> 0.18234143E+05</totfact>
</mgrwt>
</event>
<event>
 8    1  0.7756875E-018  0.7888714E+02  0.7818608E-02  0.1332240E+00
         -2   -1    0    0    0  501 -0.00000000000E+00  0.00000000000E+00  0.60586407432E+02  0.60586407486E+02  0.25500000000E-02 0.  1.
          1   -1    0    0  501    0  0.00000000000E+00 -0.00000000000E+00 -0.25678946381E+02  0.25678946876E+02  0.50400000000E-02 0. -1.
        -24    2    1    2    0    0  0.71054273576E-14  0.22204460493E-15  0.34907461051E+02  0.86265354361E+02  0.78887137900E+02 0.  0.
         66    2    3    3    0    0 -0.37923567147E+02 -0.14584781887E+01  0.29113236071E+02  0.47873840834E+02  0.20000044559E+01 0.  0.
         13    1    3    3    0    0  0.37923567147E+02  0.14584781887E+01  0.57942249798E+01  0.38391513528E+02  0.10566000000E+00 0. -1.
         13    1    4    4    0    0 -0.45489264123E+01  0.19010273890E+00  0.35512535161E+01  0.57750702270E+01  0.10566000000E+00 0. -1.
        -13    1    4    4    0    0 -0.73594271399E+01  0.25292375926E+00  0.57405614865E+01  0.93375772271E+01  0.10566000000E+00 0.  1.
         14    1    4    4    0    0 -0.26015213595E+02 -0.19015046868E+01  0.19821421068E+02  0.32761193379E+02  0.00000000000E+00 0. -1.
<mgrwt>
<rscale>  0 0.78887138E+02</rscale>
<asrwt>0</asrwt>
<pdfrwt beam="1">  1        1 0.39506072E-02 0.78887138E+02</pdfrwt>
<pdfrwt beam="2">  1       -2 0.93209858E-02 0.78887138E+02</pdfrwt>
<totfact> 0.12243714E+05</totfact>
</mgrwt>
</event>
<event>
 8    1  0.1087712E-017  0.7826575E+02  0.7818608E-02  0.1334046E+00
          1   -1    0    0  501    0  0.00000000000E+00  0.00000000000E+00  0.10231766148E+02  0.10231767389E+02  0.50400000000E-02 0. -1.
         -2   -1    0    0    0  501 -0.00000000000E+00 -0.00000000000E+00 -0.14966934987E+03  0.14966934989E+03  0.25500000000E-02 0.  1.
        -24    2    1    2    0    0  0.17763568394E-14  0.17763568394E-14 -0.13943758372E+03  0.15990111728E+03  0.78265749555E+02 0.  0.
         66    2    3    3    0    0  0.10691592688E+02  0.92588183762E+01 -0.14425418957E+03  0.14495967398E+03  0.19999998150E+01 0.  0.
         13    1    3    3    0    0 -0.10691592688E+02 -0.92588183762E+01  0.48166058512E+01  0.14941443300E+02  0.10566000000E+00 0. -1.
         13    1    4    4    0    0  0.28515827580E+01  0.21850316698E+01 -0.36497224004E+02  0.36673756443E+02  0.10566000000E+00 0. -1.
        -13    1    4    4    0    0  0.78729715039E+01  0.69918214717E+01 -0.10481065173E+03  0.10533827950E+03  0.10566000000E+00 0.  1.
         14    1    4    4    0    0 -0.32961573418E-01  0.81965234733E-01 -0.29463138360E+01  0.29476380350E+01  0.00000000000E+00 0. -1.
<mgrwt>
<rscale>  0 0.78265750E+02</rscale>
<asrwt>0</asrwt>
<pdfrwt beam="1">  1        1 0.15741181E-02 0.78265750E+02</pdfrwt>
<pdfrwt beam="2">  1       -2 0.23026052E-01 0.78265750E+02</pdfrwt>
<totfact> 0.10006327E+05</totfact>
</mgrwt>
</event>
<event>
 8    1  0.7756875E-018  0.7984954E+02  0.7818608E-02  0.1329479E+00
          1   -1    0    0  501    0  0.00000000000E+00  0.00000000000E+00  0.16826537424E+03  0.16826537432E+03  0.50400000000E-02 0. -1.
         -2   -1    0    0    0  501 -0.00000000000E+00 -0.00000000000E+00 -0.94730548884E+01  0.94730552316E+01  0.25500000000E-02 0.  1.
        -24    2    1    2    0    0  0.00000000000E+00  0.44408920985E-15  0.15879231935E+03  0.17773842955E+03  0.79849537587E+02 0.  0.
         66    2    3    3    0    0 -0.34944531525E+02  0.22351358180E+01  0.36869324996E+02  0.50886768808E+02  0.19999996080E+01 0.  0.
         13    1    3    3    0    0  0.34944531525E+02 -0.22351358180E+01  0.12192299436E+03  0.12685166074E+03  0.10566000000E+00 0. -1.
         13    1    4    4    0    0 -0.74816154506E+01  0.48214929601E-01  0.87084140958E+01  0.11481486599E+02  0.10566000000E+00 0. -1.
        -13    1    4    4    0    0 -0.16173268809E+02  0.97534895717E+00  0.16155419005E+02  0.22880879721E+02  0.10566000000E+00 0. -1.
        -14    1    4    4    0    0 -0.11289647266E+02  0.12115719313E+01  0.12005491895E+02  0.16524402487E+02  0.00000000000E+00 0.  1.
<mgrwt>
<rscale>  0 0.79849538E+02</rscale>
<asrwt>0</asrwt>
<pdfrwt beam="1">  1        1 0.25886978E-01 0.79849538E+02</pdfrwt>
<pdfrwt beam="2">  1       -2 0.14573932E-02 0.79849538E+02</pdfrwt>
<totfact> 0.16211707E+05</totfact>
</mgrwt>
</event>
<event>
 8    1  0.7756875E-018  0.7931056E+02  0.7818608E-02  0.1331019E+00
         -2   -1    0    0    0  501 -0.00000000000E+00  0.00000000000E+00  0.52785301072E+02  0.52785301133E+02  0.25500000000E-02 0.  1.
          1   -1    0    0  501    0  0.00000000000E+00 -0.00000000000E+00 -0.29791268699E+02  0.29791269125E+02  0.50400000000E-02 0. -1.
        -24    2    1    2    0    0 -0.22204460493E-15  0.00000000000E+00  0.22994032373E+02  0.82576570258E+02  0.79310556869E+02 0.  0.
         66    2    3    3    0    0 -0.17860284166E+01  0.30396594665E+02  0.37914045723E+02  0.48668446938E+02  0.19999998889E+01 0.  0.
         13    1    3    3    0    0  0.17860284166E+01 -0.30396594665E+02 -0.14920013349E+02  0.33908123320E+02  0.10566000000E+00 0. -1.
         13    1    4    4    0    0  0.25540131667E+00  0.18873992498E+01  0.22425731785E+01  0.29441134925E+01  0.10566000000E+00 0. -1.
        -13    1    4    4    0    0 -0.11958900651E+01  0.20885148587E+02  0.26744859539E+02  0.33954650055E+02  0.10566000000E+00 0.  1.
         14    1    4    4    0    0 -0.84553966819E+00  0.76240468279E+01  0.89266130049E+01  0.11769683390E+02  0.00000000000E+00 0. -1.
<mgrwt>
<rscale>  0 0.79310557E+02</rscale>
<asrwt>0</asrwt>
<pdfrwt beam="1">  1        1 0.45832722E-02 0.79310557E+02</pdfrwt>
<pdfrwt beam="2">  1       -2 0.81208155E-02 0.79310557E+02</pdfrwt>
<totfact> 0.12383993E+05</totfact>
</mgrwt>
</event>
<event>
 8    1  0.7756875E-018  0.7274527E+02  0.7818608E-02  0.1350999E+00
         -2   -1    0    0    0  501 -0.00000000000E+00  0.00000000000E+00  0.11591944832E+02  0.11591945113E+02  0.25500000000E-02 0.  1.
          1   -1    0    0  501    0  0.00000000000E+00 -0.00000000000E+00 -0.11412827290E+03  0.11412827301E+03  0.50400000000E-02 0. -1.
        -24    2    1    2    0    0  0.00000000000E+00  0.00000000000E+00 -0.10253632807E+03  0.12572021813E+03  0.72745272504E+02 0.  0.
         66    2    3    3    0    0 -0.18349805815E+02 -0.31368634354E+02 -0.50430261136E+02  0.62192586578E+02  0.19999980951E+01 0.  0.
         13    1    3    3    0    0  0.18349805815E+02  0.31368634354E+02 -0.52106066936E+02  0.63527631549E+02  0.10566000000E+00 0. -1.
         13    1    4    4    0    0 -0.87218263971E+00 -0.19729061265E+01 -0.33901093727E+01  0.40195853935E+01  0.10566000000E+00 0. -1.
        -13    1    4    4    0    0 -0.38656151410E+01 -0.55760936846E+01 -0.89717506491E+01  0.11248967728E+02  0.10566000000E+00 0.  1.
        -14    1    4    4    0    0 -0.13612008034E+02 -0.23819634543E+02 -0.38068401114E+02  0.46924033457E+02  0.00000000000E+00 0.  1.
<mgrwt>
<rscale>  0 0.72745273E+02</rscale>
<asrwt>0</asrwt>
<pdfrwt beam="1">  1        1 0.17558195E-01 0.72745273E+02</pdfrwt>
<pdfrwt beam="2">  1       -2 0.17833762E-02 0.72745273E+02</pdfrwt>
<totfact> 0.19384893E+05</totfact>
</mgrwt>
</event>
<event>
 8    1  0.7756875E-018  0.8341120E+02  0.7818608E-02  0.1319640E+00
          1   -1    0    0  501    0  0.00000000000E+00  0.00000000000E+00  0.23508915463E+03  0.23508915468E+03  0.50400000000E-02 0. -1.
         -2   -1    0    0    0  501 -0.00000000000E+00 -0.00000000000E+00 -0.73987123081E+01  0.73987127475E+01  0.25500000000E-02 0.  1.
        -24    2    1    2    0    0  0.17763568394E-14  0.00000000000E+00  0.22769044232E+03  0.24248786743E+03  0.83411200248E+02 0.  0.
         66    2    3    3    0    0  0.13362162628E+02 -0.34209690607E+02  0.56609500032E+02  0.67509153582E+02  0.20000004984E+01 0.  0.
         13    1    3    3    0    0 -0.13362162628E+02  0.34209690607E+02  0.17108094229E+03  0.17497871385E+03  0.10566000000E+00 0. -1.
         13    1    4    4    0    0  0.19285913770E+01 -0.43271153360E+01  0.69000953676E+01  0.83705359415E+01  0.10566000000E+00 0. -1.
        -13    1    4    4    0    0  0.23980696885E+01 -0.75032782256E+01  0.13245300320E+02  0.15411004736E+02  0.10566000000E+00 0.  1.
        -14    1    4    4    0    0  0.90355015625E+01 -0.22379297046E+02  0.36464104345E+02  0.43727612905E+02  0.00000000000E+00 0.  1.
<mgrwt>
<rscale>  0 0.83411200E+02</rscale>
<asrwt>0</asrwt>
<pdfrwt beam="1">  1        1 0.36167566E-01 0.83411200E+02</pdfrwt>
<pdfrwt beam="2">  1       -2 0.11382633E-02 0.83411200E+02</pdfrwt>
<totfact> 0.15403231E+05</totfact>
</mgrwt>
</event>
<event>
 8    1  0.7756875E-018  0.8193045E+02  0.7818608E-02  0.1323661E+00
          1   -1    0    0  501    0  0.00000000000E+00  0.00000000000E+00  0.51355257031E+02  0.51355257278E+02  0.50400000000E-02 0. -1.
         -2   -1    0    0    0  501 -0.00000000000E+00 -0.00000000000E+00 -0.32677271885E+02  0.32677271984E+02  0.25500000000E-02 0.  1.
        -24    2    1    2    0    0  0.17763568394E-14  0.00000000000E+00  0.18677985146E+02  0.84032529262E+02  0.81930451269E+02 0.  0.
         66    2    3    3    0    0 -0.14494453489E+02  0.29545640622E+02 -0.15634164662E+02  0.36489192713E+02  0.20000046226E+01 0.  0.
         13    1    3    3    0    0  0.14494453489E+02 -0.29545640622E+02  0.34312149808E+02  0.47543336549E+02  0.10566000000E+00 0. -1.
         13    1    4    4    0    0 -0.71809168274E+01  0.14339857078E+02 -0.68811674741E+01  0.17451610165E+02  0.10566000000E+00 0. -1.
        -13    1    4    4    0    0 -0.91444880715E+00  0.18951150405E+01 -0.14815404134E+01  0.25756171435E+01  0.10566000000E+00 0.  1.
        -14    1    4    4    0    0 -0.63990878543E+01  0.13310668503E+02 -0.72714567749E+01  0.16461965405E+02  0.00000000000E+00 0.  1.
<mgrwt>
<rscale>  0 0.81930451E+02</rscale>
<asrwt>0</asrwt>
<pdfrwt beam="1">  1        1 0.79008088E-02 0.81930451E+02</pdfrwt>
<pdfrwt beam="2">  1       -2 0.50272726E-02 0.81930451E+02</pdfrwt>
<totfact> 0.12364090E+05</totfact>
</mgrwt>
</event>
<event>
 8    1  0.7756875E-018  0.8377949E+02  0.7818608E-02  0.1318655E+00
         -2   -1    0    0    0  501 -0.00000000000E+00  0.00000000000E+00  0.14300222742E+03  0.14300222744E+03  0.25500000000E-02 0.  1.
          1   -1    0    0  501    0  0.00000000000E+00 -0.00000000000E+00 -0.12270793398E+02  0.12270794433E+02  0.50400000000E-02 0. -1.
        -24    2    1    2    0    0  0.00000000000E+00 -0.17763568394E-14  0.13073143402E+03  0.15527302187E+03  0.83779493199E+02 0.  0.
         66    2    3    3    0    0 -0.38587762122E+02  0.15748184650E+02  0.58053399642E+02  0.71492782255E+02  0.19999998162E+01 0.  0.
         13    1    3    3    0    0  0.38587762122E+02 -0.15748184650E+02  0.72678034379E+02  0.83780239619E+02  0.10566000000E+00 0. -1.
         13    1    4    4    0    0 -0.18017668481E+02  0.77397531625E+01  0.26927785989E+02  0.33311514207E+02  0.10566000000E+00 0. -1.
        -13    1    4    4    0    0 -0.52029010902E+01  0.25057078714E+01  0.87623545599E+01  0.10494702147E+02  0.10566000000E+00 0.  1.
         14    1    4    4    0    0 -0.15367192551E+02  0.55027236159E+01  0.22363259094E+02  0.27686565901E+02  0.00000000000E+00 0. -1.
<mgrwt>
<rscale>  0 0.83779493E+02</rscale>
<asrwt>0</asrwt>
<pdfrwt beam="1">  1        1 0.18878144E-02 0.83779493E+02</pdfrwt>
<pdfrwt beam="2">  1       -2 0.22000343E-01 0.83779493E+02</pdfrwt>
<totfact> 0.85222514E+04</totfact>
</mgrwt>
</event>
<event>
 8    1  0.7756875E-018  0.7987708E+02  0.7818608E-02  0.1329401E+00
          1   -1    0    0  501    0  0.00000000000E+00  0.00000000000E+00  0.65284874313E+02  0.65284874508E+02  0.50400000000E-02 0. -1.
         -2   -1    0    0    0  501 -0.00000000000E+00 -0.00000000000E+00 -0.24432718840E+02  0.24432718973E+02  0.25500000000E-02 0.  1.
        -24    2    1    2    0    0  0.17763568394E-14  0.00000000000E+00  0.40852155474E+02  0.89717593481E+02  0.79877080399E+02 0.  0.
         66    2    3    3    0    0 -0.88805674145E+01 -0.33647155529E+02 -0.15162954394E+01  0.34889750649E+02  0.19999989198E+01 0.  0.
         13    1    3    3    0    0  0.88805674145E+01  0.33647155529E+02  0.42368450913E+02  0.54827842832E+02  0.10566000000E+00 0. -1.
         13    1    4    4    0    0 -0.31328956211E+01 -0.14307940675E+02 -0.40635489122E+00  0.14652934507E+02  0.10566000000E+00 0. -1.
        -13    1    4    4    0    0 -0.47080079083E+01 -0.17108111016E+02 -0.10212751212E+01  0.17773771910E+02  0.10566000000E+00 0.  1.
        -14    1    4    4    0    0 -0.10396638851E+01 -0.22311038379E+01 -0.88665426977E-01  0.24630442317E+01  0.00000000000E+00 0.  1.
<mgrwt>
<rscale>  0 0.79877080E+02</rscale>
<asrwt>0</asrwt>
<pdfrwt beam="1">  1        1 0.10043827E-01 0.79877080E+02</pdfrwt>
<pdfrwt beam="2">  1       -2 0.37588798E-02 0.79877080E+02</pdfrwt>
<totfact> 0.13776951E+05</totfact>
</mgrwt>
</event>
<event>
 8    1  0.7756875E-018  0.8111158E+02  0.7818608E-02  0.1325926E+00
          1   -1    0    0  501    0  0.00000000000E+00  0.00000000000E+00  0.69544646928E+01  0.69544665190E+01  0.50400000000E-02 0. -1.
         -2   -1    0    0    0  501 -0.00000000000E+00 -0.00000000000E+00 -0.23650586606E+03  0.23650586607E+03  0.25500000000E-02 0.  1.
        -24    2    1    2    0    0  0.00000000000E+00  0.35527136788E-14 -0.22955140137E+03  0.24346033259E+03  0.81111575478E+02 0.  0.
         66    2    3    3    0    0 -0.32703129597E+02  0.20592211666E+02 -0.15151250245E+03  0.15637638014E+03  0.19999999932E+01 0.  0.
         13    1    3    3    0    0  0.32703129597E+02 -0.20592211666E+02 -0.78038898917E+02  0.87083952453E+02  0.10566000000E+00 0. -1.
         13    1    4    4    0    0 -0.73038268691E+01  0.41749667473E+01 -0.35761200983E+02  0.36737595105E+02  0.10566000000E+00 0. -1.
        -13    1    4    4    0    0 -0.23195138985E+02  0.14897127067E+02 -0.10483841119E+03  0.10840222550E+03  0.10566000000E+00 0.  1.
        -14    1    4    4    0    0 -0.22041637428E+01  0.15201178521E+01 -0.10912890276E+02  0.11236559539E+02  0.00000000000E+00 0.  1.
<mgrwt>
<rscale>  0 0.81111575E+02</rscale>
<asrwt>0</asrwt>
<pdfrwt beam="1">  1        1 0.10699180E-02 0.81111575E+02</pdfrwt>
<pdfrwt beam="2">  1       -2 0.36385512E-01 0.81111575E+02</pdfrwt>
<totfact> 0.76369815E+04</totfact>
</mgrwt>
</event>
<event>
 8    1  0.7756875E-018  0.7961682E+02  0.7818608E-02  0.1330142E+00
         -2   -1    0    0    0  501 -0.00000000000E+00  0.00000000000E+00  0.68445588348E+03  0.68445588348E+03  0.25500000000E-02 0.  1.
          1   -1    0    0  501    0  0.00000000000E+00 -0.00000000000E+00 -0.23152810716E+01  0.23152865573E+01  0.50400000000E-02 0. -1.
        -24    2    1    2    0    0  0.35527136788E-14  0.00000000000E+00  0.68214060241E+03  0.68677117004E+03  0.79616823265E+02 0.  0.
         66    2    3    3    0    0 -0.30338296726E+02 -0.40008979395E+01  0.56057518119E+03  0.56141335325E+03  0.20000001627E+01 0.  0.
         13    1    3    3    0    0  0.30338296726E+02  0.40008979395E+01  0.12156542121E+03  0.12535781679E+03  0.10566000000E+00 0. -1.
         13    1    4    4    0    0 -0.11658298700E+02 -0.18484273934E+01  0.23059134789E+03  0.23089329462E+03  0.10566000000E+00 0. -1.
        -13    1    4    4    0    0 -0.47245818678E+01 -0.86394843337E+00  0.85557268088E+02  0.85692037947E+02  0.10566000000E+00 0.  1.
         14    1    4    4    0    0 -0.13955416158E+02 -0.12885221127E+01  0.24442656521E+03  0.24482802068E+03  0.00000000000E+00 0. -1.
<mgrwt>
<rscale>  0 0.79616823E+02</rscale>
<asrwt>0</asrwt>
<pdfrwt beam="1">  1        1 0.35619792E-03 0.79616823E+02</pdfrwt>
<pdfrwt beam="2">  1       -2 0.10530078E+00 0.79616823E+02</pdfrwt>
<totfact> 0.39127637E+04</totfact>
</mgrwt>
</event>
<event>
 8    1  0.7756875E-018  0.8045732E+02  0.7818608E-02  0.1327759E+00
          1   -1    0    0  501    0  0.00000000000E+00  0.00000000000E+00  0.47974528617E+01  0.47974555091E+01  0.50400000000E-02 0. -1.
         -2   -1    0    0    0  501 -0.00000000000E+00 -0.00000000000E+00 -0.33733417813E+03  0.33733417814E+03  0.25500000000E-02 0.  1.
        -24    2    1    2    0    0 -0.35527136788E-14 -0.17763568394E-14 -0.33253672527E+03  0.34213163365E+03  0.80457324658E+02 0.  0.
         66    2    3    3    0    0 -0.23447612246E+02 -0.11676085975E+02 -0.29606490979E+03  0.29722811495E+03  0.20000000612E+01 0.  0.
         13    1    3    3    0    0  0.23447612246E+02  0.11676085975E+02 -0.36471815475E+02  0.44903518702E+02  0.10566000000E+00 0. -1.
         13    1    4    4    0    0 -0.91738312963E+01 -0.45789692141E+01 -0.11115517207E+03  0.11162710057E+03  0.10566000000E+00 0. -1.
        -13    1    4    4    0    0 -0.79312917904E+01 -0.39752186757E+01 -0.94698870829E+02  0.95113590266E+02  0.10566000000E+00 0.  1.
         14    1    4    4    0    0 -0.63424891593E+01 -0.31218980853E+01 -0.90210866893E+02  0.90487424110E+02  0.00000000000E+00 0. -1.
<mgrwt>
<rscale>  0 0.80457325E+02</rscale>
<asrwt>0</asrwt>
<pdfrwt beam="1">  1        1 0.73807014E-03 0.80457325E+02</pdfrwt>
<pdfrwt beam="2">  1       -2 0.51897547E-01 0.80457325E+02</pdfrwt>
<totfact> 0.64786935E+04</totfact>
</mgrwt>
</event>
<event>
 8    1  0.7756875E-018  0.7945349E+02  0.7818608E-02  0.1330610E+00
          1   -1    0    0  501    0  0.00000000000E+00  0.00000000000E+00  0.15793653984E+03  0.15793653992E+03  0.50400000000E-02 0. -1.
         -2   -1    0    0    0  501 -0.00000000000E+00 -0.00000000000E+00 -0.99927118829E+01  0.99927122083E+01  0.25500000000E-02 0.  1.
        -24    2    1    2    0    0  0.35527136788E-14  0.35527136788E-14  0.14794382796E+03  0.16792925213E+03  0.79453492623E+02 0.  0.
         66    2    3    3    0    0  0.16164192406E+02  0.25750138008E+02  0.20056398595E+02  0.36477525337E+02  0.20000016413E+01 0.  0.
         13    1    3    3    0    0 -0.16164192406E+02 -0.25750138008E+02  0.12788742936E+03  0.13145172679E+03  0.10566000000E+00 0. -1.
         13    1    4    4    0    0  0.93297571051E+01  0.14354456495E+02  0.12052128875E+02  0.20937042851E+02  0.10566000000E+00 0. -1.
        -13    1    4    4    0    0  0.39450182062E+01  0.63998522668E+01  0.50475111247E+01  0.90559268037E+01  0.10566000000E+00 0.  1.
         14    1    4    4    0    0  0.28894170943E+01  0.49958292465E+01  0.29567585950E+01  0.64845556821E+01  0.00000000000E+00 0. -1.
<mgrwt>
<rscale>  0 0.79453493E+02</rscale>
<asrwt>0</asrwt>
<pdfrwt beam="1">  1        1 0.24297929E-01 0.79453493E+02</pdfrwt>
<pdfrwt beam="2">  1       -2 0.15373404E-02 0.79453493E+02</pdfrwt>
<totfact> 0.16234316E+05</totfact>
</mgrwt>
</event>
<event>
 8    1  0.7756875E-018  0.7997428E+02  0.7818608E-02  0.1329124E+00
          1   -1    0    0  501    0  0.00000000000E+00  0.00000000000E+00  0.41088057370E+01  0.41088088281E+01  0.50400000000E-02 0. -1.
         -2   -1    0    0    0  501 -0.00000000000E+00 -0.00000000000E+00 -0.38915701959E+03  0.38915701960E+03  0.25500000000E-02 0.  1.
        -24    2    1    2    0    0  0.35527136788E-14  0.00000000000E+00 -0.38504821386E+03  0.39326582843E+03  0.79974275968E+02 0.  0.
         66    2    3    3    0    0 -0.27050856669E+02 -0.56922699036E+01 -0.33455328833E+03  0.33569934990E+03  0.20000006387E+01 0.  0.
         13    1    3    3    0    0  0.27050856669E+02  0.56922699036E+01 -0.50494925523E+02  0.57566478534E+02  0.10566000000E+00 0. -1.
         13    1    4    4    0    0 -0.10567281719E+02 -0.18006895593E+01 -0.11933384032E+03  0.11981438367E+03  0.10566000000E+00 0. -1.
        -13    1    4    4    0    0 -0.10862193249E+02 -0.26203464955E+01 -0.14294056359E+03  0.14337666945E+03  0.10566000000E+00 0.  1.
         14    1    4    4    0    0 -0.56213817008E+01 -0.12712338488E+01 -0.72278884425E+02  0.72508296777E+02  0.00000000000E+00 0. -1.
<mgrwt>
<rscale>  0 0.79974276E+02</rscale>
<asrwt>0</asrwt>
<pdfrwt beam="1">  1        1 0.63212451E-03 0.79974276E+02</pdfrwt>
<pdfrwt beam="2">  1       -2 0.59870281E-01 0.79974276E+02</pdfrwt>
<totfact> 0.60219632E+04</totfact>
</mgrwt>
</event>
<event>
 8    1  0.7756875E-018  0.7968539E+02  0.7818608E-02  0.1329947E+00
         -2   -1    0    0    0  501 -0.00000000000E+00  0.00000000000E+00  0.16541130668E+02  0.16541130864E+02  0.25500000000E-02 0.  1.
          1   -1    0    0  501    0  0.00000000000E+00 -0.00000000000E+00 -0.95969281261E+02  0.95969281393E+02  0.50400000000E-02 0. -1.
        -24    2    1    2    0    0  0.35527136788E-14  0.00000000000E+00 -0.79428150593E+02  0.11251041226E+03  0.79685392386E+02 0.  0.
         66    2    3    3    0    0  0.24029858504E+02 -0.28477910040E+01  0.49077867365E+01  0.24771563948E+02  0.19999991186E+01 0.  0.
         13    1    3    3    0    0 -0.24029858504E+02  0.28477910040E+01 -0.84335937330E+02  0.87738848309E+02  0.10566000000E+00 0. -1.
         13    1    4    4    0    0  0.13372340123E+02 -0.11788448473E+01  0.23667265368E+01  0.13631643851E+02  0.10566000000E+00 0. -1.
        -13    1    4    4    0    0  0.86618097919E+01 -0.12053391007E+01  0.16249484440E+01  0.88955838875E+01  0.10566000000E+00 0.  1.
         14    1    4    4    0    0  0.19957085889E+01 -0.46360705588E+00  0.91611175571E+00  0.22443362099E+01  0.00000000000E+00 0. -1.
<mgrwt>
<rscale>  0 0.79685392E+02</rscale>
<asrwt>0</asrwt>
<pdfrwt beam="1">  1        1 0.14764505E-01 0.79685392E+02</pdfrwt>
<pdfrwt beam="2">  1       -2 0.25447894E-02 0.79685392E+02</pdfrwt>
<totfact> 0.14754655E+05</totfact>
</mgrwt>
</event>
<event>
 8    1  0.7756875E-018  0.8016818E+02  0.7818608E-02  0.1328575E+00
          1   -1    0    0  501    0  0.00000000000E+00  0.00000000000E+00  0.13510204238E+03  0.13510204248E+03  0.50400000000E-02 0. -1.
         -2   -1    0    0    0  501 -0.00000000000E+00 -0.00000000000E+00 -0.11892744497E+02  0.11892744771E+02  0.25500000000E-02 0.  1.
        -24    2    1    2    0    0  0.00000000000E+00  0.17763568394E-14  0.12320929788E+03  0.14699478725E+03  0.80168175684E+02 0.  0.
         66    2    3    3    0    0 -0.24570863712E+02 -0.15924036771E+02  0.11514433365E+02  0.31525933373E+02  0.20000021739E+01 0.  0.
         13    1    3    3    0    0  0.24570863712E+02  0.15924036771E+02  0.11169486452E+03  0.11546885387E+03  0.10566000000E+00 0. -1.
         13    1    4    4    0    0 -0.56275153229E+01 -0.43137563209E+01  0.21362850429E+01  0.74062338692E+01  0.10566000000E+00 0. -1.
        -13    1    4    4    0    0 -0.14536645545E+02 -0.90673974684E+01  0.73262752346E+01  0.18633765948E+02  0.10566000000E+00 0.  1.
         14    1    4    4    0    0 -0.44067028440E+01 -0.25428829817E+01  0.20518730871E+01  0.54859335559E+01  0.00000000000E+00 0. -1.
<mgrwt>
<rscale>  0 0.80168176E+02</rscale>
<asrwt>0</asrwt>
<pdfrwt beam="1">  1        1 0.20784931E-01 0.80168176E+02</pdfrwt>
<pdfrwt beam="2">  1       -2 0.18296529E-02 0.80168176E+02</pdfrwt>
<totfact> 0.15402953E+05</totfact>
</mgrwt>
</event>
<event>
 8    1  0.7756875E-018  0.8230475E+02  0.7818608E-02  0.1322635E+00
          1   -1    0    0  501    0  0.00000000000E+00  0.00000000000E+00  0.64936490175E+01  0.64936509734E+01  0.50400000000E-02 0. -1.
         -2   -1    0    0    0  501 -0.00000000000E+00 -0.00000000000E+00 -0.26079602296E+03  0.26079602297E+03  0.25500000000E-02 0.  1.
        -24    2    1    2    0    0  0.00000000000E+00  0.00000000000E+00 -0.25430237394E+03  0.26728967395E+03  0.82304753236E+02 0.  0.
         66    2    3    3    0    0  0.40580210409E+02  0.17875958159E+00 -0.10550677584E+03  0.11305956466E+03  0.19999952289E+01 0.  0.
         13    1    3    3    0    0 -0.40580210409E+02 -0.17875958159E+00 -0.14879559810E+03  0.15423010929E+03  0.10566000000E+00 0. -1.
         13    1    4    4    0    0  0.27438597932E+01 -0.19664343512E+00 -0.74142776841E+01  0.79088629283E+01  0.10566000000E+00 0. -1.
        -13    1    4    4    0    0  0.19702019413E+02 -0.40718112712E+00 -0.52655823576E+02  0.56222613653E+02  0.10566000000E+00 0.  1.
         14    1    4    4    0    0  0.18134331203E+02  0.78258414383E+00 -0.45436674581E+02  0.48928088079E+02  0.00000000000E+00 0. -1.
<mgrwt>
<rscale>  0 0.82304753E+02</rscale>
<asrwt>0</asrwt>
<pdfrwt beam="1">  1        1 0.99902328E-03 0.82304753E+02</pdfrwt>
<pdfrwt beam="2">  1       -2 0.40122457E-01 0.82304753E+02</pdfrwt>
<totfact> 0.70203337E+04</totfact>
</mgrwt>
</event>
<event>
 8    1  0.7756875E-018  0.8333739E+02  0.7818608E-02  0.1319839E+00
         -2   -1    0    0    0  501 -0.00000000000E+00  0.00000000000E+00  0.19135670571E+03  0.19135670572E+03  0.25500000000E-02 0.  1.
          1   -1    0    0  501    0  0.00000000000E+00 -0.00000000000E+00 -0.90735258056E+01  0.90735272054E+01  0.50400000000E-02 0. -1.
        -24    2    1    2    0    0 -0.35527136788E-14  0.00000000000E+00  0.18228317990E+03  0.20043023293E+03  0.83337390151E+02 0.  0.
         66    2    3    3    0    0  0.23972265883E+02  0.51931860556E+01  0.17213494190E+03  0.17388524072E+03  0.20000009145E+01 0.  0.
         13    1    3    3    0    0 -0.23972265883E+02 -0.51931860556E+01  0.10148238002E+02  0.26544992212E+02  0.10566000000E+00 0. -1.
         13    1    4    4    0    0  0.56421792615E+01  0.84009324232E+00  0.39721419713E+02  0.40129070405E+02  0.10566000000E+00 0. -1.
        -13    1    4    4    0    0  0.13138677573E+02  0.24551150558E+01  0.95654368892E+02  0.96583755832E+02  0.10566000000E+00 0.  1.
         14    1    4    4    0    0  0.51914090480E+01  0.18979777575E+01  0.36759153293E+02  0.37172414480E+02  0.00000000000E+00 0. -1.
<mgrwt>
<rscale>  0 0.83337390E+02</rscale>
<asrwt>0</asrwt>
<pdfrwt beam="1">  1        1 0.13959271E-02 0.83337390E+02</pdfrwt>
<pdfrwt beam="2">  1       -2 0.29439495E-01 0.83337390E+02</pdfrwt>
<totfact> 0.77918072E+04</totfact>
</mgrwt>
</event>
<event>
 8    1  0.7756875E-018  0.7942227E+02  0.7818608E-02  0.1330699E+00
          1   -1    0    0  501    0  0.00000000000E+00  0.00000000000E+00  0.20731879455E+03  0.20731879461E+03  0.50400000000E-02 0. -1.
         -2   -1    0    0    0  501 -0.00000000000E+00 -0.00000000000E+00 -0.76065184046E+01  0.76065188320E+01  0.25500000000E-02 0.  1.
        -24    2    1    2    0    0 -0.71054273576E-14 -0.17763568394E-14  0.19971227614E+03  0.21492531344E+03  0.79422270903E+02 0.  0.
         66    2    3    3    0    0  0.38112099844E+02  0.11064703650E+02  0.10018309779E+03  0.10777575288E+03  0.20000010030E+01 0.  0.
         13    1    3    3    0    0 -0.38112099844E+02 -0.11064703650E+02  0.99529178349E+02  0.10714956056E+03  0.10566000000E+00 0. -1.
         13    1    4    4    0    0  0.38695579350E+01  0.13041207113E+01  0.10272534893E+02  0.11054878860E+02  0.10566000000E+00 0. -1.
        -13    1    4    4    0    0  0.24381660183E+02  0.77815626177E+01  0.64721896922E+02  0.69598514175E+02  0.10566000000E+00 0.  1.
        -14    1    4    4    0    0  0.98608817251E+01  0.19790203215E+01  0.25188665976E+02  0.27122359844E+02  0.00000000000E+00 0.  1.
<mgrwt>
<rscale>  0 0.79422271E+02</rscale>
<asrwt>0</asrwt>
<pdfrwt beam="1">  1        1 0.31895201E-01 0.79422271E+02</pdfrwt>
<pdfrwt beam="2">  1       -2 0.11702336E-02 0.79422271E+02</pdfrwt>
<totfact> 0.17116672E+05</totfact>
</mgrwt>
</event>
<event>
 8    1  0.7756875E-018  0.7797017E+02  0.7818608E-02  0.1334913E+00
         -2   -1    0    0    0  501 -0.00000000000E+00  0.00000000000E+00  0.17887552545E+03  0.17887552547E+03  0.25500000000E-02 0.  1.
          1   -1    0    0  501    0  0.00000000000E+00 -0.00000000000E+00 -0.84966166414E+01  0.84966181362E+01  0.50400000000E-02 0. -1.
        -24    2    1    2    0    0 -0.35527136788E-14  0.35527136788E-14  0.17037890881E+03  0.18737214361E+03  0.77970171426E+02 0.  0.
         66    2    3    3    0    0 -0.19300045641E+02  0.19100609508E+02  0.15238281150E+03  0.15479614434E+03  0.20000047495E+01 0.  0.
         13    1    3    3    0    0  0.19300045641E+02 -0.19100609508E+02  0.17996097313E+02  0.32575999261E+02  0.10566000000E+00 0. -1.
         13    1    4    4    0    0 -0.12364529762E+02  0.11803667167E+02  0.10016704756E+03  0.10161523870E+03  0.10566000000E+00 0. -1.
        -13    1    4    4    0    0 -0.46131194475E+01  0.49223235442E+01  0.36424966720E+02  0.37044561067E+02  0.10566000000E+00 0.  1.
         14    1    4    4    0    0 -0.23223964311E+01  0.23746187967E+01  0.15790797216E+02  0.16136344578E+02  0.00000000000E+00 0. -1.
<mgrwt>
<rscale>  0 0.77970171E+02</rscale>
<asrwt>0</asrwt>
<pdfrwt beam="1">  1        1 0.13071722E-02 0.77970171E+02</pdfrwt>
<pdfrwt beam="2">  1       -2 0.27519306E-01 0.77970171E+02</pdfrwt>
<totfact> 0.94938663E+04</totfact>
</mgrwt>
</event>
<event>
 8    1  0.7756875E-018  0.8472786E+02  0.7818608E-02  0.1316146E+00
         -2   -1    0    0    0  501 -0.00000000000E+00  0.00000000000E+00  0.74971808476E+01  0.74971812813E+01  0.25500000000E-02 0.  1.
          1   -1    0    0  501    0  0.00000000000E+00 -0.00000000000E+00 -0.23938366586E+03  0.23938366591E+03  0.50400000000E-02 0. -1.
        -24    2    1    2    0    0  0.71054273576E-14  0.00000000000E+00 -0.23188648501E+03  0.24688084719E+03  0.84727863067E+02 0.  0.
         66    2    3    3    0    0  0.32774477879E+02 -0.73153665399E+01 -0.40866588371E+02  0.52931644915E+02  0.20000001223E+01 0.  0.
         13    1    3    3    0    0 -0.32774477879E+02  0.73153665399E+01 -0.19101989664E+03  0.19394920228E+03  0.10566000000E+00 0. -1.
         13    1    4    4    0    0  0.23004047176E+02 -0.48887426679E+01 -0.27556436929E+02  0.36227812128E+02  0.10566000000E+00 0. -1.
        -13    1    4    4    0    0  0.85546882657E+01 -0.18803813625E+01 -0.11577262031E+02  0.14517668048E+02  0.10566000000E+00 0.  1.
         14    1    4    4    0    0  0.12157424371E+01 -0.54624250957E+00 -0.17328894118E+01  0.21861647390E+01  0.00000000000E+00 0. -1.
<mgrwt>
<rscale>  0 0.84727863E+02</rscale>
<asrwt>0</asrwt>
<pdfrwt beam="1">  1        1 0.36828250E-01 0.84727863E+02</pdfrwt>
<pdfrwt beam="2">  1       -2 0.11534127E-02 0.84727863E+02</pdfrwt>
<totfact> 0.14827445E+05</totfact>
</mgrwt>
</event>
<event>
 8    1  0.7756875E-018  0.8085316E+02  0.7818608E-02  0.1326648E+00
          1   -1    0    0  501    0  0.00000000000E+00  0.00000000000E+00  0.96118433532E+02  0.96118433664E+02  0.50400000000E-02 0. -1.
         -2   -1    0    0    0  501 -0.00000000000E+00 -0.00000000000E+00 -0.17003068545E+02  0.17003068736E+02  0.25500000000E-02 0.  1.
        -24    2    1    2    0    0 -0.71054273576E-14 -0.44408920985E-15  0.79115364987E+02  0.11312150240E+03  0.80853159050E+02 0.  0.
         66    2    3    3    0    0 -0.37475086502E+02  0.33022235322E+01  0.18971030263E+02  0.42180407455E+02  0.19999988009E+01 0.  0.
         13    1    3    3    0    0  0.37475086502E+02 -0.33022235322E+01  0.60144334724E+02  0.70941094945E+02  0.10566000000E+00 0. -1.
         13    1    4    4    0    0 -0.12238927239E+02  0.58867109589E+00  0.56159733645E+01  0.13479176328E+02  0.10566000000E+00 0. -1.
        -13    1    4    4    0    0 -0.18381298997E+02  0.24567595593E+01  0.97775982827E+01  0.20964742130E+02  0.10566000000E+00 0.  1.
        -14    1    4    4    0    0 -0.68548602664E+01  0.25679287699E+00  0.35774586157E+01  0.77364889970E+01  0.00000000000E+00 0.  1.
<mgrwt>
<rscale>  0 0.80853159E+02</rscale>
<asrwt>0</asrwt>
<pdfrwt beam="1">  1        1 0.14787451E-01 0.80853159E+02</pdfrwt>
<pdfrwt beam="2">  1       -2 0.26158568E-02 0.80853159E+02</pdfrwt>
<totfact> 0.14188484E+05</totfact>
</mgrwt>
</event>
<event>
 8    1  0.8047231E-018  0.7887128E+02  0.7818608E-02  0.1332285E+00
          1   -1    0    0  501    0  0.00000000000E+00  0.00000000000E+00  0.13237792615E+03  0.13237792625E+03  0.50400000000E-02 0. -1.
         -2   -1    0    0    0  501 -0.00000000000E+00 -0.00000000000E+00 -0.11747952541E+02  0.11747952818E+02  0.25500000000E-02 0.  1.
        -24    2    1    2    0    0 -0.88817841970E-15 -0.35527136788E-14  0.12062997361E+03  0.14412587907E+03  0.78871277936E+02 0.  0.
         66    2    3    3    0    0  0.64547865661E+01  0.30018833640E+02  0.15207618813E+02  0.34322970644E+02  0.20000002802E+01 0.  0.
         13    1    3    3    0    0 -0.64547865661E+01 -0.30018833640E+02  0.10542235480E+03  0.10980290842E+03  0.10566000000E+00 0. -1.
         13    1    4    4    0    0  0.28153548213E+01  0.14063536371E+02  0.65518977252E+01  0.15768570191E+02  0.10566000000E+00 0. -1.
        -13    1    4    4    0    0  0.29904513331E+01  0.14586366003E+02  0.77010425247E+01  0.16763713561E+02  0.10566000000E+00 0.  1.
         14    1    4    4    0    0  0.64898041163E+00  0.13689312661E+01  0.95467856283E+00  0.17906868917E+01  0.00000000000E+00 0. -1.
<mgrwt>
<rscale>  0 0.78871278E+02</rscale>
<asrwt>0</asrwt>
<pdfrwt beam="1">  1        1 0.20365837E-01 0.78871278E+02</pdfrwt>
<pdfrwt beam="2">  1       -2 0.18073771E-02 0.78871278E+02</pdfrwt>
<totfact> 0.16031781E+05</totfact>
</mgrwt>
</event>
<event>
 8    1  0.7756875E-018  0.8882559E+02  0.7818608E-02  0.1305721E+00
          1   -1    0    0  501    0  0.00000000000E+00  0.00000000000E+00  0.27803932006E+03  0.27803932010E+03  0.50400000000E-02 0. -1.
         -2   -1    0    0    0  501 -0.00000000000E+00 -0.00000000000E+00 -0.70943062514E+01  0.70943067097E+01  0.25500000000E-02 0.  1.
        -24    2    1    2    0    0 -0.71054273576E-14  0.88817841970E-15  0.27094501381E+03  0.28513362681E+03  0.88825585464E+02 0.  0.
         66    2    3    3    0    0  0.41407918593E+02 -0.42019241122E+01  0.85996122196E+02  0.95559431416E+02  0.20000028454E+01 0.  0.
         13    1    3    3    0    0 -0.41407918593E+02  0.42019241122E+01  0.18494889161E+03  0.18957419540E+03  0.10566000000E+00 0. -1.
         13    1    4    4    0    0  0.29867660803E+01 -0.34252393859E+00  0.51357763886E+01  0.59519288820E+01  0.10566000000E+00 0. -1.
        -13    1    4    4    0    0  0.20149574212E+02 -0.19851716511E+01  0.42447302583E+02  0.47029043240E+02  0.10566000000E+00 0.  1.
         14    1    4    4    0    0  0.18271578301E+02 -0.18742285226E+01  0.38413043224E+02  0.42578459294E+02  0.00000000000E+00 0. -1.
<mgrwt>
<rscale>  0 0.88825585E+02</rscale>
<asrwt>0</asrwt>
<pdfrwt beam="1">  1        1 0.42775286E-01 0.88825585E+02</pdfrwt>
<pdfrwt beam="2">  1       -2 0.10914316E-02 0.88825585E+02</pdfrwt>
<totfact> 0.13467930E+05</totfact>
</mgrwt>
</event>
<event>
 8    1  0.7756875E-018  0.8007685E+02  0.7818608E-02  0.1328833E+00
          1   -1    0    0  501    0  0.00000000000E+00  0.00000000000E+00  0.64165801008E+01  0.64165820802E+01  0.50400000000E-02 0. -1.
         -2   -1    0    0    0  501 -0.00000000000E+00 -0.00000000000E+00 -0.24983329846E+03  0.24983329847E+03  0.25500000000E-02 0.  1.
        -24    2    1    2    0    0  0.35527136788E-14 -0.71054273576E-14 -0.24341671836E+03  0.25624988055E+03  0.80076853752E+02 0.  0.
         66    2    3    3    0    0  0.25690509429E+02 -0.27397559809E+02 -0.77623144197E+02  0.86255324888E+02  0.19999995829E+01 0.  0.
         13    1    3    3    0    0 -0.25690509429E+02  0.27397559809E+02 -0.16579357416E+03  0.16999455566E+03  0.10566000000E+00 0. -1.
         13    1    4    4    0    0  0.34285653512E+01 -0.35454254473E+01 -0.90128354131E+01  0.10274603067E+02  0.10566000000E+00 0. -1.
        -13    1    4    4    0    0  0.10156591921E+02 -0.10150598807E+02 -0.30615933572E+02  0.33816232317E+02  0.10566000000E+00 0.  1.
        -14    1    4    4    0    0  0.12105352157E+02 -0.13701535554E+02 -0.37994375212E+02  0.42164489504E+02  0.00000000000E+00 0.  1.
<mgrwt>
<rscale>  0 0.80076854E+02</rscale>
<asrwt>0</asrwt>
<pdfrwt beam="1">  1        1 0.98716652E-03 0.80076854E+02</pdfrwt>
<pdfrwt beam="2">  1       -2 0.38435885E-01 0.80076854E+02</pdfrwt>
<totfact> 0.76948632E+04</totfact>
</mgrwt>
</event>
<event>
 8    1  0.7756875E-018  0.8098726E+02  0.7818608E-02  0.1326273E+00
         -2   -1    0    0    0  501 -0.00000000000E+00  0.00000000000E+00  0.98433602573E+02  0.98433602607E+02  0.25500000000E-02 0.  1.
          1   -1    0    0  501    0  0.00000000000E+00 -0.00000000000E+00 -0.16658275870E+02  0.16658276633E+02  0.50400000000E-02 0. -1.
        -24    2    1    2    0    0  0.35527136788E-14 -0.35527136788E-14  0.81775326703E+02  0.11509187924E+03  0.80987262019E+02 0.  0.
         66    2    3    3    0    0 -0.30475122703E+02  0.21526534872E+02  0.63183851729E+02  0.73405203752E+02  0.20000028242E+01 0.  0.
         13    1    3    3    0    0  0.30475122703E+02 -0.21526534872E+02  0.18591474975E+02  0.41686675487E+02  0.10566000000E+00 0. -1.
         13    1    4    4    0    0 -0.23614865561E+01  0.15360386830E+01  0.40257578770E+01  0.49146641910E+01  0.10566000000E+00 0. -1.
        -13    1    4    4    0    0 -0.48954771164E+01  0.40034732881E+01  0.10791546089E+02  0.12508482146E+02  0.10566000000E+00 0.  1.
        -14    1    4    4    0    0 -0.23218159030E+02  0.15987022901E+02  0.48366547763E+02  0.55982057416E+02  0.00000000000E+00 0.  1.
<mgrwt>
<rscale>  0 0.80987262E+02</rscale>
<asrwt>0</asrwt>
<pdfrwt beam="1">  1        1 0.25628117E-02 0.80987262E+02</pdfrwt>
<pdfrwt beam="2">  1       -2 0.15143631E-01 0.80987262E+02</pdfrwt>
<totfact> 0.10325002E+05</totfact>
</mgrwt>
</event>
<event>
 8    1  0.7756875E-018  0.8982544E+02  0.7818608E-02  0.1303275E+00
         -2   -1    0    0    0  501 -0.00000000000E+00  0.00000000000E+00  0.81297060302E+01  0.81297064301E+01  0.25500000000E-02 0.  1.
          1   -1    0    0  501    0  0.00000000000E+00 -0.00000000000E+00 -0.24812118222E+03  0.24812118227E+03  0.50400000000E-02 0. -1.
        -24    2    1    2    0    0  0.44408920985E-15 -0.71054273576E-14 -0.23999147619E+03  0.25625088870E+03  0.89825438026E+02 0.  0.
         66    2    3    3    0    0  0.20190950433E+01 -0.37068075978E+02 -0.48052924074E+02  0.60755267385E+02  0.20000003557E+01 0.  0.
         13    1    3    3    0    0 -0.20190950433E+01  0.37068075978E+02 -0.19193855212E+03  0.19549562132E+03  0.10566000000E+00 0. -1.
         13    1    4    4    0    0  0.92449219036E+00 -0.21364305799E+02 -0.28058818586E+02  0.35278842279E+02  0.10566000000E+00 0. -1.
        -13    1    4    4    0    0  0.11720901401E+01 -0.81739291636E+01 -0.10533376857E+02  0.13384696684E+02  0.10566000000E+00 0.  1.
         14    1    4    4    0    0 -0.77487287109E-01 -0.75298410158E+01 -0.94607286306E+01  0.12091728422E+02  0.00000000000E+00 0. -1.
<mgrwt>
<rscale>  0 0.89825438E+02</rscale>
<asrwt>0</asrwt>
<pdfrwt beam="1">  1        1 0.38172484E-01 0.89825438E+02</pdfrwt>
<pdfrwt beam="2">  1       -2 0.12507242E-02 0.89825438E+02</pdfrwt>
<totfact> 0.12776626E+05</totfact>
</mgrwt>
</event>
<event>
 8    1  0.7756875E-018  0.7952239E+02  0.7818608E-02  0.1330412E+00
          1   -1    0    0  501    0  0.00000000000E+00  0.00000000000E+00  0.63797555231E+01  0.63797575139E+01  0.50400000000E-02 0. -1.
         -2   -1    0    0    0  501 -0.00000000000E+00 -0.00000000000E+00 -0.24780765514E+03  0.24780765515E+03  0.25500000000E-02 0.  1.
        -24    2    1    2    0    0  0.35527136788E-14  0.88817841970E-15 -0.24142789962E+03  0.25418741267E+03  0.79522387068E+02 0.  0.
         66    2    3    3    0    0  0.27074743712E+02  0.49269427214E+01 -0.21241278505E+03  0.21419735704E+03  0.19999997779E+01 0.  0.
         13    1    3    3    0    0 -0.27074743712E+02 -0.49269427214E+01 -0.29015114568E+02  0.39990055627E+02  0.10566000000E+00 0. -1.
         13    1    4    4    0    0  0.35727494941E+01  0.55425463584E+00 -0.25339452632E+02  0.25596303656E+02  0.10566000000E+00 0. -1.
        -13    1    4    4    0    0  0.48657898973E+00 -0.12441261015E-01 -0.27648718552E+01  0.28093761424E+01  0.10566000000E+00 0. -1.
        -14    1    4    4    0    0  0.23015415228E+02  0.43851293465E+01 -0.18430846056E+03  0.18579167724E+03  0.00000000000E+00 0.  1.
<mgrwt>
<rscale>  0 0.79522387E+02</rscale>
<asrwt>0</asrwt>
<pdfrwt beam="1">  1        1 0.98150120E-03 0.79522387E+02</pdfrwt>
<pdfrwt beam="2">  1       -2 0.38124247E-01 0.79522387E+02</pdfrwt>
<totfact> 0.78645190E+04</totfact>
</mgrwt>
</event>
<event>
 8    1  0.7756875E-018  0.8162761E+02  0.7818608E-02  0.1324495E+00
          1   -1    0    0  501    0  0.00000000000E+00  0.00000000000E+00  0.95300871987E+02  0.95300872121E+02  0.50400000000E-02 0. -1.
         -2   -1    0    0    0  501 -0.00000000000E+00 -0.00000000000E+00 -0.17479030336E+02  0.17479030522E+02  0.25500000000E-02 0.  1.
        -24    2    1    2    0    0  0.00000000000E+00  0.00000000000E+00  0.77821841651E+02  0.11277990264E+03  0.81627614214E+02 0.  0.
         66    2    3    3    0    0 -0.18929010263E+02 -0.41813387926E+01 -0.10650478065E+02  0.22208640404E+02  0.20000004952E+01 0.  0.
         13    1    3    3    0    0  0.18929010263E+02  0.41813387926E+01  0.88472319716E+02  0.90571262239E+02  0.10566000000E+00 0. -1.
         13    1    4    4    0    0 -0.49703129387E+01 -0.10513295595E+01 -0.20786793439E+01  0.54901162466E+01  0.10566000000E+00 0. -1.
        -13    1    4    4    0    0 -0.22398131138E+01 -0.76586306614E-01 -0.13629022174E+01  0.26251275658E+01  0.10566000000E+00 0.  1.
        -14    1    4    4    0    0 -0.11718884210E+02 -0.30534229265E+01 -0.72088965034E+01  0.14093396592E+02  0.00000000000E+00 0.  1.
<mgrwt>
<rscale>  0 0.81627614E+02</rscale>
<asrwt>0</asrwt>
<pdfrwt beam="1">  1        1 0.14661672E-01 0.81627614E+02</pdfrwt>
<pdfrwt beam="2">  1       -2 0.26890816E-02 0.81627614E+02</pdfrwt>
<totfact> 0.13806531E+05</totfact>
</mgrwt>
</event>
<event>
 8    1  0.7756875E-018  0.8000702E+02  0.7818608E-02  0.1329032E+00
          1   -1    0    0  501    0  0.00000000000E+00  0.00000000000E+00  0.23531581100E+03  0.23531581106E+03  0.50400000000E-02 0. -1.
         -2   -1    0    0    0  501 -0.00000000000E+00 -0.00000000000E+00 -0.68005668951E+01  0.68005673732E+01  0.25500000000E-02 0.  1.
        -24    2    1    2    0    0  0.00000000000E+00  0.71054273576E-14  0.22851524411E+03  0.24211637843E+03  0.80007024157E+02 0.  0.
         66    2    3    3    0    0 -0.65794238518E+01 -0.39305431860E+02  0.10472562660E+03  0.11206990075E+03  0.19999984938E+01 0.  0.
         13    1    3    3    0    0  0.65794238518E+01  0.39305431860E+02  0.12378961751E+03  0.13004647769E+03  0.10566000000E+00 0. -1.
         13    1    4    4    0    0 -0.96018200789E+00 -0.55274006501E+01  0.13436148679E+02  0.14560747330E+02  0.10566000000E+00 0. -1.
        -13    1    4    4    0    0 -0.54726188193E+01 -0.33257392593E+02  0.90229551887E+02  0.96319192877E+02  0.10566000000E+00 0.  1.
        -14    1    4    4    0    0 -0.14662302467E+00 -0.52063861754E+00  0.10599260369E+01  0.11899605394E+01  0.00000000000E+00 0.  1.
<mgrwt>
<rscale>  0 0.80007024E+02</rscale>
<asrwt>0</asrwt>
<pdfrwt beam="1">  1        1 0.36202431E-01 0.80007024E+02</pdfrwt>
<pdfrwt beam="2">  1       -2 0.10462411E-02 0.80007024E+02</pdfrwt>
<totfact> 0.17206916E+05</totfact>
</mgrwt>
</event>
<event>
 8    1  0.7756875E-018  0.8022142E+02  0.7818608E-02  0.1328424E+00
         -2   -1    0    0    0  501 -0.00000000000E+00  0.00000000000E+00  0.10260947033E+02  0.10260947350E+02  0.25500000000E-02 0.  1.
          1   -1    0    0  501    0  0.00000000000E+00 -0.00000000000E+00 -0.15679537594E+03  0.15679537602E+03  0.50400000000E-02 0. -1.
        -24    2    1    2    0    0  0.17763568394E-14  0.00000000000E+00 -0.14653442890E+03  0.16705632337E+03  0.80221420599E+02 0.  0.
         66    2    3    3    0    0  0.10979339741E+02  0.38497689654E+02 -0.69021533486E+02  0.79815976452E+02  0.20000005831E+01 0.  0.
         13    1    3    3    0    0 -0.10979339741E+02 -0.38497689654E+02 -0.77512895417E+02  0.87240346915E+02  0.10566000000E+00 0. -1.
         13    1    4    4    0    0  0.41242935692E+01  0.14028215045E+02 -0.23412743347E+02  0.27603773833E+02  0.10566000000E+00 0.  1.
        -13    1    4    4    0    0  0.17742972387E+01  0.66174920072E+01 -0.12633687410E+02  0.14372214609E+02  0.10566000000E+00 0.  1.
         14    1    4    4    0    0  0.50807489335E+01  0.17851982602E+02 -0.32975102730E+02  0.37839988010E+02  0.00000000000E+00 0. -1.
<mgrwt>
<rscale>  0 0.80221421E+02</rscale>
<asrwt>0</asrwt>
<pdfrwt beam="1">  1        1 0.24122364E-01 0.80221421E+02</pdfrwt>
<pdfrwt beam="2">  1       -2 0.15786074E-02 0.80221421E+02</pdfrwt>
<totfact> 0.15801594E+05</totfact>
</mgrwt>
</event>
<event>
 8    1  0.7756875E-018  0.7783841E+02  0.7818608E-02  0.1335300E+00
         -2   -1    0    0    0  501 -0.00000000000E+00  0.00000000000E+00  0.34337496544E+02  0.34337496639E+02  0.25500000000E-02 0.  1.
          1   -1    0    0  501    0  0.00000000000E+00 -0.00000000000E+00 -0.44112253469E+02  0.44112253757E+02  0.50400000000E-02 0. -1.
        -24    2    1    2    0    0  0.17763568394E-14  0.00000000000E+00 -0.97747569251E+01  0.78449750396E+02  0.77838406101E+02 0.  0.
         66    2    3    3    0    0  0.12660260889E+02 -0.25412125335E+02  0.21900907369E+02  0.35912505630E+02  0.19999993012E+01 0.  0.
         13    1    3    3    0    0 -0.12660260889E+02  0.25412125335E+02 -0.31675664294E+02  0.42537244767E+02  0.10566000000E+00 0. -1.
         13    1    4    4    0    0  0.44184072390E+01 -0.10280910776E+02  0.82645831349E+01  0.13911647902E+02  0.10566000000E+00 0. -1.
        -13    1    4    4    0    0  0.15615822561E+01 -0.21322626326E+01  0.22866516322E+01  0.34964300078E+01  0.10566000000E+00 0.  1.
        -14    1    4    4    0    0  0.66802713941E+01 -0.12998951927E+02  0.11349672602E+02  0.18504427720E+02  0.00000000000E+00 0.  1.
<mgrwt>
<rscale>  0 0.77838406E+02</rscale>
<asrwt>0</asrwt>
<pdfrwt beam="1">  1        1 0.67865006E-02 0.77838406E+02</pdfrwt>
<pdfrwt beam="2">  1       -2 0.52826918E-02 0.77838406E+02</pdfrwt>
<totfact> 0.13924788E+05</totfact>
</mgrwt>
</event>
<event>
 8    1  0.7756875E-018  0.8026863E+02  0.7818608E-02  0.1328291E+00
          1   -1    0    0  501    0  0.00000000000E+00  0.00000000000E+00  0.47393162989E+01  0.47393189787E+01  0.50400000000E-02 0. -1.
         -2   -1    0    0    0  501 -0.00000000000E+00 -0.00000000000E+00 -0.33987236326E+03  0.33987236327E+03  0.25500000000E-02 0.  1.
        -24    2    1    2    0    0  0.00000000000E+00  0.00000000000E+00 -0.33513304696E+03  0.34461168225E+03  0.80268626353E+02 0.  0.
         66    2    3    3    0    0 -0.32231841263E+02 -0.21412756917E+02 -0.21297561490E+03  0.21647173094E+03  0.20000008322E+01 0.  0.
         13    1    3    3    0    0  0.32231841263E+02  0.21412756917E+02 -0.12215743206E+03  0.12813995131E+03  0.10566000000E+00 0. -1.
         13    1    4    4    0    0 -0.17146829963E+01 -0.13218026091E+01 -0.13294777973E+02  0.13470322391E+02  0.10566000000E+00 0. -1.
        -13    1    4    4    0    0 -0.28890308374E+02 -0.18632470264E+02 -0.18699870671E+03  0.19013244421E+03  0.10566000000E+00 0.  1.
        -14    1    4    4    0    0 -0.16268498922E+01 -0.14584840437E+01 -0.12682130214E+02  0.12868964334E+02  0.00000000000E+00 0.  1.
<mgrwt>
<rscale>  0 0.80268626E+02</rscale>
<asrwt>0</asrwt>
<pdfrwt beam="1">  1        1 0.72912606E-03 0.80268626E+02</pdfrwt>
<pdfrwt beam="2">  1       -2 0.52288037E-01 0.80268626E+02</pdfrwt>
<totfact> 0.64892661E+04</totfact>
</mgrwt>
</event>
<event>
 8    1  0.7756875E-018  0.7322180E+02  0.7818608E-02  0.1349468E+00
          1   -1    0    0  501    0  0.00000000000E+00  0.00000000000E+00  0.50918049841E+01  0.50918074784E+01  0.50400000000E-02 0. -1.
         -2   -1    0    0    0  501 -0.00000000000E+00 -0.00000000000E+00 -0.26323821460E+03  0.26323821461E+03  0.25500000000E-02 0.  1.
        -24    2    1    2    0    0  0.17763568394E-14  0.17763568394E-14 -0.25814640962E+03  0.26833002209E+03  0.73221799744E+02 0.  0.
         66    2    3    3    0    0 -0.15417811643E+02 -0.91203217569E+01 -0.24606220149E+03  0.24672149519E+03  0.20000004229E+01 0.  0.
         13    1    3    3    0    0  0.15417811643E+02  0.91203217569E+01 -0.12084208128E+02  0.21608526903E+02  0.10566000000E+00 0. -1.
         13    1    4    4    0    0 -0.53832893706E+00 -0.61601782627E+00 -0.81739891207E+01  0.82155059605E+01  0.10566000000E+00 0.  1.
        -13    1    4    4    0    0 -0.94645420684E+01 -0.57920225755E+01 -0.15197535217E+03  0.15237993278E+03  0.10566000000E+00 0.  1.
         14    1    4    4    0    0 -0.54149406373E+01 -0.27122813551E+01 -0.85912860200E+02  0.86126056452E+02  0.00000000000E+00 0. -1.
<mgrwt>
<rscale>  0 0.73221800E+02</rscale>
<asrwt>0</asrwt>
<pdfrwt beam="1">  1        1 0.78335501E-03 0.73221800E+02</pdfrwt>
<pdfrwt beam="2">  1       -2 0.40498176E-01 0.73221800E+02</pdfrwt>
<totfact> 0.94447359E+04</totfact>
</mgrwt>
</event>
<event>
 8    1  0.7756875E-018  0.8279841E+02  0.7818608E-02  0.1321292E+00
          1   -1    0    0  501    0  0.00000000000E+00  0.00000000000E+00  0.91042425092E+01  0.91042439043E+01  0.50400000000E-02 0. -1.
         -2   -1    0    0    0  501 -0.00000000000E+00 -0.00000000000E+00 -0.18825224337E+03  0.18825224338E+03  0.25500000000E-02 0.  1.
        -24    2    1    2    0    0  0.00000000000E+00  0.00000000000E+00 -0.17914800086E+03  0.19735648729E+03  0.82798410996E+02 0.  0.
         66    2    3    3    0    0 -0.20683266527E+02  0.75828191927E+01 -0.17310556553E+03  0.17451313268E+03  0.19999997237E+01 0.  0.
         13    1    3    3    0    0  0.20683266527E+02 -0.75828191927E+01 -0.60424353296E+01  0.22843354611E+02  0.10566000000E+00 0. -1.
         13    1    4    4    0    0 -0.12035860499E+01  0.39841504586E+00 -0.13032769229E+02  0.13094716176E+02  0.10566000000E+00 0. -1.
        -13    1    4    4    0    0 -0.96553140852E+01  0.37258092293E+01 -0.84397724411E+02  0.85029958216E+02  0.10566000000E+00 0.  1.
        -14    1    4    4    0    0 -0.98243663920E+01  0.34585949176E+01 -0.75675071888E+02  0.76388458285E+02  0.00000000000E+00 0.  1.
<mgrwt>
<rscale>  0 0.82798411E+02</rscale>
<asrwt>0</asrwt>
<pdfrwt beam="1">  1        1 0.14006529E-02 0.82798411E+02</pdfrwt>
<pdfrwt beam="2">  1       -2 0.28961881E-01 0.82798411E+02</pdfrwt>
<totfact> 0.79744305E+04</totfact>
</mgrwt>
</event>
<event>
 8    1  0.7756875E-018  0.8169486E+02  0.7818608E-02  0.1324309E+00
         -2   -1    0    0    0  501 -0.00000000000E+00  0.00000000000E+00  0.97747124678E+02  0.97747124711E+02  0.25500000000E-02 0.  1.
          1   -1    0    0  501    0  0.00000000000E+00 -0.00000000000E+00 -0.17069682476E+02  0.17069683220E+02  0.50400000000E-02 0. -1.
        -24    2    1    2    0    0  0.00000000000E+00 -0.35527136788E-14  0.80677442203E+02  0.11481680793E+03  0.81694857262E+02 0.  0.
         66    2    3    3    0    0 -0.97711170578E+01  0.24594251935E+02  0.84048023435E+02  0.88138653222E+02  0.19999979154E+01 0.  0.
         13    1    3    3    0    0  0.97711170578E+01 -0.24594251935E+02 -0.33705812326E+01  0.26678154709E+02  0.10566000000E+00 0. -1.
         13    1    4    4    0    0 -0.26830515428E+01  0.61008576876E+01  0.18897235927E+02  0.20038361206E+02  0.10566000000E+00 0. -1.
        -13    1    4    4    0    0 -0.23373047630E+01  0.56389319170E+01  0.21342894440E+02  0.22198893077E+02  0.10566000000E+00 0.  1.
         14    1    4    4    0    0 -0.47507607520E+01  0.12854462330E+02  0.43807893067E+02  0.45901398939E+02  0.00000000000E+00 0. -1.
<mgrwt>
<rscale>  0 0.81694857E+02</rscale>
<asrwt>0</asrwt>
<pdfrwt beam="1">  1        1 0.26261050E-02 0.81694857E+02</pdfrwt>
<pdfrwt beam="2">  1       -2 0.15038019E-01 0.81694857E+02</pdfrwt>
<totfact> 0.10114995E+05</totfact>
</mgrwt>
</event>
<event>
 8    1  0.7756875E-018  0.8008271E+02  0.7818608E-02  0.1328817E+00
         -2   -1    0    0    0  501 -0.00000000000E+00  0.00000000000E+00  0.14395097742E+02  0.14395097968E+02  0.25500000000E-02 0.  1.
          1   -1    0    0  501    0  0.00000000000E+00 -0.00000000000E+00 -0.11137889566E+03  0.11137889578E+03  0.50400000000E-02 0. -1.
        -24    2    1    2    0    0  0.00000000000E+00  0.00000000000E+00 -0.96983797923E+02  0.12577399375E+03  0.80082710015E+02 0.  0.
         66    2    3    3    0    0 -0.38089009464E+02  0.10612948321E+02 -0.38853554542E+02  0.55470767124E+02  0.19999976896E+01 0.  0.
         13    1    3    3    0    0  0.38089009464E+02 -0.10612948321E+02 -0.58130243380E+02  0.70303226622E+02  0.10566000000E+00 0. -1.
         13    1    4    4    0    0 -0.18018131786E+02  0.56631580571E+01 -0.18891681782E+02  0.26713877233E+02  0.10566000000E+00 0. -1.
        -13    1    4    4    0    0 -0.14460488787E+02  0.39050187926E+01 -0.13973842519E+02  0.20484978558E+02  0.10566000000E+00 0.  1.
         14    1    4    4    0    0 -0.56103888908E+01  0.10447714716E+01 -0.59880302416E+01  0.82719113334E+01  0.00000000000E+00 0. -1.
<mgrwt>
<rscale>  0 0.80082710E+02</rscale>
<asrwt>0</asrwt>
<pdfrwt beam="1">  1        1 0.17135214E-01 0.80082710E+02</pdfrwt>
<pdfrwt beam="2">  1       -2 0.22146305E-02 0.80082710E+02</pdfrwt>
<totfact> 0.14929601E+05</totfact>
</mgrwt>
</event>
<event>
 8    1  0.7756875E-018  0.7876083E+02  0.7818608E-02  0.1332605E+00
          1   -1    0    0  501    0  0.00000000000E+00  0.00000000000E+00  0.18469553152E+02  0.18469553840E+02  0.50400000000E-02 0. -1.
         -2   -1    0    0    0  501 -0.00000000000E+00 -0.00000000000E+00 -0.83966144011E+02  0.83966144049E+02  0.25500000000E-02 0.  1.
        -24    2    1    2    0    0  0.00000000000E+00 -0.71054273576E-14 -0.65496590859E+02  0.10243569789E+03  0.78760832829E+02 0.  0.
         66    2    3    3    0    0 -0.47343201607E+01  0.35220901490E+02 -0.54759995211E+02  0.65311429016E+02  0.19999988830E+01 0.  0.
         13    1    3    3    0    0  0.47343201607E+01 -0.35220901490E+02 -0.10736595648E+02  0.37124268873E+02  0.10566000000E+00 0. -1.
         13    1    4    4    0    0 -0.62692164890E+00  0.26798124290E+01 -0.36334990861E+01  0.45593755113E+01  0.10566000000E+00 0. -1.
        -13    1    4    4    0    0 -0.27462801778E+01  0.24897629889E+02 -0.39403440230E+02  0.46691287141E+02  0.10566000000E+00 0.  1.
        -14    1    4    4    0    0 -0.13611183339E+01  0.76434591721E+01 -0.11723055895E+02  0.14060766364E+02  0.00000000000E+00 0.  1.
<mgrwt>
<rscale>  0 0.78760833E+02</rscale>
<asrwt>0</asrwt>
<pdfrwt beam="1">  1        1 0.28414698E-02 0.78760833E+02</pdfrwt>
<pdfrwt beam="2">  1       -2 0.12917868E-01 0.78760833E+02</pdfrwt>
<totfact> 0.11507277E+05</totfact>
</mgrwt>
</event>
<event>
 8    1  0.7756875E-018  0.7808595E+02  0.7818608E-02  0.1334573E+00
         -2   -1    0    0    0  501 -0.00000000000E+00  0.00000000000E+00  0.17939875439E+02  0.17939875620E+02  0.25500000000E-02 0.  1.
          1   -1    0    0  501    0  0.00000000000E+00 -0.00000000000E+00 -0.84970145055E+02  0.84970145205E+02  0.50400000000E-02 0. -1.
        -24    2    1    2    0    0 -0.17763568394E-14  0.00000000000E+00 -0.67030269616E+02  0.10291002083E+03  0.78085948425E+02 0.  0.
         66    2    3    3    0    0  0.14418290135E+02 -0.92262482747E+01  0.12671289837E+02  0.21390940292E+02  0.19999981975E+01 0.  0.
         13    1    3    3    0    0 -0.14418290135E+02  0.92262482747E+01 -0.79701559453E+02  0.81519080533E+02  0.10566000000E+00 0. -1.
         13    1    4    4    0    0  0.24592663722E+01 -0.16141274540E+01  0.14347930005E+01  0.32746287602E+01  0.10566000000E+00 0. -1.
        -13    1    4    4    0    0  0.56049674263E+01 -0.41170334671E+01  0.56994205950E+01  0.89922290659E+01  0.10566000000E+00 0.  1.
         14    1    4    4    0    0  0.63540563369E+01 -0.34950873536E+01  0.55370762416E+01  0.91240824660E+01  0.00000000000E+00 0. -1.
<mgrwt>
<rscale>  0 0.78085948E+02</rscale>
<asrwt>0</asrwt>
<pdfrwt beam="1">  1        1 0.13072330E-01 0.78085948E+02</pdfrwt>
<pdfrwt beam="2">  1       -2 0.27599809E-02 0.78085948E+02</pdfrwt>
<totfact> 0.15279976E+05</totfact>
</mgrwt>
</event>
<event>
 8    1  0.7756875E-018  0.8094872E+02  0.7818608E-02  0.1326380E+00
         -2   -1    0    0    0  501 -0.00000000000E+00  0.00000000000E+00  0.32350701409E+01  0.32350711459E+01  0.25500000000E-02 0.  1.
          1   -1    0    0  501    0  0.00000000000E+00 -0.00000000000E+00 -0.50637955505E+03  0.50637955508E+03  0.50400000000E-02 0. -1.
        -24    2    1    2    0    0  0.00000000000E+00  0.00000000000E+00 -0.50314448491E+03  0.50961462622E+03  0.80948715641E+02 0.  0.
         66    2    3    3    0    0  0.86043734322E+01  0.29666518728E+02 -0.41613757011E+03  0.41728720904E+03  0.19999998902E+01 0.  0.
         13    1    3    3    0    0 -0.86043734322E+01 -0.29666518728E+02 -0.87006914801E+02  0.92327417178E+02  0.10566000000E+00 0. -1.
         13    1    4    4    0    0  0.18077698511E+01  0.51715961624E+01 -0.81725694689E+02  0.81909180042E+02  0.10566000000E+00 0. -1.
        -13    1    4    4    0    0  0.40360298728E+01  0.16193754022E+02 -0.22076453253E+03  0.22139448320E+03  0.10566000000E+00 0.  1.
         14    1    4    4    0    0  0.27605737084E+01  0.83011685431E+01 -0.11364734289E+03  0.11398354580E+03  0.00000000000E+00 0. -1.
<mgrwt>
<rscale>  0 0.80948716E+02</rscale>
<asrwt>0</asrwt>
<pdfrwt beam="1">  1        1 0.77904484E-01 0.80948716E+02</pdfrwt>
<pdfrwt beam="2">  1       -2 0.49770358E-03 0.80948716E+02</pdfrwt>
<totfact> 0.19039786E+05</totfact>
</mgrwt>
</event>
<event>
 8    1  0.7756875E-018  0.7801014E+02  0.7818608E-02  0.1334795E+00
         -2   -1    0    0    0  501 -0.00000000000E+00  0.00000000000E+00  0.45726639780E+01  0.45726646890E+01  0.25500000000E-02 0.  1.
          1   -1    0    0  501    0  0.00000000000E+00 -0.00000000000E+00 -0.33271534821E+03  0.33271534825E+03  0.50400000000E-02 0. -1.
        -24    2    1    2    0    0  0.00000000000E+00  0.00000000000E+00 -0.32814268423E+03  0.33728801294E+03  0.78010143291E+02 0.  0.
         66    2    3    3    0    0 -0.38821841636E+02  0.18569253379E+01 -0.17701007261E+03  0.18123782543E+03  0.20000008500E+01 0.  0.
         13    1    3    3    0    0  0.38821841636E+02 -0.18569253379E+01 -0.15113261163E+03  0.15605018751E+03  0.10566000000E+00 0. -1.
         13    1    4    4    0    0 -0.29051864669E+02  0.13517432322E+01 -0.13345158922E+03  0.13658395176E+03  0.10566000000E+00 0. -1.
        -13    1    4    4    0    0 -0.92549262454E+01  0.55421877833E+00 -0.40176853250E+02  0.41232893658E+02  0.10566000000E+00 0.  1.
         14    1    4    4    0    0 -0.51505072190E+00 -0.49036672647E-01 -0.33816301365E+01  0.34209800089E+01  0.00000000000E+00 0. -1.
<mgrwt>
<rscale>  0 0.78010143E+02</rscale>
<asrwt>0</asrwt>
<pdfrwt beam="1">  1        1 0.51186958E-01 0.78010143E+02</pdfrwt>
<pdfrwt beam="2">  1       -2 0.70348708E-03 0.78010143E+02</pdfrwt>
<totfact> 0.19653458E+05</totfact>
</mgrwt>
</event>
<event>
 8    1  0.7756875E-018  0.7969032E+02  0.7818608E-02  0.1329933E+00
          1   -1    0    0  501    0  0.00000000000E+00  0.00000000000E+00  0.21040904934E+03  0.21040904940E+03  0.50400000000E-02 0. -1.
         -2   -1    0    0    0  501 -0.00000000000E+00 -0.00000000000E+00 -0.75454764756E+01  0.75454769064E+01  0.25500000000E-02 0.  1.
        -24    2    1    2    0    0 -0.44408920985E-15  0.71054273576E-14  0.20286357286E+03  0.21795452630E+03  0.79690315235E+02 0.  0.
         66    2    3    3    0    0 -0.25494707285E+01  0.38578511780E+02  0.75429421110E+02  0.84784426173E+02  0.19999950898E+01 0.  0.
         13    1    3    3    0    0  0.25494707285E+01 -0.38578511780E+02  0.12743415175E+03  0.13317010013E+03  0.10566000000E+00 0. -1.
         13    1    4    4    0    0 -0.10989265745E-01  0.47681843202E+01  0.96379275796E+01  0.10753441986E+02  0.10566000000E+00 0. -1.
        -13    1    4    4    0    0 -0.27131020583E+01  0.31691440790E+02  0.61253457699E+02  0.69019602913E+02  0.10566000000E+00 0.  1.
         14    1    4    4    0    0  0.17462059558E+00  0.21188866699E+01  0.45380358317E+01  0.50113812749E+01  0.00000000000E+00 0. -1.
<mgrwt>
<rscale>  0 0.79690315E+02</rscale>
<asrwt>0</asrwt>
<pdfrwt beam="1">  1        1 0.32370625E-01 0.79690315E+02</pdfrwt>
<pdfrwt beam="2">  1       -2 0.11608425E-02 0.79690315E+02</pdfrwt>
<totfact> 0.17013331E+05</totfact>
</mgrwt>
</event>
<event>
 8    1  0.7756875E-018  0.7413284E+02  0.7818608E-02  0.1346578E+00
         -2   -1    0    0    0  501 -0.00000000000E+00  0.00000000000E+00  0.59011935820E+02  0.59011935875E+02  0.25500000000E-02 0.  1.
          1   -1    0    0  501    0  0.00000000000E+00 -0.00000000000E+00 -0.23282060744E+02  0.23282061289E+02  0.50400000000E-02 0. -1.
        -24    2    1    2    0    0  0.00000000000E+00  0.00000000000E+00  0.35729875076E+02  0.82293997164E+02  0.74132840201E+02 0.  0.
         66    2    3    3    0    0  0.35074204434E+02 -0.41455791079E+01  0.30265663701E+02  0.46555300869E+02  0.19999992335E+01 0.  0.
         13    1    3    3    0    0 -0.35074204434E+02  0.41455791079E+01  0.54642113746E+01  0.35738696294E+02  0.10566000000E+00 0. -1.
         13    1    4    4    0    0  0.21896402864E+02 -0.20535842547E+01  0.18510863217E+02  0.28746006466E+02  0.10566000000E+00 0. -1.
        -13    1    4    4    0    0  0.12185331568E+02 -0.21268118329E+01  0.10641389862E+02  0.16317351998E+02  0.10566000000E+00 0.  1.
         14    1    4    4    0    0  0.99247000209E+00  0.34816979625E-01  0.11134106220E+01  0.14919424052E+01  0.00000000000E+00 0. -1.
<mgrwt>
<rscale>  0 0.74132840E+02</rscale>
<asrwt>0</asrwt>
<pdfrwt beam="1">  1        1 0.35818556E-02 0.74132840E+02</pdfrwt>
<pdfrwt beam="2">  1       -2 0.90787593E-02 0.74132840E+02</pdfrwt>
<totfact> 0.14393769E+05</totfact>
</mgrwt>
</event>
<event>
 8    1  0.7756875E-018  0.7961347E+02  0.7818608E-02  0.1330152E+00
          1   -1    0    0  501    0  0.00000000000E+00  0.00000000000E+00  0.27785386567E+02  0.27785387024E+02  0.50400000000E-02 0. -1.
         -2   -1    0    0    0  501 -0.00000000000E+00 -0.00000000000E+00 -0.57029126273E+02  0.57029126330E+02  0.25500000000E-02 0.  1.
        -24    2    1    2    0    0 -0.17763568394E-14  0.00000000000E+00 -0.29243739706E+02  0.84814513354E+02  0.79613474761E+02 0.  0.
         66    2    3    3    0    0 -0.15961415261E+02  0.28412067770E+02 -0.38937356135E+02  0.50814664302E+02  0.20000083209E+01 0.  0.
         13    1    3    3    0    0  0.15961415261E+02 -0.28412067770E+02  0.96936164283E+01  0.33999849052E+02  0.10566000000E+00 0. -1.
         13    1    4    4    0    0 -0.31810984278E+01  0.55901965004E+01 -0.70381032947E+01  0.95349748895E+01  0.10566000000E+00 0. -1.
        -13    1    4    4    0    0 -0.69304520145E+01  0.13610453276E+02 -0.17926448254E+02  0.23550887765E+02  0.10566000000E+00 0.  1.
        -14    1    4    4    0    0 -0.58498648183E+01  0.92114179939E+01 -0.13972804586E+02  0.17728801647E+02  0.00000000000E+00 0.  1.
<mgrwt>
<rscale>  0 0.79613475E+02</rscale>
<asrwt>0</asrwt>
<pdfrwt beam="1">  1        1 0.42746749E-02 0.79613475E+02</pdfrwt>
<pdfrwt beam="2">  1       -2 0.87737117E-02 0.79613475E+02</pdfrwt>
<totfact> 0.12097323E+05</totfact>
</mgrwt>
</event>
<event>
 8    1  0.7756875E-018  0.7942753E+02  0.7818608E-02  0.1330684E+00
         -2   -1    0    0    0  501 -0.00000000000E+00  0.00000000000E+00  0.74329076372E+03  0.74329076373E+03  0.25500000000E-02 0.  1.
          1   -1    0    0  501    0  0.00000000000E+00 -0.00000000000E+00 -0.21218895605E+01  0.21218955461E+01  0.50400000000E-02 0. -1.
        -24    2    1    2    0    0  0.22204460493E-15  0.35527136788E-14  0.74116887416E+03  0.74541265927E+03  0.79427530352E+02 0.  0.
         66    2    3    3    0    0 -0.85013181197E+00 -0.29642752997E+02  0.61836494753E+03  0.61907885109E+03  0.20000014252E+01 0.  0.
         13    1    3    3    0    0  0.85013181197E+00  0.29642752997E+02  0.12280392663E+03  0.12633380818E+03  0.10566000000E+00 0. -1.
         13    1    4    4    0    0  0.11167911025E+00 -0.48112488277E+00  0.81882413713E+01  0.82038048591E+01  0.10566000000E+00 0.  1.
        -13    1    4    4    0    0 -0.28736897403E+00 -0.20652214386E+02  0.43914149243E+03  0.43962695331E+03  0.10566000000E+00 0.  1.
        -14    1    4    4    0    0 -0.67444194818E+00 -0.85094137286E+01  0.17103521373E+03  0.17124809292E+03  0.00000000000E+00 0.  1.
<mgrwt>
<rscale>  0 0.79427530E+02</rscale>
<asrwt>0</asrwt>
<pdfrwt beam="1">  1        1 0.32644453E-03 0.79427530E+02</pdfrwt>
<pdfrwt beam="2">  1       -2 0.11435259E+00 0.79427530E+02</pdfrwt>
<totfact> 0.36408287E+04</totfact>
</mgrwt>
</event>
<event>
 8    1  0.7756875E-018  0.8050152E+02  0.7818608E-02  0.1327634E+00
         -2   -1    0    0    0  501 -0.00000000000E+00  0.00000000000E+00  0.49896456101E+01  0.49896462617E+01  0.25500000000E-02 0.  1.
          1   -1    0    0  501    0  0.00000000000E+00 -0.00000000000E+00 -0.32469709269E+03  0.32469709273E+03  0.50400000000E-02 0. -1.
        -24    2    1    2    0    0  0.00000000000E+00 -0.88817841970E-15 -0.31970744708E+03  0.32968673899E+03  0.80501516433E+02 0.  0.
         66    2    3    3    0    0 -0.24842883646E+02  0.41152750632E+01 -0.28842104460E+03  0.28952513418E+03  0.19999993527E+01 0.  0.
         13    1    3    3    0    0  0.24842883646E+02 -0.41152750632E+01 -0.31286402474E+02  0.40161604805E+02  0.10566000000E+00 0. -1.
         13    1    4    4    0    0 -0.16334466179E+02  0.30800130832E+01 -0.19303421709E+03  0.19374860360E+03  0.10566000000E+00 0. -1.
        -13    1    4    4    0    0 -0.82784175641E+01  0.11124476491E+01 -0.90855490979E+02  0.91238704190E+02  0.10566000000E+00 0.  1.
         14    1    4    4    0    0 -0.22999990262E+00 -0.77185669005E-01 -0.45313365352E+01  0.45378263935E+01  0.00000000000E+00 0. -1.
<mgrwt>
<rscale>  0 0.80501516E+02</rscale>
<asrwt>0</asrwt>
<pdfrwt beam="1">  1        1 0.49953382E-01 0.80501516E+02</pdfrwt>
<pdfrwt beam="2">  1       -2 0.76763809E-03 0.80501516E+02</pdfrwt>
<totfact> 0.18012753E+05</totfact>
</mgrwt>
</event>
<event>
 8    1  0.7756875E-018  0.7881223E+02  0.7818608E-02  0.1332456E+00
         -2   -1    0    0    0  501 -0.00000000000E+00  0.00000000000E+00  0.23632944326E+02  0.23632944464E+02  0.25500000000E-02 0.  1.
          1   -1    0    0  501    0  0.00000000000E+00 -0.00000000000E+00 -0.65706660229E+02  0.65706660422E+02  0.50400000000E-02 0. -1.
        -24    2    1    2    0    0  0.11102230246E-15  0.00000000000E+00 -0.42073715903E+02  0.89339604886E+02  0.78812228945E+02 0.  0.
         66    2    3    3    0    0 -0.60411582294E+00  0.11917291994E+02  0.21491950732E+02  0.24663551024E+02  0.19999996024E+01 0.  0.
         13    1    3    3    0    0  0.60411582294E+00 -0.11917291994E+02 -0.63565666635E+02  0.64676053862E+02  0.10566000000E+00 0. -1.
         13    1    4    4    0    0 -0.26338292512E+00  0.39938511705E+00  0.13788952180E+01  0.14633506398E+01  0.10566000000E+00 0. -1.
        -13    1    4    4    0    0 -0.16061122413E-01  0.26296591967E+01  0.54125075181E+01  0.60184522196E+01  0.10566000000E+00 0.  1.
        -14    1    4    4    0    0 -0.32467177541E+00  0.88882476804E+01  0.14700547996E+02  0.17181748164E+02  0.00000000000E+00 0.  1.
<mgrwt>
<rscale>  0 0.78812229E+02</rscale>
<asrwt>0</asrwt>
<pdfrwt beam="1">  1        1 0.10108717E-01 0.78812229E+02</pdfrwt>
<pdfrwt beam="2">  1       -2 0.36358376E-02 0.78812229E+02</pdfrwt>
<totfact> 0.14307829E+05</totfact>
</mgrwt>
</event>
<event>
 8    1  0.7756875E-018  0.7975131E+02  0.7818608E-02  0.1329759E+00
         -2   -1    0    0    0  501 -0.00000000000E+00  0.00000000000E+00  0.19961257061E+03  0.19961257062E+03  0.25500000000E-02 0.  1.
          1   -1    0    0  501    0  0.00000000000E+00 -0.00000000000E+00 -0.79657695307E+01  0.79657711252E+01  0.50400000000E-02 0. -1.
        -24    2    1    2    0    0  0.00000000000E+00 -0.22204460493E-15  0.19164680108E+03  0.20757834175E+03  0.79751310963E+02 0.  0.
         66    2    3    3    0    0  0.22164917996E+02  0.10225139743E+01  0.18204172052E+03  0.18339988313E+03  0.19999996864E+01 0.  0.
         13    1    3    3    0    0 -0.22164917996E+02 -0.10225139743E+01  0.96050805601E+01  0.24178458619E+02  0.10566000000E+00 0. -1.
         13    1    4    4    0    0  0.54836481568E+01  0.49151742181E+00  0.39760855589E+02  0.40140363572E+02  0.10566000000E+00 0. -1.
        -13    1    4    4    0    0  0.41096606955E+01  0.52682079523E+00  0.35692785896E+02  0.35932617219E+02  0.10566000000E+00 0.  1.
         14    1    4    4    0    0  0.12571609144E+02  0.41757573083E-02  0.10658807903E+03  0.10732690234E+03  0.00000000000E+00 0. -1.
<mgrwt>
<rscale>  0 0.79751311E+02</rscale>
<asrwt>0</asrwt>
<pdfrwt beam="1">  1        1 0.12255033E-02 0.79751311E+02</pdfrwt>
<pdfrwt beam="2">  1       -2 0.30709622E-01 0.79751311E+02</pdfrwt>
<totfact> 0.85829495E+04</totfact>
</mgrwt>
</event>
<event>
 8    1  0.8068570E-018  0.7138252E+02  0.7818608E-02  0.1355454E+00
          1   -1    0    0  501    0  0.00000000000E+00  0.00000000000E+00  0.14921915248E+02  0.14921916099E+02  0.50400000000E-02 0. -1.
         -2   -1    0    0    0  501 -0.00000000000E+00 -0.00000000000E+00 -0.85368805907E+02  0.85368805945E+02  0.25500000000E-02 0.  1.
        -24    2    1    2    0    0  0.00000000000E+00  0.00000000000E+00 -0.70446890660E+02  0.10029072204E+03  0.71382522542E+02 0.  0.
         66    2    3    3    0    0 -0.11419230043E+02  0.17981344709E+02 -0.75437596714E+02  0.78412744915E+02  0.19999987069E+01 0.  0.
         13    1    3    3    0    0  0.11419230043E+02 -0.17981344709E+02  0.49907060544E+01  0.21877977129E+02  0.10566000000E+00 0. -1.
         13    1    4    4    0    0 -0.71957142057E+00  0.57391051239E+00 -0.34385686810E+01  0.35611900981E+01  0.10566000000E+00 0. -1.
        -13    1    4    4    0    0 -0.80496753011E+01  0.12352360362E+02 -0.53178235548E+02  0.55184363537E+02  0.10566000000E+00 0.  1.
         14    1    4    4    0    0 -0.26499833210E+01  0.50550738339E+01 -0.18820792485E+02  0.19667191280E+02  0.00000000000E+00 0. -1.
<mgrwt>
<rscale>  0 0.71382523E+02</rscale>
<asrwt>0</asrwt>
<pdfrwt beam="1">  1        1 0.22956794E-02 0.71382523E+02</pdfrwt>
<pdfrwt beam="2">  1       -2 0.13133662E-01 0.71382523E+02</pdfrwt>
<totfact> 0.14722080E+05</totfact>
</mgrwt>
</event>
<event>
 8    1  0.7756875E-018  0.7955118E+02  0.7818608E-02  0.1330330E+00
         -2   -1    0    0    0  501 -0.00000000000E+00  0.00000000000E+00  0.48760905860E+03  0.48760905860E+03  0.25500000000E-02 0.  1.
          1   -1    0    0  501    0  0.00000000000E+00 -0.00000000000E+00 -0.32446007971E+01  0.32446047116E+01  0.50400000000E-02 0. -1.
        -24    2    1    2    0    0 -0.55511151231E-16 -0.71054273576E-14  0.48436445780E+03  0.49085366331E+03  0.79551183588E+02 0.  0.
         66    2    3    3    0    0  0.29735974464E+00  0.33234052030E+02  0.37688423211E+03  0.37835210459E+03  0.19999993831E+01 0.  0.
         13    1    3    3    0    0 -0.29735974464E+00 -0.33234052030E+02  0.10748022568E+03  0.11250155872E+03  0.10566000000E+00 0. -1.
         13    1    4    4    0    0  0.60152229855E-01  0.12555661940E+01  0.18041454691E+02  0.18085500164E+02  0.10566000000E+00 0. -1.
        -13    1    4    4    0    0  0.38701395413E+00  0.15265910653E+02  0.17662565793E+03  0.17728460737E+03  0.10566000000E+00 0.  1.
         14    1    4    4    0    0 -0.14980643934E+00  0.16712575183E+02  0.18221711949E+03  0.18298199706E+03  0.00000000000E+00 0. -1.
<mgrwt>
<rscale>  0 0.79551184E+02</rscale>
<asrwt>0</asrwt>
<pdfrwt beam="1">  1        1 0.49916962E-03 0.79551184E+02</pdfrwt>
<pdfrwt beam="2">  1       -2 0.75016784E-01 0.79551184E+02</pdfrwt>
<totfact> 0.52111154E+04</totfact>
</mgrwt>
</event>
<event>
 8    1  0.7756875E-018  0.7939629E+02  0.7818608E-02  0.1330773E+00
         -2   -1    0    0    0  501 -0.00000000000E+00  0.00000000000E+00  0.15675189464E+02  0.15675189672E+02  0.25500000000E-02 0.  1.
          1   -1    0    0  501    0  0.00000000000E+00 -0.00000000000E+00 -0.10053738743E+03  0.10053738755E+03  0.50400000000E-02 0. -1.
        -24    2    1    2    0    0 -0.35527136788E-14  0.00000000000E+00 -0.84862197963E+02  0.11621257723E+03  0.79396287459E+02 0.  0.
         66    2    3    3    0    0 -0.22953262434E+02 -0.10205769114E+01  0.48820108293E+01  0.23573881156E+02  0.20000023598E+01 0.  0.
         13    1    3    3    0    0  0.22953262434E+02  0.10205769114E+01 -0.89744208792E+02  0.92638696069E+02  0.10566000000E+00 0. -1.
         13    1    4    4    0    0 -0.20100153472E+02 -0.10195044487E+01  0.43903574605E+01  0.20599562170E+02  0.10566000000E+00 0. -1.
        -13    1    4    4    0    0 -0.25556169782E+01 -0.19264539237E+00  0.33310647152E+00  0.25865835272E+01  0.10566000000E+00 0.  1.
         14    1    4    4    0    0 -0.29749198397E+00  0.19157292969E+00  0.15854689725E+00  0.38773545949E+00  0.00000000000E+00 0. -1.
<mgrwt>
<rscale>  0 0.79396287E+02</rscale>
<asrwt>0</asrwt>
<pdfrwt beam="1">  1        1 0.15467290E-01 0.79396287E+02</pdfrwt>
<pdfrwt beam="2">  1       -2 0.24115677E-02 0.79396287E+02</pdfrwt>
<totfact> 0.15016480E+05</totfact>
</mgrwt>
</event>
<event>
 8    1  0.7756875E-018  0.8069185E+02  0.7818608E-02  0.1327099E+00
         -2   -1    0    0    0  501 -0.00000000000E+00  0.00000000000E+00  0.10020866893E+02  0.10020867218E+02  0.25500000000E-02 0.  1.
          1   -1    0    0  501    0  0.00000000000E+00 -0.00000000000E+00 -0.16244038640E+03  0.16244038647E+03  0.50400000000E-02 0. -1.
        -24    2    1    2    0    0  0.35527136788E-14  0.35527136788E-14 -0.15241951950E+03  0.17246125369E+03  0.80691846549E+02 0.  0.
         66    2    3    3    0    0  0.18292281302E+02  0.24358840257E+02 -0.19797074385E+02  0.36385228004E+02  0.20000021919E+01 0.  0.
         13    1    3    3    0    0 -0.18292281302E+02 -0.24358840257E+02 -0.13262244512E+03  0.13607602569E+03  0.10566000000E+00 0. -1.
         13    1    4    4    0    0  0.68215400953E+01  0.10338069380E+02 -0.83473087079E+01  0.14936459235E+02  0.10566000000E+00 0. -1.
        -13    1    4    4    0    0  0.10429444097E+02  0.13086875049E+02 -0.10678670265E+02  0.19851568336E+02  0.10566000000E+00 0.  1.
         14    1    4    4    0    0  0.10412971097E+01  0.93389582787E+00 -0.77109541136E+00  0.15972004324E+01  0.00000000000E+00 0. -1.
<mgrwt>
<rscale>  0 0.80691847E+02</rscale>
<asrwt>0</asrwt>
<pdfrwt beam="1">  1        1 0.24990827E-01 0.80691847E+02</pdfrwt>
<pdfrwt beam="2">  1       -2 0.15416720E-02 0.80691847E+02</pdfrwt>
<totfact> 0.15660124E+05</totfact>
</mgrwt>
</event>
<event>
 8    1  0.7756875E-018  0.8260495E+02  0.7818608E-02  0.1321817E+00
          1   -1    0    0  501    0  0.00000000000E+00  0.00000000000E+00  0.10112389905E+02  0.10112391161E+02  0.50400000000E-02 0. -1.
         -2   -1    0    0    0  501 -0.00000000000E+00 -0.00000000000E+00 -0.16869349199E+03  0.16869349201E+03  0.25500000000E-02 0.  1.
        -24    2    1    2    0    0 -0.35527136788E-14  0.00000000000E+00 -0.15858110208E+03  0.17880588317E+03  0.82604950929E+02 0.  0.
         66    2    3    3    0    0  0.16540118098E+02 -0.55973542483E+01 -0.16029905269E+03  0.16125970411E+03  0.19999991014E+01 0.  0.
         13    1    3    3    0    0 -0.16540118098E+02  0.55973542483E+01  0.17179506025E+01  0.17546179059E+02  0.10566000000E+00 0. -1.
         13    1    4    4    0    0  0.69468446485E+01 -0.31347612895E+01 -0.68057883414E+02  0.68483370520E+02  0.10566000000E+00 0. -1.
        -13    1    4    4    0    0  0.65541703484E+01 -0.19116094845E+01 -0.59848213728E+02  0.60236461136E+02  0.10566000000E+00 0.  1.
         14    1    4    4    0    0  0.30391031010E+01 -0.55098347442E+00 -0.32392955545E+02  0.32539872455E+02  0.00000000000E+00 0. -1.
<mgrwt>
<rscale>  0 0.82604951E+02</rscale>
<asrwt>0</asrwt>
<pdfrwt beam="1">  1        1 0.15557525E-02 0.82604951E+02</pdfrwt>
<pdfrwt beam="2">  1       -2 0.25952843E-01 0.82604951E+02</pdfrwt>
<totfact> 0.83581109E+04</totfact>
</mgrwt>
</event>
<event>
 8    1  0.7756875E-018  0.8509418E+02  0.7818608E-02  0.1315186E+00
         -2   -1    0    0    0  501 -0.00000000000E+00  0.00000000000E+00  0.51930870857E+01  0.51930877118E+01  0.25500000000E-02 0.  1.
          1   -1    0    0  501    0  0.00000000000E+00 -0.00000000000E+00 -0.34858935478E+03  0.34858935482E+03  0.50400000000E-02 0. -1.
        -24    2    1    2    0    0  0.00000000000E+00  0.00000000000E+00 -0.34339626770E+03  0.35378244253E+03  0.85094182968E+02 0.  0.
         66    2    3    3    0    0 -0.39628218722E+02 -0.26738078407E+01 -0.10864394790E+03  0.11569378723E+03  0.20000053778E+01 0.  0.
         13    1    3    3    0    0  0.39628218722E+02  0.26738078407E+01 -0.23475231980E+03  0.23808865530E+03  0.10566000000E+00 0. -1.
         13    1    4    4    0    0 -0.87075875102E+01 -0.60213959274E-01 -0.22402605122E+02  0.24035673202E+02  0.10566000000E+00 0. -1.
        -13    1    4    4    0    0 -0.12585255622E+02 -0.11205357110E+01 -0.36321094353E+02  0.38456173996E+02  0.10566000000E+00 0.  1.
        -14    1    4    4    0    0 -0.18335375590E+02 -0.14930581704E+01 -0.49920248420E+02  0.53201940030E+02  0.00000000000E+00 0.  1.
<mgrwt>
<rscale>  0 0.85094183E+02</rscale>
<asrwt>0</asrwt>
<pdfrwt beam="1">  1        1 0.53629113E-01 0.85094183E+02</pdfrwt>
<pdfrwt beam="2">  1       -2 0.79893680E-03 0.85094183E+02</pdfrwt>
<totfact> 0.15761025E+05</totfact>
</mgrwt>
</event>
<event>
 8    1  0.7756875E-018  0.7860278E+02  0.7818608E-02  0.1333064E+00
         -2   -1    0    0    0  501 -0.00000000000E+00  0.00000000000E+00  0.32143704730E+03  0.32143704731E+03  0.25500000000E-02 0.  1.
          1   -1    0    0  501    0  0.00000000000E+00 -0.00000000000E+00 -0.48052913398E+01  0.48052939829E+01  0.50400000000E-02 0. -1.
        -24    2    1    2    0    0  0.35527136788E-14  0.71054273576E-14  0.31663175596E+03  0.32624234129E+03  0.78602775841E+02 0.  0.
         66    2    3    3    0    0 -0.30028902427E+02 -0.23593853876E+02  0.19650105190E+03  0.20018758278E+03  0.19999949343E+01 0.  0.
         13    1    3    3    0    0  0.30028902427E+02  0.23593853876E+02  0.12013070406E+03  0.12605475851E+03  0.10566000000E+00 0. -1.
         13    1    4    4    0    0 -0.93250906562E+01 -0.74240048642E+01  0.59075452765E+02  0.60266022329E+02  0.10566000000E+00 0. -1.
        -13    1    4    4    0    0 -0.18214604645E+02 -0.14741010914E+02  0.12132128134E+03  0.12356348043E+03  0.10566000000E+00 0.  1.
        -14    1    4    4    0    0 -0.24892071260E+01 -0.14288380980E+01  0.16104317795E+02  0.16358080024E+02  0.00000000000E+00 0.  1.
<mgrwt>
<rscale>  0 0.78602776E+02</rscale>
<asrwt>0</asrwt>
<pdfrwt beam="1">  1        1 0.73927584E-03 0.78602776E+02</pdfrwt>
<pdfrwt beam="2">  1       -2 0.49451850E-01 0.78602776E+02</pdfrwt>
<totfact> 0.70765552E+04</totfact>
</mgrwt>
</event>
<event>
 8    1  0.7756875E-018  0.7830234E+02  0.7818608E-02  0.1333939E+00
         -2   -1    0    0    0  501 -0.00000000000E+00  0.00000000000E+00  0.65701021461E+02  0.65701021510E+02  0.25500000000E-02 0.  1.
          1   -1    0    0  501    0  0.00000000000E+00 -0.00000000000E+00 -0.23330143650E+02  0.23330144195E+02  0.50400000000E-02 0. -1.
        -24    2    1    2    0    0  0.00000000000E+00 -0.35527136788E-14  0.42370877810E+02  0.89031165705E+02  0.78302344667E+02 0.  0.
         66    2    3    3    0    0  0.23770999276E+01  0.31697793372E+02  0.47137404483E+02  0.56888800370E+02  0.19999993414E+01 0.  0.
         13    1    3    3    0    0 -0.23770999276E+01 -0.31697793372E+02 -0.47665266729E+01  0.32142365335E+02  0.10566000000E+00 0. -1.
         13    1    4    4    0    0  0.31360486200E+00  0.11790167974E+02  0.18591636166E+02  0.22017413750E+02  0.10566000000E+00 0. -1.
        -13    1    4    4    0    0  0.18119297530E+01  0.15509471025E+02  0.22670037682E+02  0.27527596217E+02  0.10566000000E+00 0.  1.
        -14    1    4    4    0    0  0.25156531268E+00  0.43981543725E+01  0.58757306347E+01  0.73437904029E+01  0.00000000000E+00 0.  1.
<mgrwt>
<rscale>  0 0.78302345E+02</rscale>
<asrwt>0</asrwt>
<pdfrwt beam="1">  1        1 0.35892530E-02 0.78302345E+02</pdfrwt>
<pdfrwt beam="2">  1       -2 0.10107849E-01 0.78302345E+02</pdfrwt>
<totfact> 0.12286297E+05</totfact>
</mgrwt>
</event>
<event>
 8    1  0.7756875E-018  0.8099562E+02  0.7818608E-02  0.1326250E+00
         -2   -1    0    0    0  501 -0.00000000000E+00  0.00000000000E+00  0.14352955670E+03  0.14352955672E+03  0.25500000000E-02 0.  1.
          1   -1    0    0  501    0  0.00000000000E+00 -0.00000000000E+00 -0.11426722960E+02  0.11426724072E+02  0.50400000000E-02 0. -1.
        -24    2    1    2    0    0  0.00000000000E+00 -0.13877787808E-15  0.13210283374E+03  0.15495628079E+03  0.80995618866E+02 0.  0.
         66    2    3    3    0    0 -0.16118870464E+02  0.15527577311E+00  0.13711601436E+03  0.13807477495E+03  0.19999968096E+01 0.  0.
         13    1    3    3    0    0  0.16118870464E+02 -0.15527577311E+00 -0.50131806225E+01  0.16881505845E+02  0.10566000000E+00 0. -1.
         13    1    4    4    0    0 -0.41047331278E+01  0.69913844724E+00  0.32565585924E+02  0.32830872350E+02  0.10566000000E+00 0. -1.
        -13    1    4    4    0    0 -0.20722427019E+01  0.14074751548E+00  0.20237864725E+02  0.20344442296E+02  0.10566000000E+00 0.  1.
         14    1    4    4    0    0 -0.99418946340E+01 -0.68461018961E+00  0.84312563714E+02  0.84899460304E+02  0.00000000000E+00 0. -1.
<mgrwt>
<rscale>  0 0.80995619E+02</rscale>
<asrwt>0</asrwt>
<pdfrwt beam="1">  1        1 0.17579576E-02 0.80995619E+02</pdfrwt>
<pdfrwt beam="2">  1       -2 0.22081469E-01 0.80995619E+02</pdfrwt>
<totfact> 0.92865057E+04</totfact>
</mgrwt>
</event>
<event>
 8    1  0.7756875E-018  0.8078017E+02  0.7818608E-02  0.1326852E+00
          1   -1    0    0  501    0  0.00000000000E+00  0.00000000000E+00  0.39545126170E+01  0.39545158287E+01  0.50400000000E-02 0. -1.
         -2   -1    0    0    0  501 -0.00000000000E+00 -0.00000000000E+00 -0.41253080799E+03  0.41253080800E+03  0.25500000000E-02 0.  1.
        -24    2    1    2    0    0  0.00000000000E+00 -0.17763568394E-14 -0.40857629537E+03  0.41648532382E+03  0.80780169733E+02 0.  0.
         66    2    3    3    0    0 -0.35139246063E+02  0.10480505214E+02 -0.29141398387E+03  0.29371877299E+03  0.20000021638E+01 0.  0.
         13    1    3    3    0    0  0.35139246063E+02 -0.10480505214E+02 -0.11716231150E+03  0.12276655084E+03  0.10566000000E+00 0. -1.
         13    1    4    4    0    0 -0.26868749881E+01  0.46621676936E+00 -0.23356513933E+02  0.23515411168E+02  0.10566000000E+00 0. -1.
        -13    1    4    4    0    0 -0.56349661161E+01  0.21965700463E+01 -0.46254384370E+02  0.46648226125E+02  0.10566000000E+00 0.  1.
         14    1    4    4    0    0 -0.26817404959E+02  0.78177183982E+01 -0.22180308556E+03  0.22355513570E+03  0.00000000000E+00 0. -1.
<mgrwt>
<rscale>  0 0.80780170E+02</rscale>
<asrwt>0</asrwt>
<pdfrwt beam="1">  1        1 0.60838713E-03 0.80780170E+02</pdfrwt>
<pdfrwt beam="2">  1       -2 0.63466244E-01 0.80780170E+02</pdfrwt>
<totfact> 0.56451206E+04</totfact>
</mgrwt>
</event>
<event>
 8    1  0.7756875E-018  0.7983053E+02  0.7818608E-02  0.1329533E+00
          1   -1    0    0  501    0  0.00000000000E+00  0.00000000000E+00  0.42953756286E+01  0.42953785854E+01  0.50400000000E-02 0. -1.
         -2   -1    0    0    0  501 -0.00000000000E+00 -0.00000000000E+00 -0.37091696060E+03  0.37091696061E+03  0.25500000000E-02 0.  1.
        -24    2    1    2    0    0  0.88817841970E-15 -0.14210854715E-13 -0.36662158497E+03  0.37521233920E+03  0.79830526220E+02 0.  0.
         66    2    3    3    0    0  0.48528871526E+01  0.39148297455E+02 -0.15558612114E+03  0.16052158982E+03  0.20000000866E+01 0.  0.
         13    1    3    3    0    0 -0.48528871526E+01 -0.39148297455E+02 -0.21103546384E+03  0.21469074938E+03  0.10566000000E+00 0. -1.
         13    1    4    4    0    0  0.67762914609E+00  0.11532738477E+02 -0.44517184874E+02  0.45991892234E+02  0.10566000000E+00 0. -1.
        -13    1    4    4    0    0  0.65727710350E+00  0.53586811016E+01 -0.20362987174E+02  0.21066795841E+02  0.10566000000E+00 0.  1.
        -14    1    4    4    0    0  0.35179809030E+01  0.22256877876E+02 -0.90705949087E+02  0.93462901743E+02  0.00000000000E+00 0.  1.
<mgrwt>
<rscale>  0 0.79830526E+02</rscale>
<asrwt>0</asrwt>
<pdfrwt beam="1">  1        1 0.66082754E-03 0.79830526E+02</pdfrwt>
<pdfrwt beam="2">  1       -2 0.57064123E-01 0.79830526E+02</pdfrwt>
<totfact> 0.62388310E+04</totfact>
</mgrwt>
</event>
<event>
 8    1  0.7756875E-018  0.7654342E+02  0.7818608E-02  0.1339157E+00
         -2   -1    0    0    0  501 -0.00000000000E+00  0.00000000000E+00  0.83425315964E+01  0.83425319861E+01  0.25500000000E-02 0.  1.
          1   -1    0    0  501    0  0.00000000000E+00 -0.00000000000E+00 -0.17557304165E+03  0.17557304172E+03  0.50400000000E-02 0. -1.
        -24    2    1    2    0    0  0.17763568394E-14 -0.71054273576E-14 -0.16723051005E+03  0.18391557371E+03  0.76543417481E+02 0.  0.
         66    2    3    3    0    0  0.15237542395E+02  0.34048046389E+02 -0.63388174646E+02  0.73576578117E+02  0.20000003361E+01 0.  0.
         13    1    3    3    0    0 -0.15237542395E+02 -0.34048046389E+02 -0.10384233541E+03  0.11033899559E+03  0.10566000000E+00 0. -1.
         13    1    4    4    0    0  0.44145568035E+00  0.14595759786E+01 -0.26510127583E+01  0.30601107554E+01  0.10566000000E+00 0. -1.
        -13    1    4    4    0    0  0.52806470355E+01  0.12469268045E+02 -0.24370119660E+02  0.27879773582E+02  0.10566000000E+00 0.  1.
         14    1    4    4    0    0  0.95154396795E+01  0.20119202365E+02 -0.36367042228E+02  0.42636693780E+02  0.00000000000E+00 0. -1.
<mgrwt>
<rscale>  0 0.76543417E+02</rscale>
<asrwt>0</asrwt>
<pdfrwt beam="1">  1        1 0.27011235E-01 0.76543417E+02</pdfrwt>
<pdfrwt beam="2">  1       -2 0.12834666E-02 0.76543417E+02</pdfrwt>
<totfact> 0.18284478E+05</totfact>
</mgrwt>
</event>
<event>
 8    1  0.7756875E-018  0.8033384E+02  0.7818608E-02  0.1328107E+00
         -2   -1    0    0    0  501 -0.00000000000E+00  0.00000000000E+00  0.16791289117E+02  0.16791289310E+02  0.25500000000E-02 0.  1.
          1   -1    0    0  501    0  0.00000000000E+00 -0.00000000000E+00 -0.96084429413E+02  0.96084429545E+02  0.50400000000E-02 0. -1.
        -24    2    1    2    0    0  0.00000000000E+00 -0.35527136788E-14 -0.79293140296E+02  0.11287571886E+03  0.80333839751E+02 0.  0.
         66    2    3    3    0    0 -0.22246597688E+02  0.21912131676E+02 -0.42272072787E+01  0.31574070120E+02  0.19999998183E+01 0.  0.
         13    1    3    3    0    0  0.22246597688E+02 -0.21912131676E+02 -0.75065933018E+02  0.81301648736E+02  0.10566000000E+00 0. -1.
         13    1    4    4    0    0 -0.51900055969E+01  0.53315595762E+01 -0.17975882160E+01  0.76553362461E+01  0.10566000000E+00 0. -1.
        -13    1    4    4    0    0 -0.73437339474E+01  0.68078108985E+01 -0.86378978569E+00  0.10051567756E+02  0.10566000000E+00 0.  1.
         14    1    4    4    0    0 -0.97128581440E+01  0.97727612010E+01 -0.15658292770E+01  0.13867166118E+02  0.00000000000E+00 0. -1.
<mgrwt>
<rscale>  0 0.80333840E+02</rscale>
<asrwt>0</asrwt>
<pdfrwt beam="1">  1        1 0.14782220E-01 0.80333840E+02</pdfrwt>
<pdfrwt beam="2">  1       -2 0.25832753E-02 0.80333840E+02</pdfrwt>
<totfact> 0.14437455E+05</totfact>
</mgrwt>
</event>
<event>
 8    1  0.8525931E-018  0.8259721E+02  0.7818608E-02  0.1321838E+00
          1   -1    0    0  501    0  0.00000000000E+00  0.00000000000E+00  0.42105117831E+03  0.42105117834E+03  0.50400000000E-02 0. -1.
         -2   -1    0    0    0  501 -0.00000000000E+00 -0.00000000000E+00 -0.40507534138E+01  0.40507542165E+01  0.25500000000E-02 0.  1.
        -24    2    1    2    0    0  0.00000000000E+00  0.00000000000E+00  0.41700042489E+03  0.42510193255E+03  0.82597207579E+02 0.  0.
         66    2    3    3    0    0  0.33902601558E+02  0.23480712234E+02  0.19994963088E+03  0.20416803162E+03  0.20000009922E+01 0.  0.
         13    1    3    3    0    0 -0.33902601558E+02 -0.23480712234E+02  0.21705079401E+03  0.22093390094E+03  0.10566000000E+00 0. -1.
         13    1    4    4    0    0  0.51403485573E+01  0.32580305243E+01  0.27809240205E+02  0.28467577189E+02  0.10566000000E+00 0. -1.
        -13    1    4    4    0    0  0.14123244642E+02  0.10267946252E+02  0.82146381377E+02  0.83981759310E+02  0.10566000000E+00 0.  1.
         14    1    4    4    0    0  0.14639008359E+02  0.99547354572E+01  0.89994009302E+02  0.91718695117E+02  0.00000000000E+00 0. -1.
<mgrwt>
<rscale>  0 0.82597208E+02</rscale>
<asrwt>0</asrwt>
<pdfrwt beam="1">  1        1 0.64777136E-01 0.82597208E+02</pdfrwt>
<pdfrwt beam="2">  1       -2 0.62319259E-03 0.82597208E+02</pdfrwt>
<totfact> 0.17606665E+05</totfact>
</mgrwt>
</event>
<event>
 8    1  0.7756875E-018  0.7916181E+02  0.7818608E-02  0.1331447E+00
          1   -1    0    0  501    0  0.00000000000E+00  0.00000000000E+00  0.18975727741E+03  0.18975727748E+03  0.50400000000E-02 0. -1.
         -2   -1    0    0    0  501 -0.00000000000E+00 -0.00000000000E+00 -0.82560634592E+01  0.82560638530E+01  0.25500000000E-02 0.  1.
        -24    2    1    2    0    0  0.35527136788E-14  0.00000000000E+00  0.18150121395E+03  0.19801334133E+03  0.79161813263E+02 0.  0.
         66    2    3    3    0    0 -0.22766589185E+02 -0.32343700071E+02  0.91956571328E+02  0.10012214303E+03  0.19999994533E+01 0.  0.
         13    1    3    3    0    0  0.22766589185E+02  0.32343700071E+02  0.89544642622E+02  0.97891198296E+02  0.10566000000E+00 0. -1.
         13    1    4    4    0    0 -0.45108553956E+01 -0.74058941301E+01  0.20229482188E+02  0.22009956790E+02  0.10566000000E+00 0. -1.
        -13    1    4    4    0    0 -0.49536608570E+01 -0.76406877828E+01  0.21701455543E+02  0.23534723334E+02  0.10566000000E+00 0.  1.
        -14    1    4    4    0    0 -0.13302072932E+02 -0.17297118159E+02  0.50025633597E+02  0.54577462910E+02  0.00000000000E+00 0.  1.
<mgrwt>
<rscale>  0 0.79161813E+02</rscale>
<asrwt>0</asrwt>
<pdfrwt beam="1">  1        1 0.29193427E-01 0.79161813E+02</pdfrwt>
<pdfrwt beam="2">  1       -2 0.12701637E-02 0.79161813E+02</pdfrwt>
<totfact> 0.16973409E+05</totfact>
</mgrwt>
</event>
<event>
 8    1  0.7756875E-018  0.7852535E+02  0.7818608E-02  0.1333289E+00
          1   -1    0    0  501    0  0.00000000000E+00  0.00000000000E+00  0.81929770602E+01  0.81929786104E+01  0.50400000000E-02 0. -1.
         -2   -1    0    0    0  501 -0.00000000000E+00 -0.00000000000E+00 -0.18815598729E+03  0.18815598731E+03  0.25500000000E-02 0.  1.
        -24    2    1    2    0    0  0.00000000000E+00  0.00000000000E+00 -0.17996301023E+03  0.19634896592E+03  0.78525354924E+02 0.  0.
         66    2    3    3    0    0 -0.21244616665E+01  0.34322410634E+02 -0.13728515658E+03  0.14154064934E+03  0.19999978639E+01 0.  0.
         13    1    3    3    0    0  0.21244616665E+01 -0.34322410634E+02 -0.42677853652E+02  0.54808316572E+02  0.10566000000E+00 0. -1.
         13    1    4    4    0    0 -0.21021582996E+00  0.30441847677E+01 -0.12332844920E+02  0.12705175302E+02  0.10566000000E+00 0.  1.
        -13    1    4    4    0    0 -0.15758018270E+01  0.20320658978E+02 -0.84587382382E+02  0.87008325780E+02  0.10566000000E+00 0.  1.
        -14    1    4    4    0    0 -0.33844400947E+00  0.10957566888E+02 -0.40364929274E+02  0.41827148262E+02  0.00000000000E+00 0.  1.
<mgrwt>
<rscale>  0 0.78525355E+02</rscale>
<asrwt>0</asrwt>
<pdfrwt beam="1">  1        1 0.12604583E-02 0.78525355E+02</pdfrwt>
<pdfrwt beam="2">  1       -2 0.28947072E-01 0.78525355E+02</pdfrwt>
<totfact> 0.91442802E+04</totfact>
</mgrwt>
</event>
<event>
 8    1  0.7756875E-018  0.7966457E+02  0.7818608E-02  0.1330006E+00
         -2   -1    0    0    0  501 -0.00000000000E+00  0.00000000000E+00  0.32336457319E+02  0.32336457420E+02  0.25500000000E-02 0.  1.
          1   -1    0    0  501    0  0.00000000000E+00 -0.00000000000E+00 -0.49065700710E+02  0.49065700969E+02  0.50400000000E-02 0. -1.
        -24    2    1    2    0    0 -0.35527136788E-14  0.00000000000E+00 -0.16729243390E+02  0.81402158389E+02  0.79664570581E+02 0.  0.
         66    2    3    3    0    0 -0.19059585202E+02  0.18187874228E+02  0.22122919214E+02  0.34459978421E+02  0.20000003174E+01 0.  0.
         13    1    3    3    0    0  0.19059585202E+02 -0.18187874228E+02 -0.38852162604E+02  0.46942179967E+02  0.10566000000E+00 0. -1.
         13    1    4    4    0    0 -0.17724156821E+01  0.16399719166E+01  0.19739244695E+01  0.31206581172E+01  0.10566000000E+00 0. -1.
        -13    1    4    4    0    0 -0.10593062241E+02  0.11338960478E+02  0.13299205201E+02  0.20436854342E+02  0.10566000000E+00 0.  1.
         14    1    4    4    0    0 -0.66941072781E+01  0.52089418333E+01  0.68497895436E+01  0.10902465963E+02  0.00000000000E+00 0. -1.
<mgrwt>
<rscale>  0 0.79664571E+02</rscale>
<asrwt>0</asrwt>
<pdfrwt beam="1">  1        1 0.75485694E-02 0.79664571E+02</pdfrwt>
<pdfrwt beam="2">  1       -2 0.49748396E-02 0.79664571E+02</pdfrwt>
<totfact> 0.13272430E+05</totfact>
</mgrwt>
</event>
<event>
 8    1  0.7756875E-018  0.8124361E+02  0.7818608E-02  0.1325559E+00
          1   -1    0    0  501    0  0.00000000000E+00  0.00000000000E+00  0.21821832862E+02  0.21821833444E+02  0.50400000000E-02 0. -1.
         -2   -1    0    0    0  501 -0.00000000000E+00 -0.00000000000E+00 -0.75618345103E+02  0.75618345146E+02  0.25500000000E-02 0.  1.
        -24    2    1    2    0    0  0.00000000000E+00  0.00000000000E+00 -0.53796512242E+02  0.97440178590E+02  0.81243606975E+02 0.  0.
         66    2    3    3    0    0  0.21931109647E+02  0.32726441331E+02 -0.15155149773E+02  0.42257213918E+02  0.20000077351E+01 0.  0.
         13    1    3    3    0    0 -0.21931109647E+02 -0.32726441331E+02 -0.38641362468E+02  0.55182964672E+02  0.10566000000E+00 0. -1.
         13    1    4    4    0    0  0.68569172604E+01  0.10470024338E+02 -0.39663444698E+01  0.13129424071E+02  0.10566000000E+00 0. -1.
        -13    1    4    4    0    0  0.18724474838E+01  0.23471635999E+01 -0.12772344578E+01  0.32646176560E+01  0.10566000000E+00 0. -1.
        -14    1    4    4    0    0  0.13201744903E+02  0.19909253393E+02 -0.99115708456E+01  0.25863172191E+02  0.00000000000E+00 0.  1.
<mgrwt>
<rscale>  0 0.81243607E+02</rscale>
<asrwt>0</asrwt>
<pdfrwt beam="1">  1        1 0.33572051E-02 0.81243607E+02</pdfrwt>
<pdfrwt beam="2">  1       -2 0.11633591E-01 0.81243607E+02</pdfrwt>
<totfact> 0.10875151E+05</totfact>
</mgrwt>
</event>
<event>
 8    1  0.7756875E-018  0.8064917E+02  0.7818608E-02  0.1327219E+00
         -2   -1    0    0    0  501 -0.00000000000E+00  0.00000000000E+00  0.47127810547E+02  0.47127810616E+02  0.25500000000E-02 0.  1.
          1   -1    0    0  501    0  0.00000000000E+00 -0.00000000000E+00 -0.34503450299E+02  0.34503450667E+02  0.50400000000E-02 0. -1.
        -24    2    1    2    0    0 -0.17763568394E-14  0.44408920985E-15  0.12624360248E+02  0.81631261283E+02  0.80649168297E+02 0.  0.
         66    2    3    3    0    0 -0.15967195325E+02  0.23594096683E+01  0.43691979137E+02  0.46620887849E+02  0.20000005973E+01 0.  0.
         13    1    3    3    0    0  0.15967195325E+02 -0.23594096683E+01 -0.31067618889E+02  0.35010373434E+02  0.10566000000E+00 0. -1.
         13    1    4    4    0    0 -0.19604675558E+01 -0.19708320369E+00  0.59521477930E+01  0.62706859442E+01  0.10566000000E+00 0. -1.
        -13    1    4    4    0    0 -0.61212427227E+01  0.15944118415E+01  0.17363642382E+02  0.18480232747E+02  0.10566000000E+00 0.  1.
         14    1    4    4    0    0 -0.78854850470E+01  0.96208103056E+00  0.20376188962E+02  0.21869969157E+02  0.00000000000E+00 0. -1.
<mgrwt>
<rscale>  0 0.80649168E+02</rscale>
<asrwt>0</asrwt>
<pdfrwt beam="1">  1        1 0.53082232E-02 0.80649168E+02</pdfrwt>
<pdfrwt beam="2">  1       -2 0.72504324E-02 0.80649168E+02</pdfrwt>
<totfact> 0.12108749E+05</totfact>
</mgrwt>
</event>
<event>
 8    1  0.7756875E-018  0.7893054E+02  0.7818608E-02  0.1332114E+00
         -2   -1    0    0    0  501 -0.00000000000E+00  0.00000000000E+00  0.47057597674E+01  0.47057604583E+01  0.25500000000E-02 0.  1.
          1   -1    0    0  501    0  0.00000000000E+00 -0.00000000000E+00 -0.33097898818E+03  0.33097898822E+03  0.50400000000E-02 0. -1.
        -24    2    1    2    0    0 -0.35527136788E-14  0.00000000000E+00 -0.32627322842E+03  0.33568474868E+03  0.78930544883E+02 0.  0.
         66    2    3    3    0    0 -0.18097917373E+02  0.34905840343E+02 -0.15009792417E+03  0.15517518856E+03  0.20000005643E+01 0.  0.
         13    1    3    3    0    0  0.18097917373E+02 -0.34905840343E+02 -0.17617530425E+03  0.18050956012E+03  0.10566000000E+00 0. -1.
         13    1    4    4    0    0 -0.10087449507E+02  0.17413097098E+02 -0.75845154483E+02  0.78469555948E+02  0.10566000000E+00 0. -1.
        -13    1    4    4    0    0 -0.49262366652E+01  0.11120762430E+02 -0.46984184759E+02  0.48533122156E+02  0.10566000000E+00 0.  1.
        -14    1    4    4    0    0 -0.30842312010E+01  0.63719808152E+01 -0.27268584924E+02  0.28172510456E+02  0.00000000000E+00 0.  1.
<mgrwt>
<rscale>  0 0.78930545E+02</rscale>
<asrwt>0</asrwt>
<pdfrwt beam="1">  1        1 0.50919826E-01 0.78930545E+02</pdfrwt>
<pdfrwt beam="2">  1       -2 0.72396336E-03 0.78930545E+02</pdfrwt>
<totfact> 0.19038837E+05</totfact>
</mgrwt>
</event>
<event>
 8    1  0.7756875E-018  0.8114514E+02  0.7818608E-02  0.1325833E+00
          1   -1    0    0  501    0  0.00000000000E+00  0.00000000000E+00  0.13771031049E+03  0.13771031058E+03  0.50400000000E-02 0. -1.
         -2   -1    0    0    0  501 -0.00000000000E+00 -0.00000000000E+00 -0.11953596032E+02  0.11953596304E+02  0.25500000000E-02 0.  1.
        -24    2    1    2    0    0  0.00000000000E+00  0.00000000000E+00  0.12575671446E+03  0.14966390689E+03  0.81145140293E+02 0.  0.
         66    2    3    3    0    0 -0.13158358219E+02 -0.38241982721E+02  0.57527511943E+02  0.70349173871E+02  0.20000001019E+01 0.  0.
         13    1    3    3    0    0  0.13158358219E+02  0.38241982721E+02  0.68229202515E+02  0.79314733016E+02  0.10566000000E+00 0. -1.
         13    1    4    4    0    0 -0.28895112443E+01 -0.82038562745E+01  0.12490161739E+02  0.15220638532E+02  0.10566000000E+00 0. -1.
        -13    1    4    4    0    0 -0.60364075935E+01 -0.17438786051E+02  0.24684852120E+02  0.30820489350E+02  0.10566000000E+00 0.  1.
         14    1    4    4    0    0 -0.42324393816E+01 -0.12599340396E+02  0.20352498084E+02  0.24308045989E+02  0.00000000000E+00 0. -1.
<mgrwt>
<rscale>  0 0.81145140E+02</rscale>
<asrwt>0</asrwt>
<pdfrwt beam="1">  1        1 0.21186202E-01 0.81145140E+02</pdfrwt>
<pdfrwt beam="2">  1       -2 0.18390147E-02 0.81145140E+02</pdfrwt>
<totfact> 0.14962597E+05</totfact>
</mgrwt>
</event>
<event>
 8    1  0.7756875E-018  0.8031743E+02  0.7818608E-02  0.1328153E+00
          1   -1    0    0  501    0  0.00000000000E+00  0.00000000000E+00  0.71872698370E+01  0.71872716041E+01  0.50400000000E-02 0. -1.
         -2   -1    0    0    0  501 -0.00000000000E+00 -0.00000000000E+00 -0.22438589901E+03  0.22438589902E+03  0.25500000000E-02 0.  1.
        -24    2    1    2    0    0  0.44408920985E-15  0.35527136788E-14 -0.21719862917E+03  0.23157317063E+03  0.80317425508E+02 0.  0.
         66    2    3    3    0    0  0.35925045546E+01  0.24683507904E+02 -0.19931788703E+03  0.20088255716E+03  0.20000075797E+01 0.  0.
         13    1    3    3    0    0 -0.35925045546E+01 -0.24683507904E+02 -0.17880742146E+02  0.30690613470E+02  0.10566000000E+00 0. -1.
         13    1    4    4    0    0  0.10067400944E+01  0.56864852903E+01 -0.51394882670E+02  0.51718418085E+02  0.10566000000E+00 0. -1.
        -13    1    4    4    0    0  0.18480190196E+01  0.10237250847E+02 -0.78000192389E+02  0.78690899448E+02  0.10566000000E+00 0.  1.
        -14    1    4    4    0    0  0.73774544067E+00  0.87597717663E+01 -0.69922811967E+02  0.70473239624E+02  0.00000000000E+00 0.  1.
<mgrwt>
<rscale>  0 0.80317426E+02</rscale>
<asrwt>0</asrwt>
<pdfrwt beam="1">  1        1 0.11057341E-02 0.80317426E+02</pdfrwt>
<pdfrwt beam="2">  1       -2 0.34520902E-01 0.80317426E+02</pdfrwt>
<totfact> 0.80210231E+04</totfact>
</mgrwt>
</event>
<event>
 8    1  0.7756875E-018  0.8354231E+02  0.7818608E-02  0.1319289E+00
          1   -1    0    0  501    0  0.00000000000E+00  0.00000000000E+00  0.10321987996E+02  0.10321989226E+02  0.50400000000E-02 0. -1.
         -2   -1    0    0    0  501 -0.00000000000E+00 -0.00000000000E+00 -0.16904003772E+03  0.16904003774E+03  0.25500000000E-02 0.  1.
        -24    2    1    2    0    0  0.00000000000E+00  0.00000000000E+00 -0.15871804972E+03  0.17936202697E+03  0.83542309095E+02 0.  0.
         66    2    3    3    0    0 -0.40392575903E+02 -0.69552799202E+01 -0.96430227167E+02  0.10479849627E+03  0.20000005251E+01 0.  0.
         13    1    3    3    0    0  0.40392575903E+02  0.69552799202E+01 -0.62287822558E+02  0.74563530696E+02  0.10566000000E+00 0. -1.
         13    1    4    4    0    0 -0.77439791514E+00 -0.80562875154E-01 -0.19995447949E+01  0.21483775111E+01  0.10566000000E+00 0.  1.
        -13    1    4    4    0    0 -0.15898280294E+02 -0.33917110550E+01 -0.39640024246E+02  0.42843922631E+02  0.10566000000E+00 0.  1.
        -14    1    4    4    0    0 -0.23719897694E+02 -0.34830059901E+01 -0.54790658126E+02  0.59806196127E+02  0.00000000000E+00 0.  1.
<mgrwt>
<rscale>  0 0.83542309E+02</rscale>
<asrwt>0</asrwt>
<pdfrwt beam="1">  1        1 0.15879984E-02 0.83542309E+02</pdfrwt>
<pdfrwt beam="2">  1       -2 0.26006157E-01 0.83542309E+02</pdfrwt>
<totfact> 0.81121511E+04</totfact>
</mgrwt>
</event>
<event>
 8    1  0.7756875E-018  0.7978841E+02  0.7818608E-02  0.1329653E+00
         -2   -1    0    0    0  501 -0.00000000000E+00  0.00000000000E+00  0.66251916676E+03  0.66251916677E+03  0.25500000000E-02 0.  1.
          1   -1    0    0  501    0  0.00000000000E+00 -0.00000000000E+00 -0.24022640844E+01  0.24022693714E+01  0.50400000000E-02 0. -1.
        -24    2    1    2    0    0  0.00000000000E+00  0.00000000000E+00  0.66011690268E+03  0.66492143614E+03  0.79788414168E+02 0.  0.
         66    2    3    3    0    0  0.35817276039E+02 -0.85203892762E+01  0.45776284932E+03  0.45924535982E+03  0.20000001189E+01 0.  0.
         13    1    3    3    0    0 -0.35817276039E+02  0.85203892762E+01  0.20235405336E+03  0.20567607632E+03  0.10566000000E+00 0. -1.
         13    1    4    4    0    0  0.74009511242E+01 -0.20629582520E+01  0.96888879111E+02  0.97193085833E+02  0.10566000000E+00 0. -1.
        -13    1    4    4    0    0  0.18324588412E+02 -0.36418648493E+01  0.23840658799E+03  0.23913754636E+03  0.10566000000E+00 0.  1.
        -14    1    4    4    0    0  0.10091736502E+02 -0.28155661749E+01  0.12246738222E+03  0.12291472762E+03  0.00000000000E+00 0.  1.
<mgrwt>
<rscale>  0 0.79788414E+02</rscale>
<asrwt>0</asrwt>
<pdfrwt beam="1">  1        1 0.36957924E-03 0.79788414E+02</pdfrwt>
<pdfrwt beam="2">  1       -2 0.10192610E+00 0.79788414E+02</pdfrwt>
<totfact> 0.40097829E+04</totfact>
</mgrwt>
</event>
<event>
 8    1  0.7756875E-018  0.8021611E+02  0.7818608E-02  0.1328439E+00
          1   -1    0    0  501    0  0.00000000000E+00  0.00000000000E+00  0.13359310835E+02  0.13359311786E+02  0.50400000000E-02 0. -1.
         -2   -1    0    0    0  501 -0.00000000000E+00 -0.00000000000E+00 -0.12041459471E+03  0.12041459474E+03  0.25500000000E-02 0.  1.
        -24    2    1    2    0    0  0.00000000000E+00  0.00000000000E+00 -0.10705528388E+03  0.13377390653E+03  0.80216109735E+02 0.  0.
         66    2    3    3    0    0 -0.65986526122E+01  0.36391053389E+02 -0.79331575333E+02  0.87551983561E+02  0.19999993955E+01 0.  0.
         13    1    3    3    0    0  0.65986526122E+01 -0.36391053389E+02 -0.27723708545E+02  0.46221922965E+02  0.10566000000E+00 0. -1.
         13    1    4    4    0    0 -0.14994628381E+01  0.12767928052E+02 -0.27058778556E+02  0.29957587294E+02  0.10566000000E+00 0. -1.
        -13    1    4    4    0    0 -0.13435244655E+01  0.64109243937E+01 -0.13383763272E+02  0.14901050061E+02  0.10566000000E+00 0.  1.
        -14    1    4    4    0    0 -0.37556653086E+01  0.17212200943E+02 -0.38889033505E+02  0.42693346205E+02  0.00000000000E+00 0.  1.
<mgrwt>
<rscale>  0 0.80216110E+02</rscale>
<asrwt>0</asrwt>
<pdfrwt beam="1">  1        1 0.20552788E-02 0.80216110E+02</pdfrwt>
<pdfrwt beam="2">  1       -2 0.18525322E-01 0.80216110E+02</pdfrwt>
<totfact> 0.10035016E+05</totfact>
</mgrwt>
</event>
<event>
 8    1  0.7756875E-018  0.7963299E+02  0.7818608E-02  0.1330096E+00
         -2   -1    0    0    0  501 -0.00000000000E+00  0.00000000000E+00  0.10721080273E+03  0.10721080276E+03  0.25500000000E-02 0.  1.
          1   -1    0    0  501    0  0.00000000000E+00 -0.00000000000E+00 -0.14787252412E+02  0.14787253271E+02  0.50400000000E-02 0. -1.
        -24    2    1    2    0    0  0.00000000000E+00  0.00000000000E+00  0.92423550318E+02  0.12199805603E+03  0.79632989534E+02 0.  0.
         66    2    3    3    0    0  0.33498192321E+02 -0.84090764305E+01  0.76515150461E+02  0.83972672336E+02  0.19999984991E+01 0.  0.
         13    1    3    3    0    0 -0.33498192321E+02  0.84090764305E+01  0.15908399857E+02  0.38025383696E+02  0.10566000000E+00 0. -1.
         13    1    4    4    0    0  0.16400268383E+02 -0.35617485186E+01  0.38560918503E+02  0.42054850557E+02  0.10566000000E+00 0. -1.
        -13    1    4    4    0    0  0.10949091110E+02 -0.32507834007E+01  0.23474756453E+02  0.26106044193E+02  0.10566000000E+00 0.  1.
        -14    1    4    4    0    0  0.61488328275E+01 -0.15965445111E+01  0.14479475505E+02  0.15811777585E+02  0.00000000000E+00 0.  1.
<mgrwt>
<rscale>  0 0.79632990E+02</rscale>
<asrwt>0</asrwt>
<pdfrwt beam="1">  1        1 0.22749620E-02 0.79632990E+02</pdfrwt>
<pdfrwt beam="2">  1       -2 0.16493969E-01 0.79632990E+02</pdfrwt>
<totfact> 0.10550331E+05</totfact>
</mgrwt>
</event>
<event>
 8    1  0.7756875E-018  0.7448928E+02  0.7818608E-02  0.1345460E+00
          1   -1    0    0  501    0  0.00000000000E+00  0.00000000000E+00  0.13492247327E+03  0.13492247337E+03  0.50400000000E-02 0. -1.
         -2   -1    0    0    0  501 -0.00000000000E+00 -0.00000000000E+00 -0.10281186316E+02  0.10281186633E+02  0.25500000000E-02 0.  1.
        -24    2    1    2    0    0  0.00000000000E+00  0.00000000000E+00  0.12464128696E+03  0.14520366000E+03  0.74489277505E+02 0.  0.
         66    2    3    3    0    0  0.17762682059E+02 -0.18690540499E+02  0.10048395236E+02  0.27745619938E+02  0.20000002123E+01 0.  0.
         13    1    3    3    0    0 -0.17762682059E+02  0.18690540499E+02  0.11459289172E+03  0.11745804006E+03  0.10566000000E+00 0. -1.
         13    1    4    4    0    0  0.67737524821E+01 -0.63025075260E+01  0.42643858377E+01  0.10188300860E+02  0.10566000000E+00 0. -1.
        -13    1    4    4    0    0  0.94188286245E+01 -0.10508732593E+02  0.51987466515E+01  0.15039478852E+02  0.10566000000E+00 0.  1.
         14    1    4    4    0    0  0.15701009529E+01 -0.18793003798E+01  0.58526274645E+00  0.25178402257E+01  0.00000000000E+00 0. -1.
<mgrwt>
<rscale>  0 0.74489278E+02</rscale>
<asrwt>0</asrwt>
<pdfrwt beam="1">  1        1 0.20757302E-01 0.74489278E+02</pdfrwt>
<pdfrwt beam="2">  1       -2 0.15817211E-02 0.74489278E+02</pdfrwt>
<totfact> 0.18732795E+05</totfact>
</mgrwt>
</event>
<event>
 8    1  0.7756875E-018  0.8183068E+02  0.7818608E-02  0.1323935E+00
          1   -1    0    0  501    0  0.00000000000E+00  0.00000000000E+00  0.83625385064E+01  0.83625400252E+01  0.50400000000E-02 0. -1.
         -2   -1    0    0    0  501 -0.00000000000E+00 -0.00000000000E+00 -0.20018620502E+03  0.20018620504E+03  0.25500000000E-02 0.  1.
        -24    2    1    2    0    0  0.00000000000E+00 -0.17763568394E-14 -0.19182366652E+03  0.20854874506E+03  0.81830679039E+02 0.  0.
         66    2    3    3    0    0 -0.35457456198E+02  0.13445347121E+02 -0.56979515992E+02  0.68473891311E+02  0.19999973510E+01 0.  0.
         13    1    3    3    0    0  0.35457456198E+02 -0.13445347121E+02 -0.13484415052E+03  0.14007485375E+03  0.10566000000E+00 0. -1.
         13    1    4    4    0    0 -0.15690347991E+02  0.55283848014E+01 -0.26075951506E+02  0.30930833638E+02  0.10566000000E+00 0. -1.
        -13    1    4    4    0    0 -0.16257904492E+02  0.63771072307E+01 -0.24675138139E+02  0.30230126717E+02  0.10566000000E+00 0.  1.
        -14    1    4    4    0    0 -0.35092037150E+01  0.15398550886E+01 -0.62284263474E+01  0.73129309564E+01  0.00000000000E+00 0.  1.
<mgrwt>
<rscale>  0 0.81830679E+02</rscale>
<asrwt>0</asrwt>
<pdfrwt beam="1">  1        1 0.12865447E-02 0.81830679E+02</pdfrwt>
<pdfrwt beam="2">  1       -2 0.30797874E-01 0.81830679E+02</pdfrwt>
<totfact> 0.80219354E+04</totfact>
</mgrwt>
</event>
<event>
 8    1  0.7756875E-018  0.8014923E+02  0.7818608E-02  0.1328628E+00
         -2   -1    0    0    0  501 -0.00000000000E+00  0.00000000000E+00  0.14169145638E+02  0.14169145867E+02  0.25500000000E-02 0.  1.
          1   -1    0    0  501    0  0.00000000000E+00 -0.00000000000E+00 -0.11334308925E+03  0.11334308936E+03  0.50400000000E-02 0. -1.
        -24    2    1    2    0    0 -0.35527136788E-14  0.00000000000E+00 -0.99173943608E+02  0.12751223523E+03  0.80149229824E+02 0.  0.
         66    2    3    3    0    0  0.25134546772E+02 -0.19077653195E+02 -0.10380399054E+02  0.33278446108E+02  0.19999995049E+01 0.  0.
         13    1    3    3    0    0 -0.25134546772E+02  0.19077653195E+02 -0.88793544554E+02  0.94233789117E+02  0.10566000000E+00 0. -1.
         13    1    4    4    0    0  0.21985496479E+01 -0.13726366156E+01 -0.11261973102E+01  0.28279385159E+01  0.10566000000E+00 0.  1.
        -13    1    4    4    0    0  0.21148702870E+01 -0.17145830528E+01 -0.13014994022E+01  0.30195258080E+01  0.10566000000E+00 0.  1.
        -14    1    4    4    0    0  0.20821126837E+02 -0.15990433526E+02 -0.79527023415E+01  0.27430981784E+02  0.00000000000E+00 0.  1.
<mgrwt>
<rscale>  0 0.80149230E+02</rscale>
<asrwt>0</asrwt>
<pdfrwt beam="1">  1        1 0.17437398E-01 0.80149230E+02</pdfrwt>
<pdfrwt beam="2">  1       -2 0.21798687E-02 0.80149230E+02</pdfrwt>
<totfact> 0.14941295E+05</totfact>
</mgrwt>
</event>
<event>
 8    1  0.7756875E-018  0.7864050E+02  0.7818608E-02  0.1332954E+00
         -2   -1    0    0    0  501 -0.00000000000E+00  0.00000000000E+00  0.17069208386E+03  0.17069208388E+03  0.25500000000E-02 0.  1.
          1   -1    0    0  501    0  0.00000000000E+00 -0.00000000000E+00 -0.90577245698E+01  0.90577259720E+01  0.50400000000E-02 0. -1.
        -24    2    1    2    0    0  0.00000000000E+00  0.00000000000E+00  0.16163435929E+03  0.17974980985E+03  0.78640498716E+02 0.  0.
         66    2    3    3    0    0  0.29000036194E+02 -0.12492351846E+02  0.27410135476E+02  0.41861397080E+02  0.20000211938E+01 0.  0.
         13    1    3    3    0    0 -0.29000036194E+02  0.12492351846E+02  0.13422422381E+03  0.13788841277E+03  0.10566000000E+00 0. -1.
         13    1    4    4    0    0  0.12798641781E+02 -0.46517370664E+01  0.11482009877E+02  0.17812680989E+02  0.10566000000E+00 0. -1.
        -13    1    4    4    0    0  0.60552723139E+01 -0.32580317566E+01  0.57420355507E+01  0.89589748311E+01  0.10566000000E+00 0.  1.
         14    1    4    4    0    0  0.10146122100E+02 -0.45825830232E+01  0.10186090048E+02  0.15089741260E+02  0.00000000000E+00 0. -1.
<mgrwt>
<rscale>  0 0.78640499E+02</rscale>
<asrwt>0</asrwt>
<pdfrwt beam="1">  1        1 0.13934963E-02 0.78640499E+02</pdfrwt>
<pdfrwt beam="2">  1       -2 0.26260318E-01 0.78640499E+02</pdfrwt>
<totfact> 0.94477933E+04</totfact>
</mgrwt>
</event>
<event>
 8    1  0.7756875E-018  0.8012375E+02  0.7818608E-02  0.1328701E+00
          1   -1    0    0  501    0  0.00000000000E+00  0.00000000000E+00  0.68275847627E+02  0.68275847813E+02  0.50400000000E-02 0. -1.
         -2   -1    0    0    0  501 -0.00000000000E+00 -0.00000000000E+00 -0.23506905028E+02  0.23506905167E+02  0.25500000000E-02 0.  1.
        -24    2    1    2    0    0  0.35527136788E-14  0.35527136788E-14  0.44768942599E+02  0.91782752980E+02  0.80123751305E+02 0.  0.
         66    2    3    3    0    0 -0.17380932962E+02 -0.31244696051E+02  0.17594031395E+01  0.35852801161E+02  0.19999974240E+01 0.  0.
         13    1    3    3    0    0  0.17380932962E+02  0.31244696051E+02  0.43009539459E+02  0.55929951819E+02  0.10566000000E+00 0. -1.
         13    1    4    4    0    0 -0.67486195994E+00 -0.84935543168E+00  0.32314185299E+00  0.11368500372E+01  0.10566000000E+00 0. -1.
        -13    1    4    4    0    0 -0.59977382440E+01 -0.10695839212E+02  0.64788583553E+00  0.12280258978E+02  0.10566000000E+00 0.  1.
         14    1    4    4    0    0 -0.10708332758E+02 -0.19699501408E+02  0.78837545101E+00  0.22435692145E+02  0.00000000000E+00 0. -1.
<mgrwt>
<rscale>  0 0.80123751E+02</rscale>
<asrwt>0</asrwt>
<pdfrwt beam="1">  1        1 0.10503977E-01 0.80123751E+02</pdfrwt>
<pdfrwt beam="2">  1       -2 0.36164470E-02 0.80123751E+02</pdfrwt>
<totfact> 0.13757649E+05</totfact>
</mgrwt>
</event>
<event>
 8    1  0.7756875E-018  0.7730732E+02  0.7818608E-02  0.1336871E+00
         -2   -1    0    0    0  501 -0.00000000000E+00  0.00000000000E+00  0.24658885143E+03  0.24658885144E+03  0.25500000000E-02 0.  1.
          1   -1    0    0  501    0  0.00000000000E+00 -0.00000000000E+00 -0.60590946459E+01  0.60590967420E+01  0.50400000000E-02 0. -1.
        -24    2    1    2    0    0 -0.17763568394E-14  0.00000000000E+00  0.24052975678E+03  0.25264794818E+03  0.77307320633E+02 0.  0.
         66    2    3    3    0    0 -0.82891359961E+01 -0.20932055968E+02  0.22292595734E+03  0.22406883585E+03  0.20000009050E+01 0.  0.
         13    1    3    3    0    0  0.82891359961E+01  0.20932055968E+02  0.17603799445E+02  0.28579112329E+02  0.10566000000E+00 0. -1.
         13    1    4    4    0    0 -0.32826186137E+01 -0.70257931163E+01  0.73190404127E+02  0.73600161509E+02  0.10566000000E+00 0. -1.
        -13    1    4    4    0    0 -0.30380843981E+01 -0.88724286211E+01  0.10088779264E+03  0.10132279021E+03  0.10566000000E+00 0.  1.
        -14    1    4    4    0    0 -0.19684329843E+01 -0.50338342304E+01  0.48847760566E+02  0.49145884139E+02  0.00000000000E+00 0.  1.
<mgrwt>
<rscale>  0 0.77307321E+02</rscale>
<asrwt>0</asrwt>
<pdfrwt beam="1">  1        1 0.93216870E-03 0.77307321E+02</pdfrwt>
<pdfrwt beam="2">  1       -2 0.37936741E-01 0.77307321E+02</pdfrwt>
<totfact> 0.84785675E+04</totfact>
</mgrwt>
</event>
<event>
 8    1  0.7756875E-018  0.8030035E+02  0.7818608E-02  0.1328201E+00
         -2   -1    0    0    0  501 -0.00000000000E+00  0.00000000000E+00  0.14301899698E+02  0.14301899925E+02  0.25500000000E-02 0.  1.
          1   -1    0    0  501    0  0.00000000000E+00 -0.00000000000E+00 -0.11271485325E+03  0.11271485336E+03  0.50400000000E-02 0. -1.
        -24    2    1    2    0    0  0.00000000000E+00  0.00000000000E+00 -0.98412953554E+02  0.12701675329E+03  0.80300349869E+02 0.  0.
         66    2    3    3    0    0 -0.29288125039E+02  0.22363680451E+02 -0.24121945371E+02  0.44088510016E+02  0.19999988366E+01 0.  0.
         13    1    3    3    0    0  0.29288125039E+02 -0.22363680451E+02 -0.74291008183E+02  0.82928243274E+02  0.10566000000E+00 0. -1.
         13    1    4    4    0    0 -0.87813147814E+01  0.66013943925E+01 -0.64167053176E+01  0.12723017267E+02  0.10566000000E+00 0. -1.
        -13    1    4    4    0    0 -0.89907503240E+01  0.69019510717E+01 -0.70721347540E+01  0.13360268485E+02  0.10566000000E+00 0.  1.
         14    1    4    4    0    0 -0.11516059934E+02  0.88603349868E+01 -0.10633105299E+02  0.18005224264E+02  0.00000000000E+00 0. -1.
<mgrwt>
<rscale>  0 0.80300350E+02</rscale>
<asrwt>0</asrwt>
<pdfrwt beam="1">  1        1 0.17340746E-01 0.80300350E+02</pdfrwt>
<pdfrwt beam="2">  1       -2 0.22002924E-02 0.80300350E+02</pdfrwt>
<totfact> 0.14851385E+05</totfact>
</mgrwt>
</event>
<event>
 8    1  0.7756875E-018  0.8545282E+02  0.7818608E-02  0.1314253E+00
         -2   -1    0    0    0  501 -0.00000000000E+00  0.00000000000E+00  0.10457850512E+02  0.10457850823E+02  0.25500000000E-02 0.  1.
          1   -1    0    0  501    0  0.00000000000E+00 -0.00000000000E+00 -0.17456226117E+03  0.17456226125E+03  0.50400000000E-02 0. -1.
        -24    2    1    2    0    0 -0.35527136788E-14  0.00000000000E+00 -0.16410441066E+03  0.18502011207E+03  0.85452818981E+02 0.  0.
         66    2    3    3    0    0  0.20260672475E+02 -0.17846671612E+02 -0.10464732587E+02  0.29026008401E+02  0.19999996974E+01 0.  0.
         13    1    3    3    0    0 -0.20260672475E+02  0.17846671612E+02 -0.15363967807E+03  0.15599410367E+03  0.10566000000E+00 0. -1.
         13    1    4    4    0    0  0.99444862826E+01 -0.95406422619E+01 -0.44996954413E+01  0.14497416504E+02  0.10566000000E+00 0.  1.
        -13    1    4    4    0    0  0.39619464949E+01 -0.32041878392E+01 -0.24205157046E+01  0.56421538484E+01  0.10566000000E+00 0. -1.
        -14    1    4    4    0    0  0.63542396973E+01 -0.51018415108E+01 -0.35445214412E+01  0.88864380479E+01  0.00000000000E+00 0.  1.
<mgrwt>
<rscale>  0 0.85452819E+02</rscale>
<asrwt>0</asrwt>
<pdfrwt beam="1">  1        1 0.26855730E-01 0.85452819E+02</pdfrwt>
<pdfrwt beam="2">  1       -2 0.16089002E-02 0.85452819E+02</pdfrwt>
<totfact> 0.13618379E+05</totfact>
</mgrwt>
</event>
<event>
 8    1  0.7756875E-018  0.7908928E+02  0.7818608E-02  0.1331656E+00
         -2   -1    0    0    0  501 -0.00000000000E+00  0.00000000000E+00  0.53219708736E+02  0.53219708797E+02  0.25500000000E-02 0.  1.
          1   -1    0    0  501    0  0.00000000000E+00 -0.00000000000E+00 -0.29383445879E+02  0.29383446311E+02  0.50400000000E-02 0. -1.
        -24    2    1    2    0    0  0.00000000000E+00  0.00000000000E+00  0.23836262857E+02  0.82603155107E+02  0.79089277445E+02 0.  0.
         66    2    3    3    0    0  0.36645765443E+02  0.11733611867E+02  0.25152131341E+01  0.38612382238E+02  0.19999981576E+01 0.  0.
         13    1    3    3    0    0 -0.36645765443E+02 -0.11733611867E+02  0.21321049723E+02  0.43990772870E+02  0.10566000000E+00 0. -1.
         13    1    4    4    0    0  0.14597680431E+02  0.49947598427E+01  0.49917678403E+00  0.15436976432E+02  0.10566000000E+00 0. -1.
        -13    1    4    4    0    0  0.44607438182E+01  0.18736095868E+01  0.46810153820E+00  0.48619884184E+01  0.10566000000E+00 0.  1.
         14    1    4    4    0    0  0.17587341194E+02  0.48652424375E+01  0.15479348119E+01  0.18313417388E+02  0.00000000000E+00 0. -1.
<mgrwt>
<rscale>  0 0.79089277E+02</rscale>
<asrwt>0</asrwt>
<pdfrwt beam="1">  1        1 0.45205302E-02 0.79089277E+02</pdfrwt>
<pdfrwt beam="2">  1       -2 0.81876474E-02 0.79089277E+02</pdfrwt>
<totfact> 0.12453507E+05</totfact>
</mgrwt>
</event>
<event>
 8    1  0.7756875E-018  0.7978162E+02  0.7818608E-02  0.1329672E+00
         -2   -1    0    0    0  501 -0.00000000000E+00  0.00000000000E+00  0.37524724847E+02  0.37524724934E+02  0.25500000000E-02 0.  1.
          1   -1    0    0  501    0  0.00000000000E+00 -0.00000000000E+00 -0.42406091145E+02  0.42406091444E+02  0.50400000000E-02 0. -1.
        -24    2    1    2    0    0  0.00000000000E+00  0.44408920985E-15 -0.48813662975E+01  0.79930816378E+02  0.79781624889E+02 0.  0.
         66    2    3    3    0    0  0.15660655167E+02  0.36976316085E+01  0.34099865758E+02  0.37758832593E+02  0.19999985859E+01 0.  0.
         13    1    3    3    0    0 -0.15660655167E+02 -0.36976316085E+01 -0.38981232056E+02  0.42171983785E+02  0.10566000000E+00 0. -1.
         13    1    4    4    0    0  0.10989609406E+02  0.32919860301E+01  0.23318038263E+02  0.25987511604E+02  0.10566000000E+00 0. -1.
        -13    1    4    4    0    0  0.40499818509E+01  0.15563841641E+00  0.92870993004E+01  0.10133506489E+02  0.10566000000E+00 0.  1.
        -14    1    4    4    0    0  0.62106390948E+00  0.25000716199E+00  0.14947281949E+01  0.16378145003E+01  0.00000000000E+00 0.  1.
<mgrwt>
<rscale>  0 0.79781625E+02</rscale>
<asrwt>0</asrwt>
<pdfrwt beam="1">  1        1 0.65240141E-02 0.79781625E+02</pdfrwt>
<pdfrwt beam="2">  1       -2 0.57730346E-02 0.79781625E+02</pdfrwt>
<totfact> 0.12916498E+05</totfact>
</mgrwt>
</event>
<event>
 8    1  0.7756875E-018  0.7917808E+02  0.7818608E-02  0.1331400E+00
          1   -1    0    0  501    0  0.00000000000E+00  0.00000000000E+00  0.86883960880E+02  0.86883961026E+02  0.50400000000E-02 0. -1.
         -2   -1    0    0    0  501 -0.00000000000E+00 -0.00000000000E+00 -0.18038911248E+02  0.18038911428E+02  0.25500000000E-02 0.  1.
        -24    2    1    2    0    0 -0.88817841970E-15  0.00000000000E+00  0.68845049632E+02  0.10492287245E+03  0.79178079701E+02 0.  0.
         66    2    3    3    0    0 -0.69146233644E+01 -0.20848664633E+02 -0.91610455936E+01  0.23883123629E+02  0.20000011670E+01 0.  0.
         13    1    3    3    0    0  0.69146233644E+01  0.20848664633E+02  0.78006095226E+02  0.81039748825E+02  0.10566000000E+00 0. -1.
         13    1    4    4    0    0 -0.32388450948E+01 -0.82916510364E+01 -0.40206258195E+01  0.97682235065E+01  0.10566000000E+00 0. -1.
        -13    1    4    4    0    0 -0.68295189392E+00 -0.10597201388E+01 -0.49072513561E+00  0.13569838821E+01  0.10566000000E+00 0.  1.
         14    1    4    4    0    0 -0.29928263758E+01 -0.11497293458E+02 -0.46496946385E+01  0.12757916240E+02  0.00000000000E+00 0. -1.
<mgrwt>
<rscale>  0 0.79178080E+02</rscale>
<asrwt>0</asrwt>
<pdfrwt beam="1">  1        1 0.13366763E-01 0.79178080E+02</pdfrwt>
<pdfrwt beam="2">  1       -2 0.27752171E-02 0.79178080E+02</pdfrwt>
<totfact> 0.14768580E+05</totfact>
</mgrwt>
</event>
<event>
 8    1  0.7756875E-018  0.8469514E+02  0.7818608E-02  0.1316232E+00
         -2   -1    0    0    0  501 -0.00000000000E+00  0.00000000000E+00  0.11545654570E+03  0.11545654573E+03  0.25500000000E-02 0.  1.
          1   -1    0    0  501    0  0.00000000000E+00 -0.00000000000E+00 -0.15532394799E+02  0.15532395617E+02  0.50400000000E-02 0. -1.
        -24    2    1    2    0    0  0.71054273576E-14  0.00000000000E+00  0.99924150904E+02  0.13098894135E+03  0.84695140485E+02 0.  0.
         66    2    3    3    0    0 -0.36673894708E+02 -0.13494099219E+02  0.75130749220E+02  0.84709472922E+02  0.20000143962E+01 0.  0.
         13    1    3    3    0    0  0.36673894708E+02  0.13494099219E+02  0.24793401684E+02  0.46279468427E+02  0.10566000000E+00 0. -1.
         13    1    4    4    0    0 -0.60327512483E+01 -0.25704786556E+01  0.11900045980E+02  0.13587630643E+02  0.10566000000E+00 0. -1.
        -13    1    4    4    0    0 -0.26424279193E+02 -0.99089940614E+01  0.54529007784E+02  0.61399141265E+02  0.10566000000E+00 0.  1.
        -14    1    4    4    0    0 -0.42168642665E+01 -0.10146265017E+01  0.87016954566E+01  0.97227010136E+01  0.00000000000E+00 0.  1.
<mgrwt>
<rscale>  0 0.84695140E+02</rscale>
<asrwt>0</asrwt>
<pdfrwt beam="1">  1        1 0.23895992E-02 0.84695140E+02</pdfrwt>
<pdfrwt beam="2">  1       -2 0.17762546E-01 0.84695140E+02</pdfrwt>
<totfact> 0.88300012E+04</totfact>
</mgrwt>
</event>
<event>
 8    1  0.8120696E-018  0.7851701E+02  0.7818608E-02  0.1333313E+00
         -2   -1    0    0    0  501 -0.00000000000E+00  0.00000000000E+00  0.12463683663E+02  0.12463683924E+02  0.25500000000E-02 0.  1.
          1   -1    0    0  501    0  0.00000000000E+00 -0.00000000000E+00 -0.12365768604E+03  0.12365768614E+03  0.50400000000E-02 0. -1.
        -24    2    1    2    0    0  0.00000000000E+00  0.00000000000E+00 -0.11119400238E+03  0.13612137007E+03  0.78517012325E+02 0.  0.
         66    2    3    3    0    0  0.19948906273E+02 -0.29628864498E+02 -0.27496616066E+02  0.45120863958E+02  0.19999990528E+01 0.  0.
         13    1    3    3    0    0 -0.19948906273E+02  0.29628864498E+02 -0.83697386312E+02  0.91000506111E+02  0.10566000000E+00 0. -1.
         13    1    4    4    0    0  0.46799011706E+01 -0.66160514542E+01 -0.59698218246E+01  0.10065959888E+02  0.10566000000E+00 0. -1.
        -13    1    4    4    0    0  0.14173907056E+02 -0.21091196770E+02 -0.19240876679E+02  0.31874138762E+02  0.10566000000E+00 0.  1.
         14    1    4    4    0    0  0.10950980466E+01 -0.19216162744E+01 -0.22859175630E+01  0.31807653076E+01  0.00000000000E+00 0. -1.
<mgrwt>
<rscale>  0 0.78517012E+02</rscale>
<asrwt>0</asrwt>
<pdfrwt beam="1">  1        1 0.19024259E-01 0.78517012E+02</pdfrwt>
<pdfrwt beam="2">  1       -2 0.19174899E-02 0.78517012E+02</pdfrwt>
<totfact> 0.16031542E+05</totfact>
</mgrwt>
</event>
<event>
 8    1  0.7756875E-018  0.7900663E+02  0.7818608E-02  0.1331894E+00
         -2   -1    0    0    0  501 -0.00000000000E+00  0.00000000000E+00  0.16626004594E+02  0.16626004789E+02  0.25500000000E-02 0.  1.
          1   -1    0    0  501    0  0.00000000000E+00 -0.00000000000E+00 -0.93859713136E+02  0.93859713271E+02  0.50400000000E-02 0. -1.
        -24    2    1    2    0    0  0.17763568394E-14  0.00000000000E+00 -0.77233708542E+02  0.11048571806E+03  0.79006633647E+02 0.  0.
         66    2    3    3    0    0  0.13204988353E+02 -0.25724992909E+02 -0.10561066488E+01  0.29004522857E+02  0.20000018473E+01 0.  0.
         13    1    3    3    0    0 -0.13204988353E+02  0.25724992909E+02 -0.76177601893E+02  0.81481195203E+02  0.10566000000E+00 0. -1.
         13    1    4    4    0    0  0.12687778126E+01 -0.33027819043E+01  0.30492126922E+00  0.35527885472E+01  0.10566000000E+00 0. -1.
        -13    1    4    4    0    0  0.71398187981E+01 -0.13494179324E+02 -0.41199452448E+00  0.15272550265E+02  0.10566000000E+00 0.  1.
         14    1    4    4    0    0  0.47963917421E+01 -0.89280316806E+01 -0.94903339358E+00  0.10179184045E+02  0.00000000000E+00 0. -1.
<mgrwt>
<rscale>  0 0.79006634E+02</rscale>
<asrwt>0</asrwt>
<pdfrwt beam="1">  1        1 0.14439956E-01 0.79006634E+02</pdfrwt>
<pdfrwt beam="2">  1       -2 0.25578469E-02 0.79006634E+02</pdfrwt>
<totfact> 0.15044467E+05</totfact>
</mgrwt>
</event>
<event>
 8    1  0.7756875E-018  0.8211640E+02  0.7818608E-02  0.1323150E+00
          1   -1    0    0  501    0  0.00000000000E+00  0.00000000000E+00  0.21936957454E+02  0.21936958033E+02  0.50400000000E-02 0. -1.
         -2   -1    0    0    0  501 -0.00000000000E+00 -0.00000000000E+00 -0.76846381637E+02  0.76846381680E+02  0.25500000000E-02 0.  1.
        -24    2    1    2    0    0  0.17763568394E-14  0.00000000000E+00 -0.54909424183E+02  0.98783339713E+02  0.82116401168E+02 0.  0.
         66    2    3    3    0    0 -0.97154340812E+01 -0.24845131999E+02 -0.64977700055E+02  0.70269280259E+02  0.20000000866E+01 0.  0.
         13    1    3    3    0    0  0.97154340812E+01  0.24845131999E+02  0.10068275872E+02  0.28514059454E+02  0.10566000000E+00 0. -1.
         13    1    4    4    0    0 -0.13929980822E+01 -0.24103607755E+01 -0.72457040402E+01  0.77628392873E+01  0.10566000000E+00 0. -1.
        -13    1    4    4    0    0 -0.15933906175E+01 -0.30944150135E+01 -0.84533835332E+01  0.91424917354E+01  0.10566000000E+00 0.  1.
        -14    1    4    4    0    0 -0.67290453815E+01 -0.19340356210E+02 -0.49278612481E+02  0.53363949237E+02  0.00000000000E+00 0.  1.
<mgrwt>
<rscale>  0 0.82116401E+02</rscale>
<asrwt>0</asrwt>
<pdfrwt beam="1">  1        1 0.33749166E-02 0.82116401E+02</pdfrwt>
<pdfrwt beam="2">  1       -2 0.11822520E-01 0.82116401E+02</pdfrwt>
<totfact> 0.10547176E+05</totfact>
</mgrwt>
</event>
<event>
 8    1  0.7756875E-018  0.7912395E+02  0.7818608E-02  0.1331556E+00
         -2   -1    0    0    0  501 -0.00000000000E+00  0.00000000000E+00  0.43885292680E+02  0.43885292754E+02  0.25500000000E-02 0.  1.
          1   -1    0    0  501    0  0.00000000000E+00 -0.00000000000E+00 -0.35664567175E+02  0.35664567531E+02  0.50400000000E-02 0. -1.
        -24    2    1    2    0    0  0.71054273576E-14  0.00000000000E+00  0.82207255047E+01  0.79549860285E+02  0.79123953033E+02 0.  0.
         66    2    3    3    0    0 -0.39259630524E+02  0.37697872118E+00 -0.56872815774E+00  0.39316461702E+02  0.20000018030E+01 0.  0.
         13    1    3    3    0    0  0.39259630524E+02 -0.37697872118E+00  0.87894536625E+01  0.40233398583E+02  0.10566000000E+00 0. -1.
         13    1    4    4    0    0 -0.54402132271E+01 -0.50879007228E+00 -0.27640999945E-02  0.54649756605E+01  0.10566000000E+00 0. -1.
        -13    1    4    4    0    0 -0.20101767455E+02  0.37385658171E+00  0.14235771535E+00  0.20106025299E+02  0.10566000000E+00 0.  1.
        -14    1    4    4    0    0 -0.13717649842E+02  0.51191221175E+00 -0.70832177309E+00  0.13745460743E+02  0.00000000000E+00 0.  1.
<mgrwt>
<rscale>  0 0.79123953E+02</rscale>
<asrwt>0</asrwt>
<pdfrwt beam="1">  1        1 0.54868565E-02 0.79123953E+02</pdfrwt>
<pdfrwt beam="2">  1       -2 0.67515835E-02 0.79123953E+02</pdfrwt>
<totfact> 0.12854918E+05</totfact>
</mgrwt>
</event>
<event>
 8    1  0.7756875E-018  0.7953718E+02  0.7818608E-02  0.1330370E+00
          1   -1    0    0  501    0  0.00000000000E+00  0.00000000000E+00  0.17476095481E+01  0.17476168156E+01  0.50400000000E-02 0. -1.
         -2   -1    0    0    0  501 -0.00000000000E+00 -0.00000000000E+00 -0.90497185882E+03  0.90497185882E+03  0.25500000000E-02 0.  1.
        -24    2    1    2    0    0  0.00000000000E+00  0.00000000000E+00 -0.90322424927E+03  0.90671947564E+03  0.79537180178E+02 0.  0.
         66    2    3    3    0    0 -0.27579400917E+02  0.13009944607E+02 -0.74246217608E+03  0.74309081875E+03  0.19999977308E+01 0.  0.
         13    1    3    3    0    0  0.27579400917E+02 -0.13009944607E+02 -0.16076207319E+03  0.16362865688E+03  0.10566000000E+00 0. -1.
         13    1    4    4    0    0 -0.45299191426E+01  0.21090185142E+01 -0.12689210171E+03  0.12699049086E+03  0.10566000000E+00 0. -1.
        -13    1    4    4    0    0 -0.71169617222E+01  0.25221962770E+01 -0.18626812030E+03  0.18642112655E+03  0.10566000000E+00 0.  1.
        -14    1    4    4    0    0 -0.15932520052E+02  0.83787298152E+01 -0.42930195406E+03  0.42967920134E+03  0.00000000000E+00 0.  1.
<mgrwt>
<rscale>  0 0.79537180E+02</rscale>
<asrwt>0</asrwt>
<pdfrwt beam="1">  1        1 0.26886429E-03 0.79537180E+02</pdfrwt>
<pdfrwt beam="2">  1       -2 0.13922607E+00 0.79537180E+02</pdfrwt>
<totfact> 0.29628276E+04</totfact>
</mgrwt>
</event>
<event>
 8    1  0.7756875E-018  0.7857109E+02  0.7818608E-02  0.1333156E+00
         -2   -1    0    0    0  501 -0.00000000000E+00  0.00000000000E+00  0.10696152626E+03  0.10696152629E+03  0.25500000000E-02 0.  1.
          1   -1    0    0  501    0  0.00000000000E+00 -0.00000000000E+00 -0.14429058063E+02  0.14429058943E+02  0.50400000000E-02 0. -1.
        -24    2    1    2    0    0  0.00000000000E+00  0.00000000000E+00  0.92532468199E+02  0.12139058523E+03  0.78571092093E+02 0.  0.
         66    2    3    3    0    0 -0.38241335423E+02 -0.31783750250E+01  0.33476778264E+02  0.50962696722E+02  0.19999928589E+01 0.  0.
         13    1    3    3    0    0  0.38241335423E+02  0.31783750250E+01  0.59055689934E+02  0.70427888513E+02  0.10566000000E+00 0. -1.
         13    1    4    4    0    0 -0.56281116571E+01 -0.81151610641E+00  0.42321038084E+01  0.70891512818E+01  0.10566000000E+00 0. -1.
        -13    1    4    4    0    0 -0.21739374267E+02 -0.14014314295E+01  0.19801456373E+02  0.29439314566E+02  0.10566000000E+00 0.  1.
        -14    1    4    4    0    0 -0.10873849499E+02 -0.96542748900E+00  0.94432180831E+01  0.14434230874E+02  0.00000000000E+00 0.  1.
<mgrwt>
<rscale>  0 0.78571092E+02</rscale>
<asrwt>0</asrwt>
<pdfrwt beam="1">  1        1 0.22198552E-02 0.78571092E+02</pdfrwt>
<pdfrwt beam="2">  1       -2 0.16455619E-01 0.78571092E+02</pdfrwt>
<totfact> 0.10925987E+05</totfact>
</mgrwt>
</event>
<event>
 8    1  0.7756875E-018  0.7872624E+02  0.7818608E-02  0.1332706E+00
          1   -1    0    0  501    0  0.00000000000E+00  0.00000000000E+00  0.16726358541E+03  0.16726358549E+03  0.50400000000E-02 0. -1.
         -2   -1    0    0    0  501 -0.00000000000E+00 -0.00000000000E+00 -0.92635526428E+01  0.92635529937E+01  0.25500000000E-02 0.  1.
        -24    2    1    2    0    0  0.00000000000E+00  0.00000000000E+00  0.15800003277E+03  0.17652713848E+03  0.78726236195E+02 0.  0.
         66    2    3    3    0    0  0.29880633947E+02  0.71933041379E+01  0.23995685266E+02  0.39043422270E+02  0.20000004169E+01 0.  0.
         13    1    3    3    0    0 -0.29880633947E+02 -0.71933041379E+01  0.13400434750E+03  0.13748371621E+03  0.10566000000E+00 0. -1.
         13    1    4    4    0    0  0.87607163453E+01  0.26404686552E+01  0.68905384698E+01  0.11454820384E+02  0.10566000000E+00 0. -1.
        -13    1    4    4    0    0  0.11231701030E+02  0.21399109095E+01  0.82843011371E+01  0.14119884422E+02  0.10566000000E+00 0.  1.
        -14    1    4    4    0    0  0.98882165716E+01  0.24129245732E+01  0.88208456587E+01  0.13468717463E+02  0.00000000000E+00 0.  1.
<mgrwt>
<rscale>  0 0.78726236E+02</rscale>
<asrwt>0</asrwt>
<pdfrwt beam="1">  1        1 0.25732861E-01 0.78726236E+02</pdfrwt>
<pdfrwt beam="2">  1       -2 0.14251619E-02 0.78726236E+02</pdfrwt>
<totfact> 0.16816007E+05</totfact>
</mgrwt>
</event>
<event>
 8    1  0.7756875E-018  0.7522041E+02  0.7818608E-02  0.1343190E+00
          1   -1    0    0  501    0  0.00000000000E+00  0.00000000000E+00  0.62533051134E+00  0.62535082155E+00  0.50400000000E-02 0. -1.
         -2   -1    0    0    0  501 -0.00000000000E+00 -0.00000000000E+00 -0.22620111201E+04  0.22620111201E+04  0.25500000000E-02 0.  1.
        -24    2    1    2    0    0  0.00000000000E+00  0.00000000000E+00 -0.22613857895E+04  0.22626364709E+04  0.75220410775E+02 0.  0.
         66    2    3    3    0    0 -0.47569310770E+01  0.96120556720E+01 -0.22150007240E+04  0.22150275907E+04  0.19999969401E+01 0.  0.
         13    1    3    3    0    0  0.47569310770E+01 -0.96120556720E+01 -0.46385065519E+02  0.47608880209E+02  0.10566000000E+00 0. -1.
         13    1    4    4    0    0 -0.13293426720E+01  0.18510812487E+01 -0.51202221859E+03  0.51202730117E+03  0.10566000000E+00 0. -1.
        -13    1    4    4    0    0 -0.26672103515E+01  0.58241644367E+01 -0.11472423724E+04  0.11472602613E+04  0.10566000000E+00 0.  1.
        -14    1    4    4    0    0 -0.76037805356E+00  0.19368099867E+01 -0.55573613305E+03  0.55574002824E+03  0.00000000000E+00 0.  1.
<mgrwt>
<rscale>  0 0.75220411E+02</rscale>
<asrwt>0</asrwt>
<pdfrwt beam="1">  1        1 0.96208068E-04 0.75220411E+02</pdfrwt>
<pdfrwt beam="2">  1       -2 0.34799516E+00 0.75220411E+02</pdfrwt>
<totfact> 0.66267429E+03</totfact>
</mgrwt>
</event>
<event>
 8    1  0.7756875E-018  0.8028204E+02  0.7818608E-02  0.1328253E+00
          1   -1    0    0  501    0  0.00000000000E+00  0.00000000000E+00  0.10323087946E+03  0.10323087959E+03  0.50400000000E-02 0. -1.
         -2   -1    0    0    0  501 -0.00000000000E+00 -0.00000000000E+00 -0.15608714658E+02  0.15608714866E+02  0.25500000000E-02 0.  1.
        -24    2    1    2    0    0  0.35527136788E-14 -0.35527136788E-14  0.87622164807E+02  0.11883959445E+03  0.80282036873E+02 0.  0.
         66    2    3    3    0    0 -0.29757371903E+02  0.26861090782E+02  0.41604498223E+02  0.57809633104E+02  0.20000066556E+01 0.  0.
         13    1    3    3    0    0  0.29757371903E+02 -0.26861090782E+02  0.46017666584E+02  0.61029961350E+02  0.10566000000E+00 0. -1.
         13    1    4    4    0    0 -0.15505074200E+01  0.14900512018E+01  0.19937881127E+01  0.29343961760E+01  0.10566000000E+00 0. -1.
        -13    1    4    4    0    0 -0.53144626220E+01  0.57064801500E+01  0.81076166582E+01  0.11249535127E+02  0.10566000000E+00 0.  1.
        -14    1    4    4    0    0 -0.22892401861E+02  0.19664559430E+02  0.31503093452E+02  0.43625701801E+02  0.00000000000E+00 0.  1.
<mgrwt>
<rscale>  0 0.80282037E+02</rscale>
<asrwt>0</asrwt>
<pdfrwt beam="1">  1        1 0.15881674E-01 0.80282037E+02</pdfrwt>
<pdfrwt beam="2">  1       -2 0.24013408E-02 0.80282037E+02</pdfrwt>
<totfact> 0.14638430E+05</totfact>
</mgrwt>
</event>
<event>
 8    1  0.7756875E-018  0.7579681E+02  0.7818608E-02  0.1341421E+00
          1   -1    0    0  501    0  0.00000000000E+00  0.00000000000E+00  0.26785565133E+03  0.26785565138E+03  0.50400000000E-02 0. -1.
         -2   -1    0    0    0  501 -0.00000000000E+00 -0.00000000000E+00 -0.53621760515E+01  0.53621766578E+01  0.25500000000E-02 0.  1.
        -24    2    1    2    0    0  0.00000000000E+00  0.00000000000E+00  0.26249347528E+03  0.27321782804E+03  0.75796813869E+02 0.  0.
         66    2    3    3    0    0  0.20020056685E+02 -0.22841241033E+02  0.21288167137E+03  0.21504681108E+03  0.19999981904E+01 0.  0.
         13    1    3    3    0    0 -0.20020056685E+02  0.22841241033E+02  0.49611803918E+02  0.58171016956E+02  0.10566000000E+00 0. -1.
         13    1    4    4    0    0  0.17773221457E+01 -0.14585681508E+01  0.16659839361E+02  0.16818076781E+02  0.10566000000E+00 0. -1.
        -13    1    4    4    0    0  0.12381858987E+02 -0.15341173173E+02  0.13601024935E+03  0.13743165981E+03  0.10566000000E+00 0.  1.
        -14    1    4    4    0    0  0.58608755523E+01 -0.60414997095E+01  0.60211582651E+02  0.60797074488E+02  0.00000000000E+00 0.  1.
<mgrwt>
<rscale>  0 0.75796814E+02</rscale>
<asrwt>0</asrwt>
<pdfrwt beam="1">  1        1 0.41208561E-01 0.75796814E+02</pdfrwt>
<pdfrwt beam="2">  1       -2 0.82495023E-03 0.75796814E+02</pdfrwt>
<totfact> 0.20347050E+05</totfact>
</mgrwt>
</event>
<event>
 8    1  0.7756875E-018  0.7814852E+02  0.7818608E-02  0.1334389E+00
         -2   -1    0    0    0  501 -0.00000000000E+00  0.00000000000E+00  0.11241574091E+02  0.11241574380E+02  0.25500000000E-02 0.  1.
          1   -1    0    0  501    0  0.00000000000E+00 -0.00000000000E+00 -0.13581707679E+03  0.13581707688E+03  0.50400000000E-02 0. -1.
        -24    2    1    2    0    0  0.35527136788E-14  0.00000000000E+00 -0.12457550270E+03  0.14705865126E+03  0.78148519107E+02 0.  0.
         66    2    3    3    0    0 -0.18681414045E+02 -0.21455199852E+02 -0.11993888928E+02  0.30938232065E+02  0.20000000766E+01 0.  0.
         13    1    3    3    0    0  0.18681414045E+02  0.21455199852E+02 -0.11258161377E+03  0.11612041920E+03  0.10566000000E+00 0. -1.
         13    1    4    4    0    0 -0.38321382409E+01 -0.46732175969E+01 -0.31836658107E+01  0.68316277880E+01  0.10566000000E+00 0. -1.
        -13    1    4    4    0    0 -0.14415366555E+02 -0.15980842734E+02 -0.83421661371E+01  0.23082309835E+02  0.10566000000E+00 0.  1.
        -14    1    4    4    0    0 -0.43390924880E+00 -0.80113952086E+00 -0.46805697993E+00  0.10242944423E+01  0.00000000000E+00 0.  1.
<mgrwt>
<rscale>  0 0.78148519E+02</rscale>
<asrwt>0</asrwt>
<pdfrwt beam="1">  1        1 0.20894934E-01 0.78148519E+02</pdfrwt>
<pdfrwt beam="2">  1       -2 0.17294731E-02 0.78148519E+02</pdfrwt>
<totfact> 0.16506810E+05</totfact>
</mgrwt>
</event>
<event>
 8    1  0.7756875E-018  0.7636442E+02  0.7818608E-02  0.1339697E+00
         -2   -1    0    0    0  501 -0.00000000000E+00  0.00000000000E+00  0.41309785732E+01  0.41309793603E+01  0.25500000000E-02 0.  1.
          1   -1    0    0  501    0  0.00000000000E+00 -0.00000000000E+00 -0.35291422910E+03  0.35291422914E+03  0.50400000000E-02 0. -1.
        -24    2    1    2    0    0  0.00000000000E+00  0.00000000000E+00 -0.34878325053E+03  0.35704520850E+03  0.76364422752E+02 0.  0.
         66    2    3    3    0    0  0.30987940048E+02  0.20864889741E+02 -0.13820980248E+03  0.14318360783E+03  0.19999994869E+01 0.  0.
         13    1    3    3    0    0 -0.30987940048E+02 -0.20864889741E+02 -0.21057344805E+03  0.21386160067E+03  0.10566000000E+00 0. -1.
         13    1    4    4    0    0  0.24427809421E+02  0.17222450408E+02 -0.10892996220E+03  0.11295609103E+03  0.10566000000E+00 0. -1.
        -13    1    4    4    0    0  0.46259762883E+01  0.25090814255E+01 -0.20987554512E+02  0.21637554267E+02  0.10566000000E+00 0.  1.
         14    1    4    4    0    0  0.19341543384E+01  0.11333579077E+01 -0.82922857689E+01  0.85899625392E+01  0.00000000000E+00 0. -1.
<mgrwt>
<rscale>  0 0.76364423E+02</rscale>
<asrwt>0</asrwt>
<pdfrwt beam="1">  1        1 0.54294473E-01 0.76364423E+02</pdfrwt>
<pdfrwt beam="2">  1       -2 0.63553551E-03 0.76364423E+02</pdfrwt>
<totfact> 0.21003901E+05</totfact>
</mgrwt>
</event>
<event>
 8    1  0.7756875E-018  0.8105844E+02  0.7818608E-02  0.1326074E+00
          1   -1    0    0  501    0  0.00000000000E+00  0.00000000000E+00  0.36973089028E+02  0.36973089371E+02  0.50400000000E-02 0. -1.
         -2   -1    0    0    0  501 -0.00000000000E+00 -0.00000000000E+00 -0.44427385637E+02  0.44427385710E+02  0.25500000000E-02 0.  1.
        -24    2    1    2    0    0  0.00000000000E+00  0.00000000000E+00 -0.74542966088E+01  0.81400475081E+02  0.81058440680E+02 0.  0.
         66    2    3    3    0    0 -0.36486316846E+02  0.20689902963E+01 -0.21269671554E+02  0.42331205997E+02  0.20000088348E+01 0.  0.
         13    1    3    3    0    0  0.36486316846E+02 -0.20689902963E+01  0.13815374945E+02  0.39069269084E+02  0.10566000000E+00 0. -1.
         13    1    4    4    0    0 -0.78402692666E+01  0.11960736679E+01 -0.48633423218E+01  0.93039602840E+01  0.10566000000E+00 0.  1.
        -13    1    4    4    0    0 -0.15221622771E+02  0.21334510238E+00 -0.87000158364E+01  0.17534102643E+02  0.10566000000E+00 0. -1.
         14    1    4    4    0    0 -0.13424424809E+02  0.65957152598E+00 -0.77063133956E+01  0.15493143070E+02  0.00000000000E+00 0. -1.
<mgrwt>
<rscale>  0 0.81058441E+02</rscale>
<asrwt>0</asrwt>
<pdfrwt beam="1">  1        1 0.56881676E-02 0.81058441E+02</pdfrwt>
<pdfrwt beam="2">  1       -2 0.68349824E-02 0.81058441E+02</pdfrwt>
<totfact> 0.12076117E+05</totfact>
</mgrwt>
</event>
<event>
 8    1  0.7756875E-018  0.8007952E+02  0.7818608E-02  0.1328826E+00
         -2   -1    0    0    0  501 -0.00000000000E+00  0.00000000000E+00  0.40612651992E+01  0.40612659998E+01  0.25500000000E-02 0.  1.
          1   -1    0    0  501    0  0.00000000000E+00 -0.00000000000E+00 -0.39474949715E+03  0.39474949718E+03  0.50400000000E-02 0. -1.
        -24    2    1    2    0    0  0.00000000000E+00  0.00000000000E+00 -0.39068823195E+03  0.39881076318E+03  0.80079524505E+02 0.  0.
         66    2    3    3    0    0  0.31468922005E+01  0.38055099210E+02 -0.25503747027E+03  0.25788796937E+03  0.19999997667E+01 0.  0.
         13    1    3    3    0    0 -0.31468922005E+01 -0.38055099210E+02 -0.13565076168E+03  0.14092279381E+03  0.10566000000E+00 0. -1.
         13    1    4    4    0    0 -0.80292858556E-01  0.57426113088E+00 -0.35765482485E+01  0.36247874695E+01  0.10566000000E+00 0.  1.
        -13    1    4    4    0    0  0.18136316789E+01  0.27339382323E+02 -0.18507950927E+03  0.18709667822E+03  0.10566000000E+00 0.  1.
        -14    1    4    4    0    0  0.14135533802E+01  0.10141455757E+02 -0.66381412753E+02  0.67166503683E+02  0.00000000000E+00 0.  1.
<mgrwt>
<rscale>  0 0.80079525E+02</rscale>
<asrwt>0</asrwt>
<pdfrwt beam="1">  1        1 0.60730662E-01 0.80079525E+02</pdfrwt>
<pdfrwt beam="2">  1       -2 0.62481040E-03 0.80079525E+02</pdfrwt>
<totfact> 0.18902861E+05</totfact>
</mgrwt>
</event>
<event>
 8    1  0.7756875E-018  0.7928617E+02  0.7818608E-02  0.1331089E+00
         -2   -1    0    0    0  501 -0.00000000000E+00  0.00000000000E+00  0.49201902221E+02  0.49201902287E+02  0.25500000000E-02 0.  1.
          1   -1    0    0  501    0  0.00000000000E+00 -0.00000000000E+00 -0.31941326838E+02  0.31941327236E+02  0.50400000000E-02 0. -1.
        -24    2    1    2    0    0  0.00000000000E+00  0.00000000000E+00  0.17260575383E+02  0.81143229523E+02  0.79286166731E+02 0.  0.
         66    2    3    3    0    0  0.36875284431E+02 -0.48301488623E+01  0.22610338190E+02  0.43569993490E+02  0.19999999304E+01 0.  0.
         13    1    3    3    0    0 -0.36875284431E+02  0.48301488623E+01 -0.53497628070E+01  0.37573236034E+02  0.10566000000E+00 0. -1.
         13    1    4    4    0    0  0.16561758963E+02 -0.20243335537E+01  0.94836909245E+01  0.19192220921E+02  0.10566000000E+00 0. -1.
        -13    1    4    4    0    0  0.19552663715E+01 -0.61986533443E+00  0.13114200793E+01  0.24368599214E+01  0.10566000000E+00 0.  1.
        -14    1    4    4    0    0  0.18358259097E+02 -0.21859499742E+01  0.11815227186E+02  0.21940912648E+02  0.00000000000E+00 0.  1.
<mgrwt>
<rscale>  0 0.79286167E+02</rscale>
<asrwt>0</asrwt>
<pdfrwt beam="1">  1        1 0.49140504E-02 0.79286167E+02</pdfrwt>
<pdfrwt beam="2">  1       -2 0.75695234E-02 0.79286167E+02</pdfrwt>
<totfact> 0.12545590E+05</totfact>
</mgrwt>
</event>
<event>
 8    1  0.7756875E-018  0.8113416E+02  0.7818608E-02  0.1325863E+00
          1   -1    0    0  501    0  0.00000000000E+00  0.00000000000E+00  0.21277996848E+02  0.21277997445E+02  0.50400000000E-02 0. -1.
         -2   -1    0    0    0  501 -0.00000000000E+00 -0.00000000000E+00 -0.77342249148E+02  0.77342249190E+02  0.25500000000E-02 0.  1.
        -24    2    1    2    0    0  0.17763568394E-14  0.00000000000E+00 -0.56064252300E+02  0.98620246635E+02  0.81134164570E+02 0.  0.
         66    2    3    3    0    0 -0.91729054464E+01  0.36233116999E+02 -0.47140999105E+02  0.60193477666E+02  0.19999987584E+01 0.  0.
         13    1    3    3    0    0  0.91729054464E+01 -0.36233116999E+02 -0.89232531944E+01  0.38426768969E+02  0.10566000000E+00 0. -1.
         13    1    4    4    0    0  0.82599043311E-03  0.29698860951E+00 -0.63052812526E+00  0.70493451383E+00  0.10566000000E+00 0.  1.
        -13    1    4    4    0    0 -0.14417977730E+01  0.55493754388E+01 -0.72802147081E+01  0.92675260351E+01  0.10566000000E+00 0.  1.
         14    1    4    4    0    0 -0.77319336639E+01  0.30386752951E+02 -0.39230256272E+02  0.50221017117E+02  0.00000000000E+00 0. -1.
<mgrwt>
<rscale>  0 0.81134165E+02</rscale>
<asrwt>0</asrwt>
<pdfrwt beam="1">  1        1 0.32735381E-02 0.81134165E+02</pdfrwt>
<pdfrwt beam="2">  1       -2 0.11898807E-01 0.81134165E+02</pdfrwt>
<totfact> 0.10860642E+05</totfact>
</mgrwt>
</event>
<event>
 8    1  0.7756875E-018  0.8233608E+02  0.7818608E-02  0.1322550E+00
         -2   -1    0    0    0  501 -0.00000000000E+00  0.00000000000E+00  0.97736795159E+01  0.97736798486E+01  0.25500000000E-02 0.  1.
          1   -1    0    0  501    0  0.00000000000E+00 -0.00000000000E+00 -0.17340528058E+03  0.17340528065E+03  0.50400000000E-02 0. -1.
        -24    2    1    2    0    0  0.00000000000E+00  0.00000000000E+00 -0.16363160106E+03  0.18317896050E+03  0.82336083849E+02 0.  0.
         66    2    3    3    0    0  0.31380738974E+01  0.40442558443E+02 -0.66554241943E+02  0.77967398118E+02  0.20000018841E+01 0.  0.
         13    1    3    3    0    0 -0.31380738974E+01 -0.40442558443E+02 -0.97077359120E+02  0.10521156238E+03  0.10566000000E+00 0. -1.
         13    1    4    4    0    0  0.51243652187E+00  0.68128872238E+01 -0.12172580829E+02  0.13959258992E+02  0.10566000000E+00 0. -1.
        -13    1    4    4    0    0  0.27240957680E+01  0.30040246614E+02 -0.48917743539E+02  0.57469939198E+02  0.10566000000E+00 0.  1.
        -14    1    4    4    0    0 -0.98458392446E-01  0.35894246050E+01 -0.54639175743E+01  0.65381999288E+01  0.00000000000E+00 0.  1.
<mgrwt>
<rscale>  0 0.82336084E+02</rscale>
<asrwt>0</asrwt>
<pdfrwt beam="1">  1        1 0.26677733E-01 0.82336084E+02</pdfrwt>
<pdfrwt beam="2">  1       -2 0.15036432E-02 0.82336084E+02</pdfrwt>
<totfact> 0.15023627E+05</totfact>
</mgrwt>
</event>
<event>
 8    1  0.7756875E-018  0.8044518E+02  0.7818608E-02  0.1327793E+00
         -2   -1    0    0    0  501 -0.00000000000E+00  0.00000000000E+00  0.82090950525E+02  0.82090950565E+02  0.25500000000E-02 0.  1.
          1   -1    0    0  501    0  0.00000000000E+00 -0.00000000000E+00 -0.19708099326E+02  0.19708099970E+02  0.50400000000E-02 0. -1.
        -24    2    1    2    0    0  0.00000000000E+00  0.00000000000E+00  0.62382851200E+02  0.10179905054E+03  0.80445177395E+02 0.  0.
         66    2    3    3    0    0 -0.30916575276E+02  0.10150937738E+02  0.61075599266E+02  0.69232254018E+02  0.20000017363E+01 0.  0.
         13    1    3    3    0    0  0.30916575276E+02 -0.10150937738E+02  0.13072519333E+01  0.32566796517E+02  0.10566000000E+00 0. -1.
         13    1    4    4    0    0 -0.79978268769E+01  0.21238261168E+01  0.14257561153E+02  0.16485299093E+02  0.10566000000E+00 0. -1.
        -13    1    4    4    0    0 -0.10596937184E+02  0.33644390230E+01  0.21850763901E+02  0.24516965039E+02  0.10566000000E+00 0.  1.
        -14    1    4    4    0    0 -0.12321811215E+02  0.46626725982E+01  0.24967274213E+02  0.28229989886E+02  0.00000000000E+00 0.  1.
<mgrwt>
<rscale>  0 0.80445177E+02</rscale>
<asrwt>0</asrwt>
<pdfrwt beam="1">  1        1 0.30320153E-02 0.80445177E+02</pdfrwt>
<pdfrwt beam="2">  1       -2 0.12629377E-01 0.80445177E+02</pdfrwt>
<totfact> 0.10957276E+05</totfact>
</mgrwt>
</event>
<event>
 8    1  0.7756875E-018  0.7935253E+02  0.7818608E-02  0.1330899E+00
         -2   -1    0    0    0  501 -0.00000000000E+00  0.00000000000E+00  0.17034205977E+02  0.17034206168E+02  0.25500000000E-02 0.  1.
          1   -1    0    0  501    0  0.00000000000E+00 -0.00000000000E+00 -0.92414399385E+02  0.92414399523E+02  0.50400000000E-02 0. -1.
        -24    2    1    2    0    0  0.00000000000E+00  0.00000000000E+00 -0.75380193408E+02  0.10944860569E+03  0.79352528185E+02 0.  0.
         66    2    3    3    0    0 -0.88350049921E+01 -0.37433701514E+02 -0.24422665054E+02  0.45604888833E+02  0.19999987135E+01 0.  0.
         13    1    3    3    0    0  0.88350049921E+01  0.37433701514E+02 -0.50957528354E+02  0.63843716858E+02  0.10566000000E+00 0. -1.
         13    1    4    4    0    0 -0.23015750335E+01 -0.83412304510E+01 -0.54656505593E+01  0.10235129366E+02  0.10566000000E+00 0. -1.
        -13    1    4    4    0    0 -0.35993757879E+01 -0.19172899235E+02 -0.11996557461E+02  0.22901618416E+02  0.10566000000E+00 0.  1.
        -14    1    4    4    0    0 -0.29340541707E+01 -0.99195718283E+01 -0.69604570344E+01  0.12468141051E+02  0.00000000000E+00 0.  1.
<mgrwt>
<rscale>  0 0.79352528E+02</rscale>
<asrwt>0</asrwt>
<pdfrwt beam="1">  1        1 0.14217600E-01 0.79352528E+02</pdfrwt>
<pdfrwt beam="2">  1       -2 0.26206471E-02 0.79352528E+02</pdfrwt>
<totfact> 0.14829757E+05</totfact>
</mgrwt>
</event>
<event>
 8    1  0.7756875E-018  0.7901312E+02  0.7818608E-02  0.1331876E+00
         -2   -1    0    0    0  501 -0.00000000000E+00  0.00000000000E+00  0.46662474496E+02  0.46662474566E+02  0.25500000000E-02 0.  1.
          1   -1    0    0  501    0  0.00000000000E+00 -0.00000000000E+00 -0.33448041209E+02  0.33448041589E+02  0.50400000000E-02 0. -1.
        -24    2    1    2    0    0 -0.17763568394E-14  0.71054273576E-14  0.13214433287E+02  0.80110516154E+02  0.79013122653E+02 0.  0.
         66    2    3    3    0    0  0.11285259576E+02 -0.20822846098E+02  0.38638375842E+02  0.45363774978E+02  0.19999973012E+01 0.  0.
         13    1    3    3    0    0 -0.11285259576E+02  0.20822846098E+02 -0.25423942556E+02  0.34746741177E+02  0.10566000000E+00 0. -1.
         13    1    4    4    0    0  0.59858226266E+00 -0.76696259254E+00  0.11695273589E+01  0.15249559411E+01  0.10566000000E+00 0. -1.
        -13    1    4    4    0    0  0.68922254625E+01 -0.12095852338E+02  0.23777468573E+02  0.27553431572E+02  0.10566000000E+00 0.  1.
         14    1    4    4    0    0  0.37944518505E+01 -0.79600311675E+01  0.13691379911E+02  0.16285387465E+02  0.00000000000E+00 0. -1.
<mgrwt>
<rscale>  0 0.79013123E+02</rscale>
<asrwt>0</asrwt>
<pdfrwt beam="1">  1        1 0.51458525E-02 0.79013123E+02</pdfrwt>
<pdfrwt beam="2">  1       -2 0.71788423E-02 0.79013123E+02</pdfrwt>
<totfact> 0.12768964E+05</totfact>
</mgrwt>
</event>
<event>
 8    1  0.7756875E-018  0.7752587E+02  0.7818608E-02  0.1336223E+00
         -2   -1    0    0    0  501 -0.00000000000E+00  0.00000000000E+00  0.38484164640E+01  0.38484173089E+01  0.25500000000E-02 0.  1.
          1   -1    0    0  501    0  0.00000000000E+00 -0.00000000000E+00 -0.39043715485E+03  0.39043715488E+03  0.50400000000E-02 0. -1.
        -24    2    1    2    0    0  0.00000000000E+00  0.00000000000E+00 -0.38658873838E+03  0.39428557219E+03  0.77525865306E+02 0.  0.
         66    2    3    3    0    0 -0.33582861213E+02  0.10441275715E+01 -0.29147046566E+03  0.29340744899E+03  0.20000006975E+01 0.  0.
         13    1    3    3    0    0  0.33582861213E+02 -0.10441275715E+01 -0.95118272725E+02  0.10087812320E+03  0.10566000000E+00 0. -1.
         13    1    4    4    0    0 -0.14617665461E+02  0.90797532915E+00 -0.12178692208E+03  0.12266444520E+03  0.10566000000E+00 0. -1.
        -13    1    4    4    0    0 -0.13224312000E+02 -0.30077328494E+00 -0.11629523256E+03  0.11704514160E+03  0.10566000000E+00 0.  1.
         14    1    4    4    0    0 -0.57408837524E+01  0.43692552732E+00 -0.53388311022E+02  0.53697862191E+02  0.00000000000E+00 0. -1.
<mgrwt>
<rscale>  0 0.77525865E+02</rscale>
<asrwt>0</asrwt>
<pdfrwt beam="1">  1        1 0.60067223E-01 0.77525865E+02</pdfrwt>
<pdfrwt beam="2">  1       -2 0.59206445E-03 0.77525865E+02</pdfrwt>
<totfact> 0.20542415E+05</totfact>
</mgrwt>
</event>
<event>
 8    1  0.7756875E-018  0.7932536E+02  0.7818608E-02  0.1330977E+00
          1   -1    0    0  501    0  0.00000000000E+00  0.00000000000E+00  0.17038123590E+03  0.17038123597E+03  0.50400000000E-02 0. -1.
         -2   -1    0    0    0  501 -0.00000000000E+00 -0.00000000000E+00 -0.92329894103E+01  0.92329897625E+01  0.25500000000E-02 0.  1.
        -24    2    1    2    0    0  0.00000000000E+00  0.35527136788E-14  0.16114824649E+03  0.17961422574E+03  0.79325360008E+02 0.  0.
         66    2    3    3    0    0  0.33257252936E+02  0.20771188554E+02  0.93757215182E+02  0.10164596674E+03  0.20000021160E+01 0.  0.
         13    1    3    3    0    0 -0.33257252936E+02 -0.20771188554E+02  0.67391031308E+02  0.77968259000E+02  0.10566000000E+00 0. -1.
         13    1    4    4    0    0  0.13093622898E+02  0.77616099684E+01  0.36227600567E+02  0.39295492830E+02  0.10566000000E+00 0.  1.
        -13    1    4    4    0    0  0.67239541567E+01  0.48165757503E+01  0.18403734238E+02  0.20177203954E+02  0.10566000000E+00 0. -1.
        -14    1    4    4    0    0  0.13439675881E+02  0.81930028348E+01  0.39125880377E+02  0.42173269953E+02  0.00000000000E+00 0.  1.
<mgrwt>
<rscale>  0 0.79325360E+02</rscale>
<asrwt>0</asrwt>
<pdfrwt beam="1">  1        1 0.26212499E-01 0.79325360E+02</pdfrwt>
<pdfrwt beam="2">  1       -2 0.14204599E-02 0.79325360E+02</pdfrwt>
<totfact> 0.16537450E+05</totfact>
</mgrwt>
</event>
<event>
 8    1  0.7756875E-018  0.7956559E+02  0.7818608E-02  0.1330289E+00
          1   -1    0    0  501    0  0.00000000000E+00  0.00000000000E+00  0.20696118894E+02  0.20696119508E+02  0.50400000000E-02 0. -1.
         -2   -1    0    0    0  501 -0.00000000000E+00 -0.00000000000E+00 -0.76471860399E+02  0.76471860441E+02  0.25500000000E-02 0.  1.
        -24    2    1    2    0    0 -0.35527136788E-14  0.00000000000E+00 -0.55775741505E+02  0.97167979949E+02  0.79565589214E+02 0.  0.
         66    2    3    3    0    0 -0.30229327233E+02  0.68806868047E+01 -0.58301828483E+02  0.66062540628E+02  0.19999984924E+01 0.  0.
         13    1    3    3    0    0  0.30229327233E+02 -0.68806868047E+01  0.25260869781E+01  0.31105439321E+02  0.10566000000E+00 0. -1.
         13    1    4    4    0    0 -0.11688800324E+02  0.20974642464E+01 -0.23119158610E+02  0.25991038227E+02  0.10566000000E+00 0.  1.
        -13    1    4    4    0    0 -0.16315428405E+01  0.12549694666E+00 -0.28373513565E+01  0.32771036420E+01  0.10566000000E+00 0. -1.
        -14    1    4    4    0    0 -0.16908984069E+02  0.46577256116E+01 -0.32345318516E+02  0.36794398759E+02  0.00000000000E+00 0.  1.
<mgrwt>
<rscale>  0 0.79565589E+02</rscale>
<asrwt>0</asrwt>
<pdfrwt beam="1">  1        1 0.31840184E-02 0.79565589E+02</pdfrwt>
<pdfrwt beam="2">  1       -2 0.11764901E-01 0.79565589E+02</pdfrwt>
<totfact> 0.11441536E+05</totfact>
</mgrwt>
</event>
<event>
 8    1  0.7756875E-018  0.7900759E+02  0.7818608E-02  0.1331892E+00
         -2   -1    0    0    0  501 -0.00000000000E+00  0.00000000000E+00  0.12239823862E+02  0.12239824128E+02  0.25500000000E-02 0.  1.
          1   -1    0    0  501    0  0.00000000000E+00 -0.00000000000E+00 -0.12749772216E+03  0.12749772226E+03  0.50400000000E-02 0. -1.
        -24    2    1    2    0    0  0.00000000000E+00  0.88817841970E-15 -0.11525789830E+03  0.13973754639E+03  0.79007586664E+02 0.  0.
         66    2    3    3    0    0  0.34141635499E+02  0.47619218750E+01 -0.91696627431E+02  0.97982644599E+02  0.19999964921E+01 0.  0.
         13    1    3    3    0    0 -0.34141635499E+02 -0.47619218750E+01 -0.23561270870E+02  0.41754901791E+02  0.10566000000E+00 0. -1.
         13    1    4    4    0    0  0.52419784106E+01  0.16137720963E+00 -0.14210749086E+02  0.15147967978E+02  0.10566000000E+00 0.  1.
        -13    1    4    4    0    0  0.16498526635E+02  0.26661989160E+01 -0.42749866792E+02  0.45900678345E+02  0.10566000000E+00 0. -1.
         14    1    4    4    0    0  0.12401130454E+02  0.19343457495E+01 -0.34736011553E+02  0.36933998276E+02  0.00000000000E+00 0. -1.
<mgrwt>
<rscale>  0 0.79007587E+02</rscale>
<asrwt>0</asrwt>
<pdfrwt beam="1">  1        1 0.19615033E-01 0.79007587E+02</pdfrwt>
<pdfrwt beam="2">  1       -2 0.18830499E-02 0.79007587E+02</pdfrwt>
<totfact> 0.15851519E+05</totfact>
</mgrwt>
</event>
<event>
 8    1  0.7756875E-018  0.7860165E+02  0.7818608E-02  0.1333067E+00
          1   -1    0    0  501    0  0.00000000000E+00  0.00000000000E+00  0.39977227644E+03  0.39977227648E+03  0.50400000000E-02 0. -1.
         -2   -1    0    0    0  501 -0.00000000000E+00 -0.00000000000E+00 -0.38635863751E+01  0.38635872166E+01  0.25500000000E-02 0.  1.
        -24    2    1    2    0    0 -0.35527136788E-14 -0.35527136788E-14  0.39590869007E+03  0.40363586369E+03  0.78601651297E+02 0.  0.
         66    2    3    3    0    0 -0.25658152913E+02 -0.29460749553E+02  0.21879772678E+03  0.22226723064E+03  0.19999989966E+01 0.  0.
         13    1    3    3    0    0  0.25658152913E+02  0.29460749553E+02  0.17711096329E+03  0.18136863306E+03  0.10566000000E+00 0. -1.
         13    1    4    4    0    0 -0.18875647115E+01 -0.17067560393E+01  0.14408780951E+02  0.14632158051E+02  0.10566000000E+00 0. -1.
        -13    1    4    4    0    0 -0.56264313459E+01 -0.57009012481E+01  0.45932382194E+02  0.46625657130E+02  0.10566000000E+00 0.  1.
        -14    1    4    4    0    0 -0.18144156855E+02 -0.22053092265E+02  0.15845656363E+03  0.16100941545E+03  0.00000000000E+00 0.  1.
<mgrwt>
<rscale>  0 0.78601651E+02</rscale>
<asrwt>0</asrwt>
<pdfrwt beam="1">  1        1 0.61503403E-01 0.78601651E+02</pdfrwt>
<pdfrwt beam="2">  1       -2 0.59439821E-03 0.78601651E+02</pdfrwt>
<totfact> 0.19891124E+05</totfact>
</mgrwt>
</event>
<event>
 8    1  0.7756875E-018  0.8166039E+02  0.7818608E-02  0.1324404E+00
         -2   -1    0    0    0  501 -0.00000000000E+00  0.00000000000E+00  0.21920255393E+02  0.21920255541E+02  0.25500000000E-02 0.  1.
          1   -1    0    0  501    0  0.00000000000E+00 -0.00000000000E+00 -0.76053174407E+02  0.76053174574E+02  0.50400000000E-02 0. -1.
        -24    2    1    2    0    0  0.44408920985E-15  0.00000000000E+00 -0.54132919014E+02  0.97973430115E+02  0.81660394853E+02 0.  0.
         66    2    3    3    0    0 -0.36770850897E+01 -0.22142166260E+02  0.13802887910E+02  0.26425673282E+02  0.20000030862E+01 0.  0.
         13    1    3    3    0    0  0.36770850897E+01  0.22142166260E+02 -0.67935806924E+02  0.71547756833E+02  0.10566000000E+00 0. -1.
         13    1    4    4    0    0 -0.53211848425E+00 -0.41016206930E+01  0.21663707827E+01  0.46702000807E+01  0.10566000000E+00 0. -1.
        -13    1    4    4    0    0 -0.12981510928E+01 -0.86353903273E+01  0.46435293679E+01  0.98908387607E+01  0.10566000000E+00 0.  1.
         14    1    4    4    0    0 -0.18468155127E+01 -0.94051552394E+01  0.69929877590E+01  0.11864634441E+02  0.00000000000E+00 0. -1.
<mgrwt>
<rscale>  0 0.81660395E+02</rscale>
<asrwt>0</asrwt>
<pdfrwt beam="1">  1        1 0.11700488E-01 0.81660395E+02</pdfrwt>
<pdfrwt beam="2">  1       -2 0.33723470E-02 0.81660395E+02</pdfrwt>
<totfact> 0.13287428E+05</totfact>
</mgrwt>
</event>
<event>
 8    1  0.7756875E-018  0.7540942E+02  0.7818608E-02  0.1342608E+00
          1   -1    0    0  501    0  0.00000000000E+00  0.00000000000E+00  0.36619351221E+01  0.36619385905E+01  0.50400000000E-02 0. -1.
         -2   -1    0    0    0  501 -0.00000000000E+00 -0.00000000000E+00 -0.38822222160E+03  0.38822222161E+03  0.25500000000E-02 0.  1.
        -24    2    1    2    0    0  0.00000000000E+00  0.00000000000E+00 -0.38456028648E+03  0.39188416020E+03  0.75409423011E+02 0.  0.
         66    2    3    3    0    0 -0.35053869822E+02  0.72680544630E+01 -0.25347233016E+03  0.25599574325E+03  0.20000001039E+01 0.  0.
         13    1    3    3    0    0  0.35053869822E+02 -0.72680544630E+01 -0.13108795632E+03  0.13588841695E+03  0.10566000000E+00 0. -1.
         13    1    4    4    0    0 -0.19760225261E+02  0.42516171813E+01 -0.14345602908E+03  0.14487300023E+03  0.10566000000E+00 0. -1.
        -13    1    4    4    0    0 -0.10901683637E+02  0.22637918558E+01 -0.82489024225E+02  0.83237141597E+02  0.10566000000E+00 0.  1.
         14    1    4    4    0    0 -0.43919609237E+01  0.75264542595E+00 -0.27527276852E+02  0.27885601424E+02  0.00000000000E+00 0. -1.
<mgrwt>
<rscale>  0 0.75409423E+02</rscale>
<asrwt>0</asrwt>
<pdfrwt beam="1">  1        1 0.56337521E-03 0.75409423E+02</pdfrwt>
<pdfrwt beam="2">  1       -2 0.59726463E-01 0.75409423E+02</pdfrwt>
<totfact> 0.70181393E+04</totfact>
</mgrwt>
</event>
<event>
 8    1  0.7756875E-018  0.8043551E+02  0.7818608E-02  0.1327820E+00
          1   -1    0    0  501    0  0.00000000000E+00  0.00000000000E+00  0.21313683518E+03  0.21313683524E+03  0.50400000000E-02 0. -1.
         -2   -1    0    0    0  501 -0.00000000000E+00 -0.00000000000E+00 -0.75888708576E+01  0.75888712861E+01  0.25500000000E-02 0.  1.
        -24    2    1    2    0    0  0.00000000000E+00  0.00000000000E+00  0.20554796432E+03  0.22072570652E+03  0.80435513824E+02 0.  0.
         66    2    3    3    0    0 -0.18949046400E+02 -0.31244645973E+02  0.14876929839E+03  0.15320443336E+03  0.19999986332E+01 0.  0.
         13    1    3    3    0    0  0.18949046400E+02  0.31244645973E+02  0.56778665926E+02  0.67521273165E+02  0.10566000000E+00 0. -1.
         13    1    4    4    0    0 -0.26901944451E+01 -0.55185377925E+01  0.25614354281E+02  0.26340040144E+02  0.10566000000E+00 0. -1.
        -13    1    4    4    0    0 -0.75894526700E+01 -0.12918154302E+02  0.61710119939E+02  0.63502980791E+02  0.10566000000E+00 0.  1.
         14    1    4    4    0    0 -0.86693992852E+01 -0.12807953879E+02  0.61444824175E+02  0.63361412425E+02  0.00000000000E+00 0. -1.
<mgrwt>
<rscale>  0 0.80435514E+02</rscale>
<asrwt>0</asrwt>
<pdfrwt beam="1">  1        1 0.32790283E-01 0.80435514E+02</pdfrwt>
<pdfrwt beam="2">  1       -2 0.11675186E-02 0.80435514E+02</pdfrwt>
<totfact> 0.16640188E+05</totfact>
</mgrwt>
</event>
<event>
 8    1  0.7756875E-018  0.8133719E+02  0.7818608E-02  0.1325299E+00
          1   -1    0    0  501    0  0.00000000000E+00  0.00000000000E+00  0.49960586382E+02  0.49960586636E+02  0.50400000000E-02 0. -1.
         -2   -1    0    0    0  501 -0.00000000000E+00 -0.00000000000E+00 -0.33104784561E+02  0.33104784659E+02  0.25500000000E-02 0.  1.
        -24    2    1    2    0    0  0.71054273576E-14  0.88817841970E-15  0.16855801821E+02  0.83065371296E+02  0.81337186166E+02 0.  0.
         66    2    3    3    0    0 -0.32693615460E+02 -0.31763342894E+01 -0.16012353432E+02  0.36597227529E+02  0.20000022500E+01 0.  0.
         13    1    3    3    0    0  0.32693615460E+02  0.31763342894E+01  0.32868155253E+02  0.46468143767E+02  0.10566000000E+00 0. -1.
         13    1    4    4    0    0 -0.10047288531E+02 -0.35435079393E+00 -0.55396208160E+01  0.11479204420E+02  0.10566000000E+00 0.  1.
        -13    1    4    4    0    0 -0.10591778326E+02 -0.10438770208E+01 -0.47164675952E+01  0.11641807332E+02  0.10566000000E+00 0. -1.
        -14    1    4    4    0    0 -0.12054548603E+02 -0.17781064747E+01 -0.57562650208E+01  0.13476215776E+02  0.00000000000E+00 0.  1.
<mgrwt>
<rscale>  0 0.81337186E+02</rscale>
<asrwt>0</asrwt>
<pdfrwt beam="1">  1        1 0.76862441E-02 0.81337186E+02</pdfrwt>
<pdfrwt beam="2">  1       -2 0.50930438E-02 0.81337186E+02</pdfrwt>
<totfact> 0.12561803E+05</totfact>
</mgrwt>
</event>
<event>
 8    1  0.7756875E-018  0.7909977E+02  0.7818608E-02  0.1331626E+00
          1   -1    0    0  501    0  0.00000000000E+00  0.00000000000E+00  0.17884970418E+03  0.17884970425E+03  0.50400000000E-02 0. -1.
         -2   -1    0    0    0  501 -0.00000000000E+00 -0.00000000000E+00 -0.87458533436E+01  0.87458537153E+01  0.25500000000E-02 0.  1.
        -24    2    1    2    0    0  0.71054273576E-14 -0.17763568394E-14  0.17010385083E+03  0.18759555796E+03  0.79099768010E+02 0.  0.
         66    2    3    3    0    0  0.29312115779E+02 -0.11441560744E+02  0.28381039123E+02  0.42421607246E+02  0.19999839891E+01 0.  0.
         13    1    3    3    0    0 -0.29312115779E+02  0.11441560744E+02  0.14172281171E+03  0.14517395072E+03  0.10566000000E+00 0. -1.
         13    1    4    4    0    0  0.11700177104E+01 -0.56496370243E+00  0.17185673833E+01  0.21570264983E+01  0.10566000000E+00 0. -1.
        -13    1    4    4    0    0  0.10184242557E+02 -0.40205473049E+01  0.97504561217E+01  0.14661724172E+02  0.10566000000E+00 0.  1.
         14    1    4    4    0    0  0.17957855511E+02 -0.68560497367E+01  0.16912015618E+02  0.25602856575E+02  0.00000000000E+00 0. -1.
<mgrwt>
<rscale>  0 0.79099768E+02</rscale>
<asrwt>0</asrwt>
<pdfrwt beam="1">  1        1 0.27515338E-01 0.79099768E+02</pdfrwt>
<pdfrwt beam="2">  1       -2 0.13455160E-02 0.79099768E+02</pdfrwt>
<totfact> 0.16816931E+05</totfact>
</mgrwt>
</event>
<event>
 8    1  0.7756875E-018  0.7480230E+02  0.7818608E-02  0.1344484E+00
         -2   -1    0    0    0  501 -0.00000000000E+00  0.00000000000E+00  0.15497859152E+02  0.15497859362E+02  0.25500000000E-02 0.  1.
          1   -1    0    0  501    0  0.00000000000E+00 -0.00000000000E+00 -0.90260592942E+02  0.90260593082E+02  0.50400000000E-02 0. -1.
        -24    2    1    2    0    0  0.00000000000E+00 -0.35527136788E-14 -0.74762733789E+02  0.10575845244E+03  0.74802298760E+02 0.  0.
         66    2    3    3    0    0  0.10670635901E+02 -0.16091244154E+02  0.78359673386E+01  0.20933060014E+02  0.20000021177E+01 0.  0.
         13    1    3    3    0    0 -0.10670635901E+02  0.16091244154E+02 -0.82598701128E+02  0.84825392431E+02  0.10566000000E+00 0. -1.
         13    1    4    4    0    0  0.96002822002E+00 -0.13346681096E+01  0.25275750656E+00  0.16667463931E+01  0.10566000000E+00 0. -1.
        -13    1    4    4    0    0  0.33004551820E+01 -0.55852313398E+01  0.33568862267E+01  0.73053174265E+01  0.10566000000E+00 0.  1.
        -14    1    4    4    0    0  0.64101524992E+01 -0.91713447042E+01  0.42263236054E+01  0.11960996194E+02  0.00000000000E+00 0.  1.
<mgrwt>
<rscale>  0 0.74802299E+02</rscale>
<asrwt>0</asrwt>
<pdfrwt beam="1">  1        1 0.13886245E-01 0.74802299E+02</pdfrwt>
<pdfrwt beam="2">  1       -2 0.23842861E-02 0.74802299E+02</pdfrwt>
<totfact> 0.17322971E+05</totfact>
</mgrwt>
</event>
<event>
 8    1  0.7756875E-018  0.7319768E+02  0.7818608E-02  0.1349545E+00
          1   -1    0    0  501    0  0.00000000000E+00  0.00000000000E+00  0.43337209772E+03  0.43337209775E+03  0.50400000000E-02 0. -1.
         -2   -1    0    0    0  501 -0.00000000000E+00 -0.00000000000E+00 -0.30908192956E+01  0.30908203475E+01  0.25500000000E-02 0.  1.
        -24    2    1    2    0    0  0.00000000000E+00  0.35527136788E-14  0.43028127842E+03  0.43646291809E+03  0.73197679684E+02 0.  0.
         66    2    3    3    0    0  0.32919347899E+02 -0.12664612953E+02  0.27292572920E+03  0.27520270626E+03  0.19999959237E+01 0.  0.
         13    1    3    3    0    0 -0.32919347899E+02  0.12664612953E+02  0.15735554922E+03  0.16126021184E+03  0.10566000000E+00 0. -1.
         13    1    4    4    0    0  0.51855676942E+01 -0.24449215323E+01  0.42558379691E+02  0.42942922579E+02  0.10566000000E+00 0. -1.
        -13    1    4    4    0    0  0.23334247343E+02 -0.89965594645E+01  0.19726952654E+03  0.19884844089E+03  0.10566000000E+00 0.  1.
         14    1    4    4    0    0  0.43995328617E+01 -0.12231319559E+01  0.33097822971E+02  0.33411342784E+02  0.00000000000E+00 0. -1.
<mgrwt>
<rscale>  0 0.73197680E+02</rscale>
<asrwt>0</asrwt>
<pdfrwt beam="1">  1        1 0.66672639E-01 0.73197680E+02</pdfrwt>
<pdfrwt beam="2">  1       -2 0.47551069E-03 0.73197680E+02</pdfrwt>
<totfact> 0.24257417E+05</totfact>
</mgrwt>
</event>
<event>
 8    1  0.7756875E-018  0.7744960E+02  0.7818608E-02  0.1336449E+00
         -2   -1    0    0    0  501 -0.00000000000E+00  0.00000000000E+00  0.37915985750E+01  0.37915994325E+01  0.25500000000E-02 0.  1.
          1   -1    0    0  501    0  0.00000000000E+00 -0.00000000000E+00 -0.39550860926E+03  0.39550860930E+03  0.50400000000E-02 0. -1.
        -24    2    1    2    0    0  0.00000000000E+00  0.71054273576E-14 -0.39171701069E+03  0.39930020873E+03  0.77449597982E+02 0.  0.
         66    2    3    3    0    0 -0.43376024401E+01  0.38048822544E+02 -0.22472982449E+03  0.22797811672E+03  0.19999988498E+01 0.  0.
         13    1    3    3    0    0  0.43376024401E+01 -0.38048822544E+02 -0.16698718620E+03  0.17132209201E+03  0.10566000000E+00 0. -1.
         13    1    4    4    0    0 -0.14049098675E+01  0.16612686252E+02 -0.94868958087E+02  0.96322819149E+02  0.10566000000E+00 0. -1.
        -13    1    4    4    0    0 -0.26123906909E+01  0.20552656230E+02 -0.12475794851E+03  0.12646656927E+03  0.10566000000E+00 0.  1.
         14    1    4    4    0    0 -0.32030188168E+00  0.88348006217E+00 -0.51029178947E+01  0.51887282985E+01  0.00000000000E+00 0. -1.
<mgrwt>
<rscale>  0 0.77449598E+02</rscale>
<asrwt>0</asrwt>
<pdfrwt beam="1">  1        1 0.60847446E-01 0.77449598E+02</pdfrwt>
<pdfrwt beam="2">  1       -2 0.58332324E-03 0.77449598E+02</pdfrwt>
<totfact> 0.20639361E+05</totfact>
</mgrwt>
</event>
<event>
 8    1  0.7756875E-018  0.8021200E+02  0.7818608E-02  0.1328451E+00
          1   -1    0    0  501    0  0.00000000000E+00  0.00000000000E+00  0.14808493428E+02  0.14808494286E+02  0.50400000000E-02 0. -1.
         -2   -1    0    0    0  501 -0.00000000000E+00 -0.00000000000E+00 -0.10861950662E+03  0.10861950665E+03  0.25500000000E-02 0.  1.
        -24    2    1    2    0    0  0.00000000000E+00  0.71054273576E-14 -0.93811013192E+02  0.12342800094E+03  0.80212001714E+02 0.  0.
         66    2    3    3    0    0  0.92479932826E+01  0.38367000889E+02 -0.36170415282E+02  0.53570991063E+02  0.20000011998E+01 0.  0.
         13    1    3    3    0    0 -0.92479932826E+01 -0.38367000889E+02 -0.57640597910E+02  0.69857009873E+02  0.10566000000E+00 0. -1.
         13    1    4    4    0    0  0.25010325913E+01  0.89934785769E+01 -0.76686572647E+01  0.12081278459E+02  0.10566000000E+00 0.  1.
        -13    1    4    4    0    0  0.33497904682E+00  0.15220858925E+01 -0.12679760760E+01  0.20119353347E+01  0.10566000000E+00 0.  1.
        -14    1    4    4    0    0  0.64119816445E+01  0.27851436420E+02 -0.27233781941E+02  0.39477777269E+02  0.00000000000E+00 0.  1.
<mgrwt>
<rscale>  0 0.80212002E+02</rscale>
<asrwt>0</asrwt>
<pdfrwt beam="1">  1        1 0.22782299E-02 0.80212002E+02</pdfrwt>
<pdfrwt beam="2">  1       -2 0.16710693E-01 0.80212002E+02</pdfrwt>
<totfact> 0.10321057E+05</totfact>
</mgrwt>
</event>
<event>
 8    1  0.7756875E-018  0.7630765E+02  0.7818608E-02  0.1339869E+00
         -2   -1    0    0    0  501 -0.00000000000E+00  0.00000000000E+00  0.38160681227E+03  0.38160681228E+03  0.25500000000E-02 0.  1.
          1   -1    0    0  501    0  0.00000000000E+00 -0.00000000000E+00 -0.38146954862E+01  0.38146988157E+01  0.50400000000E-02 0. -1.
        -24    2    1    2    0    0 -0.44408920985E-15  0.35527136788E-14  0.37779211678E+03  0.38542151109E+03  0.76307651714E+02 0.  0.
         66    2    3    3    0    0 -0.31648961349E+01  0.15869362967E+02  0.36339868528E+03  0.36376428867E+03  0.20000006531E+01 0.  0.
         13    1    3    3    0    0  0.31648961349E+01 -0.15869362967E+02  0.14393431507E+02  0.21657222423E+02  0.10566000000E+00 0. -1.
         13    1    4    4    0    0 -0.25075431568E+00  0.11641588255E+01  0.33097607003E+02  0.33119192274E+02  0.10566000000E+00 0. -1.
        -13    1    4    4    0    0 -0.12558196014E+01  0.96746493906E+01  0.22314615411E+03  0.22335933646E+03  0.10566000000E+00 0.  1.
         14    1    4    4    0    0 -0.16583222179E+01  0.50305547508E+01  0.10715492416E+03  0.10728575994E+03  0.00000000000E+00 0. -1.
<mgrwt>
<rscale>  0 0.76307652E+02</rscale>
<asrwt>0</asrwt>
<pdfrwt beam="1">  1        1 0.58687653E-03 0.76307652E+02</pdfrwt>
<pdfrwt beam="2">  1       -2 0.58708736E-01 0.76307652E+02</pdfrwt>
<totfact> 0.68835074E+04</totfact>
</mgrwt>
</event>
<event>
 8    1  0.7756875E-018  0.7922397E+02  0.7818608E-02  0.1331268E+00
         -2   -1    0    0    0  501 -0.00000000000E+00  0.00000000000E+00  0.74420645787E+03  0.74420645787E+03  0.25500000000E-02 0.  1.
          1   -1    0    0  501    0  0.00000000000E+00 -0.00000000000E+00 -0.21084299098E+01  0.21084359336E+01  0.50400000000E-02 0. -1.
        -24    2    1    2    0    0  0.00000000000E+00  0.00000000000E+00  0.74209802796E+03  0.74631489380E+03  0.79223971228E+02 0.  0.
         66    2    3    3    0    0  0.50840979587E+01  0.20422176845E+02  0.68713823595E+03  0.68746335805E+03  0.19999997148E+01 0.  0.
         13    1    3    3    0    0 -0.50840979587E+01 -0.20422176845E+02  0.54959792009E+02  0.58851535756E+02  0.10566000000E+00 0. -1.
         13    1    4    4    0    0  0.41268067033E+01  0.15388859319E+02  0.53706411662E+03  0.53730040392E+03  0.10566000000E+00 0. -1.
        -13    1    4    4    0    0  0.94907712608E+00  0.35084794963E+01  0.10318073120E+03  0.10324478017E+03  0.10566000000E+00 0.  1.
         14    1    4    4    0    0  0.82141292769E-02  0.15248380292E+01  0.46893388124E+02  0.46918173965E+02  0.00000000000E+00 0. -1.
<mgrwt>
<rscale>  0 0.79223971E+02</rscale>
<asrwt>0</asrwt>
<pdfrwt beam="1">  1        1 0.32437414E-03 0.79223971E+02</pdfrwt>
<pdfrwt beam="2">  1       -2 0.11449336E+00 0.79223971E+02</pdfrwt>
<totfact> 0.36606518E+04</totfact>
</mgrwt>
</event>
<event>
 8    1  0.7756875E-018  0.7868933E+02  0.7818608E-02  0.1332813E+00
         -2   -1    0    0    0  501 -0.00000000000E+00  0.00000000000E+00  0.53511161046E+01  0.53511167122E+01  0.25500000000E-02 0.  1.
          1   -1    0    0  501    0  0.00000000000E+00 -0.00000000000E+00 -0.28928593266E+03  0.28928593270E+03  0.50400000000E-02 0. -1.
        -24    2    1    2    0    0  0.17763568394E-14  0.00000000000E+00 -0.28393481655E+03  0.29463704942E+03  0.78689331146E+02 0.  0.
         66    2    3    3    0    0 -0.13219701042E+02 -0.34560479192E+02 -0.92270757467E+02  0.99433796554E+02  0.19999989850E+01 0.  0.
         13    1    3    3    0    0  0.13219701042E+02  0.34560479192E+02 -0.19166405909E+03  0.19520325286E+03  0.10566000000E+00 0. -1.
         13    1    4    4    0    0 -0.45570472615E+00 -0.20787972984E+01 -0.54906821100E+01  0.58896365825E+01  0.10566000000E+00 0. -1.
        -13    1    4    4    0    0 -0.26689092473E+01 -0.82193800232E+01 -0.22046939418E+02  0.23680371329E+02  0.10566000000E+00 0.  1.
         14    1    4    4    0    0 -0.10095087069E+02 -0.24262301871E+02 -0.64733135939E+02  0.69863788643E+02  0.00000000000E+00 0. -1.
<mgrwt>
<rscale>  0 0.78689331E+02</rscale>
<asrwt>0</asrwt>
<pdfrwt beam="1">  1        1 0.44505516E-01 0.78689331E+02</pdfrwt>
<pdfrwt beam="2">  1       -2 0.82324890E-03 0.78689331E+02</pdfrwt>
<totfact> 0.18713757E+05</totfact>
</mgrwt>
</event>
<event>
 8    1  0.7756875E-018  0.8044485E+02  0.7818608E-02  0.1327794E+00
          1   -1    0    0  501    0  0.00000000000E+00  0.00000000000E+00  0.96347610925E+02  0.96347611057E+02  0.50400000000E-02 0. -1.
         -2   -1    0    0    0  501 -0.00000000000E+00 -0.00000000000E+00 -0.16791733354E+02  0.16791733547E+02  0.25500000000E-02 0.  1.
        -24    2    1    2    0    0  0.35527136788E-14  0.00000000000E+00  0.79555877571E+02  0.11313934460E+03  0.80444848445E+02 0.  0.
         66    2    3    3    0    0  0.27871817952E+02 -0.42904674742E+01 -0.48585611616E+00  0.28275119852E+02  0.19999998510E+01 0.  0.
         13    1    3    3    0    0 -0.27871817952E+02  0.42904674742E+01  0.80041733687E+02  0.84864224752E+02  0.10566000000E+00 0. -1.
         13    1    4    4    0    0  0.10644058845E+02 -0.17149691148E+01  0.20206613026E+00  0.10783742510E+02  0.10566000000E+00 0.  1.
        -13    1    4    4    0    0  0.94918097126E+01 -0.21327931825E+01 -0.34267954691E+00  0.97350835480E+01  0.10566000000E+00 0. -1.
         14    1    4    4    0    0  0.77359493942E+01 -0.44270517696E+00 -0.34524269951E+00  0.77562937944E+01  0.00000000000E+00 0. -1.
<mgrwt>
<rscale>  0 0.80444848E+02</rscale>
<asrwt>0</asrwt>
<pdfrwt beam="1">  1        1 0.14822710E-01 0.80444848E+02</pdfrwt>
<pdfrwt beam="2">  1       -2 0.25833435E-02 0.80444848E+02</pdfrwt>
<totfact> 0.14390155E+05</totfact>
</mgrwt>
</event>
<event>
 8    1  0.7756875E-018  0.7867718E+02  0.7818608E-02  0.1332848E+00
          1   -1    0    0  501    0  0.00000000000E+00  0.00000000000E+00  0.29238065830E+01  0.29238109269E+01  0.50400000000E-02 0. -1.
         -2   -1    0    0    0  501 -0.00000000000E+00 -0.00000000000E+00 -0.52928380992E+03  0.52928380992E+03  0.25500000000E-02 0.  1.
        -24    2    1    2    0    0  0.17763568394E-14  0.00000000000E+00 -0.52636000333E+03  0.53220762085E+03  0.78677179544E+02 0.  0.
         66    2    3    3    0    0 -0.10852141511E+02  0.34960461295E+02 -0.36032375836E+03  0.36218395003E+03  0.19999981881E+01 0.  0.
         13    1    3    3    0    0  0.10852141511E+02 -0.34960461295E+02 -0.16603624497E+03  0.17002367082E+03  0.10566000000E+00 0. -1.
         13    1    4    4    0    0 -0.93324911573E+00  0.29238435687E+01 -0.28168373950E+02  0.28335283132E+02  0.10566000000E+00 0.  1.
        -13    1    4    4    0    0 -0.63689887881E+01  0.17712748553E+02 -0.18476618858E+03  0.18572253790E+03  0.10566000000E+00 0.  1.
         14    1    4    4    0    0 -0.35499036074E+01  0.14323869173E+02 -0.14738919583E+03  0.14812612900E+03  0.00000000000E+00 0. -1.
<mgrwt>
<rscale>  0 0.78677180E+02</rscale>
<asrwt>0</asrwt>
<pdfrwt beam="1">  1        1 0.44981715E-03 0.78677180E+02</pdfrwt>
<pdfrwt beam="2">  1       -2 0.81428202E-01 0.78677180E+02</pdfrwt>
<totfact> 0.50317239E+04</totfact>
</mgrwt>
</event>
<event>
 8    1  0.7756875E-018  0.8122846E+02  0.7818608E-02  0.1325601E+00
          1   -1    0    0  501    0  0.00000000000E+00  0.00000000000E+00  0.17216112174E+03  0.17216112181E+03  0.50400000000E-02 0. -1.
         -2   -1    0    0    0  501 -0.00000000000E+00 -0.00000000000E+00 -0.95812309109E+01  0.95812312502E+01  0.25500000000E-02 0.  1.
        -24    2    1    2    0    0  0.00000000000E+00  0.00000000000E+00  0.16257989083E+03  0.18174235306E+03  0.81228455575E+02 0.  0.
         66    2    3    3    0    0  0.33012976234E+02  0.46161142180E+01  0.13315584664E+03  0.13727943986E+03  0.20000005852E+01 0.  0.
         13    1    3    3    0    0 -0.33012976234E+02 -0.46161142180E+01  0.29424044181E+02  0.44462913201E+02  0.10566000000E+00 0. -1.
         13    1    4    4    0    0  0.15480555354E+02  0.23402837420E+01  0.60169674150E+02  0.62173349382E+02  0.10566000000E+00 0. -1.
        -13    1    4    4    0    0  0.13518027868E+02  0.12585654744E+01  0.56102418487E+02  0.57721864043E+02  0.10566000000E+00 0.  1.
        -14    1    4    4    0    0  0.40143930123E+01  0.10172650016E+01  0.16883754008E+02  0.17384226435E+02  0.00000000000E+00 0.  1.
<mgrwt>
<rscale>  0 0.81228456E+02</rscale>
<asrwt>0</asrwt>
<pdfrwt beam="1">  1        1 0.26486326E-01 0.81228456E+02</pdfrwt>
<pdfrwt beam="2">  1       -2 0.14740356E-02 0.81228456E+02</pdfrwt>
<totfact> 0.15555510E+05</totfact>
</mgrwt>
</event>
<event>
 8    1  0.7756875E-018  0.7966701E+02  0.7818608E-02  0.1329999E+00
         -2   -1    0    0    0  501 -0.00000000000E+00  0.00000000000E+00  0.30053426346E+02  0.30053426454E+02  0.25500000000E-02 0.  1.
          1   -1    0    0  501    0  0.00000000000E+00 -0.00000000000E+00 -0.52796248918E+02  0.52796249158E+02  0.50400000000E-02 0. -1.
        -24    2    1    2    0    0 -0.35527136788E-14  0.17763568394E-14 -0.22742822572E+02  0.82849675613E+02  0.79667011809E+02 0.  0.
         66    2    3    3    0    0  0.31183957892E+02 -0.15691038454E+02  0.85183525420E+01  0.35989029532E+02  0.19999997728E+01 0.  0.
         13    1    3    3    0    0 -0.31183957892E+02  0.15691038454E+02 -0.31261175114E+02  0.46860646080E+02  0.10566000000E+00 0. -1.
         13    1    4    4    0    0  0.45553492582E+01 -0.24395434878E+01  0.85244024313E+00  0.52383583016E+01  0.10566000000E+00 0. -1.
        -13    1    4    4    0    0  0.19075920085E+02 -0.95725532902E+01  0.61725322117E+01  0.22217916679E+02  0.10566000000E+00 0.  1.
        -14    1    4    4    0    0  0.75526885482E+01 -0.36789416761E+01  0.14933800872E+01  0.85327545521E+01  0.00000000000E+00 0.  1.
<mgrwt>
<rscale>  0 0.79667012E+02</rscale>
<asrwt>0</asrwt>
<pdfrwt beam="1">  1        1 0.81224999E-02 0.79667012E+02</pdfrwt>
<pdfrwt beam="2">  1       -2 0.46236041E-02 0.79667012E+02</pdfrwt>
<totfact> 0.13424372E+05</totfact>
</mgrwt>
</event>
<event>
 8    1  0.7756875E-018  0.8017643E+02  0.7818608E-02  0.1328552E+00
         -2   -1    0    0    0  501 -0.00000000000E+00  0.00000000000E+00  0.11014239340E+02  0.11014239635E+02  0.25500000000E-02 0.  1.
          1   -1    0    0  501    0  0.00000000000E+00 -0.00000000000E+00 -0.14590793363E+03  0.14590793372E+03  0.50400000000E-02 0. -1.
        -24    2    1    2    0    0  0.00000000000E+00  0.00000000000E+00 -0.13489369429E+03  0.15692217336E+03  0.80176428772E+02 0.  0.
         66    2    3    3    0    0  0.31997859045E+02  0.19543240854E+02 -0.95116497388E+02  0.10225922609E+03  0.19999994412E+01 0.  0.
         13    1    3    3    0    0 -0.31997859045E+02 -0.19543240854E+02 -0.39777196905E+02  0.54662947270E+02  0.10566000000E+00 0. -1.
         13    1    4    4    0    0  0.14916757590E+02  0.85968567370E+01 -0.42016224505E+02  0.45406936568E+02  0.10566000000E+00 0. -1.
        -13    1    4    4    0    0  0.11246969782E+02  0.68026970840E+01 -0.33497389104E+02  0.35984125079E+02  0.10566000000E+00 0.  1.
         14    1    4    4    0    0  0.58341316734E+01  0.41436870331E+01 -0.19602883779E+02  0.20868164439E+02  0.00000000000E+00 0. -1.
<mgrwt>
<rscale>  0 0.80176429E+02</rscale>
<asrwt>0</asrwt>
<pdfrwt beam="1">  1        1 0.22447373E-01 0.80176429E+02</pdfrwt>
<pdfrwt beam="2">  1       -2 0.16944985E-02 0.80176429E+02</pdfrwt>
<totfact> 0.15616029E+05</totfact>
</mgrwt>
</event>
<event>
 8    1  0.7756875E-018  0.8079875E+02  0.7818608E-02  0.1326800E+00
         -2   -1    0    0    0  501 -0.00000000000E+00  0.00000000000E+00  0.35320171739E+02  0.35320171831E+02  0.25500000000E-02 0.  1.
          1   -1    0    0  501    0  0.00000000000E+00 -0.00000000000E+00 -0.46208989809E+02  0.46208990084E+02  0.50400000000E-02 0. -1.
        -24    2    1    2    0    0  0.35527136788E-14 -0.33306690739E-15 -0.10888818069E+02  0.81529161915E+02  0.80798749270E+02 0.  0.
         66    2    3    3    0    0 -0.11693048991E+02  0.91616749391E+00  0.33534882323E+02  0.35583073091E+02  0.20000001415E+01 0.  0.
         13    1    3    3    0    0  0.11693048991E+02 -0.91616749391E+00 -0.44423700393E+02  0.45946088824E+02  0.10566000000E+00 0. -1.
         13    1    4    4    0    0 -0.20988036000E+00 -0.15968213139E+00  0.72456009611E+00  0.77826699601E+00  0.10566000000E+00 0. -1.
        -13    1    4    4    0    0 -0.32473079651E+01 -0.49825038509E-01  0.78184578880E+01  0.84668140016E+01  0.10566000000E+00 0.  1.
        -14    1    4    4    0    0 -0.82358606664E+01  0.11256746638E+01  0.24991864339E+02  0.26337992094E+02  0.00000000000E+00 0.  1.
<mgrwt>
<rscale>  0 0.80798749E+02</rscale>
<asrwt>0</asrwt>
<pdfrwt beam="1">  1        1 0.71090754E-02 0.80798749E+02</pdfrwt>
<pdfrwt beam="2">  1       -2 0.54338726E-02 0.80798749E+02</pdfrwt>
<totfact> 0.12638448E+05</totfact>
</mgrwt>
</event>
<event>
 8    1  0.7756875E-018  0.7784164E+02  0.7818608E-02  0.1335291E+00
         -2   -1    0    0    0  501 -0.00000000000E+00  0.00000000000E+00  0.27341474397E+02  0.27341474516E+02  0.25500000000E-02 0.  1.
          1   -1    0    0  501    0  0.00000000000E+00 -0.00000000000E+00 -0.55404122314E+02  0.55404122543E+02  0.50400000000E-02 0. -1.
        -24    2    1    2    0    0 -0.71054273576E-14  0.00000000000E+00 -0.28062647917E+02  0.82745597059E+02  0.77841644539E+02 0.  0.
         66    2    3    3    0    0  0.35058864915E+02 -0.16775681830E+02 -0.15644940580E+02  0.41944149420E+02  0.19999987023E+01 0.  0.
         13    1    3    3    0    0 -0.35058864915E+02  0.16775681830E+02 -0.12417707337E+02  0.40801447640E+02  0.10566000000E+00 0. -1.
         13    1    4    4    0    0  0.74536183989E+01 -0.37228367983E+01 -0.27401387763E+01  0.87712864286E+01  0.10566000000E+00 0. -1.
        -13    1    4    4    0    0  0.20067064308E+02 -0.92275842960E+01 -0.88004612650E+01  0.23775926152E+02  0.10566000000E+00 0.  1.
         14    1    4    4    0    0  0.75381822075E+01 -0.38252607356E+01 -0.41043405391E+01  0.93969368386E+01  0.00000000000E+00 0. -1.
<mgrwt>
<rscale>  0 0.77841645E+02</rscale>
<asrwt>0</asrwt>
<pdfrwt beam="1">  1        1 0.85237112E-02 0.77841645E+02</pdfrwt>
<pdfrwt beam="2">  1       -2 0.42063807E-02 0.77841645E+02</pdfrwt>
<totfact> 0.14419394E+05</totfact>
</mgrwt>
</event>
<event>
 8    1  0.7756875E-018  0.8035503E+02  0.7818608E-02  0.1328047E+00
          1   -1    0    0  501    0  0.00000000000E+00  0.00000000000E+00  0.14263910786E+03  0.14263910795E+03  0.50400000000E-02 0. -1.
         -2   -1    0    0    0  501 -0.00000000000E+00 -0.00000000000E+00 -0.11316900821E+02  0.11316901108E+02  0.25500000000E-02 0.  1.
        -24    2    1    2    0    0 -0.35527136788E-14  0.00000000000E+00  0.13132220704E+03  0.15395600905E+03  0.80355028859E+02 0.  0.
         66    2    3    3    0    0  0.29094630702E+02 -0.24742793715E+02  0.41962133323E+02  0.56776086670E+02  0.20000019967E+01 0.  0.
         13    1    3    3    0    0 -0.29094630702E+02  0.24742793715E+02  0.89360073713E+02  0.97179922384E+02  0.10566000000E+00 0. -1.
         13    1    4    4    0    0  0.16731220531E+01 -0.10749467468E+01  0.19110840869E+01  0.27601185366E+01  0.10566000000E+00 0. -1.
        -13    1    4    4    0    0  0.24894107132E+02 -0.21892886274E+02  0.36404946343E+02  0.49237651462E+02  0.10566000000E+00 0.  1.
        -14    1    4    4    0    0  0.25274015175E+01 -0.17749606946E+01  0.36461028932E+01  0.47783166707E+01  0.00000000000E+00 0.  1.
<mgrwt>
<rscale>  0 0.80355029E+02</rscale>
<asrwt>0</asrwt>
<pdfrwt beam="1">  1        1 0.21944478E-01 0.80355029E+02</pdfrwt>
<pdfrwt beam="2">  1       -2 0.17410617E-02 0.80355029E+02</pdfrwt>
<totfact> 0.15459007E+05</totfact>
</mgrwt>
</event>
<event>
 8    1  0.7756875E-018  0.7925673E+02  0.7818608E-02  0.1331174E+00
         -2   -1    0    0    0  501 -0.00000000000E+00  0.00000000000E+00  0.36681151308E+02  0.36681151397E+02  0.25500000000E-02 0.  1.
          1   -1    0    0  501    0  0.00000000000E+00 -0.00000000000E+00 -0.42812376222E+02  0.42812376519E+02  0.50400000000E-02 0. -1.
        -24    2    1    2    0    0  0.00000000000E+00  0.00000000000E+00 -0.61312249141E+01  0.79493527915E+02  0.79256728809E+02 0.  0.
         66    2    3    3    0    0  0.19739519467E+02 -0.67307413769E+01  0.30699789859E+02  0.37167574630E+02  0.19999995445E+01 0.  0.
         13    1    3    3    0    0 -0.19739519467E+02  0.67307413769E+01 -0.36831014773E+02  0.42325953286E+02  0.10566000000E+00 0. -1.
         13    1    4    4    0    0  0.83817975169E+01 -0.32493031503E+01  0.11893316225E+02  0.14908877739E+02  0.10566000000E+00 0. -1.
        -13    1    4    4    0    0  0.44919666219E+01 -0.15275815947E+01  0.81859886777E+01  0.94621796817E+01  0.10566000000E+00 0.  1.
        -14    1    4    4    0    0  0.68657553281E+01 -0.19538566319E+01  0.10620484957E+02  0.12796517209E+02  0.00000000000E+00 0.  1.
<mgrwt>
<rscale>  0 0.79256729E+02</rscale>
<asrwt>0</asrwt>
<pdfrwt beam="1">  1        1 0.65865195E-02 0.79256729E+02</pdfrwt>
<pdfrwt beam="2">  1       -2 0.56432540E-02 0.79256729E+02</pdfrwt>
<totfact> 0.13177736E+05</totfact>
</mgrwt>
</event>
<event>
 8    1  0.7756875E-018  0.8110332E+02  0.7818608E-02  0.1325949E+00
         -2   -1    0    0    0  501 -0.00000000000E+00  0.00000000000E+00  0.17571972595E+02  0.17571972780E+02  0.25500000000E-02 0.  1.
          1   -1    0    0  501    0  0.00000000000E+00 -0.00000000000E+00 -0.93582951148E+02  0.93582951284E+02  0.50400000000E-02 0. -1.
        -24    2    1    2    0    0  0.17763568394E-14  0.00000000000E+00 -0.76010978553E+02  0.11115492406E+03  0.81103318570E+02 0.  0.
         66    2    3    3    0    0 -0.97070889421E+01 -0.27918626121E+02 -0.28499500078E-01  0.29625631492E+02  0.19999922096E+01 0.  0.
         13    1    3    3    0    0  0.97070889421E+01  0.27918626121E+02 -0.75982479053E+02  0.81529292572E+02  0.10566000000E+00 0. -1.
         13    1    4    4    0    0 -0.27708593400E+01 -0.10186702110E+02  0.56563972285E+00  0.10572496095E+02  0.10566000000E+00 0. -1.
        -13    1    4    4    0    0 -0.30955659691E+01 -0.79874627150E+01 -0.10313917524E+00  0.85676070765E+01  0.10566000000E+00 0.  1.
         14    1    4    4    0    0 -0.38406636331E+01 -0.97444612964E+01 -0.49100004770E+00  0.10485528320E+02  0.00000000000E+00 0. -1.
<mgrwt>
<rscale>  0 0.81103319E+02</rscale>
<asrwt>0</asrwt>
<pdfrwt beam="1">  1        1 0.14397377E-01 0.81103319E+02</pdfrwt>
<pdfrwt beam="2">  1       -2 0.27033805E-02 0.81103319E+02</pdfrwt>
<totfact> 0.14007291E+05</totfact>
</mgrwt>
</event>
<event>
 8    1  0.7756875E-018  0.7851208E+02  0.7818608E-02  0.1333328E+00
         -2   -1    0    0    0  501 -0.00000000000E+00  0.00000000000E+00  0.67648564297E+01  0.67648569103E+01  0.25500000000E-02 0.  1.
          1   -1    0    0  501    0  0.00000000000E+00 -0.00000000000E+00 -0.22780032798E+03  0.22780032804E+03  0.50400000000E-02 0. -1.
        -24    2    1    2    0    0  0.00000000000E+00  0.00000000000E+00 -0.22103547155E+03  0.23456518495E+03  0.78512077449E+02 0.  0.
         66    2    3    3    0    0 -0.16227368700E+02 -0.29398150671E+02 -0.49987227042E+02  0.60251984439E+02  0.20000009138E+01 0.  0.
         13    1    3    3    0    0  0.16227368700E+02  0.29398150671E+02 -0.17104824451E+03  0.17431320051E+03  0.10566000000E+00 0. -1.
         13    1    4    4    0    0 -0.22775795093E+01 -0.41015725775E+01 -0.69272711272E+01  0.83671091384E+01  0.10566000000E+00 0. -1.
        -13    1    4    4    0    0 -0.59799855198E+00 -0.15292184036E+01 -0.18696701752E+01  0.24905705760E+01  0.10566000000E+00 0. -1.
        -14    1    4    4    0    0 -0.13351790639E+02 -0.23767359690E+02 -0.41190285740E+02  0.49394304724E+02  0.00000000000E+00 0.  1.
<mgrwt>
<rscale>  0 0.78512077E+02</rscale>
<asrwt>0</asrwt>
<pdfrwt beam="1">  1        1 0.35046198E-01 0.78512077E+02</pdfrwt>
<pdfrwt beam="2">  1       -2 0.10407474E-02 0.78512077E+02</pdfrwt>
<totfact> 0.17973143E+05</totfact>
</mgrwt>
</event>
<event>
 8    1  0.7756875E-018  0.7953193E+02  0.7818608E-02  0.1330385E+00
          1   -1    0    0  501    0  0.00000000000E+00  0.00000000000E+00  0.35606411961E+03  0.35606411965E+03  0.50400000000E-02 0. -1.
         -2   -1    0    0    0  501 -0.00000000000E+00 -0.00000000000E+00 -0.44411430510E+01  0.44411437831E+01  0.25500000000E-02 0.  1.
        -24    2    1    2    0    0  0.00000000000E+00  0.00000000000E+00  0.35162297656E+03  0.36050526343E+03  0.79531926392E+02 0.  0.
         66    2    3    3    0    0  0.39571426505E+02  0.15484106233E+01  0.16086712441E+03  0.16568200592E+03  0.20000001149E+01 0.  0.
         13    1    3    3    0    0 -0.39571426505E+02 -0.15484106233E+01  0.19075585216E+03  0.19482325751E+03  0.10566000000E+00 0. -1.
         13    1    4    4    0    0  0.85270398015E+00  0.20848079744E-01  0.41395189442E+01  0.42278031938E+01  0.10566000000E+00 0. -1.
        -13    1    4    4    0    0  0.38664267690E+02  0.15803194062E+01  0.15624226343E+03  0.16096297416E+03  0.10566000000E+00 0.  1.
        -14    1    4    4    0    0  0.54454834228E-01 -0.52756862703E-01  0.48534203469E+00  0.49122856815E+00  0.00000000000E+00 0.  1.
<mgrwt>
<rscale>  0 0.79531926E+02</rscale>
<asrwt>0</asrwt>
<pdfrwt beam="1">  1        1 0.54779108E-01 0.79531926E+02</pdfrwt>
<pdfrwt beam="2">  1       -2 0.68325267E-03 0.79531926E+02</pdfrwt>
<totfact> 0.18909539E+05</totfact>
</mgrwt>
</event>
<event>
 8    1  0.7756875E-018  0.7783163E+02  0.7818608E-02  0.1335320E+00
         -2   -1    0    0    0  501 -0.00000000000E+00  0.00000000000E+00  0.22334485161E+02  0.22334485307E+02  0.25500000000E-02 0.  1.
          1   -1    0    0  501    0  0.00000000000E+00 -0.00000000000E+00 -0.67807284212E+02  0.67807284399E+02  0.50400000000E-02 0. -1.
        -24    2    1    2    0    0 -0.35527136788E-14 -0.17763568394E-14 -0.45472799051E+02  0.90141769706E+02  0.77831633621E+02 0.  0.
         66    2    3    3    0    0  0.30558464782E+02  0.54362252162E+01  0.43868420608E+01  0.31410455314E+02  0.20000013324E+01 0.  0.
         13    1    3    3    0    0 -0.30558464782E+02 -0.54362252162E+01 -0.49859641112E+02  0.58731314392E+02  0.10566000000E+00 0. -1.
         13    1    4    4    0    0  0.18393133796E+01  0.47617746100E+00  0.55655079522E+00  0.19826072496E+01  0.10566000000E+00 0. -1.
        -13    1    4    4    0    0  0.37508879048E+01  0.10113219598E+01  0.21688495609E+00  0.38923174717E+01  0.10566000000E+00 0.  1.
        -14    1    4    4    0    0  0.24968263497E+02  0.39487257953E+01  0.36134063095E+01  0.25535530592E+02  0.00000000000E+00 0.  1.
<mgrwt>
<rscale>  0 0.77831634E+02</rscale>
<asrwt>0</asrwt>
<pdfrwt beam="1">  1        1 0.10431890E-01 0.77831634E+02</pdfrwt>
<pdfrwt beam="2">  1       -2 0.34360747E-02 0.77831634E+02</pdfrwt>
<totfact> 0.14878654E+05</totfact>
</mgrwt>
</event>
<event>
 8    1  0.7756875E-018  0.7270947E+02  0.7818608E-02  0.1351114E+00
         -2   -1    0    0    0  501 -0.00000000000E+00  0.00000000000E+00  0.19425590326E+03  0.19425590328E+03  0.25500000000E-02 0.  1.
          1   -1    0    0  501    0  0.00000000000E+00 -0.00000000000E+00 -0.68037394377E+01  0.68037413045E+01  0.50400000000E-02 0. -1.
        -24    2    1    2    0    0  0.00000000000E+00 -0.35527136788E-14  0.18745216383E+03  0.20105964458E+03  0.72709469518E+02 0.  0.
         66    2    3    3    0    0 -0.84392406680E+01  0.26606906067E+02  0.15808588899E+03  0.16054375270E+03  0.19999998520E+01 0.  0.
         13    1    3    3    0    0  0.84392406680E+01 -0.26606906067E+02  0.29366274835E+02  0.40515891885E+02  0.10566000000E+00 0. -1.
         13    1    4    4    0    0 -0.23171555932E+01  0.10381134389E+02  0.59669955846E+02  0.60610658765E+02  0.10566000000E+00 0. -1.
        -13    1    4    4    0    0 -0.34149528452E+01  0.90765963356E+01  0.56145478006E+02  0.56976945939E+02  0.10566000000E+00 0.  1.
         14    1    4    4    0    0 -0.27071322297E+01  0.71491753427E+01  0.42270455139E+02  0.42956147995E+02  0.00000000000E+00 0. -1.
<mgrwt>
<rscale>  0 0.72709470E+02</rscale>
<asrwt>0</asrwt>
<pdfrwt beam="1">  1        1 0.10467294E-02 0.72709470E+02</pdfrwt>
<pdfrwt beam="2">  1       -2 0.29885519E-01 0.72709470E+02</pdfrwt>
<totfact> 0.11003033E+05</totfact>
</mgrwt>
</event>
<event>
 8    1  0.7756875E-018  0.7943027E+02  0.7818608E-02  0.1330676E+00
         -2   -1    0    0    0  501 -0.00000000000E+00  0.00000000000E+00  0.19179245551E+03  0.19179245553E+03  0.25500000000E-02 0.  1.
          1   -1    0    0  501    0  0.00000000000E+00 -0.00000000000E+00 -0.82239501741E+01  0.82239517185E+01  0.50400000000E-02 0. -1.
        -24    2    1    2    0    0 -0.71054273576E-14 -0.35527136788E-14  0.18356850534E+03  0.20001640725E+03  0.79430265115E+02 0.  0.
         66    2    3    3    0    0  0.36642238525E+02  0.11562943389E+02  0.11688877332E+03  0.12305828143E+03  0.19999988714E+01 0.  0.
         13    1    3    3    0    0 -0.36642238525E+02 -0.11562943389E+02  0.66679732022E+02  0.76958125825E+02  0.10566000000E+00 0. -1.
         13    1    4    4    0    0  0.90493078473E+01  0.32846986110E+01  0.28908203633E+02  0.30469240536E+02  0.10566000000E+00 0.  1.
        -13    1    4    4    0    0  0.10435655241E+02  0.37193726425E+01  0.32355627332E+02  0.34199918380E+02  0.10566000000E+00 0.  1.
        -14    1    4    4    0    0  0.17157275437E+02  0.45588721352E+01  0.55624942354E+02  0.58389122509E+02  0.00000000000E+00 0.  1.
<mgrwt>
<rscale>  0 0.79430265E+02</rscale>
<asrwt>0</asrwt>
<pdfrwt beam="1">  1        1 0.12652231E-02 0.79430265E+02</pdfrwt>
<pdfrwt beam="2">  1       -2 0.29506535E-01 0.79430265E+02</pdfrwt>
<totfact> 0.88121404E+04</totfact>
</mgrwt>
</event>
<event>
 8    1  0.7756875E-018  0.8393435E+02  0.7818608E-02  0.1318243E+00
          1   -1    0    0  501    0  0.00000000000E+00  0.00000000000E+00  0.31508168560E+02  0.31508168963E+02  0.50400000000E-02 0. -1.
         -2   -1    0    0    0  501 -0.00000000000E+00 -0.00000000000E+00 -0.55898003857E+02  0.55898003916E+02  0.25500000000E-02 0.  1.
        -24    2    1    2    0    0  0.00000000000E+00  0.35527136788E-14 -0.24389835297E+02  0.87406172879E+02  0.83934349295E+02 0.  0.
         66    2    3    3    0    0 -0.80865572934E+01  0.23292288410E+02 -0.47536373265E+02  0.53587590824E+02  0.19999997302E+01 0.  0.
         13    1    3    3    0    0  0.80865572934E+01 -0.23292288410E+02  0.23146537968E+02  0.33818582055E+02  0.10566000000E+00 0. -1.
         13    1    4    4    0    0 -0.31169971028E+01  0.63675278593E+01 -0.13667403215E+02  0.15397082732E+02  0.10566000000E+00 0. -1.
        -13    1    4    4    0    0 -0.33205055422E+01  0.10460579910E+02 -0.21007457196E+02  0.23701770208E+02  0.10566000000E+00 0.  1.
         14    1    4    4    0    0 -0.16490546484E+01  0.64641806410E+01 -0.12861512854E+02  0.14488737885E+02  0.00000000000E+00 0. -1.
<mgrwt>
<rscale>  0 0.83934349E+02</rscale>
<asrwt>0</asrwt>
<pdfrwt beam="1">  1        1 0.48474106E-02 0.83934349E+02</pdfrwt>
<pdfrwt beam="2">  1       -2 0.85996929E-02 0.83934349E+02</pdfrwt>
<totfact> 0.10624831E+05</totfact>
</mgrwt>
</event>
<event>
 8    1  0.7756875E-018  0.8027145E+02  0.7818608E-02  0.1328283E+00
          1   -1    0    0  501    0  0.00000000000E+00  0.00000000000E+00  0.12263885463E+02  0.12263886498E+02  0.50400000000E-02 0. -1.
         -2   -1    0    0    0  501 -0.00000000000E+00 -0.00000000000E+00 -0.13135123694E+03  0.13135123697E+03  0.25500000000E-02 0.  1.
        -24    2    1    2    0    0  0.00000000000E+00  0.00000000000E+00 -0.11908735148E+03  0.14361512347E+03  0.80271454488E+02 0.  0.
         66    2    3    3    0    0 -0.68732870436E+01  0.36322151265E+02 -0.87431705378E+02  0.94946531525E+02  0.19999990141E+01 0.  0.
         13    1    3    3    0    0  0.68732870436E+01 -0.36322151265E+02 -0.31655646101E+02  0.48668591940E+02  0.10566000000E+00 0. -1.
         13    1    4    4    0    0 -0.13906846803E+01  0.64827888209E+01 -0.13962251326E+02  0.15456913693E+02  0.10566000000E+00 0. -1.
        -13    1    4    4    0    0 -0.41824984288E+01  0.21944980087E+02 -0.53497573712E+02  0.57974796258E+02  0.10566000000E+00 0.  1.
        -14    1    4    4    0    0 -0.13001039345E+01  0.78943823575E+01 -0.19971880340E+02  0.21514821574E+02  0.00000000000E+00 0.  1.
<mgrwt>
<rscale>  0 0.80271454E+02</rscale>
<asrwt>0</asrwt>
<pdfrwt beam="1">  1        1 0.18867518E-02 0.80271454E+02</pdfrwt>
<pdfrwt beam="2">  1       -2 0.20207882E-01 0.80271454E+02</pdfrwt>
<totfact> 0.97675184E+04</totfact>
</mgrwt>
</event>
<event>
 8    1  0.7756875E-018  0.8532723E+02  0.7818608E-02  0.1314579E+00
         -2   -1    0    0    0  501 -0.00000000000E+00  0.00000000000E+00  0.45441107346E+02  0.45441107418E+02  0.25500000000E-02 0.  1.
          1   -1    0    0  501    0  0.00000000000E+00 -0.00000000000E+00 -0.40055887693E+02  0.40055888010E+02  0.50400000000E-02 0. -1.
        -24    2    1    2    0    0  0.00000000000E+00 -0.71054273576E-14  0.53852196531E+01  0.85496995427E+02  0.85327226818E+02 0.  0.
         66    2    3    3    0    0  0.11685332789E+02 -0.38013665701E+02 -0.12718101308E+02  0.41801146926E+02  0.20000002508E+01 0.  0.
         13    1    3    3    0    0 -0.11685332789E+02  0.38013665701E+02  0.18103320961E+02  0.43695848502E+02  0.10566000000E+00 0. -1.
         13    1    4    4    0    0  0.20477863460E+01 -0.67761120242E+01 -0.29837562772E+01  0.76826485433E+01  0.10566000000E+00 0. -1.
        -13    1    4    4    0    0  0.47230358749E+01 -0.14728652820E+02 -0.49764731047E+01  0.16248591642E+02  0.10566000000E+00 0.  1.
         14    1    4    4    0    0  0.49145105679E+01 -0.16508900857E+02 -0.47578719260E+01  0.17869906740E+02  0.00000000000E+00 0. -1.
<mgrwt>
<rscale>  0 0.85327227E+02</rscale>
<asrwt>0</asrwt>
<pdfrwt beam="1">  1        1 0.61624443E-02 0.85327227E+02</pdfrwt>
<pdfrwt beam="2">  1       -2 0.69909396E-02 0.85327227E+02</pdfrwt>
<totfact> 0.10578927E+05</totfact>
</mgrwt>
</event>
<event>
 8    1  0.7756875E-018  0.7709936E+02  0.7818608E-02  0.1337491E+00
         -2   -1    0    0    0  501 -0.00000000000E+00  0.00000000000E+00  0.33127151820E+02  0.33127151918E+02  0.25500000000E-02 0.  1.
          1   -1    0    0  501    0  0.00000000000E+00 -0.00000000000E+00 -0.44859810272E+02  0.44859810555E+02  0.50400000000E-02 0. -1.
        -24    2    1    2    0    0 -0.35527136788E-14  0.00000000000E+00 -0.11732658452E+02  0.77986962473E+02  0.77099358242E+02 0.  0.
         66    2    3    3    0    0  0.29725906337E+02  0.46333836952E+01  0.18468647835E+02  0.35358007319E+02  0.19999941676E+01 0.  0.
         13    1    3    3    0    0 -0.29725906337E+02 -0.46333836952E+01 -0.30201306288E+02  0.42628955154E+02  0.10566000000E+00 0. -1.
         13    1    4    4    0    0  0.13665106288E+02  0.29460570722E+01  0.81282556934E+01  0.16170778794E+02  0.10566000000E+00 0. -1.
        -13    1    4    4    0    0  0.23909870352E+01  0.34189595874E+00  0.13230387665E+01  0.27559585378E+01  0.10566000000E+00 0. -1.
        -14    1    4    4    0    0  0.13669813013E+02  0.13454306643E+01  0.90173533753E+01  0.16431269987E+02  0.00000000000E+00 0.  1.
<mgrwt>
<rscale>  0 0.77099358E+02</rscale>
<asrwt>0</asrwt>
<pdfrwt beam="1">  1        1 0.69015093E-02 0.77099358E+02</pdfrwt>
<pdfrwt beam="2">  1       -2 0.50964849E-02 0.77099358E+02</pdfrwt>
<totfact> 0.14336605E+05</totfact>
</mgrwt>
</event>
<event>
 8    1  0.7756875E-018  0.7919495E+02  0.7818608E-02  0.1331352E+00
         -2   -1    0    0    0  501 -0.00000000000E+00  0.00000000000E+00  0.10234541958E+03  0.10234541961E+03  0.25500000000E-02 0.  1.
          1   -1    0    0  501    0  0.00000000000E+00 -0.00000000000E+00 -0.15320273492E+02  0.15320274321E+02  0.50400000000E-02 0. -1.
        -24    2    1    2    0    0  0.00000000000E+00  0.00000000000E+00  0.87025146091E+02  0.11766569393E+03  0.79194946032E+02 0.  0.
         66    2    3    3    0    0  0.29064798479E+02  0.25491585773E+02  0.56092297689E+02  0.68153718311E+02  0.20000009466E+01 0.  0.
         13    1    3    3    0    0 -0.29064798479E+02 -0.25491585773E+02  0.30932848402E+02  0.49511975623E+02  0.10566000000E+00 0. -1.
         13    1    4    4    0    0  0.24111094314E+01  0.27482141301E+01  0.54204880114E+01  0.65390353962E+01  0.10566000000E+00 0. -1.
        -13    1    4    4    0    0  0.45487984562E+01  0.35155674017E+01  0.78955012037E+01  0.97673376539E+01  0.10566000000E+00 0.  1.
        -14    1    4    4    0    0  0.22104890591E+02  0.19227804242E+02  0.42776308474E+02  0.51847345261E+02  0.00000000000E+00 0.  1.
<mgrwt>
<rscale>  0 0.79194946E+02</rscale>
<asrwt>0</asrwt>
<pdfrwt beam="1">  1        1 0.23569651E-02 0.79194946E+02</pdfrwt>
<pdfrwt beam="2">  1       -2 0.15745450E-01 0.79194946E+02</pdfrwt>
<totfact> 0.10828174E+05</totfact>
</mgrwt>
</event>
<event>
 8    1  0.7756875E-018  0.7933430E+02  0.7818608E-02  0.1330951E+00
         -2   -1    0    0    0  501 -0.00000000000E+00  0.00000000000E+00  0.50811027768E+02  0.50811027832E+02  0.25500000000E-02 0.  1.
          1   -1    0    0  501    0  0.00000000000E+00 -0.00000000000E+00 -0.30967345720E+02  0.30967346130E+02  0.50400000000E-02 0. -1.
        -24    2    1    2    0    0  0.00000000000E+00 -0.11102230246E-15  0.19843682048E+02  0.81778373962E+02  0.79334297316E+02 0.  0.
         66    2    3    3    0    0 -0.20231027171E+02  0.56397075920E+00  0.45064375588E+02  0.49440979662E+02  0.19999998652E+01 0.  0.
         13    1    3    3    0    0  0.20231027171E+02 -0.56397075920E+00 -0.25220693539E+02  0.32337394299E+02  0.10566000000E+00 0. -1.
         13    1    4    4    0    0 -0.49024039628E+01 -0.31750105191E+00  0.12296339360E+02  0.13241808684E+02  0.10566000000E+00 0. -1.
        -13    1    4    4    0    0 -0.22227920471E+01 -0.17279426482E+00  0.45161531059E+01  0.50376051110E+01  0.10566000000E+00 0.  1.
        -14    1    4    4    0    0 -0.13105831161E+02  0.10542660759E+01  0.28251883122E+02  0.31161565867E+02  0.00000000000E+00 0.  1.
<mgrwt>
<rscale>  0 0.79334297E+02</rscale>
<asrwt>0</asrwt>
<pdfrwt beam="1">  1        1 0.47642072E-02 0.79334297E+02</pdfrwt>
<pdfrwt beam="2">  1       -2 0.78170811E-02 0.79334297E+02</pdfrwt>
<totfact> 0.12457225E+05</totfact>
</mgrwt>
</event>
<event>
 8    1  0.7756875E-018  0.8039072E+02  0.7818608E-02  0.1327946E+00
          1   -1    0    0  501    0  0.00000000000E+00  0.00000000000E+00  0.96385319187E+02  0.96385319318E+02  0.50400000000E-02 0. -1.
         -2   -1    0    0    0  501 -0.00000000000E+00 -0.00000000000E+00 -0.16762584305E+02  0.16762584499E+02  0.25500000000E-02 0.  1.
        -24    2    1    2    0    0  0.00000000000E+00  0.00000000000E+00  0.79622734881E+02  0.11314790382E+03  0.80390722278E+02 0.  0.
         66    2    3    3    0    0  0.10031996748E+02  0.12508600403E+02 -0.12003399146E+02  0.20129273191E+02  0.20000013401E+01 0.  0.
         13    1    3    3    0    0 -0.10031996748E+02 -0.12508600403E+02  0.91626134027E+02  0.93018630626E+02  0.10566000000E+00 0. -1.
         13    1    4    4    0    0  0.51536348841E+01  0.53490878628E+01 -0.48012224808E+01  0.88450887406E+01  0.10566000000E+00 0. -1.
        -13    1    4    4    0    0  0.51337176136E+00  0.86891366771E+00 -0.63602442783E+00  0.11976028706E+01  0.10566000000E+00 0.  1.
         14    1    4    4    0    0  0.43649901024E+01  0.62905988728E+01 -0.65661522369E+01  0.10086581580E+02  0.00000000000E+00 0. -1.
<mgrwt>
<rscale>  0 0.80390722E+02</rscale>
<asrwt>0</asrwt>
<pdfrwt beam="1">  1        1 0.14828511E-01 0.80390722E+02</pdfrwt>
<pdfrwt beam="2">  1       -2 0.25788591E-02 0.80390722E+02</pdfrwt>
<totfact> 0.14417348E+05</totfact>
</mgrwt>
</event>
<event>
 8    1  0.7756875E-018  0.7986521E+02  0.7818608E-02  0.1329434E+00
         -2   -1    0    0    0  501 -0.00000000000E+00  0.00000000000E+00  0.22582535543E+02  0.22582535687E+02  0.25500000000E-02 0.  1.
          1   -1    0    0  501    0  0.00000000000E+00 -0.00000000000E+00 -0.70612668011E+02  0.70612668191E+02  0.50400000000E-02 0. -1.
        -24    2    1    2    0    0  0.00000000000E+00  0.00000000000E+00 -0.48030132469E+02  0.93195203878E+02  0.79865213960E+02 0.  0.
         66    2    3    3    0    0  0.12979940290E+02  0.31700974241E+02 -0.47921115620E+02  0.58939493895E+02  0.20000001383E+01 0.  0.
         13    1    3    3    0    0 -0.12979940290E+02 -0.31700974241E+02 -0.10901684879E+00  0.34255709983E+02  0.10566000000E+00 0. -1.
         13    1    4    4    0    0  0.17231154899E+01  0.33273167564E+01 -0.53751814825E+01  0.65531598328E+01  0.10566000000E+00 0.  1.
        -13    1    4    4    0    0  0.21893050254E+01  0.67269493338E+01 -0.10670843189E+02  0.12803240302E+02  0.10566000000E+00 0. -1.
        -14    1    4    4    0    0  0.90675197751E+01  0.21646708150E+02 -0.31875090948E+02  0.39583093760E+02  0.00000000000E+00 0.  1.
<mgrwt>
<rscale>  0 0.79865214E+02</rscale>
<asrwt>0</asrwt>
<pdfrwt beam="1">  1        1 0.10863487E-01 0.79865214E+02</pdfrwt>
<pdfrwt beam="2">  1       -2 0.34742363E-02 0.79865214E+02</pdfrwt>
<totfact> 0.13954031E+05</totfact>
</mgrwt>
</event>
<event>
 8    1  0.7756875E-018  0.7939857E+02  0.7818608E-02  0.1330767E+00
          1   -1    0    0  501    0  0.00000000000E+00  0.00000000000E+00  0.20334439078E+02  0.20334439702E+02  0.50400000000E-02 0. -1.
         -2   -1    0    0    0  501 -0.00000000000E+00 -0.00000000000E+00 -0.77505605946E+02  0.77505605988E+02  0.25500000000E-02 0.  1.
        -24    2    1    2    0    0  0.00000000000E+00  0.00000000000E+00 -0.57171166868E+02  0.97840045690E+02  0.79398565602E+02 0.  0.
         66    2    3    3    0    0  0.25248339275E+02 -0.29165927231E+01 -0.66143131215E+02  0.70886521662E+02  0.19999992925E+01 0.  0.
         13    1    3    3    0    0 -0.25248339275E+02  0.29165927231E+01  0.89719643464E+01  0.26953524028E+02  0.10566000000E+00 0. -1.
         13    1    4    4    0    0  0.12957971784E+02 -0.15701984382E+01 -0.31921815867E+02  0.34487505682E+02  0.10566000000E+00 0. -1.
        -13    1    4    4    0    0  0.10275777793E+02 -0.97955187869E+00 -0.29451710375E+02  0.31208420966E+02  0.10566000000E+00 0.  1.
        -14    1    4    4    0    0  0.20145896986E+01 -0.36684240622E+00 -0.47696049721E+01  0.51905950136E+01  0.00000000000E+00 0.  1.
<mgrwt>
<rscale>  0 0.79398566E+02</rscale>
<asrwt>0</asrwt>
<pdfrwt beam="1">  1        1 0.31283753E-02 0.79398566E+02</pdfrwt>
<pdfrwt beam="2">  1       -2 0.11923939E-01 0.79398566E+02</pdfrwt>
<totfact> 0.11470360E+05</totfact>
</mgrwt>
</event>
<event>
 8    1  0.7756875E-018  0.8019299E+02  0.7818608E-02  0.1328505E+00
          1   -1    0    0  501    0  0.00000000000E+00  0.00000000000E+00  0.89300439947E+02  0.89300440089E+02  0.50400000000E-02 0. -1.
         -2   -1    0    0    0  501 -0.00000000000E+00 -0.00000000000E+00 -0.18003595089E+02  0.18003595270E+02  0.25500000000E-02 0.  1.
        -24    2    1    2    0    0  0.71054273576E-14  0.00000000000E+00  0.71296844858E+02  0.10730403536E+03  0.80192991699E+02 0.  0.
         66    2    3    3    0    0  0.32588538992E+02 -0.74892474267E+01  0.61229871659E+01  0.34052792426E+02  0.19999998846E+01 0.  0.
         13    1    3    3    0    0 -0.32588538992E+02  0.74892474267E+01  0.65173857692E+02  0.73251242933E+02  0.10566000000E+00 0. -1.
         13    1    4    4    0    0  0.28697921815E+01 -0.10334690280E+01  0.89363949339E+00  0.31801762493E+01  0.10566000000E+00 0. -1.
        -13    1    4    4    0    0  0.18590461516E+02 -0.38228978145E+01  0.36693627112E+01  0.19331197424E+02  0.10566000000E+00 0.  1.
        -14    1    4    4    0    0  0.11128285294E+02 -0.26328805841E+01  0.15599849614E+01  0.11541418753E+02  0.00000000000E+00 0.  1.
<mgrwt>
<rscale>  0 0.80192992E+02</rscale>
<asrwt>0</asrwt>
<pdfrwt beam="1">  1        1 0.13738530E-01 0.80192992E+02</pdfrwt>
<pdfrwt beam="2">  1       -2 0.27697838E-02 0.80192992E+02</pdfrwt>
<totfact> 0.14331210E+05</totfact>
</mgrwt>
</event>
<event>
 8    1  0.7756875E-018  0.7961882E+02  0.7818608E-02  0.1330137E+00
         -2   -1    0    0    0  501 -0.00000000000E+00  0.00000000000E+00  0.36598976029E+02  0.36598976118E+02  0.25500000000E-02 0.  1.
          1   -1    0    0  501    0  0.00000000000E+00 -0.00000000000E+00 -0.43301462353E+02  0.43301462647E+02  0.50400000000E-02 0. -1.
        -24    2    1    2    0    0  0.00000000000E+00  0.00000000000E+00 -0.67024863243E+01  0.79900438765E+02  0.79618821844E+02 0.  0.
         66    2    3    3    0    0  0.32790668253E+02  0.16296765650E+02  0.12257109412E+02  0.38665866745E+02  0.20000062107E+01 0.  0.
         13    1    3    3    0    0 -0.32790668253E+02 -0.16296765650E+02 -0.18959595736E+02  0.41234572020E+02  0.10566000000E+00 0. -1.
         13    1    4    4    0    0  0.51140527843E+00  0.10104947874E+00  0.70368007436E-01  0.53652777004E+00  0.10566000000E+00 0. -1.
        -13    1    4    4    0    0  0.43021663980E+01  0.19579541566E+01  0.18976377477E+01  0.50945474041E+01  0.10566000000E+00 0.  1.
        -14    1    4    4    0    0  0.27977096577E+02  0.14237762015E+02  0.10289103657E+02  0.33034791571E+02  0.00000000000E+00 0.  1.
<mgrwt>
<rscale>  0 0.79618822E+02</rscale>
<asrwt>0</asrwt>
<pdfrwt beam="1">  1        1 0.66617635E-02 0.79618822E+02</pdfrwt>
<pdfrwt beam="2">  1       -2 0.56306117E-02 0.79618822E+02</pdfrwt>
<totfact> 0.13034054E+05</totfact>
</mgrwt>
</event>
<event>
 8    1  0.7756875E-018  0.7847534E+02  0.7818608E-02  0.1333435E+00
         -2   -1    0    0    0  501 -0.00000000000E+00  0.00000000000E+00  0.19913182069E+02  0.19913182232E+02  0.25500000000E-02 0.  1.
          1   -1    0    0  501    0  0.00000000000E+00 -0.00000000000E+00 -0.77315358261E+02  0.77315358425E+02  0.50400000000E-02 0. -1.
        -24    2    1    2    0    0 -0.35527136788E-14  0.00000000000E+00 -0.57402176191E+02  0.97228540657E+02  0.78475341903E+02 0.  0.
         66    2    3    3    0    0  0.17014575513E+02  0.26656879871E+02  0.47739030545E-02  0.31687300911E+02  0.19999979631E+01 0.  0.
         13    1    3    3    0    0 -0.17014575513E+02 -0.26656879871E+02 -0.57406950095E+02  0.65541239747E+02  0.10566000000E+00 0. -1.
         13    1    4    4    0    0  0.25722194737E+01  0.52174842469E+01 -0.38619512552E-01  0.58181707082E+01  0.10566000000E+00 0. -1.
        -13    1    4    4    0    0  0.72406788950E+01  0.98743617773E+01  0.21226813552E-01  0.12245083339E+02  0.10566000000E+00 0.  1.
         14    1    4    4    0    0  0.72016771447E+01  0.11565033847E+02  0.22166602054E-01  0.13624046863E+02  0.00000000000E+00 0. -1.
<mgrwt>
<rscale>  0 0.78475342E+02</rscale>
<asrwt>0</asrwt>
<pdfrwt beam="1">  1        1 0.11894670E-01 0.78475342E+02</pdfrwt>
<pdfrwt beam="2">  1       -2 0.30635665E-02 0.78475342E+02</pdfrwt>
<totfact> 0.14850107E+05</totfact>
</mgrwt>
</event>
<event>
 8    1  0.7756875E-018  0.7963989E+02  0.7818608E-02  0.1330076E+00
          1   -1    0    0  501    0  0.00000000000E+00  0.00000000000E+00  0.77115993085E+02  0.77115993249E+02  0.50400000000E-02 0. -1.
         -2   -1    0    0    0  501 -0.00000000000E+00 -0.00000000000E+00 -0.20561595579E+02  0.20561595737E+02  0.25500000000E-02 0.  1.
        -24    2    1    2    0    0  0.35527136788E-14 -0.35527136788E-14  0.56554397505E+02  0.97677588987E+02  0.79639886445E+02 0.  0.
         66    2    3    3    0    0  0.26775900055E+02 -0.28927221844E+02  0.35000414859E+02  0.52751891225E+02  0.20000000521E+01 0.  0.
         13    1    3    3    0    0 -0.26775900055E+02  0.28927221844E+02  0.21553982647E+02  0.44925697761E+02  0.10566000000E+00 0. -1.
         13    1    4    4    0    0  0.58051636276E+01 -0.66290186161E+01  0.68373163088E+01  0.11153648322E+02  0.10566000000E+00 0. -1.
        -13    1    4    4    0    0  0.12105183243E+02 -0.13229233269E+02  0.16545256022E+02  0.24398867496E+02  0.10566000000E+00 0.  1.
         14    1    4    4    0    0  0.88655531846E+01 -0.90689699592E+01  0.11617842528E+02  0.17199375407E+02  0.00000000000E+00 0. -1.
<mgrwt>
<rscale>  0 0.79639886E+02</rscale>
<asrwt>0</asrwt>
<pdfrwt beam="1">  1        1 0.11863999E-01 0.79639886E+02</pdfrwt>
<pdfrwt beam="2">  1       -2 0.31633224E-02 0.79639886E+02</pdfrwt>
<totfact> 0.14260415E+05</totfact>
</mgrwt>
</event>
<event>
 8    1  0.8859849E-018  0.7548288E+02  0.7818608E-02  0.1342382E+00
          1   -1    0    0  501    0  0.00000000000E+00  0.00000000000E+00  0.57522156232E+02  0.57522156453E+02  0.50400000000E-02 0. -1.
         -2   -1    0    0    0  501 -0.00000000000E+00 -0.00000000000E+00 -0.24762914466E+02  0.24762914597E+02  0.25500000000E-02 0.  1.
        -24    2    1    2    0    0  0.00000000000E+00  0.00000000000E+00  0.32759241767E+02  0.82285071050E+02  0.75482878831E+02 0.  0.
         66    2    3    3    0    0 -0.95013421172E+01 -0.60231361122E+01 -0.22850922378E+02  0.25548352861E+02  0.20000024243E+01 0.  0.
         13    1    3    3    0    0  0.95013421172E+01  0.60231361122E+01  0.55610164145E+02  0.56736718190E+02  0.10566000000E+00 0. -1.
         13    1    4    4    0    0 -0.16876356851E+01 -0.44696441164E+00 -0.37239198544E+01  0.41141991333E+01  0.10566000000E+00 0. -1.
        -13    1    4    4    0    0 -0.49907032474E+01 -0.29780315549E+01 -0.12257278977E+02  0.13565686227E+02  0.10566000000E+00 0.  1.
         14    1    4    4    0    0 -0.28230031848E+01 -0.25981401456E+01 -0.68697235467E+01  0.78684675004E+01  0.00000000000E+00 0. -1.
<mgrwt>
<rscale>  0 0.75482879E+02</rscale>
<asrwt>0</asrwt>
<pdfrwt beam="1">  1        1 0.88495625E-02 0.75482879E+02</pdfrwt>
<pdfrwt beam="2">  1       -2 0.38096792E-02 0.75482879E+02</pdfrwt>
<totfact> 0.15779507E+05</totfact>
</mgrwt>
</event>
<event>
 8    1  0.7756875E-018  0.8134880E+02  0.7818608E-02  0.1325267E+00
          1   -1    0    0  501    0  0.00000000000E+00  0.00000000000E+00  0.17862259543E+02  0.17862260254E+02  0.50400000000E-02 0. -1.
         -2   -1    0    0    0  501 -0.00000000000E+00 -0.00000000000E+00 -0.92620246338E+02  0.92620246373E+02  0.25500000000E-02 0.  1.
        -24    2    1    2    0    0  0.00000000000E+00  0.00000000000E+00 -0.74757986795E+02  0.11048250663E+03  0.81348802578E+02 0.  0.
         66    2    3    3    0    0 -0.70550118964E+01 -0.26646976197E+02 -0.77976929155E+02  0.82729897970E+02  0.20000011027E+01 0.  0.
         13    1    3    3    0    0  0.70550118964E+01  0.26646976197E+02  0.32189423601E+01  0.27752608657E+02  0.10566000000E+00 0. -1.
         13    1    4    4    0    0 -0.80204812913E+00 -0.34126871489E+01 -0.11725330732E+02  0.12238637979E+02  0.10566000000E+00 0.  1.
        -13    1    4    4    0    0 -0.17047156377E+01 -0.49505393275E+01 -0.14414247803E+02  0.15336088119E+02  0.10566000000E+00 0. -1.
        -14    1    4    4    0    0 -0.45482481297E+01 -0.18283749721E+02 -0.51837350620E+02  0.55155171872E+02  0.00000000000E+00 0.  1.
<mgrwt>
<rscale>  0 0.81348803E+02</rscale>
<asrwt>0</asrwt>
<pdfrwt beam="1">  1        1 0.27480400E-02 0.81348803E+02</pdfrwt>
<pdfrwt beam="2">  1       -2 0.14249268E-01 0.81348803E+02</pdfrwt>
<totfact> 0.10359414E+05</totfact>
</mgrwt>
</event>
<event>
 8    1  0.7756875E-018  0.7968775E+02  0.7818608E-02  0.1329940E+00
          1   -1    0    0  501    0  0.00000000000E+00  0.00000000000E+00  0.26514785965E+02  0.26514786444E+02  0.50400000000E-02 0. -1.
         -2   -1    0    0    0  501 -0.00000000000E+00 -0.00000000000E+00 -0.59873556662E+02  0.59873556716E+02  0.25500000000E-02 0.  1.
        -24    2    1    2    0    0  0.00000000000E+00  0.17763568394E-14 -0.33358770697E+02  0.86388343160E+02  0.79687754715E+02 0.  0.
         66    2    3    3    0    0  0.98838221543E+01  0.14390367315E+02 -0.55486753411E+02  0.58202683777E+02  0.19999957274E+01 0.  0.
         13    1    3    3    0    0 -0.98838221543E+01 -0.14390367315E+02  0.22127982714E+02  0.28185659383E+02  0.10566000000E+00 0. -1.
         13    1    4    4    0    0  0.32570581786E+01  0.58536546201E+01 -0.20332417227E+02  0.21407756882E+02  0.10566000000E+00 0. -1.
        -13    1    4    4    0    0  0.32969619965E+01  0.48654942800E+01 -0.20424955063E+02  0.21254010124E+02  0.10566000000E+00 0.  1.
        -14    1    4    4    0    0  0.33298019792E+01  0.36712184149E+01 -0.14729381120E+02  0.15540916770E+02  0.00000000000E+00 0.  1.
<mgrwt>
<rscale>  0 0.79687755E+02</rscale>
<asrwt>0</asrwt>
<pdfrwt beam="1">  1        1 0.40791979E-02 0.79687755E+02</pdfrwt>
<pdfrwt beam="2">  1       -2 0.92113164E-02 0.79687755E+02</pdfrwt>
<totfact> 0.11961315E+05</totfact>
</mgrwt>
</event>
<event>
 8    1  0.7756875E-018  0.8128555E+02  0.7818608E-02  0.1325442E+00
         -2   -1    0    0    0  501 -0.00000000000E+00  0.00000000000E+00  0.10634634759E+02  0.10634635065E+02  0.25500000000E-02 0.  1.
          1   -1    0    0  501    0  0.00000000000E+00 -0.00000000000E+00 -0.15532600357E+03  0.15532600365E+03  0.50400000000E-02 0. -1.
        -24    2    1    2    0    0  0.00000000000E+00  0.88817841970E-15 -0.14469136881E+03  0.16596063872E+03  0.81285554652E+02 0.  0.
         66    2    3    3    0    0  0.28099307133E+02  0.42850057977E+01 -0.13148483505E+02  0.31381761568E+02  0.20000011584E+01 0.  0.
         13    1    3    3    0    0 -0.28099307133E+02 -0.42850057977E+01 -0.13154288531E+03  0.13457887715E+03  0.10566000000E+00 0. -1.
         13    1    4    4    0    0  0.14337024415E+02  0.22539190795E+01 -0.76247114834E+01  0.16394444471E+02  0.10566000000E+00 0. -1.
        -13    1    4    4    0    0  0.67788908546E+01  0.12373936575E+01 -0.24214288331E+01  0.73047235342E+01  0.10566000000E+00 0.  1.
         14    1    4    4    0    0  0.69833918632E+01  0.79369306064E+00 -0.31023431884E+01  0.76825935626E+01  0.00000000000E+00 0. -1.
<mgrwt>
<rscale>  0 0.81285555E+02</rscale>
<asrwt>0</asrwt>
<pdfrwt beam="1">  1        1 0.23896307E-01 0.81285555E+02</pdfrwt>
<pdfrwt beam="2">  1       -2 0.16360978E-02 0.81285555E+02</pdfrwt>
<totfact> 0.15228016E+05</totfact>
</mgrwt>
</event>
<event>
 8    1  0.7756875E-018  0.8018481E+02  0.7818608E-02  0.1328528E+00
         -2   -1    0    0    0  501 -0.00000000000E+00  0.00000000000E+00  0.93308077749E+02  0.93308077784E+02  0.25500000000E-02 0.  1.
          1   -1    0    0  501    0  0.00000000000E+00 -0.00000000000E+00 -0.17226816101E+02  0.17226816838E+02  0.50400000000E-02 0. -1.
        -24    2    1    2    0    0  0.00000000000E+00  0.00000000000E+00  0.76081261648E+02  0.11053489462E+03  0.80184814991E+02 0.  0.
         66    2    3    3    0    0 -0.25953638715E+02  0.84082133080E+01  0.78515836841E+02  0.83144609228E+02  0.19999988102E+01 0.  0.
         13    1    3    3    0    0  0.25953638715E+02 -0.84082133080E+01 -0.24345751927E+01  0.27390285394E+02  0.10566000000E+00 0. -1.
         13    1    4    4    0    0 -0.21520297694E+02  0.68656382660E+01  0.67105840969E+02  0.70805827852E+02  0.10566000000E+00 0. -1.
        -13    1    4    4    0    0 -0.25469889499E+01  0.90375468605E+00  0.66417340273E+01  0.71713123045E+01  0.10566000000E+00 0.  1.
         14    1    4    4    0    0 -0.18863520708E+01  0.63882035595E+00  0.47682618453E+01  0.51674690718E+01  0.00000000000E+00 0. -1.
<mgrwt>
<rscale>  0 0.80184815E+02</rscale>
<asrwt>0</asrwt>
<pdfrwt beam="1">  1        1 0.26502795E-02 0.80184815E+02</pdfrwt>
<pdfrwt beam="2">  1       -2 0.14355089E-01 0.80184815E+02</pdfrwt>
<totfact> 0.10729398E+05</totfact>
</mgrwt>
</event>
<event>
 8    1  0.7756875E-018  0.7655904E+02  0.7818608E-02  0.1339110E+00
         -2   -1    0    0    0  501 -0.00000000000E+00  0.00000000000E+00  0.96213794846E+01  0.96213798225E+01  0.25500000000E-02 0.  1.
          1   -1    0    0  501    0  0.00000000000E+00 -0.00000000000E+00 -0.15229847563E+03  0.15229847572E+03  0.50400000000E-02 0. -1.
        -24    2    1    2    0    0  0.00000000000E+00  0.00000000000E+00 -0.14267709615E+03  0.16191985554E+03  0.76559035080E+02 0.  0.
         66    2    3    3    0    0  0.19543377431E+02 -0.16066159705E+02 -0.10703695275E+02  0.27543314464E+02  0.19999975122E+01 0.  0.
         13    1    3    3    0    0 -0.19543377431E+02  0.16066159705E+02 -0.13197340087E+03  0.13437654107E+03  0.10566000000E+00 0. -1.
         13    1    4    4    0    0  0.10503149961E+02 -0.98579774489E+01 -0.60039236518E+01  0.15606221251E+02  0.10566000000E+00 0. -1.
        -13    1    4    4    0    0  0.41868342423E+01 -0.30808114537E+01 -0.22169954769E+01  0.56521865827E+01  0.10566000000E+00 0.  1.
        -14    1    4    4    0    0  0.48533932278E+01 -0.31273708029E+01 -0.24827761465E+01  0.62849066306E+01  0.00000000000E+00 0.  1.
<mgrwt>
<rscale>  0 0.76559035E+02</rscale>
<asrwt>0</asrwt>
<pdfrwt beam="1">  1        1 0.23430533E-01 0.76559035E+02</pdfrwt>
<pdfrwt beam="2">  1       -2 0.14802124E-02 0.76559035E+02</pdfrwt>
<totfact> 0.17800378E+05</totfact>
</mgrwt>
</event>
<event>
 8    1  0.9562893E-018  0.8136647E+02  0.7818608E-02  0.1325218E+00
          1   -1    0    0  501    0  0.00000000000E+00  0.00000000000E+00  0.39806596115E+02  0.39806596434E+02  0.50400000000E-02 0. -1.
         -2   -1    0    0    0  501 -0.00000000000E+00 -0.00000000000E+00 -0.41579181182E+02  0.41579181260E+02  0.25500000000E-02 0.  1.
        -24    2    1    2    0    0  0.17763568394E-14  0.71054273576E-14 -0.17725850673E+01  0.81385777694E+02  0.81366471922E+02 0.  0.
         66    2    3    3    0    0 -0.90364119705E+01 -0.27619747940E+02 -0.29329703569E+02  0.41336893043E+02  0.19999993545E+01 0.  0.
         13    1    3    3    0    0  0.90364119705E+01  0.27619747940E+02  0.27557118502E+02  0.40048884651E+02  0.10566000000E+00 0. -1.
         13    1    4    4    0    0 -0.34916719023E+01 -0.10762962223E+02 -0.10615835361E+02  0.15515806552E+02  0.10566000000E+00 0.  1.
        -13    1    4    4    0    0 -0.49242390845E+01 -0.13557551480E+02 -0.14845871756E+02  0.20699430063E+02  0.10566000000E+00 0. -1.
         14    1    4    4    0    0 -0.62050098374E+00 -0.32992342366E+01 -0.38679964528E+01  0.51216564291E+01  0.00000000000E+00 0. -1.
<mgrwt>
<rscale>  0 0.81366472E+02</rscale>
<asrwt>0</asrwt>
<pdfrwt beam="1">  1        1 0.61240918E-02 0.81366472E+02</pdfrwt>
<pdfrwt beam="2">  1       -2 0.63967971E-02 0.81366472E+02</pdfrwt>
<totfact> 0.12095182E+05</totfact>
</mgrwt>
</event>
<event>
 8    1  0.7756875E-018  0.7954290E+02  0.7818608E-02  0.1330354E+00
         -2   -1    0    0    0  501 -0.00000000000E+00  0.00000000000E+00  0.64529785126E+01  0.64529790164E+01  0.25500000000E-02 0.  1.
          1   -1    0    0  501    0  0.00000000000E+00 -0.00000000000E+00 -0.24512216580E+03  0.24512216585E+03  0.50400000000E-02 0. -1.
        -24    2    1    2    0    0  0.00000000000E+00  0.00000000000E+00 -0.23866918729E+03  0.25157514487E+03  0.79542897578E+02 0.  0.
         66    2    3    3    0    0  0.19609349197E+01  0.38237265559E+02 -0.15315359906E+03  0.15787957007E+03  0.19999992068E+01 0.  0.
         13    1    3    3    0    0 -0.19609349197E+01 -0.38237265559E+02 -0.85515588228E+02  0.93695574800E+02  0.10566000000E+00 0. -1.
         13    1    4    4    0    0  0.10918763382E+01  0.22968767025E+02 -0.89764183837E+02  0.92662701863E+02  0.10566000000E+00 0. -1.
        -13    1    4    4    0    0 -0.82462323070E-01  0.71898489792E+01 -0.28927614061E+02  0.29808031597E+02  0.10566000000E+00 0.  1.
         14    1    4    4    0    0  0.95152090457E+00  0.80786495545E+01 -0.34461801163E+02  0.35408836610E+02  0.00000000000E+00 0. -1.
<mgrwt>
<rscale>  0 0.79542898E+02</rscale>
<asrwt>0</asrwt>
<pdfrwt beam="1">  1        1 0.37711095E-01 0.79542898E+02</pdfrwt>
<pdfrwt beam="2">  1       -2 0.99276615E-03 0.79542898E+02</pdfrwt>
<totfact> 0.17613418E+05</totfact>
</mgrwt>
</event>
<event>
 8    1  0.7756875E-018  0.7872452E+02  0.7818608E-02  0.1332711E+00
          1   -1    0    0  501    0  0.00000000000E+00  0.00000000000E+00  0.22909619019E+02  0.22909619574E+02  0.50400000000E-02 0. -1.
         -2   -1    0    0    0  501 -0.00000000000E+00 -0.00000000000E+00 -0.67630438414E+02  0.67630438462E+02  0.25500000000E-02 0.  1.
        -24    2    1    2    0    0 -0.17763568394E-14 -0.22204460493E-15 -0.44720819395E+02  0.90540058036E+02  0.78724522366E+02 0.  0.
         66    2    3    3    0    0 -0.14875214435E+02 -0.19700958820E+01 -0.64194811567E+02  0.65955493419E+02  0.19999994414E+01 0.  0.
         13    1    3    3    0    0  0.14875214435E+02  0.19700958820E+01  0.19473992171E+02  0.24584564617E+02  0.10566000000E+00 0. -1.
         13    1    4    4    0    0 -0.25317744927E+01  0.28606983964E+00 -0.11838692505E+02  0.12110223875E+02  0.10566000000E+00 0. -1.
        -13    1    4    4    0    0 -0.37030384472E+01 -0.36827517850E+00 -0.16439697142E+02  0.16855946325E+02  0.10566000000E+00 0.  1.
         14    1    4    4    0    0 -0.86404014955E+01 -0.18878905431E+01 -0.35916421920E+02  0.36989323219E+02  0.00000000000E+00 0. -1.
<mgrwt>
<rscale>  0 0.78724522E+02</rscale>
<asrwt>0</asrwt>
<pdfrwt beam="1">  1        1 0.35245569E-02 0.78724522E+02</pdfrwt>
<pdfrwt beam="2">  1       -2 0.10404683E-01 0.78724522E+02</pdfrwt>
<totfact> 0.12051791E+05</totfact>
</mgrwt>
</event>
<event>
 8    1  0.7756875E-018  0.7906857E+02  0.7818608E-02  0.1331716E+00
         -2   -1    0    0    0  501 -0.00000000000E+00  0.00000000000E+00  0.10519442563E+02  0.10519442872E+02  0.25500000000E-02 0.  1.
          1   -1    0    0  501    0  0.00000000000E+00 -0.00000000000E+00 -0.14857818602E+03  0.14857818611E+03  0.50400000000E-02 0. -1.
        -24    2    1    2    0    0  0.71054273576E-14 -0.35527136788E-14 -0.13805874346E+03  0.15909762898E+03  0.79068570884E+02 0.  0.
         66    2    3    3    0    0  0.33797031900E+02 -0.18301525636E+02 -0.50657089706E+02  0.63618597520E+02  0.20000017689E+01 0.  0.
         13    1    3    3    0    0 -0.33797031900E+02  0.18301525636E+02 -0.87401653752E+02  0.95479031459E+02  0.10566000000E+00 0. -1.
         13    1    4    4    0    0  0.11549719178E+02 -0.56680326959E+01 -0.15706369613E+02  0.20303295747E+02  0.10566000000E+00 0. -1.
        -13    1    4    4    0    0  0.11780205873E+02 -0.66363581116E+01 -0.18225015183E+02  0.22693101195E+02  0.10566000000E+00 0.  1.
         14    1    4    4    0    0  0.10467106849E+02 -0.59971348281E+01 -0.16725704910E+02  0.20622200578E+02  0.00000000000E+00 0. -1.
<mgrwt>
<rscale>  0 0.79068571E+02</rscale>
<asrwt>0</asrwt>
<pdfrwt beam="1">  1        1 0.22858181E-01 0.79068571E+02</pdfrwt>
<pdfrwt beam="2">  1       -2 0.16183759E-02 0.79068571E+02</pdfrwt>
<totfact> 0.16261515E+05</totfact>
</mgrwt>
</event>
<event>
 8    1  0.7756875E-018  0.7880685E+02  0.7818608E-02  0.1332472E+00
          1   -1    0    0  501    0  0.00000000000E+00  0.00000000000E+00  0.70129939253E+02  0.70129939434E+02  0.50400000000E-02 0. -1.
         -2   -1    0    0    0  501 -0.00000000000E+00 -0.00000000000E+00 -0.22139331622E+02  0.22139331769E+02  0.25500000000E-02 0.  1.
        -24    2    1    2    0    0  0.35527136788E-14  0.35527136788E-14  0.47990607631E+02  0.92269271203E+02  0.78806852414E+02 0.  0.
         66    2    3    3    0    0  0.21883787013E+02  0.31005223005E+02  0.11708601488E+02  0.39765755878E+02  0.20000010391E+01 0.  0.
         13    1    3    3    0    0 -0.21883787013E+02 -0.31005223005E+02  0.36282006144E+02  0.52503515325E+02  0.10566000000E+00 0. -1.
         13    1    4    4    0    0  0.18713563595E+01  0.22116631146E+01  0.10671346208E+01  0.30892343212E+01  0.10566000000E+00 0.  1.
        -13    1    4    4    0    0  0.17832216786E+02  0.26370652873E+02  0.98365464546E+01  0.33319185144E+02  0.10566000000E+00 0.  1.
        -14    1    4    4    0    0  0.21802138672E+01  0.24229070173E+01  0.80492041218E+00  0.33573364132E+01  0.00000000000E+00 0.  1.
<mgrwt>
<rscale>  0 0.78806852E+02</rscale>
<asrwt>0</asrwt>
<pdfrwt beam="1">  1        1 0.10789221E-01 0.78806852E+02</pdfrwt>
<pdfrwt beam="2">  1       -2 0.34060511E-02 0.78806852E+02</pdfrwt>
<totfact> 0.14456764E+05</totfact>
</mgrwt>
</event>
<event>
 8    1  0.7756875E-018  0.8136218E+02  0.7818608E-02  0.1325230E+00
         -2   -1    0    0    0  501 -0.00000000000E+00  0.00000000000E+00  0.93544808935E+02  0.93544808969E+02  0.25500000000E-02 0.  1.
          1   -1    0    0  501    0  0.00000000000E+00 -0.00000000000E+00 -0.17691531678E+02  0.17691532396E+02  0.50400000000E-02 0. -1.
        -24    2    1    2    0    0 -0.35527136788E-14 -0.35527136788E-14  0.75853277256E+02  0.11123634137E+03  0.81362177760E+02 0.  0.
         66    2    3    3    0    0  0.26641975596E+02 -0.17260049505E+02  0.72677941036E+02  0.79333393277E+02  0.20000007712E+01 0.  0.
         13    1    3    3    0    0 -0.26641975596E+02  0.17260049505E+02  0.31753362202E+01  0.31902948088E+02  0.10566000000E+00 0. -1.
         13    1    4    4    0    0  0.13015657989E+02 -0.80592201292E+01  0.34835365634E+02  0.38050916479E+02  0.10566000000E+00 0. -1.
        -13    1    4    4    0    0  0.12536111072E+02 -0.85733368743E+01  0.33966471557E+02  0.37207372119E+02  0.10566000000E+00 0.  1.
         14    1    4    4    0    0  0.10902065349E+01 -0.62749250134E+00  0.38761038454E+01  0.40751046794E+01  0.00000000000E+00 0. -1.
<mgrwt>
<rscale>  0 0.81362178E+02</rscale>
<asrwt>0</asrwt>
<pdfrwt beam="1">  1        1 0.27217742E-02 0.81362178E+02</pdfrwt>
<pdfrwt beam="2">  1       -2 0.14391509E-01 0.81362178E+02</pdfrwt>
<totfact> 0.10330590E+05</totfact>
</mgrwt>
</event>
<event>
 8    1  0.7756875E-018  0.7746695E+02  0.7818608E-02  0.1336398E+00
         -2   -1    0    0    0  501 -0.00000000000E+00  0.00000000000E+00  0.15359326776E+03  0.15359326778E+03  0.25500000000E-02 0.  1.
          1   -1    0    0  501    0  0.00000000000E+00 -0.00000000000E+00 -0.97678882081E+01  0.97678895084E+01  0.50400000000E-02 0. -1.
        -24    2    1    2    0    0 -0.17763568394E-14  0.35527136788E-14  0.14382537955E+03  0.16336115729E+03  0.77466947195E+02 0.  0.
         66    2    3    3    0    0 -0.90836041240E+01  0.29809575552E+02  0.12037786789E+03  0.12436218775E+03  0.20000009384E+01 0.  0.
         13    1    3    3    0    0  0.90836041240E+01 -0.29809575552E+02  0.23447511657E+02  0.38998969543E+02  0.10566000000E+00 0. -1.
         13    1    4    4    0    0 -0.67839557199E+01  0.22694642329E+02  0.93878553323E+02  0.96820776612E+02  0.10566000000E+00 0. -1.
        -13    1    4    4    0    0 -0.54215379648E+00  0.10788495834E+01  0.46886275348E+01  0.48427512179E+01  0.10566000000E+00 0.  1.
        -14    1    4    4    0    0 -0.17574946077E+01  0.60360836391E+01  0.21810687036E+02  0.22698659916E+02  0.00000000000E+00 0.  1.
<mgrwt>
<rscale>  0 0.77466947E+02</rscale>
<asrwt>0</asrwt>
<pdfrwt beam="1">  1        1 0.15027521E-02 0.77466947E+02</pdfrwt>
<pdfrwt beam="2">  1       -2 0.23629733E-01 0.77466947E+02</pdfrwt>
<totfact> 0.10186176E+05</totfact>
</mgrwt>
</event>
<event>
 8    1  0.7756875E-018  0.8710900E+02  0.7818608E-02  0.1310008E+00
          1   -1    0    0  501    0  0.00000000000E+00  0.00000000000E+00  0.19125649794E+02  0.19125650458E+02  0.50400000000E-02 0. -1.
         -2   -1    0    0    0  501 -0.00000000000E+00 -0.00000000000E+00 -0.99185879116E+02  0.99185879148E+02  0.25500000000E-02 0.  1.
        -24    2    1    2    0    0  0.17763568394E-14  0.00000000000E+00 -0.80060229321E+02  0.11831152961E+03  0.87108999070E+02 0.  0.
         66    2    3    3    0    0 -0.14456745405E+02  0.26182920076E+02 -0.83010833667E+02  0.88257245030E+02  0.20000006889E+01 0.  0.
         13    1    3    3    0    0  0.14456745405E+02 -0.26182920076E+02  0.29506043460E+01  0.30054284577E+02  0.10566000000E+00 0. -1.
         13    1    4    4    0    0 -0.69096157041E+00  0.15414477933E+01 -0.36352072607E+01  0.40099108538E+01  0.10566000000E+00 0. -1.
        -13    1    4    4    0    0 -0.82601156874E+01  0.15309981170E+02 -0.49434402828E+02  0.52406071992E+02  0.10566000000E+00 0.  1.
         14    1    4    4    0    0 -0.55056681469E+01  0.93314911121E+01 -0.29941223579E+02  0.31841262184E+02  0.00000000000E+00 0. -1.
<mgrwt>
<rscale>  0 0.87108999E+02</rscale>
<asrwt>0</asrwt>
<pdfrwt beam="1">  1        1 0.29424078E-02 0.87108999E+02</pdfrwt>
<pdfrwt beam="2">  1       -2 0.15259366E-01 0.87108999E+02</pdfrwt>
<totfact> 0.85496130E+04</totfact>
</mgrwt>
</event>
<event>
 8    1  0.7756875E-018  0.7884479E+02  0.7818608E-02  0.1332362E+00
          1   -1    0    0  501    0  0.00000000000E+00  0.00000000000E+00  0.81585327696E+01  0.81585343264E+01  0.50400000000E-02 0. -1.
         -2   -1    0    0    0  501 -0.00000000000E+00 -0.00000000000E+00 -0.19049075999E+03  0.19049076001E+03  0.25500000000E-02 0.  1.
        -24    2    1    2    0    0  0.00000000000E+00  0.00000000000E+00 -0.18233222722E+03  0.19864929433E+03  0.78844790925E+02 0.  0.
         66    2    3    3    0    0 -0.11352432233E+02 -0.37112513248E+02 -0.10829483080E+03  0.11505645020E+03  0.19999995034E+01 0.  0.
         13    1    3    3    0    0  0.11352432233E+02  0.37112513248E+02 -0.74037396422E+02  0.83592844132E+02  0.10566000000E+00 0. -1.
         13    1    4    4    0    0 -0.11880797047E+01 -0.44704735268E+01 -0.12663870678E+02  0.13482635184E+02  0.10566000000E+00 0. -1.
        -13    1    4    4    0    0 -0.92193217370E+01 -0.30868411211E+02 -0.89469607493E+02  0.95092988874E+02  0.10566000000E+00 0.  1.
         14    1    4    4    0    0 -0.94503079172E+00 -0.17736285095E+01 -0.61613526263E+01  0.64808261412E+01  0.00000000000E+00 0. -1.
<mgrwt>
<rscale>  0 0.78844791E+02</rscale>
<asrwt>0</asrwt>
<pdfrwt beam="1">  1        1 0.12551592E-02 0.78844791E+02</pdfrwt>
<pdfrwt beam="2">  1       -2 0.29306267E-01 0.78844791E+02</pdfrwt>
<totfact> 0.90057889E+04</totfact>
</mgrwt>
</event>
<event>
 8    1  0.7756875E-018  0.8074322E+02  0.7818608E-02  0.1326955E+00
         -2   -1    0    0    0  501 -0.00000000000E+00  0.00000000000E+00  0.50651804020E+01  0.50651810438E+01  0.25500000000E-02 0.  1.
          1   -1    0    0  501    0  0.00000000000E+00 -0.00000000000E+00 -0.32177863293E+03  0.32177863297E+03  0.50400000000E-02 0. -1.
        -24    2    1    2    0    0  0.00000000000E+00 -0.17763568394E-14 -0.31671345253E+03  0.32684381401E+03  0.80743221056E+02 0.  0.
         66    2    3    3    0    0 -0.35435042796E+02  0.14619934677E+02 -0.10749499887E+03  0.11414271560E+03  0.19999990707E+01 0.  0.
         13    1    3    3    0    0  0.35435042796E+02 -0.14619934677E+02 -0.20921845366E+03  0.21270109841E+03  0.10566000000E+00 0. -1.
         13    1    4    4    0    0 -0.29356066581E+01  0.15489589890E+01 -0.96869037833E+01  0.10240328576E+02  0.10566000000E+00 0. -1.
        -13    1    4    4    0    0 -0.24346650752E+02  0.98280776797E+01 -0.75170206133E+02  0.79623624433E+02  0.10566000000E+00 0.  1.
        -14    1    4    4    0    0 -0.81527853859E+01  0.32428980079E+01 -0.22637888949E+02  0.24278762594E+02  0.00000000000E+00 0.  1.
<mgrwt>
<rscale>  0 0.80743221E+02</rscale>
<asrwt>0</asrwt>
<pdfrwt beam="1">  1        1 0.49504389E-01 0.80743221E+02</pdfrwt>
<pdfrwt beam="2">  1       -2 0.77925883E-03 0.80743221E+02</pdfrwt>
<totfact> 0.17841044E+05</totfact>
</mgrwt>
</event>
<event>
 8    1  0.7756875E-018  0.8207611E+02  0.7818608E-02  0.1323261E+00
         -2   -1    0    0    0  501 -0.00000000000E+00  0.00000000000E+00  0.13198672050E+03  0.13198672053E+03  0.25500000000E-02 0.  1.
          1   -1    0    0  501    0  0.00000000000E+00 -0.00000000000E+00 -0.12759781307E+02  0.12759782302E+02  0.50400000000E-02 0. -1.
        -24    2    1    2    0    0  0.00000000000E+00  0.00000000000E+00  0.11922693920E+03  0.14474650283E+03  0.82076105240E+02 0.  0.
         66    2    3    3    0    0  0.29534229866E+02  0.40037624337E+01  0.10933673699E+03  0.11334382602E+03  0.19999982335E+01 0.  0.
         13    1    3    3    0    0 -0.29534229866E+02 -0.40037624337E+01  0.98902022071E+01  0.31402676814E+02  0.10566000000E+00 0. -1.
         13    1    4    4    0    0  0.95216684269E+00  0.32524294869E+00  0.45679409518E+01  0.46786379692E+01  0.10566000000E+00 0. -1.
        -13    1    4    4    0    0  0.16488771213E+02  0.23509505068E+01  0.62326898502E+02  0.64514029368E+02  0.10566000000E+00 0.  1.
         14    1    4    4    0    0  0.12093291809E+02  0.13275689783E+01  0.42441897536E+02  0.44151158678E+02  0.00000000000E+00 0. -1.
<mgrwt>
<rscale>  0 0.82076105E+02</rscale>
<asrwt>0</asrwt>
<pdfrwt beam="1">  1        1 0.19630434E-02 0.82076105E+02</pdfrwt>
<pdfrwt beam="2">  1       -2 0.20305649E-01 0.82076105E+02</pdfrwt>
<totfact> 0.92113833E+04</totfact>
</mgrwt>
</event>
<event>
 8    1  0.7756875E-018  0.7767704E+02  0.7818608E-02  0.1335776E+00
         -2   -1    0    0    0  501 -0.00000000000E+00  0.00000000000E+00  0.16897869467E+01  0.16897888707E+01  0.25500000000E-02 0.  1.
          1   -1    0    0  501    0  0.00000000000E+00 -0.00000000000E+00 -0.89267463206E+03  0.89267463207E+03  0.50400000000E-02 0. -1.
        -24    2    1    2    0    0  0.35527136788E-14  0.00000000000E+00 -0.89098484511E+03  0.89436442094E+03  0.77677044424E+02 0.  0.
         66    2    3    3    0    0 -0.22693772573E+02  0.19142123385E+02 -0.73363348120E+03  0.73423668727E+03  0.19999999084E+01 0.  0.
         13    1    3    3    0    0  0.22693772573E+02 -0.19142123385E+02 -0.15735136391E+03  0.16012773367E+03  0.10566000000E+00 0. -1.
         13    1    4    4    0    0 -0.93433598738E+01  0.74359340931E+01 -0.27910142143E+03  0.27935677207E+03  0.10566000000E+00 0. -1.
        -13    1    4    4    0    0 -0.70403451933E+01  0.67259926634E+01 -0.25657524302E+03  0.25675995002E+03  0.10566000000E+00 0.  1.
        -14    1    4    4    0    0 -0.63100675063E+01  0.49801966281E+01 -0.19795681674E+03  0.19811996519E+03  0.00000000000E+00 0.  1.
<mgrwt>
<rscale>  0 0.77677044E+02</rscale>
<asrwt>0</asrwt>
<pdfrwt beam="1">  1        1 0.13733418E+00 0.77677044E+02</pdfrwt>
<pdfrwt beam="2">  1       -2 0.25996808E-03 0.77677044E+02</pdfrwt>
<totfact> 0.21196389E+05</totfact>
</mgrwt>
</event>
<event>
 8    1  0.7756875E-018  0.8368056E+02  0.7818608E-02  0.1318920E+00
         -2   -1    0    0    0  501 -0.00000000000E+00  0.00000000000E+00  0.59647120273E+02  0.59647120327E+02  0.25500000000E-02 0.  1.
          1   -1    0    0  501    0  0.00000000000E+00 -0.00000000000E+00 -0.29349432987E+02  0.29349433420E+02  0.50400000000E-02 0. -1.
        -24    2    1    2    0    0  0.00000000000E+00  0.00000000000E+00  0.30297687286E+02  0.88996553747E+02  0.83680563597E+02 0.  0.
         66    2    3    3    0    0  0.36233765676E+02 -0.17007963212E+02  0.28027803069E+02  0.48905156589E+02  0.20000021190E+01 0.  0.
         13    1    3    3    0    0 -0.36233765676E+02  0.17007963212E+02  0.22698842169E+01  0.40091397158E+02  0.10566000000E+00 0. -1.
         13    1    4    4    0    0  0.11742804620E+02 -0.51007255974E+01  0.93868416125E+01  0.15875604601E+02  0.10566000000E+00 0. -1.
        -13    1    4    4    0    0  0.94976716083E+01 -0.53334126452E+01  0.76546247963E+01  0.13313733557E+02  0.10566000000E+00 0.  1.
        -14    1    4    4    0    0  0.14993289448E+02 -0.65738249692E+01  0.10986336660E+02  0.19715818431E+02  0.00000000000E+00 0.  1.
<mgrwt>
<rscale>  0 0.83680564E+02</rscale>
<asrwt>0</asrwt>
<pdfrwt beam="1">  1        1 0.45152975E-02 0.83680564E+02</pdfrwt>
<pdfrwt beam="2">  1       -2 0.91764799E-02 0.83680564E+02</pdfrwt>
<totfact> 0.10577334E+05</totfact>
</mgrwt>
</event>
<event>
 8    1  0.7756875E-018  0.7934058E+02  0.7818608E-02  0.1330933E+00
          1   -1    0    0  501    0  0.00000000000E+00  0.00000000000E+00  0.52794823551E+02  0.52794823791E+02  0.50400000000E-02 0. -1.
         -2   -1    0    0    0  501 -0.00000000000E+00 -0.00000000000E+00 -0.29808452045E+02  0.29808452154E+02  0.25500000000E-02 0.  1.
        -24    2    1    2    0    0  0.00000000000E+00  0.00000000000E+00  0.22986371506E+02  0.82603275945E+02  0.79340581810E+02 0.  0.
         66    2    3    3    0    0 -0.15909960590E+02  0.12940012586E+02 -0.23823462625E+02  0.31498065770E+02  0.20000010220E+01 0.  0.
         13    1    3    3    0    0  0.15909960590E+02 -0.12940012586E+02  0.46809834131E+02  0.51105210175E+02  0.10566000000E+00 0. -1.
         13    1    4    4    0    0 -0.95542160303E+01  0.76568112176E+01 -0.13662118228E+02  0.18345965237E+02  0.10566000000E+00 0. -1.
        -13    1    4    4    0    0 -0.18742202313E+01  0.19152158123E+01 -0.25633640568E+01  0.37098183791E+01  0.10566000000E+00 0.  1.
         14    1    4    4    0    0 -0.44815243286E+01  0.33679855556E+01 -0.75979803401E+01  0.94422821531E+01  0.00000000000E+00 0. -1.
<mgrwt>
<rscale>  0 0.79340582E+02</rscale>
<asrwt>0</asrwt>
<pdfrwt beam="1">  1        1 0.81222805E-02 0.79340582E+02</pdfrwt>
<pdfrwt beam="2">  1       -2 0.45859158E-02 0.79340582E+02</pdfrwt>
<totfact> 0.13577919E+05</totfact>
</mgrwt>
</event>
<event>
 8    1  0.7756875E-018  0.7970575E+02  0.7818608E-02  0.1329889E+00
          1   -1    0    0  501    0  0.00000000000E+00  0.00000000000E+00  0.62829135859E+02  0.62829136061E+02  0.50400000000E-02 0. -1.
         -2   -1    0    0    0  501 -0.00000000000E+00 -0.00000000000E+00 -0.25278901976E+02  0.25278902104E+02  0.25500000000E-02 0.  1.
        -24    2    1    2    0    0  0.00000000000E+00  0.00000000000E+00  0.37550233883E+02  0.88108038165E+02  0.79705748379E+02 0.  0.
         66    2    3    3    0    0  0.50784947468E+01 -0.24520410281E+02 -0.15448983119E+02  0.29490892243E+02  0.20000041557E+01 0.  0.
         13    1    3    3    0    0 -0.50784947468E+01  0.24520410281E+02  0.52999217002E+02  0.58617145923E+02  0.10566000000E+00 0. -1.
         13    1    4    4    0    0  0.23090094361E+01 -0.76330170590E+01 -0.45487174952E+01  0.91813108479E+01  0.10566000000E+00 0. -1.
        -13    1    4    4    0    0  0.19322632760E+01 -0.93023679826E+01 -0.62628871487E+01  0.11379921394E+02  0.10566000000E+00 0.  1.
         14    1    4    4    0    0  0.83722203473E+00 -0.75850252389E+01 -0.46373784756E+01  0.89296600011E+01  0.00000000000E+00 0. -1.
<mgrwt>
<rscale>  0 0.79705748E+02</rscale>
<asrwt>0</asrwt>
<pdfrwt beam="1">  1        1 0.96660208E-02 0.79705748E+02</pdfrwt>
<pdfrwt beam="2">  1       -2 0.38890619E-02 0.79705748E+02</pdfrwt>
<totfact> 0.13775434E+05</totfact>
</mgrwt>
</event>
<event>
 8    1  0.7756875E-018  0.7963836E+02  0.7818608E-02  0.1330081E+00
          1   -1    0    0  501    0  0.00000000000E+00  0.00000000000E+00  0.53568069416E+02  0.53568069653E+02  0.50400000000E-02 0. -1.
         -2   -1    0    0    0  501 -0.00000000000E+00 -0.00000000000E+00 -0.29599111611E+02  0.29599111721E+02  0.25500000000E-02 0.  1.
        -24    2    1    2    0    0  0.00000000000E+00 -0.22204460493E-15  0.23968957805E+02  0.83167181374E+02  0.79638364621E+02 0.  0.
         66    2    3    3    0    0  0.33318241433E+02  0.14267535004E+01 -0.10682307163E+02  0.35074955748E+02  0.19999991602E+01 0.  0.
         13    1    3    3    0    0 -0.33318241433E+02 -0.14267535004E+01  0.34651264968E+02  0.48092225626E+02  0.10566000000E+00 0. -1.
         13    1    4    4    0    0  0.55871066125E+01  0.49672562411E+00 -0.17552610310E+01  0.58783162528E+01  0.10566000000E+00 0.  1.
        -13    1    4    4    0    0  0.55351915688E+01  0.76618198690E+00 -0.14415765890E+01  0.57718877014E+01  0.10566000000E+00 0. -1.
        -14    1    4    4    0    0  0.22195943252E+02  0.16384588943E+00 -0.74854695433E+01  0.23424751794E+02  0.00000000000E+00 0.  1.
<mgrwt>
<rscale>  0 0.79638365E+02</rscale>
<asrwt>0</asrwt>
<pdfrwt beam="1">  1        1 0.82412415E-02 0.79638365E+02</pdfrwt>
<pdfrwt beam="2">  1       -2 0.45537095E-02 0.79638365E+02</pdfrwt>
<totfact> 0.13468243E+05</totfact>
</mgrwt>
</event>
<event>
 8    1  0.7756875E-018  0.7931336E+02  0.7818608E-02  0.1331011E+00
          1   -1    0    0  501    0  0.00000000000E+00  0.00000000000E+00  0.41883293851E+01  0.41883324175E+01  0.50400000000E-02 0. -1.
         -2   -1    0    0    0  501 -0.00000000000E+00 -0.00000000000E+00 -0.37548420568E+03  0.37548420569E+03  0.25500000000E-02 0.  1.
        -24    2    1    2    0    0 -0.17763568394E-14  0.00000000000E+00 -0.37129587630E+03  0.37967253811E+03  0.79313355990E+02 0.  0.
         66    2    3    3    0    0  0.10950769069E+02  0.84477397406E+00 -0.36804983793E+03  0.36821911437E+03  0.19999991341E+01 0.  0.
         13    1    3    3    0    0 -0.10950769069E+02 -0.84477397406E+00 -0.32460383628E+01  0.11453423740E+02  0.10566000000E+00 0. -1.
         13    1    4    4    0    0  0.82888486662E+01  0.77111471125E+00 -0.25856594945E+03  0.25869994397E+03  0.10566000000E+00 0. -1.
        -13    1    4    4    0    0  0.20804490528E+01 -0.21504658361E+00 -0.90364363945E+02  0.90388627318E+02  0.10566000000E+00 0.  1.
        -14    1    4    4    0    0  0.58147135027E+00  0.28870584642E+00 -0.19119524537E+02  0.19130543080E+02  0.00000000000E+00 0.  1.
<mgrwt>
<rscale>  0 0.79313356E+02</rscale>
<asrwt>0</asrwt>
<pdfrwt beam="1">  1        1 0.64435890E-03 0.79313356E+02</pdfrwt>
<pdfrwt beam="2">  1       -2 0.57766774E-01 0.79313356E+02</pdfrwt>
<totfact> 0.62955287E+04</totfact>
</mgrwt>
</event>
<event>
 8    1  0.7756875E-018  0.8324739E+02  0.7818608E-02  0.1320080E+00
          1   -1    0    0  501    0  0.00000000000E+00  0.00000000000E+00  0.90697788231E+02  0.90697788371E+02  0.50400000000E-02 0. -1.
         -2   -1    0    0    0  501 -0.00000000000E+00 -0.00000000000E+00 -0.19102251763E+02  0.19102251934E+02  0.25500000000E-02 0.  1.
        -24    2    1    2    0    0  0.00000000000E+00  0.00000000000E+00  0.71595536468E+02  0.10980004030E+03  0.83247390403E+02 0.  0.
         66    2    3    3    0    0  0.24459304102E+02  0.27435677350E+02  0.10122219610E+02  0.38176344517E+02  0.20000004950E+01 0.  0.
         13    1    3    3    0    0 -0.24459304102E+02 -0.27435677350E+02  0.61473316857E+02  0.71623695788E+02  0.10566000000E+00 0. -1.
         13    1    4    4    0    0  0.15761220510E+01  0.20490765713E+01  0.52172467949E+00  0.26393628382E+01  0.10566000000E+00 0. -1.
        -13    1    4    4    0    0  0.16120049844E+02  0.18551274897E+02  0.63100471567E+01  0.25373877639E+02  0.10566000000E+00 0.  1.
         14    1    4    4    0    0  0.67631322074E+01  0.68353258819E+01  0.32904477741E+01  0.10163104040E+02  0.00000000000E+00 0. -1.
<mgrwt>
<rscale>  0 0.83247390E+02</rscale>
<asrwt>0</asrwt>
<pdfrwt beam="1">  1        1 0.13953506E-01 0.83247390E+02</pdfrwt>
<pdfrwt beam="2">  1       -2 0.29388080E-02 0.83247390E+02</pdfrwt>
<totfact> 0.12979263E+05</totfact>
</mgrwt>
</event>
<event>
 8    1  0.7756875E-018  0.7813064E+02  0.7818608E-02  0.1334442E+00
         -2   -1    0    0    0  501 -0.00000000000E+00  0.00000000000E+00  0.14304168833E+02  0.14304169060E+02  0.25500000000E-02 0.  1.
          1   -1    0    0  501    0  0.00000000000E+00 -0.00000000000E+00 -0.10668912200E+03  0.10668912212E+03  0.50400000000E-02 0. -1.
        -24    2    1    2    0    0  0.00000000000E+00  0.00000000000E+00 -0.92384953164E+02  0.12099329118E+03  0.78130640202E+02 0.  0.
         66    2    3    3    0    0 -0.38658336531E+02  0.24886968304E+01 -0.38726127792E+02  0.54812166226E+02  0.19999993355E+01 0.  0.
         13    1    3    3    0    0  0.38658336531E+02 -0.24886968304E+01 -0.53658825372E+02  0.66181124950E+02  0.10566000000E+00 0. -1.
         13    1    4    4    0    0 -0.78325776233E+01  0.43154257396E+00 -0.68420291738E+01  0.10409612311E+02  0.10566000000E+00 0. -1.
        -13    1    4    4    0    0 -0.11523789211E+02  0.11098787669E+01 -0.11881998709E+02  0.16589834418E+02  0.10566000000E+00 0.  1.
        -14    1    4    4    0    0 -0.19301969697E+02  0.94727548955E+00 -0.20002099909E+02  0.27812719496E+02  0.00000000000E+00 0.  1.
<mgrwt>
<rscale>  0 0.78130640E+02</rscale>
<asrwt>0</asrwt>
<pdfrwt beam="1">  1        1 0.16413711E-01 0.78130640E+02</pdfrwt>
<pdfrwt beam="2">  1       -2 0.22006414E-02 0.78130640E+02</pdfrwt>
<totfact> 0.15838303E+05</totfact>
</mgrwt>
</event>
<event>
 8    1  0.7756875E-018  0.8143865E+02  0.7818608E-02  0.1325018E+00
          1   -1    0    0  501    0  0.00000000000E+00  0.00000000000E+00  0.37270189991E+02  0.37270190331E+02  0.50400000000E-02 0. -1.
         -2   -1    0    0    0  501 -0.00000000000E+00 -0.00000000000E+00 -0.44487661067E+02  0.44487661140E+02  0.25500000000E-02 0.  1.
        -24    2    1    2    0    0  0.00000000000E+00  0.00000000000E+00 -0.72174710766E+01  0.81757851472E+02  0.81438654143E+02 0.  0.
         66    2    3    3    0    0  0.21154823985E+02 -0.33007748672E+02 -0.14563320696E+02  0.41870375732E+02  0.20000009856E+01 0.  0.
         13    1    3    3    0    0 -0.21154823985E+02  0.33007748672E+02  0.73458496196E+01  0.39887475740E+02  0.10566000000E+00 0. -1.
         13    1    4    4    0    0  0.84970099030E+01 -0.14713610210E+02 -0.67275933861E+01  0.18274604770E+02  0.10566000000E+00 0. -1.
        -13    1    4    4    0    0  0.11990302907E+02 -0.17312863399E+02 -0.72539682929E+01  0.22274061662E+02  0.10566000000E+00 0.  1.
        -14    1    4    4    0    0  0.66751117458E+00 -0.98127506310E+00 -0.58175901723E+00  0.13217092993E+01  0.00000000000E+00 0.  1.
<mgrwt>
<rscale>  0 0.81438654E+02</rscale>
<asrwt>0</asrwt>
<pdfrwt beam="1">  1        1 0.57338754E-02 0.81438654E+02</pdfrwt>
<pdfrwt beam="2">  1       -2 0.68442556E-02 0.81438654E+02</pdfrwt>
<totfact> 0.11932760E+05</totfact>
</mgrwt>
</event>
<event>
 8    1  0.7756875E-018  0.8010106E+02  0.7818608E-02  0.1328765E+00
         -2   -1    0    0    0  501 -0.00000000000E+00  0.00000000000E+00  0.17554250178E+02  0.17554250363E+02  0.25500000000E-02 0.  1.
          1   -1    0    0  501    0  0.00000000000E+00 -0.00000000000E+00 -0.91376445494E+02  0.91376445633E+02  0.50400000000E-02 0. -1.
        -24    2    1    2    0    0  0.00000000000E+00 -0.35527136788E-14 -0.73822195316E+02  0.10893069600E+03  0.80101061221E+02 0.  0.
         66    2    3    3    0    0 -0.70283703193E+01 -0.14001315073E+02  0.13154538728E+02  0.20554238485E+02  0.20000043572E+01 0.  0.
         13    1    3    3    0    0  0.70283703193E+01  0.14001315073E+02 -0.86976734044E+02  0.88376457511E+02  0.10566000000E+00 0. -1.
         13    1    4    4    0    0 -0.31053197139E+01 -0.50703724809E+01  0.56487889760E+01  0.82019307819E+01  0.10566000000E+00 0. -1.
        -13    1    4    4    0    0 -0.29490213395E+01 -0.56999281538E+01  0.52630569672E+01  0.83004120678E+01  0.10566000000E+00 0.  1.
        -14    1    4    4    0    0 -0.97402926590E+00 -0.32310144383E+01  0.22426927847E+01  0.40518956351E+01  0.00000000000E+00 0.  1.
<mgrwt>
<rscale>  0 0.80101061E+02</rscale>
<asrwt>0</asrwt>
<pdfrwt beam="1">  1        1 0.14057914E-01 0.80101061E+02</pdfrwt>
<pdfrwt beam="2">  1       -2 0.27006539E-02 0.80101061E+02</pdfrwt>
<totfact> 0.14430441E+05</totfact>
</mgrwt>
</event>
<event>
 8    1  0.7756875E-018  0.8026088E+02  0.7818608E-02  0.1328313E+00
         -2   -1    0    0    0  501 -0.00000000000E+00  0.00000000000E+00  0.16892563009E+02  0.16892563201E+02  0.25500000000E-02 0.  1.
          1   -1    0    0  501    0  0.00000000000E+00 -0.00000000000E+00 -0.95334980812E+02  0.95334980945E+02  0.50400000000E-02 0. -1.
        -24    2    1    2    0    0  0.35527136788E-14  0.00000000000E+00 -0.78442417803E+02  0.11222754415E+03  0.80260879352E+02 0.  0.
         66    2    3    3    0    0  0.30617255928E+02 -0.10449620660E+02 -0.61018362557E+01  0.32982469630E+02  0.19999911761E+01 0.  0.
         13    1    3    3    0    0 -0.30617255928E+02  0.10449620660E+02 -0.72340581547E+02  0.79245074516E+02  0.10566000000E+00 0. -1.
         13    1    4    4    0    0  0.12565752374E+02 -0.40391227258E+01 -0.18150878677E+01  0.13323601357E+02  0.10566000000E+00 0. -1.
        -13    1    4    4    0    0  0.17760009531E+02 -0.61604351500E+01 -0.42516588918E+01  0.19273211127E+02  0.10566000000E+00 0.  1.
         14    1    4    4    0    0  0.29149402307E+00 -0.25006278418E+00 -0.35089496142E-01  0.38565714600E+00  0.00000000000E+00 0. -1.
<mgrwt>
<rscale>  0 0.80260879E+02</rscale>
<asrwt>0</asrwt>
<pdfrwt beam="1">  1        1 0.14666920E-01 0.80260879E+02</pdfrwt>
<pdfrwt beam="2">  1       -2 0.25988559E-02 0.80260879E+02</pdfrwt>
<totfact> 0.14454109E+05</totfact>
</mgrwt>
</event>
<event>
 8    1  0.7756875E-018  0.7947899E+02  0.7818608E-02  0.1330537E+00
          1   -1    0    0  501    0  0.00000000000E+00  0.00000000000E+00  0.59924071096E+02  0.59924071308E+02  0.50400000000E-02 0. -1.
         -2   -1    0    0    0  501 -0.00000000000E+00 -0.00000000000E+00 -0.26353810521E+02  0.26353810644E+02  0.25500000000E-02 0.  1.
        -24    2    1    2    0    0 -0.35527136788E-14  0.00000000000E+00  0.33570260575E+02  0.86277881952E+02  0.79478994200E+02 0.  0.
         66    2    3    3    0    0  0.23126440810E+02  0.15951593672E+02 -0.13675703788E+02  0.31309910206E+02  0.19999994549E+01 0.  0.
         13    1    3    3    0    0 -0.23126440810E+02 -0.15951593672E+02  0.47245964363E+02  0.54967971746E+02  0.10566000000E+00 0. -1.
         13    1    4    4    0    0  0.49871324189E+01  0.31890006920E+01 -0.37424154827E+01  0.70041454053E+01  0.10566000000E+00 0. -1.
        -13    1    4    4    0    0  0.16377578573E+02  0.11615956457E+02 -0.90936560321E+01  0.22042260964E+02  0.10566000000E+00 0.  1.
         14    1    4    4    0    0  0.17617298185E+01  0.11466365227E+01 -0.83963227332E+00  0.22635038376E+01  0.00000000000E+00 0. -1.
<mgrwt>
<rscale>  0 0.79478994E+02</rscale>
<asrwt>0</asrwt>
<pdfrwt beam="1">  1        1 0.92190878E-02 0.79478994E+02</pdfrwt>
<pdfrwt beam="2">  1       -2 0.40544324E-02 0.79478994E+02</pdfrwt>
<totfact> 0.13781652E+05</totfact>
</mgrwt>
</event>
<event>
 8    1  0.7756875E-018  0.7947525E+02  0.7818608E-02  0.1330547E+00
         -2   -1    0    0    0  501 -0.00000000000E+00  0.00000000000E+00  0.68283316774E+01  0.68283321535E+01  0.25500000000E-02 0.  1.
          1   -1    0    0  501    0  0.00000000000E+00 -0.00000000000E+00 -0.23125398856E+03  0.23125398862E+03  0.50400000000E-02 0. -1.
        -24    2    1    2    0    0  0.00000000000E+00 -0.71054273576E-14 -0.22442565689E+03  0.23808232077E+03  0.79475253981E+02 0.  0.
         66    2    3    3    0    0  0.73898932450E+00 -0.36157617943E+02 -0.16143059249E+03  0.16544411634E+03  0.19999999711E+01 0.  0.
         13    1    3    3    0    0 -0.73898932450E+00  0.36157617943E+02 -0.62995064394E+02  0.72638204428E+02  0.10566000000E+00 0. -1.
         13    1    4    4    0    0  0.19282082158E+00 -0.10421630860E+02 -0.47258145894E+02  0.48394122443E+02  0.10566000000E+00 0.  1.
        -13    1    4    4    0    0  0.53158961060E+00 -0.11490387275E+02 -0.54489257241E+02  0.55690231693E+02  0.10566000000E+00 0. -1.
        -14    1    4    4    0    0  0.14578892319E-01 -0.14245599807E+02 -0.59683189357E+02  0.61359762208E+02  0.00000000000E+00 0.  1.
<mgrwt>
<rscale>  0 0.79475254E+02</rscale>
<asrwt>0</asrwt>
<pdfrwt beam="1">  1        1 0.35577531E-01 0.79475254E+02</pdfrwt>
<pdfrwt beam="2">  1       -2 0.10505128E-02 0.79475254E+02</pdfrwt>
<totfact> 0.17453895E+05</totfact>
</mgrwt>
</event>
<event>
 8    1  0.7756875E-018  0.7922818E+02  0.7818608E-02  0.1331256E+00
          1   -1    0    0  501    0  0.00000000000E+00  0.00000000000E+00  0.34447332819E+02  0.34447333188E+02  0.50400000000E-02 0. -1.
         -2   -1    0    0    0  501 -0.00000000000E+00 -0.00000000000E+00 -0.45555804807E+02  0.45555804878E+02  0.25500000000E-02 0.  1.
        -24    2    1    2    0    0  0.00000000000E+00  0.00000000000E+00 -0.11108471988E+02  0.80003138066E+02  0.79228176494E+02 0.  0.
         66    2    3    3    0    0 -0.75983730998E+01  0.31613463665E+02 -0.28364627118E+02  0.43193731489E+02  0.20000024538E+01 0.  0.
         13    1    3    3    0    0  0.75983730998E+01 -0.31613463665E+02  0.17256155130E+02  0.36809406577E+02  0.10566000000E+00 0. -1.
         13    1    4    4    0    0 -0.26894408248E+01  0.85798001974E+01 -0.78683304608E+01  0.11948550190E+02  0.10566000000E+00 0. -1.
        -13    1    4    4    0    0 -0.16548209548E+01  0.53823633168E+01 -0.47078644919E+01  0.73405326357E+01  0.10566000000E+00 0.  1.
        -14    1    4    4    0    0 -0.32541113202E+01  0.17651300151E+02 -0.15788432165E+02  0.23904648663E+02  0.00000000000E+00 0.  1.
<mgrwt>
<rscale>  0 0.79228176E+02</rscale>
<asrwt>0</asrwt>
<pdfrwt beam="1">  1        1 0.52995897E-02 0.79228176E+02</pdfrwt>
<pdfrwt beam="2">  1       -2 0.70085854E-02 0.79228176E+02</pdfrwt>
<totfact> 0.12733354E+05</totfact>
</mgrwt>
</event>
<event>
 8    1  0.7756875E-018  0.7972857E+02  0.7818608E-02  0.1329823E+00
         -2   -1    0    0    0  501 -0.00000000000E+00  0.00000000000E+00  0.76991559894E+02  0.76991559936E+02  0.25500000000E-02 0.  1.
          1   -1    0    0  501    0  0.00000000000E+00 -0.00000000000E+00 -0.20640717954E+02  0.20640718569E+02  0.50400000000E-02 0. -1.
        -24    2    1    2    0    0  0.00000000000E+00  0.17763568394E-14  0.56350841940E+02  0.97632278506E+02  0.79728567144E+02 0.  0.
         66    2    3    3    0    0 -0.18717721713E+02 -0.10946681468E+02  0.69119246722E+02  0.72468291024E+02  0.19999987874E+01 0.  0.
         13    1    3    3    0    0  0.18717721713E+02  0.10946681468E+02 -0.12768404782E+02  0.25163987482E+02  0.10566000000E+00 0. -1.
         13    1    4    4    0    0 -0.68413666143E+01 -0.44289450803E+01  0.25025301001E+02  0.26319131937E+02  0.10566000000E+00 0. -1.
        -13    1    4    4    0    0 -0.11264123204E+02 -0.65008149443E+01  0.42180753261E+02  0.44140323698E+02  0.10566000000E+00 0.  1.
        -14    1    4    4    0    0 -0.61223189523E+00 -0.16921443010E-01  0.19131924601E+01  0.20088353885E+01  0.00000000000E+00 0.  1.
<mgrwt>
<rscale>  0 0.79728567E+02</rscale>
<asrwt>0</asrwt>
<pdfrwt beam="1">  1        1 0.31754950E-02 0.79728567E+02</pdfrwt>
<pdfrwt beam="2">  1       -2 0.11844856E-01 0.79728567E+02</pdfrwt>
<totfact> 0.11365858E+05</totfact>
</mgrwt>
</event>
<event>
 8    1  0.7756875E-018  0.8969917E+02  0.7818608E-02  0.1303582E+00
          1   -1    0    0  501    0  0.00000000000E+00  0.00000000000E+00  0.24133155879E+02  0.24133156406E+02  0.50400000000E-02 0. -1.
         -2   -1    0    0    0  501 -0.00000000000E+00 -0.00000000000E+00 -0.83349440551E+02  0.83349440591E+02  0.25500000000E-02 0.  1.
        -24    2    1    2    0    0  0.22204460493E-15  0.00000000000E+00 -0.59216284672E+02  0.10748259700E+03  0.89699165474E+02 0.  0.
         66    2    3    3    0    0 -0.12203250004E+01  0.24432916932E+02 -0.74633633110E+02  0.78566123840E+02  0.20000002604E+01 0.  0.
         13    1    3    3    0    0  0.12203250004E+01 -0.24432916932E+02  0.15417348438E+02  0.28916473156E+02  0.10566000000E+00 0. -1.
         13    1    4    4    0    0 -0.73986386996E-01  0.27521648777E+01 -0.99740733548E+01  0.10347617543E+02  0.10566000000E+00 0. -1.
        -13    1    4    4    0    0 -0.38704271561E+00  0.11223699870E+02 -0.35255752361E+02  0.37001357805E+02  0.10566000000E+00 0.  1.
         14    1    4    4    0    0 -0.75929589776E+00  0.10457052184E+02 -0.29403807395E+02  0.31217148492E+02  0.00000000000E+00 0. -1.
<mgrwt>
<rscale>  0 0.89699165E+02</rscale>
<asrwt>0</asrwt>
<pdfrwt beam="1">  1        1 0.37127933E-02 0.89699165E+02</pdfrwt>
<pdfrwt beam="2">  1       -2 0.12822991E-01 0.89699165E+02</pdfrwt>
<totfact> 0.82686935E+04</totfact>
</mgrwt>
</event>
<event>
 8    1  0.7756875E-018  0.8144510E+02  0.7818608E-02  0.1325000E+00
          1   -1    0    0  501    0  0.00000000000E+00  0.00000000000E+00  0.86215994673E+01  0.86216009404E+01  0.50400000000E-02 0. -1.
         -2   -1    0    0    0  501 -0.00000000000E+00 -0.00000000000E+00 -0.19234549636E+03  0.19234549638E+03  0.25500000000E-02 0.  1.
        -24    2    1    2    0    0  0.00000000000E+00  0.71054273576E-14 -0.18372389690E+03  0.20096709732E+03  0.81445097549E+02 0.  0.
         66    2    3    3    0    0  0.19004297904E+02  0.35956836182E+02 -0.88204754042E+02  0.97150069706E+02  0.20000003341E+01 0.  0.
         13    1    3    3    0    0 -0.19004297904E+02 -0.35956836182E+02 -0.95519142853E+02  0.10381702761E+03  0.10566000000E+00 0. -1.
         13    1    4    4    0    0  0.55025123172E+01  0.90687990237E+01 -0.22060943975E+02  0.24478912775E+02  0.10566000000E+00 0. -1.
        -13    1    4    4    0    0  0.35565485060E+01  0.65901396445E+01 -0.15716585352E+02  0.17409801750E+02  0.10566000000E+00 0.  1.
         14    1    4    4    0    0  0.99452370807E+01  0.20297897514E+02 -0.50427224714E+02  0.55261355181E+02  0.00000000000E+00 0. -1.
<mgrwt>
<rscale>  0 0.81445098E+02</rscale>
<asrwt>0</asrwt>
<pdfrwt beam="1">  1        1 0.13264002E-02 0.81445098E+02</pdfrwt>
<pdfrwt beam="2">  1       -2 0.29591612E-01 0.81445098E+02</pdfrwt>
<totfact> 0.82513481E+04</totfact>
</mgrwt>
</event>
<event>
 8    1  0.7756875E-018  0.7656377E+02  0.7818608E-02  0.1339096E+00
         -2   -1    0    0    0  501 -0.00000000000E+00  0.00000000000E+00  0.71098941437E+01  0.71098946010E+01  0.25500000000E-02 0.  1.
          1   -1    0    0  501    0  0.00000000000E+00 -0.00000000000E+00 -0.20612158839E+03  0.20612158845E+03  0.50400000000E-02 0. -1.
        -24    2    1    2    0    0  0.00000000000E+00  0.35527136788E-14 -0.19901169425E+03  0.21323148306E+03  0.76563770271E+02 0.  0.
         66    2    3    3    0    0  0.19267906533E+02  0.29700246274E+02 -0.59201266221E+02  0.69008309465E+02  0.20000005574E+01 0.  0.
         13    1    3    3    0    0 -0.19267906533E+02 -0.29700246274E+02 -0.13981042803E+03  0.14422317359E+03  0.10566000000E+00 0. -1.
         13    1    4    4    0    0  0.11781166663E+02  0.19003970931E+02 -0.37660743408E+02  0.43798282582E+02  0.10566000000E+00 0. -1.
        -13    1    4    4    0    0  0.62387577039E+01  0.90929824754E+01 -0.17448372817E+02  0.20641252530E+02  0.10566000000E+00 0.  1.
         14    1    4    4    0    0  0.12479821663E+01  0.16032928673E+01 -0.40921499957E+01  0.45687743535E+01  0.00000000000E+00 0. -1.
<mgrwt>
<rscale>  0 0.76563770E+02</rscale>
<asrwt>0</asrwt>
<pdfrwt beam="1">  1        1 0.31711009E-01 0.76563770E+02</pdfrwt>
<pdfrwt beam="2">  1       -2 0.10938301E-02 0.76563770E+02</pdfrwt>
<totfact> 0.18838748E+05</totfact>
</mgrwt>
</event>
<event>
 8    1  0.7756875E-018  0.7925628E+02  0.7818608E-02  0.1331175E+00
         -2   -1    0    0    0  501 -0.00000000000E+00  0.00000000000E+00  0.27181723635E+02  0.27181723755E+02  0.25500000000E-02 0.  1.
          1   -1    0    0  501    0  0.00000000000E+00 -0.00000000000E+00 -0.57773731415E+02  0.57773731635E+02  0.50400000000E-02 0. -1.
        -24    2    1    2    0    0  0.00000000000E+00  0.00000000000E+00 -0.30592007780E+02  0.84955455390E+02  0.79256283413E+02 0.  0.
         66    2    3    3    0    0 -0.14731534570E+02  0.15647011864E+02  0.20350942378E+02  0.29664927938E+02  0.20000007101E+01 0.  0.
         13    1    3    3    0    0  0.14731534570E+02 -0.15647011864E+02 -0.50942950158E+02  0.55290527452E+02  0.10566000000E+00 0. -1.
         13    1    4    4    0    0 -0.42889536189E+00  0.92630524222E+00  0.82879966336E+00  0.13191154426E+01  0.10566000000E+00 0. -1.
        -13    1    4    4    0    0 -0.10458182706E+02  0.10283626852E+02  0.14395203272E+02  0.20551389443E+02  0.10566000000E+00 0.  1.
        -14    1    4    4    0    0 -0.38444565020E+01  0.44370797693E+01  0.51269394422E+01  0.77944230524E+01  0.00000000000E+00 0.  1.
<mgrwt>
<rscale>  0 0.79256283E+02</rscale>
<asrwt>0</asrwt>
<pdfrwt beam="1">  1        1 0.88882664E-02 0.79256283E+02</pdfrwt>
<pdfrwt beam="2">  1       -2 0.41818037E-02 0.79256283E+02</pdfrwt>
<totfact> 0.13809951E+05</totfact>
</mgrwt>
</event>
<event>
 8    1  0.7756875E-018  0.7954188E+02  0.7818608E-02  0.1330357E+00
          1   -1    0    0  501    0  0.00000000000E+00  0.00000000000E+00  0.20805514228E+02  0.20805514838E+02  0.50400000000E-02 0. -1.
         -2   -1    0    0    0  501 -0.00000000000E+00 -0.00000000000E+00 -0.76024443424E+02  0.76024443467E+02  0.25500000000E-02 0.  1.
        -24    2    1    2    0    0 -0.17763568394E-14  0.00000000000E+00 -0.55218929197E+02  0.96829958305E+02  0.79541880062E+02 0.  0.
         66    2    3    3    0    0 -0.11853744221E+02 -0.16804353632E+02 -0.69031391324E+02  0.72057133938E+02  0.20000025421E+01 0.  0.
         13    1    3    3    0    0  0.11853744221E+02  0.16804353632E+02  0.13812462127E+02  0.24772824367E+02  0.10566000000E+00 0. -1.
         13    1    4    4    0    0 -0.46472847147E+01 -0.61231823718E+01 -0.23090647674E+02  0.24336799124E+02  0.10566000000E+00 0. -1.
        -13    1    4    4    0    0 -0.69582271897E+01 -0.10406483383E+02 -0.44086657175E+02  0.45829644630E+02  0.10566000000E+00 0.  1.
         14    1    4    4    0    0 -0.24823231636E+00 -0.27468787760E+00 -0.18540864754E+01  0.18906901838E+01  0.00000000000E+00 0. -1.
<mgrwt>
<rscale>  0 0.79541880E+02</rscale>
<asrwt>0</asrwt>
<pdfrwt beam="1">  1        1 0.32008484E-02 0.79541880E+02</pdfrwt>
<pdfrwt beam="2">  1       -2 0.11696068E-01 0.79541880E+02</pdfrwt>
<totfact> 0.11464331E+05</totfact>
</mgrwt>
</event>
<event>
 8    1  0.7756875E-018  0.8184349E+02  0.7818608E-02  0.1323900E+00
          1   -1    0    0  501    0  0.00000000000E+00  0.00000000000E+00  0.43082890879E+03  0.43082890882E+03  0.50400000000E-02 0. -1.
         -2   -1    0    0    0  501 -0.00000000000E+00 -0.00000000000E+00 -0.38869002309E+01  0.38869010673E+01  0.25500000000E-02 0.  1.
        -24    2    1    2    0    0 -0.71054273576E-14 -0.17763568394E-14  0.42694200856E+03  0.43471580989E+03  0.81843489008E+02 0.  0.
         66    2    3    3    0    0  0.40407971517E+02  0.48545246136E+01  0.19221056314E+03  0.19648224129E+03  0.19999976162E+01 0.  0.
         13    1    3    3    0    0 -0.40407971517E+02 -0.48545246136E+01  0.23473144542E+03  0.23823356859E+03  0.10566000000E+00 0. -1.
         13    1    4    4    0    0  0.29851831301E+00 -0.82719701008E-01  0.14341955508E+01  0.14710664994E+01  0.10566000000E+00 0.  1.
        -13    1    4    4    0    0  0.30616877262E+01  0.51925856506E+00  0.15195677046E+02  0.15510104001E+02  0.10566000000E+00 0. -1.
        -14    1    4    4    0    0  0.37047765477E+02  0.44179857495E+01  0.17558069054E+03  0.17950107079E+03  0.00000000000E+00 0.  1.
<mgrwt>
<rscale>  0 0.81843489E+02</rscale>
<asrwt>0</asrwt>
<pdfrwt beam="1">  1        1 0.66281336E-01 0.81843489E+02</pdfrwt>
<pdfrwt beam="2">  1       -2 0.59798503E-03 0.81843489E+02</pdfrwt>
<totfact> 0.18100450E+05</totfact>
</mgrwt>
</event>
<event>
 8    1  0.7756875E-018  0.7881933E+02  0.7818608E-02  0.1332436E+00
          1   -1    0    0  501    0  0.00000000000E+00  0.00000000000E+00  0.15033894554E+03  0.15033894562E+03  0.50400000000E-02 0. -1.
         -2   -1    0    0    0  501 -0.00000000000E+00 -0.00000000000E+00 -0.10330801260E+02  0.10330801574E+02  0.25500000000E-02 0.  1.
        -24    2    1    2    0    0 -0.35527136788E-14  0.00000000000E+00  0.14000814428E+03  0.16066974720E+03  0.78819332654E+02 0.  0.
         66    2    3    3    0    0  0.28412335976E+02 -0.23076606203E+02  0.40415850401E+02  0.54564013360E+02  0.20000001947E+01 0.  0.
         13    1    3    3    0    0 -0.28412335976E+02  0.23076606203E+02  0.99592293876E+02  0.10610573384E+03  0.10566000000E+00 0. -1.
         13    1    4    4    0    0  0.33385065683E+01 -0.32968978585E+01  0.54859964927E+01  0.72195902342E+01  0.10566000000E+00 0. -1.
        -13    1    4    4    0    0  0.10288210901E+02 -0.82441030608E+01  0.13561572567E+02  0.18914014205E+02  0.10566000000E+00 0.  1.
        -14    1    4    4    0    0  0.14785618507E+02 -0.11535605284E+02  0.21368281341E+02  0.28430408920E+02  0.00000000000E+00 0.  1.
<mgrwt>
<rscale>  0 0.78819333E+02</rscale>
<asrwt>0</asrwt>
<pdfrwt beam="1">  1        1 0.23129068E-01 0.78819333E+02</pdfrwt>
<pdfrwt beam="2">  1       -2 0.15893541E-02 0.78819333E+02</pdfrwt>
<totfact> 0.16434573E+05</totfact>
</mgrwt>
</event>
<event>
 8    1  0.7756875E-018  0.8036810E+02  0.7818608E-02  0.1328010E+00
         -2   -1    0    0    0  501 -0.00000000000E+00  0.00000000000E+00  0.12535308787E+03  0.12535308790E+03  0.25500000000E-02 0.  1.
          1   -1    0    0  501    0  0.00000000000E+00 -0.00000000000E+00 -0.12881675692E+02  0.12881676678E+02  0.50400000000E-02 0. -1.
        -24    2    1    2    0    0  0.00000000000E+00 -0.35527136788E-14  0.11247141218E+03  0.13823476458E+03  0.80368100511E+02 0.  0.
         66    2    3    3    0    0 -0.26773100075E+02 -0.16008292088E+02  0.99773302799E+02  0.10455513499E+03  0.19999995852E+01 0.  0.
         13    1    3    3    0    0  0.26773100075E+02  0.16008292088E+02  0.12698109382E+02  0.33679629586E+02  0.10566000000E+00 0. -1.
         13    1    4    4    0    0 -0.74746855077E+01 -0.47775245499E+01  0.30688955755E+02  0.31945560469E+02  0.10566000000E+00 0. -1.
        -13    1    4    4    0    0 -0.12055487407E+02 -0.65149335112E+01  0.41778847765E+02  0.43968880130E+02  0.10566000000E+00 0.  1.
         14    1    4    4    0    0 -0.72429271601E+01 -0.47158340265E+01  0.27305499278E+02  0.28640694392E+02  0.00000000000E+00 0. -1.
<mgrwt>
<rscale>  0 0.80368101E+02</rscale>
<asrwt>0</asrwt>
<pdfrwt beam="1">  1        1 0.19817964E-02 0.80368101E+02</pdfrwt>
<pdfrwt beam="2">  1       -2 0.19285090E-01 0.80368101E+02</pdfrwt>
<totfact> 0.98723888E+04</totfact>
</mgrwt>
</event>
<event>
 8    1  0.7756875E-018  0.8004249E+02  0.7818608E-02  0.1328931E+00
          1   -1    0    0  501    0  0.00000000000E+00  0.00000000000E+00  0.23672874554E+02  0.23672875090E+02  0.50400000000E-02 0. -1.
         -2   -1    0    0    0  501 -0.00000000000E+00 -0.00000000000E+00 -0.67659723492E+02  0.67659723540E+02  0.25500000000E-02 0.  1.
        -24    2    1    2    0    0  0.00000000000E+00  0.00000000000E+00 -0.43986848938E+02  0.91332598630E+02  0.80042493046E+02 0.  0.
         66    2    3    3    0    0 -0.23544560111E+02  0.23387509217E+02 -0.47480264258E+02  0.57962896611E+02  0.19999978479E+01 0.  0.
         13    1    3    3    0    0  0.23544560111E+02 -0.23387509217E+02  0.34934153198E+01  0.33369702019E+02  0.10566000000E+00 0. -1.
         13    1    4    4    0    0 -0.25881082454E+01  0.29082740096E+01 -0.54681936172E+01  0.67133201529E+01  0.10566000000E+00 0. -1.
        -13    1    4    4    0    0 -0.57503325009E+01  0.60073028234E+01 -0.13196573000E+02  0.15598548460E+02  0.10566000000E+00 0.  1.
        -14    1    4    4    0    0 -0.15206119365E+02  0.14471932384E+02 -0.28815497641E+02  0.35651027998E+02  0.00000000000E+00 0.  1.
<mgrwt>
<rscale>  0 0.80042493E+02</rscale>
<asrwt>0</asrwt>
<pdfrwt beam="1">  1        1 0.36419808E-02 0.80042493E+02</pdfrwt>
<pdfrwt beam="2">  1       -2 0.10409188E-01 0.80042493E+02</pdfrwt>
<totfact> 0.11553627E+05</totfact>
</mgrwt>
</event>
<event>
 8    1  0.7756875E-018  0.7960323E+02  0.7818608E-02  0.1330181E+00
         -2   -1    0    0    0  501 -0.00000000000E+00  0.00000000000E+00  0.12275970494E+03  0.12275970497E+03  0.25500000000E-02 0.  1.
          1   -1    0    0  501    0  0.00000000000E+00 -0.00000000000E+00 -0.12904628662E+02  0.12904629646E+02  0.50400000000E-02 0. -1.
        -24    2    1    2    0    0  0.35527136788E-14  0.00000000000E+00  0.10985507628E+03  0.13566433461E+03  0.79603227961E+02 0.  0.
         66    2    3    3    0    0  0.22922221763E+02 -0.30277219686E+02  0.75128969338E+02  0.84205108523E+02  0.19999962806E+01 0.  0.
         13    1    3    3    0    0 -0.22922221763E+02  0.30277219686E+02  0.34726106941E+02  0.51459226090E+02  0.10566000000E+00 0. -1.
         13    1    4    4    0    0  0.91068627298E+01 -0.11294132330E+02  0.27401163385E+02  0.31005278466E+02  0.10566000000E+00 0. -1.
        -13    1    4    4    0    0  0.49689988712E+01 -0.62923851694E+01  0.15482070555E+02  0.17435330040E+02  0.10566000000E+00 0.  1.
         14    1    4    4    0    0  0.88463601622E+01 -0.12690702186E+02  0.32245735398E+02  0.35764500017E+02  0.00000000000E+00 0. -1.
<mgrwt>
<rscale>  0 0.79603228E+02</rscale>
<asrwt>0</asrwt>
<pdfrwt beam="1">  1        1 0.19853277E-02 0.79603228E+02</pdfrwt>
<pdfrwt beam="2">  1       -2 0.18886108E-01 0.79603228E+02</pdfrwt>
<totfact> 0.10178828E+05</totfact>
</mgrwt>
</event>
<event>
 8    1  0.7756875E-018  0.8206152E+02  0.7818608E-02  0.1323301E+00
         -2   -1    0    0    0  501 -0.00000000000E+00  0.00000000000E+00  0.87596522263E+01  0.87596525975E+01  0.25500000000E-02 0.  1.
          1   -1    0    0  501    0  0.00000000000E+00 -0.00000000000E+00 -0.19219064270E+03  0.19219064276E+03  0.50400000000E-02 0. -1.
        -24    2    1    2    0    0  0.00000000000E+00  0.35527136788E-14 -0.18343099047E+03  0.20095029536E+03  0.82061519243E+02 0.  0.
         66    2    3    3    0    0  0.52073473272E+01 -0.28005267139E+02 -0.19536867656E+02  0.34599142341E+02  0.19999998031E+01 0.  0.
         13    1    3    3    0    0 -0.52073473272E+01  0.28005267139E+02 -0.16389412281E+03  0.16635115302E+03  0.10566000000E+00 0. -1.
         13    1    4    4    0    0  0.91974806796E+00 -0.65733973982E+01 -0.40395348741E+01  0.77707461610E+01  0.10566000000E+00 0. -1.
        -13    1    4    4    0    0  0.35768428673E+01 -0.19716025348E+02 -0.14328659468E+02  0.24634063948E+02  0.10566000000E+00 0.  1.
        -14    1    4    4    0    0  0.71075639194E+00 -0.17158443930E+01 -0.11686733138E+01  0.21943322319E+01  0.00000000000E+00 0.  1.
<mgrwt>
<rscale>  0 0.82061519E+02</rscale>
<asrwt>0</asrwt>
<pdfrwt beam="1">  1        1 0.29567788E-01 0.82061519E+02</pdfrwt>
<pdfrwt beam="2">  1       -2 0.13476390E-02 0.82061519E+02</pdfrwt>
<totfact> 0.15462702E+05</totfact>
</mgrwt>
</event>
<event>
 8    1  0.7756875E-018  0.8208429E+02  0.7818608E-02  0.1323238E+00
         -2   -1    0    0    0  501 -0.00000000000E+00  0.00000000000E+00  0.35377207885E+02  0.35377207977E+02  0.25500000000E-02 0.  1.
          1   -1    0    0  501    0  0.00000000000E+00 -0.00000000000E+00 -0.47614201868E+02  0.47614202135E+02  0.50400000000E-02 0. -1.
        -24    2    1    2    0    0  0.00000000000E+00  0.17763568394E-14 -0.12236993983E+02  0.82991410112E+02  0.82084286746E+02 0.  0.
         66    2    3    3    0    0  0.37564132629E+02 -0.11402512519E+02  0.58992400019E+01  0.39747734283E+02  0.19999990326E+01 0.  0.
         13    1    3    3    0    0 -0.37564132629E+02  0.11402512519E+02 -0.18136233985E+02  0.43243675828E+02  0.10566000000E+00 0. -1.
         13    1    4    4    0    0  0.21787694075E+02 -0.66688623997E+01  0.32083166709E+01  0.23010471502E+02  0.10566000000E+00 0. -1.
        -13    1    4    4    0    0  0.11175985310E+02 -0.27517042802E+01  0.18971165538E+01  0.11665536393E+02  0.10566000000E+00 0.  1.
         14    1    4    4    0    0  0.46004532442E+01 -0.19819458391E+01  0.79380677720E+00  0.50717263886E+01  0.00000000000E+00 0. -1.
<mgrwt>
<rscale>  0 0.82084287E+02</rscale>
<asrwt>0</asrwt>
<pdfrwt beam="1">  1        1 0.73252619E-02 0.82084287E+02</pdfrwt>
<pdfrwt beam="2">  1       -2 0.54426474E-02 0.82084287E+02</pdfrwt>
<totfact> 0.12150452E+05</totfact>
</mgrwt>
</event>
<event>
 8    1  0.7756875E-018  0.8001032E+02  0.7818608E-02  0.1329022E+00
          1   -1    0    0  501    0  0.00000000000E+00  0.00000000000E+00  0.30830542461E+02  0.30830542873E+02  0.50400000000E-02 0. -1.
         -2   -1    0    0    0  501 -0.00000000000E+00 -0.00000000000E+00 -0.51909981185E+02  0.51909981248E+02  0.25500000000E-02 0.  1.
        -24    2    1    2    0    0  0.35527136788E-14  0.35527136788E-14 -0.21079438725E+02  0.82740524121E+02  0.80010321802E+02 0.  0.
         66    2    3    3    0    0 -0.20333132022E+02 -0.24431443002E+02 -0.35624066121E+02  0.47784995014E+02  0.19999991232E+01 0.  0.
         13    1    3    3    0    0  0.20333132022E+02  0.24431443002E+02  0.14544627396E+02  0.34955529107E+02  0.10566000000E+00 0. -1.
         13    1    4    4    0    0 -0.17781398045E+01 -0.26935947651E+01 -0.33222979684E+01  0.46331481467E+01  0.10566000000E+00 0. -1.
        -13    1    4    4    0    0 -0.13546218822E+02 -0.16339821972E+02 -0.23200978436E+02  0.31444974016E+02  0.10566000000E+00 0.  1.
         14    1    4    4    0    0 -0.50087733957E+01 -0.53980262652E+01 -0.91007897166E+01  0.11706872851E+02  0.00000000000E+00 0. -1.
<mgrwt>
<rscale>  0 0.80010322E+02</rscale>
<asrwt>0</asrwt>
<pdfrwt beam="1">  1        1 0.47431604E-02 0.80010322E+02</pdfrwt>
<pdfrwt beam="2">  1       -2 0.79861510E-02 0.80010322E+02</pdfrwt>
<totfact> 0.12148643E+05</totfact>
</mgrwt>
</event>
<event>
 8    1  0.7756875E-018  0.8039076E+02  0.7818608E-02  0.1327946E+00
          1   -1    0    0  501    0  0.00000000000E+00  0.00000000000E+00  0.31980161710E+01  0.31980201425E+01  0.50400000000E-02 0. -1.
         -2   -1    0    0    0  501 -0.00000000000E+00 -0.00000000000E+00 -0.50520929093E+03  0.50520929093E+03  0.25500000000E-02 0.  1.
        -24    2    1    2    0    0 -0.35527136788E-14  0.00000000000E+00 -0.50201127475E+03  0.50840731107E+03  0.80390758010E+02 0.  0.
         66    2    3    3    0    0 -0.18131268903E+02  0.64758665068E+01 -0.47412643228E+03  0.47452139420E+03  0.20000000499E+01 0.  0.
         13    1    3    3    0    0  0.18131268903E+02 -0.64758665068E+01 -0.27884842470E+02  0.33885916878E+02  0.10566000000E+00 0. -1.
         13    1    4    4    0    0 -0.26280785542E+01  0.41967788561E+00 -0.55472972367E+02  0.55536877421E+02  0.10566000000E+00 0. -1.
        -13    1    4    4    0    0 -0.11106498975E+02  0.40894600594E+01 -0.29710191754E+03  0.29733758352E+03  0.10566000000E+00 0.  1.
         14    1    4    4    0    0 -0.43966913744E+01  0.19667285618E+01 -0.12155154237E+03  0.12164693325E+03  0.00000000000E+00 0. -1.
<mgrwt>
<rscale>  0 0.80390758E+02</rscale>
<asrwt>0</asrwt>
<pdfrwt beam="1">  1        1 0.49200320E-03 0.80390758E+02</pdfrwt>
<pdfrwt beam="2">  1       -2 0.77724443E-01 0.80390758E+02</pdfrwt>
<totfact> 0.49362249E+04</totfact>
</mgrwt>
</event>
<event>
 8    1  0.7756875E-018  0.8059004E+02  0.7818608E-02  0.1327385E+00
          1   -1    0    0  501    0  0.00000000000E+00  0.00000000000E+00  0.76646539846E+02  0.76646540011E+02  0.50400000000E-02 0. -1.
         -2   -1    0    0    0  501 -0.00000000000E+00 -0.00000000000E+00 -0.21184106811E+02  0.21184106964E+02  0.25500000000E-02 0.  1.
        -24    2    1    2    0    0  0.00000000000E+00  0.00000000000E+00  0.55462433035E+02  0.97830646976E+02  0.80590036664E+02 0.  0.
         66    2    3    3    0    0 -0.17358482272E+02 -0.18291002474E+02 -0.10366167905E+02  0.27337430678E+02  0.20000001828E+01 0.  0.
         13    1    3    3    0    0  0.17358482272E+02  0.18291002474E+02  0.65828600940E+02  0.70493216298E+02  0.10566000000E+00 0. -1.
         13    1    4    4    0    0 -0.34205679957E+01 -0.28843103713E+01 -0.13133979302E+01  0.46643016508E+01  0.10566000000E+00 0. -1.
        -13    1    4    4    0    0 -0.91706992070E+01 -0.96479886594E+01 -0.57767719841E+01  0.14510949924E+02  0.10566000000E+00 0.  1.
         14    1    4    4    0    0 -0.47672150690E+01 -0.57587034435E+01 -0.32759979909E+01  0.81621791025E+01  0.00000000000E+00 0. -1.
<mgrwt>
<rscale>  0 0.80590037E+02</rscale>
<asrwt>0</asrwt>
<pdfrwt beam="1">  1        1 0.11791776E-01 0.80590037E+02</pdfrwt>
<pdfrwt beam="2">  1       -2 0.32590933E-02 0.80590037E+02</pdfrwt>
<totfact> 0.13792827E+05</totfact>
</mgrwt>
</event>
<event>
 8    1  0.7756875E-018  0.7876742E+02  0.7818608E-02  0.1332586E+00
          1   -1    0    0  501    0  0.00000000000E+00  0.00000000000E+00  0.24387312626E+03  0.24387312631E+03  0.50400000000E-02 0. -1.
         -2   -1    0    0    0  501 -0.00000000000E+00 -0.00000000000E+00 -0.63601784826E+01  0.63601789938E+01  0.25500000000E-02 0.  1.
        -24    2    1    2    0    0  0.00000000000E+00  0.00000000000E+00  0.23751294778E+03  0.25023330531E+03  0.78767421708E+02 0.  0.
         66    2    3    3    0    0 -0.22334516264E+02  0.29279269557E+02  0.74702378191E+02  0.83309972678E+02  0.19999994142E+01 0.  0.
         13    1    3    3    0    0  0.22334516264E+02 -0.29279269557E+02  0.16281056959E+03  0.16692333263E+03  0.10566000000E+00 0. -1.
         13    1    4    4    0    0 -0.19884864485E+01  0.21656377570E+01  0.58568596183E+01  0.65542378561E+01  0.10566000000E+00 0. -1.
        -13    1    4    4    0    0 -0.98488348419E+01  0.14460235010E+02  0.35699882648E+02  0.39756643840E+02  0.10566000000E+00 0.  1.
        -14    1    4    4    0    0 -0.10497194974E+02  0.12653396790E+02  0.33145635925E+02  0.36999090982E+02  0.00000000000E+00 0.  1.
<mgrwt>
<rscale>  0 0.78767422E+02</rscale>
<asrwt>0</asrwt>
<pdfrwt beam="1">  1        1 0.37518944E-01 0.78767422E+02</pdfrwt>
<pdfrwt beam="2">  1       -2 0.97848899E-03 0.78767422E+02</pdfrwt>
<totfact> 0.18057349E+05</totfact>
</mgrwt>
</event>
<event>
 8    1  0.7756875E-018  0.8066595E+02  0.7818608E-02  0.1327172E+00
          1   -1    0    0  501    0  0.00000000000E+00  0.00000000000E+00  0.26055346026E+02  0.26055346514E+02  0.50400000000E-02 0. -1.
         -2   -1    0    0    0  501 -0.00000000000E+00 -0.00000000000E+00 -0.62434362612E+02  0.62434362664E+02  0.25500000000E-02 0.  1.
        -24    2    1    2    0    0  0.00000000000E+00  0.71054273576E-14 -0.36379016586E+02  0.88489709178E+02  0.80665951817E+02 0.  0.
         66    2    3    3    0    0 -0.21454817256E+02  0.34123751141E+02 -0.18273411700E+02  0.44301886560E+02  0.20000005366E+01 0.  0.
         13    1    3    3    0    0  0.21454817256E+02 -0.34123751141E+02 -0.18105604885E+02  0.44187822618E+02  0.10566000000E+00 0. -1.
         13    1    4    4    0    0 -0.19500264793E+01  0.33337948519E+01 -0.12733590097E+01  0.40680952039E+01  0.10566000000E+00 0. -1.
        -13    1    4    4    0    0 -0.17859103517E+02  0.27830577849E+02 -0.15122660960E+02  0.36361995000E+02  0.10566000000E+00 0.  1.
        -14    1    4    4    0    0 -0.16456872590E+01  0.29593784406E+01 -0.18773917312E+01  0.38717963559E+01  0.00000000000E+00 0.  1.
<mgrwt>
<rscale>  0 0.80665952E+02</rscale>
<asrwt>0</asrwt>
<pdfrwt beam="1">  1        1 0.40085148E-02 0.80665952E+02</pdfrwt>
<pdfrwt beam="2">  1       -2 0.96052865E-02 0.80665952E+02</pdfrwt>
<totfact> 0.11506549E+05</totfact>
</mgrwt>
</event>
<event>
 8    1  0.7756875E-018  0.8069770E+02  0.7818608E-02  0.1327083E+00
          1   -1    0    0  501    0  0.00000000000E+00  0.00000000000E+00  0.78134864589E+02  0.78134864752E+02  0.50400000000E-02 0. -1.
         -2   -1    0    0    0  501 -0.00000000000E+00 -0.00000000000E+00 -0.20836150603E+02  0.20836150759E+02  0.25500000000E-02 0.  1.
        -24    2    1    2    0    0  0.00000000000E+00  0.00000000000E+00  0.57298713987E+02  0.98971015510E+02  0.80697703106E+02 0.  0.
         66    2    3    3    0    0 -0.28003600612E+02  0.52728070212E+01 -0.63247572389E+01  0.29257592155E+02  0.20000008584E+01 0.  0.
         13    1    3    3    0    0  0.28003600612E+02 -0.52728070212E+01  0.63623471225E+02  0.69713423355E+02  0.10566000000E+00 0. -1.
         13    1    4    4    0    0 -0.89866174121E+01  0.24282275297E+01 -0.19044086962E+01  0.95022901431E+01  0.10566000000E+00 0. -1.
        -13    1    4    4    0    0 -0.79971477614E+01  0.15542912849E+01 -0.22140352758E+01  0.84429443889E+01  0.10566000000E+00 0.  1.
         14    1    4    4    0    0 -0.11019835439E+02  0.12902882067E+01 -0.22063132669E+01  0.11312357623E+02  0.00000000000E+00 0. -1.
<mgrwt>
<rscale>  0 0.80697703E+02</rscale>
<asrwt>0</asrwt>
<pdfrwt beam="1">  1        1 0.12020748E-01 0.80697703E+02</pdfrwt>
<pdfrwt beam="2">  1       -2 0.32055617E-02 0.80697703E+02</pdfrwt>
<totfact> 0.13785295E+05</totfact>
</mgrwt>
</event>
<event>
 8    1  0.7756875E-018  0.8043320E+02  0.7818608E-02  0.1327827E+00
         -2   -1    0    0    0  501 -0.00000000000E+00  0.00000000000E+00  0.28740023653E+02  0.28740023766E+02  0.25500000000E-02 0.  1.
          1   -1    0    0  501    0  0.00000000000E+00 -0.00000000000E+00 -0.56276045052E+02  0.56276045277E+02  0.50400000000E-02 0. -1.
        -24    2    1    2    0    0  0.00000000000E+00  0.00000000000E+00 -0.27536021398E+02  0.85016069044E+02  0.80433199123E+02 0.  0.
         66    2    3    3    0    0 -0.32455352426E+02 -0.68204196934E+01  0.10221818615E+02  0.34761380979E+02  0.20000014675E+01 0.  0.
         13    1    3    3    0    0  0.32455352426E+02  0.68204196934E+01 -0.37757840014E+02  0.50254688064E+02  0.10566000000E+00 0. -1.
         13    1    4    4    0    0 -0.10273623187E+02 -0.17846549622E+01  0.38809399551E+01  0.11126777866E+02  0.10566000000E+00 0. -1.
        -13    1    4    4    0    0 -0.10071619006E+02 -0.27785441422E+01  0.30234439103E+01  0.10877048959E+02  0.10566000000E+00 0.  1.
        -14    1    4    4    0    0 -0.12110110234E+02 -0.22572205890E+01  0.33174347498E+01  0.12757554154E+02  0.00000000000E+00 0.  1.
<mgrwt>
<rscale>  0 0.80433199E+02</rscale>
<asrwt>0</asrwt>
<pdfrwt beam="1">  1        1 0.86578531E-02 0.80433199E+02</pdfrwt>
<pdfrwt beam="2">  1       -2 0.44215421E-02 0.80433199E+02</pdfrwt>
<totfact> 0.13204601E+05</totfact>
</mgrwt>
</event>
<event>
 8    1  0.7756875E-018  0.8019816E+02  0.7818608E-02  0.1328490E+00
          1   -1    0    0  501    0  0.00000000000E+00  0.00000000000E+00  0.26535533572E+03  0.26535533577E+03  0.50400000000E-02 0. -1.
         -2   -1    0    0    0  501 -0.00000000000E+00 -0.00000000000E+00 -0.60595581237E+01  0.60595586603E+01  0.25500000000E-02 0.  1.
        -24    2    1    2    0    0  0.00000000000E+00  0.00000000000E+00  0.25929577760E+03  0.27141489443E+03  0.80198158571E+02 0.  0.
         66    2    3    3    0    0 -0.23774902096E+02 -0.32214132890E+02  0.13552609803E+03  0.14133053306E+03  0.20000003726E+01 0.  0.
         13    1    3    3    0    0  0.23774902096E+02  0.32214132890E+02  0.12376967957E+03  0.13008436137E+03  0.10566000000E+00 0. -1.
         13    1    4    4    0    0 -0.59606571550E+01 -0.73979179859E+01  0.32852103045E+02  0.34198398541E+02  0.10566000000E+00 0. -1.
        -13    1    4    4    0    0 -0.48178499997E+01 -0.68922354498E+01  0.30559846516E+02  0.31695898334E+02  0.10566000000E+00 0.  1.
         14    1    4    4    0    0 -0.12996394941E+02 -0.17923979454E+02  0.72114148466E+02  0.75436236186E+02  0.00000000000E+00 0. -1.
<mgrwt>
<rscale>  0 0.80198159E+02</rscale>
<asrwt>0</asrwt>
<pdfrwt beam="1">  1        1 0.40823903E-01 0.80198159E+02</pdfrwt>
<pdfrwt beam="2">  1       -2 0.93223963E-03 0.80198159E+02</pdfrwt>
<totfact> 0.17504294E+05</totfact>
</mgrwt>
</event>
<event>
 8    1  0.7756875E-018  0.7761009E+02  0.7818608E-02  0.1335974E+00
          1   -1    0    0  501    0  0.00000000000E+00  0.00000000000E+00  0.10136044132E+02  0.10136045385E+02  0.50400000000E-02 0. -1.
         -2   -1    0    0    0  501 -0.00000000000E+00 -0.00000000000E+00 -0.14856204355E+03  0.14856204358E+03  0.25500000000E-02 0.  1.
        -24    2    1    2    0    0  0.35527136788E-14  0.00000000000E+00 -0.13842599942E+03  0.15869808896E+03  0.77610090348E+02 0.  0.
         66    2    3    3    0    0  0.25040229643E+02 -0.29124418629E+02 -0.58326875679E+02  0.69866080937E+02  0.19999945045E+01 0.  0.
         13    1    3    3    0    0 -0.25040229643E+02  0.29124418629E+02 -0.80099123743E+02  0.88832008024E+02  0.10566000000E+00 0. -1.
         13    1    4    4    0    0  0.84081168772E+01 -0.10107483611E+02 -0.20525347585E+02  0.24375371011E+02  0.10566000000E+00 0. -1.
        -13    1    4    4    0    0  0.47829385817E+00 -0.27015807760E+00 -0.90375699010E+00  0.10628692932E+01  0.10566000000E+00 0.  1.
        -14    1    4    4    0    0  0.16153818907E+02 -0.18746776941E+02 -0.36897771103E+02  0.44427840633E+02  0.00000000000E+00 0.  1.
<mgrwt>
<rscale>  0 0.77610090E+02</rscale>
<asrwt>0</asrwt>
<pdfrwt beam="1">  1        1 0.15593916E-02 0.77610090E+02</pdfrwt>
<pdfrwt beam="2">  1       -2 0.22855697E-01 0.77610090E+02</pdfrwt>
<totfact> 0.10249830E+05</totfact>
</mgrwt>
</event>
<event>
 8    1  0.7756875E-018  0.7994040E+02  0.7818608E-02  0.1329221E+00
         -2   -1    0    0    0  501 -0.00000000000E+00  0.00000000000E+00  0.28108721093E+02  0.28108721208E+02  0.25500000000E-02 0.  1.
          1   -1    0    0  501    0  0.00000000000E+00 -0.00000000000E+00 -0.56837059260E+02  0.56837059484E+02  0.50400000000E-02 0. -1.
        -24    2    1    2    0    0  0.35527136788E-14  0.35527136788E-14 -0.28728338168E+02  0.84945780692E+02  0.79940404324E+02 0.  0.
         66    2    3    3    0    0 -0.29526811656E+02 -0.23088647179E+02  0.30070709325E+00  0.37536763955E+02  0.19999970874E+01 0.  0.
         13    1    3    3    0    0  0.29526811656E+02  0.23088647179E+02 -0.29029045261E+02  0.47409016737E+02  0.10566000000E+00 0. -1.
         13    1    4    4    0    0 -0.14653487761E+02 -0.10967881600E+02 -0.49216324766E+00  0.18310448358E+02  0.10566000000E+00 0.  1.
        -13    1    4    4    0    0 -0.76112642097E+01 -0.59003462651E+01  0.80190083798E+00  0.96643488092E+01  0.10566000000E+00 0.  1.
        -14    1    4    4    0    0 -0.72620596850E+01 -0.62204193143E+01 -0.90304970700E-02  0.95619667885E+01  0.00000000000E+00 0.  1.
<mgrwt>
<rscale>  0 0.79940404E+02</rscale>
<asrwt>0</asrwt>
<pdfrwt beam="1">  1        1 0.87441630E-02 0.79940404E+02</pdfrwt>
<pdfrwt beam="2">  1       -2 0.43244187E-02 0.79940404E+02</pdfrwt>
<totfact> 0.13451862E+05</totfact>
</mgrwt>
</event>
<event>
 8    1  0.7756875E-018  0.8284431E+02  0.7818608E-02  0.1321168E+00
         -2   -1    0    0    0  501 -0.00000000000E+00  0.00000000000E+00  0.28875503101E+03  0.28875503102E+03  0.25500000000E-02 0.  1.
          1   -1    0    0  501    0  0.00000000000E+00 -0.00000000000E+00 -0.59420421327E+01  0.59420442702E+01  0.50400000000E-02 0. -1.
        -24    2    1    2    0    0  0.00000000000E+00  0.00000000000E+00  0.28281298887E+03  0.29469707529E+03  0.82844308842E+02 0.  0.
         66    2    3    3    0    0 -0.31074346510E+02 -0.26829250664E+02  0.16043450374E+03  0.16561598260E+03  0.19999998944E+01 0.  0.
         13    1    3    3    0    0  0.31074346510E+02  0.26829250664E+02  0.12237848513E+03  0.12908109269E+03  0.10566000000E+00 0. -1.
         13    1    4    4    0    0 -0.94242415484E+01 -0.89060278254E+01  0.51673643073E+02  0.53275793873E+02  0.10566000000E+00 0. -1.
        -13    1    4    4    0    0 -0.10278452673E+02 -0.87197967682E+01  0.54429877781E+02  0.56074095662E+02  0.10566000000E+00 0.  1.
         14    1    4    4    0    0 -0.11371652289E+02 -0.92034260699E+01  0.54330982888E+02  0.56266093065E+02  0.00000000000E+00 0. -1.
<mgrwt>
<rscale>  0 0.82844309E+02</rscale>
<asrwt>0</asrwt>
<pdfrwt beam="1">  1        1 0.91416039E-03 0.82844309E+02</pdfrwt>
<pdfrwt beam="2">  1       -2 0.44423856E-01 0.82844309E+02</pdfrwt>
<totfact> 0.65527733E+04</totfact>
</mgrwt>
</event>
<event>
 8    1  0.7756875E-018  0.8006043E+02  0.7818608E-02  0.1328880E+00
          1   -1    0    0  501    0  0.00000000000E+00  0.00000000000E+00  0.18133794504E+02  0.18133795205E+02  0.50400000000E-02 0. -1.
         -2   -1    0    0    0  501 -0.00000000000E+00 -0.00000000000E+00 -0.88366400354E+02  0.88366400391E+02  0.25500000000E-02 0.  1.
        -24    2    1    2    0    0  0.00000000000E+00  0.00000000000E+00 -0.70232605850E+02  0.10650019560E+03  0.80060431784E+02 0.  0.
         66    2    3    3    0    0 -0.41969933995E+01  0.37204439927E+02 -0.53886065897E+02  0.65646730181E+02  0.19999954255E+01 0.  0.
         13    1    3    3    0    0  0.41969933995E+01 -0.37204439927E+02 -0.16346539952E+02  0.40853465414E+02  0.10566000000E+00 0. -1.
         13    1    4    4    0    0 -0.31276033484E+01  0.24214856930E+02 -0.33688875636E+02  0.41606402206E+02  0.10566000000E+00 0. -1.
        -13    1    4    4    0    0 -0.56509503554E+00  0.68109483110E+01 -0.10276520053E+02  0.12342057273E+02  0.10566000000E+00 0.  1.
         14    1    4    4    0    0 -0.50429501561E+00  0.61786346862E+01 -0.99206702086E+01  0.11698270703E+02  0.00000000000E+00 0. -1.
<mgrwt>
<rscale>  0 0.80060432E+02</rscale>
<asrwt>0</asrwt>
<pdfrwt beam="1">  1        1 0.27898147E-02 0.80060432E+02</pdfrwt>
<pdfrwt beam="2">  1       -2 0.13594831E-01 0.80060432E+02</pdfrwt>
<totfact> 0.10909982E+05</totfact>
</mgrwt>
</event>
<event>
 8    1  0.7756875E-018  0.8510455E+02  0.7818608E-02  0.1315159E+00
          1   -1    0    0  501    0  0.00000000000E+00  0.00000000000E+00  0.53357715231E+02  0.53357715469E+02  0.50400000000E-02 0. -1.
         -2   -1    0    0    0  501 -0.00000000000E+00 -0.00000000000E+00 -0.33935037580E+02  0.33935037675E+02  0.25500000000E-02 0.  1.
        -24    2    1    2    0    0  0.35527136788E-14  0.22204460493E-15  0.19422677651E+02  0.87292753144E+02  0.85104549493E+02 0.  0.
         66    2    3    3    0    0  0.28868523090E+02  0.19921525540E+01 -0.22250835685E+02  0.36557625520E+02  0.19999994316E+01 0.  0.
         13    1    3    3    0    0 -0.28868523090E+02 -0.19921525540E+01  0.41673513336E+02  0.50735127624E+02  0.10566000000E+00 0. -1.
         13    1    4    4    0    0  0.58664883332E+01  0.11329782089E+01 -0.48093327906E+01  0.76707347048E+01  0.10566000000E+00 0. -1.
        -13    1    4    4    0    0  0.13319717521E+02  0.78218062397E+00 -0.99511241164E+01  0.16645201008E+02  0.10566000000E+00 0.  1.
         14    1    4    4    0    0  0.96823172359E+01  0.76993721132E-01 -0.74903787782E+01  0.12241689807E+02  0.00000000000E+00 0. -1.
<mgrwt>
<rscale>  0 0.85104549E+02</rscale>
<asrwt>0</asrwt>
<pdfrwt beam="1">  1        1 0.82088793E-02 0.85104549E+02</pdfrwt>
<pdfrwt beam="2">  1       -2 0.52207750E-02 0.85104549E+02</pdfrwt>
<totfact> 0.11187311E+05</totfact>
</mgrwt>
</event>
<event>
 8    1  0.7756875E-018  0.7884027E+02  0.7818608E-02  0.1332375E+00
          1   -1    0    0  501    0  0.00000000000E+00  0.00000000000E+00  0.17170176406E+01  0.17170250376E+01  0.50400000000E-02 0. -1.
         -2   -1    0    0    0  501 -0.00000000000E+00 -0.00000000000E+00 -0.90502487471E+03  0.90502487471E+03  0.25500000000E-02 0.  1.
        -24    2    1    2    0    0  0.00000000000E+00 -0.17763568394E-14 -0.90330785707E+03  0.90674189975E+03  0.78840269665E+02 0.  0.
         66    2    3    3    0    0 -0.28207893742E+02  0.15340639006E+02 -0.71443921164E+03  0.71516320348E+03  0.20000022147E+01 0.  0.
         13    1    3    3    0    0  0.28207893742E+02 -0.15340639006E+02 -0.18886864543E+03  0.19157869627E+03  0.10566000000E+00 0. -1.
         13    1    4    4    0    0 -0.64735709922E+01  0.38087862367E+01 -0.15182538018E+03  0.15201108908E+03  0.10566000000E+00 0. -1.
        -13    1    4    4    0    0 -0.19005851684E+02  0.10312465829E+02 -0.49069889020E+03  0.49117510255E+03  0.10566000000E+00 0.  1.
        -14    1    4    4    0    0 -0.27284710653E+01  0.12193869399E+01 -0.71914941258E+02  0.71977011851E+02  0.00000000000E+00 0.  1.
<mgrwt>
<rscale>  0 0.78840270E+02</rscale>
<asrwt>0</asrwt>
<pdfrwt beam="1">  1        1 0.26415785E-03 0.78840270E+02</pdfrwt>
<pdfrwt beam="2">  1       -2 0.13923422E+00 0.78840270E+02</pdfrwt>
<totfact> 0.30306204E+04</totfact>
</mgrwt>
</event>
<event>
 8    1  0.7756875E-018  0.7982835E+02  0.7818608E-02  0.1329539E+00
         -2   -1    0    0    0  501 -0.00000000000E+00  0.00000000000E+00  0.43340169120E+03  0.43340169121E+03  0.25500000000E-02 0.  1.
          1   -1    0    0  501    0  0.00000000000E+00 -0.00000000000E+00 -0.36758984938E+01  0.36759019490E+01  0.50400000000E-02 0. -1.
        -24    2    1    2    0    0  0.00000000000E+00  0.00000000000E+00  0.42972579271E+03  0.43707759316E+03  0.79828350368E+02 0.  0.
         66    2    3    3    0    0  0.25397887331E+02 -0.14848485872E+02  0.36248375579E+03  0.36368118380E+03  0.20000064682E+01 0.  0.
         13    1    3    3    0    0 -0.25397887331E+02  0.14848485872E+02  0.67242036915E+02  0.73396409354E+02  0.10566000000E+00 0. -1.
         13    1    4    4    0    0  0.10290121148E+02 -0.63953437923E+01  0.14340520786E+03  0.14391612773E+03  0.10566000000E+00 0. -1.
        -13    1    4    4    0    0  0.10476956807E+02 -0.54354153479E+01  0.14344268872E+03  0.14392750424E+03  0.10566000000E+00 0.  1.
        -14    1    4    4    0    0  0.46308093767E+01 -0.30177267318E+01  0.75635859210E+02  0.75837551836E+02  0.00000000000E+00 0.  1.
<mgrwt>
<rscale>  0 0.79828350E+02</rscale>
<asrwt>0</asrwt>
<pdfrwt beam="1">  1        1 0.56552333E-03 0.79828350E+02</pdfrwt>
<pdfrwt beam="2">  1       -2 0.66677157E-01 0.79828350E+02</pdfrwt>
<totfact> 0.56264427E+04</totfact>
</mgrwt>
</event>
<event>
 8    1  0.7756875E-018  0.7959279E+02  0.7818608E-02  0.1330211E+00
         -2   -1    0    0    0  501 -0.00000000000E+00  0.00000000000E+00  0.89070162753E+01  0.89070166403E+01  0.25500000000E-02 0.  1.
          1   -1    0    0  501    0  0.00000000000E+00 -0.00000000000E+00 -0.17780961424E+03  0.17780961431E+03  0.50400000000E-02 0. -1.
        -24    2    1    2    0    0  0.00000000000E+00  0.17763568394E-14 -0.16890259796E+03  0.18671663095E+03  0.79592792856E+02 0.  0.
         66    2    3    3    0    0  0.37782566499E+02 -0.97551027221E+01 -0.66475535585E+02  0.77108243352E+02  0.20000002744E+01 0.  0.
         13    1    3    3    0    0 -0.37782566499E+02  0.97551027221E+01 -0.10242706238E+03  0.10960838760E+03  0.10566000000E+00 0. -1.
         13    1    4    4    0    0  0.12320763802E+02 -0.40301911797E+01 -0.21600576127E+02  0.25192056578E+02  0.10566000000E+00 0. -1.
        -13    1    4    4    0    0  0.93015577105E+01 -0.23015740798E+01 -0.16945736375E+02  0.19467546441E+02  0.10566000000E+00 0.  1.
         14    1    4    4    0    0  0.16160244987E+02 -0.34233374626E+01 -0.27929223083E+02  0.32448640333E+02  0.00000000000E+00 0. -1.
<mgrwt>
<rscale>  0 0.79592793E+02</rscale>
<asrwt>0</asrwt>
<pdfrwt beam="1">  1        1 0.27355323E-01 0.79592793E+02</pdfrwt>
<pdfrwt beam="2">  1       -2 0.13703104E-02 0.79592793E+02</pdfrwt>
<totfact> 0.16522981E+05</totfact>
</mgrwt>
</event>
<event>
 8    1  0.7756875E-018  0.7939658E+02  0.7818608E-02  0.1330773E+00
          1   -1    0    0  501    0  0.00000000000E+00  0.00000000000E+00  0.12269261551E+03  0.12269261561E+03  0.50400000000E-02 0. -1.
         -2   -1    0    0    0  501 -0.00000000000E+00 -0.00000000000E+00 -0.12844735180E+02  0.12844735434E+02  0.25500000000E-02 0.  1.
        -24    2    1    2    0    0  0.44408920985E-15  0.35527136788E-14  0.10984788033E+03  0.13553735105E+03  0.79396578742E+02 0.  0.
         66    2    3    3    0    0 -0.21344254347E+01 -0.31837249094E+02  0.14713887092E+02  0.35194668029E+02  0.19999956212E+01 0.  0.
         13    1    3    3    0    0  0.21344254347E+01  0.31837249094E+02  0.95133993239E+02  0.10034268302E+03  0.10566000000E+00 0. -1.
         13    1    4    4    0    0 -0.13347694447E+01 -0.16883110158E+02  0.82730403910E+01  0.18848750076E+02  0.10566000000E+00 0.  1.
        -13    1    4    4    0    0  0.69156212366E-01 -0.66638368922E+01  0.33094629719E+01  0.74414524056E+01  0.10566000000E+00 0. -1.
         14    1    4    4    0    0 -0.86881220231E+00 -0.82903020446E+01  0.31313837287E+01  0.89044655477E+01  0.00000000000E+00 0. -1.
<mgrwt>
<rscale>  0 0.79396579E+02</rscale>
<asrwt>0</asrwt>
<pdfrwt beam="1">  1        1 0.18875787E-01 0.79396579E+02</pdfrwt>
<pdfrwt beam="2">  1       -2 0.19761132E-02 0.79396579E+02</pdfrwt>
<totfact> 0.15538361E+05</totfact>
</mgrwt>
</event>
<event>
 8    1  0.7756875E-018  0.7989956E+02  0.7818608E-02  0.1329337E+00
         -2   -1    0    0    0  501 -0.00000000000E+00  0.00000000000E+00  0.12198521903E+02  0.12198522169E+02  0.25500000000E-02 0.  1.
          1   -1    0    0  501    0  0.00000000000E+00 -0.00000000000E+00 -0.13083428209E+03  0.13083428219E+03  0.50400000000E-02 0. -1.
        -24    2    1    2    0    0  0.00000000000E+00 -0.35527136788E-14 -0.11863576019E+03  0.14303280435E+03  0.79899558990E+02 0.  0.
         66    2    3    3    0    0 -0.26915592466E+02  0.29454328413E+02 -0.56840206229E+02  0.69475287860E+02  0.19999997757E+01 0.  0.
         13    1    3    3    0    0  0.26915592466E+02 -0.29454328413E+02 -0.61795553956E+02  0.73557516494E+02  0.10566000000E+00 0. -1.
         13    1    4    4    0    0 -0.12180666602E+02  0.13323858671E+02 -0.24656156369E+02  0.30558649506E+02  0.10566000000E+00 0. -1.
        -13    1    4    4    0    0 -0.12302435939E+02  0.12794327315E+02 -0.26205108030E+02  0.31650649163E+02  0.10566000000E+00 0.  1.
        -14    1    4    4    0    0 -0.24324899249E+01  0.33361424268E+01 -0.59789418300E+01  0.72659891917E+01  0.00000000000E+00 0.  1.
<mgrwt>
<rscale>  0 0.79899559E+02</rscale>
<asrwt>0</asrwt>
<pdfrwt beam="1">  1        1 0.20128350E-01 0.79899559E+02</pdfrwt>
<pdfrwt beam="2">  1       -2 0.18766958E-02 0.79899559E+02</pdfrwt>
<totfact> 0.15452670E+05</totfact>
</mgrwt>
</event>
<event>
 8    1  0.7756875E-018  0.7776895E+02  0.7818608E-02  0.1335505E+00
         -2   -1    0    0    0  501 -0.00000000000E+00  0.00000000000E+00  0.11551809296E+03  0.11551809299E+03  0.25500000000E-02 0.  1.
          1   -1    0    0  501    0  0.00000000000E+00 -0.00000000000E+00 -0.13088878186E+02  0.13088879157E+02  0.50400000000E-02 0. -1.
        -24    2    1    2    0    0  0.00000000000E+00 -0.35527136788E-14  0.10242921478E+03  0.12860697215E+03  0.77768947821E+02 0.  0.
         66    2    3    3    0    0  0.23051862354E+02 -0.26995014027E+02  0.77389403768E+02  0.85165949603E+02  0.20000039798E+01 0.  0.
         13    1    3    3    0    0 -0.23051862354E+02  0.26995014027E+02  0.25039811008E+02  0.43441022544E+02  0.10566000000E+00 0. -1.
         13    1    4    4    0    0  0.10045120694E+02 -0.11788905534E+02  0.32245233437E+02  0.35772181747E+02  0.10566000000E+00 0. -1.
        -13    1    4    4    0    0  0.32405337609E+01 -0.31342829470E+01  0.96439036119E+01  0.10646165017E+02  0.10566000000E+00 0.  1.
        -14    1    4    4    0    0  0.97662078994E+01 -0.12071825546E+02  0.35500266719E+02  0.38747602840E+02  0.00000000000E+00 0.  1.
<mgrwt>
<rscale>  0 0.77768948E+02</rscale>
<asrwt>0</asrwt>
<pdfrwt beam="1">  1        1 0.20136737E-02 0.77768948E+02</pdfrwt>
<pdfrwt beam="2">  1       -2 0.17772014E-01 0.77768948E+02</pdfrwt>
<totfact> 0.10990345E+05</totfact>
</mgrwt>
</event>
<event>
 8    1  0.7756875E-018  0.7938771E+02  0.7818608E-02  0.1330798E+00
         -2   -1    0    0    0  501 -0.00000000000E+00  0.00000000000E+00  0.77000945715E+02  0.77000945757E+02  0.25500000000E-02 0.  1.
          1   -1    0    0  501    0  0.00000000000E+00 -0.00000000000E+00 -0.20462111065E+02  0.20462111686E+02  0.50400000000E-02 0. -1.
        -24    2    1    2    0    0  0.00000000000E+00  0.00000000000E+00  0.56538834650E+02  0.97463057443E+02  0.79387705236E+02 0.  0.
         66    2    3    3    0    0  0.20211872310E+02  0.36681520855E+01  0.69949464542E+02  0.72930807646E+02  0.19999980376E+01 0.  0.
         13    1    3    3    0    0 -0.20211872310E+02 -0.36681520855E+01 -0.13410629892E+02  0.24532249797E+02  0.10566000000E+00 0. -1.
         13    1    4    4    0    0  0.26597233429E+00  0.81885570670E-01  0.13611814244E+01  0.13933504351E+01  0.10566000000E+00 0. -1.
        -13    1    4    4    0    0  0.64379045766E+01  0.10360367023E+01  0.24718652916E+02  0.25564486175E+02  0.10566000000E+00 0.  1.
        -14    1    4    4    0    0  0.13507995399E+02  0.25502298125E+01  0.43869630202E+02  0.45972971036E+02  0.00000000000E+00 0.  1.
<mgrwt>
<rscale>  0 0.79387705E+02</rscale>
<asrwt>0</asrwt>
<pdfrwt beam="1">  1        1 0.31480172E-02 0.79387705E+02</pdfrwt>
<pdfrwt beam="2">  1       -2 0.11846299E-01 0.79387705E+02</pdfrwt>
<totfact> 0.11490209E+05</totfact>
</mgrwt>
</event>
<event>
 8    1  0.7756875E-018  0.8561637E+02  0.7818608E-02  0.1313828E+00
          1   -1    0    0  501    0  0.00000000000E+00  0.00000000000E+00  0.37476652259E+02  0.37476652598E+02  0.50400000000E-02 0. -1.
         -2   -1    0    0    0  501 -0.00000000000E+00 -0.00000000000E+00 -0.48898199474E+02  0.48898199541E+02  0.25500000000E-02 0.  1.
        -24    2    1    2    0    0  0.00000000000E+00  0.44408920985E-15 -0.11421547215E+02  0.86374852139E+02  0.85616373091E+02 0.  0.
         66    2    3    3    0    0  0.26112873746E+02 -0.29420988685E+01 -0.39776848184E+02  0.47715152475E+02  0.20000007998E+01 0.  0.
         13    1    3    3    0    0 -0.26112873746E+02  0.29420988685E+01  0.28355300969E+02  0.38659699664E+02  0.10566000000E+00 0. -1.
         13    1    4    4    0    0  0.52285087776E+00 -0.96610422411E-01 -0.11449569043E+01  0.12668058109E+01  0.10566000000E+00 0. -1.
        -13    1    4    4    0    0  0.18972890656E+02 -0.18741723252E+01 -0.27520602292E+02  0.33479513382E+02  0.10566000000E+00 0.  1.
        -14    1    4    4    0    0  0.66171322119E+01 -0.97131612091E+00 -0.11111288988E+02  0.12968833282E+02  0.00000000000E+00 0.  1.
<mgrwt>
<rscale>  0 0.85616373E+02</rscale>
<asrwt>0</asrwt>
<pdfrwt beam="1">  1        1 0.57656389E-02 0.85616373E+02</pdfrwt>
<pdfrwt beam="2">  1       -2 0.75227999E-02 0.85616373E+02</pdfrwt>
<totfact> 0.10354849E+05</totfact>
</mgrwt>
</event>
<event>
 8    1  0.7756875E-018  0.7983777E+02  0.7818608E-02  0.1329512E+00
          1   -1    0    0  501    0  0.00000000000E+00  0.00000000000E+00  0.96126126119E+02  0.96126126251E+02  0.50400000000E-02 0. -1.
         -2   -1    0    0    0  501 -0.00000000000E+00 -0.00000000000E+00 -0.16577359815E+02  0.16577360012E+02  0.25500000000E-02 0.  1.
        -24    2    1    2    0    0  0.00000000000E+00  0.00000000000E+00  0.79548766304E+02  0.11270348626E+03  0.79837770481E+02 0.  0.
         66    2    3    3    0    0  0.23309033729E+02  0.46084714226E+01 -0.54390422636E+01  0.24456742236E+02  0.19999994623E+01 0.  0.
         13    1    3    3    0    0 -0.23309033729E+02 -0.46084714226E+01  0.84987808567E+02  0.88246744027E+02  0.10566000000E+00 0. -1.
         13    1    4    4    0    0  0.65888256307E+01  0.18647904811E+01 -0.13662026350E+01  0.69833903232E+01  0.10566000000E+00 0. -1.
        -13    1    4    4    0    0  0.48527811337E+01  0.13776027329E+01 -0.12781188549E+01  0.52050000830E+01  0.10566000000E+00 0.  1.
         14    1    4    4    0    0  0.11867426964E+02  0.13660782086E+01 -0.27947207736E+01  0.12268351830E+02  0.00000000000E+00 0. -1.
<mgrwt>
<rscale>  0 0.79837770E+02</rscale>
<asrwt>0</asrwt>
<pdfrwt beam="1">  1        1 0.14788635E-01 0.79837770E+02</pdfrwt>
<pdfrwt beam="2">  1       -2 0.25503630E-02 0.79837770E+02</pdfrwt>
<totfact> 0.14682594E+05</totfact>
</mgrwt>
</event>
<event>
 8    1  0.7756875E-018  0.8134343E+02  0.7818608E-02  0.1325282E+00
         -2   -1    0    0    0  501 -0.00000000000E+00  0.00000000000E+00  0.18142531440E+02  0.18142531620E+02  0.25500000000E-02 0.  1.
          1   -1    0    0  501    0  0.00000000000E+00 -0.00000000000E+00 -0.91177365285E+02  0.91177365424E+02  0.50400000000E-02 0. -1.
        -24    2    1    2    0    0  0.00000000000E+00  0.35527136788E-14 -0.73034833844E+02  0.10931989704E+03  0.81343425887E+02 0.  0.
         66    2    3    3    0    0 -0.12585080630E+02  0.25652882259E+02  0.23122126769E+01  0.28736752366E+02  0.19999966121E+01 0.  0.
         13    1    3    3    0    0  0.12585080630E+02 -0.25652882259E+02 -0.75347046521E+02  0.80583144678E+02  0.10566000000E+00 0. -1.
         13    1    4    4    0    0 -0.52843195902E+01  0.90964173270E+01  0.53889064372E+00  0.10534249327E+02  0.10566000000E+00 0. -1.
        -13    1    4    4    0    0 -0.11949270450E+01  0.30683318388E+01  0.61580581446E+00  0.33515506490E+01  0.10566000000E+00 0.  1.
         14    1    4    4    0    0 -0.61058339943E+01  0.13488133093E+02  0.11575162188E+01  0.14850952390E+02  0.00000000000E+00 0. -1.
<mgrwt>
<rscale>  0 0.81343426E+02</rscale>
<asrwt>0</asrwt>
<pdfrwt beam="1">  1        1 0.14027287E-01 0.81343426E+02</pdfrwt>
<pdfrwt beam="2">  1       -2 0.27911588E-02 0.81343426E+02</pdfrwt>
<totfact> 0.13835072E+05</totfact>
</mgrwt>
</event>
<event>
 8    1  0.7756875E-018  0.7475794E+02  0.7818608E-02  0.1344622E+00
         -2   -1    0    0    0  501 -0.00000000000E+00  0.00000000000E+00  0.64159046589E+02  0.64159046640E+02  0.25500000000E-02 0.  1.
          1   -1    0    0  501    0  0.00000000000E+00 -0.00000000000E+00 -0.21776932470E+02  0.21776933053E+02  0.50400000000E-02 0. -1.
        -24    2    1    2    0    0  0.44408920985E-15  0.00000000000E+00  0.42382114119E+02  0.85935979693E+02  0.74757936091E+02 0.  0.
         66    2    3    3    0    0 -0.31298742072E+01  0.25318541264E+02  0.52568530677E+02  0.58466016267E+02  0.19999990761E+01 0.  0.
         13    1    3    3    0    0  0.31298742072E+01 -0.25318541264E+02 -0.10186416558E+02  0.27469963426E+02  0.10566000000E+00 0. -1.
         13    1    4    4    0    0 -0.88882815294E+00  0.63140993790E+01  0.14214024397E+02  0.15579073144E+02  0.10566000000E+00 0. -1.
        -13    1    4    4    0    0 -0.12250165630E+01  0.96153942761E+01  0.17855615397E+02  0.20317249762E+02  0.10566000000E+00 0.  1.
        -14    1    4    4    0    0 -0.10160294912E+01  0.93890476085E+01  0.20498890883E+02  0.22569693360E+02  0.00000000000E+00 0.  1.
<mgrwt>
<rscale>  0 0.74757936E+02</rscale>
<asrwt>0</asrwt>
<pdfrwt beam="1">  1        1 0.33502974E-02 0.74757936E+02</pdfrwt>
<pdfrwt beam="2">  1       -2 0.98706223E-02 0.74757936E+02</pdfrwt>
<totfact> 0.13877461E+05</totfact>
</mgrwt>
</event>
<event>
 8    1  0.7756875E-018  0.7913831E+02  0.7818608E-02  0.1331515E+00
         -2   -1    0    0    0  501 -0.00000000000E+00  0.00000000000E+00  0.35475856885E+03  0.35475856886E+03  0.25500000000E-02 0.  1.
          1   -1    0    0  501    0  0.00000000000E+00 -0.00000000000E+00 -0.44134734722E+01  0.44134763500E+01  0.50400000000E-02 0. -1.
        -24    2    1    2    0    0  0.00000000000E+00  0.00000000000E+00  0.35034509538E+03  0.35917204521E+03  0.79138310599E+02 0.  0.
         66    2    3    3    0    0 -0.27126848786E+02 -0.21316603797E+02  0.26299060748E+03  0.26525143382E+03  0.20000005595E+01 0.  0.
         13    1    3    3    0    0  0.27126848786E+02  0.21316603797E+02  0.87354487904E+02  0.93920611388E+02  0.10566000000E+00 0. -1.
         13    1    4    4    0    0 -0.34725686655E+01 -0.23256316531E+01  0.35426956107E+02  0.35672786249E+02  0.10566000000E+00 0. -1.
        -13    1    4    4    0    0 -0.20514113126E+02 -0.16522969403E+02  0.19504936395E+03  0.19681997586E+03  0.10566000000E+00 0.  1.
         14    1    4    4    0    0 -0.31401669946E+01 -0.24680027407E+01  0.32514287417E+02  0.32758671715E+02  0.00000000000E+00 0. -1.
<mgrwt>
<rscale>  0 0.79138311E+02</rscale>
<asrwt>0</asrwt>
<pdfrwt beam="1">  1        1 0.67899593E-03 0.79138311E+02</pdfrwt>
<pdfrwt beam="2">  1       -2 0.54578259E-01 0.79138311E+02</pdfrwt>
<totfact> 0.65597508E+04</totfact>
</mgrwt>
</event>
<event>
 8    1  0.7756875E-018  0.7935325E+02  0.7818608E-02  0.1330897E+00
          1   -1    0    0  501    0  0.00000000000E+00  0.00000000000E+00  0.51092316466E+02  0.51092316715E+02  0.50400000000E-02 0. -1.
         -2   -1    0    0    0  501 -0.00000000000E+00 -0.00000000000E+00 -0.30811570292E+02  0.30811570397E+02  0.25500000000E-02 0.  1.
        -24    2    1    2    0    0 -0.35527136788E-14  0.17763568394E-14  0.20280746175E+02  0.81903887112E+02  0.79353248571E+02 0.  0.
         66    2    3    3    0    0 -0.30110612903E+02  0.15714102115E+02 -0.10971752441E+02  0.35748585700E+02  0.20000033016E+01 0.  0.
         13    1    3    3    0    0  0.30110612903E+02 -0.15714102115E+02  0.31252498616E+02  0.46155301413E+02  0.10566000000E+00 0. -1.
         13    1    4    4    0    0 -0.19465353570E+02  0.96545773363E+01 -0.66750530147E+01  0.22730559824E+02  0.10566000000E+00 0. -1.
        -13    1    4    4    0    0 -0.51827213174E+01  0.28957969412E+01 -0.15708114335E+01  0.61420560705E+01  0.10566000000E+00 0.  1.
         14    1    4    4    0    0 -0.54625380158E+01  0.31637278379E+01 -0.27258879932E+01  0.68759698049E+01  0.00000000000E+00 0. -1.
<mgrwt>
<rscale>  0 0.79353249E+02</rscale>
<asrwt>0</asrwt>
<pdfrwt beam="1">  1        1 0.78603563E-02 0.79353249E+02</pdfrwt>
<pdfrwt beam="2">  1       -2 0.47402417E-02 0.79353249E+02</pdfrwt>
<totfact> 0.13502797E+05</totfact>
</mgrwt>
</event>
<event>
 8    1  0.7756875E-018  0.7814517E+02  0.7818608E-02  0.1334399E+00
         -2   -1    0    0    0  501 -0.00000000000E+00  0.00000000000E+00  0.11694301168E+03  0.11694301171E+03  0.25500000000E-02 0.  1.
          1   -1    0    0  501    0  0.00000000000E+00 -0.00000000000E+00 -0.13054792181E+02  0.13054793154E+02  0.50400000000E-02 0. -1.
        -24    2    1    2    0    0  0.00000000000E+00  0.00000000000E+00  0.10388821950E+03  0.12999780486E+03  0.78145166953E+02 0.  0.
         66    2    3    3    0    0  0.47789559851E+01  0.37730185499E+02  0.66694190266E+02  0.76801824818E+02  0.19999905220E+01 0.  0.
         13    1    3    3    0    0 -0.47789559851E+01 -0.37730185499E+02  0.37194029231E+02  0.53195980042E+02  0.10566000000E+00 0. -1.
         13    1    4    4    0    0  0.18573202619E+01  0.18961508777E+02  0.33209588738E+02  0.38286765361E+02  0.10566000000E+00 0. -1.
        -13    1    4    4    0    0  0.61901147672E+00  0.57135512929E+01  0.11083570376E+02  0.12485373038E+02  0.10566000000E+00 0.  1.
        -14    1    4    4    0    0  0.23026242464E+01  0.13055125429E+02  0.22401031152E+02  0.26029686419E+02  0.00000000000E+00 0.  1.
<mgrwt>
<rscale>  0 0.78145167E+02</rscale>
<asrwt>0</asrwt>
<pdfrwt beam="1">  1        1 0.20084297E-02 0.78145167E+02</pdfrwt>
<pdfrwt beam="2">  1       -2 0.17991232E-01 0.78145167E+02</pdfrwt>
<totfact> 0.10818962E+05</totfact>
</mgrwt>
</event>
<event>
 8    1  0.7756875E-018  0.7973384E+02  0.7818608E-02  0.1329808E+00
         -2   -1    0    0    0  501 -0.00000000000E+00  0.00000000000E+00  0.13898098520E+03  0.13898098522E+03  0.25500000000E-02 0.  1.
          1   -1    0    0  501    0  0.00000000000E+00 -0.00000000000E+00 -0.11435889277E+02  0.11435890388E+02  0.50400000000E-02 0. -1.
        -24    2    1    2    0    0  0.00000000000E+00  0.00000000000E+00  0.12754509592E+03  0.15041687561E+03  0.79733838328E+02 0.  0.
         66    2    3    3    0    0  0.14201573300E+02 -0.45735974135E+01  0.13350451431E+03  0.13435050361E+03  0.20000003546E+01 0.  0.
         13    1    3    3    0    0 -0.14201573300E+02  0.45735974135E+01 -0.59594183932E+01  0.16066371996E+02  0.10566000000E+00 0. -1.
         13    1    4    4    0    0  0.22833522665E+01 -0.37473375962E+00  0.22359335853E+02  0.22478994346E+02  0.10566000000E+00 0. -1.
        -13    1    4    4    0    0  0.11417958532E+02 -0.36632388151E+01  0.10526029664E+03  0.10594116438E+03  0.10566000000E+00 0.  1.
        -14    1    4    4    0    0  0.50026250119E+00 -0.53562483881E+00  0.58848818150E+01  0.59303448900E+01  0.00000000000E+00 0.  1.
<mgrwt>
<rscale>  0 0.79733838E+02</rscale>
<asrwt>0</asrwt>
<pdfrwt beam="1">  1        1 0.17593677E-02 0.79733838E+02</pdfrwt>
<pdfrwt beam="2">  1       -2 0.21381690E-01 0.79733838E+02</pdfrwt>
<totfact> 0.97678771E+04</totfact>
</mgrwt>
</event>
<event>
 8    1  0.7756875E-018  0.7775759E+02  0.7818608E-02  0.1335538E+00
         -2   -1    0    0    0  501 -0.00000000000E+00  0.00000000000E+00  0.36376968235E+02  0.36376968325E+02  0.25500000000E-02 0.  1.
          1   -1    0    0  501    0  0.00000000000E+00 -0.00000000000E+00 -0.41552687069E+02  0.41552687375E+02  0.50400000000E-02 0. -1.
        -24    2    1    2    0    0  0.00000000000E+00  0.00000000000E+00 -0.51757188339E+01  0.77929655699E+02  0.77757592375E+02 0.  0.
         66    2    3    3    0    0  0.12526691255E+02 -0.12224165316E+02  0.32174473690E+02  0.36681670815E+02  0.20000012839E+01 0.  0.
         13    1    3    3    0    0 -0.12526691255E+02  0.12224165316E+02 -0.37350192523E+02  0.41247984884E+02  0.10566000000E+00 0. -1.
         13    1    4    4    0    0  0.29453467322E+01 -0.21253373605E+01  0.70174780675E+01  0.79024229660E+01  0.10566000000E+00 0. -1.
        -13    1    4    4    0    0  0.24389690445E+01 -0.33965628100E+01  0.75654639980E+01  0.86448029742E+01  0.10566000000E+00 0.  1.
        -14    1    4    4    0    0  0.71423754780E+01 -0.67022651450E+01  0.17591531624E+02  0.20134444875E+02  0.00000000000E+00 0.  1.
<mgrwt>
<rscale>  0 0.77757592E+02</rscale>
<asrwt>0</asrwt>
<pdfrwt beam="1">  1        1 0.63927211E-02 0.77757592E+02</pdfrwt>
<pdfrwt beam="2">  1       -2 0.55964567E-02 0.77757592E+02</pdfrwt>
<totfact> 0.13835861E+05</totfact>
</mgrwt>
</event>
<event>
 8    1  0.7756875E-018  0.7844169E+02  0.7818608E-02  0.1333533E+00
         -2   -1    0    0    0  501 -0.00000000000E+00  0.00000000000E+00  0.14855118972E+03  0.14855118974E+03  0.25500000000E-02 0.  1.
          1   -1    0    0  501    0  0.00000000000E+00 -0.00000000000E+00 -0.10355180876E+02  0.10355182102E+02  0.50400000000E-02 0. -1.
        -24    2    1    2    0    0  0.35527136788E-14  0.00000000000E+00  0.13819600884E+03  0.15890637184E+03  0.78441686316E+02 0.  0.
         66    2    3    3    0    0 -0.26540763242E+02  0.16866914034E+02  0.11653782629E+03  0.12072269813E+03  0.19999963453E+01 0.  0.
         13    1    3    3    0    0  0.26540763242E+02 -0.16866914034E+02  0.21658182553E+02  0.38183673711E+02  0.10566000000E+00 0. -1.
         13    1    4    4    0    0 -0.12709507087E+02  0.85414391913E+01  0.59694644615E+02  0.61627506144E+02  0.10566000000E+00 0. -1.
        -13    1    4    4    0    0 -0.17720553782E+01  0.13031369046E+01  0.80196652537E+01  0.83165221621E+01  0.10566000000E+00 0.  1.
         14    1    4    4    0    0 -0.12059200777E+02  0.70223379382E+01  0.48823516423E+02  0.50778669827E+02  0.00000000000E+00 0. -1.
<mgrwt>
<rscale>  0 0.78441686E+02</rscale>
<asrwt>0</asrwt>
<pdfrwt beam="1">  1        1 0.15931049E-02 0.78441686E+02</pdfrwt>
<pdfrwt beam="2">  1       -2 0.22854028E-01 0.78441686E+02</pdfrwt>
<totfact> 0.99731389E+04</totfact>
</mgrwt>
</event>
<event>
 8    1  0.7756875E-018  0.7773904E+02  0.7818608E-02  0.1335593E+00
          1   -1    0    0  501    0  0.00000000000E+00  0.00000000000E+00  0.51025645473E+01  0.51025670364E+01  0.50400000000E-02 0. -1.
         -2   -1    0    0    0  501 -0.00000000000E+00 -0.00000000000E+00 -0.29609406892E+03  0.29609406894E+03  0.25500000000E-02 0.  1.
        -24    2    1    2    0    0 -0.22204460493E-15  0.00000000000E+00 -0.29099150438E+03  0.30119663597E+03  0.77739037176E+02 0.  0.
         66    2    3    3    0    0  0.19780536415E+01 -0.31149083051E+02 -0.23517948242E+03  0.23725000955E+03  0.20000028721E+01 0.  0.
         13    1    3    3    0    0 -0.19780536415E+01  0.31149083051E+02 -0.55812021961E+02  0.63946626420E+02  0.10566000000E+00 0. -1.
         13    1    4    4    0    0  0.93513942194E+00 -0.18770629666E+02 -0.14753350399E+03  0.14872577782E+03  0.10566000000E+00 0. -1.
        -13    1    4    4    0    0  0.17679876462E+00 -0.50056336361E+01 -0.34050335083E+02  0.34416916032E+02  0.10566000000E+00 0.  1.
         14    1    4    4    0    0  0.86611545493E+00 -0.73728197492E+01 -0.53595643346E+02  0.54107315704E+02  0.00000000000E+00 0. -1.
<mgrwt>
<rscale>  0 0.77739037E+02</rscale>
<asrwt>0</asrwt>
<pdfrwt beam="1">  1        1 0.78501036E-03 0.77739037E+02</pdfrwt>
<pdfrwt beam="2">  1       -2 0.45552920E-01 0.77739037E+02</pdfrwt>
<totfact> 0.76205092E+04</totfact>
</mgrwt>
</event>
<event>
 8    1  0.7756875E-018  0.8084149E+02  0.7818608E-02  0.1326680E+00
         -2   -1    0    0    0  501 -0.00000000000E+00  0.00000000000E+00  0.10606548466E+02  0.10606548772E+02  0.25500000000E-02 0.  1.
          1   -1    0    0  501    0  0.00000000000E+00 -0.00000000000E+00 -0.15404036314E+03  0.15404036322E+03  0.50400000000E-02 0. -1.
        -24    2    1    2    0    0  0.00000000000E+00  0.00000000000E+00 -0.14343381468E+03  0.16464691200E+03  0.80841489580E+02 0.  0.
         66    2    3    3    0    0 -0.26254878583E+02  0.30586553733E+02 -0.77139825231E+02  0.87059798897E+02  0.20000071339E+01 0.  0.
         13    1    3    3    0    0  0.26254878583E+02 -0.30586553733E+02 -0.66293989445E+02  0.77587113100E+02  0.10566000000E+00 0. -1.
         13    1    4    4    0    0 -0.20064016884E+01  0.25681620557E+01 -0.58099392362E+01  0.66624066255E+01  0.10566000000E+00 0. -1.
        -13    1    4    4    0    0 -0.23719587328E+02  0.27714121341E+02 -0.70273932361E+02  0.79177825673E+02  0.10566000000E+00 0.  1.
         14    1    4    4    0    0 -0.52888956643E+00  0.30427033674E+00 -0.10559536338E+01  0.12195665984E+01  0.00000000000E+00 0. -1.
<mgrwt>
<rscale>  0 0.80841490E+02</rscale>
<asrwt>0</asrwt>
<pdfrwt beam="1">  1        1 0.23698516E-01 0.80841490E+02</pdfrwt>
<pdfrwt beam="2">  1       -2 0.16317768E-02 0.80841490E+02</pdfrwt>
<totfact> 0.15428811E+05</totfact>
</mgrwt>
</event>
<event>
 8    1  0.7756875E-018  0.8133160E+02  0.7818608E-02  0.1325314E+00
         -2   -1    0    0    0  501 -0.00000000000E+00  0.00000000000E+00  0.12283527851E+03  0.12283527854E+03  0.25500000000E-02 0.  1.
          1   -1    0    0  501    0  0.00000000000E+00 -0.00000000000E+00 -0.13462802794E+02  0.13462803737E+02  0.50400000000E-02 0. -1.
        -24    2    1    2    0    0  0.13877787808E-16  0.00000000000E+00  0.10937247572E+03  0.13629808227E+03  0.81331597717E+02 0.  0.
         66    2    3    3    0    0  0.76651786980E-01 -0.37767259798E+02  0.79875143389E+02  0.88376525886E+02  0.20000020307E+01 0.  0.
         13    1    3    3    0    0 -0.76651786980E-01  0.37767259798E+02  0.29497332327E+02  0.47921556387E+02  0.10566000000E+00 0. -1.
         13    1    4    4    0    0 -0.22675666781E+00 -0.15813075230E+02  0.34193864590E+02  0.37674080035E+02  0.10566000000E+00 0. -1.
        -13    1    4    4    0    0  0.45410450357E+00 -0.20906481846E+02  0.43985823597E+02  0.48703706590E+02  0.10566000000E+00 0.  1.
         14    1    4    4    0    0 -0.15069604878E+00 -0.10477027216E+01  0.16954552018E+01  0.19987392610E+01  0.00000000000E+00 0. -1.
<mgrwt>
<rscale>  0 0.81331598E+02</rscale>
<asrwt>0</asrwt>
<pdfrwt beam="1">  1        1 0.20712005E-02 0.81331598E+02</pdfrwt>
<pdfrwt beam="2">  1       -2 0.18897735E-01 0.81331598E+02</pdfrwt>
<totfact> 0.96308059E+04</totfact>
</mgrwt>
</event>
<event>
 8    1  0.7756875E-018  0.7823241E+02  0.7818608E-02  0.1334144E+00
         -2   -1    0    0    0  501 -0.00000000000E+00  0.00000000000E+00  0.89571753942E+03  0.89571753942E+03  0.25500000000E-02 0.  1.
          1   -1    0    0  501    0  0.00000000000E+00 -0.00000000000E+00 -0.17082106238E+01  0.17082180589E+01  0.50400000000E-02 0. -1.
        -24    2    1    2    0    0  0.00000000000E+00  0.00000000000E+00  0.89400932879E+03  0.89742575748E+03  0.78232411560E+02 0.  0.
         66    2    3    3    0    0  0.20334074441E+02  0.11375085305E+02  0.80735627884E+03  0.80769488554E+03  0.19999983878E+01 0.  0.
         13    1    3    3    0    0 -0.20334074441E+02 -0.11375085305E+02  0.86653049950E+02  0.89730871937E+02  0.10566000000E+00 0. -1.
         13    1    4    4    0    0  0.11830051500E+02  0.66827950941E+01  0.45417939189E+03  0.45438259325E+03  0.10566000000E+00 0. -1.
        -13    1    4    4    0    0  0.68646799483E+01  0.38317809160E+01  0.30063704131E+03  0.30073983465E+03  0.10566000000E+00 0.  1.
         14    1    4    4    0    0  0.16393429925E+01  0.86050929501E+00  0.52539845646E+02  0.52572457639E+02  0.00000000000E+00 0. -1.
<mgrwt>
<rscale>  0 0.78232412E+02</rscale>
<asrwt>0</asrwt>
<pdfrwt beam="1">  1        1 0.26280264E-03 0.78232412E+02</pdfrwt>
<pdfrwt beam="2">  1       -2 0.13780247E+00 0.78232412E+02</pdfrwt>
<totfact> 0.31267885E+04</totfact>
</mgrwt>
</event>
<event>
 8    1  0.7756875E-018  0.7973507E+02  0.7818608E-02  0.1329805E+00
         -2   -1    0    0    0  501 -0.00000000000E+00  0.00000000000E+00  0.36627084085E+02  0.36627084174E+02  0.25500000000E-02 0.  1.
          1   -1    0    0  501    0  0.00000000000E+00 -0.00000000000E+00 -0.43394668729E+02  0.43394669022E+02  0.50400000000E-02 0. -1.
        -24    2    1    2    0    0 -0.35527136788E-14 -0.10658141036E-13 -0.67675846442E+01  0.80021753196E+02  0.79735066205E+02 0.  0.
         66    2    3    3    0    0  0.78914436191E+01  0.22787235988E+02  0.28443764599E+02  0.37344085899E+02  0.20000001814E+01 0.  0.
         13    1    3    3    0    0 -0.78914436191E+01 -0.22787235988E+02 -0.35211349243E+02  0.42677667297E+02  0.10566000000E+00 0. -1.
         13    1    4    4    0    0  0.30115495485E+01  0.69449129791E+01  0.97242763274E+01  0.12323715393E+02  0.10566000000E+00 0.  1.
        -13    1    4    4    0    0  0.24093713733E+01  0.63753255062E+01  0.78161676474E+01  0.10370799702E+02  0.10566000000E+00 0. -1.
        -14    1    4    4    0    0  0.24705226973E+01  0.94669975027E+01  0.10903320624E+02  0.14649570804E+02  0.00000000000E+00 0.  1.
<mgrwt>
<rscale>  0 0.79735066E+02</rscale>
<asrwt>0</asrwt>
<pdfrwt beam="1">  1        1 0.66761029E-02 0.79735066E+02</pdfrwt>
<pdfrwt beam="2">  1       -2 0.56349361E-02 0.79735066E+02</pdfrwt>
<totfact> 0.12985332E+05</totfact>
</mgrwt>
</event>
<event>
 8    1  0.7756875E-018  0.7937120E+02  0.7818608E-02  0.1330845E+00
          1   -1    0    0  501    0  0.00000000000E+00  0.00000000000E+00  0.65107504673E+02  0.65107504868E+02  0.50400000000E-02 0. -1.
         -2   -1    0    0    0  501 -0.00000000000E+00 -0.00000000000E+00 -0.24189942361E+02  0.24189942496E+02  0.25500000000E-02 0.  1.
        -24    2    1    2    0    0  0.00000000000E+00 -0.88817841970E-15  0.40917562312E+02  0.89297447364E+02  0.79371198808E+02 0.  0.
         66    2    3    3    0    0  0.19939190048E+02  0.48562511319E+01 -0.17710580423E+02  0.27181227587E+02  0.19999998420E+01 0.  0.
         13    1    3    3    0    0 -0.19939190048E+02 -0.48562511319E+01  0.58628142735E+02  0.62116219777E+02  0.10566000000E+00 0. -1.
         13    1    4    4    0    0  0.45784934976E+01  0.84923630287E+00 -0.33226649525E+01  0.57214571070E+01  0.10566000000E+00 0. -1.
        -13    1    4    4    0    0  0.98826222288E+01  0.31644111751E+01 -0.95429237912E+01  0.14098165793E+02  0.10566000000E+00 0.  1.
        -14    1    4    4    0    0  0.54780743215E+01  0.84260365389E+00 -0.48449916793E+01  0.73616046866E+01  0.00000000000E+00 0.  1.
<mgrwt>
<rscale>  0 0.79371199E+02</rscale>
<asrwt>0</asrwt>
<pdfrwt beam="1">  1        1 0.10016539E-01 0.79371199E+02</pdfrwt>
<pdfrwt beam="2">  1       -2 0.37215296E-02 0.79371199E+02</pdfrwt>
<totfact> 0.14013290E+05</totfact>
</mgrwt>
</event>
<event>
 8    1  0.7756875E-018  0.8055996E+02  0.7818608E-02  0.1327470E+00
         -2   -1    0    0    0  501 -0.00000000000E+00  0.00000000000E+00  0.49397392751E+02  0.49397392817E+02  0.25500000000E-02 0.  1.
          1   -1    0    0  501    0  0.00000000000E+00 -0.00000000000E+00 -0.32845396846E+02  0.32845397232E+02  0.50400000000E-02 0. -1.
        -24    2    1    2    0    0  0.35527136788E-14  0.00000000000E+00  0.16551995905E+02  0.82242790049E+02  0.80559964912E+02 0.  0.
         66    2    3    3    0    0  0.19194567405E+02  0.93078556074E+01  0.43132217261E+02  0.48160728414E+02  0.20000004094E+01 0.  0.
         13    1    3    3    0    0 -0.19194567405E+02 -0.93078556074E+01 -0.26580221356E+02  0.34082061634E+02  0.10566000000E+00 0. -1.
         13    1    4    4    0    0  0.85033931354E+00  0.18937898369E+00  0.13941128458E+01  0.16473178230E+01  0.10566000000E+00 0. -1.
        -13    1    4    4    0    0  0.35615150466E+01  0.15426604830E+01  0.68850396083E+01  0.79043738042E+01  0.10566000000E+00 0. -1.
        -14    1    4    4    0    0  0.14782713045E+02  0.75758161408E+01  0.34853064807E+02  0.38609036787E+02  0.00000000000E+00 0.  1.
<mgrwt>
<rscale>  0 0.80559965E+02</rscale>
<asrwt>0</asrwt>
<pdfrwt beam="1">  1        1 0.50531380E-02 0.80559965E+02</pdfrwt>
<pdfrwt beam="2">  1       -2 0.75995989E-02 0.80559965E+02</pdfrwt>
<totfact> 0.12044801E+05</totfact>
</mgrwt>
</event>
<event>
 8    1  0.7756875E-018  0.7982883E+02  0.7818608E-02  0.1329538E+00
          1   -1    0    0  501    0  0.00000000000E+00  0.00000000000E+00  0.15358960257E+03  0.15358960266E+03  0.50400000000E-02 0. -1.
         -2   -1    0    0    0  501 -0.00000000000E+00 -0.00000000000E+00 -0.10372839662E+02  0.10372839976E+02  0.25500000000E-02 0.  1.
        -24    2    1    2    0    0  0.71054273576E-14  0.88817841970E-15  0.14321676291E+03  0.16396244263E+03  0.79828825715E+02 0.  0.
         66    2    3    3    0    0 -0.27438836805E+02 -0.76265139070E+01  0.14286445599E+02  0.31924223294E+02  0.20000063738E+01 0.  0.
         13    1    3    3    0    0  0.27438836805E+02  0.76265139070E+01  0.12893031731E+03  0.13203821934E+03  0.10566000000E+00 0. -1.
         13    1    4    4    0    0 -0.16260874620E+02 -0.54868259843E+01  0.87613524790E+01  0.19268984511E+02  0.10566000000E+00 0. -1.
        -13    1    4    4    0    0 -0.56103499166E+01 -0.96747912828E+00  0.26563474959E+01  0.62832625367E+01  0.10566000000E+00 0.  1.
         14    1    4    4    0    0 -0.55676122688E+01 -0.11722087944E+01  0.28687456243E+01  0.63719762468E+01  0.00000000000E+00 0. -1.
<mgrwt>
<rscale>  0 0.79828826E+02</rscale>
<asrwt>0</asrwt>
<pdfrwt beam="1">  1        1 0.23629172E-01 0.79828826E+02</pdfrwt>
<pdfrwt beam="2">  1       -2 0.15958214E-02 0.79828826E+02</pdfrwt>
<totfact> 0.15948614E+05</totfact>
</mgrwt>
</event>
<event>
 8    1  0.7756875E-018  0.8035354E+02  0.7818608E-02  0.1328051E+00
         -2   -1    0    0    0  501 -0.00000000000E+00  0.00000000000E+00  0.11441358777E+02  0.11441359061E+02  0.25500000000E-02 0.  1.
          1   -1    0    0  501    0  0.00000000000E+00 -0.00000000000E+00 -0.14108225522E+03  0.14108225531E+03  0.50400000000E-02 0. -1.
        -24    2    1    2    0    0  0.00000000000E+00  0.00000000000E+00 -0.12964089644E+03  0.15252361437E+03  0.80353537011E+02 0.  0.
         66    2    3    3    0    0  0.40141612768E+02 -0.42340441329E+00 -0.63342660421E+02  0.75018804129E+02  0.19999992173E+01 0.  0.
         13    1    3    3    0    0 -0.40141612768E+02  0.42340441329E+00 -0.66298236024E+02  0.77504810243E+02  0.10566000000E+00 0. -1.
         13    1    4    4    0    0  0.35340167046E+01 -0.45795229765E+00 -0.56747078534E+01  0.67016764792E+01  0.10566000000E+00 0. -1.
        -13    1    4    4    0    0  0.21753910780E+02 -0.54745866982E+00 -0.34632168379E+02  0.40901474250E+02  0.10566000000E+00 0.  1.
        -14    1    4    4    0    0  0.14853685283E+02  0.58200655418E+00 -0.23035784189E+02  0.27415653400E+02  0.00000000000E+00 0.  1.
<mgrwt>
<rscale>  0 0.80353537E+02</rscale>
<asrwt>0</asrwt>
<pdfrwt beam="1">  1        1 0.21704961E-01 0.80353537E+02</pdfrwt>
<pdfrwt beam="2">  1       -2 0.17602092E-02 0.80353537E+02</pdfrwt>
<totfact> 0.15428810E+05</totfact>
</mgrwt>
</event>
<event>
 8    1  0.7756875E-018  0.7968029E+02  0.7818608E-02  0.1329961E+00
          1   -1    0    0  501    0  0.00000000000E+00  0.00000000000E+00  0.26661569590E+03  0.26661569595E+03  0.50400000000E-02 0. -1.
         -2   -1    0    0    0  501 -0.00000000000E+00 -0.00000000000E+00 -0.59532767522E+01  0.59532772984E+01  0.25500000000E-02 0.  1.
        -24    2    1    2    0    0  0.00000000000E+00  0.71054273576E-14  0.26066241915E+03  0.27256897324E+03  0.79680288782E+02 0.  0.
         66    2    3    3    0    0 -0.19312883659E+02 -0.34694620462E+02  0.12042347857E+03  0.12681686938E+03  0.20000007818E+01 0.  0.
         13    1    3    3    0    0  0.19312883659E+02  0.34694620462E+02  0.14023894057E+03  0.14575210386E+03  0.10566000000E+00 0. -1.
         13    1    4    4    0    0 -0.64564583711E+01 -0.11693170746E+02  0.40947410576E+02  0.43071077230E+02  0.10566000000E+00 0. -1.
        -13    1    4    4    0    0 -0.58829178904E+01 -0.12126462589E+02  0.40095989199E+02  0.42300819516E+02  0.10566000000E+00 0.  1.
         14    1    4    4    0    0 -0.69735073975E+01 -0.10874987127E+02  0.39380078799E+02  0.41444972634E+02  0.00000000000E+00 0. -1.
<mgrwt>
<rscale>  0 0.79680289E+02</rscale>
<asrwt>0</asrwt>
<pdfrwt beam="1">  1        1 0.41017786E-01 0.79680289E+02</pdfrwt>
<pdfrwt beam="2">  1       -2 0.91588909E-03 0.79680289E+02</pdfrwt>
<totfact> 0.17822831E+05</totfact>
</mgrwt>
</event>
<event>
 8    1  0.7756875E-018  0.8071013E+02  0.7818608E-02  0.1327048E+00
          1   -1    0    0  501    0  0.00000000000E+00  0.00000000000E+00  0.49505024156E+02  0.49505024413E+02  0.50400000000E-02 0. -1.
         -2   -1    0    0    0  501 -0.00000000000E+00 -0.00000000000E+00 -0.32896285402E+02  0.32896285501E+02  0.25500000000E-02 0.  1.
        -24    2    1    2    0    0 -0.35527136788E-14  0.00000000000E+00  0.16608738755E+02  0.82401309913E+02  0.80710133641E+02 0.  0.
         66    2    3    3    0    0  0.16479762018E+02  0.23625116757E+02 -0.20509624593E+02  0.35417134284E+02  0.20000004932E+01 0.  0.
         13    1    3    3    0    0 -0.16479762018E+02 -0.23625116757E+02  0.37118363348E+02  0.46984175630E+02  0.10566000000E+00 0. -1.
         13    1    4    4    0    0  0.27324583100E+01  0.40090729951E+01 -0.28023749767E+01  0.56038793922E+01  0.10566000000E+00 0.  1.
        -13    1    4    4    0    0  0.60434633009E+01  0.93461203708E+01 -0.87747100645E+01  0.14173218244E+02  0.10566000000E+00 0.  1.
         14    1    4    4    0    0  0.77038404071E+01  0.10269923391E+02 -0.89325395521E+01  0.15640036647E+02  0.00000000000E+00 0. -1.
<mgrwt>
<rscale>  0 0.80710134E+02</rscale>
<asrwt>0</asrwt>
<pdfrwt beam="1">  1        1 0.76161576E-02 0.80710134E+02</pdfrwt>
<pdfrwt beam="2">  1       -2 0.50609670E-02 0.80710134E+02</pdfrwt>
<totfact> 0.12817139E+05</totfact>
</mgrwt>
</event>
<event>
 8    1  0.7756875E-018  0.8013887E+02  0.7818608E-02  0.1328658E+00
          1   -1    0    0  501    0  0.00000000000E+00  0.00000000000E+00  0.65473944382E+02  0.65473944576E+02  0.50400000000E-02 0. -1.
         -2   -1    0    0    0  501 -0.00000000000E+00 -0.00000000000E+00 -0.24522115404E+02  0.24522115536E+02  0.25500000000E-02 0.  1.
        -24    2    1    2    0    0  0.00000000000E+00 -0.35527136788E-14  0.40951828978E+02  0.89996060112E+02  0.80138870338E+02 0.  0.
         66    2    3    3    0    0 -0.32516093086E+02  0.18066940482E+02  0.38377354376E+01  0.37449150105E+02  0.19999955946E+01 0.  0.
         13    1    3    3    0    0  0.32516093086E+02 -0.18066940482E+02  0.37114093540E+02  0.52546910007E+02  0.10566000000E+00 0. -1.
         13    1    4    4    0    0 -0.92321121450E+01  0.46616593390E+01  0.15411673870E+01  0.10457022683E+02  0.10566000000E+00 0. -1.
        -13    1    4    4    0    0 -0.14897964381E+02  0.80318549726E+01  0.11098468973E+01  0.16961808900E+02  0.10566000000E+00 0.  1.
         14    1    4    4    0    0 -0.83860165595E+01  0.53734261705E+01  0.11867211533E+01  0.10030318521E+02  0.00000000000E+00 0. -1.
<mgrwt>
<rscale>  0 0.80138870E+02</rscale>
<asrwt>0</asrwt>
<pdfrwt beam="1">  1        1 0.10072914E-01 0.80138870E+02</pdfrwt>
<pdfrwt beam="2">  1       -2 0.37726332E-02 0.80138870E+02</pdfrwt>
<totfact> 0.13659933E+05</totfact>
</mgrwt>
</event>
<event>
 8    1  0.7756875E-018  0.7918923E+02  0.7818608E-02  0.1331368E+00
          1   -1    0    0  501    0  0.00000000000E+00  0.00000000000E+00  0.78650254287E+01  0.78650270436E+01  0.50400000000E-02 0. -1.
         -2   -1    0    0    0  501 -0.00000000000E+00 -0.00000000000E+00 -0.19932974574E+03  0.19932974576E+03  0.25500000000E-02 0.  1.
        -24    2    1    2    0    0  0.00000000000E+00  0.00000000000E+00 -0.19146472031E+03  0.20719477280E+03  0.79189233812E+02 0.  0.
         66    2    3    3    0    0  0.13548209751E+02 -0.37177502678E+02 -0.95558626091E+02  0.10344646792E+03  0.20000029588E+01 0.  0.
         13    1    3    3    0    0 -0.13548209751E+02  0.37177502678E+02 -0.95906094220E+02  0.10374830488E+03  0.10566000000E+00 0. -1.
         13    1    4    4    0    0  0.73748098400E+01 -0.18113696507E+02 -0.46137299394E+02  0.50111429641E+02  0.10566000000E+00 0. -1.
        -13    1    4    4    0    0  0.54399201630E+01 -0.16312380494E+02 -0.41778181934E+02  0.45178691200E+02  0.10566000000E+00 0.  1.
         14    1    4    4    0    0  0.73347974843E+00 -0.27514256776E+01 -0.76431447635E+01  0.81563470792E+01  0.00000000000E+00 0. -1.
<mgrwt>
<rscale>  0 0.79189234E+02</rscale>
<asrwt>0</asrwt>
<pdfrwt beam="1">  1        1 0.12100042E-02 0.79189234E+02</pdfrwt>
<pdfrwt beam="2">  1       -2 0.30666111E-01 0.79189234E+02</pdfrwt>
<totfact> 0.87459274E+04</totfact>
</mgrwt>
</event>
<event>
 8    1  0.7756875E-018  0.7951493E+02  0.7818608E-02  0.1330434E+00
         -2   -1    0    0    0  501 -0.00000000000E+00  0.00000000000E+00  0.14814845790E+03  0.14814845792E+03  0.25500000000E-02 0.  1.
          1   -1    0    0  501    0  0.00000000000E+00 -0.00000000000E+00 -0.10669405158E+02  0.10669406348E+02  0.50400000000E-02 0. -1.
        -24    2    1    2    0    0  0.35527136788E-14  0.00000000000E+00  0.13747905274E+03  0.15881786427E+03  0.79514929846E+02 0.  0.
         66    2    3    3    0    0 -0.22411038719E+02 -0.30041785384E+01  0.13403708788E+03  0.13594565337E+03  0.19999996669E+01 0.  0.
         13    1    3    3    0    0  0.22411038719E+02  0.30041785384E+01  0.34419648617E+01  0.22872210897E+02  0.10566000000E+00 0. -1.
         13    1    4    4    0    0 -0.91613740945E+01 -0.10320624665E+01  0.57412192329E+02  0.58147802369E+02  0.10566000000E+00 0. -1.
        -13    1    4    4    0    0 -0.64702496071E+01 -0.93112330148E+00  0.41126781048E+02  0.41643179562E+02  0.10566000000E+00 0.  1.
        -14    1    4    4    0    0 -0.67794150173E+01 -0.10409927704E+01  0.35498114501E+02  0.36154671441E+02  0.00000000000E+00 0.  1.
<mgrwt>
<rscale>  0 0.79514930E+02</rscale>
<asrwt>0</asrwt>
<pdfrwt beam="1">  1        1 0.16414471E-02 0.79514930E+02</pdfrwt>
<pdfrwt beam="2">  1       -2 0.22792070E-01 0.79514930E+02</pdfrwt>
<totfact> 0.96391638E+04</totfact>
</mgrwt>
</event>
<event>
 8    1  0.7756875E-018  0.8090700E+02  0.7818608E-02  0.1326497E+00
          1   -1    0    0  501    0  0.00000000000E+00  0.00000000000E+00  0.35282537173E+01  0.35282573170E+01  0.50400000000E-02 0. -1.
         -2   -1    0    0    0  501 -0.00000000000E+00 -0.00000000000E+00 -0.46382286858E+03  0.46382286859E+03  0.25500000000E-02 0.  1.
        -24    2    1    2    0    0  0.00000000000E+00  0.00000000000E+00 -0.46029461487E+03  0.46735112591E+03  0.80906998537E+02 0.  0.
         66    2    3    3    0    0 -0.10129995844E+02 -0.17288342700E+02 -0.43311871931E+03  0.43358658723E+03  0.19999988861E+01 0.  0.
         13    1    3    3    0    0  0.10129995844E+02  0.17288342700E+02 -0.27175895556E+02  0.33764538682E+02  0.10566000000E+00 0. -1.
         13    1    4    4    0    0 -0.48219119657E+01 -0.84032220575E+01 -0.22585836593E+03  0.22606609123E+03  0.10566000000E+00 0. -1.
        -13    1    4    4    0    0 -0.21418237701E+01 -0.30504084886E+01 -0.68420272431E+02  0.68521801236E+02  0.10566000000E+00 0.  1.
        -14    1    4    4    0    0 -0.31662601080E+01 -0.58347121542E+01 -0.13884008095E+03  0.13899869476E+03  0.00000000000E+00 0.  1.
<mgrwt>
<rscale>  0 0.80906999E+02</rscale>
<asrwt>0</asrwt>
<pdfrwt beam="1">  1        1 0.54280891E-03 0.80906999E+02</pdfrwt>
<pdfrwt beam="2">  1       -2 0.71357316E-01 0.80906999E+02</pdfrwt>
<totfact> 0.51772726E+04</totfact>
</mgrwt>
</event>
<event>
 8    1  0.7756875E-018  0.7934243E+02  0.7818608E-02  0.1330928E+00
         -2   -1    0    0    0  501 -0.00000000000E+00  0.00000000000E+00  0.12909244698E+02  0.12909244950E+02  0.25500000000E-02 0.  1.
          1   -1    0    0  501    0  0.00000000000E+00 -0.00000000000E+00 -0.12191304317E+03  0.12191304328E+03  0.50400000000E-02 0. -1.
        -24    2    1    2    0    0 -0.71054273576E-14  0.00000000000E+00 -0.10900379847E+03  0.13482228823E+03  0.79342430772E+02 0.  0.
         66    2    3    3    0    0 -0.36843633980E+02  0.11273767859E+02 -0.38664243356E+02  0.54621194812E+02  0.20000004535E+01 0.  0.
         13    1    3    3    0    0  0.36843633980E+02 -0.11273767859E+02 -0.70339555118E+02  0.80201093414E+02  0.10566000000E+00 0. -1.
         13    1    4    4    0    0 -0.15345462844E+02  0.44130658224E+01 -0.17103885993E+02  0.23398984165E+02  0.10566000000E+00 0. -1.
        -13    1    4    4    0    0 -0.19875802520E+02  0.63653655461E+01 -0.19617312138E+02  0.28642896220E+02  0.10566000000E+00 0.  1.
         14    1    4    4    0    0 -0.16223686168E+01  0.49533649050E+00 -0.19430452250E+01  0.25793144272E+01  0.00000000000E+00 0. -1.
<mgrwt>
<rscale>  0 0.79342431E+02</rscale>
<asrwt>0</asrwt>
<pdfrwt beam="1">  1        1 0.18755852E-01 0.79342431E+02</pdfrwt>
<pdfrwt beam="2">  1       -2 0.19860378E-02 0.79342431E+02</pdfrwt>
<totfact> 0.15549396E+05</totfact>
</mgrwt>
</event>
<event>
 8    1  0.7756875E-018  0.8020685E+02  0.7818608E-02  0.1328465E+00
          1   -1    0    0  501    0  0.00000000000E+00  0.00000000000E+00  0.25434299697E+03  0.25434299702E+03  0.50400000000E-02 0. -1.
         -2   -1    0    0    0  501 -0.00000000000E+00 -0.00000000000E+00 -0.63232902870E+01  0.63232908012E+01  0.25500000000E-02 0.  1.
        -24    2    1    2    0    0  0.71054273576E-14 -0.71054273576E-14  0.24801970668E+03  0.26066628782E+03  0.80206849479E+02 0.  0.
         66    2    3    3    0    0 -0.25694196438E+02  0.21620193177E+02  0.52984254568E+02  0.62761100347E+02  0.20000002481E+01 0.  0.
         13    1    3    3    0    0  0.25694196438E+02 -0.21620193177E+02  0.19503545211E+03  0.19790518747E+03  0.10566000000E+00 0. -1.
         13    1    4    4    0    0 -0.33615628877E+01  0.21779940766E+01  0.67844519826E+01  0.78793220511E+01  0.10566000000E+00 0. -1.
        -13    1    4    4    0    0 -0.22567592247E+01  0.19857787850E+01  0.42298194301E+01  0.51902616531E+01  0.10566000000E+00 0.  1.
         14    1    4    4    0    0 -0.20075874326E+02  0.17456420315E+02  0.41969983156E+02  0.49691516643E+02  0.00000000000E+00 0. -1.
<mgrwt>
<rscale>  0 0.80206849E+02</rscale>
<asrwt>0</asrwt>
<pdfrwt beam="1">  1        1 0.39129693E-01 0.80206849E+02</pdfrwt>
<pdfrwt beam="2">  1       -2 0.97281391E-03 0.80206849E+02</pdfrwt>
<totfact> 0.17354849E+05</totfact>
</mgrwt>
</event>
<event>
 8    1  0.7756875E-018  0.7643288E+02  0.7818608E-02  0.1339490E+00
         -2   -1    0    0    0  501 -0.00000000000E+00  0.00000000000E+00  0.52522818672E+02  0.52522818734E+02  0.25500000000E-02 0.  1.
          1   -1    0    0  501    0  0.00000000000E+00 -0.00000000000E+00 -0.27806891496E+02  0.27806891953E+02  0.50400000000E-02 0. -1.
        -24    2    1    2    0    0 -0.35527136788E-14  0.35527136788E-14  0.24715927176E+02  0.80329710686E+02  0.76432881424E+02 0.  0.
         66    2    3    3    0    0 -0.18176599402E+02  0.29681777449E+02  0.28887074602E+02  0.45275376957E+02  0.20000002950E+01 0.  0.
         13    1    3    3    0    0  0.18176599402E+02 -0.29681777449E+02 -0.41711474258E+01  0.35054333730E+02  0.10566000000E+00 0. -1.
         13    1    4    4    0    0 -0.85425271341E+01  0.14495002185E+02  0.14749862344E+02  0.22375197460E+02  0.10566000000E+00 0. -1.
        -13    1    4    4    0    0 -0.68847208848E+01  0.11654807125E+02  0.10796694221E+02  0.17315128672E+02  0.10566000000E+00 0.  1.
         14    1    4    4    0    0 -0.27493513828E+01  0.35319681393E+01  0.33405180366E+01  0.55850508248E+01  0.00000000000E+00 0. -1.
<mgrwt>
<rscale>  0 0.76432881E+02</rscale>
<asrwt>0</asrwt>
<pdfrwt beam="1">  1        1 0.42779834E-02 0.76432881E+02</pdfrwt>
<pdfrwt beam="2">  1       -2 0.80804336E-02 0.76432881E+02</pdfrwt>
<totfact> 0.13603712E+05</totfact>
</mgrwt>
</event>
<event>
 8    1  0.7756875E-018  0.7919796E+02  0.7818608E-02  0.1331343E+00
         -2   -1    0    0    0  501 -0.00000000000E+00  0.00000000000E+00  0.14035750561E+03  0.14035750563E+03  0.25500000000E-02 0.  1.
          1   -1    0    0  501    0  0.00000000000E+00 -0.00000000000E+00 -0.11172035148E+02  0.11172036284E+02  0.50400000000E-02 0. -1.
        -24    2    1    2    0    0  0.00000000000E+00  0.17763568394E-14  0.12918547046E+03  0.15152954192E+03  0.79197956382E+02 0.  0.
         66    2    3    3    0    0  0.37846836324E+02  0.96822751921E+01  0.52541408724E+02  0.65503657229E+02  0.20000017602E+01 0.  0.
         13    1    3    3    0    0 -0.37846836324E+02 -0.96822751921E+01  0.76644061738E+02  0.86025884688E+02  0.10566000000E+00 0. -1.
         13    1    4    4    0    0  0.82382802750E+01  0.26002055077E+01  0.10929304349E+02  0.13931661357E+02  0.10566000000E+00 0.  1.
        -13    1    4    4    0    0  0.90487191103E+01  0.18429963294E+01  0.11938327193E+02  0.15093401645E+02  0.10566000000E+00 0. -1.
        -14    1    4    4    0    0  0.20559836939E+02  0.52390733550E+01  0.29673777181E+02  0.36478594227E+02  0.00000000000E+00 0.  1.
<mgrwt>
<rscale>  0 0.79197956E+02</rscale>
<asrwt>0</asrwt>
<pdfrwt beam="1">  1        1 0.17187747E-02 0.79197956E+02</pdfrwt>
<pdfrwt beam="2">  1       -2 0.21593463E-01 0.79197956E+02</pdfrwt>
<totfact> 0.99081468E+04</totfact>
</mgrwt>
</event>
<event>
 8    1  0.7756875E-018  0.7712155E+02  0.7818608E-02  0.1337424E+00
         -2   -1    0    0    0  501 -0.00000000000E+00  0.00000000000E+00  0.50163909539E+03  0.50163909539E+03  0.25500000000E-02 0.  1.
          1   -1    0    0  501    0  0.00000000000E+00 -0.00000000000E+00 -0.29641471565E+01  0.29641514413E+01  0.50400000000E-02 0. -1.
        -24    2    1    2    0    0  0.00000000000E+00  0.00000000000E+00  0.49867494823E+03  0.50460324684E+03  0.77121545132E+02 0.  0.
         66    2    3    3    0    0  0.21458468396E+02  0.10868153516E+02  0.44648428841E+03  0.44713622356E+03  0.20000005864E+01 0.  0.
         13    1    3    3    0    0 -0.21458468396E+02 -0.10868153516E+02  0.52190659826E+02  0.57467023273E+02  0.10566000000E+00 0. -1.
         13    1    4    4    0    0  0.84473254278E+01  0.45216419090E+01  0.17697128367E+03  0.17723049670E+03  0.10566000000E+00 0. -1.
        -13    1    4    4    0    0  0.99523713238E+01  0.55351447812E+01  0.20919073263E+03  0.20950050430E+03  0.10566000000E+00 0.  1.
         14    1    4    4    0    0  0.30587716440E+01  0.81136682600E+00  0.60322272105E+02  0.60405222556E+02  0.00000000000E+00 0. -1.
<mgrwt>
<rscale>  0 0.77121545E+02</rscale>
<asrwt>0</asrwt>
<pdfrwt beam="1">  1        1 0.45602259E-03 0.77121545E+02</pdfrwt>
<pdfrwt beam="2">  1       -2 0.77175310E-01 0.77121545E+02</pdfrwt>
<totfact> 0.55243986E+04</totfact>
</mgrwt>
</event>
<event>
 8    1  0.7756875E-018  0.7869170E+02  0.7818608E-02  0.1332806E+00
          1   -1    0    0  501    0  0.00000000000E+00  0.00000000000E+00  0.10413269415E+02  0.10413270635E+02  0.50400000000E-02 0. -1.
         -2   -1    0    0    0  501 -0.00000000000E+00 -0.00000000000E+00 -0.14866566855E+03  0.14866566857E+03  0.25500000000E-02 0.  1.
        -24    2    1    2    0    0  0.00000000000E+00  0.00000000000E+00 -0.13825239914E+03  0.15907893921E+03  0.78691696083E+02 0.  0.
         66    2    3    3    0    0  0.59406698492E+01 -0.13123364163E+02 -0.14313217283E+03  0.14386915286E+03  0.20000001321E+01 0.  0.
         13    1    3    3    0    0 -0.59406698492E+01  0.13123364163E+02  0.48797736983E+01  0.15209786343E+02  0.10566000000E+00 0. -1.
         13    1    4    4    0    0  0.27559131579E+00 -0.19238985341E+01 -0.22036544016E+02  0.22122336503E+02  0.10566000000E+00 0. -1.
        -13    1    4    4    0    0  0.41341784953E+01 -0.79449092754E+01 -0.89551153443E+02  0.89997962545E+02  0.10566000000E+00 0.  1.
         14    1    4    4    0    0  0.15309000381E+01 -0.32545563532E+01 -0.31544475375E+02  0.31748853817E+02  0.00000000000E+00 0. -1.
<mgrwt>
<rscale>  0 0.78691696E+02</rscale>
<asrwt>0</asrwt>
<pdfrwt beam="1">  1        1 0.16020417E-02 0.78691696E+02</pdfrwt>
<pdfrwt beam="2">  1       -2 0.22871640E-01 0.78691696E+02</pdfrwt>
<totfact> 0.98894005E+04</totfact>
</mgrwt>
</event>
<event>
 8    1  0.7756875E-018  0.7626155E+02  0.7818608E-02  0.1340008E+00
          1   -1    0    0  501    0  0.00000000000E+00  0.00000000000E+00  0.71349006341E+02  0.71349006519E+02  0.50400000000E-02 0. -1.
         -2   -1    0    0    0  501 -0.00000000000E+00 -0.00000000000E+00 -0.20378084699E+02  0.20378084859E+02  0.25500000000E-02 0.  1.
        -24    2    1    2    0    0  0.00000000000E+00  0.00000000000E+00  0.50970921642E+02  0.91727091378E+02  0.76261552827E+02 0.  0.
         66    2    3    3    0    0  0.31240521584E+02 -0.44530093872E+00 -0.73298107379E+00  0.31316221480E+02  0.19999961883E+01 0.  0.
         13    1    3    3    0    0 -0.31240521584E+02  0.44530093872E+00  0.51703902716E+02  0.60410869898E+02  0.10566000000E+00 0. -1.
         13    1    4    4    0    0  0.12860781750E+02  0.36040172954E+00  0.11616908793E+00  0.12866788874E+02  0.10566000000E+00 0. -1.
        -13    1    4    4    0    0  0.56348715608E+01 -0.39542313881E+00 -0.73604087655E+00  0.56974605899E+01  0.10566000000E+00 0.  1.
        -14    1    4    4    0    0  0.12744868273E+02 -0.41027952945E+00 -0.11310928517E+00  0.12751972016E+02  0.00000000000E+00 0.  1.
<mgrwt>
<rscale>  0 0.76261553E+02</rscale>
<asrwt>0</asrwt>
<pdfrwt beam="1">  1        1 0.10976770E-01 0.76261553E+02</pdfrwt>
<pdfrwt beam="2">  1       -2 0.31350900E-02 0.76261553E+02</pdfrwt>
<totfact> 0.15851664E+05</totfact>
</mgrwt>
</event>
<event>
 8    1  0.7756875E-018  0.8284998E+02  0.7818608E-02  0.1321153E+00
          1   -1    0    0  501    0  0.00000000000E+00  0.00000000000E+00  0.12602185186E+02  0.12602186194E+02  0.50400000000E-02 0. -1.
         -2   -1    0    0    0  501 -0.00000000000E+00 -0.00000000000E+00 -0.13616923042E+03  0.13616923044E+03  0.25500000000E-02 0.  1.
        -24    2    1    2    0    0 -0.17763568394E-14 -0.71054273576E-14 -0.12356704523E+03  0.14877141664E+03  0.82849983347E+02 0.  0.
         66    2    3    3    0    0 -0.12828927767E+02 -0.37588786800E+02 -0.40837961658E+02  0.57002082358E+02  0.20000000030E+01 0.  0.
         13    1    3    3    0    0  0.12828927767E+02  0.37588786800E+02 -0.82729083577E+02  0.91769334281E+02  0.10566000000E+00 0. -1.
         13    1    4    4    0    0 -0.23217535465E+01 -0.50083257890E+01 -0.61346540804E+01  0.82534242264E+01  0.10566000000E+00 0. -1.
        -13    1    4    4    0    0 -0.36248571794E+01 -0.11182567193E+02 -0.12213707857E+02  0.16952145063E+02  0.10566000000E+00 0.  1.
         14    1    4    4    0    0 -0.68823170412E+01 -0.21397893818E+02 -0.22489599721E+02  0.31796513068E+02  0.00000000000E+00 0. -1.
<mgrwt>
<rscale>  0 0.82849983E+02</rscale>
<asrwt>0</asrwt>
<pdfrwt beam="1">  1        1 0.19387979E-02 0.82849983E+02</pdfrwt>
<pdfrwt beam="2">  1       -2 0.20949111E-01 0.82849983E+02</pdfrwt>
<totfact> 0.89064905E+04</totfact>
</mgrwt>
</event>
<event>
 8    1  0.7756875E-018  0.7794850E+02  0.7818608E-02  0.1334976E+00
          1   -1    0    0  501    0  0.00000000000E+00  0.00000000000E+00  0.73923398642E+02  0.73923398814E+02  0.50400000000E-02 0. -1.
         -2   -1    0    0    0  501 -0.00000000000E+00 -0.00000000000E+00 -0.20548193755E+02  0.20548193913E+02  0.25500000000E-02 0.  1.
        -24    2    1    2    0    0  0.35527136788E-14  0.00000000000E+00  0.53375204887E+02  0.94471592727E+02  0.77948504384E+02 0.  0.
         66    2    3    3    0    0 -0.13844720496E+02 -0.24538665544E+02 -0.58869630510E+01  0.28852707450E+02  0.20000002339E+01 0.  0.
         13    1    3    3    0    0  0.13844720496E+02  0.24538665544E+02  0.59262167938E+02  0.65618885277E+02  0.10566000000E+00 0. -1.
         13    1    4    4    0    0 -0.69384620375E+01 -0.13512110915E+02 -0.31731312639E+01  0.15517709975E+02  0.10566000000E+00 0.  1.
        -13    1    4    4    0    0 -0.18868771748E+00 -0.12229345042E+00 -0.43844451329E-01  0.25227983323E+00  0.10566000000E+00 0.  1.
        -14    1    4    4    0    0 -0.67175707410E+01 -0.10904261179E+02 -0.26699873357E+01  0.13082717642E+02  0.00000000000E+00 0.  1.
<mgrwt>
<rscale>  0 0.77948504E+02</rscale>
<asrwt>0</asrwt>
<pdfrwt beam="1">  1        1 0.11372831E-01 0.77948504E+02</pdfrwt>
<pdfrwt beam="2">  1       -2 0.31612606E-02 0.77948504E+02</pdfrwt>
<totfact> 0.15018341E+05</totfact>
</mgrwt>
</event>
<event>
 8    1  0.7756875E-018  0.7834377E+02  0.7818608E-02  0.1333818E+00
          1   -1    0    0  501    0  0.00000000000E+00  0.00000000000E+00  0.99360506056E+01  0.99360518838E+01  0.50400000000E-02 0. -1.
         -2   -1    0    0    0  501 -0.00000000000E+00 -0.00000000000E+00 -0.15443122231E+03  0.15443122233E+03  0.25500000000E-02 0.  1.
        -24    2    1    2    0    0  0.00000000000E+00  0.00000000000E+00 -0.14449517170E+03  0.16436727421E+03  0.78343769291E+02 0.  0.
         66    2    3    3    0    0  0.26901260343E+02 -0.18820826370E+02 -0.11702385993E+03  0.12155856660E+03  0.20000015133E+01 0.  0.
         13    1    3    3    0    0 -0.26901260343E+02  0.18820826370E+02 -0.27471311766E+02  0.42808707613E+02  0.10566000000E+00 0. -1.
         13    1    4    4    0    0  0.27583915654E+01 -0.24167140762E+01 -0.14411338867E+02  0.14871014858E+02  0.10566000000E+00 0. -1.
        -13    1    4    4    0    0  0.61348485508E+01 -0.45986171396E+01 -0.26173265814E+02  0.27273332282E+02  0.10566000000E+00 0.  1.
        -14    1    4    4    0    0  0.18008020227E+02 -0.11805495155E+02 -0.76439255253E+02  0.79414219457E+02  0.00000000000E+00 0.  1.
<mgrwt>
<rscale>  0 0.78343769E+02</rscale>
<asrwt>0</asrwt>
<pdfrwt beam="1">  1        1 0.15286234E-02 0.78343769E+02</pdfrwt>
<pdfrwt beam="2">  1       -2 0.23758648E-01 0.78343769E+02</pdfrwt>
<totfact> 0.98777246E+04</totfact>
</mgrwt>
</event>
<event>
 8    1  0.7756875E-018  0.7955895E+02  0.7818608E-02  0.1330308E+00
         -2   -1    0    0    0  501 -0.00000000000E+00  0.00000000000E+00  0.12019590418E+03  0.12019590420E+03  0.25500000000E-02 0.  1.
          1   -1    0    0  501    0  0.00000000000E+00 -0.00000000000E+00 -0.13165228728E+02  0.13165229693E+02  0.50400000000E-02 0. -1.
        -24    2    1    2    0    0 -0.35527136788E-14  0.00000000000E+00  0.10703067545E+03  0.13336113389E+03  0.79558950138E+02 0.  0.
         66    2    3    3    0    0  0.27095380003E+02 -0.87880082776E+01  0.10003344516E+03  0.10402922119E+03  0.20000010234E+01 0.  0.
         13    1    3    3    0    0 -0.27095380003E+02  0.87880082776E+01  0.69972302834E+01  0.29331912700E+02  0.10566000000E+00 0. -1.
         13    1    4    4    0    0  0.10647338108E+02 -0.38424969923E+01  0.38961823771E+02  0.40572964736E+02  0.10566000000E+00 0. -1.
        -13    1    4    4    0    0  0.13713108319E+02 -0.35961779342E+01  0.49637910044E+02  0.51622815819E+02  0.10566000000E+00 0.  1.
         14    1    4    4    0    0  0.27349335753E+01 -0.13493333511E+01  0.11433711350E+02  0.11833440640E+02  0.00000000000E+00 0. -1.
<mgrwt>
<rscale>  0 0.79558950E+02</rscale>
<asrwt>0</asrwt>
<pdfrwt beam="1">  1        1 0.20254198E-02 0.79558950E+02</pdfrwt>
<pdfrwt beam="2">  1       -2 0.18491678E-01 0.79558950E+02</pdfrwt>
<totfact> 0.10254386E+05</totfact>
</mgrwt>
</event>
<event>
 8    1  0.7756875E-018  0.7963625E+02  0.7818608E-02  0.1330087E+00
          1   -1    0    0  501    0  0.00000000000E+00  0.00000000000E+00  0.53311802720E+02  0.53311802958E+02  0.50400000000E-02 0. -1.
         -2   -1    0    0    0  501 -0.00000000000E+00 -0.00000000000E+00 -0.29739813798E+02  0.29739813907E+02  0.25500000000E-02 0.  1.
        -24    2    1    2    0    0  0.00000000000E+00  0.00000000000E+00  0.23571988922E+02  0.83051616865E+02  0.79636250553E+02 0.  0.
         66    2    3    3    0    0  0.11674890386E+02 -0.16676368646E+02 -0.23864697083E+02  0.31431323570E+02  0.19999994288E+01 0.  0.
         13    1    3    3    0    0 -0.11674890386E+02  0.16676368646E+02  0.47436686005E+02  0.51620293296E+02  0.10566000000E+00 0. -1.
         13    1    4    4    0    0  0.55861098741E+01 -0.69408874692E+01 -0.95642457935E+01  0.13071591488E+02  0.10566000000E+00 0. -1.
        -13    1    4    4    0    0  0.12248056118E+01 -0.16254729183E+01 -0.29586335475E+01  0.35926296078E+01  0.10566000000E+00 0.  1.
        -14    1    4    4    0    0  0.48639748999E+01 -0.81100082587E+01 -0.11341817742E+02  0.14767102474E+02  0.00000000000E+00 0.  1.
<mgrwt>
<rscale>  0 0.79636251E+02</rscale>
<asrwt>0</asrwt>
<pdfrwt beam="1">  1        1 0.82018158E-02 0.79636251E+02</pdfrwt>
<pdfrwt beam="2">  1       -2 0.45753560E-02 0.79636251E+02</pdfrwt>
<totfact> 0.13459155E+05</totfact>
</mgrwt>
</event>
<event>
 8    1  0.7756875E-018  0.8150900E+02  0.7818608E-02  0.1324823E+00
          1   -1    0    0  501    0  0.00000000000E+00  0.00000000000E+00  0.17708296826E+03  0.17708296833E+03  0.50400000000E-02 0. -1.
         -2   -1    0    0    0  501 -0.00000000000E+00 -0.00000000000E+00 -0.93793840709E+01  0.93793844175E+01  0.25500000000E-02 0.  1.
        -24    2    1    2    0    0  0.00000000000E+00  0.00000000000E+00  0.16770358419E+03  0.18646235275E+03  0.81508998540E+02 0.  0.
         66    2    3    3    0    0  0.19047727234E+02 -0.32567121512E+02  0.48796836233E+02  0.61713568427E+02  0.19999963305E+01 0.  0.
         13    1    3    3    0    0 -0.19047727234E+02  0.32567121512E+02  0.11890674796E+03  0.12474878432E+03  0.10566000000E+00 0. -1.
         13    1    4    4    0    0  0.26807633886E+01 -0.52713871907E+01  0.84347186686E+01  0.10301924981E+02  0.10566000000E+00 0. -1.
        -13    1    4    4    0    0  0.48810653997E+01 -0.90329737649E+01  0.13280383453E+02  0.16786874729E+02  0.10566000000E+00 0.  1.
        -14    1    4    4    0    0  0.11485898446E+02 -0.18262760556E+02  0.27081734112E+02  0.34624768718E+02  0.00000000000E+00 0.  1.
<mgrwt>
<rscale>  0 0.81508999E+02</rscale>
<asrwt>0</asrwt>
<pdfrwt beam="1">  1        1 0.27243531E-01 0.81508999E+02</pdfrwt>
<pdfrwt beam="2">  1       -2 0.14429823E-02 0.81508999E+02</pdfrwt>
<totfact> 0.15496192E+05</totfact>
</mgrwt>
</event>
<event>
 8    1  0.7756875E-018  0.8099922E+02  0.7818608E-02  0.1326239E+00
         -2   -1    0    0    0  501 -0.00000000000E+00  0.00000000000E+00  0.93060797245E+02  0.93060797280E+02  0.25500000000E-02 0.  1.
          1   -1    0    0  501    0  0.00000000000E+00 -0.00000000000E+00 -0.17625232497E+02  0.17625233218E+02  0.50400000000E-02 0. -1.
        -24    2    1    2    0    0  0.00000000000E+00 -0.35527136788E-14  0.75435564748E+02  0.11068603050E+03  0.80999215543E+02 0.  0.
         66    2    3    3    0    0 -0.29998971645E+02  0.19246421060E+02  0.63949536692E+02  0.73238693771E+02  0.19999996976E+01 0.  0.
         13    1    3    3    0    0  0.29998971645E+02 -0.19246421060E+02  0.11486028056E+02  0.37447336727E+02  0.10566000000E+00 0. -1.
         13    1    4    4    0    0 -0.36083475470E+01  0.28974629026E+01  0.90654143739E+01  0.10178819435E+02  0.10566000000E+00 0. -1.
        -13    1    4    4    0    0 -0.76114444605E+01  0.49724700471E+01  0.15605591879E+02  0.18061151876E+02  0.10566000000E+00 0.  1.
         14    1    4    4    0    0 -0.18779179637E+02  0.11376488111E+02  0.39278530439E+02  0.44998722460E+02  0.00000000000E+00 0. -1.
<mgrwt>
<rscale>  0 0.80999216E+02</rscale>
<asrwt>0</asrwt>
<pdfrwt beam="1">  1        1 0.27115743E-02 0.80999216E+02</pdfrwt>
<pdfrwt beam="2">  1       -2 0.14317046E-01 0.80999216E+02</pdfrwt>
<totfact> 0.10462329E+05</totfact>
</mgrwt>
</event>
<event>
 8    1  0.7756875E-018  0.8505958E+02  0.7818608E-02  0.1315277E+00
         -2   -1    0    0    0  501 -0.00000000000E+00  0.00000000000E+00  0.20053254941E+03  0.20053254943E+03  0.25500000000E-02 0.  1.
          1   -1    0    0  501    0  0.00000000000E+00 -0.00000000000E+00 -0.90198957491E+01  0.90198971572E+01  0.50400000000E-02 0. -1.
        -24    2    1    2    0    0  0.00000000000E+00  0.35527136788E-14  0.19151265366E+03  0.20955244658E+03  0.85059575339E+02 0.  0.
         66    2    3    3    0    0  0.27680241473E+02 -0.19365003815E+02  0.15936697236E+03  0.16292032106E+03  0.19999982462E+01 0.  0.
         13    1    3    3    0    0 -0.27680241473E+02  0.19365003815E+02  0.32145681297E+02  0.46632125523E+02  0.10566000000E+00 0. -1.
         13    1    4    4    0    0  0.51838481675E+01 -0.27982128503E+01  0.27027041507E+02  0.27661786162E+02  0.10566000000E+00 0. -1.
        -13    1    4    4    0    0  0.56878104598E+01 -0.45180434066E+01  0.34920365380E+02  0.35668010687E+02  0.10566000000E+00 0.  1.
         14    1    4    4    0    0  0.16808582846E+02 -0.12048747558E+02  0.97419565477E+02  0.99590524212E+02  0.00000000000E+00 0. -1.
<mgrwt>
<rscale>  0 0.85059575E+02</rscale>
<asrwt>0</asrwt>
<pdfrwt beam="1">  1        1 0.13876764E-02 0.85059575E+02</pdfrwt>
<pdfrwt beam="2">  1       -2 0.30851160E-01 0.85059575E+02</pdfrwt>
<totfact> 0.72528600E+04</totfact>
</mgrwt>
</event>
<event>
 8    1  0.7756875E-018  0.7901030E+02  0.7818608E-02  0.1331884E+00
         -2   -1    0    0    0  501 -0.00000000000E+00  0.00000000000E+00  0.83944458344E+01  0.83944462217E+01  0.25500000000E-02 0.  1.
          1   -1    0    0  501    0  0.00000000000E+00 -0.00000000000E+00 -0.18591540117E+03  0.18591540124E+03  0.50400000000E-02 0. -1.
        -24    2    1    2    0    0  0.00000000000E+00  0.00000000000E+00 -0.17752095533E+03  0.19430984746E+03  0.79010298295E+02 0.  0.
         66    2    3    3    0    0 -0.38823937835E+02  0.96073473774E+00 -0.10628179195E+03  0.11317261357E+03  0.20000001562E+01 0.  0.
         13    1    3    3    0    0  0.38823937835E+02 -0.96073473774E+00 -0.71239163382E+02  0.81137233892E+02  0.10566000000E+00 0. -1.
         13    1    4    4    0    0 -0.66605359605E+00  0.57097486983E-01 -0.21304364744E+01  0.22353548092E+01  0.10566000000E+00 0.  1.
        -13    1    4    4    0    0 -0.23961634208E+02 -0.14301464563E+00 -0.64287540444E+02  0.68608158316E+02  0.10566000000E+00 0.  1.
        -14    1    4    4    0    0 -0.14196250031E+02  0.10466518964E+01 -0.39863815034E+02  0.42329100441E+02  0.00000000000E+00 0.  1.
<mgrwt>
<rscale>  0 0.79010298E+02</rscale>
<asrwt>0</asrwt>
<pdfrwt beam="1">  1        1 0.28602366E-01 0.79010298E+02</pdfrwt>
<pdfrwt beam="2">  1       -2 0.12914534E-02 0.79010298E+02</pdfrwt>
<totfact> 0.16993056E+05</totfact>
</mgrwt>
</event>
<event>
 8    1  0.7756875E-018  0.8041938E+02  0.7818608E-02  0.1327865E+00
         -2   -1    0    0    0  501 -0.00000000000E+00  0.00000000000E+00  0.13407914777E+02  0.13407915020E+02  0.25500000000E-02 0.  1.
          1   -1    0    0  501    0  0.00000000000E+00 -0.00000000000E+00 -0.12058691335E+03  0.12058691345E+03  0.50400000000E-02 0. -1.
        -24    2    1    2    0    0  0.35527136788E-14  0.00000000000E+00 -0.10717899857E+03  0.13399482847E+03  0.80419377783E+02 0.  0.
         66    2    3    3    0    0  0.29426976315E+02 -0.23597553278E+02 -0.30533634618E+02  0.48570508545E+02  0.20000003988E+01 0.  0.
         13    1    3    3    0    0 -0.29426976315E+02  0.23597553278E+02 -0.76645363954E+02  0.85424319929E+02  0.10566000000E+00 0. -1.
         13    1    4    4    0    0  0.11900015122E+02 -0.93531489974E+01 -0.12809985010E+02  0.19829236901E+02  0.10566000000E+00 0. -1.
        -13    1    4    4    0    0  0.15480590604E+02 -0.12386320761E+02 -0.16063206031E+02  0.25516805824E+02  0.10566000000E+00 0.  1.
         14    1    4    4    0    0  0.20463705884E+01 -0.18580835204E+01 -0.16604435776E+01  0.32244658206E+01  0.00000000000E+00 0. -1.
<mgrwt>
<rscale>  0 0.80419378E+02</rscale>
<asrwt>0</asrwt>
<pdfrwt beam="1">  1        1 0.18551832E-01 0.80419378E+02</pdfrwt>
<pdfrwt beam="2">  1       -2 0.20627562E-02 0.80419378E+02</pdfrwt>
<totfact> 0.14967504E+05</totfact>
</mgrwt>
</event>
<event>
 8    1  0.7756875E-018  0.7621608E+02  0.7818608E-02  0.1340146E+00
         -2   -1    0    0    0  501 -0.00000000000E+00  0.00000000000E+00  0.79681521361E+01  0.79681525442E+01  0.25500000000E-02 0.  1.
          1   -1    0    0  501    0  0.00000000000E+00 -0.00000000000E+00 -0.18225337557E+03  0.18225337564E+03  0.50400000000E-02 0. -1.
        -24    2    1    2    0    0  0.00000000000E+00  0.00000000000E+00 -0.17428522343E+03  0.19022152818E+03  0.76216078863E+02 0.  0.
         66    2    3    3    0    0 -0.37404753841E+02  0.42978390766E+01 -0.72945503453E+02  0.82113540318E+02  0.19999997265E+01 0.  0.
         13    1    3    3    0    0  0.37404753841E+02 -0.42978390766E+01 -0.10133971998E+03  0.10810798787E+03  0.10566000000E+00 0. -1.
         13    1    4    4    0    0 -0.10445413572E+02  0.16070915076E+01 -0.19910587671E+02  0.22541785050E+02  0.10566000000E+00 0. -1.
        -13    1    4    4    0    0 -0.80420319965E+01  0.35903532354E+00 -0.14724524532E+02  0.16781715398E+02  0.10566000000E+00 0.  1.
        -14    1    4    4    0    0 -0.18917308272E+02  0.23317122455E+01 -0.38310391251E+02  0.42790039870E+02  0.00000000000E+00 0.  1.
<mgrwt>
<rscale>  0 0.76216079E+02</rscale>
<asrwt>0</asrwt>
<pdfrwt beam="1">  1        1 0.28038978E-01 0.76216079E+02</pdfrwt>
<pdfrwt beam="2">  1       -2 0.12258697E-02 0.76216079E+02</pdfrwt>
<totfact> 0.18623845E+05</totfact>
</mgrwt>
</event>
<event>
 8    1  0.7756875E-018  0.7962628E+02  0.7818608E-02  0.1330115E+00
         -2   -1    0    0    0  501 -0.00000000000E+00  0.00000000000E+00  0.33910891890E+01  0.33910901478E+01  0.25500000000E-02 0.  1.
          1   -1    0    0  501    0  0.00000000000E+00 -0.00000000000E+00 -0.46742682098E+03  0.46742682101E+03  0.50400000000E-02 0. -1.
        -24    2    1    2    0    0  0.35527136788E-14 -0.71054273576E-14 -0.46403573179E+03  0.47081791115E+03  0.79626283886E+02 0.  0.
         66    2    3    3    0    0  0.19833976898E+02  0.34406993276E+02 -0.24646938612E+03  0.24965653623E+03  0.19999905447E+01 0.  0.
         13    1    3    3    0    0 -0.19833976898E+02 -0.34406993276E+02 -0.21756634567E+03  0.22116137492E+03  0.10566000000E+00 0. -1.
         13    1    4    4    0    0  0.66069468251E+00  0.14030925591E+01 -0.89999385213E+01  0.91331946008E+01  0.10566000000E+00 0.  1.
        -13    1    4    4    0    0  0.17769463053E+02  0.29786334869E+02 -0.21731866579E+03  0.22006906468E+03  0.10566000000E+00 0. -1.
         14    1    4    4    0    0  0.14038191630E+01  0.32175658485E+01 -0.20150781810E+02  0.20454276956E+02  0.00000000000E+00 0. -1.
<mgrwt>
<rscale>  0 0.79626284E+02</rscale>
<asrwt>0</asrwt>
<pdfrwt beam="1">  1        1 0.71911768E-01 0.79626284E+02</pdfrwt>
<pdfrwt beam="2">  1       -2 0.52170647E-03 0.79626284E+02</pdfrwt>
<totfact> 0.19682361E+05</totfact>
</mgrwt>
</event>
<event>
 8    1  0.7756875E-018  0.7964887E+02  0.7818608E-02  0.1330051E+00
          1   -1    0    0  501    0  0.00000000000E+00  0.00000000000E+00  0.17354337157E+02  0.17354337888E+02  0.50400000000E-02 0. -1.
         -2   -1    0    0    0  501 -0.00000000000E+00 -0.00000000000E+00 -0.91388431804E+02  0.91388431839E+02  0.25500000000E-02 0.  1.
        -24    2    1    2    0    0  0.17763568394E-14  0.00000000000E+00 -0.74034094647E+02  0.10874276973E+03  0.79648871918E+02 0.  0.
         66    2    3    3    0    0  0.11878722853E+02 -0.74052671436E+01 -0.87905615361E+02  0.89035606334E+02  0.19999862803E+01 0.  0.
         13    1    3    3    0    0 -0.11878722853E+02  0.74052671436E+01  0.13871520714E+02  0.19707163394E+02  0.10566000000E+00 0. -1.
         13    1    4    4    0    0  0.61362308014E+00 -0.10563189634E+00 -0.49297101635E+01  0.49699997700E+01  0.10566000000E+00 0. -1.
        -13    1    4    4    0    0  0.68776040457E+01 -0.45268198186E+01 -0.54880427949E+02  0.55494739129E+02  0.10566000000E+00 0.  1.
        -14    1    4    4    0    0  0.43874957268E+01 -0.27728154287E+01 -0.28095477249E+02  0.28570867435E+02  0.00000000000E+00 0.  1.
<mgrwt>
<rscale>  0 0.79648872E+02</rscale>
<asrwt>0</asrwt>
<pdfrwt beam="1">  1        1 0.26698981E-02 0.79648872E+02</pdfrwt>
<pdfrwt beam="2">  1       -2 0.14059758E-01 0.79648872E+02</pdfrwt>
<totfact> 0.10968579E+05</totfact>
</mgrwt>
</event>
<event>
 8    1  0.7756875E-018  0.7922894E+02  0.7818608E-02  0.1331254E+00
          1   -1    0    0  501    0  0.00000000000E+00  0.00000000000E+00  0.19135112938E+02  0.19135113601E+02  0.50400000000E-02 0. -1.
         -2   -1    0    0    0  501 -0.00000000000E+00 -0.00000000000E+00 -0.82011857463E+02  0.82011857503E+02  0.25500000000E-02 0.  1.
        -24    2    1    2    0    0  0.00000000000E+00  0.17763568394E-14 -0.62876744525E+02  0.10114697110E+03  0.79228938914E+02 0.  0.
         66    2    3    3    0    0  0.16417332664E+02  0.13553484466E+02 -0.74069804029E+02  0.77094497259E+02  0.19999714575E+01 0.  0.
         13    1    3    3    0    0 -0.16417332664E+02 -0.13553484466E+02  0.11193059503E+02  0.24052473845E+02  0.10566000000E+00 0. -1.
         13    1    4    4    0    0  0.25327759360E+01  0.26586318239E+01 -0.13195508772E+02  0.13697295094E+02  0.10566000000E+00 0. -1.
        -13    1    4    4    0    0  0.31616057561E+01  0.32165712850E+01 -0.14770001420E+02  0.15443645546E+02  0.10566000000E+00 0.  1.
        -14    1    4    4    0    0  0.10722950972E+02  0.76782813572E+01 -0.46104293838E+02  0.47953556619E+02  0.00000000000E+00 0.  1.
<mgrwt>
<rscale>  0 0.79228939E+02</rscale>
<asrwt>0</asrwt>
<pdfrwt beam="1">  1        1 0.29438636E-02 0.79228939E+02</pdfrwt>
<pdfrwt beam="2">  1       -2 0.12617209E-01 0.79228939E+02</pdfrwt>
<totfact> 0.11393656E+05</totfact>
</mgrwt>
</event>
<event>
 8    1  0.7756875E-018  0.8794921E+02  0.7818608E-02  0.1307895E+00
          1   -1    0    0  501    0  0.00000000000E+00  0.00000000000E+00  0.18634409513E+02  0.18634410194E+02  0.50400000000E-02 0. -1.
         -2   -1    0    0    0  501 -0.00000000000E+00 -0.00000000000E+00 -0.10377392247E+03  0.10377392250E+03  0.25500000000E-02 0.  1.
        -24    2    1    2    0    0  0.00000000000E+00  0.00000000000E+00 -0.85139512960E+02  0.12240833270E+03  0.87949208336E+02 0.  0.
         66    2    3    3    0    0  0.32790578652E+02  0.25082520664E+02 -0.63580134815E+02  0.75833953033E+02  0.19999995546E+01 0.  0.
         13    1    3    3    0    0 -0.32790578652E+02 -0.25082520664E+02 -0.21559378144E+02  0.46574379665E+02  0.10566000000E+00 0. -1.
         13    1    4    4    0    0  0.17784232575E+01  0.14271759229E+01 -0.42565644150E+01  0.48300232973E+01  0.10566000000E+00 0.  1.
        -13    1    4    4    0    0  0.14730182786E+02  0.10856523636E+02 -0.28504935306E+02  0.33873070295E+02  0.10566000000E+00 0.  1.
         14    1    4    4    0    0  0.16281972609E+02  0.12798821106E+02 -0.30818635094E+02  0.37130859441E+02  0.00000000000E+00 0. -1.
<mgrwt>
<rscale>  0 0.87949208E+02</rscale>
<asrwt>0</asrwt>
<pdfrwt beam="1">  1        1 0.28668324E-02 0.87949208E+02</pdfrwt>
<pdfrwt beam="2">  1       -2 0.15965219E-01 0.87949208E+02</pdfrwt>
<totfact> 0.82457723E+04</totfact>
</mgrwt>
</event>
<event>
 8    1  0.7756875E-018  0.7926636E+02  0.7818608E-02  0.1331146E+00
         -2   -1    0    0    0  501 -0.00000000000E+00  0.00000000000E+00  0.29285731498E+03  0.29285731499E+03  0.25500000000E-02 0.  1.
          1   -1    0    0  501    0  0.00000000000E+00 -0.00000000000E+00 -0.53636651288E+01  0.53636674967E+01  0.50400000000E-02 0. -1.
        -24    2    1    2    0    0  0.00000000000E+00  0.00000000000E+00  0.28749364985E+03  0.29822098249E+03  0.79266359139E+02 0.  0.
         66    2    3    3    0    0 -0.13660255906E+02  0.16367627260E+02  0.26942571493E+03  0.27027526278E+03  0.19999979881E+01 0.  0.
         13    1    3    3    0    0  0.13660255906E+02 -0.16367627260E+02  0.18067934917E+02  0.27945719704E+02  0.10566000000E+00 0. -1.
         13    1    4    4    0    0 -0.38531677517E+01  0.50262904638E+01  0.71500266229E+02  0.71780287910E+02  0.10566000000E+00 0. -1.
        -13    1    4    4    0    0 -0.59702413244E+01  0.64801240300E+01  0.12135060823E+03  0.12167011577E+03  0.10566000000E+00 0.  1.
        -14    1    4    4    0    0 -0.38368468295E+01  0.48612127663E+01  0.76574840474E+02  0.76824859106E+02  0.00000000000E+00 0.  1.
<mgrwt>
<rscale>  0 0.79266359E+02</rscale>
<asrwt>0</asrwt>
<pdfrwt beam="1">  1        1 0.82517922E-03 0.79266359E+02</pdfrwt>
<pdfrwt beam="2">  1       -2 0.45054984E-01 0.79266359E+02</pdfrwt>
<totfact> 0.72902899E+04</totfact>
</mgrwt>
</event>
<event>
 8    1  0.7756875E-018  0.7983263E+02  0.7818608E-02  0.1329527E+00
          1   -1    0    0  501    0  0.00000000000E+00  0.00000000000E+00  0.21192787608E+02  0.21192788207E+02  0.50400000000E-02 0. -1.
         -2   -1    0    0    0  501 -0.00000000000E+00 -0.00000000000E+00 -0.75181805647E+02  0.75181805690E+02  0.25500000000E-02 0.  1.
        -24    2    1    2    0    0  0.00000000000E+00  0.00000000000E+00 -0.53989018039E+02  0.96374593897E+02  0.79832626663E+02 0.  0.
         66    2    3    3    0    0 -0.30267134334E+02  0.91672952916E+01 -0.56363407223E+02  0.64660439142E+02  0.19999981444E+01 0.  0.
         13    1    3    3    0    0  0.30267134334E+02 -0.91672952916E+01  0.23743891836E+01  0.31714154755E+02  0.10566000000E+00 0. -1.
         13    1    4    4    0    0 -0.92164674819E+01  0.21138266093E+01 -0.17880291189E+02  0.20226900722E+02  0.10566000000E+00 0. -1.
        -13    1    4    4    0    0 -0.10648391691E+02  0.37328421070E+01 -0.20179862701E+02  0.23120561811E+02  0.10566000000E+00 0.  1.
         14    1    4    4    0    0 -0.10402275162E+02  0.33206265753E+01 -0.18303253333E+02  0.21312976610E+02  0.00000000000E+00 0. -1.
<mgrwt>
<rscale>  0 0.79832627E+02</rscale>
<asrwt>0</asrwt>
<pdfrwt beam="1">  1        1 0.32604290E-02 0.79832627E+02</pdfrwt>
<pdfrwt beam="2">  1       -2 0.11566432E-01 0.79832627E+02</pdfrwt>
<totfact> 0.11384876E+05</totfact>
</mgrwt>
</event>
<event>
 8    1  0.7756875E-018  0.7767599E+02  0.7818608E-02  0.1335779E+00
          1   -1    0    0  501    0  0.00000000000E+00  0.00000000000E+00  0.17842720949E+01  0.17842792131E+01  0.50400000000E-02 0. -1.
         -2   -1    0    0    0  501 -0.00000000000E+00 -0.00000000000E+00 -0.84537948321E+03  0.84537948321E+03  0.25500000000E-02 0.  1.
        -24    2    1    2    0    0  0.00000000000E+00  0.00000000000E+00 -0.84359521111E+03  0.84716376243E+03  0.77675994703E+02 0.  0.
         66    2    3    3    0    0 -0.14908048924E+01 -0.17943912282E+02 -0.79706854250E+03  0.79727439939E+03  0.20000004067E+01 0.  0.
         13    1    3    3    0    0  0.14908048924E+01  0.17943912282E+02 -0.46526668616E+02  0.49889363032E+02  0.10566000000E+00 0. -1.
         13    1    4    4    0    0  0.20130975352E+00 -0.70468250167E+01 -0.33532991099E+03  0.33540402299E+03  0.10566000000E+00 0. -1.
        -13    1    4    4    0    0 -0.13008416751E+01 -0.77529387138E+01 -0.32715694438E+03  0.32725139826E+03  0.10566000000E+00 0.  1.
        -14    1    4    4    0    0 -0.39127297085E+00 -0.31441485514E+01 -0.13458168713E+03  0.13461897814E+03  0.00000000000E+00 0.  1.
<mgrwt>
<rscale>  0 0.77675995E+02</rscale>
<asrwt>0</asrwt>
<pdfrwt beam="1">  1        1 0.27450462E-03 0.77675995E+02</pdfrwt>
<pdfrwt beam="2">  1       -2 0.13005806E+00 0.77675995E+02</pdfrwt>
<totfact> 0.33866238E+04</totfact>
</mgrwt>
</event>
<event>
 8    1  0.7756875E-018  0.7957968E+02  0.7818608E-02  0.1330248E+00
          1   -1    0    0  501    0  0.00000000000E+00  0.00000000000E+00  0.29380359698E+02  0.29380360130E+02  0.50400000000E-02 0. -1.
         -2   -1    0    0    0  501 -0.00000000000E+00 -0.00000000000E+00 -0.53887400396E+02  0.53887400457E+02  0.25500000000E-02 0.  1.
        -24    2    1    2    0    0  0.44408920985E-15  0.00000000000E+00 -0.24507040698E+02  0.83267760587E+02  0.79579676485E+02 0.  0.
         66    2    3    3    0    0 -0.32226432252E+01  0.37165000629E+02  0.21465717270E+01  0.37419653533E+02  0.19999998156E+01 0.  0.
         13    1    3    3    0    0  0.32226432252E+01 -0.37165000629E+02 -0.26653612425E+02  0.45848107054E+02  0.10566000000E+00 0. -1.
         13    1    4    4    0    0 -0.34096698477E+00  0.85019151117E+01  0.88637925288E+00  0.85554457082E+01  0.10566000000E+00 0. -1.
        -13    1    4    4    0    0 -0.24750408104E+01  0.26504338061E+02  0.14499249318E+01  0.26659317497E+02  0.10566000000E+00 0.  1.
         14    1    4    4    0    0 -0.40663543007E+00  0.21587474559E+01 -0.18973245760E+00  0.22048903276E+01  0.00000000000E+00 0. -1.
<mgrwt>
<rscale>  0 0.79579676E+02</rscale>
<asrwt>0</asrwt>
<pdfrwt beam="1">  1        1 0.45200554E-02 0.79579676E+02</pdfrwt>
<pdfrwt beam="2">  1       -2 0.82903693E-02 0.79579676E+02</pdfrwt>
<totfact> 0.12234032E+05</totfact>
</mgrwt>
</event>
<event>
 8    1  0.7756875E-018  0.7966965E+02  0.7818608E-02  0.1329992E+00
         -2   -1    0    0    0  501 -0.00000000000E+00  0.00000000000E+00  0.16581714974E+03  0.16581714976E+03  0.25500000000E-02 0.  1.
          1   -1    0    0  501    0  0.00000000000E+00 -0.00000000000E+00 -0.95696557861E+01  0.95696571133E+01  0.50400000000E-02 0. -1.
        -24    2    1    2    0    0  0.00000000000E+00  0.00000000000E+00  0.15624749396E+03  0.17538680688E+03  0.79669647033E+02 0.  0.
         66    2    3    3    0    0  0.12104794997E+02  0.55037433572E+00  0.16165243811E+03  0.16211828928E+03  0.19999997794E+01 0.  0.
         13    1    3    3    0    0 -0.12104794997E+02 -0.55037433572E+00 -0.54049441524E+01  0.13268517594E+02  0.10566000000E+00 0. -1.
         13    1    4    4    0    0  0.22865930704E+01  0.64574358743E+00  0.30646640513E+02  0.30738790338E+02  0.10566000000E+00 0. -1.
        -13    1    4    4    0    0  0.19215198507E+01  0.44075884649E+00  0.28959912373E+02  0.29027128614E+02  0.10566000000E+00 0.  1.
         14    1    4    4    0    0  0.78966820756E+01 -0.53612809820E+00  0.10204588522E+03  0.10235237033E+03  0.00000000000E+00 0. -1.
<mgrwt>
<rscale>  0 0.79669647E+02</rscale>
<asrwt>0</asrwt>
<pdfrwt beam="1">  1        1 0.14722549E-02 0.79669647E+02</pdfrwt>
<pdfrwt beam="2">  1       -2 0.25510329E-01 0.79669647E+02</pdfrwt>
<totfact> 0.92316072E+04</totfact>
</mgrwt>
</event>
<event>
 8    1  0.7756875E-018  0.7976046E+02  0.7818608E-02  0.1329733E+00
          1   -1    0    0  501    0  0.00000000000E+00  0.00000000000E+00  0.20722394554E+03  0.20722394560E+03  0.50400000000E-02 0. -1.
         -2   -1    0    0    0  501 -0.00000000000E+00 -0.00000000000E+00 -0.76749469040E+01  0.76749473276E+01  0.25500000000E-02 0.  1.
        -24    2    1    2    0    0 -0.35527136788E-14  0.00000000000E+00  0.19954899864E+03  0.21489889293E+03  0.79760462170E+02 0.  0.
         66    2    3    3    0    0  0.31521271720E+02 -0.21449428248E+02  0.68559995316E+02  0.78473826692E+02  0.19999937333E+01 0.  0.
         13    1    3    3    0    0 -0.31521271720E+02  0.21449428248E+02  0.13098900332E+03  0.13642506624E+03  0.10566000000E+00 0. -1.
         13    1    4    4    0    0  0.66170309993E+01 -0.46695109136E+01  0.13850271069E+02  0.16044644095E+02  0.10566000000E+00 0. -1.
        -13    1    4    4    0    0  0.16874920333E+02 -0.10830251718E+02  0.35281772805E+02  0.40581670059E+02  0.10566000000E+00 0.  1.
         14    1    4    4    0    0  0.80293203878E+01 -0.59496656165E+01  0.19427951443E+02  0.21847512538E+02  0.00000000000E+00 0. -1.
<mgrwt>
<rscale>  0 0.79760462E+02</rscale>
<asrwt>0</asrwt>
<pdfrwt beam="1">  1        1 0.31880604E-01 0.79760462E+02</pdfrwt>
<pdfrwt beam="2">  1       -2 0.11807612E-02 0.79760462E+02</pdfrwt>
<totfact> 0.16923392E+05</totfact>
</mgrwt>
</event>
<event>
 8    1  0.7756875E-018  0.7680800E+02  0.7818608E-02  0.1338362E+00
         -2   -1    0    0    0  501 -0.00000000000E+00  0.00000000000E+00  0.56047936455E+01  0.56047942256E+01  0.25500000000E-02 0.  1.
          1   -1    0    0  501    0  0.00000000000E+00 -0.00000000000E+00 -0.26314387352E+03  0.26314387357E+03  0.50400000000E-02 0. -1.
        -24    2    1    2    0    0  0.00000000000E+00  0.00000000000E+00 -0.25753907987E+03  0.26874866779E+03  0.76807999442E+02 0.  0.
         66    2    3    3    0    0  0.14177079978E+02  0.30812948642E+02 -0.66027499930E+02  0.74256704418E+02  0.20000008372E+01 0.  0.
         13    1    3    3    0    0 -0.14177079978E+02 -0.30812948642E+02 -0.19151157994E+03  0.19449196337E+03  0.10566000000E+00 0. -1.
         13    1    4    4    0    0  0.10495054949E+02  0.24258464425E+02 -0.51879978524E+02  0.58225102923E+02  0.10566000000E+00 0. -1.
        -13    1    4    4    0    0  0.32400851610E+01  0.60349317735E+01 -0.13065692651E+02  0.14752696087E+02  0.10566000000E+00 0.  1.
         14    1    4    4    0    0  0.44193986859E+00  0.51955244369E+00 -0.10818287548E+01  0.12789054085E+01  0.00000000000E+00 0. -1.
<mgrwt>
<rscale>  0 0.76807999E+02</rscale>
<asrwt>0</asrwt>
<pdfrwt beam="1">  1        1 0.40483663E-01 0.76807999E+02</pdfrwt>
<pdfrwt beam="2">  1       -2 0.86227620E-03 0.76807999E+02</pdfrwt>
<totfact> 0.19583311E+05</totfact>
</mgrwt>
</event>
<event>
 8    1  0.7756875E-018  0.7539532E+02  0.7818608E-02  0.1342651E+00
         -2   -1    0    0    0  501 -0.00000000000E+00  0.00000000000E+00  0.64660351856E+01  0.64660356885E+01  0.25500000000E-02 0.  1.
          1   -1    0    0  501    0  0.00000000000E+00 -0.00000000000E+00 -0.21978131047E+03  0.21978131053E+03  0.50400000000E-02 0. -1.
        -24    2    1    2    0    0  0.00000000000E+00  0.00000000000E+00 -0.21331527529E+03  0.22624734622E+03  0.75395324791E+02 0.  0.
         66    2    3    3    0    0  0.35149769894E+02 -0.11757773199E+02 -0.86522645849E+02  0.94148392408E+02  0.19999984995E+01 0.  0.
         13    1    3    3    0    0 -0.35149769894E+02  0.11757773199E+02 -0.12679262944E+03  0.13209895381E+03  0.10566000000E+00 0. -1.
         13    1    4    4    0    0  0.17181425020E+02 -0.56680642139E+01 -0.42167692229E+02  0.45885223652E+02  0.10566000000E+00 0.  1.
        -13    1    4    4    0    0  0.10732249216E+02 -0.31047380985E+01 -0.24850687889E+02  0.27246805767E+02  0.10566000000E+00 0. -1.
         14    1    4    4    0    0  0.72360956580E+01 -0.29849708867E+01 -0.19504265731E+02  0.21016362988E+02  0.00000000000E+00 0. -1.
<mgrwt>
<rscale>  0 0.75395325E+02</rscale>
<asrwt>0</asrwt>
<pdfrwt beam="1">  1        1 0.33812504E-01 0.75395325E+02</pdfrwt>
<pdfrwt beam="2">  1       -2 0.99477485E-03 0.75395325E+02</pdfrwt>
<totfact> 0.19862015E+05</totfact>
</mgrwt>
</event>
<event>
 8    1  0.7756875E-018  0.8039614E+02  0.7818608E-02  0.1327931E+00
          1   -1    0    0  501    0  0.00000000000E+00  0.00000000000E+00  0.21774242456E+03  0.21774242462E+03  0.50400000000E-02 0. -1.
         -2   -1    0    0    0  501 -0.00000000000E+00 -0.00000000000E+00 -0.74210836526E+01  0.74210840907E+01  0.25500000000E-02 0.  1.
        -24    2    1    2    0    0 -0.22204460493E-15  0.00000000000E+00  0.21032134090E+03  0.22516350871E+03  0.80396139291E+02 0.  0.
         66    2    3    3    0    0 -0.18610441457E+01  0.40005267494E+02  0.96371301790E+02  0.10438061467E+03  0.19999996081E+01 0.  0.
         13    1    3    3    0    0  0.18610441457E+01 -0.40005267494E+02  0.11395003911E+03  0.12078289403E+03  0.10566000000E+00 0. -1.
         13    1    4    4    0    0 -0.90033749803E+00  0.24224707309E+02  0.58275776504E+02  0.63116751683E+02  0.10566000000E+00 0.  1.
        -13    1    4    4    0    0  0.20664134218E-01  0.47394711717E+01  0.12632932838E+02  0.13493152713E+02  0.10566000000E+00 0. -1.
        -14    1    4    4    0    0 -0.98137078191E+00  0.11041089013E+02  0.25462592447E+02  0.27770710278E+02  0.00000000000E+00 0.  1.
<mgrwt>
<rscale>  0 0.80396139E+02</rscale>
<asrwt>0</asrwt>
<pdfrwt beam="1">  1        1 0.33498833E-01 0.80396139E+02</pdfrwt>
<pdfrwt beam="2">  1       -2 0.11417053E-02 0.80396139E+02</pdfrwt>
<totfact> 0.16731520E+05</totfact>
</mgrwt>
</event>
<event>
 8    1  0.7756875E-018  0.8047290E+02  0.7818608E-02  0.1327715E+00
         -2   -1    0    0    0  501 -0.00000000000E+00  0.00000000000E+00  0.69165328006E+01  0.69165332707E+01  0.25500000000E-02 0.  1.
          1   -1    0    0  501    0  0.00000000000E+00 -0.00000000000E+00 -0.23407272054E+03  0.23407272060E+03  0.50400000000E-02 0. -1.
        -24    2    1    2    0    0  0.17763568394E-14  0.35527136788E-14 -0.22715618774E+03  0.24098925387E+03  0.80472895127E+02 0.  0.
         66    2    3    3    0    0  0.15093847519E+02  0.29045636811E+02 -0.43705280857E+02  0.54640871391E+02  0.20000002218E+01 0.  0.
         13    1    3    3    0    0 -0.15093847519E+02 -0.29045636811E+02 -0.18345090688E+03  0.18634838248E+03  0.10566000000E+00 0. -1.
         13    1    4    4    0    0  0.14740669177E+01  0.25660556013E+01 -0.33011650233E+01  0.44346780237E+01  0.10566000000E+00 0. -1.
        -13    1    4    4    0    0  0.63821631270E+01  0.11154913937E+02 -0.17117112679E+02  0.21404925172E+02  0.10566000000E+00 0.  1.
         14    1    4    4    0    0  0.72376174740E+01  0.15324667273E+02 -0.23287003155E+02  0.28801268195E+02  0.00000000000E+00 0. -1.
<mgrwt>
<rscale>  0 0.80472895E+02</rscale>
<asrwt>0</asrwt>
<pdfrwt beam="1">  1        1 0.36011182E-01 0.80472895E+02</pdfrwt>
<pdfrwt beam="2">  1       -2 0.10640822E-02 0.80472895E+02</pdfrwt>
<totfact> 0.16926876E+05</totfact>
</mgrwt>
</event>
<event>
 8    1  0.7756875E-018  0.7852101E+02  0.7818608E-02  0.1333302E+00
         -2   -1    0    0    0  501 -0.00000000000E+00  0.00000000000E+00  0.29524977873E+02  0.29524977983E+02  0.25500000000E-02 0.  1.
          1   -1    0    0  501    0  0.00000000000E+00 -0.00000000000E+00 -0.52206205044E+02  0.52206205287E+02  0.50400000000E-02 0. -1.
        -24    2    1    2    0    0  0.00000000000E+00  0.00000000000E+00 -0.22681227171E+02  0.81731183270E+02  0.78521005169E+02 0.  0.
         66    2    3    3    0    0 -0.19966557877E+02  0.24398423851E+01  0.23715533505E+02  0.31161559684E+02  0.20000020546E+01 0.  0.
         13    1    3    3    0    0  0.19966557877E+02 -0.24398423851E+01 -0.46396760676E+02  0.50569623586E+02  0.10566000000E+00 0. -1.
         13    1    4    4    0    0 -0.10522794928E+01 -0.84423624170E-01  0.10275041067E+01  0.14769387950E+01  0.10566000000E+00 0.  1.
        -13    1    4    4    0    0 -0.16172283887E+02  0.26922620655E+01  0.19411304005E+02  0.25408678210E+02  0.10566000000E+00 0.  1.
        -14    1    4    4    0    0 -0.27419944967E+01 -0.16799605619E+00  0.32767253935E+01  0.42759426796E+01  0.00000000000E+00 0.  1.
<mgrwt>
<rscale>  0 0.78521005E+02</rscale>
<asrwt>0</asrwt>
<pdfrwt beam="1">  1        1 0.80317239E-02 0.78521005E+02</pdfrwt>
<pdfrwt beam="2">  1       -2 0.45423043E-02 0.78521005E+02</pdfrwt>
<totfact> 0.13949638E+05</totfact>
</mgrwt>
</event>
<event>
 8    1  0.7756875E-018  0.7828474E+02  0.7818608E-02  0.1333991E+00
          1   -1    0    0  501    0  0.00000000000E+00  0.00000000000E+00  0.31935564415E+02  0.31935564813E+02  0.50400000000E-02 0. -1.
         -2   -1    0    0    0  501 -0.00000000000E+00 -0.00000000000E+00 -0.47975508134E+02  0.47975508202E+02  0.25500000000E-02 0.  1.
        -24    2    1    2    0    0 -0.71054273576E-14  0.44408920985E-15 -0.16039943719E+02  0.79911073015E+02  0.78284735395E+02 0.  0.
         66    2    3    3    0    0  0.37677770170E+02 -0.29766834466E+01 -0.18316554832E+02  0.42047249495E+02  0.19999999750E+01 0.  0.
         13    1    3    3    0    0 -0.37677770170E+02  0.29766834466E+01  0.22766111126E+01  0.37863823520E+02  0.10566000000E+00 0. -1.
         13    1    4    4    0    0  0.27662946303E+02 -0.23035490824E+01 -0.13629487641E+02  0.30924408384E+02  0.10566000000E+00 0.  1.
        -13    1    4    4    0    0  0.82498701864E+01 -0.80037197214E+00 -0.41714523395E+01  0.92797161618E+01  0.10566000000E+00 0. -1.
         14    1    4    4    0    0  0.17649536806E+01  0.12723760793E+00 -0.51561485131E+00  0.18431249492E+01  0.00000000000E+00 0. -1.
<mgrwt>
<rscale>  0 0.78284735E+02</rscale>
<asrwt>0</asrwt>
<pdfrwt beam="1">  1        1 0.49131638E-02 0.78284735E+02</pdfrwt>
<pdfrwt beam="2">  1       -2 0.73808474E-02 0.78284735E+02</pdfrwt>
<totfact> 0.13008266E+05</totfact>
</mgrwt>
</event>
<event>
 8    1  0.7756875E-018  0.8899648E+02  0.7818608E-02  0.1305300E+00
         -2   -1    0    0    0  501 -0.00000000000E+00  0.00000000000E+00  0.27976293549E+02  0.27976293665E+02  0.25500000000E-02 0.  1.
          1   -1    0    0  501    0  0.00000000000E+00 -0.00000000000E+00 -0.70777541791E+02  0.70777541971E+02  0.50400000000E-02 0. -1.
        -24    2    1    2    0    0  0.00000000000E+00  0.00000000000E+00 -0.42801248242E+02  0.98753835636E+02  0.88996478592E+02 0.  0.
         66    2    3    3    0    0 -0.10805428824E+02 -0.79027359812E+01  0.25651854046E+02  0.29003933091E+02  0.19999976747E+01 0.  0.
         13    1    3    3    0    0  0.10805428824E+02  0.79027359812E+01 -0.68453102288E+02  0.69749902545E+02  0.10566000000E+00 0. -1.
         13    1    4    4    0    0 -0.70719782431E+01 -0.42175945538E+01  0.15740204433E+02  0.17764182495E+02  0.10566000000E+00 0. -1.
        -13    1    4    4    0    0 -0.11641379580E+01 -0.70509261457E+00  0.26032248459E+01  0.29394415140E+01  0.10566000000E+00 0.  1.
        -14    1    4    4    0    0 -0.25693126232E+01 -0.29800488128E+01  0.73084247669E+01  0.83003090820E+01  0.00000000000E+00 0.  1.
<mgrwt>
<rscale>  0 0.88996479E+02</rscale>
<asrwt>0</asrwt>
<pdfrwt beam="1">  1        1 0.10888853E-01 0.88996479E+02</pdfrwt>
<pdfrwt beam="2">  1       -2 0.43040452E-02 0.88996479E+02</pdfrwt>
<totfact> 0.10355080E+05</totfact>
</mgrwt>
</event>
<event>
 8    1  0.7756875E-018  0.7888377E+02  0.7818608E-02  0.1332249E+00
          1   -1    0    0  501    0  0.00000000000E+00  0.00000000000E+00  0.19774314485E+03  0.19774314492E+03  0.50400000000E-02 0. -1.
         -2   -1    0    0    0  501 -0.00000000000E+00 -0.00000000000E+00 -0.78670850414E+01  0.78670854546E+01  0.25500000000E-02 0.  1.
        -24    2    1    2    0    0 -0.88817841970E-15  0.35527136788E-14  0.18987605981E+03  0.20561023037E+03  0.78883767304E+02 0.  0.
         66    2    3    3    0    0 -0.42074104530E+01  0.30132095605E+02  0.29679671168E+02  0.42550304005E+02  0.20000005030E+01 0.  0.
         13    1    3    3    0    0  0.42074104530E+01 -0.30132095605E+02  0.16019638865E+03  0.16305992637E+03  0.10566000000E+00 0. -1.
         13    1    4    4    0    0 -0.38202940609E+00  0.36092353098E+01  0.40819981335E+01  0.54631857726E+01  0.10566000000E+00 0. -1.
        -13    1    4    4    0    0 -0.31028169738E+01  0.19705697824E+02  0.19834258428E+02  0.28130961080E+02  0.10566000000E+00 0.  1.
         14    1    4    4    0    0 -0.72256407311E+00  0.68171624715E+01  0.57634146065E+01  0.89561571519E+01  0.00000000000E+00 0. -1.
<mgrwt>
<rscale>  0 0.78883767E+02</rscale>
<asrwt>0</asrwt>
<pdfrwt beam="1">  1        1 0.30422021E-01 0.78883767E+02</pdfrwt>
<pdfrwt beam="2">  1       -2 0.12103209E-02 0.78883767E+02</pdfrwt>
<totfact> 0.17269296E+05</totfact>
</mgrwt>
</event>
<event>
 8    1  0.8975899E-018  0.8075762E+02  0.7818608E-02  0.1326915E+00
         -2   -1    0    0    0  501 -0.00000000000E+00  0.00000000000E+00  0.25655238759E+02  0.25655238886E+02  0.25500000000E-02 0.  1.
          1   -1    0    0  501    0  0.00000000000E+00 -0.00000000000E+00 -0.63552249282E+02  0.63552249481E+02  0.50400000000E-02 0. -1.
        -24    2    1    2    0    0 -0.35527136788E-14  0.00000000000E+00 -0.37897010522E+02  0.89207488368E+02  0.80757616200E+02 0.  0.
         66    2    3    3    0    0  0.26153327771E+02  0.20936273812E+02  0.58909225338E+01  0.34073847457E+02  0.19999993931E+01 0.  0.
         13    1    3    3    0    0 -0.26153327771E+02 -0.20936273812E+02 -0.43787933056E+02  0.55133640910E+02  0.10566000000E+00 0. -1.
         13    1    4    4    0    0  0.57024694911E+01  0.46186094474E+01  0.18764476547E+01  0.75750862280E+01  0.10566000000E+00 0. -1.
        -13    1    4    4    0    0  0.14048924103E+02  0.11567529119E+02  0.32959123790E+01  0.18494707373E+02  0.10566000000E+00 0.  1.
         14    1    4    4    0    0  0.64019341773E+01  0.47501352457E+01  0.71856250016E+00  0.80040538560E+01  0.00000000000E+00 0. -1.
<mgrwt>
<rscale>  0 0.80757616E+02</rscale>
<asrwt>0</asrwt>
<pdfrwt beam="1">  1        1 0.97772691E-02 0.80757616E+02</pdfrwt>
<pdfrwt beam="2">  1       -2 0.39469598E-02 0.80757616E+02</pdfrwt>
<totfact> 0.13311341E+05</totfact>
</mgrwt>
</event>
<event>
 8    1  0.7756875E-018  0.7829593E+02  0.7818608E-02  0.1333958E+00
          1   -1    0    0  501    0  0.00000000000E+00  0.00000000000E+00  0.43499617524E+01  0.43499646722E+01  0.50400000000E-02 0. -1.
         -2   -1    0    0    0  501 -0.00000000000E+00 -0.00000000000E+00 -0.35231635473E+03  0.35231635474E+03  0.25500000000E-02 0.  1.
        -24    2    1    2    0    0  0.00000000000E+00  0.71054273576E-14 -0.34796639297E+03  0.35666631941E+03  0.78295930677E+02 0.  0.
         66    2    3    3    0    0 -0.13143446247E+02 -0.30734789392E+02 -0.26669256345E+03  0.26878672003E+03  0.20000009281E+01 0.  0.
         13    1    3    3    0    0  0.13143446247E+02  0.30734789392E+02 -0.81273829519E+02  0.87879599378E+02  0.10566000000E+00 0. -1.
         13    1    4    4    0    0 -0.10859113564E+01 -0.27172342631E+01 -0.24115699442E+02  0.24292811470E+02  0.10566000000E+00 0. -1.
        -13    1    4    4    0    0 -0.11949042821E+02 -0.27631935373E+02 -0.23733067137E+03  0.23923244390E+03  0.10566000000E+00 0.  1.
         14    1    4    4    0    0 -0.10849206986E+00 -0.38561975573E+00 -0.52461926380E+01  0.52614646554E+01  0.00000000000E+00 0. -1.
<mgrwt>
<rscale>  0 0.78295931E+02</rscale>
<asrwt>0</asrwt>
<pdfrwt beam="1">  1        1 0.66922539E-03 0.78295931E+02</pdfrwt>
<pdfrwt beam="2">  1       -2 0.54202494E-01 0.78295931E+02</pdfrwt>
<totfact> 0.67719513E+04</totfact>
</mgrwt>
</event>
<event>
 8    1  0.7756875E-018  0.8029902E+02  0.7818608E-02  0.1328205E+00
          1   -1    0    0  501    0  0.00000000000E+00  0.00000000000E+00  0.13017862114E+01  0.13017959678E+01  0.50400000000E-02 0. -1.
         -2   -1    0    0    0  501 -0.00000000000E+00 -0.00000000000E+00 -0.12382808899E+04  0.12382808899E+04  0.25500000000E-02 0.  1.
        -24    2    1    2    0    0  0.00000000000E+00  0.00000000000E+00 -0.12369791036E+04  0.12395826858E+04  0.80299017102E+02 0.  0.
         66    2    3    3    0    0 -0.20547194333E+02  0.10035244325E+01 -0.11506755267E+04  0.11508611394E+04  0.20000006846E+01 0.  0.
         13    1    3    3    0    0  0.20547194333E+02 -0.10035244325E+01 -0.86303576915E+02  0.88721546473E+02  0.10566000000E+00 0. -1.
         13    1    4    4    0    0 -0.53117649641E+01 -0.26964990039E+00 -0.26737790961E+03  0.26743082334E+03  0.10566000000E+00 0. -1.
        -13    1    4    4    0    0 -0.11439150098E+02  0.13109320588E+01 -0.66750413020E+03  0.66760343595E+03  0.10566000000E+00 0.  1.
        -14    1    4    4    0    0 -0.37962792707E+01 -0.37757725932E-01 -0.21579348692E+03  0.21582688007E+03  0.00000000000E+00 0.  1.
<mgrwt>
<rscale>  0 0.80299017E+02</rscale>
<asrwt>0</asrwt>
<pdfrwt beam="1">  1        1 0.20027654E-03 0.80299017E+02</pdfrwt>
<pdfrwt beam="2">  1       -2 0.19050381E+00 0.80299017E+02</pdfrwt>
<totfact> 0.19703944E+04</totfact>
</mgrwt>
</event>
<event>
 8    1  0.7756875E-018  0.7811872E+02  0.7818608E-02  0.1334477E+00
          1   -1    0    0  501    0  0.00000000000E+00  0.00000000000E+00  0.22045068839E+02  0.22045069415E+02  0.50400000000E-02 0. -1.
         -2   -1    0    0    0  501 -0.00000000000E+00 -0.00000000000E+00 -0.69205214725E+02  0.69205214772E+02  0.25500000000E-02 0.  1.
        -24    2    1    2    0    0  0.00000000000E+00  0.00000000000E+00 -0.47160145886E+02  0.91250284187E+02  0.78118723775E+02 0.  0.
         66    2    3    3    0    0  0.33136268540E+02  0.52565304200E+01 -0.46898530154E+02  0.57698488234E+02  0.20000022526E+01 0.  0.
         13    1    3    3    0    0 -0.33136268540E+02 -0.52565304200E+01 -0.26161573125E+00  0.33551795953E+02  0.10566000000E+00 0. -1.
         13    1    4    4    0    0  0.89638060075E+00  0.22127402587E+00 -0.16809355655E+01  0.19207209029E+01  0.10566000000E+00 0.  1.
        -13    1    4    4    0    0  0.87144887047E+01  0.12877650900E+01 -0.11236390410E+02  0.14278245193E+02  0.10566000000E+00 0.  1.
        -14    1    4    4    0    0  0.23525399235E+02  0.37474913041E+01 -0.33981204179E+02  0.41499522138E+02  0.00000000000E+00 0.  1.
<mgrwt>
<rscale>  0 0.78118724E+02</rscale>
<asrwt>0</asrwt>
<pdfrwt beam="1">  1        1 0.33915491E-02 0.78118724E+02</pdfrwt>
<pdfrwt beam="2">  1       -2 0.10646956E-01 0.78118724E+02</pdfrwt>
<totfact> 0.12234686E+05</totfact>
</mgrwt>
</event>
<event>
 8    1  0.7756875E-018  0.7961086E+02  0.7818608E-02  0.1330159E+00
          1   -1    0    0  501    0  0.00000000000E+00  0.00000000000E+00  0.27723369119E+02  0.27723369577E+02  0.50400000000E-02 0. -1.
         -2   -1    0    0    0  501 -0.00000000000E+00 -0.00000000000E+00 -0.57152943513E+02  0.57152943570E+02  0.25500000000E-02 0.  1.
        -24    2    1    2    0    0 -0.44408920985E-15  0.00000000000E+00 -0.29429574394E+02  0.84876313146E+02  0.79610857829E+02 0.  0.
         66    2    3    3    0    0 -0.38878352388E+01  0.39552345022E+02 -0.12888565517E+02  0.41828439816E+02  0.19999991867E+01 0.  0.
         13    1    3    3    0    0  0.38878352388E+01 -0.39552345022E+02 -0.16541008877E+02  0.43047873330E+02  0.10566000000E+00 0. -1.
         13    1    4    4    0    0 -0.31236827633E-01  0.80121136148E+00 -0.47936081928E+00  0.94014159350E+00  0.10566000000E+00 0. -1.
        -13    1    4    4    0    0 -0.39379271388E+01  0.38094684896E+02 -0.12171916603E+02  0.40185557173E+02  0.10566000000E+00 0.  1.
        -14    1    4    4    0    0  0.81328727611E-01  0.65644876482E+00 -0.23728809519E+00  0.70274104967E+00  0.00000000000E+00 0.  1.
<mgrwt>
<rscale>  0 0.79610858E+02</rscale>
<asrwt>0</asrwt>
<pdfrwt beam="1">  1        1 0.42651338E-02 0.79610858E+02</pdfrwt>
<pdfrwt beam="2">  1       -2 0.87927605E-02 0.79610858E+02</pdfrwt>
<totfact> 0.12093563E+05</totfact>
</mgrwt>
</event>
<event>
 8    1  0.7756875E-018  0.8482272E+02  0.7818608E-02  0.1315897E+00
         -2   -1    0    0    0  501 -0.00000000000E+00  0.00000000000E+00  0.43843049215E+03  0.43843049216E+03  0.25500000000E-02 0.  1.
          1   -1    0    0  501    0  0.00000000000E+00 -0.00000000000E+00 -0.41026405547E+01  0.41026436504E+01  0.50400000000E-02 0. -1.
        -24    2    1    2    0    0  0.00000000000E+00  0.00000000000E+00  0.43432785159E+03  0.44253313581E+03  0.84822718752E+02 0.  0.
         66    2    3    3    0    0  0.26395622691E+02  0.63238539892E+01  0.38714239725E+03  0.38809786882E+03  0.20000014471E+01 0.  0.
         13    1    3    3    0    0 -0.26395622691E+02 -0.63238539892E+01  0.47185454346E+02  0.54435266991E+02  0.10566000000E+00 0. -1.
         13    1    4    4    0    0  0.65266375082E+01  0.14559376149E+01  0.88221967127E+02  0.88475100448E+02  0.10566000000E+00 0. -1.
        -13    1    4    4    0    0  0.11438322100E+02  0.23025964905E+01  0.17721734769E+03  0.17760106038E+03  0.10566000000E+00 0.  1.
         14    1    4    4    0    0  0.84306630824E+01  0.25653198837E+01  0.12170308243E+03  0.12202170798E+03  0.00000000000E+00 0. -1.
<mgrwt>
<rscale>  0 0.84822719E+02</rscale>
<asrwt>0</asrwt>
<pdfrwt beam="1">  1        1 0.63117585E-03 0.84822719E+02</pdfrwt>
<pdfrwt beam="2">  1       -2 0.67450830E-01 0.84822719E+02</pdfrwt>
<totfact> 0.47694666E+04</totfact>
</mgrwt>
</event>
<event>
 8    1  0.7756875E-018  0.8044219E+02  0.7818608E-02  0.1327801E+00
         -2   -1    0    0    0  501 -0.00000000000E+00  0.00000000000E+00  0.25264402986E+02  0.25264403115E+02  0.25500000000E-02 0.  1.
          1   -1    0    0  501    0  0.00000000000E+00 -0.00000000000E+00 -0.64032251325E+02  0.64032251523E+02  0.50400000000E-02 0. -1.
        -24    2    1    2    0    0  0.00000000000E+00  0.00000000000E+00 -0.38767848339E+02  0.89296654638E+02  0.80442193311E+02 0.  0.
         66    2    3    3    0    0  0.29478552367E+02  0.20338214347E+02  0.86419872640E+00  0.35880006193E+02  0.19999981252E+01 0.  0.
         13    1    3    3    0    0 -0.29478552367E+02 -0.20338214347E+02 -0.39632047065E+02  0.53416648445E+02  0.10566000000E+00 0. -1.
         13    1    4    4    0    0  0.51524741676E+01  0.43101515301E+01 -0.28567657907E+00  0.67244458064E+01  0.10566000000E+00 0. -1.
        -13    1    4    4    0    0  0.14906194360E+02  0.98892334813E+01  0.61374778082E+00  0.17899145776E+02  0.10566000000E+00 0.  1.
         14    1    4    4    0    0  0.94198838393E+01  0.61388293361E+01  0.53612752465E+00  0.11256414611E+02  0.00000000000E+00 0. -1.
<mgrwt>
<rscale>  0 0.80442193E+02</rscale>
<asrwt>0</asrwt>
<pdfrwt beam="1">  1        1 0.98511156E-02 0.80442193E+02</pdfrwt>
<pdfrwt beam="2">  1       -2 0.38868313E-02 0.80442193E+02</pdfrwt>
<totfact> 0.13471474E+05</totfact>
</mgrwt>
</event>
<event>
 8    1  0.7756875E-018  0.7935920E+02  0.7818608E-02  0.1330880E+00
          1   -1    0    0  501    0  0.00000000000E+00  0.00000000000E+00  0.58197573610E+01  0.58197595433E+01  0.50400000000E-02 0. -1.
         -2   -1    0    0    0  501 -0.00000000000E+00 -0.00000000000E+00 -0.27053881269E+03  0.27053881270E+03  0.25500000000E-02 0.  1.
        -24    2    1    2    0    0  0.71054273576E-14 -0.35527136788E-14 -0.26471905533E+03  0.27635857224E+03  0.79359197319E+02 0.  0.
         66    2    3    3    0    0 -0.33269000566E+02  0.18764397483E+02 -0.16954931144E+03  0.17380994803E+03  0.20000036025E+01 0.  0.
         13    1    3    3    0    0  0.33269000566E+02 -0.18764397483E+02 -0.95169743889E+02  0.10254862421E+03  0.10566000000E+00 0. -1.
         13    1    4    4    0    0 -0.38419996600E+01  0.27686891995E+01 -0.20175555890E+02  0.20724160315E+02  0.10566000000E+00 0. -1.
        -13    1    4    4    0    0 -0.45505834373E+01  0.21411961684E+01 -0.23137750513E+02  0.23678243041E+02  0.10566000000E+00 0.  1.
        -14    1    4    4    0    0 -0.24876417469E+02  0.13854512115E+02 -0.12623600504E+03  0.12940754468E+03  0.00000000000E+00 0.  1.
<mgrwt>
<rscale>  0 0.79359197E+02</rscale>
<asrwt>0</asrwt>
<pdfrwt beam="1">  1        1 0.89534767E-03 0.79359197E+02</pdfrwt>
<pdfrwt beam="2">  1       -2 0.41621346E-01 0.79359197E+02</pdfrwt>
<totfact> 0.75739945E+04</totfact>
</mgrwt>
</event>
<event>
 8    1  0.7756875E-018  0.7927846E+02  0.7818608E-02  0.1331112E+00
          1   -1    0    0  501    0  0.00000000000E+00  0.00000000000E+00  0.15842143440E+03  0.15842143448E+03  0.50400000000E-02 0. -1.
         -2   -1    0    0    0  501 -0.00000000000E+00 -0.00000000000E+00 -0.99182817864E+01  0.99182821142E+01  0.25500000000E-02 0.  1.
        -24    2    1    2    0    0  0.00000000000E+00 -0.17763568394E-14  0.14850315261E+03  0.16833971659E+03  0.79278457647E+02 0.  0.
         66    2    3    3    0    0 -0.28825437916E+02  0.12008817298E+02  0.22540644185E+02  0.38564209438E+02  0.20000113423E+01 0.  0.
         13    1    3    3    0    0  0.28825437916E+02 -0.12008817298E+02  0.12596250843E+03  0.12977550716E+03  0.10566000000E+00 0. -1.
         13    1    4    4    0    0 -0.82620582218E+01  0.30549293941E+01  0.58092180940E+01  0.10552363648E+02  0.10566000000E+00 0.  1.
        -13    1    4    4    0    0 -0.70001699592E+01  0.23870492831E+01  0.54994178573E+01  0.92171115075E+01  0.10566000000E+00 0.  1.
        -14    1    4    4    0    0 -0.13563209735E+02  0.65668386207E+01  0.11232008234E+02  0.18794734283E+02  0.00000000000E+00 0.  1.
<mgrwt>
<rscale>  0 0.79278458E+02</rscale>
<asrwt>0</asrwt>
<pdfrwt beam="1">  1        1 0.24372527E-01 0.79278458E+02</pdfrwt>
<pdfrwt beam="2">  1       -2 0.15258896E-02 0.79278458E+02</pdfrwt>
<totfact> 0.16339369E+05</totfact>
</mgrwt>
</event>
<event>
 8    1  0.1063250E-017  0.7523481E+02  0.7818608E-02  0.1343145E+00
          1   -1    0    0  501    0  0.00000000000E+00  0.00000000000E+00  0.13094483792E+03  0.13094483802E+03  0.50400000000E-02 0. -1.
         -2   -1    0    0    0  501 -0.00000000000E+00 -0.00000000000E+00 -0.10806603889E+02  0.10806604190E+02  0.25500000000E-02 0.  1.
        -24    2    1    2    0    0  0.00000000000E+00  0.00000000000E+00  0.12013823404E+03  0.14175144221E+03  0.75234806385E+02 0.  0.
         66    2    3    3    0    0  0.18023789205E+01 -0.24326966851E+02  0.62238141976E+01  0.25254420373E+02  0.19999998170E+01 0.  0.
         13    1    3    3    0    0 -0.18023789205E+01  0.24326966851E+02  0.11391441984E+03  0.11649702184E+03  0.10566000000E+00 0. -1.
         13    1    4    4    0    0  0.88089672902E+00 -0.11870373195E+02  0.30997737111E+01  0.12300467468E+02  0.10566000000E+00 0. -1.
        -13    1    4    4    0    0  0.45765460103E+00 -0.10381995835E+02  0.21364885007E+01  0.10609949689E+02  0.10566000000E+00 0.  1.
         14    1    4    4    0    0  0.46382759046E+00 -0.20745978211E+01  0.98755198577E+00  0.23440032162E+01  0.00000000000E+00 0. -1.
<mgrwt>
<rscale>  0 0.75234806E+02</rscale>
<asrwt>0</asrwt>
<pdfrwt beam="1">  1        1 0.20145359E-01 0.75234806E+02</pdfrwt>
<pdfrwt beam="2">  1       -2 0.16625546E-02 0.75234806E+02</pdfrwt>
<totfact> 0.18148713E+05</totfact>
</mgrwt>
</event>
<event>
 8    1  0.7756875E-018  0.8130632E+02  0.7818608E-02  0.1325385E+00
         -2   -1    0    0    0  501 -0.00000000000E+00  0.00000000000E+00  0.26143639134E+03  0.26143639135E+03  0.25500000000E-02 0.  1.
          1   -1    0    0  501    0  0.00000000000E+00 -0.00000000000E+00 -0.63215339800E+01  0.63215359892E+01  0.50400000000E-02 0. -1.
        -24    2    1    2    0    0  0.00000000000E+00  0.17763568394E-14  0.25511485736E+03  0.26775792734E+03  0.81306317150E+02 0.  0.
         66    2    3    3    0    0 -0.25547049069E+02 -0.15781289700E+02  0.21776063988E+03  0.21983038257E+03  0.19999992571E+01 0.  0.
         13    1    3    3    0    0  0.25547049069E+02  0.15781289700E+02  0.37354217482E+02  0.47927544778E+02  0.10566000000E+00 0. -1.
         13    1    4    4    0    0 -0.18595879909E+02 -0.11366522168E+02  0.15232432923E+03  0.15387565440E+03  0.10566000000E+00 0.  1.
        -13    1    4    4    0    0 -0.41330291938E+01 -0.28703265912E+01  0.41204815762E+02  0.41511067332E+02  0.10566000000E+00 0. -1.
        -14    1    4    4    0    0 -0.28181399670E+01 -0.15444409407E+01  0.24231494888E+02  0.24443660839E+02  0.00000000000E+00 0.  1.
<mgrwt>
<rscale>  0 0.81306317E+02</rscale>
<asrwt>0</asrwt>
<pdfrwt beam="1">  1        1 0.97254383E-03 0.81306317E+02</pdfrwt>
<pdfrwt beam="2">  1       -2 0.40220984E-01 0.81306317E+02</pdfrwt>
<totfact> 0.72367703E+04</totfact>
</mgrwt>
</event>
<event>
 8    1  0.7756875E-018  0.7339695E+02  0.7818608E-02  0.1348908E+00
          1   -1    0    0  501    0  0.00000000000E+00  0.00000000000E+00  0.38768462336E+01  0.38768495097E+01  0.50400000000E-02 0. -1.
         -2   -1    0    0    0  501 -0.00000000000E+00 -0.00000000000E+00 -0.34738997395E+03  0.34738997396E+03  0.25500000000E-02 0.  1.
        -24    2    1    2    0    0  0.17763568394E-14  0.17763568394E-14 -0.34351312772E+03  0.35126682347E+03  0.73396950594E+02 0.  0.
         66    2    3    3    0    0  0.86830596257E+01 -0.13863822210E+02 -0.32895678895E+03  0.32936935208E+03  0.20000013585E+01 0.  0.
         13    1    3    3    0    0 -0.86830596257E+01  0.13863822210E+02 -0.14556338766E+02  0.21897471384E+02  0.10566000000E+00 0. -1.
         13    1    4    4    0    0  0.16099068459E+01 -0.15247056749E+01 -0.38881536428E+02  0.38944852889E+02  0.10566000000E+00 0. -1.
        -13    1    4    4    0    0  0.57392560994E+01 -0.94709647556E+01 -0.22683483208E+03  0.22710502073E+03  0.10566000000E+00 0.  1.
        -14    1    4    4    0    0  0.13338966804E+01 -0.28681517790E+01 -0.63240420443E+02  0.63319478462E+02  0.00000000000E+00 0.  1.
<mgrwt>
<rscale>  0 0.73396951E+02</rscale>
<asrwt>0</asrwt>
<pdfrwt beam="1">  1        1 0.59643841E-03 0.73396951E+02</pdfrwt>
<pdfrwt beam="2">  1       -2 0.53444587E-01 0.73396951E+02</pdfrwt>
<totfact> 0.80647115E+04</totfact>
</mgrwt>
</event>
<event>
 8    1  0.7756875E-018  0.7880563E+02  0.7818608E-02  0.1332475E+00
         -2   -1    0    0    0  501 -0.00000000000E+00  0.00000000000E+00  0.49626141870E+02  0.49626141935E+02  0.25500000000E-02 0.  1.
          1   -1    0    0  501    0  0.00000000000E+00 -0.00000000000E+00 -0.31285565932E+02  0.31285566338E+02  0.50400000000E-02 0. -1.
        -24    2    1    2    0    0  0.00000000000E+00  0.00000000000E+00  0.18340575938E+02  0.80911708274E+02  0.78805633111E+02 0.  0.
         66    2    3    3    0    0  0.13270099669E+01 -0.23528345215E+02  0.41566591922E+02  0.47823901357E+02  0.19999982331E+01 0.  0.
         13    1    3    3    0    0 -0.13270099669E+01  0.23528345215E+02 -0.23226015985E+02  0.33087806917E+02  0.10566000000E+00 0. -1.
         13    1    4    4    0    0 -0.18298700746E+00 -0.58066189350E+01  0.10197646957E+02  0.11736842641E+02  0.10566000000E+00 0. -1.
        -13    1    4    4    0    0  0.59597680789E-01 -0.85594557399E+01  0.14707758755E+02  0.17017554644E+02  0.10566000000E+00 0.  1.
         14    1    4    4    0    0  0.14503992936E+01 -0.91622705400E+01  0.16661186211E+02  0.19069504071E+02  0.00000000000E+00 0. -1.
<mgrwt>
<rscale>  0 0.78805633E+02</rscale>
<asrwt>0</asrwt>
<pdfrwt beam="1">  1        1 0.48131641E-02 0.78805633E+02</pdfrwt>
<pdfrwt beam="2">  1       -2 0.76347910E-02 0.78805633E+02</pdfrwt>
<totfact> 0.12720022E+05</totfact>
</mgrwt>
</event>
<event>
 8    1  0.7756875E-018  0.7859205E+02  0.7818608E-02  0.1333095E+00
          1   -1    0    0  501    0  0.00000000000E+00  0.00000000000E+00  0.50447494713E+02  0.50447494965E+02  0.50400000000E-02 0. -1.
         -2   -1    0    0    0  501 -0.00000000000E+00 -0.00000000000E+00 -0.30609597376E+02  0.30609597483E+02  0.25500000000E-02 0.  1.
        -24    2    1    2    0    0 -0.35527136788E-14  0.00000000000E+00  0.19837897337E+02  0.81057092447E+02  0.78592048359E+02 0.  0.
         66    2    3    3    0    0  0.19939586349E+02  0.44236201059E+01 -0.24667943790E+02  0.32088361842E+02  0.19999990588E+01 0.  0.
         13    1    3    3    0    0 -0.19939586349E+02 -0.44236201059E+01  0.44505841127E+02  0.48968730605E+02  0.10566000000E+00 0. -1.
         13    1    4    4    0    0  0.23730342763E+01  0.22283029475E+00 -0.36372280875E+01  0.43498893334E+01  0.10566000000E+00 0. -1.
        -13    1    4    4    0    0  0.88474248772E+01  0.24280888575E+01 -0.10128978011E+02  0.13666744383E+02  0.10566000000E+00 0.  1.
        -14    1    4    4    0    0  0.87191271960E+01  0.17727009537E+01 -0.10901737692E+02  0.14071728125E+02  0.00000000000E+00 0.  1.
<mgrwt>
<rscale>  0 0.78592048E+02</rscale>
<asrwt>0</asrwt>
<pdfrwt beam="1">  1        1 0.77611530E-02 0.78592048E+02</pdfrwt>
<pdfrwt beam="2">  1       -2 0.47091689E-02 0.78592048E+02</pdfrwt>
<totfact> 0.13841296E+05</totfact>
</mgrwt>
</event>
<event>
 8    1  0.7756875E-018  0.8019744E+02  0.7818608E-02  0.1328492E+00
          1   -1    0    0  501    0  0.00000000000E+00  0.00000000000E+00  0.94248538344E+02  0.94248538478E+02  0.50400000000E-02 0. -1.
         -2   -1    0    0    0  501 -0.00000000000E+00 -0.00000000000E+00 -0.17060287553E+02  0.17060287744E+02  0.25500000000E-02 0.  1.
        -24    2    1    2    0    0 -0.44408920985E-15  0.71054273576E-14  0.77188250790E+02  0.11130882622E+03  0.80197435963E+02 0.  0.
         66    2    3    3    0    0 -0.27603558533E+01  0.37428001069E+02  0.19116348944E+02  0.42165267039E+02  0.20000297632E+01 0.  0.
         13    1    3    3    0    0  0.27603558533E+01 -0.37428001069E+02  0.58071901847E+02  0.69143559184E+02  0.10566000000E+00 0. -1.
         13    1    4    4    0    0 -0.21264417663E+01  0.29493237241E+02  0.14292028603E+02  0.32842747193E+02  0.10566000000E+00 0. -1.
        -13    1    4    4    0    0 -0.63835342597E+00  0.78663629987E+01  0.48303986611E+01  0.92537061324E+01  0.10566000000E+00 0.  1.
        -14    1    4    4    0    0  0.44393389513E-02  0.68400829519E-01 -0.60783207561E-02  0.68813713694E-01  0.00000000000E+00 0.  1.
<mgrwt>
<rscale>  0 0.80197436E+02</rscale>
<asrwt>0</asrwt>
<pdfrwt beam="1">  1        1 0.14499775E-01 0.80197436E+02</pdfrwt>
<pdfrwt beam="2">  1       -2 0.26246596E-02 0.80197436E+02</pdfrwt>
<totfact> 0.14457472E+05</totfact>
</mgrwt>
</event>
<event>
 8    1  0.7756875E-018  0.7931172E+02  0.7818608E-02  0.1331016E+00
          1   -1    0    0  501    0  0.00000000000E+00  0.00000000000E+00  0.27557996040E+02  0.27557996501E+02  0.50400000000E-02 0. -1.
         -2   -1    0    0    0  501 -0.00000000000E+00 -0.00000000000E+00 -0.57064638163E+02  0.57064638220E+02  0.25500000000E-02 0.  1.
        -24    2    1    2    0    0  0.88817841970E-15 -0.35527136788E-14 -0.29506642122E+02  0.84622634720E+02  0.79311716522E+02 0.  0.
         66    2    3    3    0    0 -0.79972371318E+01  0.18681937648E+02 -0.51064682019E+02  0.54996112072E+02  0.19999993291E+01 0.  0.
         13    1    3    3    0    0  0.79972371318E+01 -0.18681937648E+02  0.21558039896E+02  0.29626522649E+02  0.10566000000E+00 0. -1.
         13    1    4    4    0    0 -0.52632890097E+01  0.10696788172E+02 -0.29569015789E+02  0.31881990954E+02  0.10566000000E+00 0. -1.
        -13    1    4    4    0    0 -0.11360562050E+01  0.29820733622E+01 -0.69199339129E+01  0.76210258255E+01  0.10566000000E+00 0.  1.
         14    1    4    4    0    0 -0.15978919171E+01  0.50030761139E+01 -0.14575732317E+02  0.15493095293E+02  0.00000000000E+00 0. -1.
<mgrwt>
<rscale>  0 0.79311717E+02</rscale>
<asrwt>0</asrwt>
<pdfrwt beam="1">  1        1 0.42396917E-02 0.79311717E+02</pdfrwt>
<pdfrwt beam="2">  1       -2 0.87791751E-02 0.79311717E+02</pdfrwt>
<totfact> 0.12212511E+05</totfact>
</mgrwt>
</event>
<event>
 8    1  0.7756875E-018  0.7804523E+02  0.7818608E-02  0.1334692E+00
         -2   -1    0    0    0  501 -0.00000000000E+00  0.00000000000E+00  0.21269309667E+02  0.21269309820E+02  0.25500000000E-02 0.  1.
          1   -1    0    0  501    0  0.00000000000E+00 -0.00000000000E+00 -0.71594450575E+02  0.71594450753E+02  0.50400000000E-02 0. -1.
        -24    2    1    2    0    0  0.35527136788E-14  0.00000000000E+00 -0.50325140908E+02  0.92863760573E+02  0.78045231888E+02 0.  0.
         66    2    3    3    0    0  0.18930570545E+02  0.39292596640E+01  0.15117967859E+02  0.24624349440E+02  0.20000126291E+01 0.  0.
         13    1    3    3    0    0 -0.18930570545E+02 -0.39292596640E+01 -0.65443108767E+02  0.68239411133E+02  0.10566000000E+00 0. -1.
         13    1    4    4    0    0  0.14939628070E+02  0.24664379777E+01  0.12071287269E+02  0.19364992732E+02  0.10566000000E+00 0.  1.
        -13    1    4    4    0    0  0.96346442591E+00  0.37954431730E+00  0.48557048909E+00  0.11485905817E+01  0.10566000000E+00 0. -1.
        -14    1    4    4    0    0  0.30274780497E+01  0.10832773690E+01  0.25611101002E+01  0.41107661263E+01  0.00000000000E+00 0.  1.
<mgrwt>
<rscale>  0 0.78045232E+02</rscale>
<asrwt>0</asrwt>
<pdfrwt beam="1">  1        1 0.11014531E-01 0.78045232E+02</pdfrwt>
<pdfrwt beam="2">  1       -2 0.32722015E-02 0.78045232E+02</pdfrwt>
<totfact> 0.14893013E+05</totfact>
</mgrwt>
</event>
<event>
 8    1  0.7756875E-018  0.8225000E+02  0.7818608E-02  0.1322785E+00
          1   -1    0    0  501    0  0.00000000000E+00  0.00000000000E+00  0.27174618331E+02  0.27174618798E+02  0.50400000000E-02 0. -1.
         -2   -1    0    0    0  501 -0.00000000000E+00 -0.00000000000E+00 -0.62236962993E+02  0.62236963046E+02  0.25500000000E-02 0.  1.
        -24    2    1    2    0    0  0.00000000000E+00 -0.71054273576E-14 -0.35062344662E+02  0.89411581844E+02  0.82250002764E+02 0.  0.
         66    2    3    3    0    0 -0.50343504916E+01  0.37233375989E+02 -0.35653289969E+02  0.51834602817E+02  0.19999978018E+01 0.  0.
         13    1    3    3    0    0  0.50343504916E+01 -0.37233375989E+02  0.59094530708E+00  0.37576979027E+02  0.10566000000E+00 0. -1.
         13    1    4    4    0    0 -0.47867504258E-01  0.28299449992E+01 -0.27149938239E+01  0.39234214018E+01  0.10566000000E+00 0.  1.
        -13    1    4    4    0    0 -0.19237551102E+01  0.94251527458E+01 -0.86658540791E+01  0.12947684309E+02  0.10566000000E+00 0. -1.
        -14    1    4    4    0    0 -0.30627278772E+01  0.24978278244E+02 -0.24272442066E+02  0.34963497107E+02  0.00000000000E+00 0.  1.
<mgrwt>
<rscale>  0 0.82250003E+02</rscale>
<asrwt>0</asrwt>
<pdfrwt beam="1">  1        1 0.41807106E-02 0.82250003E+02</pdfrwt>
<pdfrwt beam="2">  1       -2 0.95749174E-02 0.82250003E+02</pdfrwt>
<totfact> 0.10960178E+05</totfact>
</mgrwt>
</event>
<event>
 8    1  0.7756875E-018  0.7984973E+02  0.7818608E-02  0.1329478E+00
         -2   -1    0    0    0  501 -0.00000000000E+00  0.00000000000E+00  0.35380276487E+02  0.35380276579E+02  0.25500000000E-02 0.  1.
          1   -1    0    0  501    0  0.00000000000E+00 -0.00000000000E+00 -0.45053203053E+02  0.45053203335E+02  0.50400000000E-02 0. -1.
        -24    2    1    2    0    0  0.00000000000E+00  0.35527136788E-14 -0.96729265657E+01  0.80433479914E+02  0.79849728758E+02 0.  0.
         66    2    3    3    0    0 -0.87915998853E+01  0.27478911406E+02  0.22922968214E+02  0.36903187920E+02  0.20000015890E+01 0.  0.
         13    1    3    3    0    0  0.87915998853E+01 -0.27478911406E+02 -0.32595894779E+02  0.43530291994E+02  0.10566000000E+00 0. -1.
         13    1    4    4    0    0 -0.32700187510E+01  0.12827570565E+02  0.10275683206E+02  0.16758294025E+02  0.10566000000E+00 0. -1.
        -13    1    4    4    0    0 -0.45496593370E+01  0.12830967740E+02  0.11098103644E+02  0.17564515414E+02  0.10566000000E+00 0.  1.
         14    1    4    4    0    0 -0.97192179732E+00  0.18203731011E+01  0.15491813633E+01  0.25803784807E+01  0.00000000000E+00 0. -1.
<mgrwt>
<rscale>  0 0.79849729E+02</rscale>
<asrwt>0</asrwt>
<pdfrwt beam="1">  1        1 0.69312621E-02 0.79849729E+02</pdfrwt>
<pdfrwt beam="2">  1       -2 0.54431194E-02 0.79849729E+02</pdfrwt>
<totfact> 0.13010541E+05</totfact>
</mgrwt>
</event>
<event>
 8    1  0.7756875E-018  0.8121555E+02  0.7818608E-02  0.1325637E+00
         -2   -1    0    0    0  501 -0.00000000000E+00  0.00000000000E+00  0.29281952232E+02  0.29281952343E+02  0.25500000000E-02 0.  1.
          1   -1    0    0  501    0  0.00000000000E+00 -0.00000000000E+00 -0.56314262729E+02  0.56314262954E+02  0.50400000000E-02 0. -1.
        -24    2    1    2    0    0  0.00000000000E+00 -0.35527136788E-14 -0.27032310497E+02  0.85596215297E+02  0.81215554313E+02 0.  0.
         66    2    3    3    0    0 -0.63509232081E+01 -0.31440773089E+02  0.12678930254E+02  0.34548686033E+02  0.19999990523E+01 0.  0.
         13    1    3    3    0    0  0.63509232081E+01  0.31440773089E+02 -0.39711240751E+02  0.51047529264E+02  0.10566000000E+00 0. -1.
         13    1    4    4    0    0 -0.76895160007E+00 -0.24542314046E+01  0.11396482989E+01  0.28150489572E+01  0.10566000000E+00 0. -1.
        -13    1    4    4    0    0 -0.99172695203E+00 -0.58814166690E+01  0.16842292686E+01  0.61985785989E+01  0.10566000000E+00 0.  1.
        -14    1    4    4    0    0 -0.45902446560E+01 -0.23105125015E+02  0.98550526862E+01  0.25535058477E+02  0.00000000000E+00 0.  1.
<mgrwt>
<rscale>  0 0.81215554E+02</rscale>
<asrwt>0</asrwt>
<pdfrwt beam="1">  1        1 0.86637328E-02 0.81215554E+02</pdfrwt>
<pdfrwt beam="2">  1       -2 0.45049157E-02 0.81215554E+02</pdfrwt>
<totfact> 0.12856659E+05</totfact>
</mgrwt>
</event>
<event>
 8    1  0.7756875E-018  0.7979026E+02  0.7818608E-02  0.1329648E+00
         -2   -1    0    0    0  501 -0.00000000000E+00  0.00000000000E+00  0.92968483581E+01  0.92968487078E+01  0.25500000000E-02 0.  1.
          1   -1    0    0  501    0  0.00000000000E+00 -0.00000000000E+00 -0.17120010896E+03  0.17120010903E+03  0.50400000000E-02 0. -1.
        -24    2    1    2    0    0 -0.71054273576E-14 -0.17763568394E-14 -0.16190326060E+03  0.18049695774E+03  0.79790262316E+02 0.  0.
         66    2    3    3    0    0 -0.32938810415E+02 -0.92157608038E+01 -0.34657617733E+02  0.48734443072E+02  0.19999989820E+01 0.  0.
         13    1    3    3    0    0  0.32938810415E+02  0.92157608038E+01 -0.12724564287E+03  0.13176251467E+03  0.10566000000E+00 0. -1.
         13    1    4    4    0    0 -0.11873217067E+02 -0.33389338691E+01 -0.12463610843E+02  0.17534951445E+02  0.10566000000E+00 0.  1.
        -13    1    4    4    0    0 -0.41294030415E+01 -0.14912664097E+01 -0.37097932546E+01  0.57488759780E+01  0.10566000000E+00 0. -1.
         14    1    4    4    0    0 -0.16936190306E+02 -0.43855605250E+01 -0.18484213635E+02  0.25450615649E+02  0.00000000000E+00 0. -1.
<mgrwt>
<rscale>  0 0.79790262E+02</rscale>
<asrwt>0</asrwt>
<pdfrwt beam="1">  1        1 0.26338476E-01 0.79790262E+02</pdfrwt>
<pdfrwt beam="2">  1       -2 0.14302845E-02 0.79790262E+02</pdfrwt>
<totfact> 0.16296891E+05</totfact>
</mgrwt>
</event>
<event>
 8    1  0.7756875E-018  0.8193388E+02  0.7818608E-02  0.1323651E+00
         -2   -1    0    0    0  501 -0.00000000000E+00  0.00000000000E+00  0.57022932348E+03  0.57022932349E+03  0.25500000000E-02 0.  1.
          1   -1    0    0  501    0  0.00000000000E+00 -0.00000000000E+00 -0.29431826585E+01  0.29431869738E+01  0.50400000000E-02 0. -1.
        -24    2    1    2    0    0  0.00000000000E+00  0.17763568394E-14  0.56728614083E+03  0.57317251046E+03  0.81933882969E+02 0.  0.
         66    2    3    3    0    0  0.48759854438E+01  0.13737268690E+02  0.55145856876E+03  0.55165482038E+03  0.20000006024E+01 0.  0.
         13    1    3    3    0    0 -0.48759854438E+01 -0.13737268690E+02  0.15827572067E+02  0.21517690087E+02  0.10566000000E+00 0. -1.
         13    1    4    4    0    0  0.18236566950E+01  0.38591275887E+01  0.14638854464E+03  0.14645079637E+03  0.10566000000E+00 0. -1.
        -13    1    4    4    0    0  0.13241514945E+01  0.61176484575E+01  0.23103659699E+03  0.23112139518E+03  0.10566000000E+00 0.  1.
         14    1    4    4    0    0  0.17281772543E+01  0.37604926436E+01  0.17403342713E+03  0.17408262883E+03  0.00000000000E+00 0. -1.
<mgrwt>
<rscale>  0 0.81933883E+02</rscale>
<asrwt>0</asrwt>
<pdfrwt beam="1">  1        1 0.45279823E-03 0.81933883E+02</pdfrwt>
<pdfrwt beam="2">  1       -2 0.87727480E-01 0.81933883E+02</pdfrwt>
<totfact> 0.42654054E+04</totfact>
</mgrwt>
</event>
<event>
 8    1  0.7756875E-018  0.7902233E+02  0.7818608E-02  0.1331849E+00
         -2   -1    0    0    0  501 -0.00000000000E+00  0.00000000000E+00  0.44741737047E+03  0.44741737048E+03  0.25500000000E-02 0.  1.
          1   -1    0    0  501    0  0.00000000000E+00 -0.00000000000E+00 -0.34892057468E+01  0.34892093868E+01  0.50400000000E-02 0. -1.
        -24    2    1    2    0    0  0.00000000000E+00  0.00000000000E+00  0.44392816473E+03  0.45090657987E+03  0.79022328049E+02 0.  0.
         66    2    3    3    0    0  0.45957179632E+01 -0.18013338526E+02  0.42088066568E+03  0.42129578176E+03  0.19999983055E+01 0.  0.
         13    1    3    3    0    0 -0.45957179632E+01  0.18013338526E+02  0.23047499042E+02  0.29610798108E+02  0.10566000000E+00 0. -1.
         13    1    4    4    0    0  0.71604305587E+00 -0.29829316243E+01  0.58455459148E+02  0.58535992919E+02  0.10566000000E+00 0. -1.
        -13    1    4    4    0    0  0.28282231605E+01 -0.10027108115E+02  0.22977446233E+03  0.23001055725E+03  0.10566000000E+00 0.  1.
         14    1    4    4    0    0  0.10514517468E+01 -0.50032987869E+01  0.13265074420E+03  0.13274923159E+03  0.00000000000E+00 0. -1.
<mgrwt>
<rscale>  0 0.79022328E+02</rscale>
<asrwt>0</asrwt>
<pdfrwt beam="1">  1        1 0.53680141E-03 0.79022328E+02</pdfrwt>
<pdfrwt beam="2">  1       -2 0.68833410E-01 0.79022328E+02</pdfrwt>
<totfact> 0.56473906E+04</totfact>
</mgrwt>
</event>
<event>
 8    1  0.7756875E-018  0.8001001E+02  0.7818608E-02  0.1329023E+00
         -2   -1    0    0    0  501 -0.00000000000E+00  0.00000000000E+00  0.31812248218E+03  0.31812248219E+03  0.25500000000E-02 0.  1.
          1   -1    0    0  501    0  0.00000000000E+00 -0.00000000000E+00 -0.50307665415E+01  0.50307690661E+01  0.50400000000E-02 0. -1.
        -24    2    1    2    0    0  0.35527136788E-14  0.35527136788E-14  0.31309171564E+03  0.32315325126E+03  0.80010008100E+02 0.  0.
         66    2    3    3    0    0  0.23941670807E+02 -0.28551653718E+02  0.21517205647E+03  0.21838364046E+03  0.20000008099E+01 0.  0.
         13    1    3    3    0    0 -0.23941670807E+02  0.28551653718E+02  0.97919659173E+02  0.10476961080E+03  0.10566000000E+00 0. -1.
         13    1    4    4    0    0  0.40669665929E+01 -0.49848794383E+01  0.39751411313E+02  0.40268785749E+02  0.10566000000E+00 0. -1.
        -13    1    4    4    0    0  0.15193161170E+01 -0.24193436355E+01  0.16746215285E+02  0.16988479493E+02  0.10566000000E+00 0.  1.
        -14    1    4    4    0    0  0.18355388097E+02 -0.21147430644E+02  0.15867442987E+03  0.16112637521E+03  0.00000000000E+00 0.  1.
<mgrwt>
<rscale>  0 0.80010008E+02</rscale>
<asrwt>0</asrwt>
<pdfrwt beam="1">  1        1 0.77396417E-03 0.80010008E+02</pdfrwt>
<pdfrwt beam="2">  1       -2 0.48941927E-01 0.80010008E+02</pdfrwt>
<totfact> 0.67995876E+04</totfact>
</mgrwt>
</event>
<event>
 8    1  0.7756875E-018  0.7948383E+02  0.7818608E-02  0.1330523E+00
         -2   -1    0    0    0  501 -0.00000000000E+00  0.00000000000E+00  0.52315804014E+01  0.52315810229E+01  0.25500000000E-02 0.  1.
          1   -1    0    0  501    0  0.00000000000E+00 -0.00000000000E+00 -0.30190108518E+03  0.30190108522E+03  0.50400000000E-02 0. -1.
        -24    2    1    2    0    0  0.00000000000E+00 -0.71054273576E-14 -0.29666950478E+03  0.30713266624E+03  0.79483832376E+02 0.  0.
         66    2    3    3    0    0 -0.10644509641E+02 -0.35497747064E+02 -0.93235552934E+02  0.10035070485E+03  0.20000001082E+01 0.  0.
         13    1    3    3    0    0  0.10644509641E+02  0.35497747064E+02 -0.20343395184E+03  0.20678196139E+03  0.10566000000E+00 0. -1.
         13    1    4    4    0    0 -0.47674546575E+01 -0.13668934136E+02 -0.35757822532E+02  0.38577213748E+02  0.10566000000E+00 0. -1.
        -13    1    4    4    0    0 -0.44922445418E+01 -0.15847748432E+02 -0.43050488354E+02  0.46094328316E+02  0.10566000000E+00 0.  1.
         14    1    4    4    0    0 -0.13848104412E+01 -0.59810644959E+01 -0.14427242049E+02  0.15679162784E+02  0.00000000000E+00 0. -1.
<mgrwt>
<rscale>  0 0.79483832E+02</rscale>
<asrwt>0</asrwt>
<pdfrwt beam="1">  1        1 0.46446307E-01 0.79483832E+02</pdfrwt>
<pdfrwt beam="2">  1       -2 0.80485881E-03 0.79483832E+02</pdfrwt>
<totfact> 0.18374059E+05</totfact>
</mgrwt>
</event>
<event>
 8    1  0.7756875E-018  0.8411799E+02  0.7818608E-02  0.1317755E+00
         -2   -1    0    0    0  501 -0.00000000000E+00  0.00000000000E+00  0.69038975894E+02  0.69038975941E+02  0.25500000000E-02 0.  1.
          1   -1    0    0  501    0  0.00000000000E+00 -0.00000000000E+00 -0.25622611684E+02  0.25622612180E+02  0.50400000000E-02 0. -1.
        -24    2    1    2    0    0  0.00000000000E+00  0.00000000000E+00  0.43416364210E+02  0.94661588121E+02  0.84117986093E+02 0.  0.
         66    2    3    3    0    0  0.21938751752E+02 -0.17686809172E+02  0.56819971592E+02  0.63455820993E+02  0.19999997770E+01 0.  0.
         13    1    3    3    0    0 -0.21938751752E+02  0.17686809172E+02 -0.13403607382E+02  0.31205767128E+02  0.10566000000E+00 0. -1.
         13    1    4    4    0    0  0.64381898415E+01 -0.47544502676E+01  0.14686662857E+02  0.16726156632E+02  0.10566000000E+00 0. -1.
        -13    1    4    4    0    0  0.13755398591E+02 -0.11852189126E+02  0.37811981200E+02  0.41945708526E+02  0.10566000000E+00 0.  1.
        -14    1    4    4    0    0  0.17451633198E+01 -0.10801697778E+01  0.43213275354E+01  0.47839558349E+01  0.00000000000E+00 0.  1.
<mgrwt>
<rscale>  0 0.84117986E+02</rscale>
<asrwt>0</asrwt>
<pdfrwt beam="1">  1        1 0.39419404E-02 0.84117986E+02</pdfrwt>
<pdfrwt beam="2">  1       -2 0.10621381E-01 0.84117986E+02</pdfrwt>
<totfact> 0.10143447E+05</totfact>
</mgrwt>
</event>
<event>
 8    1  0.8079166E-018  0.7958973E+02  0.7818608E-02  0.1330220E+00
         -2   -1    0    0    0  501 -0.00000000000E+00  0.00000000000E+00  0.10201320552E+02  0.10201320871E+02  0.25500000000E-02 0.  1.
          1   -1    0    0  501    0  0.00000000000E+00 -0.00000000000E+00 -0.15523787225E+03  0.15523787233E+03  0.50400000000E-02 0. -1.
        -24    2    1    2    0    0  0.00000000000E+00  0.00000000000E+00 -0.14503655170E+03  0.16543919320E+03  0.79589731242E+02 0.  0.
         66    2    3    3    0    0  0.19008383386E+02 -0.19895632589E+02 -0.12878390438E+02  0.30446802355E+02  0.19999995693E+01 0.  0.
         13    1    3    3    0    0 -0.19008383386E+02  0.19895632589E+02 -0.13215816126E+03  0.13499239085E+03  0.10566000000E+00 0. -1.
         13    1    4    4    0    0  0.52669486785E+00 -0.91784853809E+00 -0.45248615340E+00  0.11557513475E+01  0.10566000000E+00 0. -1.
        -13    1    4    4    0    0  0.13594711852E+02 -0.14408500029E+02 -0.87362543514E+01  0.21650735959E+02  0.10566000000E+00 0.  1.
         14    1    4    4    0    0  0.48869766662E+01 -0.45692840220E+01 -0.36896499330E+01  0.76403150483E+01  0.00000000000E+00 0. -1.
<mgrwt>
<rscale>  0 0.79589731E+02</rscale>
<asrwt>0</asrwt>
<pdfrwt beam="1">  1        1 0.23882748E-01 0.79589731E+02</pdfrwt>
<pdfrwt beam="2">  1       -2 0.15694341E-02 0.79589731E+02</pdfrwt>
<totfact> 0.16108653E+05</totfact>
</mgrwt>
</event>
<event>
 8    1  0.7756875E-018  0.7946689E+02  0.7818608E-02  0.1330571E+00
          1   -1    0    0  501    0  0.00000000000E+00  0.00000000000E+00  0.22724559140E+02  0.22724559699E+02  0.50400000000E-02 0. -1.
         -2   -1    0    0    0  501 -0.00000000000E+00 -0.00000000000E+00 -0.69473147868E+02  0.69473147914E+02  0.25500000000E-02 0.  1.
        -24    2    1    2    0    0  0.00000000000E+00  0.00000000000E+00 -0.46748588728E+02  0.92197707613E+02  0.79466890848E+02 0.  0.
         66    2    3    3    0    0  0.36155294730E+02  0.37725333651E+01 -0.41927065574E+02  0.55527616332E+02  0.20000007423E+01 0.  0.
         13    1    3    3    0    0 -0.36155294730E+02 -0.37725333651E+01 -0.48215231540E+01  0.36670091281E+02  0.10566000000E+00 0. -1.
         13    1    4    4    0    0  0.39205865491E+01  0.12970137945E+00 -0.52028833749E+01  0.65168229057E+01  0.10566000000E+00 0. -1.
        -13    1    4    4    0    0  0.29519413302E+02  0.33793824061E+01 -0.34042757828E+02  0.45185578581E+02  0.10566000000E+00 0.  1.
        -14    1    4    4    0    0  0.27152948787E+01  0.26344957949E+00 -0.26814243707E+01  0.38252148456E+01  0.00000000000E+00 0.  1.
<mgrwt>
<rscale>  0 0.79466891E+02</rscale>
<asrwt>0</asrwt>
<pdfrwt beam="1">  1        1 0.34960861E-02 0.79466891E+02</pdfrwt>
<pdfrwt beam="2">  1       -2 0.10688176E-01 0.79466891E+02</pdfrwt>
<totfact> 0.11705619E+05</totfact>
</mgrwt>
</event>
<event>
 8    1  0.7756875E-018  0.7837935E+02  0.7818608E-02  0.1333715E+00
         -2   -1    0    0    0  501 -0.00000000000E+00  0.00000000000E+00  0.19214173403E+03  0.19214173404E+03  0.25500000000E-02 0.  1.
          1   -1    0    0  501    0  0.00000000000E+00 -0.00000000000E+00 -0.79932172189E+01  0.79932188079E+01  0.50400000000E-02 0. -1.
        -24    2    1    2    0    0  0.88817841970E-15 -0.35527136788E-14  0.18414851681E+03  0.20013495285E+03  0.78379353853E+02 0.  0.
         66    2    3    3    0    0 -0.55741171446E+01  0.14383519100E+02  0.18405232172E+03  0.18470845548E+03  0.19999978950E+01 0.  0.
         13    1    3    3    0    0  0.55741171446E+01 -0.14383519100E+02  0.96195087893E-01  0.15426497372E+02  0.10566000000E+00 0. -1.
         13    1    4    4    0    0 -0.19388719502E+01  0.54643863199E+01  0.77039883958E+02  0.77257838609E+02  0.10566000000E+00 0. -1.
        -13    1    4    4    0    0 -0.90572731293E+00  0.35191541416E+01  0.42297067712E+02  0.42453008008E+02  0.10566000000E+00 0.  1.
         14    1    4    4    0    0 -0.27295178815E+01  0.53999786381E+01  0.64715370050E+02  0.64997608862E+02  0.00000000000E+00 0. -1.
<mgrwt>
<rscale>  0 0.78379354E+02</rscale>
<asrwt>0</asrwt>
<pdfrwt beam="1">  1        1 0.12297258E-02 0.78379354E+02</pdfrwt>
<pdfrwt beam="2">  1       -2 0.29560267E-01 0.78379354E+02</pdfrwt>
<totfact> 0.91132756E+04</totfact>
</mgrwt>
</event>
<event>
 8    1  0.7756875E-018  0.8137487E+02  0.7818608E-02  0.1325194E+00
         -2   -1    0    0    0  501 -0.00000000000E+00  0.00000000000E+00  0.27284796326E+01  0.27284808242E+01  0.25500000000E-02 0.  1.
          1   -1    0    0  501    0  0.00000000000E+00 -0.00000000000E+00 -0.60673599448E+03  0.60673599450E+03  0.50400000000E-02 0. -1.
        -24    2    1    2    0    0  0.35527136788E-14  0.35527136788E-14 -0.60400751485E+03  0.60946447532E+03  0.81374865229E+02 0.  0.
         66    2    3    3    0    0 -0.28158795165E+02 -0.26854913775E+02 -0.39060030599E+03  0.39253879198E+03  0.20000073671E+01 0.  0.
         13    1    3    3    0    0  0.28158795165E+02  0.26854913775E+02 -0.21340720885E+03  0.21692568334E+03  0.10566000000E+00 0. -1.
         13    1    4    4    0    0 -0.11083501517E+02 -0.10796662497E+02 -0.15871580777E+03  0.15946827499E+03  0.10566000000E+00 0. -1.
        -13    1    4    4    0    0 -0.78056176111E+01 -0.81880056445E+01 -0.10838604254E+03  0.10897484335E+03  0.10566000000E+00 0.  1.
        -14    1    4    4    0    0 -0.92696760372E+01 -0.78702456330E+01 -0.12349845569E+03  0.12409567364E+03  0.00000000000E+00 0.  1.
<mgrwt>
<rscale>  0 0.81374865E+02</rscale>
<asrwt>0</asrwt>
<pdfrwt beam="1">  1        1 0.93343892E-01 0.81374865E+02</pdfrwt>
<pdfrwt beam="2">  1       -2 0.41976667E-03 0.81374865E+02</pdfrwt>
<totfact> 0.19078091E+05</totfact>
</mgrwt>
</event>
<event>
 8    1  0.7756875E-018  0.7769975E+02  0.7818608E-02  0.1335709E+00
          1   -1    0    0  501    0  0.00000000000E+00  0.00000000000E+00  0.25309730676E+03  0.25309730681E+03  0.50400000000E-02 0. -1.
         -2   -1    0    0    0  501 -0.00000000000E+00 -0.00000000000E+00 -0.59633700496E+01  0.59633705948E+01  0.25500000000E-02 0.  1.
        -24    2    1    2    0    0  0.17763568394E-14 -0.71054273576E-14  0.24713393671E+03  0.25906067740E+03  0.77699754848E+02 0.  0.
         66    2    3    3    0    0 -0.15925435725E+02  0.32978157455E+02  0.16662257825E+03  0.17061143559E+03  0.19999999411E+01 0.  0.
         13    1    3    3    0    0  0.15925435725E+02 -0.32978157455E+02  0.80511358458E+02  0.88449241811E+02  0.10566000000E+00 0. -1.
         13    1    4    4    0    0 -0.70443160439E+01  0.14851473132E+02  0.78555389328E+02  0.80256769180E+02  0.10566000000E+00 0. -1.
        -13    1    4    4    0    0 -0.11606440401E+01  0.29620423509E+01  0.13368634655E+02  0.13742355913E+02  0.10566000000E+00 0.  1.
         14    1    4    4    0    0 -0.77204756415E+01  0.15164641971E+02  0.74698554265E+02  0.76612310496E+02  0.00000000000E+00 0. -1.
<mgrwt>
<rscale>  0 0.77699755E+02</rscale>
<asrwt>0</asrwt>
<pdfrwt beam="1">  1        1 0.38938047E-01 0.77699755E+02</pdfrwt>
<pdfrwt beam="2">  1       -2 0.91744159E-03 0.77699755E+02</pdfrwt>
<totfact> 0.18854386E+05</totfact>
</mgrwt>
</event>
<event>
 8    1  0.7756875E-018  0.7817698E+02  0.7818608E-02  0.1334306E+00
         -2   -1    0    0    0  501 -0.00000000000E+00  0.00000000000E+00  0.33901146753E+02  0.33901146849E+02  0.25500000000E-02 0.  1.
          1   -1    0    0  501    0  0.00000000000E+00 -0.00000000000E+00 -0.45069563819E+02  0.45069564101E+02  0.50400000000E-02 0. -1.
        -24    2    1    2    0    0  0.00000000000E+00  0.00000000000E+00 -0.11168417066E+02  0.78970710950E+02  0.78176976459E+02 0.  0.
         66    2    3    3    0    0  0.23560624420E+01 -0.27261638792E+02  0.22572724561E+02  0.35528521984E+02  0.20000001019E+01 0.  0.
         13    1    3    3    0    0 -0.23560624420E+01  0.27261638792E+02 -0.33741141627E+02  0.43442188966E+02  0.10566000000E+00 0. -1.
         13    1    4    4    0    0 -0.27134475757E+00 -0.62067746747E+01  0.52722911814E+01  0.81489814196E+01  0.10566000000E+00 0. -1.
        -13    1    4    4    0    0  0.36510752723E+00 -0.36672865387E+01  0.29932104123E+01  0.47489753286E+01  0.10566000000E+00 0.  1.
        -14    1    4    4    0    0  0.22622996724E+01 -0.17387577579E+02  0.14307222967E+02  0.22630565236E+02  0.00000000000E+00 0.  1.
<mgrwt>
<rscale>  0 0.78176976E+02</rscale>
<asrwt>0</asrwt>
<pdfrwt beam="1">  1        1 0.69337791E-02 0.78176976E+02</pdfrwt>
<pdfrwt beam="2">  1       -2 0.52155610E-02 0.78176976E+02</pdfrwt>
<totfact> 0.13803324E+05</totfact>
</mgrwt>
</event>
<event>
 8    1  0.7756875E-018  0.7807856E+02  0.7818608E-02  0.1334594E+00
         -2   -1    0    0    0  501 -0.00000000000E+00  0.00000000000E+00  0.61879367659E+01  0.61879372913E+01  0.25500000000E-02 0.  1.
          1   -1    0    0  501    0  0.00000000000E+00 -0.00000000000E+00 -0.24629618080E+03  0.24629618085E+03  0.50400000000E-02 0. -1.
        -24    2    1    2    0    0 -0.71054273576E-14 -0.35527136788E-14 -0.24010824403E+03  0.25248411814E+03  0.78078556987E+02 0.  0.
         66    2    3    3    0    0  0.35339281983E+02  0.13824147291E+02 -0.14943103210E+03  0.15418691662E+03  0.20000005928E+01 0.  0.
         13    1    3    3    0    0 -0.35339281983E+02 -0.13824147291E+02 -0.90677211932E+02  0.98297201522E+02  0.10566000000E+00 0. -1.
         13    1    4    4    0    0  0.37571333700E+01  0.18058724755E+01 -0.17348834159E+02  0.17842938022E+02  0.10566000000E+00 0. -1.
        -13    1    4    4    0    0  0.61973932932E+01  0.17627735021E+01 -0.25451648544E+02  0.26254763981E+02  0.10566000000E+00 0.  1.
        -14    1    4    4    0    0  0.25384755319E+02  0.10255501313E+02 -0.10663054939E+03  0.11008921461E+03  0.00000000000E+00 0.  1.
<mgrwt>
<rscale>  0 0.78078557E+02</rscale>
<asrwt>0</asrwt>
<pdfrwt beam="1">  1        1 0.37891713E-01 0.78078557E+02</pdfrwt>
<pdfrwt beam="2">  1       -2 0.95199050E-03 0.78078557E+02</pdfrwt>
<totfact> 0.18516371E+05</totfact>
</mgrwt>
</event>
<event>
 8    1  0.7756875E-018  0.7901423E+02  0.7818608E-02  0.1331872E+00
         -2   -1    0    0    0  501 -0.00000000000E+00  0.00000000000E+00  0.37828638470E+03  0.37828638471E+03  0.25500000000E-02 0.  1.
          1   -1    0    0  501    0  0.00000000000E+00 -0.00000000000E+00 -0.41260046806E+01  0.41260077588E+01  0.50400000000E-02 0. -1.
        -24    2    1    2    0    0  0.00000000000E+00  0.00000000000E+00  0.37416038002E+03  0.38241239247E+03  0.79014226164E+02 0.  0.
         66    2    3    3    0    0 -0.29807289036E+02 -0.18322974498E+02  0.27572970078E+03  0.27794796955E+03  0.20000038555E+01 0.  0.
         13    1    3    3    0    0  0.29807289036E+02  0.18322974498E+02  0.98430679246E+02  0.10446442292E+03  0.10566000000E+00 0. -1.
         13    1    4    4    0    0 -0.22991877832E+02 -0.13769839724E+02  0.20849566984E+03  0.21021106164E+03  0.10566000000E+00 0.  1.
        -13    1    4    4    0    0 -0.55966515470E+01 -0.33424977820E+01  0.52770367776E+02  0.53171587142E+02  0.10566000000E+00 0.  1.
        -14    1    4    4    0    0 -0.12187596572E+01 -0.12106369918E+01  0.14463663163E+02  0.14565320770E+02  0.00000000000E+00 0.  1.
<mgrwt>
<rscale>  0 0.79014226E+02</rscale>
<asrwt>0</asrwt>
<pdfrwt beam="1">  1        1 0.63477020E-03 0.79014226E+02</pdfrwt>
<pdfrwt beam="2">  1       -2 0.58197904E-01 0.79014226E+02</pdfrwt>
<totfact> 0.63272303E+04</totfact>
</mgrwt>
</event>
<event>
 8    1  0.7756875E-018  0.8021315E+02  0.7818608E-02  0.1328448E+00
         -2   -1    0    0    0  501 -0.00000000000E+00  0.00000000000E+00  0.16500242070E+03  0.16500242072E+03  0.25500000000E-02 0.  1.
          1   -1    0    0  501    0  0.00000000000E+00 -0.00000000000E+00 -0.97485687065E+01  0.97485700094E+01  0.50400000000E-02 0. -1.
        -24    2    1    2    0    0  0.71054273576E-14  0.00000000000E+00  0.15525385199E+03  0.17475099073E+03  0.80213154793E+02 0.  0.
         66    2    3    3    0    0 -0.36270013620E+02  0.86232212823E+00  0.11479256968E+03  0.12040594479E+03  0.19999999015E+01 0.  0.
         13    1    3    3    0    0  0.36270013620E+02 -0.86232212823E+00  0.40461282308E+02  0.54345045934E+02  0.10566000000E+00 0. -1.
         13    1    4    4    0    0 -0.19522584042E+02 -0.20265409059E+00  0.59727568404E+02  0.62837615708E+02  0.10566000000E+00 0. -1.
        -13    1    4    4    0    0 -0.15784306323E+02  0.11296235474E+01  0.52061677325E+02  0.54413691158E+02  0.10566000000E+00 0.  1.
         14    1    4    4    0    0 -0.96312325487E+00 -0.64647328565E-01  0.30033239531E+01  0.31546379267E+01  0.00000000000E+00 0. -1.
<mgrwt>
<rscale>  0 0.80213155E+02</rscale>
<asrwt>0</asrwt>
<pdfrwt beam="1">  1        1 0.14997799E-02 0.80213155E+02</pdfrwt>
<pdfrwt beam="2">  1       -2 0.25384988E-01 0.80213155E+02</pdfrwt>
<totfact> 0.90870954E+04</totfact>
</mgrwt>
</event>
<event>
 8    1  0.7756875E-018  0.8129092E+02  0.7818608E-02  0.1325427E+00
          1   -1    0    0  501    0  0.00000000000E+00  0.00000000000E+00  0.39947971529E+01  0.39948003322E+01  0.50400000000E-02 0. -1.
         -2   -1    0    0    0  501 -0.00000000000E+00 -0.00000000000E+00 -0.41355107616E+03  0.41355107617E+03  0.25500000000E-02 0.  1.
        -24    2    1    2    0    0 -0.35527136788E-14 -0.35527136788E-14 -0.40955627900E+03  0.41754587650E+03  0.81290917746E+02 0.  0.
         66    2    3    3    0    0 -0.27550312752E+02 -0.29276022643E+02 -0.23482701070E+03  0.23825161111E+03  0.20000019182E+01 0.  0.
         13    1    3    3    0    0  0.27550312752E+02  0.29276022643E+02 -0.17472926831E+03  0.17929426539E+03  0.10566000000E+00 0. -1.
         13    1    4    4    0    0 -0.14278334919E+01 -0.15894390011E+01 -0.11770572199E+02  0.11963384084E+02  0.10566000000E+00 0. -1.
        -13    1    4    4    0    0 -0.10933028653E+02 -0.11569485428E+02 -0.98583360586E+02  0.99860273668E+02  0.10566000000E+00 0.  1.
        -14    1    4    4    0    0 -0.15189450607E+02 -0.16117098214E+02 -0.12447307791E+03  0.12642795336E+03  0.00000000000E+00 0.  1.
<mgrwt>
<rscale>  0 0.81290918E+02</rscale>
<asrwt>0</asrwt>
<pdfrwt beam="1">  1        1 0.61458475E-03 0.81290918E+02</pdfrwt>
<pdfrwt beam="2">  1       -2 0.63623209E-01 0.81290918E+02</pdfrwt>
<totfact> 0.55445538E+04</totfact>
</mgrwt>
</event>
<event>
 8    1  0.7756875E-018  0.7930683E+02  0.7818608E-02  0.1331030E+00
          1   -1    0    0  501    0  0.00000000000E+00  0.00000000000E+00  0.66487786745E+01  0.66487805848E+01  0.50400000000E-02 0. -1.
         -2   -1    0    0    0  501 -0.00000000000E+00 -0.00000000000E+00 -0.23649349660E+03  0.23649349661E+03  0.25500000000E-02 0.  1.
        -24    2    1    2    0    0  0.00000000000E+00  0.00000000000E+00 -0.22984471792E+03  0.24314227719E+03  0.79306825702E+02 0.  0.
         66    2    3    3    0    0  0.18840189455E+02  0.26077116901E+02 -0.18593618900E+03  0.18870939338E+03  0.20000010608E+01 0.  0.
         13    1    3    3    0    0 -0.18840189455E+02 -0.26077116901E+02 -0.43908528919E+02  0.54432883816E+02  0.10566000000E+00 0. -1.
         13    1    4    4    0    0  0.23208990449E+01  0.28943588055E+01 -0.20770148892E+02  0.21099150085E+02  0.10566000000E+00 0.  1.
        -13    1    4    4    0    0  0.12945392165E+02  0.17402562034E+02 -0.12216263816E+03  0.12407317869E+03  0.10566000000E+00 0.  1.
         14    1    4    4    0    0  0.35738982448E+01  0.57801960623E+01 -0.43003401951E+02  0.43537064607E+02  0.00000000000E+00 0. -1.
<mgrwt>
<rscale>  0 0.79306826E+02</rscale>
<asrwt>0</asrwt>
<pdfrwt beam="1">  1        1 0.10228894E-02 0.79306826E+02</pdfrwt>
<pdfrwt beam="2">  1       -2 0.36383608E-01 0.79306826E+02</pdfrwt>
<totfact> 0.80940782E+04</totfact>
</mgrwt>
</event>
<event>
 8    1  0.7756875E-018  0.7874196E+02  0.7818608E-02  0.1332660E+00
          1   -1    0    0  501    0  0.00000000000E+00  0.00000000000E+00  0.16777523206E+03  0.16777523213E+03  0.50400000000E-02 0. -1.
         -2   -1    0    0    0  501 -0.00000000000E+00 -0.00000000000E+00 -0.92389921367E+01  0.92389924886E+01  0.25500000000E-02 0.  1.
        -24    2    1    2    0    0  0.00000000000E+00  0.00000000000E+00  0.15853623992E+03  0.17701422462E+03  0.78741960544E+02 0.  0.
         66    2    3    3    0    0  0.68683538736E+01  0.25473291953E+02  0.13701063917E+02  0.29795671919E+02  0.20000061985E+01 0.  0.
         13    1    3    3    0    0 -0.68683538736E+01 -0.25473291953E+02  0.14483517600E+03  0.14721855270E+03  0.10566000000E+00 0. -1.
         13    1    4    4    0    0  0.10267332795E+01  0.43526943665E+01  0.18240203097E+01  0.48309774996E+01  0.10566000000E+00 0. -1.
        -13    1    4    4    0    0  0.40286282380E+01  0.15109233447E+02  0.77653510802E+01  0.17459399253E+02  0.10566000000E+00 0.  1.
        -14    1    4    4    0    0  0.18129923560E+01  0.60113641397E+01  0.41116925274E+01  0.75052951670E+01  0.00000000000E+00 0.  1.
<mgrwt>
<rscale>  0 0.78741961E+02</rscale>
<asrwt>0</asrwt>
<pdfrwt beam="1">  1        1 0.25811573E-01 0.78741961E+02</pdfrwt>
<pdfrwt beam="2">  1       -2 0.14213835E-02 0.78741961E+02</pdfrwt>
<totfact> 0.16816699E+05</totfact>
</mgrwt>
</event>
<event>
 8    1  0.7756875E-018  0.7932907E+02  0.7818608E-02  0.1330966E+00
         -2   -1    0    0    0  501 -0.00000000000E+00  0.00000000000E+00  0.59593814821E+03  0.59593814822E+03  0.25500000000E-02 0.  1.
          1   -1    0    0  501    0  0.00000000000E+00 -0.00000000000E+00 -0.26399955392E+01  0.26400003501E+01  0.50400000000E-02 0. -1.
        -24    2    1    2    0    0  0.00000000000E+00  0.00000000000E+00  0.59329815268E+03  0.59857814857E+03  0.79329073975E+02 0.  0.
         66    2    3    3    0    0 -0.20980692680E+02  0.12081794422E+02  0.53366405933E+03  0.53421670456E+03  0.19999973620E+01 0.  0.
         13    1    3    3    0    0  0.20980692680E+02 -0.12081794422E+02  0.59634093345E+02  0.64361444009E+02  0.10566000000E+00 0. -1.
         13    1    4    4    0    0 -0.27674190313E+01  0.19850284238E+01  0.70625960177E+02  0.70708106755E+02  0.10566000000E+00 0. -1.
        -13    1    4    4    0    0 -0.10707807745E+02  0.65707761835E+01  0.26815131242E+03  0.26844546888E+03  0.10566000000E+00 0.  1.
         14    1    4    4    0    0 -0.75054659038E+01  0.35259898145E+01  0.19488678673E+03  0.19506312892E+03  0.00000000000E+00 0. -1.
<mgrwt>
<rscale>  0 0.79329074E+02</rscale>
<asrwt>0</asrwt>
<pdfrwt beam="1">  1        1 0.40615309E-03 0.79329074E+02</pdfrwt>
<pdfrwt beam="2">  1       -2 0.91682893E-01 0.79329074E+02</pdfrwt>
<totfact> 0.44680832E+04</totfact>
</mgrwt>
</event>
<event>
 8    1  0.7756875E-018  0.7722185E+02  0.7818608E-02  0.1337126E+00
          1   -1    0    0  501    0  0.00000000000E+00  0.00000000000E+00  0.59700484422E+02  0.59700484634E+02  0.50400000000E-02 0. -1.
         -2   -1    0    0    0  501 -0.00000000000E+00 -0.00000000000E+00 -0.24971377597E+02  0.24971377727E+02  0.25500000000E-02 0.  1.
        -24    2    1    2    0    0  0.35527136788E-14  0.00000000000E+00  0.34729106824E+02  0.84671862362E+02  0.77221845452E+02 0.  0.
         66    2    3    3    0    0  0.17245082928E+02  0.20986688994E+02 -0.12671350644E+02  0.30039925435E+02  0.19999982081E+01 0.  0.
         13    1    3    3    0    0 -0.17245082928E+02 -0.20986688994E+02  0.47400457468E+02  0.54631936927E+02  0.10566000000E+00 0. -1.
         13    1    4    4    0    0  0.58620117933E+01  0.63215532908E+01 -0.41807876322E+01  0.95820335803E+01  0.10566000000E+00 0. -1.
        -13    1    4    4    0    0  0.91399031792E+01  0.12368195034E+02 -0.74017456671E+01  0.17067720454E+02  0.10566000000E+00 0.  1.
         14    1    4    4    0    0  0.22431679559E+01  0.22969406692E+01 -0.10888173450E+01  0.33901714008E+01  0.00000000000E+00 0. -1.
<mgrwt>
<rscale>  0 0.77221845E+02</rscale>
<asrwt>0</asrwt>
<pdfrwt beam="1">  1        1 0.91846899E-02 0.77221845E+02</pdfrwt>
<pdfrwt beam="2">  1       -2 0.38417504E-02 0.77221845E+02</pdfrwt>
<totfact> 0.14908398E+05</totfact>
</mgrwt>
</event>
<event>
 8    1  0.7756875E-018  0.7383382E+02  0.7818608E-02  0.1347521E+00
          1   -1    0    0  501    0  0.00000000000E+00  0.00000000000E+00  0.79092928878E+02  0.79092929039E+02  0.50400000000E-02 0. -1.
         -2   -1    0    0    0  501 -0.00000000000E+00 -0.00000000000E+00 -0.17231099579E+02  0.17231099768E+02  0.25500000000E-02 0.  1.
        -24    2    1    2    0    0  0.00000000000E+00  0.00000000000E+00  0.61861829299E+02  0.96324028806E+02  0.73833817464E+02 0.  0.
         66    2    3    3    0    0 -0.13363339975E+02  0.30016853918E+02  0.90741393169E+01  0.34145722685E+02  0.19999997370E+01 0.  0.
         13    1    3    3    0    0  0.13363339975E+02 -0.30016853918E+02  0.52787689982E+02  0.62178306121E+02  0.10566000000E+00 0. -1.
         13    1    4    4    0    0 -0.71258256577E+01  0.15162382653E+02  0.44055389661E+01  0.17323255370E+02  0.10566000000E+00 0. -1.
        -13    1    4    4    0    0 -0.32477361668E+01  0.87325787864E+01  0.21796155857E+01  0.95690966453E+01  0.10566000000E+00 0.  1.
         14    1    4    4    0    0 -0.29897781502E+01  0.61218924790E+01  0.24889847651E+01  0.72533706697E+01  0.00000000000E+00 0. -1.
<mgrwt>
<rscale>  0 0.73833817E+02</rscale>
<asrwt>0</asrwt>
<pdfrwt beam="1">  1        1 0.12168143E-01 0.73833817E+02</pdfrwt>
<pdfrwt beam="2">  1       -2 0.26509384E-02 0.73833817E+02</pdfrwt>
<totfact> 0.17574405E+05</totfact>
</mgrwt>
</event>
<event>
 8    1  0.7756875E-018  0.7952557E+02  0.7818608E-02  0.1330403E+00
          1   -1    0    0  501    0  0.00000000000E+00  0.00000000000E+00  0.60658145790E+02  0.60658146000E+02  0.50400000000E-02 0. -1.
         -2   -1    0    0    0  501 -0.00000000000E+00 -0.00000000000E+00 -0.26065402185E+02  0.26065402310E+02  0.25500000000E-02 0.  1.
        -24    2    1    2    0    0  0.35527136788E-14  0.00000000000E+00  0.34592743605E+02  0.86723548309E+02  0.79525567720E+02 0.  0.
         66    2    3    3    0    0 -0.26380414598E+02 -0.95690190277E+01  0.47988888641E+02  0.55627563595E+02  0.19999997558E+01 0.  0.
         13    1    3    3    0    0  0.26380414598E+02  0.95690190277E+01 -0.13396145035E+02  0.31095984714E+02  0.10566000000E+00 0. -1.
         13    1    4    4    0    0 -0.11711827794E+02 -0.43047769741E+01  0.21489176913E+02  0.24849424611E+02  0.10566000000E+00 0.  1.
        -13    1    4    4    0    0 -0.12160265173E+02 -0.44762140289E+01  0.23022194398E+02  0.26418575663E+02  0.10566000000E+00 0. -1.
         14    1    4    4    0    0 -0.25083216307E+01 -0.78802802467E+00  0.34775173297E+01  0.43595633209E+01  0.00000000000E+00 0. -1.
<mgrwt>
<rscale>  0 0.79525568E+02</rscale>
<asrwt>0</asrwt>
<pdfrwt beam="1">  1        1 0.93320224E-02 0.79525568E+02</pdfrwt>
<pdfrwt beam="2">  1       -2 0.40100619E-02 0.79525568E+02</pdfrwt>
<totfact> 0.13785566E+05</totfact>
</mgrwt>
</event>
<event>
 8    1  0.7756875E-018  0.7930038E+02  0.7818608E-02  0.1331049E+00
         -2   -1    0    0    0  501 -0.00000000000E+00  0.00000000000E+00  0.81374956676E+02  0.81374956716E+02  0.25500000000E-02 0.  1.
          1   -1    0    0  501    0  0.00000000000E+00 -0.00000000000E+00 -0.19319674619E+02  0.19319675277E+02  0.50400000000E-02 0. -1.
        -24    2    1    2    0    0  0.00000000000E+00 -0.17763568394E-14  0.62055282057E+02  0.10069463199E+03  0.79300383864E+02 0.  0.
         66    2    3    3    0    0 -0.36833531470E+02 -0.81246261448E+01  0.15630293987E+02  0.40878168775E+02  0.20000004461E+01 0.  0.
         13    1    3    3    0    0  0.36833531470E+02  0.81246261448E+01  0.46424988071E+02  0.59816463218E+02  0.10566000000E+00 0. -1.
         13    1    4    4    0    0 -0.20938315152E+02 -0.38548602172E+01  0.81385688513E+01  0.22792991372E+02  0.10566000000E+00 0. -1.
        -13    1    4    4    0    0 -0.36434450639E+01 -0.98327711597E+00  0.17647852562E+01  0.41673920930E+01  0.10566000000E+00 0.  1.
         14    1    4    4    0    0 -0.12251771254E+02 -0.32864888117E+01  0.57269398791E+01  0.13917785310E+02  0.00000000000E+00 0. -1.
<mgrwt>
<rscale>  0 0.79300384E+02</rscale>
<asrwt>0</asrwt>
<pdfrwt beam="1">  1        1 0.29722577E-02 0.79300384E+02</pdfrwt>
<pdfrwt beam="2">  1       -2 0.12519224E-01 0.79300384E+02</pdfrwt>
<totfact> 0.11386859E+05</totfact>
</mgrwt>
</event>
<event>
 8    1  0.7756875E-018  0.7764908E+02  0.7818608E-02  0.1335859E+00
          1   -1    0    0  501    0  0.00000000000E+00  0.00000000000E+00  0.60817139894E+02  0.60817140103E+02  0.50400000000E-02 0. -1.
         -2   -1    0    0    0  501 -0.00000000000E+00 -0.00000000000E+00 -0.24784870089E+02  0.24784870220E+02  0.25500000000E-02 0.  1.
        -24    2    1    2    0    0  0.00000000000E+00  0.35527136788E-14  0.36032269805E+02  0.85602010323E+02  0.77649080510E+02 0.  0.
         66    2    3    3    0    0 -0.15058746497E+02  0.29030509648E+02 -0.49859981063E+01  0.33142065575E+02  0.19999992471E+01 0.  0.
         13    1    3    3    0    0  0.15058746497E+02 -0.29030509648E+02  0.41018267911E+02  0.52459944748E+02  0.10566000000E+00 0. -1.
         13    1    4    4    0    0 -0.64218598508E+01  0.12354988649E+02 -0.30918048207E+01  0.14263816093E+02  0.10566000000E+00 0. -1.
        -13    1    4    4    0    0 -0.37375637635E+01  0.68724321988E+01 -0.81027698782E+00  0.78655845330E+01  0.10566000000E+00 0.  1.
         14    1    4    4    0    0 -0.48993228828E+01  0.98030888003E+01 -0.10839162977E+01  0.11012664949E+02  0.00000000000E+00 0. -1.
<mgrwt>
<rscale>  0 0.77649081E+02</rscale>
<asrwt>0</asrwt>
<pdfrwt beam="1">  1        1 0.93564831E-02 0.77649081E+02</pdfrwt>
<pdfrwt beam="2">  1       -2 0.38130570E-02 0.77649081E+02</pdfrwt>
<totfact> 0.14726147E+05</totfact>
</mgrwt>
</event>
<event>
 8    1  0.7756875E-018  0.8309504E+02  0.7818608E-02  0.1320491E+00
          1   -1    0    0  501    0  0.00000000000E+00  0.00000000000E+00  0.11243290684E+03  0.11243290696E+03  0.50400000000E-02 0. -1.
         -2   -1    0    0    0  501 -0.00000000000E+00 -0.00000000000E+00 -0.15353123543E+02  0.15353123754E+02  0.25500000000E-02 0.  1.
        -24    2    1    2    0    0  0.71054273576E-14  0.88817841970E-15  0.97079783302E+02  0.12778603071E+03  0.83095037873E+02 0.  0.
         66    2    3    3    0    0  0.37292427251E+02  0.70800939898E+01  0.22682165061E+02  0.44264359123E+02  0.20000038705E+01 0.  0.
         13    1    3    3    0    0 -0.37292427251E+02 -0.70800939898E+01  0.74397618241E+02  0.83521671590E+02  0.10566000000E+00 0. -1.
         13    1    4    4    0    0  0.88959660858E+01  0.16828570908E+01  0.49811408661E+01  0.10334077073E+02  0.10566000000E+00 0. -1.
        -13    1    4    4    0    0  0.14454492356E+02  0.30865107109E+01  0.82236053581E+01  0.16914424222E+02  0.10566000000E+00 0.  1.
         14    1    4    4    0    0  0.13941968809E+02  0.23107261881E+01  0.94774188370E+01  0.17015857827E+02  0.00000000000E+00 0. -1.
<mgrwt>
<rscale>  0 0.83095038E+02</rscale>
<asrwt>0</asrwt>
<pdfrwt beam="1">  1        1 0.17297369E-01 0.83095038E+02</pdfrwt>
<pdfrwt beam="2">  1       -2 0.23620192E-02 0.83095038E+02</pdfrwt>
<totfact> 0.13535064E+05</totfact>
</mgrwt>
</event>
<event>
 8    1  0.7756875E-018  0.7940553E+02  0.7818608E-02  0.1330747E+00
          1   -1    0    0  501    0  0.00000000000E+00  0.00000000000E+00  0.76535807574E+01  0.76535824168E+01  0.50400000000E-02 0. -1.
         -2   -1    0    0    0  501 -0.00000000000E+00 -0.00000000000E+00 -0.20595710624E+03  0.20595710626E+03  0.25500000000E-02 0.  1.
        -24    2    1    2    0    0  0.00000000000E+00  0.00000000000E+00 -0.19830352549E+03  0.21361068868E+03  0.79405529382E+02 0.  0.
         66    2    3    3    0    0 -0.17629492495E+02  0.24681979813E+02 -0.16802622214E+03  0.17075365430E+03  0.19999997370E+01 0.  0.
         13    1    3    3    0    0  0.17629492495E+02 -0.24681979813E+02 -0.30277303348E+02  0.42857034372E+02  0.10566000000E+00 0. -1.
         13    1    4    4    0    0 -0.13221143285E+01  0.25647116455E+01 -0.17419058222E+02  0.17656740512E+02  0.10566000000E+00 0.  1.
        -13    1    4    4    0    0 -0.22535993107E+01  0.34668531887E+01 -0.21282782468E+02  0.21681000312E+02  0.10566000000E+00 0.  1.
         14    1    4    4    0    0 -0.14053778855E+02  0.18650414979E+02 -0.12932438145E+03  0.13141591348E+03  0.00000000000E+00 0. -1.
<mgrwt>
<rscale>  0 0.79405529E+02</rscale>
<asrwt>0</asrwt>
<pdfrwt beam="1">  1        1 0.11774743E-02 0.79405529E+02</pdfrwt>
<pdfrwt beam="2">  1       -2 0.31685704E-01 0.79405529E+02</pdfrwt>
<totfact> 0.85691302E+04</totfact>
</mgrwt>
</event>
<event>
 8    1  0.7756875E-018  0.8268362E+02  0.7818608E-02  0.1321604E+00
         -2   -1    0    0    0  501 -0.00000000000E+00  0.00000000000E+00  0.37474989827E+02  0.37474989913E+02  0.25500000000E-02 0.  1.
          1   -1    0    0  501    0  0.00000000000E+00 -0.00000000000E+00 -0.45607621984E+02  0.45607622262E+02  0.50400000000E-02 0. -1.
        -24    2    1    2    0    0  0.00000000000E+00  0.00000000000E+00 -0.81326321574E+01  0.83082612176E+02  0.82683618330E+02 0.  0.
         66    2    3    3    0    0  0.13046676515E+02 -0.93356159849E+01  0.34190902740E+02  0.37820461717E+02  0.20000000844E+01 0.  0.
         13    1    3    3    0    0 -0.13046676515E+02  0.93356159849E+01 -0.42323534898E+02  0.45262150459E+02  0.10566000000E+00 0. -1.
         13    1    4    4    0    0  0.17131475845E+01 -0.10918598113E+01  0.44531960005E+01  0.48958299754E+01  0.10566000000E+00 0. -1.
        -13    1    4    4    0    0  0.27581922781E+01 -0.11151122198E+01  0.59856306280E+01  0.66850608042E+01  0.10566000000E+00 0.  1.
        -14    1    4    4    0    0  0.85753366524E+01 -0.71286439538E+01  0.23752076112E+02  0.26239570937E+02  0.00000000000E+00 0.  1.
<mgrwt>
<rscale>  0 0.82683618E+02</rscale>
<asrwt>0</asrwt>
<pdfrwt beam="1">  1        1 0.70165572E-02 0.82683618E+02</pdfrwt>
<pdfrwt beam="2">  1       -2 0.57653831E-02 0.82683618E+02</pdfrwt>
<totfact> 0.11821649E+05</totfact>
</mgrwt>
</event>
<event>
 8    1  0.7756875E-018  0.7233388E+02  0.7818608E-02  0.1352332E+00
          1   -1    0    0  501    0  0.00000000000E+00  0.00000000000E+00  0.22317353327E+01  0.22317410237E+01  0.50400000000E-02 0. -1.
         -2   -1    0    0    0  501 -0.00000000000E+00 -0.00000000000E+00 -0.58611151779E+03  0.58611151779E+03  0.25500000000E-02 0.  1.
        -24    2    1    2    0    0 -0.44408920985E-15 -0.71054273576E-14 -0.58387978246E+03  0.58834325882E+03  0.72333877510E+02 0.  0.
         66    2    3    3    0    0 -0.33165426662E+01  0.33262541820E+02 -0.40387794862E+03  0.40526385667E+03  0.19999988525E+01 0.  0.
         13    1    3    3    0    0  0.33165426662E+01 -0.33262541820E+02 -0.18000183383E+03  0.18307940215E+03  0.10566000000E+00 0. -1.
         13    1    4    4    0    0 -0.15090890515E+00  0.23374279819E+00 -0.39841805638E+01  0.39952807153E+01  0.10566000000E+00 0.  1.
        -13    1    4    4    0    0 -0.95030977004E+00  0.11232453811E+02 -0.13958670644E+03  0.14004117568E+03  0.10566000000E+00 0.  1.
         14    1    4    4    0    0 -0.22153239910E+01  0.21796345211E+02 -0.26030706162E+03  0.26122740027E+03  0.00000000000E+00 0. -1.
<mgrwt>
<rscale>  0 0.72333878E+02</rscale>
<asrwt>0</asrwt>
<pdfrwt beam="1">  1        1 0.34334480E-03 0.72333878E+02</pdfrwt>
<pdfrwt beam="2">  1       -2 0.90170880E-01 0.72333878E+02</pdfrwt>
<totfact> 0.57443567E+04</totfact>
</mgrwt>
</event>
<event>
 8    1  0.7756875E-018  0.8034262E+02  0.7818608E-02  0.1328082E+00
         -2   -1    0    0    0  501 -0.00000000000E+00  0.00000000000E+00  0.84514085121E+02  0.84514085160E+02  0.25500000000E-02 0.  1.
          1   -1    0    0  501    0  0.00000000000E+00 -0.00000000000E+00 -0.19094260341E+02  0.19094261007E+02  0.50400000000E-02 0. -1.
        -24    2    1    2    0    0  0.35527136788E-14  0.00000000000E+00  0.65419824780E+02  0.10360834617E+03  0.80342615847E+02 0.  0.
         66    2    3    3    0    0 -0.30782478966E+02 -0.17759606868E+02  0.86468903802E+01  0.36629678728E+02  0.20000007824E+01 0.  0.
         13    1    3    3    0    0  0.30782478966E+02  0.17759606868E+02  0.56772934400E+02  0.66978667438E+02  0.10566000000E+00 0. -1.
         13    1    4    4    0    0 -0.67953505328E+01 -0.35700217626E+01  0.24455688502E+01  0.80569110263E+01  0.10566000000E+00 0. -1.
        -13    1    4    4    0    0 -0.99550937255E+01 -0.58940047199E+01  0.31264645883E+01  0.11984537020E+02  0.10566000000E+00 0.  1.
        -14    1    4    4    0    0 -0.14032034707E+02 -0.82955803852E+01  0.30748569417E+01  0.16588230682E+02  0.00000000000E+00 0.  1.
<mgrwt>
<rscale>  0 0.80342616E+02</rscale>
<asrwt>0</asrwt>
<pdfrwt beam="1">  1        1 0.29375786E-02 0.80342616E+02</pdfrwt>
<pdfrwt beam="2">  1       -2 0.13002167E-01 0.80342616E+02</pdfrwt>
<totfact> 0.10922367E+05</totfact>
</mgrwt>
</event>
<event>
 8    1  0.7756875E-018  0.7971405E+02  0.7818608E-02  0.1329865E+00
         -2   -1    0    0    0  501 -0.00000000000E+00  0.00000000000E+00  0.15056067293E+03  0.15056067295E+03  0.25500000000E-02 0.  1.
          1   -1    0    0  501    0  0.00000000000E+00 -0.00000000000E+00 -0.10551110436E+02  0.10551111640E+02  0.50400000000E-02 0. -1.
        -24    2    1    2    0    0  0.00000000000E+00  0.00000000000E+00  0.14000956250E+03  0.16111178459E+03  0.79714048603E+02 0.  0.
         66    2    3    3    0    0  0.15342237396E+02 -0.99720418095E+01  0.14155621215E+03  0.14274798446E+03  0.20000008526E+01 0.  0.
         13    1    3    3    0    0 -0.15342237396E+02  0.99720418095E+01 -0.15466496526E+01  0.18363800134E+02  0.10566000000E+00 0. -1.
         13    1    4    4    0    0  0.18738716398E+01 -0.15428992994E+01  0.15593328223E+02  0.15781475922E+02  0.10566000000E+00 0. -1.
        -13    1    4    4    0    0  0.24123579202E+01 -0.13073530803E+01  0.18735854346E+02  0.18935998651E+02  0.10566000000E+00 0.  1.
         14    1    4    4    0    0  0.11056007836E+02 -0.71217894299E+01  0.10722702958E+03  0.10803050989E+03  0.00000000000E+00 0. -1.
<mgrwt>
<rscale>  0 0.79714049E+02</rscale>
<asrwt>0</asrwt>
<pdfrwt beam="1">  1        1 0.16232479E-02 0.79714049E+02</pdfrwt>
<pdfrwt beam="2">  1       -2 0.23163180E-01 0.79714049E+02</pdfrwt>
<totfact> 0.95268175E+04</totfact>
</mgrwt>
</event>
<event>
 8    1  0.7756875E-018  0.7439569E+02  0.7818608E-02  0.1345753E+00
         -2   -1    0    0    0  501 -0.00000000000E+00  0.00000000000E+00  0.34605073249E+03  0.34605073250E+03  0.25500000000E-02 0.  1.
          1   -1    0    0  501    0  0.00000000000E+00 -0.00000000000E+00 -0.39984863476E+01  0.39984895240E+01  0.50400000000E-02 0. -1.
        -24    2    1    2    0    0  0.00000000000E+00  0.00000000000E+00  0.34205224615E+03  0.35004922203E+03  0.74395690387E+02 0.  0.
         66    2    3    3    0    0  0.19164363937E+02 -0.17798985079E+02  0.29542444215E+03  0.29658671194E+03  0.19999916489E+01 0.  0.
         13    1    3    3    0    0 -0.19164363937E+02  0.17798985079E+02  0.46627803996E+02  0.53462510084E+02  0.10566000000E+00 0. -1.
         13    1    4    4    0    0  0.16654006982E+02 -0.15776562468E+02  0.26405749498E+03  0.26505212259E+03  0.10566000000E+00 0. -1.
        -13    1    4    4    0    0  0.16847505072E+01 -0.15680918069E+01  0.22600379260E+02  0.22717517535E+02  0.10566000000E+00 0.  1.
         14    1    4    4    0    0  0.82560644783E+00 -0.45433080393E+00  0.87665679131E+01  0.88170718190E+01  0.00000000000E+00 0. -1.
<mgrwt>
<rscale>  0 0.74395690E+02</rscale>
<asrwt>0</asrwt>
<pdfrwt beam="1">  1        1 0.61515200E-03 0.74395690E+02</pdfrwt>
<pdfrwt beam="2">  1       -2 0.53238574E-01 0.74395690E+02</pdfrwt>
<totfact> 0.78080917E+04</totfact>
</mgrwt>
</event>
<event>
 8    1  0.7756875E-018  0.8153086E+02  0.7818608E-02  0.1324762E+00
         -2   -1    0    0    0  501 -0.00000000000E+00  0.00000000000E+00  0.13916693825E+02  0.13916694058E+02  0.25500000000E-02 0.  1.
          1   -1    0    0  501    0  0.00000000000E+00 -0.00000000000E+00 -0.11941199831E+03  0.11941199842E+03  0.50400000000E-02 0. -1.
        -24    2    1    2    0    0  0.00000000000E+00  0.00000000000E+00 -0.10549530449E+03  0.13332869248E+03  0.81530858997E+02 0.  0.
         66    2    3    3    0    0  0.30917272126E+02  0.90550939837E+01 -0.11996524226E+02  0.34435287655E+02  0.19999999030E+01 0.  0.
         13    1    3    3    0    0 -0.30917272126E+02 -0.90550939837E+01 -0.93498780264E+02  0.98893404824E+02  0.10566000000E+00 0. -1.
         13    1    4    4    0    0  0.56766592204E+00  0.41394585593E+00 -0.30206705841E+00  0.77201315667E+00  0.10566000000E+00 0. -1.
        -13    1    4    4    0    0  0.24487619408E+02  0.69233158746E+01 -0.90860312884E+01  0.27021157184E+02  0.10566000000E+00 0.  1.
        -14    1    4    4    0    0  0.58619867963E+01  0.17178322532E+01 -0.26084258794E+01  0.66421173144E+01  0.00000000000E+00 0.  1.
<mgrwt>
<rscale>  0 0.81530859E+02</rscale>
<asrwt>0</asrwt>
<pdfrwt beam="1">  1        1 0.18371076E-01 0.81530859E+02</pdfrwt>
<pdfrwt beam="2">  1       -2 0.21410299E-02 0.81530859E+02</pdfrwt>
<totfact> 0.14399661E+05</totfact>
</mgrwt>
</event>
<event>
 8    1  0.7756875E-018  0.7534914E+02  0.7818608E-02  0.1342793E+00
          1   -1    0    0  501    0  0.00000000000E+00  0.00000000000E+00  0.78080993379E+02  0.78080993542E+02  0.50400000000E-02 0. -1.
         -2   -1    0    0    0  501 -0.00000000000E+00 -0.00000000000E+00 -0.18178215123E+02  0.18178215302E+02  0.25500000000E-02 0.  1.
        -24    2    1    2    0    0 -0.71054273576E-14  0.88817841970E-15  0.59902778256E+02  0.96259208843E+02  0.75349136985E+02 0.  0.
         66    2    3    3    0    0  0.32109337794E+02  0.78086290218E+01  0.69282083744E+01  0.33822837400E+02  0.19999994276E+01 0.  0.
         13    1    3    3    0    0 -0.32109337794E+02 -0.78086290218E+01  0.52974569882E+02  0.62436371443E+02  0.10566000000E+00 0. -1.
         13    1    4    4    0    0  0.59353044320E+01  0.84048522428E+00  0.13159371648E+01  0.61381681934E+01  0.10566000000E+00 0. -1.
        -13    1    4    4    0    0  0.73315027727E+01  0.14680754338E+01  0.17386241057E+01  0.76772492601E+01  0.10566000000E+00 0.  1.
         14    1    4    4    0    0  0.18842530590E+02  0.55000683637E+01  0.38736471039E+01  0.20007419947E+02  0.00000000000E+00 0. -1.
<mgrwt>
<rscale>  0 0.75349137E+02</rscale>
<asrwt>0</asrwt>
<pdfrwt beam="1">  1        1 0.12012460E-01 0.75349137E+02</pdfrwt>
<pdfrwt beam="2">  1       -2 0.27966486E-02 0.75349137E+02</pdfrwt>
<totfact> 0.16605971E+05</totfact>
</mgrwt>
</event>
<event>
 8    1  0.7756875E-018  0.7687103E+02  0.7818608E-02  0.1338173E+00
         -2   -1    0    0    0  501 -0.00000000000E+00  0.00000000000E+00  0.66748690066E+02  0.66748690115E+02  0.25500000000E-02 0.  1.
          1   -1    0    0  501    0  0.00000000000E+00 -0.00000000000E+00 -0.22132098926E+02  0.22132099500E+02  0.50400000000E-02 0. -1.
        -24    2    1    2    0    0  0.00000000000E+00  0.00000000000E+00  0.44616591140E+02  0.88880789615E+02  0.76871025475E+02 0.  0.
         66    2    3    3    0    0  0.35689888491E+02 -0.33521709087E+01  0.63741090302E+01  0.36464153017E+02  0.19999997585E+01 0.  0.
         13    1    3    3    0    0 -0.35689888491E+02  0.33521709087E+01  0.38242482110E+02  0.52416636598E+02  0.10566000000E+00 0. -1.
         13    1    4    4    0    0  0.26061878313E+02 -0.25661993189E+01  0.39658929933E+01  0.26486720284E+02  0.10566000000E+00 0. -1.
        -13    1    4    4    0    0  0.79414097967E+01 -0.89159231067E+00  0.19479869946E+01  0.82259798064E+01  0.10566000000E+00 0.  1.
         14    1    4    4    0    0  0.16866003812E+01  0.10562072083E+00  0.46022904237E+00  0.17514529266E+01  0.00000000000E+00 0. -1.
<mgrwt>
<rscale>  0 0.76871025E+02</rscale>
<asrwt>0</asrwt>
<pdfrwt beam="1">  1        1 0.34049383E-02 0.76871025E+02</pdfrwt>
<pdfrwt beam="2">  1       -2 0.10269029E-01 0.76871025E+02</pdfrwt>
<totfact> 0.12835159E+05</totfact>
</mgrwt>
</event>
<event>
 8    1  0.7756875E-018  0.7640063E+02  0.7818608E-02  0.1339588E+00
         -2   -1    0    0    0  501 -0.00000000000E+00  0.00000000000E+00  0.28391338932E+03  0.28391338933E+03  0.25500000000E-02 0.  1.
          1   -1    0    0  501    0  0.00000000000E+00 -0.00000000000E+00 -0.51398204063E+01  0.51398228773E+01  0.50400000000E-02 0. -1.
        -24    2    1    2    0    0  0.00000000000E+00  0.35527136788E-14  0.27877356891E+03  0.28905321221E+03  0.76400633265E+02 0.  0.
         66    2    3    3    0    0 -0.24985135615E+02 -0.26605100531E+02  0.97153568086E+02  0.10380223585E+03  0.20000000827E+01 0.  0.
         13    1    3    3    0    0  0.24985135615E+02  0.26605100531E+02  0.18162000083E+03  0.18525097636E+03  0.10566000000E+00 0. -1.
         13    1    4    4    0    0 -0.30420188509E+01 -0.28448657909E+01  0.12281728424E+02  0.12969161776E+02  0.10566000000E+00 0. -1.
        -13    1    4    4    0    0 -0.92666783437E+01 -0.94317934256E+01  0.35804394548E+02  0.38167995595E+02  0.10566000000E+00 0.  1.
         14    1    4    4    0    0 -0.12676438421E+02 -0.14328441314E+02  0.49067445113E+02  0.52665078482E+02  0.00000000000E+00 0. -1.
<mgrwt>
<rscale>  0 0.76400633E+02</rscale>
<asrwt>0</asrwt>
<pdfrwt beam="1">  1        1 0.79074155E-03 0.76400633E+02</pdfrwt>
<pdfrwt beam="2">  1       -2 0.43678996E-01 0.76400633E+02</pdfrwt>
<totfact> 0.81488739E+04</totfact>
</mgrwt>
</event>
<event>
 8    1  0.7756875E-018  0.7949555E+02  0.7818608E-02  0.1330489E+00
         -2   -1    0    0    0  501 -0.00000000000E+00  0.00000000000E+00  0.96668400735E+02  0.96668400768E+02  0.25500000000E-02 0.  1.
          1   -1    0    0  501    0  0.00000000000E+00 -0.00000000000E+00 -0.16343351723E+02  0.16343352500E+02  0.50400000000E-02 0. -1.
        -24    2    1    2    0    0  0.00000000000E+00  0.35527136788E-14  0.80325049012E+02  0.11301175327E+03  0.79495552567E+02 0.  0.
         66    2    3    3    0    0 -0.79747317908E+00 -0.28156274573E+02  0.80004887604E+02  0.84842169872E+02  0.19999966863E+01 0.  0.
         13    1    3    3    0    0  0.79747317908E+00  0.28156274573E+02  0.32016140754E+00  0.28169583396E+02  0.10566000000E+00 0. -1.
         13    1    4    4    0    0 -0.57316737968E+00 -0.80576260179E+01  0.23365371428E+02  0.24722572761E+02  0.10566000000E+00 0. -1.
        -13    1    4    4    0    0 -0.57225245282E+00 -0.18854600173E+02  0.52781832593E+02  0.56051373190E+02  0.10566000000E+00 0.  1.
        -14    1    4    4    0    0  0.34794665341E+00 -0.12440483827E+01  0.38576835826E+01  0.40682239215E+01  0.00000000000E+00 0.  1.
<mgrwt>
<rscale>  0 0.79495553E+02</rscale>
<asrwt>0</asrwt>
<pdfrwt beam="1">  1        1 0.25143618E-02 0.79495553E+02</pdfrwt>
<pdfrwt beam="2">  1       -2 0.14872062E-01 0.79495553E+02</pdfrwt>
<totfact> 0.10876027E+05</totfact>
</mgrwt>
</event>
<event>
 8    1  0.7756875E-018  0.7960575E+02  0.7818608E-02  0.1330174E+00
          1   -1    0    0  501    0  0.00000000000E+00  0.00000000000E+00  0.15740198534E+02  0.15740199341E+02  0.50400000000E-02 0. -1.
         -2   -1    0    0    0  501 -0.00000000000E+00 -0.00000000000E+00 -0.10065114235E+03  0.10065114239E+03  0.25500000000E-02 0.  1.
        -24    2    1    2    0    0  0.00000000000E+00 -0.44408920985E-15 -0.84910943820E+02  0.11639134173E+03  0.79605753866E+02 0.  0.
         66    2    3    3    0    0 -0.21878435418E+02  0.37797638226E+01 -0.90738299829E+02  0.93436564599E+02  0.19999993223E+01 0.  0.
         13    1    3    3    0    0  0.21878435418E+02 -0.37797638226E+01  0.58273560089E+01  0.22954777128E+02  0.10566000000E+00 0. -1.
         13    1    4    4    0    0 -0.57512392260E+01  0.49148801852E+00 -0.20735557390E+02  0.21524237905E+02  0.10566000000E+00 0. -1.
        -13    1    4    4    0    0 -0.13671792951E+02  0.28434318484E+01 -0.58990788895E+02  0.60621179184E+02  0.10566000000E+00 0.  1.
         14    1    4    4    0    0 -0.24554032414E+01  0.44484395566E+00 -0.11011953544E+02  0.11291147510E+02  0.00000000000E+00 0. -1.
<mgrwt>
<rscale>  0 0.79605754E+02</rscale>
<asrwt>0</asrwt>
<pdfrwt beam="1">  1        1 0.24215691E-02 0.79605754E+02</pdfrwt>
<pdfrwt beam="2">  1       -2 0.15484791E-01 0.79605754E+02</pdfrwt>
<totfact> 0.10730484E+05</totfact>
</mgrwt>
</event>
<event>
 8    1  0.7756875E-018  0.7982235E+02  0.7818608E-02  0.1329556E+00
         -2   -1    0    0    0  501 -0.00000000000E+00  0.00000000000E+00  0.52379409821E+01  0.52379416028E+01  0.25500000000E-02 0.  1.
          1   -1    0    0  501    0  0.00000000000E+00 -0.00000000000E+00 -0.30410840657E+03  0.30410840661E+03  0.50400000000E-02 0. -1.
        -24    2    1    2    0    0 -0.88817841970E-15  0.00000000000E+00 -0.29887046559E+03  0.30934634821E+03  0.79822352464E+02 0.  0.
         66    2    3    3    0    0  0.60631091656E+01 -0.38144637177E+02 -0.11094486460E+03  0.11749271310E+03  0.20000027816E+01 0.  0.
         13    1    3    3    0    0 -0.60631091656E+01  0.38144637177E+02 -0.18792560098E+03  0.19185363512E+03  0.10566000000E+00 0. -1.
         13    1    4    4    0    0  0.33919484819E+00 -0.18580454679E+01 -0.63876672826E+01  0.66618948847E+01  0.10566000000E+00 0. -1.
        -13    1    4    4    0    0  0.18301950787E+01 -0.14119056346E+02 -0.42067810870E+02  0.44411814212E+02  0.10566000000E+00 0.  1.
        -14    1    4    4    0    0  0.38937192387E+01 -0.22167535363E+02 -0.62489386449E+02  0.66419004000E+02  0.00000000000E+00 0.  1.
<mgrwt>
<rscale>  0 0.79822352E+02</rscale>
<asrwt>0</asrwt>
<pdfrwt beam="1">  1        1 0.46785895E-01 0.79822352E+02</pdfrwt>
<pdfrwt beam="2">  1       -2 0.80583736E-03 0.79822352E+02</pdfrwt>
<totfact> 0.18194577E+05</totfact>
</mgrwt>
</event>
<event>
 8    1  0.7756875E-018  0.7928824E+02  0.7818608E-02  0.1331084E+00
          1   -1    0    0  501    0  0.00000000000E+00  0.00000000000E+00  0.14308209010E+03  0.14308209019E+03  0.50400000000E-02 0. -1.
         -2   -1    0    0    0  501 -0.00000000000E+00 -0.00000000000E+00 -0.10984296675E+02  0.10984296971E+02  0.25500000000E-02 0.  1.
        -24    2    1    2    0    0  0.00000000000E+00  0.00000000000E+00  0.13209779343E+03  0.15406638716E+03  0.79288237620E+02 0.  0.
         66    2    3    3    0    0 -0.33071094118E+02  0.68874391924E+01  0.25866992596E+02  0.42593842139E+02  0.19999993441E+01 0.  0.
         13    1    3    3    0    0  0.33071094118E+02 -0.68874391924E+01  0.10623080083E+03  0.11147254502E+03  0.10566000000E+00 0. -1.
         13    1    4    4    0    0 -0.95351378237E+01  0.16936845365E+01  0.76871416570E+01  0.12364899171E+02  0.10566000000E+00 0. -1.
        -13    1    4    4    0    0 -0.13616580236E+01  0.57195125154E+00  0.83464387657E+00  0.16997162244E+01  0.10566000000E+00 0.  1.
        -14    1    4    4    0    0 -0.22174298271E+02  0.46218034043E+01  0.17345207063E+02  0.28529226743E+02  0.00000000000E+00 0.  1.
<mgrwt>
<rscale>  0 0.79288238E+02</rscale>
<asrwt>0</asrwt>
<pdfrwt beam="1">  1        1 0.22012629E-01 0.79288238E+02</pdfrwt>
<pdfrwt beam="2">  1       -2 0.16898919E-02 0.79288238E+02</pdfrwt>
<totfact> 0.16030652E+05</totfact>
</mgrwt>
</event>
<event>
 8    1  0.7756875E-018  0.7444517E+02  0.7818608E-02  0.1345598E+00
          1   -1    0    0  501    0  0.00000000000E+00  0.00000000000E+00  0.71857412540E+02  0.71857412716E+02  0.50400000000E-02 0. -1.
         -2   -1    0    0    0  501 -0.00000000000E+00 -0.00000000000E+00 -0.19281531759E+02  0.19281531927E+02  0.25500000000E-02 0.  1.
        -24    2    1    2    0    0 -0.44408920985E-15  0.00000000000E+00  0.52575880781E+02  0.91138944644E+02  0.74445174396E+02 0.  0.
         66    2    3    3    0    0  0.31290822868E+01  0.25570916311E+02 -0.65396629835E+01  0.26653895248E+02  0.20000057455E+01 0.  0.
         13    1    3    3    0    0 -0.31290822868E+01 -0.25570916311E+02  0.59115543764E+02  0.64485049396E+02  0.10566000000E+00 0. -1.
         13    1    4    4    0    0 -0.71712970597E-01  0.19108312496E+01 -0.34912416761E+00  0.19466562446E+01  0.10566000000E+00 0. -1.
        -13    1    4    4    0    0  0.18767806876E+01  0.11068924968E+02 -0.22809356677E+01  0.11456755093E+02  0.10566000000E+00 0.  1.
        -14    1    4    4    0    0  0.13240145698E+01  0.12591160093E+02 -0.39096031482E+01  0.13250483910E+02  0.00000000000E+00 0.  1.
<mgrwt>
<rscale>  0 0.74445174E+02</rscale>
<asrwt>0</asrwt>
<pdfrwt beam="1">  1        1 0.11054986E-01 0.74445174E+02</pdfrwt>
<pdfrwt beam="2">  1       -2 0.29663896E-02 0.74445174E+02</pdfrwt>
<totfact> 0.16939486E+05</totfact>
</mgrwt>
</event>
<event>
 8    1  0.7756875E-018  0.8230797E+02  0.7818608E-02  0.1322626E+00
          1   -1    0    0  501    0  0.00000000000E+00  0.00000000000E+00  0.49738313699E+02  0.49738313954E+02  0.50400000000E-02 0. -1.
         -2   -1    0    0    0  501 -0.00000000000E+00 -0.00000000000E+00 -0.34051223565E+02  0.34051223661E+02  0.25500000000E-02 0.  1.
        -24    2    1    2    0    0  0.00000000000E+00  0.00000000000E+00  0.15687090134E+02  0.83789537615E+02  0.82307969340E+02 0.  0.
         66    2    3    3    0    0 -0.24992705370E+02 -0.44142099700E+01 -0.25099914311E+02  0.35750892058E+02  0.20000032931E+01 0.  0.
         13    1    3    3    0    0  0.24992705370E+02  0.44142099700E+01  0.40787004444E+02  0.48038645557E+02  0.10566000000E+00 0. -1.
         13    1    4    4    0    0 -0.11089849300E+01 -0.33903379573E+00 -0.16036453015E+01  0.19818258698E+01  0.10566000000E+00 0. -1.
        -13    1    4    4    0    0 -0.10492403619E+02 -0.14390789937E+01 -0.10855578571E+02  0.15166286038E+02  0.10566000000E+00 0.  1.
         14    1    4    4    0    0 -0.13391316822E+02 -0.26360971806E+01 -0.12640690438E+02  0.18602780150E+02  0.00000000000E+00 0. -1.
<mgrwt>
<rscale>  0 0.82307969E+02</rscale>
<asrwt>0</asrwt>
<pdfrwt beam="1">  1        1 0.76520483E-02 0.82307969E+02</pdfrwt>
<pdfrwt beam="2">  1       -2 0.52386498E-02 0.82307969E+02</pdfrwt>
<totfact> 0.12143663E+05</totfact>
</mgrwt>
</event>
<event>
 8    1  0.7756875E-018  0.7944225E+02  0.7818608E-02  0.1330642E+00
         -2   -1    0    0    0  501 -0.00000000000E+00  0.00000000000E+00  0.60084770269E+03  0.60084770269E+03  0.25500000000E-02 0.  1.
          1   -1    0    0  501    0  0.00000000000E+00 -0.00000000000E+00 -0.26259006646E+01  0.26259055014E+01  0.50400000000E-02 0. -1.
        -24    2    1    2    0    0  0.00000000000E+00  0.35527136788E-14  0.59822180202E+03  0.60347360820E+03  0.79442251803E+02 0.  0.
         66    2    3    3    0    0 -0.55178049637E+01  0.21549705091E+02  0.54904960972E+03  0.54950369416E+03  0.19999999041E+01 0.  0.
         13    1    3    3    0    0  0.55178049637E+01 -0.21549705091E+02  0.49172192308E+02  0.53969914041E+02  0.10566000000E+00 0. -1.
         13    1    4    4    0    0 -0.36076768677E+01  0.15539053419E+02  0.39970720061E+03  0.40002541781E+03  0.10566000000E+00 0. -1.
        -13    1    4    4    0    0 -0.13087014322E+01  0.44754675852E+01  0.11861495146E+03  0.11870661474E+03  0.10566000000E+00 0.  1.
         14    1    4    4    0    0 -0.60142666386E+00  0.15351840868E+01  0.30727457646E+02  0.30771661600E+02  0.00000000000E+00 0. -1.
<mgrwt>
<rscale>  0 0.79442252E+02</rscale>
<asrwt>0</asrwt>
<pdfrwt beam="1">  1        1 0.40398477E-03 0.79442252E+02</pdfrwt>
<pdfrwt beam="2">  1       -2 0.92438182E-01 0.79442252E+02</pdfrwt>
<totfact> 0.44205915E+04</totfact>
</mgrwt>
</event>
<event>
 8    1  0.7756875E-018  0.7904200E+02  0.7818608E-02  0.1331792E+00
          1   -1    0    0  501    0  0.00000000000E+00  0.00000000000E+00  0.33215878595E+02  0.33215878977E+02  0.50400000000E-02 0. -1.
         -2   -1    0    0    0  501 -0.00000000000E+00 -0.00000000000E+00 -0.47022972267E+02  0.47022972336E+02  0.25500000000E-02 0.  1.
        -24    2    1    2    0    0  0.00000000000E+00  0.00000000000E+00 -0.13807093672E+02  0.80238851313E+02  0.79041997851E+02 0.  0.
         66    2    3    3    0    0 -0.89692010728E+01  0.38367026157E+02 -0.41410362770E+01  0.39668922873E+02  0.19999991190E+01 0.  0.
         13    1    3    3    0    0  0.89692010728E+01 -0.38367026157E+02 -0.96660573952E+01  0.40569928440E+02  0.10566000000E+00 0. -1.
         13    1    4    4    0    0 -0.36174866064E+01  0.13153537383E+02 -0.19018041982E+01  0.13774243292E+02  0.10566000000E+00 0. -1.
        -13    1    4    4    0    0 -0.24072459733E+01  0.13830160054E+02 -0.13433016976E+01  0.14102616203E+02  0.10566000000E+00 0.  1.
        -14    1    4    4    0    0 -0.29444684931E+01  0.11383328720E+02 -0.89593038123E+00  0.11792063378E+02  0.00000000000E+00 0.  1.
<mgrwt>
<rscale>  0 0.79041998E+02</rscale>
<asrwt>0</asrwt>
<pdfrwt beam="1">  1        1 0.51101352E-02 0.79041998E+02</pdfrwt>
<pdfrwt beam="2">  1       -2 0.72343035E-02 0.79041998E+02</pdfrwt>
<totfact> 0.12740760E+05</totfact>
</mgrwt>
</event>
<event>
 8    1  0.7756875E-018  0.7800546E+02  0.7818608E-02  0.1334809E+00
         -2   -1    0    0    0  501 -0.00000000000E+00  0.00000000000E+00  0.89946219909E+02  0.89946219945E+02  0.25500000000E-02 0.  1.
          1   -1    0    0  501    0  0.00000000000E+00 -0.00000000000E+00 -0.16912473366E+02  0.16912474117E+02  0.50400000000E-02 0. -1.
        -24    2    1    2    0    0  0.00000000000E+00  0.00000000000E+00  0.73033746543E+02  0.10685869406E+03  0.78005463671E+02 0.  0.
         66    2    3    3    0    0 -0.22989308539E+02  0.16858961904E+02  0.72951871013E+02  0.78349909956E+02  0.20000005418E+01 0.  0.
         13    1    3    3    0    0  0.22989308539E+02 -0.16858961904E+02  0.81875530104E-01  0.28508784106E+02  0.10566000000E+00 0. -1.
         13    1    4    4    0    0 -0.96346075652E+01  0.76325499484E+01  0.33365168722E+02  0.35557377990E+02  0.10566000000E+00 0. -1.
        -13    1    4    4    0    0 -0.11962593527E+02  0.79830699582E+01  0.35268042260E+02  0.38087780439E+02  0.10566000000E+00 0.  1.
         14    1    4    4    0    0 -0.13921074463E+01  0.12433419974E+01  0.43186600311E+01  0.47047515268E+01  0.00000000000E+00 0. -1.
<mgrwt>
<rscale>  0 0.78005464E+02</rscale>
<asrwt>0</asrwt>
<pdfrwt beam="1">  1        1 0.26019191E-02 0.78005464E+02</pdfrwt>
<pdfrwt beam="2">  1       -2 0.13837880E-01 0.78005464E+02</pdfrwt>
<totfact> 0.11611253E+05</totfact>
</mgrwt>
</event>
<event>
 8    1  0.7756875E-018  0.7885262E+02  0.7818608E-02  0.1332339E+00
         -2   -1    0    0    0  501 -0.00000000000E+00  0.00000000000E+00  0.23956940543E+02  0.23956940679E+02  0.25500000000E-02 0.  1.
          1   -1    0    0  501    0  0.00000000000E+00 -0.00000000000E+00 -0.64884494499E+02  0.64884494695E+02  0.50400000000E-02 0. -1.
        -24    2    1    2    0    0  0.00000000000E+00  0.00000000000E+00 -0.40927553956E+02  0.88841435374E+02  0.78852621811E+02 0.  0.
         66    2    3    3    0    0  0.20734021467E+02 -0.38171497804E+01  0.17025682139E+02  0.27172488435E+02  0.19999992014E+01 0.  0.
         13    1    3    3    0    0 -0.20734021467E+02  0.38171497804E+01 -0.57953236095E+02  0.61668946939E+02  0.10566000000E+00 0. -1.
         13    1    4    4    0    0  0.53667036230E-01  0.23301117342E-01  0.78545822765E-01  0.14407142229E+00  0.10566000000E+00 0.  1.
        -13    1    4    4    0    0  0.17873623558E+02 -0.34414379637E+01  0.15036914444E+02  0.23609952867E+02  0.10566000000E+00 0.  1.
        -14    1    4    4    0    0  0.28067308724E+01 -0.39901293408E+00  0.19102218725E+01  0.34184641455E+01  0.00000000000E+00 0.  1.
<mgrwt>
<rscale>  0 0.78852622E+02</rscale>
<asrwt>0</asrwt>
<pdfrwt beam="1">  1        1 0.99822299E-02 0.78852622E+02</pdfrwt>
<pdfrwt beam="2">  1       -2 0.36856832E-02 0.78852622E+02</pdfrwt>
<totfact> 0.14259802E+05</totfact>
</mgrwt>
</event>
<event>
 8    1  0.7756875E-018  0.7228197E+02  0.7818608E-02  0.1352501E+00
          1   -1    0    0  501    0  0.00000000000E+00  0.00000000000E+00  0.32221435398E+02  0.32221435792E+02  0.50400000000E-02 0. -1.
         -2   -1    0    0    0  501 -0.00000000000E+00 -0.00000000000E+00 -0.40537323006E+02  0.40537323086E+02  0.25500000000E-02 0.  1.
        -24    2    1    2    0    0  0.00000000000E+00 -0.88817841970E-15 -0.83158876077E+01  0.72758758878E+02  0.72281968752E+02 0.  0.
         66    2    3    3    0    0 -0.17882971377E+02  0.67866726350E+01 -0.34994959669E+02  0.39931275867E+02  0.19999998592E+01 0.  0.
         13    1    3    3    0    0  0.17882971377E+02 -0.67866726350E+01  0.26679072061E+02  0.32827483010E+02  0.10566000000E+00 0. -1.
         13    1    4    4    0    0 -0.15747698590E+01  0.10425499106E+01 -0.30107115740E+01  0.35556094614E+01  0.10566000000E+00 0.  1.
        -13    1    4    4    0    0 -0.19081389883E+01  0.31607372942E+00 -0.35533062685E+01  0.40469799202E+01  0.10566000000E+00 0. -1.
        -14    1    4    4    0    0 -0.14400062529E+02  0.54280489950E+01 -0.28430941827E+02  0.32328686486E+02  0.00000000000E+00 0.  1.
<mgrwt>
<rscale>  0 0.72281969E+02</rscale>
<asrwt>0</asrwt>
<pdfrwt beam="1">  1        1 0.49571440E-02 0.72281969E+02</pdfrwt>
<pdfrwt beam="2">  1       -2 0.62365112E-02 0.72281969E+02</pdfrwt>
<totfact> 0.16314300E+05</totfact>
</mgrwt>
</event>
<event>
 8    1  0.7756875E-018  0.7908857E+02  0.7818608E-02  0.1331658E+00
          1   -1    0    0  501    0  0.00000000000E+00  0.00000000000E+00  0.73906519558E+02  0.73906519729E+02  0.50400000000E-02 0. -1.
         -2   -1    0    0    0  501 -0.00000000000E+00 -0.00000000000E+00 -0.21158492140E+02  0.21158492294E+02  0.25500000000E-02 0.  1.
        -24    2    1    2    0    0  0.00000000000E+00  0.00000000000E+00  0.52748027417E+02  0.95065012023E+02  0.79088571327E+02 0.  0.
         66    2    3    3    0    0 -0.19027304478E+02  0.30997839610E+02  0.78144301348E+01  0.37255465191E+02  0.19999980285E+01 0.  0.
         13    1    3    3    0    0  0.19027304478E+02 -0.30997839610E+02  0.44933597282E+02  0.57809546832E+02  0.10566000000E+00 0. -1.
         13    1    4    4    0    0 -0.11193448116E+01  0.22585863475E+01  0.20010441643E+00  0.25308794736E+01  0.10566000000E+00 0. -1.
        -13    1    4    4    0    0 -0.61512720242E+01  0.10664501306E+02  0.30752435358E+01  0.12690075747E+02  0.10566000000E+00 0.  1.
        -14    1    4    4    0    0 -0.11756687642E+02  0.18074751957E+02  0.45390821825E+01  0.22034509971E+02  0.00000000000E+00 0.  1.
<mgrwt>
<rscale>  0 0.79088571E+02</rscale>
<asrwt>0</asrwt>
<pdfrwt beam="1">  1        1 0.11370234E-01 0.79088571E+02</pdfrwt>
<pdfrwt beam="2">  1       -2 0.32551526E-02 0.79088571E+02</pdfrwt>
<totfact> 0.14435265E+05</totfact>
</mgrwt>
</event>
<event>
 8    1  0.7756875E-018  0.7860891E+02  0.7818608E-02  0.1333046E+00
         -2   -1    0    0    0  501 -0.00000000000E+00  0.00000000000E+00  0.17022621552E+02  0.17022621743E+02  0.25500000000E-02 0.  1.
          1   -1    0    0  501    0  0.00000000000E+00 -0.00000000000E+00 -0.90752184875E+02  0.90752185015E+02  0.50400000000E-02 0. -1.
        -24    2    1    2    0    0  0.00000000000E+00  0.00000000000E+00 -0.73729563323E+02  0.10777480676E+03  0.78608908299E+02 0.  0.
         66    2    3    3    0    0 -0.38293395306E+02 -0.87345799914E+01 -0.37433828555E+02  0.54295198139E+02  0.20000022349E+01 0.  0.
         13    1    3    3    0    0  0.38293395306E+02  0.87345799914E+01 -0.36295734768E+02  0.53479608619E+02  0.10566000000E+00 0. -1.
         13    1    4    4    0    0 -0.74500633274E+00 -0.36306085127E+00 -0.78734395219E+00  0.11480079060E+01  0.10566000000E+00 0. -1.
        -13    1    4    4    0    0 -0.24880152096E+02 -0.54529332697E+01 -0.25092901452E+02  0.35755018066E+02  0.10566000000E+00 0.  1.
        -14    1    4    4    0    0 -0.12668236877E+02 -0.29185858704E+01 -0.11553583151E+02  0.17392172167E+02  0.00000000000E+00 0.  1.
<mgrwt>
<rscale>  0 0.78608908E+02</rscale>
<asrwt>0</asrwt>
<pdfrwt beam="1">  1        1 0.13961874E-01 0.78608908E+02</pdfrwt>
<pdfrwt beam="2">  1       -2 0.26188649E-02 0.78608908E+02</pdfrwt>
<totfact> 0.15167185E+05</totfact>
</mgrwt>
</event>
<event>
 8    1  0.7756875E-018  0.7948867E+02  0.7818608E-02  0.1330509E+00
         -2   -1    0    0    0  501 -0.00000000000E+00  0.00000000000E+00  0.33079300320E+02  0.33079300419E+02  0.25500000000E-02 0.  1.
          1   -1    0    0  501    0  0.00000000000E+00 -0.00000000000E+00 -0.47752290119E+02  0.47752290384E+02  0.50400000000E-02 0. -1.
        -24    2    1    2    0    0  0.00000000000E+00  0.00000000000E+00 -0.14672989798E+02  0.80831590803E+02  0.79488674930E+02 0.  0.
         66    2    3    3    0    0  0.19165797667E+02 -0.11286862221E+02  0.26122061168E+02  0.34366890155E+02  0.20000000745E+01 0.  0.
         13    1    3    3    0    0 -0.19165797667E+02  0.11286862221E+02 -0.40795050966E+02  0.46464700648E+02  0.10566000000E+00 0. -1.
         13    1    4    4    0    0  0.11675416359E+02 -0.74954964322E+01  0.15280101801E+02  0.20639537035E+02  0.10566000000E+00 0. -1.
        -13    1    4    4    0    0  0.75009069980E+01 -0.37959652329E+01  0.10833486388E+02  0.13713079494E+02  0.10566000000E+00 0.  1.
         14    1    4    4    0    0 -0.10525690608E-01  0.45994443887E-02  0.84729784172E-02  0.14273626544E-01  0.00000000000E+00 0. -1.
<mgrwt>
<rscale>  0 0.79488675E+02</rscale>
<asrwt>0</asrwt>
<pdfrwt beam="1">  1        1 0.73465063E-02 0.79488675E+02</pdfrwt>
<pdfrwt beam="2">  1       -2 0.50891231E-02 0.79488675E+02</pdfrwt>
<totfact> 0.13297628E+05</totfact>
</mgrwt>
</event>
<event>
 8    1  0.7756875E-018  0.7737252E+02  0.7818608E-02  0.1336678E+00
          1   -1    0    0  501    0  0.00000000000E+00  0.00000000000E+00  0.65552872832E+02  0.65552873026E+02  0.50400000000E-02 0. -1.
         -2   -1    0    0    0  501 -0.00000000000E+00 -0.00000000000E+00 -0.22830834024E+02  0.22830834167E+02  0.25500000000E-02 0.  1.
        -24    2    1    2    0    0  0.00000000000E+00  0.00000000000E+00  0.42722038808E+02  0.88383707192E+02  0.77372521590E+02 0.  0.
         66    2    3    3    0    0 -0.45817095754E+01 -0.32495176351E+02 -0.19708412303E+01  0.32936495911E+02  0.19999997473E+01 0.  0.
         13    1    3    3    0    0  0.45817095754E+01  0.32495176351E+02  0.44692880038E+02  0.55447211281E+02  0.10566000000E+00 0. -1.
         13    1    4    4    0    0 -0.32756396376E-01 -0.19236913547E+01 -0.39217284333E+00  0.19663735618E+01  0.10566000000E+00 0. -1.
        -13    1    4    4    0    0 -0.26930960584E+00 -0.12872973742E+01 -0.26483829895E+00  0.13457212020E+01  0.10566000000E+00 0.  1.
        -14    1    4    4    0    0 -0.42796435732E+01 -0.29284187623E+02 -0.13138300880E+01  0.29624401147E+02  0.00000000000E+00 0.  1.
<mgrwt>
<rscale>  0 0.77372522E+02</rscale>
<asrwt>0</asrwt>
<pdfrwt beam="1">  1        1 0.10085057E-01 0.77372522E+02</pdfrwt>
<pdfrwt beam="2">  1       -2 0.35124360E-02 0.77372522E+02</pdfrwt>
<totfact> 0.15042444E+05</totfact>
</mgrwt>
</event>
<event>
 8    1  0.7756875E-018  0.8268719E+02  0.7818608E-02  0.1321594E+00
         -2   -1    0    0    0  501 -0.00000000000E+00  0.00000000000E+00  0.31952884336E+03  0.31952884337E+03  0.25500000000E-02 0.  1.
          1   -1    0    0  501    0  0.00000000000E+00 -0.00000000000E+00 -0.53494146514E+01  0.53494170257E+01  0.50400000000E-02 0. -1.
        -24    2    1    2    0    0  0.00000000000E+00  0.00000000000E+00  0.31417942871E+03  0.32487826039E+03  0.82687185550E+02 0.  0.
         66    2    3    3    0    0 -0.13746372983E+02  0.38262775470E+02  0.18612958938E+03  0.19052880832E+03  0.20000000993E+01 0.  0.
         13    1    3    3    0    0  0.13746372983E+02 -0.38262775470E+02  0.12804983933E+03  0.13434945207E+03  0.10566000000E+00 0. -1.
         13    1    4    4    0    0 -0.14847463046E+01  0.62362174610E+01  0.29501260742E+02  0.30189906081E+02  0.10566000000E+00 0. -1.
        -13    1    4    4    0    0 -0.81828477059E+01  0.21080788251E+02  0.10356594228E+03  0.10600601018E+03  0.10566000000E+00 0.  1.
         14    1    4    4    0    0 -0.40787789722E+01  0.10945769758E+02  0.53062386353E+02  0.54332892054E+02  0.00000000000E+00 0. -1.
<mgrwt>
<rscale>  0 0.82687186E+02</rscale>
<asrwt>0</asrwt>
<pdfrwt beam="1">  1        1 0.82298687E-03 0.82687186E+02</pdfrwt>
<pdfrwt beam="2">  1       -2 0.49158295E-01 0.82687186E+02</pdfrwt>
<totfact> 0.62289699E+04</totfact>
</mgrwt>
</event>
<event>
 8    1  0.7756875E-018  0.8040889E+02  0.7818608E-02  0.1327895E+00
         -2   -1    0    0    0  501 -0.00000000000E+00  0.00000000000E+00  0.37649054485E+02  0.37649054571E+02  0.25500000000E-02 0.  1.
          1   -1    0    0  501    0  0.00000000000E+00 -0.00000000000E+00 -0.42933280032E+02  0.42933280327E+02  0.50400000000E-02 0. -1.
        -24    2    1    2    0    0 -0.71054273576E-14  0.00000000000E+00 -0.52842255466E+01  0.80582334899E+02  0.80408890417E+02 0.  0.
         66    2    3    3    0    0 -0.35090751378E+02 -0.12878155572E+02  0.12125234195E+02  0.39347541633E+02  0.20000012647E+01 0.  0.
         13    1    3    3    0    0  0.35090751378E+02  0.12878155572E+02 -0.17409459742E+02  0.41234793266E+02  0.10566000000E+00 0. -1.
         13    1    4    4    0    0 -0.96746052866E+00 -0.53411579856E+00  0.41648036064E+00  0.11856978904E+01  0.10566000000E+00 0. -1.
        -13    1    4    4    0    0 -0.14062461202E+02 -0.43978753041E+01  0.43239232288E+01  0.15355832715E+02  0.10566000000E+00 0.  1.
        -14    1    4    4    0    0 -0.20060829647E+02 -0.79461644696E+01  0.73848306055E+01  0.22806011028E+02  0.00000000000E+00 0.  1.
<mgrwt>
<rscale>  0 0.80408890E+02</rscale>
<asrwt>0</asrwt>
<pdfrwt beam="1">  1        1 0.66051200E-02 0.80408890E+02</pdfrwt>
<pdfrwt beam="2">  1       -2 0.57921623E-02 0.80408890E+02</pdfrwt>
<totfact> 0.12660745E+05</totfact>
</mgrwt>
</event>
<event>
 8    1  0.7756875E-018  0.7993579E+02  0.7818608E-02  0.1329234E+00
          1   -1    0    0  501    0  0.00000000000E+00  0.00000000000E+00  0.23299135201E+03  0.23299135207E+03  0.50400000000E-02 0. -1.
         -2   -1    0    0    0  501 -0.00000000000E+00 -0.00000000000E+00 -0.68561876619E+01  0.68561881361E+01  0.25500000000E-02 0.  1.
        -24    2    1    2    0    0  0.00000000000E+00  0.00000000000E+00  0.22613516435E+03  0.23984754020E+03  0.79935786639E+02 0.  0.
         66    2    3    3    0    0  0.19175059711E+02 -0.35009605027E+02  0.10881892693E+03  0.11592633101E+03  0.20000015714E+01 0.  0.
         13    1    3    3    0    0 -0.19175059711E+02  0.35009605027E+02  0.11731623743E+03  0.12392120919E+03  0.10566000000E+00 0. -1.
         13    1    4    4    0    0  0.67872762378E+01 -0.12124334908E+02  0.37674409914E+02  0.40155185743E+02  0.10566000000E+00 0.  1.
        -13    1    4    4    0    0  0.52431160684E+01 -0.84743648572E+01  0.28707026654E+02  0.30387656527E+02  0.10566000000E+00 0.  1.
        -14    1    4    4    0    0  0.71446674047E+01 -0.14410905262E+02  0.42437490357E+02  0.45383488744E+02  0.00000000000E+00 0.  1.
<mgrwt>
<rscale>  0 0.79935787E+02</rscale>
<asrwt>0</asrwt>
<pdfrwt beam="1">  1        1 0.35844833E-01 0.79935787E+02</pdfrwt>
<pdfrwt beam="2">  1       -2 0.10547979E-02 0.79935787E+02</pdfrwt>
<totfact> 0.17214146E+05</totfact>
</mgrwt>
</event>
<event>
 8    1  0.1581352E-017  0.8101517E+02  0.7818608E-02  0.1326195E+00
          1   -1    0    0  501    0  0.00000000000E+00  0.00000000000E+00  0.82851676023E+02  0.82851676176E+02  0.50400000000E-02 0. -1.
         -2   -1    0    0    0  501 -0.00000000000E+00 -0.00000000000E+00 -0.19804844669E+02  0.19804844834E+02  0.25500000000E-02 0.  1.
        -24    2    1    2    0    0  0.35527136788E-14 -0.22204460493E-15  0.63046831354E+02  0.10265652101E+03  0.81015173654E+02 0.  0.
         66    2    3    3    0    0  0.17791610676E+02 -0.13708819512E+01 -0.14502092545E+02  0.23080975209E+02  0.20000001592E+01 0.  0.
         13    1    3    3    0    0 -0.17791610676E+02  0.13708819512E+01  0.77548923898E+02  0.79575545801E+02  0.10566000000E+00 0. -1.
         13    1    4    4    0    0  0.43613526398E+01 -0.63136386215E-01 -0.33134176625E+01  0.54786206014E+01  0.10566000000E+00 0. -1.
        -13    1    4    4    0    0  0.97544359717E+01 -0.29955069045E+00 -0.76366746978E+01  0.12392284544E+02  0.10566000000E+00 0.  1.
         14    1    4    4    0    0  0.36758220644E+01 -0.10081948745E+01 -0.35520001844E+01  0.52100700633E+01  0.00000000000E+00 0. -1.
<mgrwt>
<rscale>  0 0.81015174E+02</rscale>
<asrwt>0</asrwt>
<pdfrwt beam="1">  1        1 0.12746412E-01 0.81015174E+02</pdfrwt>
<pdfrwt beam="2">  1       -2 0.30468992E-02 0.81015174E+02</pdfrwt>
<totfact> 0.13768875E+05</totfact>
</mgrwt>
</event>
<event>
 8    1  0.7756875E-018  0.8107587E+02  0.7818608E-02  0.1326026E+00
         -2   -1    0    0    0  501 -0.00000000000E+00  0.00000000000E+00  0.79259854149E+02  0.79259854190E+02  0.25500000000E-02 0.  1.
          1   -1    0    0  501    0  0.00000000000E+00 -0.00000000000E+00 -0.20733374089E+02  0.20733374702E+02  0.50400000000E-02 0. -1.
        -24    2    1    2    0    0  0.00000000000E+00  0.00000000000E+00  0.58526480060E+02  0.99993228891E+02  0.81075871601E+02 0.  0.
         66    2    3    3    0    0 -0.33962240573E+02 -0.10397705524E+02  0.53315831340E+02  0.64094648293E+02  0.20000008525E+01 0.  0.
         13    1    3    3    0    0  0.33962240573E+02  0.10397705524E+02  0.52106487199E+01  0.35898580599E+02  0.10566000000E+00 0. -1.
         13    1    4    4    0    0 -0.65377660679E+00 -0.39870980515E-01  0.11132155963E+01  0.12959269061E+01  0.10566000000E+00 0. -1.
        -13    1    4    4    0    0 -0.30783233829E+02 -0.92329713838E+01  0.47765817745E+02  0.57571171209E+02  0.10566000000E+00 0.  1.
        -14    1    4    4    0    0 -0.25252301367E+01 -0.11248631601E+01  0.44367979989E+01  0.52275501772E+01  0.00000000000E+00 0.  1.
<mgrwt>
<rscale>  0 0.81075872E+02</rscale>
<asrwt>0</asrwt>
<pdfrwt beam="1">  1        1 0.31897499E-02 0.81075872E+02</pdfrwt>
<pdfrwt beam="2">  1       -2 0.12193824E-01 0.81075872E+02</pdfrwt>
<totfact> 0.10823615E+05</totfact>
</mgrwt>
</event>
<event>
 8    1  0.7756875E-018  0.8251408E+02  0.7818608E-02  0.1322065E+00
          1   -1    0    0  501    0  0.00000000000E+00  0.00000000000E+00  0.57875813299E+03  0.57875813301E+03  0.50400000000E-02 0. -1.
         -2   -1    0    0    0  501 -0.00000000000E+00 -0.00000000000E+00 -0.29410263386E+01  0.29410274441E+01  0.25500000000E-02 0.  1.
        -24    2    1    2    0    0  0.00000000000E+00 -0.88817841970E-15  0.57581710665E+03  0.58169916045E+03  0.82514077362E+02 0.  0.
         66    2    3    3    0    0  0.39994819089E+02  0.41204372322E+01  0.35252497472E+03  0.35481603878E+03  0.20000034998E+01 0.  0.
         13    1    3    3    0    0 -0.39994819089E+02 -0.41204372322E+01  0.22329213192E+03  0.22688312167E+03  0.10566000000E+00 0. -1.
         13    1    4    4    0    0  0.17231982105E+01  0.46551996976E+00  0.14035213735E+02  0.14148657517E+02  0.10566000000E+00 0. -1.
        -13    1    4    4    0    0  0.36759628730E+02  0.36656307094E+01  0.32597640310E+03  0.32806300263E+03  0.10566000000E+00 0.  1.
         14    1    4    4    0    0  0.15119921488E+01 -0.10713446987E-01  0.12513357888E+02  0.12604378630E+02  0.00000000000E+00 0. -1.
<mgrwt>
<rscale>  0 0.82514077E+02</rscale>
<asrwt>0</asrwt>
<pdfrwt beam="1">  1        1 0.89039681E-01 0.82514077E+02</pdfrwt>
<pdfrwt beam="2">  1       -2 0.45246584E-03 0.82514077E+02</pdfrwt>
<totfact> 0.18338544E+05</totfact>
</mgrwt>
</event>
<event>
 8    1  0.7756875E-018  0.7934590E+02  0.7818608E-02  0.1330918E+00
         -2   -1    0    0    0  501 -0.00000000000E+00  0.00000000000E+00  0.12160170142E+02  0.12160170409E+02  0.25500000000E-02 0.  1.
          1   -1    0    0  501    0  0.00000000000E+00 -0.00000000000E+00 -0.12943428238E+03  0.12943428248E+03  0.50400000000E-02 0. -1.
        -24    2    1    2    0    0  0.71054273576E-14  0.44408920985E-15 -0.11727411224E+03  0.14159445289E+03  0.79345898995E+02 0.  0.
         66    2    3    3    0    0 -0.38755625724E+02 -0.34138467594E+01 -0.72298079686E+02  0.82125910421E+02  0.19999903056E+01 0.  0.
         13    1    3    3    0    0  0.38755625724E+02  0.34138467594E+01 -0.44976032556E+02  0.59468542470E+02  0.10566000000E+00 0. -1.
         13    1    4    4    0    0 -0.55834063885E+01 -0.43721214962E+00 -0.95709359187E+01  0.11089614951E+02  0.10566000000E+00 0. -1.
        -13    1    4    4    0    0 -0.16303542244E+02 -0.85567151036E+00 -0.29826418305E+02  0.34002412508E+02  0.10566000000E+00 0.  1.
         14    1    4    4    0    0 -0.16868677091E+02 -0.21209630994E+01 -0.32900725463E+02  0.37033882962E+02  0.00000000000E+00 0. -1.
<mgrwt>
<rscale>  0 0.79345899E+02</rscale>
<asrwt>0</asrwt>
<pdfrwt beam="1">  1        1 0.19912966E-01 0.79345899E+02</pdfrwt>
<pdfrwt beam="2">  1       -2 0.18707955E-02 0.79345899E+02</pdfrwt>
<totfact> 0.15713125E+05</totfact>
</mgrwt>
</event>
<event>
 8    1  0.7756875E-018  0.8249259E+02  0.7818608E-02  0.1322123E+00
         -2   -1    0    0    0  501 -0.00000000000E+00  0.00000000000E+00  0.90552486769E+02  0.90552486805E+02  0.25500000000E-02 0.  1.
          1   -1    0    0  501    0  0.00000000000E+00 -0.00000000000E+00 -0.18787522678E+02  0.18787523354E+02  0.50400000000E-02 0. -1.
        -24    2    1    2    0    0  0.00000000000E+00  0.17763568394E-14  0.71764964091E+02  0.10934001016E+03  0.82492592096E+02 0.  0.
         66    2    3    3    0    0 -0.30731276283E+02 -0.11596187850E+02  0.68916835774E+02  0.76370237434E+02  0.19999994964E+01 0.  0.
         13    1    3    3    0    0  0.30731276283E+02  0.11596187850E+02  0.28481283176E+01  0.32969772726E+02  0.10566000000E+00 0. -1.
         13    1    4    4    0    0 -0.48271171960E+01 -0.17827452178E+01  0.11463856530E+02  0.12566240946E+02  0.10566000000E+00 0. -1.
        -13    1    4    4    0    0 -0.14030050791E+02 -0.59871658465E+01  0.32832934257E+02  0.36203607776E+02  0.10566000000E+00 0.  1.
         14    1    4    4    0    0 -0.11874108297E+02 -0.38262767855E+01  0.24620044986E+02  0.27600388711E+02  0.00000000000E+00 0. -1.
<mgrwt>
<rscale>  0 0.82492592E+02</rscale>
<asrwt>0</asrwt>
<pdfrwt beam="1">  1        1 0.28903882E-02 0.82492592E+02</pdfrwt>
<pdfrwt beam="2">  1       -2 0.13931151E-01 0.82492592E+02</pdfrwt>
<totfact> 0.10049489E+05</totfact>
</mgrwt>
</event>
<event>
 8    1  0.7756875E-018  0.7871559E+02  0.7818608E-02  0.1332736E+00
         -2   -1    0    0    0  501 -0.00000000000E+00  0.00000000000E+00  0.17108315508E+03  0.17108315510E+03  0.25500000000E-02 0.  1.
          1   -1    0    0  501    0  0.00000000000E+00 -0.00000000000E+00 -0.90542876232E+01  0.90542890260E+01  0.50400000000E-02 0. -1.
        -24    2    1    2    0    0 -0.35527136788E-14  0.00000000000E+00  0.16202886746E+03  0.18013744413E+03  0.78715594939E+02 0.  0.
         66    2    3    3    0    0  0.17338788650E+02  0.25573432389E+02  0.13676588624E+03  0.14022675107E+03  0.20000103211E+01 0.  0.
         13    1    3    3    0    0 -0.17338788650E+02 -0.25573432389E+02  0.25262981220E+02  0.39910693056E+02  0.10566000000E+00 0. -1.
         13    1    4    4    0    0  0.10214231764E+02  0.13884223799E+02  0.73696049095E+02  0.75685011841E+02  0.10566000000E+00 0.  1.
        -13    1    4    4    0    0  0.22994393318E+01  0.32537930693E+01  0.17904987922E+02  0.18343237094E+02  0.10566000000E+00 0. -1.
         14    1    4    4    0    0  0.48251175542E+01  0.84354155208E+01  0.45164849220E+02  0.46198502135E+02  0.00000000000E+00 0. -1.
<mgrwt>
<rscale>  0 0.78715595E+02</rscale>
<asrwt>0</asrwt>
<pdfrwt beam="1">  1        1 0.13929674E-02 0.78715595E+02</pdfrwt>
<pdfrwt beam="2">  1       -2 0.26320487E-01 0.78715595E+02</pdfrwt>
<totfact> 0.94168370E+04</totfact>
</mgrwt>
</event>
<event>
 8    1  0.7756875E-018  0.8028084E+02  0.7818608E-02  0.1328256E+00
         -2   -1    0    0    0  501 -0.00000000000E+00  0.00000000000E+00  0.11265181616E+02  0.11265181905E+02  0.25500000000E-02 0.  1.
          1   -1    0    0  501    0  0.00000000000E+00 -0.00000000000E+00 -0.14302951525E+03  0.14302951534E+03  0.50400000000E-02 0. -1.
        -24    2    1    2    0    0 -0.35527136788E-14  0.35527136788E-14 -0.13176433364E+03  0.15429469725E+03  0.80280844414E+02 0.  0.
         66    2    3    3    0    0  0.29867483635E+02 -0.26656670984E+02 -0.70861921503E+02  0.81412877467E+02  0.20000029547E+01 0.  0.
         13    1    3    3    0    0 -0.29867483635E+02  0.26656670984E+02 -0.60902412136E+02  0.72881819781E+02  0.10566000000E+00 0. -1.
         13    1    4    4    0    0  0.38385477801E+01 -0.26487569627E+01 -0.80053872229E+01  0.92654061503E+01  0.10566000000E+00 0. -1.
        -13    1    4    4    0    0  0.16966507950E+02 -0.15249610495E+02 -0.40669894989E+02  0.46631154122E+02  0.10566000000E+00 0.  1.
        -14    1    4    4    0    0  0.90624279054E+01 -0.87583035257E+01 -0.22186639290E+02  0.25516317195E+02  0.00000000000E+00 0.  1.
<mgrwt>
<rscale>  0 0.80280844E+02</rscale>
<asrwt>0</asrwt>
<pdfrwt beam="1">  1        1 0.22004540E-01 0.80280844E+02</pdfrwt>
<pdfrwt beam="2">  1       -2 0.17331050E-02 0.80280844E+02</pdfrwt>
<totfact> 0.15505021E+05</totfact>
</mgrwt>
</event>
<event>
 8    1  0.7756875E-018  0.7950405E+02  0.7818608E-02  0.1330465E+00
         -2   -1    0    0    0  501 -0.00000000000E+00  0.00000000000E+00  0.13900410587E+03  0.13900410589E+03  0.25500000000E-02 0.  1.
          1   -1    0    0  501    0  0.00000000000E+00 -0.00000000000E+00 -0.11368177294E+02  0.11368178411E+02  0.50400000000E-02 0. -1.
        -24    2    1    2    0    0 -0.35527136788E-14  0.44408920985E-15  0.12763592857E+03  0.15037228430E+03  0.79504047842E+02 0.  0.
         66    2    3    3    0    0  0.28660557220E+02 -0.28368517410E+01  0.11561236520E+03  0.11916247001E+03  0.20000007098E+01 0.  0.
         13    1    3    3    0    0 -0.28660557220E+02  0.28368517410E+01  0.12023563369E+02  0.31209814291E+02  0.10566000000E+00 0. -1.
         13    1    4    4    0    0  0.10282182523E+01  0.15794670249E+00  0.41343347175E+01  0.42645125779E+01  0.10566000000E+00 0. -1.
        -13    1    4    4    0    0  0.13938435434E+02 -0.11808659568E+01  0.53807263762E+02  0.55595928127E+02  0.10566000000E+00 0.  1.
         14    1    4    4    0    0  0.13693903534E+02 -0.18139324867E+01  0.57670766723E+02  0.59302029303E+02  0.00000000000E+00 0. -1.
<mgrwt>
<rscale>  0 0.79504048E+02</rscale>
<asrwt>0</asrwt>
<pdfrwt beam="1">  1        1 0.17489503E-02 0.79504048E+02</pdfrwt>
<pdfrwt beam="2">  1       -2 0.21385249E-01 0.79504048E+02</pdfrwt>
<totfact> 0.98401113E+04</totfact>
</mgrwt>
</event>
<event>
 8    1  0.7756875E-018  0.8283957E+02  0.7818608E-02  0.1321181E+00
         -2   -1    0    0    0  501 -0.00000000000E+00  0.00000000000E+00  0.10867289442E+03  0.10867289445E+03  0.25500000000E-02 0.  1.
          1   -1    0    0  501    0  0.00000000000E+00 -0.00000000000E+00 -0.15786810654E+02  0.15786811458E+02  0.50400000000E-02 0. -1.
        -24    2    1    2    0    0  0.00000000000E+00  0.00000000000E+00  0.92886083768E+02  0.12445970591E+03  0.82839566859E+02 0.  0.
         66    2    3    3    0    0 -0.14976416734E+02 -0.22733988144E+02  0.93322045263E+02  0.97232357497E+02  0.19999843311E+01 0.  0.
         13    1    3    3    0    0  0.14976416734E+02  0.22733988144E+02 -0.43596149497E+00  0.27227348413E+02  0.10566000000E+00 0. -1.
         13    1    4    4    0    0 -0.11903796839E+01 -0.26413320803E+01  0.10821025515E+02  0.11202651301E+02  0.10566000000E+00 0. -1.
        -13    1    4    4    0    0 -0.77693280043E+01 -0.11894673321E+02  0.46881974205E+02  0.48987512495E+02  0.10566000000E+00 0.  1.
        -14    1    4    4    0    0 -0.60167090456E+01 -0.81979827431E+01  0.35619045542E+02  0.37042193701E+02  0.00000000000E+00 0.  1.
<mgrwt>
<rscale>  0 0.82839567E+02</rscale>
<asrwt>0</asrwt>
<pdfrwt beam="1">  1        1 0.24287402E-02 0.82839567E+02</pdfrwt>
<pdfrwt beam="2">  1       -2 0.16718907E-01 0.82839567E+02</pdfrwt>
<totfact> 0.95008267E+04</totfact>
</mgrwt>
</event>
<event>
 8    1  0.7756875E-018  0.7825947E+02  0.7818608E-02  0.1334065E+00
          1   -1    0    0  501    0  0.00000000000E+00  0.00000000000E+00  0.42142564766E+02  0.42142565067E+02  0.50400000000E-02 0. -1.
         -2   -1    0    0    0  501 -0.00000000000E+00 -0.00000000000E+00 -0.36332291681E+02  0.36332291771E+02  0.25500000000E-02 0.  1.
        -24    2    1    2    0    0  0.00000000000E+00  0.00000000000E+00  0.58102730846E+01  0.78474856838E+02  0.78259465130E+02 0.  0.
         66    2    3    3    0    0 -0.16289454941E+02 -0.26292670062E+02 -0.21085382338E+02  0.37486586736E+02  0.19999988801E+01 0.  0.
         13    1    3    3    0    0  0.16289454941E+02  0.26292670062E+02  0.26895655423E+02  0.40988270102E+02  0.10566000000E+00 0. -1.
         13    1    4    4    0    0 -0.41256929107E+01 -0.58764294501E+01 -0.42792583104E+01  0.83592452290E+01  0.10566000000E+00 0. -1.
        -13    1    4    4    0    0 -0.97512450799E+01 -0.15601457412E+02 -0.12724899685E+02  0.22370214349E+02  0.10566000000E+00 0.  1.
         14    1    4    4    0    0 -0.24125169506E+01 -0.48147831997E+01 -0.40812243431E+01  0.67571271584E+01  0.00000000000E+00 0. -1.
<mgrwt>
<rscale>  0 0.78259465E+02</rscale>
<asrwt>0</asrwt>
<pdfrwt beam="1">  1        1 0.64834716E-02 0.78259465E+02</pdfrwt>
<pdfrwt beam="2">  1       -2 0.55895833E-02 0.78259465E+02</pdfrwt>
<totfact> 0.13619207E+05</totfact>
</mgrwt>
</event>
<event>
 8    1  0.7756875E-018  0.7956339E+02  0.7818608E-02  0.1330295E+00
          1   -1    0    0  501    0  0.00000000000E+00  0.00000000000E+00  0.10568010885E+02  0.10568012087E+02  0.50400000000E-02 0. -1.
         -2   -1    0    0    0  501 -0.00000000000E+00 -0.00000000000E+00 -0.14975224400E+03  0.14975224402E+03  0.25500000000E-02 0.  1.
        -24    2    1    2    0    0  0.35527136788E-14 -0.14210854715E-13 -0.13918423311E+03  0.16032025611E+03  0.79563394666E+02 0.  0.
         66    2    3    3    0    0 -0.16034698353E+02  0.35649541517E+02 -0.84246751234E+02  0.92895190731E+02  0.20000014598E+01 0.  0.
         13    1    3    3    0    0  0.16034698353E+02 -0.35649541517E+02 -0.54937481879E+02  0.67425065376E+02  0.10566000000E+00 0. -1.
         13    1    4    4    0    0 -0.91728608978E+00  0.29485328063E+01 -0.64356220097E+01  0.71388832577E+01  0.10566000000E+00 0. -1.
        -13    1    4    4    0    0 -0.97086149670E+01  0.21952614098E+02 -0.50728968319E+02  0.56121420697E+02  0.10566000000E+00 0.  1.
         14    1    4    4    0    0 -0.54087972964E+01  0.10748394613E+02 -0.27082160905E+02  0.29634886776E+02  0.00000000000E+00 0. -1.
<mgrwt>
<rscale>  0 0.79563395E+02</rscale>
<asrwt>0</asrwt>
<pdfrwt beam="1">  1        1 0.16258480E-02 0.79563395E+02</pdfrwt>
<pdfrwt beam="2">  1       -2 0.23038805E-01 0.79563395E+02</pdfrwt>
<totfact> 0.95902595E+04</totfact>
</mgrwt>
</event>
<event>
 8    1  0.7756875E-018  0.8349655E+02  0.7818608E-02  0.1319412E+00
         -2   -1    0    0    0  501 -0.00000000000E+00  0.00000000000E+00  0.53769202783E+01  0.53769208829E+01  0.25500000000E-02 0.  1.
          1   -1    0    0  501    0  0.00000000000E+00 -0.00000000000E+00 -0.32414805452E+03  0.32414805456E+03  0.50400000000E-02 0. -1.
        -24    2    1    2    0    0  0.00000000000E+00  0.44408920985E-15 -0.31877113424E+03  0.32952497544E+03  0.83496547320E+02 0.  0.
         66    2    3    3    0    0  0.40418880571E+02  0.34104962843E+01 -0.19806363039E+03  0.20218436903E+03  0.20000011847E+01 0.  0.
         13    1    3    3    0    0 -0.40418880571E+02 -0.34104962843E+01 -0.12070750384E+03  0.12734060641E+03  0.10566000000E+00 0. -1.
         13    1    4    4    0    0  0.53412676345E+01  0.90863570672E+00 -0.27675320355E+02  0.28200873738E+02  0.10566000000E+00 0. -1.
        -13    1    4    4    0    0  0.24422060749E+02  0.12626914727E+01 -0.11720597167E+03  0.11973003967E+03  0.10566000000E+00 0.  1.
        -14    1    4    4    0    0  0.10655552187E+02  0.12391691049E+01 -0.53182338373E+02  0.54253455625E+02  0.00000000000E+00 0.  1.
<mgrwt>
<rscale>  0 0.83496547E+02</rscale>
<asrwt>0</asrwt>
<pdfrwt beam="1">  1        1 0.49868916E-01 0.83496547E+02</pdfrwt>
<pdfrwt beam="2">  1       -2 0.82721881E-03 0.83496547E+02</pdfrwt>
<totfact> 0.16351556E+05</totfact>
</mgrwt>
</event>
<event>
 8    1  0.7756875E-018  0.8089261E+02  0.7818608E-02  0.1326537E+00
         -2   -1    0    0    0  501 -0.00000000000E+00  0.00000000000E+00  0.30678146514E+02  0.30678146620E+02  0.25500000000E-02 0.  1.
          1   -1    0    0  501    0  0.00000000000E+00 -0.00000000000E+00 -0.53324726561E+02  0.53324726799E+02  0.50400000000E-02 0. -1.
        -24    2    1    2    0    0 -0.71054273576E-14  0.00000000000E+00 -0.22646580048E+02  0.84002873419E+02  0.80892614958E+02 0.  0.
         66    2    3    3    0    0 -0.37056306575E+02 -0.95614012174E+01  0.21819660507E+01  0.38384257530E+02  0.20000000051E+01 0.  0.
         13    1    3    3    0    0  0.37056306575E+02  0.95614012174E+01 -0.24828546098E+02  0.45618615889E+02  0.10566000000E+00 0. -1.
         13    1    4    4    0    0 -0.61919170380E+01 -0.21719580404E+01  0.49009362240E+00  0.65809265403E+01  0.10566000000E+00 0. -1.
        -13    1    4    4    0    0 -0.24323540652E+02 -0.61143197169E+01  0.95397327135E+00  0.25098620769E+02  0.10566000000E+00 0.  1.
        -14    1    4    4    0    0 -0.65408488855E+01 -0.12751234601E+01  0.73789915695E+00  0.67047102210E+01  0.00000000000E+00 0.  1.
<mgrwt>
<rscale>  0 0.80892615E+02</rscale>
<asrwt>0</asrwt>
<pdfrwt beam="1">  1        1 0.82038041E-02 0.80892615E+02</pdfrwt>
<pdfrwt beam="2">  1       -2 0.47197149E-02 0.80892615E+02</pdfrwt>
<totfact> 0.12887728E+05</totfact>
</mgrwt>
</event>
<event>
 8    1  0.7756875E-018  0.7769211E+02  0.7818608E-02  0.1335731E+00
         -2   -1    0    0    0  501 -0.00000000000E+00  0.00000000000E+00  0.34717008514E+03  0.34717008515E+03  0.25500000000E-02 0.  1.
          1   -1    0    0  501    0  0.00000000000E+00 -0.00000000000E+00 -0.43466176590E+01  0.43466205810E+01  0.50400000000E-02 0. -1.
        -24    2    1    2    0    0 -0.17763568394E-14  0.35527136788E-14  0.34282346748E+03  0.35151670573E+03  0.77692113833E+02 0.  0.
         66    2    3    3    0    0 -0.12885409582E+02  0.17706569282E+02  0.31655252246E+03  0.31731538862E+03  0.20000009371E+01 0.  0.
         13    1    3    3    0    0  0.12885409582E+02 -0.17706569282E+02  0.26270945026E+02  0.34201317115E+02  0.10566000000E+00 0. -1.
         13    1    4    4    0    0 -0.40244568791E+01  0.48949651052E+01  0.10109877267E+03  0.10129723558E+03  0.10566000000E+00 0. -1.
        -13    1    4    4    0    0 -0.69873467048E+01  0.10524544448E+02  0.17069379386E+03  0.17116065984E+03  0.10566000000E+00 0.  1.
        -14    1    4    4    0    0 -0.18736059977E+01  0.22870597285E+01  0.44759955930E+02  0.44857493204E+02  0.00000000000E+00 0.  1.
<mgrwt>
<rscale>  0 0.77692114E+02</rscale>
<asrwt>0</asrwt>
<pdfrwt beam="1">  1        1 0.66871080E-03 0.77692114E+02</pdfrwt>
<pdfrwt beam="2">  1       -2 0.53410770E-01 0.77692114E+02</pdfrwt>
<totfact> 0.69703743E+04</totfact>
</mgrwt>
</event>
<event>
 8    1  0.7756875E-018  0.7994272E+02  0.7818608E-02  0.1329214E+00
         -2   -1    0    0    0  501 -0.00000000000E+00  0.00000000000E+00  0.48153686310E+01  0.48153693062E+01  0.25500000000E-02 0.  1.
          1   -1    0    0  501    0  0.00000000000E+00 -0.00000000000E+00 -0.33179377456E+03  0.33179377460E+03  0.50400000000E-02 0. -1.
        -24    2    1    2    0    0  0.00000000000E+00  0.00000000000E+00 -0.32697840593E+03  0.33660914390E+03  0.79942715842E+02 0.  0.
         66    2    3    3    0    0  0.35915937855E+01 -0.37869246400E+02 -0.11224139082E+03  0.11852893804E+03  0.19999925878E+01 0.  0.
         13    1    3    3    0    0 -0.35915937855E+01  0.37869246400E+02 -0.21473701511E+03  0.21808020586E+03  0.10566000000E+00 0. -1.
         13    1    4    4    0    0  0.85655573848E-01 -0.73541208216E+01 -0.21087962304E+02  0.22333914751E+02  0.10566000000E+00 0.  1.
        -13    1    4    4    0    0  0.32404483600E+01 -0.24997233509E+02 -0.75224419687E+02  0.79335280109E+02  0.10566000000E+00 0. -1.
         14    1    4    4    0    0  0.26548985167E+00 -0.55178920703E+01 -0.15929008831E+02  0.16859743180E+02  0.00000000000E+00 0. -1.
<mgrwt>
<rscale>  0 0.79942716E+02</rscale>
<asrwt>0</asrwt>
<pdfrwt beam="1">  1        1 0.51045178E-01 0.79942716E+02</pdfrwt>
<pdfrwt beam="2">  1       -2 0.74082626E-03 0.79942716E+02</pdfrwt>
<totfact> 0.18419514E+05</totfact>
</mgrwt>
</event>
<event>
 8    1  0.7756875E-018  0.8611546E+02  0.7818608E-02  0.1312541E+00
         -2   -1    0    0    0  501 -0.00000000000E+00  0.00000000000E+00  0.10275257785E+02  0.10275258101E+02  0.25500000000E-02 0.  1.
          1   -1    0    0  501    0  0.00000000000E+00 -0.00000000000E+00 -0.18043033709E+03  0.18043033716E+03  0.50400000000E-02 0. -1.
        -24    2    1    2    0    0  0.35527136788E-14  0.71054273576E-14 -0.17015507930E+03  0.19070559526E+03  0.86115463482E+02 0.  0.
         66    2    3    3    0    0  0.19563907134E+02  0.38314309796E+02 -0.82666843130E+02  0.93212336877E+02  0.19999988503E+01 0.  0.
         13    1    3    3    0    0 -0.19563907134E+02 -0.38314309796E+02 -0.87488236173E+02  0.97493258383E+02  0.10566000000E+00 0. -1.
         13    1    4    4    0    0  0.16561560827E+01  0.29010743799E+01 -0.58468290386E+01  0.67346610434E+01  0.10566000000E+00 0. -1.
        -13    1    4    4    0    0  0.12713938270E+01  0.32436215974E+01 -0.73138498800E+01  0.81019187501E+01  0.10566000000E+00 0.  1.
        -14    1    4    4    0    0  0.16636357225E+02  0.32169613818E+02 -0.69506164212E+02  0.78375757083E+02  0.00000000000E+00 0.  1.
<mgrwt>
<rscale>  0 0.86115463E+02</rscale>
<asrwt>0</asrwt>
<pdfrwt beam="1">  1        1 0.27758511E-01 0.86115463E+02</pdfrwt>
<pdfrwt beam="2">  1       -2 0.15808090E-02 0.86115463E+02</pdfrwt>
<totfact> 0.13425335E+05</totfact>
</mgrwt>
</event>
<event>
 8    1  0.7756875E-018  0.7765505E+02  0.7818608E-02  0.1335841E+00
         -2   -1    0    0    0  501 -0.00000000000E+00  0.00000000000E+00  0.15803371003E+03  0.15803371005E+03  0.25500000000E-02 0.  1.
          1   -1    0    0  501    0  0.00000000000E+00 -0.00000000000E+00 -0.95395885458E+01  0.95395898771E+01  0.50400000000E-02 0. -1.
        -24    2    1    2    0    0  0.00000000000E+00  0.00000000000E+00  0.14849412148E+03  0.16757329993E+03  0.77655049631E+02 0.  0.
         66    2    3    3    0    0 -0.42100004981E+01 -0.36704733213E+02  0.99884597760E+02  0.10651710855E+03  0.20000001067E+01 0.  0.
         13    1    3    3    0    0  0.42100004981E+01  0.36704733213E+02  0.48609523724E+02  0.61056191374E+02  0.10566000000E+00 0. -1.
         13    1    4    4    0    0 -0.79838546621E+00 -0.81350946263E+01  0.20720223880E+02  0.22274560054E+02  0.10566000000E+00 0.  1.
        -13    1    4    4    0    0 -0.26160549275E+00 -0.66115039491E+01  0.17477880323E+02  0.18688710135E+02  0.10566000000E+00 0. -1.
        -14    1    4    4    0    0 -0.31500095392E+01 -0.21958134637E+02  0.61686493557E+02  0.65553838364E+02  0.00000000000E+00 0.  1.
<mgrwt>
<rscale>  0 0.77655050E+02</rscale>
<asrwt>0</asrwt>
<pdfrwt beam="1">  1        1 0.14676292E-02 0.77655050E+02</pdfrwt>
<pdfrwt beam="2">  1       -2 0.24312877E-01 0.77655050E+02</pdfrwt>
<totfact> 0.10026164E+05</totfact>
</mgrwt>
</event>
<event>
 8    1  0.7756875E-018  0.7958751E+02  0.7818608E-02  0.1330226E+00
         -2   -1    0    0    0  501 -0.00000000000E+00  0.00000000000E+00  0.81246594244E+02  0.81246594284E+02  0.25500000000E-02 0.  1.
          1   -1    0    0  501    0  0.00000000000E+00 -0.00000000000E+00 -0.19490573421E+02  0.19490574072E+02  0.50400000000E-02 0. -1.
        -24    2    1    2    0    0  0.00000000000E+00  0.00000000000E+00  0.61756020823E+02  0.10073716836E+03  0.79587505178E+02 0.  0.
         66    2    3    3    0    0  0.83099696425E+01 -0.20123398384E+02  0.73020795328E+02  0.76223640119E+02  0.20000011911E+01 0.  0.
         13    1    3    3    0    0 -0.83099696425E+01  0.20123398384E+02 -0.11264774504E+02  0.24513528237E+02  0.10566000000E+00 0. -1.
         13    1    4    4    0    0  0.57858886130E+01 -0.13317172709E+02  0.50377763416E+02  0.52428559076E+02  0.10566000000E+00 0. -1.
        -13    1    4    4    0    0  0.24902135867E+01 -0.66487595933E+01  0.21535344183E+02  0.22675744331E+02  0.10566000000E+00 0.  1.
         14    1    4    4    0    0  0.33867442677E-01 -0.15746608158E+00  0.11076877291E+01  0.11193367124E+01  0.00000000000E+00 0. -1.
<mgrwt>
<rscale>  0 0.79587505E+02</rscale>
<asrwt>0</asrwt>
<pdfrwt beam="1">  1        1 0.29985498E-02 0.79587505E+02</pdfrwt>
<pdfrwt beam="2">  1       -2 0.12499476E-01 0.79587505E+02</pdfrwt>
<totfact> 0.11286328E+05</totfact>
</mgrwt>
</event>
<event>
 8    1  0.7756875E-018  0.8155581E+02  0.7818608E-02  0.1324693E+00
          1   -1    0    0  501    0  0.00000000000E+00  0.00000000000E+00  0.43168739200E+02  0.43168739494E+02  0.50400000000E-02 0. -1.
         -2   -1    0    0    0  501 -0.00000000000E+00 -0.00000000000E+00 -0.38519481970E+02  0.38519482055E+02  0.25500000000E-02 0.  1.
        -24    2    1    2    0    0  0.00000000000E+00  0.00000000000E+00  0.46492572301E+01  0.81688221549E+02  0.81555808788E+02 0.  0.
         66    2    3    3    0    0 -0.39410777720E+02  0.98636214692E+01  0.55455956639E+01  0.41051846026E+02  0.20000004698E+01 0.  0.
         13    1    3    3    0    0  0.39410777720E+02 -0.98636214692E+01 -0.89633843380E+00  0.40636375523E+02  0.10566000000E+00 0. -1.
         13    1    4    4    0    0 -0.20440439344E+02  0.49059501849E+01  0.37645190597E+01  0.21355623980E+02  0.10566000000E+00 0.  1.
        -13    1    4    4    0    0 -0.11412448010E+02  0.32554633020E+01  0.11168258775E+01  0.11920590378E+02  0.10566000000E+00 0. -1.
        -14    1    4    4    0    0 -0.75578903662E+01  0.17022079822E+01  0.66425072660E+00  0.77756316676E+01  0.00000000000E+00 0.  1.
<mgrwt>
<rscale>  0 0.81555809E+02</rscale>
<asrwt>0</asrwt>
<pdfrwt beam="1">  1        1 0.66413445E-02 0.81555809E+02</pdfrwt>
<pdfrwt beam="2">  1       -2 0.59260742E-02 0.81555809E+02</pdfrwt>
<totfact> 0.12177384E+05</totfact>
</mgrwt>
</event>
<event>
 8    1  0.7756875E-018  0.8289179E+02  0.7818608E-02  0.1321040E+00
          1   -1    0    0  501    0  0.00000000000E+00  0.00000000000E+00  0.10724387015E+03  0.10724387027E+03  0.50400000000E-02 0. -1.
         -2   -1    0    0    0  501 -0.00000000000E+00 -0.00000000000E+00 -0.16017344829E+02  0.16017345032E+02  0.25500000000E-02 0.  1.
        -24    2    1    2    0    0  0.35527136788E-14 -0.13877787808E-15  0.91226525318E+02  0.12326121530E+03  0.82891786534E+02 0.  0.
         66    2    3    3    0    0 -0.19033945107E+02  0.13567367350E+00 -0.90663464935E+01  0.21178010146E+02  0.20000003236E+01 0.  0.
         13    1    3    3    0    0  0.19033945107E+02 -0.13567367350E+00  0.10029287181E+03  0.10208320515E+03  0.10566000000E+00 0. -1.
         13    1    4    4    0    0 -0.55030004308E+01  0.47139855461E+00 -0.22428338558E+01  0.59621051718E+01  0.10566000000E+00 0. -1.
        -13    1    4    4    0    0 -0.90685815270E+01 -0.71638006881E+00 -0.41425016871E+01  0.99961920538E+01  0.10566000000E+00 0.  1.
         14    1    4    4    0    0 -0.44623631495E+01  0.38065518770E+00 -0.26810109506E+01  0.52197129200E+01  0.00000000000E+00 0. -1.
<mgrwt>
<rscale>  0 0.82891787E+02</rscale>
<asrwt>0</asrwt>
<pdfrwt beam="1">  1        1 0.16499057E-01 0.82891787E+02</pdfrwt>
<pdfrwt beam="2">  1       -2 0.24642069E-02 0.82891787E+02</pdfrwt>
<totfact> 0.13513086E+05</totfact>
</mgrwt>
</event>
<event>
 8    1  0.7756875E-018  0.8067984E+02  0.7818608E-02  0.1327133E+00
         -2   -1    0    0    0  501 -0.00000000000E+00  0.00000000000E+00  0.22443694725E+02  0.22443694870E+02  0.25500000000E-02 0.  1.
          1   -1    0    0  501    0  0.00000000000E+00 -0.00000000000E+00 -0.72506293795E+02  0.72506293971E+02  0.50400000000E-02 0. -1.
        -24    2    1    2    0    0  0.35527136788E-14  0.00000000000E+00 -0.50062599070E+02  0.94949988841E+02  0.80679839831E+02 0.  0.
         66    2    3    3    0    0  0.21493147379E+02 -0.17966510156E+02  0.90736358491E+01  0.29514094135E+02  0.20000034067E+01 0.  0.
         13    1    3    3    0    0 -0.21493147379E+02  0.17966510156E+02 -0.59136234919E+02  0.65435894706E+02  0.10566000000E+00 0. -1.
         13    1    4    4    0    0  0.60470017113E+00 -0.72606783967E+00  0.62313715124E+00  0.11367940665E+01  0.10566000000E+00 0.  1.
        -13    1    4    4    0    0  0.81936215567E+01 -0.66091207056E+01  0.30493822849E+01  0.10960191927E+02  0.10566000000E+00 0. -1.
        -14    1    4    4    0    0  0.12694825651E+02 -0.10631321611E+02  0.54011164129E+01  0.17417108142E+02  0.00000000000E+00 0.  1.
<mgrwt>
<rscale>  0 0.80679840E+02</rscale>
<asrwt>0</asrwt>
<pdfrwt beam="1">  1        1 0.11154814E-01 0.80679840E+02</pdfrwt>
<pdfrwt beam="2">  1       -2 0.34528762E-02 0.80679840E+02</pdfrwt>
<totfact> 0.13629009E+05</totfact>
</mgrwt>
</event>
<event>
 8    1  0.7756875E-018  0.8145702E+02  0.7818608E-02  0.1324967E+00
          1   -1    0    0  501    0  0.00000000000E+00  0.00000000000E+00  0.21117774280E+02  0.21117774881E+02  0.50400000000E-02 0. -1.
         -2   -1    0    0    0  501 -0.00000000000E+00 -0.00000000000E+00 -0.78550489786E+02  0.78550489828E+02  0.25500000000E-02 0.  1.
        -24    2    1    2    0    0 -0.35527136788E-14  0.00000000000E+00 -0.57432715507E+02  0.99668264709E+02  0.81457020444E+02 0.  0.
         66    2    3    3    0    0  0.27735716557E+02 -0.37750677433E+01 -0.64891794753E+02  0.70699831258E+02  0.20000010609E+01 0.  0.
         13    1    3    3    0    0 -0.27735716557E+02  0.37750677433E+01  0.74590792460E+01  0.28968433451E+02  0.10566000000E+00 0. -1.
         13    1    4    4    0    0  0.10691185358E+01 -0.10859842401E+00 -0.27092365635E+01  0.29164935888E+01  0.10566000000E+00 0.  1.
        -13    1    4    4    0    0  0.16469547878E+02 -0.27076870050E+01 -0.40447819458E+02  0.43756311993E+02  0.10566000000E+00 0.  1.
        -14    1    4    4    0    0  0.10197050143E+02 -0.95878231430E+00 -0.21734738731E+02  0.24027025676E+02  0.00000000000E+00 0.  1.
<mgrwt>
<rscale>  0 0.81457020E+02</rscale>
<asrwt>0</asrwt>
<pdfrwt beam="1">  1        1 0.32488885E-02 0.81457020E+02</pdfrwt>
<pdfrwt beam="2">  1       -2 0.12084691E-01 0.81457020E+02</pdfrwt>
<totfact> 0.10715722E+05</totfact>
</mgrwt>
</event>
<event>
 8    1  0.7756875E-018  0.7829622E+02  0.7818608E-02  0.1333957E+00
          1   -1    0    0  501    0  0.00000000000E+00  0.00000000000E+00  0.54427249704E+03  0.54427249707E+03  0.50400000000E-02 0. -1.
         -2   -1    0    0    0  501 -0.00000000000E+00 -0.00000000000E+00 -0.28158212896E+01  0.28158224442E+01  0.25500000000E-02 0.  1.
        -24    2    1    2    0    0 -0.35527136788E-14  0.35527136788E-14  0.54145667575E+03  0.54708831951E+03  0.78296217194E+02 0.  0.
         66    2    3    3    0    0 -0.27247870732E+02  0.16447943846E+02  0.42987217097E+03  0.43105343601E+03  0.20000022579E+01 0.  0.
         13    1    3    3    0    0  0.27247870732E+02 -0.16447943846E+02  0.11158450478E+03  0.11603488350E+03  0.10566000000E+00 0. -1.
         13    1    4    4    0    0 -0.56444656462E+01  0.28779120911E+01  0.91595588080E+02  0.91814515684E+02  0.10566000000E+00 0. -1.
        -13    1    4    4    0    0 -0.65725592133E+01  0.37373431802E+01  0.95654685550E+02  0.95953094272E+02  0.10566000000E+00 0.  1.
        -14    1    4    4    0    0 -0.15030845872E+02  0.98326885751E+01  0.24262189734E+03  0.24328582606E+03  0.00000000000E+00 0.  1.
<mgrwt>
<rscale>  0 0.78296217E+02</rscale>
<asrwt>0</asrwt>
<pdfrwt beam="1">  1        1 0.83734200E-01 0.78296217E+02</pdfrwt>
<pdfrwt beam="2">  1       -2 0.43320352E-03 0.78296217E+02</pdfrwt>
<totfact> 0.20931928E+05</totfact>
</mgrwt>
</event>
<event>
 8    1  0.7756875E-018  0.8515019E+02  0.7818608E-02  0.1315040E+00
          1   -1    0    0  501    0  0.00000000000E+00  0.00000000000E+00  0.12504746764E+03  0.12504746774E+03  0.50400000000E-02 0. -1.
         -2   -1    0    0    0  501 -0.00000000000E+00 -0.00000000000E+00 -0.14495603617E+02  0.14495603841E+02  0.25500000000E-02 0.  1.
        -24    2    1    2    0    0  0.00000000000E+00 -0.13877787808E-16  0.11055186402E+03  0.13954307158E+03  0.85150186070E+02 0.  0.
         66    2    3    3    0    0 -0.25389828420E+02  0.91256464149E-01 -0.65248014349E+00  0.25476998447E+02  0.20000011475E+01 0.  0.
         13    1    3    3    0    0  0.25389828420E+02 -0.91256464149E-01  0.11120434417E+03  0.11406607313E+03  0.10566000000E+00 0. -1.
         13    1    4    4    0    0 -0.13138531410E+01 -0.36892268077E+00 -0.68260482172E-02  0.13687675665E+01  0.10566000000E+00 0. -1.
        -13    1    4    4    0    0 -0.11274170529E+02  0.14553418759E+00 -0.77116436425E+00  0.11301944958E+02  0.10566000000E+00 0.  1.
         14    1    4    4    0    0 -0.12801804750E+02  0.31464495733E+00  0.12551026898E+00  0.12806285923E+02  0.00000000000E+00 0. -1.
<mgrwt>
<rscale>  0 0.85150186E+02</rscale>
<asrwt>0</asrwt>
<pdfrwt beam="1">  1        1 0.19238071E-01 0.85150186E+02</pdfrwt>
<pdfrwt beam="2">  1       -2 0.22300930E-02 0.85150186E+02</pdfrwt>
<totfact> 0.12912419E+05</totfact>
</mgrwt>
</event>
<event>
 8    1  0.7756875E-018  0.7793987E+02  0.7818608E-02  0.1335002E+00
          1   -1    0    0  501    0  0.00000000000E+00  0.00000000000E+00  0.10626963525E+03  0.10626963537E+03  0.50400000000E-02 0. -1.
         -2   -1    0    0    0  501 -0.00000000000E+00 -0.00000000000E+00 -0.14290590887E+02  0.14290591115E+02  0.25500000000E-02 0.  1.
        -24    2    1    2    0    0 -0.35527136788E-14  0.00000000000E+00  0.91979044359E+02  0.12056022648E+03  0.77939871747E+02 0.  0.
         66    2    3    3    0    0 -0.25266777178E+02  0.18016114767E+01  0.26381143163E+00  0.25411127968E+02  0.19999988134E+01 0.  0.
         13    1    3    3    0    0  0.25266777178E+02 -0.18016114767E+01  0.91715232927E+02  0.95149098513E+02  0.10566000000E+00 0. -1.
         13    1    4    4    0    0 -0.73542368138E+00  0.12221672927E+00 -0.11324701225E+00  0.76142881573E+00  0.10566000000E+00 0. -1.
        -13    1    4    4    0    0 -0.17943338348E+02  0.19760047927E+01  0.27068683416E+00  0.18054152470E+02  0.10566000000E+00 0.  1.
        -14    1    4    4    0    0 -0.65880151490E+01 -0.29661004530E+00  0.10637160972E+00  0.65955466826E+01  0.00000000000E+00 0.  1.
<mgrwt>
<rscale>  0 0.77939872E+02</rscale>
<asrwt>0</asrwt>
<pdfrwt beam="1">  1        1 0.16349174E-01 0.77939872E+02</pdfrwt>
<pdfrwt beam="2">  1       -2 0.21985525E-02 0.77939872E+02</pdfrwt>
<totfact> 0.15932170E+05</totfact>
</mgrwt>
</event>
<event>
 8    1  0.7756875E-018  0.8151987E+02  0.7818608E-02  0.1324793E+00
         -2   -1    0    0    0  501 -0.00000000000E+00  0.00000000000E+00  0.47701795945E+01  0.47701802761E+01  0.25500000000E-02 0.  1.
          1   -1    0    0  501    0  0.00000000000E+00 -0.00000000000E+00 -0.34828289923E+03  0.34828289926E+03  0.50400000000E-02 0. -1.
        -24    2    1    2    0    0  0.00000000000E+00  0.71054273576E-14 -0.34351271963E+03  0.35305307954E+03  0.81519865205E+02 0.  0.
         66    2    3    3    0    0  0.80115000818E+01  0.39043479040E+02 -0.20829805402E+03  0.21208643686E+03  0.20000000346E+01 0.  0.
         13    1    3    3    0    0 -0.80115000818E+01 -0.39043479040E+02 -0.13521466561E+03  0.14096664269E+03  0.10566000000E+00 0. -1.
         13    1    4    4    0    0  0.13256559049E+00  0.45508524633E+00 -0.27392518817E+01  0.27819671321E+01  0.10566000000E+00 0. -1.
        -13    1    4    4    0    0  0.42075567342E+01  0.22110764229E+02 -0.12151538094E+03  0.12358231426E+03  0.10566000000E+00 0.  1.
         14    1    4    4    0    0  0.36713777571E+01  0.16477629565E+02 -0.84043421196E+02  0.85722155462E+02  0.00000000000E+00 0. -1.
<mgrwt>
<rscale>  0 0.81519865E+02</rscale>
<asrwt>0</asrwt>
<pdfrwt beam="1">  1        1 0.53581965E-01 0.81519865E+02</pdfrwt>
<pdfrwt beam="2">  1       -2 0.73387411E-03 0.81519865E+02</pdfrwt>
<totfact> 0.17650219E+05</totfact>
</mgrwt>
</event>
<event>
 8    1  0.7756875E-018  0.7975092E+02  0.7818608E-02  0.1329760E+00
          1   -1    0    0  501    0  0.00000000000E+00  0.00000000000E+00  0.11796843660E+03  0.11796843671E+03  0.50400000000E-02 0. -1.
         -2   -1    0    0    0  501 -0.00000000000E+00 -0.00000000000E+00 -0.13478623809E+02  0.13478624050E+02  0.25500000000E-02 0.  1.
        -24    2    1    2    0    0  0.35527136788E-14  0.00000000000E+00  0.10448981279E+03  0.13144706076E+03  0.79750917266E+02 0.  0.
         66    2    3    3    0    0 -0.30994215453E+02  0.68007167646E+01  0.12543735600E+02  0.34179474097E+02  0.20000016617E+01 0.  0.
         13    1    3    3    0    0  0.30994215453E+02 -0.68007167646E+01  0.91946077189E+02  0.97267586660E+02  0.10566000000E+00 0. -1.
         13    1    4    4    0    0 -0.76207750742E+00  0.33491420129E+00  0.50065499240E+00  0.97711263759E+00  0.10566000000E+00 0. -1.
        -13    1    4    4    0    0 -0.25988004753E+02  0.57555938345E+01  0.99462492028E+01  0.28415529006E+02  0.10566000000E+00 0.  1.
        -14    1    4    4    0    0 -0.42441331927E+01  0.71020872880E+00  0.20968314050E+01  0.47868324534E+01  0.00000000000E+00 0.  1.
<mgrwt>
<rscale>  0 0.79750917E+02</rscale>
<asrwt>0</asrwt>
<pdfrwt beam="1">  1        1 0.18148990E-01 0.79750917E+02</pdfrwt>
<pdfrwt beam="2">  1       -2 0.20736345E-02 0.79750917E+02</pdfrwt>
<totfact> 0.15248496E+05</totfact>
</mgrwt>
</event>
<event>
 8    1  0.7756875E-018  0.8917463E+02  0.7818608E-02  0.1304863E+00
          1   -1    0    0  501    0  0.00000000000E+00  0.00000000000E+00  0.19814606523E+02  0.19814607164E+02  0.50400000000E-02 0. -1.
         -2   -1    0    0    0  501 -0.00000000000E+00 -0.00000000000E+00 -0.10033146864E+03  0.10033146867E+03  0.25500000000E-02 0.  1.
        -24    2    1    2    0    0 -0.17763568394E-14  0.00000000000E+00 -0.80516862117E+02  0.12014607584E+03  0.89174628980E+02 0.  0.
         66    2    3    3    0    0  0.12796790394E+02  0.42252981404E+02 -0.48468605047E+02  0.65591752203E+02  0.19999999777E+01 0.  0.
         13    1    3    3    0    0 -0.12796790394E+02 -0.42252981404E+02 -0.32048257070E+02  0.54554323634E+02  0.10566000000E+00 0. -1.
         13    1    4    4    0    0  0.21692878325E+01  0.65753504055E+01 -0.67195080588E+01  0.96490411566E+01  0.10566000000E+00 0. -1.
        -13    1    4    4    0    0  0.44769796567E+01  0.16070581471E+02 -0.19168461312E+02  0.25411572340E+02  0.10566000000E+00 0.  1.
        -14    1    4    4    0    0  0.61505229051E+01  0.19607049527E+02 -0.22580635676E+02  0.30531138706E+02  0.00000000000E+00 0.  1.
<mgrwt>
<rscale>  0 0.89174629E+02</rscale>
<asrwt>0</asrwt>
<pdfrwt beam="1">  1        1 0.30484011E-02 0.89174629E+02</pdfrwt>
<pdfrwt beam="2">  1       -2 0.15435610E-01 0.89174629E+02</pdfrwt>
<totfact> 0.80269080E+04</totfact>
</mgrwt>
</event>
<event>
 8    1  0.7756875E-018  0.8055035E+02  0.7818608E-02  0.1327497E+00
          1   -1    0    0  501    0  0.00000000000E+00  0.00000000000E+00  0.37640441745E+02  0.37640442082E+02  0.50400000000E-02 0. -1.
         -2   -1    0    0    0  501 -0.00000000000E+00 -0.00000000000E+00 -0.43094331409E+02  0.43094331485E+02  0.25500000000E-02 0.  1.
        -24    2    1    2    0    0  0.00000000000E+00  0.00000000000E+00 -0.54538896645E+01  0.80734773567E+02  0.80550349164E+02 0.  0.
         66    2    3    3    0    0 -0.24165713796E+02 -0.32092454445E+02 -0.52197422334E+01  0.40560486459E+02  0.19999993060E+01 0.  0.
         13    1    3    3    0    0  0.24165713796E+02  0.32092454445E+02 -0.23414743110E+00  0.40174287108E+02  0.10566000000E+00 0. -1.
         13    1    4    4    0    0 -0.15735190493E+02 -0.20669250458E+02 -0.33905661470E+01  0.26197733436E+02  0.10566000000E+00 0. -1.
        -13    1    4    4    0    0 -0.50015140806E+01 -0.57984362444E+01 -0.97232402993E+00  0.77196880788E+01  0.10566000000E+00 0.  1.
         14    1    4    4    0    0 -0.34290092220E+01 -0.56247677429E+01 -0.85685205646E+00  0.66430649442E+01  0.00000000000E+00 0. -1.
<mgrwt>
<rscale>  0 0.80550349E+02</rscale>
<asrwt>0</asrwt>
<pdfrwt beam="1">  1        1 0.57908372E-02 0.80550349E+02</pdfrwt>
<pdfrwt beam="2">  1       -2 0.66298972E-02 0.80550349E+02</pdfrwt>
<totfact> 0.12330197E+05</totfact>
</mgrwt>
</event>
<event>
 8    1  0.7756875E-018  0.8011456E+02  0.7818608E-02  0.1328727E+00
          1   -1    0    0  501    0  0.00000000000E+00  0.00000000000E+00  0.16113859359E+01  0.16113938177E+01  0.50400000000E-02 0. -1.
         -2   -1    0    0    0  501 -0.00000000000E+00 -0.00000000000E+00 -0.99577737215E+03  0.99577737215E+03  0.25500000000E-02 0.  1.
        -24    2    1    2    0    0  0.00000000000E+00  0.00000000000E+00 -0.99416598622E+03  0.99738876597E+03  0.80114557604E+02 0.  0.
         66    2    3    3    0    0  0.21444180808E+02  0.21413205929E+02 -0.82303759028E+03  0.82359774969E+03  0.20000032287E+01 0.  0.
         13    1    3    3    0    0 -0.21444180808E+02 -0.21413205929E+02 -0.17112839594E+03  0.17379101628E+03  0.10566000000E+00 0. -1.
         13    1    4    4    0    0  0.14358718154E+02  0.14008570456E+02 -0.54270696331E+03  0.54307759300E+03  0.10566000000E+00 0. -1.
        -13    1    4    4    0    0  0.70763876078E+01  0.71692427713E+01 -0.27346962789E+03  0.27365511478E+03  0.10566000000E+00 0.  1.
         14    1    4    4    0    0  0.90750453768E-02  0.23539270182E+00 -0.68609990828E+01  0.68650419150E+01  0.00000000000E+00 0. -1.
<mgrwt>
<rscale>  0 0.80114558E+02</rscale>
<asrwt>0</asrwt>
<pdfrwt beam="1">  1        1 0.24790693E-03 0.80114558E+02</pdfrwt>
<pdfrwt beam="2">  1       -2 0.15319603E+00 0.80114558E+02</pdfrwt>
<totfact> 0.26110202E+04</totfact>
</mgrwt>
</event>
<event>
 8    1  0.7756875E-018  0.8001988E+02  0.7818608E-02  0.1328995E+00
         -2   -1    0    0    0  501 -0.00000000000E+00  0.00000000000E+00  0.50776119297E+02  0.50776119361E+02  0.25500000000E-02 0.  1.
          1   -1    0    0  501    0  0.00000000000E+00 -0.00000000000E+00 -0.31526539964E+02  0.31526540367E+02  0.50400000000E-02 0. -1.
        -24    2    1    2    0    0  0.88817841970E-15  0.71054273576E-14  0.19249579333E+02  0.82302659728E+02  0.80019881865E+02 0.  0.
         66    2    3    3    0    0 -0.50374316154E+01 -0.35426987452E+02 -0.87203859362E+01  0.36884851784E+02  0.20000007498E+01 0.  0.
         13    1    3    3    0    0  0.50374316154E+01  0.35426987452E+02  0.27969965269E+02  0.45417807944E+02  0.10566000000E+00 0. -1.
         13    1    4    4    0    0 -0.13105362040E+01 -0.11158019489E+02 -0.24596282592E+01  0.11501297286E+02  0.10566000000E+00 0.  1.
        -13    1    4    4    0    0 -0.13688875637E+01 -0.53765513724E+01 -0.10934360031E+01  0.56557867844E+01  0.10566000000E+00 0. -1.
        -14    1    4    4    0    0 -0.23580078477E+01 -0.18892416591E+02 -0.51673216739E+01  0.19727767713E+02  0.00000000000E+00 0.  1.
<mgrwt>
<rscale>  0 0.80019882E+02</rscale>
<asrwt>0</asrwt>
<pdfrwt beam="1">  1        1 0.48502370E-02 0.80019882E+02</pdfrwt>
<pdfrwt beam="2">  1       -2 0.78117107E-02 0.80019882E+02</pdfrwt>
<totfact> 0.12191921E+05</totfact>
</mgrwt>
</event>
<event>
 8    1  0.7756875E-018  0.8193414E+02  0.7818608E-02  0.1323651E+00
          1   -1    0    0  501    0  0.00000000000E+00  0.00000000000E+00  0.15265141786E+02  0.15265142618E+02  0.50400000000E-02 0. -1.
         -2   -1    0    0    0  501 -0.00000000000E+00 -0.00000000000E+00 -0.10994334234E+03  0.10994334237E+03  0.25500000000E-02 0.  1.
        -24    2    1    2    0    0  0.35527136788E-14  0.71054273576E-14 -0.94678200550E+02  0.12520848498E+03  0.81934138504E+02 0.  0.
         66    2    3    3    0    0 -0.18059180391E+02 -0.32013817765E+02 -0.74928275188E+02  0.83482123530E+02  0.20000005377E+01 0.  0.
         13    1    3    3    0    0  0.18059180391E+02  0.32013817765E+02 -0.19749925362E+02  0.41726361453E+02  0.10566000000E+00 0. -1.
         13    1    4    4    0    0 -0.94817915348E+00 -0.16634358037E+01 -0.31959717530E+01  0.37271251471E+01  0.10566000000E+00 0. -1.
        -13    1    4    4    0    0 -0.68821165517E+01 -0.11491762086E+02 -0.28606466949E+02  0.31587422171E+02  0.10566000000E+00 0.  1.
         14    1    4    4    0    0 -0.10228884686E+02 -0.18858619875E+02 -0.43125836486E+02  0.48167576212E+02  0.00000000000E+00 0. -1.
<mgrwt>
<rscale>  0 0.81934139E+02</rscale>
<asrwt>0</asrwt>
<pdfrwt beam="1">  1        1 0.23484835E-02 0.81934139E+02</pdfrwt>
<pdfrwt beam="2">  1       -2 0.16914360E-01 0.81934139E+02</pdfrwt>
<totfact> 0.97426317E+04</totfact>
</mgrwt>
</event>
<event>
 8    1  0.7756875E-018  0.7956413E+02  0.7818608E-02  0.1330293E+00
         -2   -1    0    0    0  501 -0.00000000000E+00  0.00000000000E+00  0.40544323348E+02  0.40544323428E+02  0.25500000000E-02 0.  1.
          1   -1    0    0  501    0  0.00000000000E+00 -0.00000000000E+00 -0.39034141370E+02  0.39034141696E+02  0.50400000000E-02 0. -1.
        -24    2    1    2    0    0 -0.14210854715E-13  0.00000000000E+00  0.15101819772E+01  0.79578465124E+02  0.79564134268E+02 0.  0.
         66    2    3    3    0    0 -0.38723987976E+02 -0.89992488072E+01  0.10279920265E+01  0.39819473750E+02  0.19999995760E+01 0.  0.
         13    1    3    3    0    0  0.38723987976E+02  0.89992488072E+01  0.48218995073E+00  0.39758991373E+02  0.10566000000E+00 0. -1.
         13    1    4    4    0    0 -0.99890224830E+01 -0.15987340846E+01  0.62709486568E-02  0.10116705205E+02  0.10566000000E+00 0. -1.
        -13    1    4    4    0    0 -0.12940170422E+01 -0.19716697603E+00  0.10306397218E+00  0.13172475621E+01  0.10566000000E+00 0. -1.
        -14    1    4    4    0    0 -0.27440948451E+02 -0.72033477465E+01  0.91865710567E+00  0.28385520984E+02  0.00000000000E+00 0.  1.
<mgrwt>
<rscale>  0 0.79564134E+02</rscale>
<asrwt>0</asrwt>
<pdfrwt beam="1">  1        1 0.60052526E-02 0.79564134E+02</pdfrwt>
<pdfrwt beam="2">  1       -2 0.62375882E-02 0.79564134E+02</pdfrwt>
<totfact> 0.12843472E+05</totfact>
</mgrwt>
</event>
<event>
 8    1  0.1394440E-017  0.7403243E+02  0.7818608E-02  0.1346894E+00
         -2   -1    0    0    0  501 -0.00000000000E+00  0.00000000000E+00  0.63611308706E+02  0.63611308758E+02  0.25500000000E-02 0.  1.
          1   -1    0    0  501    0  0.00000000000E+00 -0.00000000000E+00 -0.21540196550E+02  0.21540197140E+02  0.50400000000E-02 0. -1.
        -24    2    1    2    0    0  0.00000000000E+00 -0.17763568394E-14  0.42071112156E+02  0.85151505898E+02  0.74032428561E+02 0.  0.
         66    2    3    3    0    0 -0.41361642937E+01  0.13745041384E+02  0.60261469301E+02  0.61979663614E+02  0.20000004184E+01 0.  0.
         13    1    3    3    0    0  0.41361642937E+01 -0.13745041384E+02 -0.18190357145E+02  0.23171842283E+02  0.10566000000E+00 0. -1.
         13    1    4    4    0    0 -0.62885137556E+00  0.25633279454E+01  0.93358626436E+01  0.97023502073E+01  0.10566000000E+00 0. -1.
        -13    1    4    4    0    0 -0.24379451638E+01  0.79611740064E+01  0.33077172346E+02  0.34109153649E+02  0.10566000000E+00 0.  1.
         14    1    4    4    0    0 -0.10693677543E+01  0.32205394322E+01  0.17848434311E+02  0.18168159758E+02  0.00000000000E+00 0. -1.
<mgrwt>
<rscale>  0 0.74032429E+02</rscale>
<asrwt>0</asrwt>
<pdfrwt beam="1">  1        1 0.33138765E-02 0.74032429E+02</pdfrwt>
<pdfrwt beam="2">  1       -2 0.97863551E-02 0.74032429E+02</pdfrwt>
<totfact> 0.14246055E+05</totfact>
</mgrwt>
</event>
<event>
 8    1  0.7756875E-018  0.8196089E+02  0.7818608E-02  0.1323577E+00
         -2   -1    0    0    0  501 -0.00000000000E+00  0.00000000000E+00  0.69830859998E+02  0.69830860044E+02  0.25500000000E-02 0.  1.
          1   -1    0    0  501    0  0.00000000000E+00 -0.00000000000E+00 -0.24049496209E+02  0.24049496737E+02  0.50400000000E-02 0. -1.
        -24    2    1    2    0    0 -0.35527136788E-14  0.17763568394E-14  0.45781363789E+02  0.93880356781E+02  0.81960893840E+02 0.  0.
         66    2    3    3    0    0 -0.25667708491E+02  0.12053506891E+02  0.56753071986E+02  0.63474636393E+02  0.19999994587E+01 0.  0.
         13    1    3    3    0    0  0.25667708491E+02 -0.12053506891E+02 -0.10971708197E+02  0.30405720388E+02  0.10566000000E+00 0. -1.
         13    1    4    4    0    0 -0.17649971933E+01  0.11422452470E+01  0.33447769280E+01  0.39520420077E+01  0.10566000000E+00 0. -1.
        -13    1    4    4    0    0 -0.21704013126E+02  0.98610848427E+01  0.48620421962E+02  0.54150362656E+02  0.10566000000E+00 0.  1.
        -14    1    4    4    0    0 -0.21986981711E+01  0.10501768009E+01  0.47878730963E+01  0.53722317288E+01  0.00000000000E+00 0.  1.
<mgrwt>
<rscale>  0 0.81960894E+02</rscale>
<asrwt>0</asrwt>
<pdfrwt beam="1">  1        1 0.36999225E-02 0.81960894E+02</pdfrwt>
<pdfrwt beam="2">  1       -2 0.10743209E-01 0.81960894E+02</pdfrwt>
<totfact> 0.10810720E+05</totfact>
</mgrwt>
</event>
<event>
 8    1  0.7756875E-018  0.8724386E+02  0.7818608E-02  0.1309667E+00
          1   -1    0    0  501    0  0.00000000000E+00  0.00000000000E+00  0.48520180369E+02  0.48520180631E+02  0.50400000000E-02 0. -1.
         -2   -1    0    0    0  501 -0.00000000000E+00 -0.00000000000E+00 -0.39218174939E+02  0.39218175022E+02  0.25500000000E-02 0.  1.
        -24    2    1    2    0    0  0.11102230246E-15  0.00000000000E+00  0.93020054306E+01  0.87738355653E+02  0.87243863667E+02 0.  0.
         66    2    3    3    0    0 -0.60564533231E+00  0.17654752757E+02 -0.35432372226E+02  0.39642276712E+02  0.20000000425E+01 0.  0.
         13    1    3    3    0    0  0.60564533231E+00 -0.17654752757E+02  0.44734377656E+02  0.48096078941E+02  0.10566000000E+00 0. -1.
         13    1    4    4    0    0 -0.47151360949E+00  0.24480898800E+01 -0.42419440590E+01  0.49214553315E+01  0.10566000000E+00 0. -1.
        -13    1    4    4    0    0 -0.51080575847E-01  0.12753355334E+02 -0.25102998539E+02  0.28157101790E+02  0.10566000000E+00 0.  1.
         14    1    4    4    0    0 -0.83051146974E-01  0.24533075428E+01 -0.60874296275E+01  0.65637195905E+01  0.00000000000E+00 0. -1.
<mgrwt>
<rscale>  0 0.87243864E+02</rscale>
<asrwt>0</asrwt>
<pdfrwt beam="1">  1        1 0.74646432E-02 0.87243864E+02</pdfrwt>
<pdfrwt beam="2">  1       -2 0.60335654E-02 0.87243864E+02</pdfrwt>
<totfact> 0.10266336E+05</totfact>
</mgrwt>
</event>
<event>
 8    1  0.7756875E-018  0.8262295E+02  0.7818608E-02  0.1321768E+00
          1   -1    0    0  501    0  0.00000000000E+00  0.00000000000E+00  0.47128123550E+02  0.47128123820E+02  0.50400000000E-02 0. -1.
         -2   -1    0    0    0  501 -0.00000000000E+00 -0.00000000000E+00 -0.36212732597E+02  0.36212732687E+02  0.25500000000E-02 0.  1.
        -24    2    1    2    0    0  0.00000000000E+00 -0.35527136788E-14  0.10915390953E+02  0.83340856507E+02  0.82622954460E+02 0.  0.
         66    2    3    3    0    0  0.24142457660E+02  0.27143279319E+02 -0.14331464865E+02  0.39102516046E+02  0.20000004849E+01 0.  0.
         13    1    3    3    0    0 -0.24142457660E+02 -0.27143279319E+02  0.25246855818E+02  0.44238340461E+02  0.10566000000E+00 0. -1.
         13    1    4    4    0    0  0.26613662881E+01  0.25608294512E+01 -0.14264265069E+01  0.39606280579E+01  0.10566000000E+00 0. -1.
        -13    1    4    4    0    0  0.18326110212E+02  0.20247581372E+02 -0.10383582487E+02  0.29217132238E+02  0.10566000000E+00 0.  1.
         14    1    4    4    0    0  0.31549811600E+01  0.43348684951E+01 -0.25214558704E+01  0.59247557499E+01  0.00000000000E+00 0. -1.
<mgrwt>
<rscale>  0 0.82622954E+02</rscale>
<asrwt>0</asrwt>
<pdfrwt beam="1">  1        1 0.72504805E-02 0.82622954E+02</pdfrwt>
<pdfrwt beam="2">  1       -2 0.55711897E-02 0.82622954E+02</pdfrwt>
<totfact> 0.11909757E+05</totfact>
</mgrwt>
</event>
<event>
 8    1  0.7756875E-018  0.7965037E+02  0.7818608E-02  0.1330047E+00
         -2   -1    0    0    0  501 -0.00000000000E+00  0.00000000000E+00  0.25260743431E+02  0.25260743559E+02  0.25500000000E-02 0.  1.
          1   -1    0    0  501    0  0.00000000000E+00 -0.00000000000E+00 -0.62786964086E+02  0.62786964288E+02  0.50400000000E-02 0. -1.
        -24    2    1    2    0    0  0.17763568394E-14  0.00000000000E+00 -0.37526220655E+02  0.88047707848E+02  0.79650371126E+02 0.  0.
         66    2    3    3    0    0  0.14936236884E+02  0.34308324001E+02 -0.37847167575E+01  0.37662665252E+02  0.20000012450E+01 0.  0.
         13    1    3    3    0    0 -0.14936236884E+02 -0.34308324001E+02 -0.33741503898E+02  0.50385042595E+02  0.10566000000E+00 0. -1.
         13    1    4    4    0    0  0.50995791748E+01  0.10000581909E+02 -0.15163541872E+01  0.11328187866E+02  0.10566000000E+00 0. -1.
        -13    1    4    4    0    0  0.28510292931E+01  0.61067374749E+01 -0.67062851494E+00  0.67735896878E+01  0.10566000000E+00 0.  1.
         14    1    4    4    0    0  0.69856284160E+01  0.18201004617E+02 -0.15977340554E+01  0.19560887698E+02  0.00000000000E+00 0. -1.
<mgrwt>
<rscale>  0 0.79650371E+02</rscale>
<asrwt>0</asrwt>
<pdfrwt beam="1">  1        1 0.96595329E-02 0.79650371E+02</pdfrwt>
<pdfrwt beam="2">  1       -2 0.38862683E-02 0.79650371E+02</pdfrwt>
<totfact> 0.13800329E+05</totfact>
</mgrwt>
</event>
<event>
 8    1  0.7756875E-018  0.8272027E+02  0.7818608E-02  0.1321504E+00
         -2   -1    0    0    0  501 -0.00000000000E+00  0.00000000000E+00  0.11984584318E+02  0.11984584589E+02  0.25500000000E-02 0.  1.
          1   -1    0    0  501    0  0.00000000000E+00 -0.00000000000E+00 -0.14273843039E+03  0.14273843048E+03  0.50400000000E-02 0. -1.
        -24    2    1    2    0    0 -0.35527136788E-14  0.00000000000E+00 -0.13075384607E+03  0.15472301506E+03  0.82720270363E+02 0.  0.
         66    2    3    3    0    0 -0.11530668447E+02  0.39461322368E+02 -0.73460847017E+02  0.84205987460E+02  0.20000004533E+01 0.  0.
         13    1    3    3    0    0  0.11530668447E+02 -0.39461322368E+02 -0.57292999051E+02  0.70517027604E+02  0.10566000000E+00 0. -1.
         13    1    4    4    0    0 -0.28320748454E+01  0.99001000613E+01 -0.19764453851E+02  0.22286260997E+02  0.10566000000E+00 0. -1.
        -13    1    4    4    0    0 -0.29171096932E+00  0.18507155042E+01 -0.32695066844E+01  0.37697587671E+01  0.10566000000E+00 0.  1.
         14    1    4    4    0    0 -0.84068826321E+01  0.27710506802E+02 -0.50426886482E+02  0.58149967696E+02  0.00000000000E+00 0. -1.
<mgrwt>
<rscale>  0 0.82720270E+02</rscale>
<asrwt>0</asrwt>
<pdfrwt beam="1">  1        1 0.21959757E-01 0.82720270E+02</pdfrwt>
<pdfrwt beam="2">  1       -2 0.18437823E-02 0.82720270E+02</pdfrwt>
<totfact> 0.14303897E+05</totfact>
</mgrwt>
</event>
<event>
 8    1  0.7756875E-018  0.7998333E+02  0.7818608E-02  0.1329099E+00
          1   -1    0    0  501    0  0.00000000000E+00  0.00000000000E+00  0.17578614892E+02  0.17578615614E+02  0.50400000000E-02 0. -1.
         -2   -1    0    0    0  501 -0.00000000000E+00 -0.00000000000E+00 -0.90981761781E+02  0.90981761817E+02  0.25500000000E-02 0.  1.
        -24    2    1    2    0    0 -0.10658141036E-13  0.00000000000E+00 -0.73403146890E+02  0.10856037743E+03  0.79983333105E+02 0.  0.
         66    2    3    3    0    0  0.29483200356E+02  0.41508809027E+01 -0.72911878041E+02  0.78782173579E+02  0.19999997072E+01 0.  0.
         13    1    3    3    0    0 -0.29483200356E+02 -0.41508809027E+01 -0.49126884828E+00  0.29778203852E+02  0.10566000000E+00 0. -1.
         13    1    4    4    0    0  0.63139289446E+01  0.15808629167E+01 -0.16677346669E+02  0.17902789789E+02  0.10566000000E+00 0. -1.
        -13    1    4    4    0    0  0.91922025011E+01  0.11795776022E+01 -0.21528622115E+02  0.23438872079E+02  0.10566000000E+00 0.  1.
        -14    1    4    4    0    0  0.13977068911E+02  0.13904403838E+01 -0.34705909257E+02  0.37440511711E+02  0.00000000000E+00 0.  1.
<mgrwt>
<rscale>  0 0.79983333E+02</rscale>
<asrwt>0</asrwt>
<pdfrwt beam="1">  1        1 0.27044024E-02 0.79983333E+02</pdfrwt>
<pdfrwt beam="2">  1       -2 0.13997194E-01 0.79983333E+02</pdfrwt>
<totfact> 0.10863118E+05</totfact>
</mgrwt>
</event>
<event>
 8    1  0.7756875E-018  0.7691021E+02  0.7818608E-02  0.1338056E+00
          1   -1    0    0  501    0  0.00000000000E+00  0.00000000000E+00  0.19268831957E+03  0.19268831964E+03  0.50400000000E-02 0. -1.
         -2   -1    0    0    0  501 -0.00000000000E+00 -0.00000000000E+00 -0.76745446932E+01  0.76745451168E+01  0.25500000000E-02 0.  1.
        -24    2    1    2    0    0 -0.35527136788E-14  0.00000000000E+00  0.18501377488E+03  0.20036286475E+03  0.76910211791E+02 0.  0.
         66    2    3    3    0    0 -0.28308274840E+02 -0.25803771983E+02  0.10063985548E+03  0.10770131657E+03  0.20000018040E+01 0.  0.
         13    1    3    3    0    0  0.28308274840E+02  0.25803771983E+02  0.84373919399E+02  0.92661548183E+02  0.10566000000E+00 0. -1.
         13    1    4    4    0    0 -0.16601788584E+01 -0.11962244160E+01  0.63262744745E+01  0.66498164980E+01  0.10566000000E+00 0. -1.
        -13    1    4    4    0    0 -0.19690983348E+02 -0.18035073746E+02  0.68447154564E+02  0.73471238197E+02  0.10566000000E+00 0.  1.
        -14    1    4    4    0    0 -0.69571126332E+01 -0.65724738212E+01  0.25866426441E+02  0.27580261876E+02  0.00000000000E+00 0.  1.
<mgrwt>
<rscale>  0 0.76910212E+02</rscale>
<asrwt>0</asrwt>
<pdfrwt beam="1">  1        1 0.29644357E-01 0.76910212E+02</pdfrwt>
<pdfrwt beam="2">  1       -2 0.11806992E-02 0.76910212E+02</pdfrwt>
<totfact> 0.18376176E+05</totfact>
</mgrwt>
</event>
<event>
 8    1  0.7756875E-018  0.7407809E+02  0.7818608E-02  0.1346750E+00
          1   -1    0    0  501    0  0.00000000000E+00  0.00000000000E+00  0.19594046815E+03  0.19594046822E+03  0.50400000000E-02 0. -1.
         -2   -1    0    0    0  501 -0.00000000000E+00 -0.00000000000E+00 -0.70015703677E+01  0.70015708321E+01  0.25500000000E-02 0.  1.
        -24    2    1    2    0    0  0.00000000000E+00  0.00000000000E+00  0.18893889779E+03  0.20294203905E+03  0.74078094721E+02 0.  0.
         66    2    3    3    0    0  0.43411746682E+01  0.34267169956E+02  0.58110974873E+02  0.67631132941E+02  0.20000019924E+01 0.  0.
         13    1    3    3    0    0 -0.43411746682E+01 -0.34267169956E+02  0.13082792291E+03  0.13531090611E+03  0.10566000000E+00 0. -1.
         13    1    4    4    0    0  0.14822724535E+00  0.44828453270E+00  0.90435149134E+00  0.10256441849E+01  0.10566000000E+00 0. -1.
        -13    1    4    4    0    0  0.20078607924E+01  0.10427988099E+02  0.17903258700E+02  0.20816154228E+02  0.10566000000E+00 0.  1.
        -14    1    4    4    0    0  0.21850866305E+01  0.23390897324E+02  0.39303364681E+02  0.45789334528E+02  0.00000000000E+00 0.  1.
<mgrwt>
<rscale>  0 0.74078095E+02</rscale>
<asrwt>0</asrwt>
<pdfrwt beam="1">  1        1 0.30144682E-01 0.74078095E+02</pdfrwt>
<pdfrwt beam="2">  1       -2 0.10771649E-02 0.74078095E+02</pdfrwt>
<totfact> 0.20352256E+05</totfact>
</mgrwt>
</event>
<event>
 8    1  0.7756875E-018  0.8046756E+02  0.7818608E-02  0.1327730E+00
          1   -1    0    0  501    0  0.00000000000E+00  0.00000000000E+00  0.32311631944E+03  0.32311631948E+03  0.50400000000E-02 0. -1.
         -2   -1    0    0    0  501 -0.00000000000E+00 -0.00000000000E+00 -0.50098278380E+01  0.50098284870E+01  0.25500000000E-02 0.  1.
        -24    2    1    2    0    0  0.00000000000E+00  0.00000000000E+00  0.31810649160E+03  0.32812614797E+03  0.80467564769E+02 0.  0.
         66    2    3    3    0    0  0.38741586438E+02  0.10685778304E+02  0.16439854912E+03  0.16925123137E+03  0.19999973759E+01 0.  0.
         13    1    3    3    0    0 -0.38741586438E+02 -0.10685778304E+02  0.15370794249E+03  0.15887491660E+03  0.10566000000E+00 0. -1.
         13    1    4    4    0    0  0.13787413045E+02  0.32061400671E+01  0.55641318694E+02  0.57413757956E+02  0.10566000000E+00 0. -1.
        -13    1    4    4    0    0  0.12001179601E+02  0.39747705235E+01  0.53900138817E+02  0.55363013295E+02  0.10566000000E+00 0.  1.
        -14    1    4    4    0    0  0.12952993791E+02  0.35048677136E+01  0.54857091605E+02  0.56474460114E+02  0.00000000000E+00 0.  1.
<mgrwt>
<rscale>  0 0.80467565E+02</rscale>
<asrwt>0</asrwt>
<pdfrwt beam="1">  1        1 0.49710205E-01 0.80467565E+02</pdfrwt>
<pdfrwt beam="2">  1       -2 0.77074277E-03 0.80467565E+02</pdfrwt>
<totfact> 0.18016473E+05</totfact>
</mgrwt>
</event>
<event>
 8    1  0.7756875E-018  0.7907209E+02  0.7818608E-02  0.1331706E+00
         -2   -1    0    0    0  501 -0.00000000000E+00  0.00000000000E+00  0.37369640870E+02  0.37369640957E+02  0.25500000000E-02 0.  1.
          1   -1    0    0  501    0  0.00000000000E+00 -0.00000000000E+00 -0.41828042398E+02  0.41828042701E+02  0.50400000000E-02 0. -1.
        -24    2    1    2    0    0  0.00000000000E+00  0.71054273576E-14 -0.44584015273E+01  0.79197683659E+02  0.79072092123E+02 0.  0.
         66    2    3    3    0    0 -0.25880728801E+02 -0.28554563508E+02 -0.10957600062E+02  0.40115386310E+02  0.19999998207E+01 0.  0.
         13    1    3    3    0    0  0.25880728801E+02  0.28554563508E+02  0.64991985351E+01  0.39082297349E+02  0.10566000000E+00 0. -1.
         13    1    4    4    0    0 -0.13197452783E+01 -0.11137618083E+01 -0.54035505587E+00  0.18125508509E+01  0.10566000000E+00 0. -1.
        -13    1    4    4    0    0 -0.61002465513E+00 -0.93604436052E+00 -0.49962594438E+00  0.12284540059E+01  0.10566000000E+00 0.  1.
        -14    1    4    4    0    0 -0.23950958868E+02 -0.26504757339E+02 -0.99176190621E+01  0.37074381453E+02  0.00000000000E+00 0.  1.
<mgrwt>
<rscale>  0 0.79072092E+02</rscale>
<asrwt>0</asrwt>
<pdfrwt beam="1">  1        1 0.64350835E-02 0.79072092E+02</pdfrwt>
<pdfrwt beam="2">  1       -2 0.57491756E-02 0.79072092E+02</pdfrwt>
<totfact> 0.13215251E+05</totfact>
</mgrwt>
</event>
<event>
 8    1  0.7756875E-018  0.7889480E+02  0.7818608E-02  0.1332217E+00
          1   -1    0    0  501    0  0.00000000000E+00  0.00000000000E+00  0.14964468540E+02  0.14964469389E+02  0.50400000000E-02 0. -1.
         -2   -1    0    0    0  501 -0.00000000000E+00 -0.00000000000E+00 -0.10398612796E+03  0.10398612799E+03  0.25500000000E-02 0.  1.
        -24    2    1    2    0    0 -0.35527136788E-14  0.00000000000E+00 -0.89021659417E+02  0.11895059738E+03  0.78894795589E+02 0.  0.
         66    2    3    3    0    0 -0.29982377091E+02 -0.17890861148E+02 -0.72137741977E+02  0.80167821809E+02  0.19999968383E+01 0.  0.
         13    1    3    3    0    0  0.29982377091E+02  0.17890861148E+02 -0.16883917439E+02  0.38782775568E+02  0.10566000000E+00 0. -1.
         13    1    4    4    0    0 -0.85787201105E+01 -0.51473049286E+01 -0.19105303743E+02  0.21566478199E+02  0.10566000000E+00 0. -1.
        -13    1    4    4    0    0 -0.13563115839E+02 -0.76721193909E+01 -0.32249427367E+02  0.35816982798E+02  0.10566000000E+00 0.  1.
         14    1    4    4    0    0 -0.78405411414E+01 -0.50714368285E+01 -0.20783010868E+02  0.22784360812E+02  0.00000000000E+00 0. -1.
<mgrwt>
<rscale>  0 0.78894796E+02</rscale>
<asrwt>0</asrwt>
<pdfrwt beam="1">  1        1 0.23022261E-02 0.78894796E+02</pdfrwt>
<pdfrwt beam="2">  1       -2 0.15997865E-01 0.78894796E+02</pdfrwt>
<totfact> 0.10890056E+05</totfact>
</mgrwt>
</event>
<event>
 8    1  0.7756875E-018  0.8090065E+02  0.7818608E-02  0.1326515E+00
          1   -1    0    0  501    0  0.00000000000E+00  0.00000000000E+00  0.59869430900E+02  0.59869431112E+02  0.50400000000E-02 0. -1.
         -2   -1    0    0    0  501 -0.00000000000E+00 -0.00000000000E+00 -0.27329954426E+02  0.27329954545E+02  0.25500000000E-02 0.  1.
        -24    2    1    2    0    0  0.00000000000E+00  0.00000000000E+00  0.32539476473E+02  0.87199385657E+02  0.80900650985E+02 0.  0.
         66    2    3    3    0    0 -0.25759933325E+02 -0.12638062411E+02 -0.14414300954E+02  0.32172454386E+02  0.19999907182E+01 0.  0.
         13    1    3    3    0    0  0.25759933325E+02  0.12638062411E+02  0.46953777427E+02  0.55026931271E+02  0.10566000000E+00 0. -1.
         13    1    4    4    0    0 -0.34977219164E+01 -0.14553057539E+01 -0.15802646513E+01  0.41061385566E+01  0.10566000000E+00 0. -1.
        -13    1    4    4    0    0 -0.13587363455E+02 -0.75785486073E+01 -0.83444940981E+01  0.17654817768E+02  0.10566000000E+00 0.  1.
        -14    1    4    4    0    0 -0.86748479535E+01 -0.36042080498E+01 -0.44895422043E+01  0.10411498062E+02  0.00000000000E+00 0.  1.
<mgrwt>
<rscale>  0 0.80900651E+02</rscale>
<asrwt>0</asrwt>
<pdfrwt beam="1">  1        1 0.92106818E-02 0.80900651E+02</pdfrwt>
<pdfrwt beam="2">  1       -2 0.42046084E-02 0.80900651E+02</pdfrwt>
<totfact> 0.13122190E+05</totfact>
</mgrwt>
</event>
<event>
 8    1  0.7827959E-018  0.7195839E+02  0.7818608E-02  0.1353557E+00
         -2   -1    0    0    0  501 -0.00000000000E+00  0.00000000000E+00  0.76740367537E+02  0.76740367579E+02  0.25500000000E-02 0.  1.
          1   -1    0    0  501    0  0.00000000000E+00 -0.00000000000E+00 -0.16868596209E+02  0.16868596962E+02  0.50400000000E-02 0. -1.
        -24    2    1    2    0    0  0.00000000000E+00 -0.35527136788E-14  0.59871771328E+02  0.93608964542E+02  0.71958385478E+02 0.  0.
         66    2    3    3    0    0 -0.18858311734E+01  0.25526673761E+02  0.62800087267E+02  0.67845548022E+02  0.19999982804E+01 0.  0.
         13    1    3    3    0    0  0.18858311734E+01 -0.25526673761E+02 -0.29283159394E+01  0.25763416520E+02  0.10566000000E+00 0. -1.
         13    1    4    4    0    0 -0.46058080653E+00  0.93510371895E+01  0.22459904777E+02  0.24333362239E+02  0.10566000000E+00 0. -1.
        -13    1    4    4    0    0 -0.13714605022E+01  0.16158469235E+02  0.39919878744E+02  0.43088106420E+02  0.10566000000E+00 0.  1.
         14    1    4    4    0    0 -0.53789864715E-01  0.17167335874E-01  0.42030374625E+00  0.42407936295E+00  0.00000000000E+00 0. -1.
<mgrwt>
<rscale>  0 0.71958385E+02</rscale>
<asrwt>0</asrwt>
<pdfrwt beam="1">  1        1 0.25951687E-02 0.71958385E+02</pdfrwt>
<pdfrwt beam="2">  1       -2 0.11806210E-01 0.71958385E+02</pdfrwt>
<totfact> 0.14755428E+05</totfact>
</mgrwt>
</event>
<event>
 8    1  0.7756875E-018  0.7907175E+02  0.7818608E-02  0.1331707E+00
          1   -1    0    0  501    0  0.00000000000E+00  0.00000000000E+00  0.29947970718E+03  0.29947970722E+03  0.50400000000E-02 0. -1.
         -2   -1    0    0    0  501 -0.00000000000E+00 -0.00000000000E+00 -0.52193361053E+01  0.52193367282E+01  0.25500000000E-02 0.  1.
        -24    2    1    2    0    0  0.71054273576E-14  0.00000000000E+00  0.29426037107E+03  0.30469904395E+03  0.79071748427E+02 0.  0.
         66    2    3    3    0    0 -0.39334476324E+02  0.24713900445E+01  0.15796654709E+03  0.16282118657E+03  0.19999994568E+01 0.  0.
         13    1    3    3    0    0  0.39334476324E+02 -0.24713900445E+01  0.13629382398E+03  0.14187785738E+03  0.10566000000E+00 0. -1.
         13    1    4    4    0    0 -0.34898520745E+02  0.26760212354E+01  0.14049999573E+03  0.14479408760E+03  0.10566000000E+00 0. -1.
        -13    1    4    4    0    0 -0.23506717540E+01 -0.18357432964E-01  0.99465054851E+01  0.10221063061E+02  0.10566000000E+00 0.  1.
         14    1    4    4    0    0 -0.20852838246E+01 -0.18627375792E+00  0.75200458793E+01  0.78060359063E+01  0.00000000000E+00 0. -1.
<mgrwt>
<rscale>  0 0.79071748E+02</rscale>
<asrwt>0</asrwt>
<pdfrwt beam="1">  1        1 0.46073816E-01 0.79071748E+02</pdfrwt>
<pdfrwt beam="2">  1       -2 0.80297457E-03 0.79071748E+02</pdfrwt>
<totfact> 0.18598876E+05</totfact>
</mgrwt>
</event>
<event>
 8    1  0.7756875E-018  0.7869242E+02  0.7818608E-02  0.1332804E+00
         -2   -1    0    0    0  501 -0.00000000000E+00  0.00000000000E+00  0.34471844752E+02  0.34471844846E+02  0.25500000000E-02 0.  1.
          1   -1    0    0  501    0  0.00000000000E+00 -0.00000000000E+00 -0.44909819934E+02  0.44909820217E+02  0.50400000000E-02 0. -1.
        -24    2    1    2    0    0  0.00000000000E+00  0.00000000000E+00 -0.10437975182E+02  0.79381665063E+02  0.78692422902E+02 0.  0.
         66    2    3    3    0    0 -0.33642757658E+02 -0.18645325560E+02 -0.13456941816E+02  0.40799173805E+02  0.19999980100E+01 0.  0.
         13    1    3    3    0    0  0.33642757658E+02  0.18645325560E+02  0.30189666341E+01  0.38582491258E+02  0.10566000000E+00 0. -1.
         13    1    4    4    0    0 -0.24529216123E+02 -0.14139847240E+02 -0.99803039961E+01  0.30020582198E+02  0.10566000000E+00 0. -1.
        -13    1    4    4    0    0 -0.52804251694E+01 -0.30525957879E+01 -0.19493164294E+01  0.64040791369E+01  0.10566000000E+00 0.  1.
         14    1    4    4    0    0 -0.38331163658E+01 -0.14528825317E+01 -0.15273213903E+01  0.43745124704E+01  0.00000000000E+00 0. -1.
<mgrwt>
<rscale>  0 0.78692423E+02</rscale>
<asrwt>0</asrwt>
<pdfrwt beam="1">  1        1 0.69092031E-02 0.78692423E+02</pdfrwt>
<pdfrwt beam="2">  1       -2 0.53033607E-02 0.78692423E+02</pdfrwt>
<totfact> 0.13545243E+05</totfact>
</mgrwt>
</event>
<event>
 8    1  0.7756875E-018  0.7269218E+02  0.7818608E-02  0.1351170E+00
          1   -1    0    0  501    0  0.00000000000E+00  0.00000000000E+00  0.89488110139E+02  0.89488110281E+02  0.50400000000E-02 0. -1.
         -2   -1    0    0    0  501 -0.00000000000E+00 -0.00000000000E+00 -0.14762165521E+02  0.14762165741E+02  0.25500000000E-02 0.  1.
        -24    2    1    2    0    0  0.00000000000E+00  0.00000000000E+00  0.74725944618E+02  0.10425027602E+03  0.72692181503E+02 0.  0.
         66    2    3    3    0    0 -0.20382280360E+02 -0.10180681214E+02 -0.31709668567E+01  0.23089795467E+02  0.20000003123E+01 0.  0.
         13    1    3    3    0    0  0.20382280360E+02  0.10180681214E+02  0.77896911475E+02  0.81160480555E+02  0.10566000000E+00 0. -1.
         13    1    4    4    0    0 -0.11815222058E+02 -0.65995307342E+01 -0.20386448218E+01  0.13686508501E+02  0.10566000000E+00 0. -1.
        -13    1    4    4    0    0 -0.11346995605E+01 -0.80472289688E+00 -0.28766664913E+00  0.14244431087E+01  0.10566000000E+00 0.  1.
        -14    1    4    4    0    0 -0.74323587413E+01 -0.27764275828E+01 -0.84465538576E+00  0.79788438576E+01  0.00000000000E+00 0.  1.
<mgrwt>
<rscale>  0 0.72692182E+02</rscale>
<asrwt>0</asrwt>
<pdfrwt beam="1">  1        1 0.13767402E-01 0.72692182E+02</pdfrwt>
<pdfrwt beam="2">  1       -2 0.22711024E-02 0.72692182E+02</pdfrwt>
<totfact> 0.18676761E+05</totfact>
</mgrwt>
</event>
<event>
 8    1  0.7756875E-018  0.7768416E+02  0.7818608E-02  0.1335755E+00
         -2   -1    0    0    0  501 -0.00000000000E+00  0.00000000000E+00  0.29156024278E+03  0.29156024279E+03  0.25500000000E-02 0.  1.
          1   -1    0    0  501    0  0.00000000000E+00 -0.00000000000E+00 -0.51745972442E+01  0.51745996987E+01  0.50400000000E-02 0. -1.
        -24    2    1    2    0    0  0.36429192996E-16  0.00000000000E+00  0.28638564553E+03  0.29673484249E+03  0.77684160409E+02 0.  0.
         66    2    3    3    0    0 -0.12975827081E-01  0.23140419420E+02  0.26232819495E+03  0.26335443997E+03  0.20000022737E+01 0.  0.
         13    1    3    3    0    0  0.12975827081E-01 -0.23140419420E+02  0.24057450583E+02  0.33380402513E+02  0.10566000000E+00 0. -1.
         13    1    4    4    0    0  0.61789156634E+00  0.37569443938E+01  0.46332732905E+02  0.46489027992E+02  0.10566000000E+00 0. -1.
        -13    1    4    4    0    0 -0.21711376650E+00  0.35604060103E+01  0.42251192605E+02  0.42401628152E+02  0.10566000000E+00 0.  1.
         14    1    4    4    0    0 -0.41375362692E+00  0.15823069016E+02  0.17374426944E+03  0.17446378383E+03  0.00000000000E+00 0. -1.
<mgrwt>
<rscale>  0 0.77684160E+02</rscale>
<asrwt>0</asrwt>
<pdfrwt beam="1">  1        1 0.79609179E-03 0.77684160E+02</pdfrwt>
<pdfrwt beam="2">  1       -2 0.44855438E-01 0.77684160E+02</pdfrwt>
<totfact> 0.76977649E+04</totfact>
</mgrwt>
</event>
<event>
 8    1  0.7756875E-018  0.7841504E+02  0.7818608E-02  0.1333610E+00
          1   -1    0    0  501    0  0.00000000000E+00  0.00000000000E+00  0.16779067061E+03  0.16779067069E+03  0.50400000000E-02 0. -1.
         -2   -1    0    0    0  501 -0.00000000000E+00 -0.00000000000E+00 -0.91615920887E+01  0.91615924436E+01  0.25500000000E-02 0.  1.
        -24    2    1    2    0    0  0.00000000000E+00  0.35527136788E-14  0.15862907852E+03  0.17695226313E+03  0.78415042397E+02 0.  0.
         66    2    3    3    0    0  0.33937509639E+02  0.12158115080E+02  0.44724954216E+02  0.57479525567E+02  0.20000017597E+01 0.  0.
         13    1    3    3    0    0 -0.33937509639E+02 -0.12158115080E+02  0.11390412430E+03  0.11947273756E+03  0.10566000000E+00 0. -1.
         13    1    4    4    0    0  0.20120458125E+01  0.58927712588E+00  0.23705972542E+01  0.31664603677E+01  0.10566000000E+00 0. -1.
        -13    1    4    4    0    0  0.10340587109E+02  0.32039834971E+01  0.12534605650E+02  0.16562631278E+02  0.10566000000E+00 0.  1.
        -14    1    4    4    0    0  0.21584876717E+02  0.83648544573E+01  0.29819751312E+02  0.37750433921E+02  0.00000000000E+00 0.  1.
<mgrwt>
<rscale>  0 0.78415042E+02</rscale>
<asrwt>0</asrwt>
<pdfrwt beam="1">  1        1 0.25813948E-01 0.78415042E+02</pdfrwt>
<pdfrwt beam="2">  1       -2 0.14094758E-02 0.78415042E+02</pdfrwt>
<totfact> 0.17004105E+05</totfact>
</mgrwt>
</event>
<event>
 8    1  0.7756875E-018  0.7816665E+02  0.7818608E-02  0.1334336E+00
          1   -1    0    0  501    0  0.00000000000E+00  0.00000000000E+00  0.10003031979E+02  0.10003033248E+02  0.50400000000E-02 0. -1.
         -2   -1    0    0    0  501 -0.00000000000E+00 -0.00000000000E+00 -0.15270431944E+03  0.15270431946E+03  0.25500000000E-02 0.  1.
        -24    2    1    2    0    0 -0.35527136788E-14 -0.35527136788E-14 -0.14270128746E+03  0.16270735271E+03  0.78166650067E+02 0.  0.
         66    2    3    3    0    0 -0.20621816088E+02 -0.20335186180E+02 -0.12594489894E+03  0.12924742420E+03  0.19999992909E+01 0.  0.
         13    1    3    3    0    0  0.20621816088E+02  0.20335186180E+02 -0.16756388524E+02  0.33459928514E+02  0.10566000000E+00 0. -1.
         13    1    4    4    0    0 -0.17114040206E+00 -0.77074907207E-01 -0.58308402979E+00  0.62159520585E+00  0.10566000000E+00 0.  1.
        -13    1    4    4    0    0 -0.35726013661E+01 -0.35736949639E+01 -0.23003585356E+02  0.23552300938E+02  0.10566000000E+00 0.  1.
         14    1    4    4    0    0 -0.16878074320E+02 -0.16684416308E+02 -0.10235822955E+03  0.10507352805E+03  0.00000000000E+00 0. -1.
<mgrwt>
<rscale>  0 0.78166650E+02</rscale>
<asrwt>0</asrwt>
<pdfrwt beam="1">  1        1 0.15389282E-02 0.78166650E+02</pdfrwt>
<pdfrwt beam="2">  1       -2 0.23492971E-01 0.78166650E+02</pdfrwt>
<totfact> 0.99727136E+04</totfact>
</mgrwt>
</event>
<event>
 8    1  0.7756875E-018  0.8086499E+02  0.7818608E-02  0.1326614E+00
          1   -1    0    0  501    0  0.00000000000E+00  0.00000000000E+00  0.34506576507E+03  0.34506576510E+03  0.50400000000E-02 0. -1.
         -2   -1    0    0    0  501 -0.00000000000E+00 -0.00000000000E+00 -0.47376090763E+01  0.47376097625E+01  0.25500000000E-02 0.  1.
        -24    2    1    2    0    0  0.00000000000E+00  0.00000000000E+00  0.34032815599E+03  0.34980337487E+03  0.80864994329E+02 0.  0.
         66    2    3    3    0    0  0.25607228635E+02  0.30744676981E+02  0.14586787627E+03  0.15126930506E+03  0.20000011648E+01 0.  0.
         13    1    3    3    0    0 -0.25607228635E+02 -0.30744676981E+02  0.19446027972E+03  0.19853406981E+03  0.10566000000E+00 0. -1.
         13    1    4    4    0    0  0.24041698047E+01  0.29732088312E+01  0.15780745970E+02  0.16237706445E+02  0.10566000000E+00 0. -1.
        -13    1    4    4    0    0  0.22983699762E+02  0.27542601879E+02  0.12851007222E+03  0.13342299352E+03  0.10566000000E+00 0.  1.
        -14    1    4    4    0    0  0.21935906832E+00  0.22886627040E+00  0.15770580792E+01  0.16086050963E+01  0.00000000000E+00 0.  1.
<mgrwt>
<rscale>  0 0.80864994E+02</rscale>
<asrwt>0</asrwt>
<pdfrwt beam="1">  1        1 0.53087034E-01 0.80864994E+02</pdfrwt>
<pdfrwt beam="2">  1       -2 0.72886308E-03 0.80864994E+02</pdfrwt>
<totfact> 0.17999310E+05</totfact>
</mgrwt>
</event>
<event>
 8    1  0.7756875E-018  0.8250671E+02  0.7818608E-02  0.1322085E+00
          1   -1    0    0  501    0  0.00000000000E+00  0.00000000000E+00  0.37059578883E+02  0.37059579226E+02  0.50400000000E-02 0. -1.
         -2   -1    0    0    0  501 -0.00000000000E+00 -0.00000000000E+00 -0.45921715001E+02  0.45921715072E+02  0.25500000000E-02 0.  1.
        -24    2    1    2    0    0  0.17763568394E-14  0.00000000000E+00 -0.88621361183E+01  0.82981294298E+02  0.82506713344E+02 0.  0.
         66    2    3    3    0    0 -0.12798959722E+02 -0.35338318610E+02 -0.21478841657E+02  0.43335329120E+02  0.19999947098E+01 0.  0.
         13    1    3    3    0    0  0.12798959722E+02  0.35338318610E+02  0.12616705539E+02  0.39645965178E+02  0.10566000000E+00 0. -1.
         13    1    4    4    0    0 -0.91948837412E+01 -0.26858523272E+02 -0.16594436062E+02  0.32883318440E+02  0.10566000000E+00 0.  1.
        -13    1    4    4    0    0 -0.34037428554E+01 -0.80123153870E+01 -0.47832775181E+01  0.99334571594E+01  0.10566000000E+00 0. -1.
         14    1    4    4    0    0 -0.20033312522E+00 -0.46747995099E+00 -0.10112807712E+00  0.51855352050E+00  0.00000000000E+00 0. -1.
<mgrwt>
<rscale>  0 0.82506713E+02</rscale>
<asrwt>0</asrwt>
<pdfrwt beam="1">  1        1 0.57014737E-02 0.82506713E+02</pdfrwt>
<pdfrwt beam="2">  1       -2 0.70648793E-02 0.82506713E+02</pdfrwt>
<totfact> 0.11487489E+05</totfact>
</mgrwt>
</event>
<event>
 8    1  0.7756875E-018  0.7739818E+02  0.7818608E-02  0.1336601E+00
          1   -1    0    0  501    0  0.00000000000E+00  0.00000000000E+00  0.28982922057E+02  0.28982922495E+02  0.50400000000E-02 0. -1.
         -2   -1    0    0    0  501 -0.00000000000E+00 -0.00000000000E+00 -0.51672480106E+02  0.51672480169E+02  0.25500000000E-02 0.  1.
        -24    2    1    2    0    0  0.17763568394E-14  0.00000000000E+00 -0.22689558049E+02  0.80655402664E+02  0.77398177850E+02 0.  0.
         66    2    3    3    0    0 -0.14187536183E+02  0.46023670060E+01 -0.48535119759E+02  0.50814622025E+02  0.19999991250E+01 0.  0.
         13    1    3    3    0    0  0.14187536183E+02 -0.46023670060E+01  0.25845561710E+02  0.29840780639E+02  0.10566000000E+00 0. -1.
         13    1    4    4    0    0 -0.16057521564E+01  0.27991333017E+00 -0.72586368490E+01  0.74401454557E+01  0.10566000000E+00 0. -1.
        -13    1    4    4    0    0 -0.22943789274E+01  0.58435495171E+00 -0.66921677118E+01  0.70994308287E+01  0.10566000000E+00 0.  1.
         14    1    4    4    0    0 -0.10287405099E+02  0.37380987241E+01 -0.34584315198E+02  0.36275045741E+02  0.00000000000E+00 0. -1.
<mgrwt>
<rscale>  0 0.77398178E+02</rscale>
<asrwt>0</asrwt>
<pdfrwt beam="1">  1        1 0.44589112E-02 0.77398178E+02</pdfrwt>
<pdfrwt beam="2">  1       -2 0.79496123E-02 0.77398178E+02</pdfrwt>
<totfact> 0.13217803E+05</totfact>
</mgrwt>
</event>
<event>
 8    1  0.7756875E-018  0.7939397E+02  0.7818608E-02  0.1330780E+00
         -2   -1    0    0    0  501 -0.00000000000E+00  0.00000000000E+00  0.38296998710E+02  0.38296998795E+02  0.25500000000E-02 0.  1.
          1   -1    0    0  501    0  0.00000000000E+00 -0.00000000000E+00 -0.41148145826E+02  0.41148146135E+02  0.50400000000E-02 0. -1.
        -24    2    1    2    0    0 -0.35527136788E-14  0.00000000000E+00 -0.28511471165E+01  0.79445144930E+02  0.79393967107E+02 0.  0.
         66    2    3    3    0    0  0.27729619775E+02  0.16597611204E+02  0.21597768312E+02  0.38921409413E+02  0.20000010310E+01 0.  0.
         13    1    3    3    0    0 -0.27729619775E+02 -0.16597611204E+02 -0.24448915428E+02  0.40523735516E+02  0.10566000000E+00 0. -1.
         13    1    4    4    0    0  0.84111223520E+01  0.44654350354E+01  0.72411887901E+01  0.11963823319E+02  0.10566000000E+00 0. -1.
        -13    1    4    4    0    0  0.69960216807E+01  0.44117922074E+01  0.49690695466E+01  0.96494065119E+01  0.10566000000E+00 0.  1.
         14    1    4    4    0    0  0.12322475742E+02  0.77203839614E+01  0.93875099751E+01  0.17308179582E+02  0.00000000000E+00 0. -1.
<mgrwt>
<rscale>  0 0.79393967E+02</rscale>
<asrwt>0</asrwt>
<pdfrwt beam="1">  1        1 0.63304841E-02 0.79393967E+02</pdfrwt>
<pdfrwt beam="2">  1       -2 0.58918459E-02 0.79393967E+02</pdfrwt>
<totfact> 0.13031376E+05</totfact>
</mgrwt>
</event>
<event>
 8    1  0.7756875E-018  0.7931050E+02  0.7818608E-02  0.1331020E+00
          1   -1    0    0  501    0  0.00000000000E+00  0.00000000000E+00  0.21206052092E+02  0.21206052691E+02  0.50400000000E-02 0. -1.
         -2   -1    0    0    0  501 -0.00000000000E+00 -0.00000000000E+00 -0.74155181805E+02  0.74155181849E+02  0.25500000000E-02 0.  1.
        -24    2    1    2    0    0  0.00000000000E+00 -0.17763568394E-14 -0.52949129713E+02  0.95361234540E+02  0.79310495621E+02 0.  0.
         66    2    3    3    0    0  0.27585674031E+02 -0.11120250779E+02 -0.57981376306E+02  0.65195624006E+02  0.20000005043E+01 0.  0.
         13    1    3    3    0    0 -0.27585674031E+02  0.11120250779E+02  0.50322465932E+01  0.30165610535E+02  0.10566000000E+00 0. -1.
         13    1    4    4    0    0  0.10515397880E+02 -0.39364439570E+01 -0.23143255963E+02  0.25723348231E+02  0.10566000000E+00 0. -1.
        -13    1    4    4    0    0  0.12084402678E+02 -0.55526380562E+01 -0.25605720473E+02  0.28853572785E+02  0.10566000000E+00 0.  1.
        -14    1    4    4    0    0  0.49858734729E+01 -0.16311687657E+01 -0.92323998693E+01  0.10618702989E+02  0.00000000000E+00 0.  1.
<mgrwt>
<rscale>  0 0.79310496E+02</rscale>
<asrwt>0</asrwt>
<pdfrwt beam="1">  1        1 0.32624696E-02 0.79310496E+02</pdfrwt>
<pdfrwt beam="2">  1       -2 0.11408489E-01 0.79310496E+02</pdfrwt>
<totfact> 0.11609594E+05</totfact>
</mgrwt>
</event>
<event>
 8    1  0.7756875E-018  0.8106850E+02  0.7818608E-02  0.1326046E+00
         -2   -1    0    0    0  501 -0.00000000000E+00  0.00000000000E+00  0.14295966143E+03  0.14295966145E+03  0.25500000000E-02 0.  1.
          1   -1    0    0  501    0  0.00000000000E+00 -0.00000000000E+00 -0.11492930054E+02  0.11492931159E+02  0.50400000000E-02 0. -1.
        -24    2    1    2    0    0  0.00000000000E+00  0.00000000000E+00  0.13146673137E+03  0.15445259261E+03  0.81068501314E+02 0.  0.
         66    2    3    3    0    0  0.72573706443E+01 -0.38782283507E+02  0.83264462761E+02  0.92161302638E+02  0.20000006008E+01 0.  0.
         13    1    3    3    0    0 -0.72573706443E+01  0.38782283507E+02  0.48202268611E+02  0.62291289969E+02  0.10566000000E+00 0. -1.
         13    1    4    4    0    0  0.56721586788E+01 -0.31058285887E+02  0.65440077542E+02  0.72658140763E+02  0.10566000000E+00 0. -1.
        -13    1    4    4    0    0  0.12048455149E+01 -0.65812489122E+01  0.15576317903E+02  0.16952797215E+02  0.10566000000E+00 0.  1.
         14    1    4    4    0    0  0.38036645056E+00 -0.11427487076E+01  0.22480673156E+01  0.25503646604E+01  0.00000000000E+00 0. -1.
<mgrwt>
<rscale>  0 0.81068501E+02</rscale>
<asrwt>0</asrwt>
<pdfrwt beam="1">  1        1 0.17681431E-02 0.81068501E+02</pdfrwt>
<pdfrwt beam="2">  1       -2 0.21993795E-01 0.81068501E+02</pdfrwt>
<totfact> 0.92767759E+04</totfact>
</mgrwt>
</event>
<event>
 8    1  0.7756875E-018  0.7864363E+02  0.7818608E-02  0.1332945E+00
         -2   -1    0    0    0  501 -0.00000000000E+00  0.00000000000E+00  0.12363301339E+02  0.12363301602E+02  0.25500000000E-02 0.  1.
          1   -1    0    0  501    0  0.00000000000E+00 -0.00000000000E+00 -0.12506409018E+03  0.12506409028E+03  0.50400000000E-02 0. -1.
        -24    2    1    2    0    0  0.00000000000E+00  0.00000000000E+00 -0.11270078884E+03  0.13742739188E+03  0.78643628060E+02 0.  0.
         66    2    3    3    0    0  0.22189358363E+02  0.31706232104E+02 -0.44464515122E+02  0.58980894231E+02  0.20000001243E+01 0.  0.
         13    1    3    3    0    0 -0.22189358363E+02 -0.31706232104E+02 -0.68236273721E+02  0.78446497654E+02  0.10566000000E+00 0. -1.
         13    1    4    4    0    0  0.47471505140E+01  0.66240485616E+01 -0.10311717845E+02  0.13143673242E+02  0.10566000000E+00 0. -1.
        -13    1    4    4    0    0  0.12167697546E+02  0.18381317423E+02 -0.24564121673E+02  0.33005044029E+02  0.10566000000E+00 0.  1.
        -14    1    4    4    0    0  0.52745103035E+01  0.67008661192E+01 -0.95886756042E+01  0.12832176960E+02  0.00000000000E+00 0.  1.
<mgrwt>
<rscale>  0 0.78643628E+02</rscale>
<asrwt>0</asrwt>
<pdfrwt beam="1">  1        1 0.19240629E-01 0.78643628E+02</pdfrwt>
<pdfrwt beam="2">  1       -2 0.19020465E-02 0.78643628E+02</pdfrwt>
<totfact> 0.15994259E+05</totfact>
</mgrwt>
</event>
<event>
 8    1  0.7756875E-018  0.7977771E+02  0.7818608E-02  0.1329683E+00
         -2   -1    0    0    0  501 -0.00000000000E+00  0.00000000000E+00  0.42336554542E+03  0.42336554543E+03  0.25500000000E-02 0.  1.
          1   -1    0    0  501    0  0.00000000000E+00 -0.00000000000E+00 -0.37582653949E+01  0.37582687744E+01  0.50400000000E-02 0. -1.
        -24    2    1    2    0    0  0.00000000000E+00  0.00000000000E+00  0.41960728003E+03  0.42712381420E+03  0.79777711226E+02 0.  0.
         66    2    3    3    0    0  0.38234590842E+02 -0.54680179300E+01  0.26275551831E+03  0.26558660650E+03  0.19999974484E+01 0.  0.
         13    1    3    3    0    0 -0.38234590842E+02  0.54680179300E+01  0.15685176171E+03  0.16153720771E+03  0.10566000000E+00 0. -1.
         13    1    4    4    0    0  0.75669067785E+01 -0.13146892035E+01  0.48258141049E+02  0.48865589400E+02  0.10566000000E+00 0. -1.
        -13    1    4    4    0    0  0.22997145107E+02 -0.26656996750E+01  0.16107382451E+03  0.16272910847E+03  0.10566000000E+00 0.  1.
        -14    1    4    4    0    0  0.76705389557E+01 -0.14876290514E+01  0.53423552757E+02  0.53991908627E+02  0.00000000000E+00 0.  1.
<mgrwt>
<rscale>  0 0.79777711E+02</rscale>
<asrwt>0</asrwt>
<pdfrwt beam="1">  1        1 0.57819463E-03 0.79777711E+02</pdfrwt>
<pdfrwt beam="2">  1       -2 0.65133195E-01 0.79777711E+02</pdfrwt>
<totfact> 0.57280323E+04</totfact>
</mgrwt>
</event>
<event>
 8    1  0.7756875E-018  0.8022379E+02  0.7818608E-02  0.1328418E+00
         -2   -1    0    0    0  501 -0.00000000000E+00  0.00000000000E+00  0.37112837235E+01  0.37112845995E+01  0.25500000000E-02 0.  1.
          1   -1    0    0  501    0  0.00000000000E+00 -0.00000000000E+00 -0.43353296902E+03  0.43353296905E+03  0.50400000000E-02 0. -1.
        -24    2    1    2    0    0  0.35527136788E-14  0.00000000000E+00 -0.42982168530E+03  0.43724425365E+03  0.80223788229E+02 0.  0.
         66    2    3    3    0    0 -0.19081377145E+02 -0.35253064911E+02 -0.21348761911E+03  0.21722762497E+03  0.19999991101E+01 0.  0.
         13    1    3    3    0    0  0.19081377145E+02  0.35253064911E+02 -0.21633406619E+03  0.22001662868E+03  0.10566000000E+00 0. -1.
         13    1    4    4    0    0 -0.14692072458E+02 -0.25811596172E+02 -0.15850130045E+03  0.16125994202E+03  0.10566000000E+00 0.  1.
        -13    1    4    4    0    0 -0.42109450999E+01 -0.88802490165E+01 -0.51047571507E+02  0.51985157517E+02  0.10566000000E+00 0. -1.
        -14    1    4    4    0    0 -0.17835958713E+00 -0.56121972292E+00 -0.39387471525E+01  0.39825254363E+01  0.00000000000E+00 0.  1.
<mgrwt>
<rscale>  0 0.80223788E+02</rscale>
<asrwt>0</asrwt>
<pdfrwt beam="1">  1        1 0.66697340E-01 0.80223788E+02</pdfrwt>
<pdfrwt beam="2">  1       -2 0.57096714E-03 0.80223788E+02</pdfrwt>
<totfact> 0.19094501E+05</totfact>
</mgrwt>
</event>
<event>
 8    1  0.7756875E-018  0.7960590E+02  0.7818608E-02  0.1330174E+00
         -2   -1    0    0    0  501 -0.00000000000E+00  0.00000000000E+00  0.18925875177E+02  0.18925875349E+02  0.25500000000E-02 0.  1.
          1   -1    0    0  501    0  0.00000000000E+00 -0.00000000000E+00 -0.83709467902E+02  0.83709468054E+02  0.50400000000E-02 0. -1.
        -24    2    1    2    0    0  0.00000000000E+00  0.00000000000E+00 -0.64783592726E+02  0.10263534340E+03  0.79605903229E+02 0.  0.
         66    2    3    3    0    0  0.32394805951E+02  0.72439420426E+01 -0.41542487192E+01  0.33513518574E+02  0.19999989816E+01 0.  0.
         13    1    3    3    0    0 -0.32394805951E+02 -0.72439420426E+01 -0.60629344007E+02  0.69121824828E+02  0.10566000000E+00 0. -1.
         13    1    4    4    0    0  0.66268493187E+00  0.19933843171E+00 -0.19055518314E+00  0.72550840292E+00  0.10566000000E+00 0.  1.
        -13    1    4    4    0    0  0.27213397284E+02  0.60566654528E+01 -0.28089784910E+01  0.28020594432E+02  0.10566000000E+00 0.  1.
        -14    1    4    4    0    0  0.45187237348E+01  0.98793815807E+00 -0.11547150450E+01  0.47674157393E+01  0.00000000000E+00 0.  1.
<mgrwt>
<rscale>  0 0.79605903E+02</rscale>
<asrwt>0</asrwt>
<pdfrwt beam="1">  1        1 0.12878380E-01 0.79605903E+02</pdfrwt>
<pdfrwt beam="2">  1       -2 0.29116732E-02 0.79605903E+02</pdfrwt>
<totfact> 0.14466547E+05</totfact>
</mgrwt>
</event>
<event>
 8    1  0.7756875E-018  0.8009492E+02  0.7818608E-02  0.1328782E+00
          1   -1    0    0  501    0  0.00000000000E+00  0.00000000000E+00  0.47366218628E+02  0.47366218896E+02  0.50400000000E-02 0. -1.
         -2   -1    0    0    0  501 -0.00000000000E+00 -0.00000000000E+00 -0.33859551407E+02  0.33859551503E+02  0.25500000000E-02 0.  1.
        -24    2    1    2    0    0  0.71054273576E-14  0.88817841970E-15  0.13506667221E+02  0.81225770399E+02  0.80094916927E+02 0.  0.
         66    2    3    3    0    0  0.36446144443E+02  0.62092485734E+01 -0.87858950775E+01  0.38053490978E+02  0.20000026798E+01 0.  0.
         13    1    3    3    0    0 -0.36446144443E+02 -0.62092485734E+01  0.22292562298E+02  0.43172279421E+02  0.10566000000E+00 0. -1.
         13    1    4    4    0    0  0.12062742549E+02  0.23831271397E+01 -0.29565460500E+01  0.12646793323E+02  0.10566000000E+00 0. -1.
        -13    1    4    4    0    0  0.20834490654E+02  0.35245515481E+01 -0.44973037520E+01  0.21604059097E+02  0.10566000000E+00 0.  1.
         14    1    4    4    0    0  0.35489112399E+01  0.30156988568E+00 -0.13320452755E+01  0.38026385577E+01  0.00000000000E+00 0. -1.
<mgrwt>
<rscale>  0 0.80094917E+02</rscale>
<asrwt>0</asrwt>
<pdfrwt beam="1">  1        1 0.72871106E-02 0.80094917E+02</pdfrwt>
<pdfrwt beam="2">  1       -2 0.52091617E-02 0.80094917E+02</pdfrwt>
<totfact> 0.13002293E+05</totfact>
</mgrwt>
</event>
<event>
 8    1  0.7756875E-018  0.7891436E+02  0.7818608E-02  0.1332161E+00
         -2   -1    0    0    0  501 -0.00000000000E+00  0.00000000000E+00  0.94444644154E+02  0.94444644188E+02  0.25500000000E-02 0.  1.
          1   -1    0    0  501    0  0.00000000000E+00 -0.00000000000E+00 -0.16484462396E+02  0.16484463166E+02  0.50400000000E-02 0. -1.
        -24    2    1    2    0    0  0.00000000000E+00  0.00000000000E+00  0.77960181758E+02  0.11092910735E+03  0.78914364464E+02 0.  0.
         66    2    3    3    0    0 -0.10338928034E+02 -0.24243978152E+02  0.80232773877E+02  0.84474622885E+02  0.19999995216E+01 0.  0.
         13    1    3    3    0    0  0.10338928034E+02  0.24243978152E+02 -0.22725921194E+01  0.26454484469E+02  0.10566000000E+00 0. -1.
         13    1    4    4    0    0 -0.23136703666E+01 -0.50094205697E+01  0.15562462975E+02  0.16512079908E+02  0.10566000000E+00 0. -1.
        -13    1    4    4    0    0 -0.74417821474E+01 -0.17447461966E+02  0.57394085929E+02  0.60447384677E+02  0.10566000000E+00 0.  1.
         14    1    4    4    0    0 -0.58347552014E+00 -0.17870956169E+01  0.72762249731E+01  0.75151583007E+01  0.00000000000E+00 0. -1.
<mgrwt>
<rscale>  0 0.78914364E+02</rscale>
<asrwt>0</asrwt>
<pdfrwt beam="1">  1        1 0.25360712E-02 0.78914364E+02</pdfrwt>
<pdfrwt beam="2">  1       -2 0.14529945E-01 0.78914364E+02</pdfrwt>
<totfact> 0.11144246E+05</totfact>
</mgrwt>
</event>
<event>
 8    1  0.7756875E-018  0.7898534E+02  0.7818608E-02  0.1331956E+00
         -2   -1    0    0    0  501 -0.00000000000E+00  0.00000000000E+00  0.29311761694E+03  0.29311761695E+03  0.25500000000E-02 0.  1.
          1   -1    0    0  501    0  0.00000000000E+00 -0.00000000000E+00 -0.53209714970E+01  0.53209738839E+01  0.50400000000E-02 0. -1.
        -24    2    1    2    0    0  0.00000000000E+00  0.71054273576E-14  0.28779664544E+03  0.29843859083E+03  0.78985336432E+02 0.  0.
         66    2    3    3    0    0  0.16236498640E+02  0.35159009558E+02  0.11524313026E+03  0.12159259397E+03  0.19999987336E+01 0.  0.
         13    1    3    3    0    0 -0.16236498640E+02 -0.35159009558E+02  0.17255351518E+03  0.17684599687E+03  0.10566000000E+00 0. -1.
         13    1    4    4    0    0  0.65350408196E+01  0.15996433695E+02  0.52169182260E+02  0.54956595520E+02  0.10566000000E+00 0. -1.
        -13    1    4    4    0    0  0.95415102895E+00  0.24150925837E+01  0.79115795546E+01  0.83275045156E+01  0.10566000000E+00 0.  1.
         14    1    4    4    0    0  0.87473067912E+01  0.16747483279E+02  0.55162368441E+02  0.58308493930E+02  0.00000000000E+00 0. -1.
<mgrwt>
<rscale>  0 0.78985336E+02</rscale>
<asrwt>0</asrwt>
<pdfrwt beam="1">  1        1 0.81861090E-03 0.78985336E+02</pdfrwt>
<pdfrwt beam="2">  1       -2 0.45095034E-01 0.78985336E+02</pdfrwt>
<totfact> 0.73539428E+04</totfact>
</mgrwt>
</event>
<event>
 8    1  0.7756875E-018  0.7814108E+02  0.7818608E-02  0.1334411E+00
          1   -1    0    0  501    0  0.00000000000E+00  0.00000000000E+00  0.59676410046E+02  0.59676410259E+02  0.50400000000E-02 0. -1.
         -2   -1    0    0    0  501 -0.00000000000E+00 -0.00000000000E+00 -0.25579739387E+02  0.25579739514E+02  0.25500000000E-02 0.  1.
        -24    2    1    2    0    0  0.17763568394E-14 -0.44408920985E-15  0.34096670660E+02  0.85256149773E+02  0.78141078339E+02 0.  0.
         66    2    3    3    0    0  0.14625063798E+02  0.37921736368E+01 -0.22221948458E+02  0.26946021190E+02  0.19999981892E+01 0.  0.
         13    1    3    3    0    0 -0.14625063798E+02 -0.37921736368E+01  0.56318619117E+02  0.58310128583E+02  0.10566000000E+00 0. -1.
         13    1    4    4    0    0  0.41132138995E+01  0.81508059189E+00 -0.62947575987E+01  0.75642595286E+01  0.10566000000E+00 0.  1.
        -13    1    4    4    0    0  0.57778663657E+01  0.10493030498E+01 -0.75073633246E+01  0.95318647050E+01  0.10566000000E+00 0. -1.
         14    1    4    4    0    0  0.47339835329E+01  0.19277899952E+01 -0.84198275342E+01  0.98498969569E+01  0.00000000000E+00 0. -1.
<mgrwt>
<rscale>  0 0.78141078E+02</rscale>
<asrwt>0</asrwt>
<pdfrwt beam="1">  1        1 0.91809861E-02 0.78141078E+02</pdfrwt>
<pdfrwt beam="2">  1       -2 0.39353446E-02 0.78141078E+02</pdfrwt>
<totfact> 0.14431143E+05</totfact>
</mgrwt>
</event>
<event>
 8    1  0.7756875E-018  0.8019947E+02  0.7818608E-02  0.1328486E+00
         -2   -1    0    0    0  501 -0.00000000000E+00  0.00000000000E+00  0.26634723605E+03  0.26634723606E+03  0.25500000000E-02 0.  1.
          1   -1    0    0  501    0  0.00000000000E+00 -0.00000000000E+00 -0.60371880710E+01  0.60371901748E+01  0.50400000000E-02 0. -1.
        -24    2    1    2    0    0  0.00000000000E+00  0.00000000000E+00  0.26031004797E+03  0.27238442623E+03  0.80199467439E+02 0.  0.
         66    2    3    3    0    0 -0.93963678942E+01 -0.13987833816E+02  0.25372575691E+03  0.25429256958E+03  0.19999991940E+01 0.  0.
         13    1    3    3    0    0  0.93963678942E+01  0.13987833816E+02  0.65842910637E+01  0.18091856657E+02  0.10566000000E+00 0. -1.
         13    1    4    4    0    0 -0.33647399621E+00 -0.77823707536E-01  0.45581512170E+01  0.45724367499E+01  0.10566000000E+00 0. -1.
        -13    1    4    4    0    0 -0.74766429931E+01 -0.11342229846E+02  0.20485034225E+03  0.20530031723E+03  0.10566000000E+00 0.  1.
         14    1    4    4    0    0 -0.15832509048E+01 -0.25677802620E+01  0.44317263440E+02  0.44419815597E+02  0.00000000000E+00 0. -1.
<mgrwt>
<rscale>  0 0.80199467E+02</rscale>
<asrwt>0</asrwt>
<pdfrwt beam="1">  1        1 0.92879825E-03 0.80199467E+02</pdfrwt>
<pdfrwt beam="2">  1       -2 0.40976502E-01 0.80199467E+02</pdfrwt>
<totfact> 0.74288057E+04</totfact>
</mgrwt>
</event>
<event>
 8    1  0.7756875E-018  0.8195081E+02  0.7818608E-02  0.1323605E+00
          1   -1    0    0  501    0  0.00000000000E+00  0.00000000000E+00  0.14050548089E+02  0.14050548993E+02  0.50400000000E-02 0. -1.
         -2   -1    0    0    0  501 -0.00000000000E+00 -0.00000000000E+00 -0.11949595587E+03  0.11949595590E+03  0.25500000000E-02 0.  1.
        -24    2    1    2    0    0  0.35527136788E-14 -0.35527136788E-14 -0.10544540778E+03  0.13354650489E+03  0.81950808088E+02 0.  0.
         66    2    3    3    0    0  0.30451572779E+02 -0.24924544791E+02 -0.71222966116E+02  0.81395590275E+02  0.19999990131E+01 0.  0.
         13    1    3    3    0    0 -0.30451572779E+02  0.24924544791E+02 -0.34222441667E+02  0.52150914617E+02  0.10566000000E+00 0. -1.
         13    1    4    4    0    0  0.58849126771E+00 -0.23218015583E+00 -0.98807113545E+00  0.11779975387E+01  0.10566000000E+00 0. -1.
        -13    1    4    4    0    0  0.15725354739E+02 -0.12602231903E+02 -0.36572600719E+02  0.41757266649E+02  0.10566000000E+00 0.  1.
         14    1    4    4    0    0  0.14137726772E+02 -0.12090132731E+02 -0.33662294262E+02  0.38460326087E+02  0.00000000000E+00 0. -1.
<mgrwt>
<rscale>  0 0.81950808E+02</rscale>
<asrwt>0</asrwt>
<pdfrwt beam="1">  1        1 0.21616229E-02 0.81950808E+02</pdfrwt>
<pdfrwt beam="2">  1       -2 0.18383993E-01 0.81950808E+02</pdfrwt>
<totfact> 0.95188896E+04</totfact>
</mgrwt>
</event>
<event>
 8    1  0.7756875E-018  0.7836979E+02  0.7818608E-02  0.1333742E+00
          1   -1    0    0  501    0  0.00000000000E+00  0.00000000000E+00  0.88279738550E+01  0.88279752937E+01  0.50400000000E-02 0. -1.
         -2   -1    0    0    0  501 -0.00000000000E+00 -0.00000000000E+00 -0.17393073174E+03  0.17393073176E+03  0.25500000000E-02 0.  1.
        -24    2    1    2    0    0  0.00000000000E+00  0.00000000000E+00 -0.16510275788E+03  0.18275870705E+03  0.78369792281E+02 0.  0.
         66    2    3    3    0    0 -0.21024035325E+02 -0.20244211768E+02 -0.14348830958E+03  0.14644020335E+03  0.19999999193E+01 0.  0.
         13    1    3    3    0    0  0.21024035325E+02  0.20244211768E+02 -0.21614448301E+02  0.36318503698E+02  0.10566000000E+00 0. -1.
         13    1    4    4    0    0 -0.32594189496E+00 -0.18422877479E+00 -0.26037361754E+01  0.26326383092E+01  0.10566000000E+00 0. -1.
        -13    1    4    4    0    0 -0.10860655200E+02 -0.11322063088E+02 -0.76672832289E+02  0.78261595430E+02  0.10566000000E+00 0.  1.
        -14    1    4    4    0    0 -0.98374382302E+01 -0.87379199056E+01 -0.64211741118E+02  0.65545969614E+02  0.00000000000E+00 0.  1.
<mgrwt>
<rscale>  0 0.78369792E+02</rscale>
<asrwt>0</asrwt>
<pdfrwt beam="1">  1        1 0.13581501E-02 0.78369792E+02</pdfrwt>
<pdfrwt beam="2">  1       -2 0.26758572E-01 0.78369792E+02</pdfrwt>
<totfact> 0.94672674E+04</totfact>
</mgrwt>
</event>
<event>
 8    1  0.7756875E-018  0.7984249E+02  0.7818608E-02  0.1329499E+00
          1   -1    0    0  501    0  0.00000000000E+00  0.00000000000E+00  0.19283602423E+02  0.19283603082E+02  0.50400000000E-02 0. -1.
         -2   -1    0    0    0  501 -0.00000000000E+00 -0.00000000000E+00 -0.82645654701E+02  0.82645654740E+02  0.25500000000E-02 0.  1.
        -24    2    1    2    0    0  0.00000000000E+00  0.00000000000E+00 -0.63362052277E+02  0.10192925782E+03  0.79842494521E+02 0.  0.
         66    2    3    3    0    0 -0.28573718290E+02 -0.26178968472E+02 -0.19596059985E+02  0.43471845866E+02  0.20000122292E+01 0.  0.
         13    1    3    3    0    0  0.28573718290E+02  0.26178968472E+02 -0.43765992292E+02  0.58457411955E+02  0.10566000000E+00 0. -1.
         13    1    4    4    0    0 -0.70249139200E+01 -0.66987601283E+01 -0.39952448475E+01  0.10497425792E+02  0.10566000000E+00 0. -1.
        -13    1    4    4    0    0 -0.15994944919E+02 -0.14289494440E+02 -0.11520659273E+02  0.24346758889E+02  0.10566000000E+00 0.  1.
         14    1    4    4    0    0 -0.55538594514E+01 -0.51907139039E+01 -0.40801558647E+01  0.86276611848E+01  0.00000000000E+00 0. -1.
<mgrwt>
<rscale>  0 0.79842495E+02</rscale>
<asrwt>0</asrwt>
<pdfrwt beam="1">  1        1 0.29667082E-02 0.79842495E+02</pdfrwt>
<pdfrwt beam="2">  1       -2 0.12714716E-01 0.79842495E+02</pdfrwt>
<totfact> 0.11152912E+05</totfact>
</mgrwt>
</event>
<event>
 8    1  0.7756875E-018  0.7991987E+02  0.7818608E-02  0.1329279E+00
          1   -1    0    0  501    0  0.00000000000E+00  0.00000000000E+00  0.18939274120E+03  0.18939274126E+03  0.50400000000E-02 0. -1.
         -2   -1    0    0    0  501 -0.00000000000E+00 -0.00000000000E+00 -0.84311371612E+01  0.84311375468E+01  0.25500000000E-02 0.  1.
        -24    2    1    2    0    0 -0.35527136788E-14  0.35527136788E-14  0.18096160404E+03  0.19782387881E+03  0.79919865444E+02 0.  0.
         66    2    3    3    0    0 -0.25222568217E+02  0.26717700662E+02  0.51810654633E+02  0.63548071713E+02  0.20000022008E+01 0.  0.
         13    1    3    3    0    0  0.25222568217E+02 -0.26717700662E+02  0.12915094940E+03  0.13427580710E+03  0.10566000000E+00 0. -1.
         13    1    4    4    0    0 -0.16651996864E+01  0.17134848232E+01  0.29487800507E+01  0.37967602054E+01  0.10566000000E+00 0. -1.
        -13    1    4    4    0    0 -0.32683679951E+01  0.39575018462E+01  0.81105608753E+01  0.95987713777E+01  0.10566000000E+00 0.  1.
        -14    1    4    4    0    0 -0.20289000535E+02  0.21046713993E+02  0.40751313707E+02  0.50152540130E+02  0.00000000000E+00 0.  1.
<mgrwt>
<rscale>  0 0.79919865E+02</rscale>
<asrwt>0</asrwt>
<pdfrwt beam="1">  1        1 0.29137346E-01 0.79919865E+02</pdfrwt>
<pdfrwt beam="2">  1       -2 0.12970980E-02 0.79919865E+02</pdfrwt>
<totfact> 0.16543003E+05</totfact>
</mgrwt>
</event>
<event>
 8    1  0.7756875E-018  0.7838132E+02  0.7818608E-02  0.1333709E+00
          1   -1    0    0  501    0  0.00000000000E+00  0.00000000000E+00  0.90617827086E+01  0.90617841102E+01  0.50400000000E-02 0. -1.
         -2   -1    0    0    0  501 -0.00000000000E+00 -0.00000000000E+00 -0.16949286521E+03  0.16949286523E+03  0.25500000000E-02 0.  1.
        -24    2    1    2    0    0  0.00000000000E+00  0.71054273576E-14 -0.16043108250E+03  0.17855464934E+03  0.78381315172E+02 0.  0.
         66    2    3    3    0    0  0.50212847064E+01 -0.37029501739E+02 -0.10698036648E+03  0.11333664947E+03  0.20000006790E+01 0.  0.
         13    1    3    3    0    0 -0.50212847064E+01  0.37029501739E+02 -0.53450716023E+02  0.65217999866E+02  0.10566000000E+00 0. -1.
         13    1    4    4    0    0 -0.10140272516E+00 -0.33766628229E+00 -0.10504853610E+01  0.11130968332E+01  0.10566000000E+00 0. -1.
        -13    1    4    4    0    0  0.49916687080E+01 -0.36221298455E+02 -0.10440981542E+03  0.11062694038E+03  0.10566000000E+00 0.  1.
        -14    1    4    4    0    0  0.13101872349E+00 -0.47053700233E+00 -0.15200656955E+01  0.15966122557E+01  0.00000000000E+00 0.  1.
<mgrwt>
<rscale>  0 0.78381315E+02</rscale>
<asrwt>0</asrwt>
<pdfrwt beam="1">  1        1 0.13941207E-02 0.78381315E+02</pdfrwt>
<pdfrwt beam="2">  1       -2 0.26075823E-01 0.78381315E+02</pdfrwt>
<totfact> 0.95525708E+04</totfact>
</mgrwt>
</event>
<event>
 8    1  0.7756875E-018  0.8022224E+02  0.7818608E-02  0.1328422E+00
         -2   -1    0    0    0  501 -0.00000000000E+00  0.00000000000E+00  0.12019134865E+02  0.12019135135E+02  0.25500000000E-02 0.  1.
          1   -1    0    0  501    0  0.00000000000E+00 -0.00000000000E+00 -0.13386170863E+03  0.13386170873E+03  0.50400000000E-02 0. -1.
        -24    2    1    2    0    0  0.22204460493E-15  0.00000000000E+00 -0.12184257377E+03  0.14588084386E+03  0.80222240207E+02 0.  0.
         66    2    3    3    0    0  0.10034803259E+01  0.33569591290E+02 -0.21161270722E+02  0.39745739495E+02  0.19999993289E+01 0.  0.
         13    1    3    3    0    0 -0.10034803259E+01 -0.33569591290E+02 -0.10068130304E+03  0.10613510437E+03  0.10566000000E+00 0. -1.
         13    1    4    4    0    0  0.12456639435E+01  0.16928735844E+02 -0.10517538515E+02  0.19969064986E+02  0.10566000000E+00 0. -1.
        -13    1    4    4    0    0 -0.13971517553E+00  0.15292212850E+02 -0.10047967834E+02  0.18298746291E+02  0.10566000000E+00 0.  1.
         14    1    4    4    0    0 -0.10246844209E+00  0.13486425953E+01 -0.59576437221E+00  0.14779282184E+01  0.00000000000E+00 0. -1.
<mgrwt>
<rscale>  0 0.80222240E+02</rscale>
<asrwt>0</asrwt>
<pdfrwt beam="1">  1        1 0.20594108E-01 0.80222240E+02</pdfrwt>
<pdfrwt beam="2">  1       -2 0.18490978E-02 0.80222240E+02</pdfrwt>
<totfact> 0.15349578E+05</totfact>
</mgrwt>
</event>
<event>
 8    1  0.7756875E-018  0.7816031E+02  0.7818608E-02  0.1334355E+00
         -2   -1    0    0    0  501 -0.00000000000E+00  0.00000000000E+00  0.11582960318E+02  0.11582960598E+02  0.25500000000E-02 0.  1.
          1   -1    0    0  501    0  0.00000000000E+00 -0.00000000000E+00 -0.13185391074E+03  0.13185391084E+03  0.50400000000E-02 0. -1.
        -24    2    1    2    0    0  0.00000000000E+00  0.00000000000E+00 -0.12027095042E+03  0.14343687144E+03  0.78160313277E+02 0.  0.
         66    2    3    3    0    0 -0.52526951704E+01 -0.27766136442E+02 -0.10703425086E+02  0.30283864794E+02  0.20000047078E+01 0.  0.
         13    1    3    3    0    0  0.52526951704E+01  0.27766136442E+02 -0.10956752534E+03  0.11315300664E+03  0.10566000000E+00 0. -1.
         13    1    4    4    0    0 -0.60519473334E+00 -0.25127353988E+01 -0.72550719202E+00  0.26865637106E+01  0.10566000000E+00 0. -1.
        -13    1    4    4    0    0 -0.43574037331E+01 -0.20906488578E+02 -0.86677466162E+01  0.23047976645E+02  0.10566000000E+00 0.  1.
        -14    1    4    4    0    0 -0.29009670390E+00 -0.43469124648E+01 -0.13101712780E+01  0.45493244391E+01  0.00000000000E+00 0.  1.
<mgrwt>
<rscale>  0 0.78160313E+02</rscale>
<asrwt>0</asrwt>
<pdfrwt beam="1">  1        1 0.20285216E-01 0.78160313E+02</pdfrwt>
<pdfrwt beam="2">  1       -2 0.17819940E-02 0.78160313E+02</pdfrwt>
<totfact> 0.16413166E+05</totfact>
</mgrwt>
</event>
<event>
 8    1  0.7756875E-018  0.8180405E+02  0.7818608E-02  0.1324008E+00
          1   -1    0    0  501    0  0.00000000000E+00  0.00000000000E+00  0.28102880205E+02  0.28102880657E+02  0.50400000000E-02 0. -1.
         -2   -1    0    0    0  501 -0.00000000000E+00 -0.00000000000E+00 -0.59530396005E+02  0.59530396059E+02  0.25500000000E-02 0.  1.
        -24    2    1    2    0    0  0.44408920985E-15  0.00000000000E+00 -0.31427515799E+02  0.87633276717E+02  0.81804049037E+02 0.  0.
         66    2    3    3    0    0 -0.18120142382E+01 -0.36196708344E+02 -0.35977715685E+02  0.51106566304E+02  0.20000007502E+01 0.  0.
         13    1    3    3    0    0  0.18120142382E+01  0.36196708344E+02  0.45501998853E+01  0.36526710412E+02  0.10566000000E+00 0. -1.
         13    1    4    4    0    0 -0.10223129370E+00 -0.35428949894E+01 -0.42460504210E+01  0.55319674942E+01  0.10566000000E+00 0. -1.
        -13    1    4    4    0    0 -0.13642022902E+01 -0.18643698475E+02 -0.18523788482E+02  0.26317113149E+02  0.10566000000E+00 0.  1.
         14    1    4    4    0    0 -0.34558065425E+00 -0.14010114879E+02 -0.13207876782E+02  0.19257485661E+02  0.00000000000E+00 0. -1.
<mgrwt>
<rscale>  0 0.81804049E+02</rscale>
<asrwt>0</asrwt>
<pdfrwt beam="1">  1        1 0.43235201E-02 0.81804049E+02</pdfrwt>
<pdfrwt beam="2">  1       -2 0.91585225E-02 0.81804049E+02</pdfrwt>
<totfact> 0.11206115E+05</totfact>
</mgrwt>
</event>
<event>
 8    1  0.7756875E-018  0.7888856E+02  0.7818608E-02  0.1332235E+00
         -2   -1    0    0    0  501 -0.00000000000E+00  0.00000000000E+00  0.95114365282E+01  0.95114368700E+01  0.25500000000E-02 0.  1.
          1   -1    0    0  501    0  0.00000000000E+00 -0.00000000000E+00 -0.16357688122E+03  0.16357688129E+03  0.50400000000E-02 0. -1.
        -24    2    1    2    0    0  0.35527136788E-14  0.00000000000E+00 -0.15406544469E+03  0.17308831816E+03  0.78888558346E+02 0.  0.
         66    2    3    3    0    0  0.26253976211E+02 -0.28462239750E+02 -0.93276155531E+02  0.10101391772E+03  0.20000062225E+01 0.  0.
         13    1    3    3    0    0 -0.26253976211E+02  0.28462239750E+02 -0.60789289156E+02  0.72074400439E+02  0.10566000000E+00 0. -1.
         13    1    4    4    0    0  0.55477715273E+01 -0.54080925502E+01 -0.17068079372E+02  0.18744485361E+02  0.10566000000E+00 0. -1.
        -13    1    4    4    0    0  0.59249691395E+01 -0.63164866124E+01 -0.20864442834E+02  0.22590692801E+02  0.10566000000E+00 0.  1.
         14    1    4    4    0    0  0.14781235544E+02 -0.16737660587E+02 -0.55343633325E+02  0.59678739562E+02  0.00000000000E+00 0. -1.
<mgrwt>
<rscale>  0 0.78888558E+02</rscale>
<asrwt>0</asrwt>
<pdfrwt beam="1">  1        1 0.25165672E-01 0.78888558E+02</pdfrwt>
<pdfrwt beam="2">  1       -2 0.14632981E-02 0.78888558E+02</pdfrwt>
<totfact> 0.16654490E+05</totfact>
</mgrwt>
</event>
<event>
 8    1  0.7756875E-018  0.7875251E+02  0.7818608E-02  0.1332629E+00
         -2   -1    0    0    0  501 -0.00000000000E+00  0.00000000000E+00  0.41753062234E+02  0.41753062312E+02  0.25500000000E-02 0.  1.
          1   -1    0    0  501    0  0.00000000000E+00 -0.00000000000E+00 -0.37134746745E+02  0.37134747087E+02  0.50400000000E-02 0. -1.
        -24    2    1    2    0    0  0.00000000000E+00  0.00000000000E+00  0.46183154895E+01  0.78887809399E+02  0.78752508746E+02 0.  0.
         66    2    3    3    0    0 -0.24592367341E+02  0.15873124709E+02  0.28656853086E+02  0.41011654984E+02  0.19999990752E+01 0.  0.
         13    1    3    3    0    0  0.24592367341E+02 -0.15873124709E+02 -0.24038537596E+02  0.37876154415E+02  0.10566000000E+00 0. -1.
         13    1    4    4    0    0 -0.20853808203E+01  0.16032730226E+01  0.20955897999E+01  0.33648117623E+01  0.10566000000E+00 0. -1.
        -13    1    4    4    0    0 -0.38284544200E+00  0.22714850322E+00  0.29495016295E+00  0.54435898927E+00  0.10566000000E+00 0.  1.
        -14    1    4    4    0    0 -0.22124141079E+02  0.14042703183E+02  0.26266313123E+02  0.37102484232E+02  0.00000000000E+00 0.  1.
<mgrwt>
<rscale>  0 0.78752509E+02</rscale>
<asrwt>0</asrwt>
<pdfrwt beam="1">  1        1 0.57130380E-02 0.78752509E+02</pdfrwt>
<pdfrwt beam="2">  1       -2 0.64235481E-02 0.78752509E+02</pdfrwt>
<totfact> 0.13113604E+05</totfact>
</mgrwt>
</event>
