<event>
 8    1  0.1241100E-020  0.7993438E+02  0.7818608E-02  0.1329238E+00
          1   -1    0    0  501    0  0.00000000000E+00  0.00000000000E+00  0.11513642575E+03  0.11513642586E+03  0.50400000000E-02 0. -1.
         -2   -1    0    0    0  501 -0.00000000000E+00 -0.00000000000E+00 -0.13873770938E+02  0.13873771172E+02  0.25500000000E-02 0.  1.
        -24    2    1    2    0    0  0.00000000000E+00  0.00000000000E+00  0.10126265482E+03  0.12901019704E+03  0.79934383584E+02 0.  0.
         66    2    3    3    0    0 -0.18706810617E+02 -0.23638292947E+02  0.83707051602E+01  0.31349359789E+02  0.19999993518E+01 0.  0.
         13    1    3    3    0    0  0.18706810617E+02  0.23638292947E+02  0.92891949655E+02  0.97660837246E+02  0.10566000000E+00 0. -1.
         13    1    4    4    0    0 -0.41033864109E+01 -0.53643134804E+01  0.24753262349E+01  0.71938892929E+01  0.10566000000E+00 0. -1.
        -13    1    4    4    0    0 -0.96040416053E+01 -0.12568843930E+02  0.44597495768E+01  0.16435144758E+02  0.10566000000E+00 0.  1.
        -14    1    4    4    0    0 -0.49993826011E+01 -0.57051355364E+01  0.14356293486E+01  0.77203257384E+01  0.00000000000E+00 0.  1.
<mgrwt>
<rscale>  0 0.79934384E+02</rscale>
<asrwt>0</asrwt>
<pdfrwt beam="1">  1        1 0.17713296E-01 0.79934384E+02</pdfrwt>
<pdfrwt beam="2">  1       -2 0.21344264E-02 0.79934384E+02</pdfrwt>
<totfact> 0.15090644E+05</totfact>
</mgrwt>
</event>
<event>
 8    1  0.1241100E-020  0.7831752E+02  0.7818608E-02  0.1333895E+00
          1   -1    0    0  501    0  0.00000000000E+00  0.00000000000E+00  0.17636009649E+02  0.17636010369E+02  0.50400000000E-02 0. -1.
         -2   -1    0    0    0  501 -0.00000000000E+00 -0.00000000000E+00 -0.86947578763E+02  0.86947578800E+02  0.25500000000E-02 0.  1.
        -24    2    1    2    0    0  0.00000000000E+00  0.00000000000E+00 -0.69311569114E+02  0.10458358917E+03  0.78317517265E+02 0.  0.
         66    2    3    3    0    0  0.37499204149E+02  0.52044110539E+01 -0.47906481351E+02  0.61092611342E+02  0.19999997287E+01 0.  0.
         13    1    3    3    0    0 -0.37499204149E+02 -0.52044110539E+01 -0.21405087764E+02  0.43490977828E+02  0.10566000000E+00 0. -1.
         13    1    4    4    0    0  0.17144182231E+02  0.23000120807E+01 -0.21433360907E+02  0.27542933100E+02  0.10566000000E+00 0. -1.
        -13    1    4    4    0    0  0.14325114837E+02  0.14524473941E+01 -0.18059905721E+02  0.23097399793E+02  0.10566000000E+00 0.  1.
         14    1    4    4    0    0  0.60299070809E+01  0.14519515791E+01 -0.84132147225E+01  0.10452278448E+02  0.00000000000E+00 0. -1.
<mgrwt>
<rscale>  0 0.78317517E+02</rscale>
<asrwt>0</asrwt>
<pdfrwt beam="1">  1        1 0.27132324E-02 0.78317517E+02</pdfrwt>
<pdfrwt beam="2">  1       -2 0.13376550E-01 0.78317517E+02</pdfrwt>
<totfact> 0.11583100E+05</totfact>
</mgrwt>
</event>
<event>
 8    1  0.1241100E-020  0.8165857E+02  0.7818608E-02  0.1324409E+00
          1   -1    0    0  501    0  0.00000000000E+00  0.00000000000E+00  0.27923856003E+02  0.27923856457E+02  0.50400000000E-02 0. -1.
         -2   -1    0    0    0  501 -0.00000000000E+00 -0.00000000000E+00 -0.59699151269E+02  0.59699151323E+02  0.25500000000E-02 0.  1.
        -24    2    1    2    0    0 -0.35527136788E-14 -0.71054273576E-14 -0.31775295266E+02  0.87623007780E+02  0.81658570299E+02 0.  0.
         66    2    3    3    0    0  0.18845689054E+02  0.21828082260E+02 -0.46874427785E+02  0.55071200797E+02  0.20000014962E+01 0.  0.
         13    1    3    3    0    0 -0.18845689054E+02 -0.21828082260E+02  0.15099132519E+02  0.32551806984E+02  0.10566000000E+00 0. -1.
         13    1    4    4    0    0  0.42960595899E+01  0.39025841303E+01 -0.90180501646E+01  0.10724862876E+02  0.10566000000E+00 0. -1.
        -13    1    4    4    0    0  0.87524265890E+01  0.10719538953E+02 -0.22056323422E+02  0.26038549373E+02  0.10566000000E+00 0.  1.
         14    1    4    4    0    0  0.57972028754E+01  0.72059591766E+01 -0.15800054198E+02  0.18307788548E+02  0.00000000000E+00 0. -1.
<mgrwt>
<rscale>  0 0.81658570E+02</rscale>
<asrwt>0</asrwt>
<pdfrwt beam="1">  1        1 0.42959779E-02 0.81658570E+02</pdfrwt>
<pdfrwt beam="2">  1       -2 0.91844848E-02 0.81658570E+02</pdfrwt>
<totfact> 0.11250710E+05</totfact>
</mgrwt>
</event>
<event>
 8    1  0.1241100E-020  0.8021345E+02  0.7818608E-02  0.1328447E+00
         -2   -1    0    0    0  501 -0.00000000000E+00  0.00000000000E+00  0.12609485760E+02  0.12609486018E+02  0.25500000000E-02 0.  1.
          1   -1    0    0  501    0  0.00000000000E+00 -0.00000000000E+00 -0.12756660580E+03  0.12756660590E+03  0.50400000000E-02 0. -1.
        -24    2    1    2    0    0  0.00000000000E+00 -0.35527136788E-14 -0.11495712005E+03  0.14017609192E+03  0.80213448358E+02 0.  0.
         66    2    3    3    0    0 -0.26273862643E+02  0.24821822833E+02 -0.27240610459E+02  0.45304410347E+02  0.19999979420E+01 0.  0.
         13    1    3    3    0    0  0.26273862643E+02 -0.24821822833E+02 -0.87716509586E+02  0.94871681575E+02  0.10566000000E+00 0. -1.
         13    1    4    4    0    0 -0.47074413496E+00  0.31502199661E+00 -0.47242506092E+00  0.74510963806E+00  0.10566000000E+00 0. -1.
        -13    1    4    4    0    0 -0.15242395590E+02  0.13565590218E+02 -0.14780369082E+02  0.25195760269E+02  0.10566000000E+00 0.  1.
        -14    1    4    4    0    0 -0.10560722918E+02  0.10941210618E+02 -0.11987816317E+02  0.19363540440E+02  0.00000000000E+00 0.  1.
<mgrwt>
<rscale>  0 0.80213448E+02</rscale>
<asrwt>0</asrwt>
<pdfrwt beam="1">  1        1 0.19625631E-01 0.80213448E+02</pdfrwt>
<pdfrwt beam="2">  1       -2 0.19399210E-02 0.80213448E+02</pdfrwt>
<totfact> 0.15222035E+05</totfact>
</mgrwt>
</event>
<event>
 8    1  0.1241100E-020  0.7725391E+02  0.7818608E-02  0.1337030E+00
          1   -1    0    0  501    0  0.00000000000E+00  0.00000000000E+00  0.25521692152E+03  0.25521692157E+03  0.50400000000E-02 0. -1.
         -2   -1    0    0    0  501 -0.00000000000E+00 -0.00000000000E+00 -0.58461696058E+01  0.58461701620E+01  0.25500000000E-02 0.  1.
        -24    2    1    2    0    0  0.00000000000E+00  0.00000000000E+00  0.24937075191E+03  0.26106309173E+03  0.77253905754E+02 0.  0.
         66    2    3    3    0    0 -0.32370162745E+01 -0.32788256320E+02  0.56804832124E+02  0.65698835391E+02  0.19999980570E+01 0.  0.
         13    1    3    3    0    0  0.32370162745E+01  0.32788256320E+02  0.19256591979E+03  0.19536425634E+03  0.10566000000E+00 0. -1.
         13    1    4    4    0    0 -0.72823285227E+00 -0.67371542042E+01  0.12760179105E+02  0.14448283797E+02  0.10566000000E+00 0. -1.
        -13    1    4    4    0    0 -0.21729135928E+01 -0.24391518443E+02  0.41693520168E+02  0.48353164461E+02  0.10566000000E+00 0.  1.
         14    1    4    4    0    0 -0.33586982949E+00 -0.16595836734E+01  0.23511328522E+01  0.28973871333E+01  0.00000000000E+00 0. -1.
<mgrwt>
<rscale>  0 0.77253906E+02</rscale>
<asrwt>0</asrwt>
<pdfrwt beam="1">  1        1 0.39264136E-01 0.77253906E+02</pdfrwt>
<pdfrwt beam="2">  1       -2 0.89941088E-03 0.77253906E+02</pdfrwt>
<totfact> 0.19173196E+05</totfact>
</mgrwt>
</event>
<event>
 8    1  0.1241100E-020  0.8096674E+02  0.7818608E-02  0.1326330E+00
         -2   -1    0    0    0  501 -0.00000000000E+00  0.00000000000E+00  0.33083685919E+02  0.33083686017E+02  0.25500000000E-02 0.  1.
          1   -1    0    0  501    0  0.00000000000E+00 -0.00000000000E+00 -0.49538112594E+02  0.49538112851E+02  0.50400000000E-02 0. -1.
        -24    2    1    2    0    0  0.17763568394E-14  0.00000000000E+00 -0.16454426676E+02  0.82621798868E+02  0.80966743117E+02 0.  0.
         66    2    3    3    0    0 -0.12248998648E+02 -0.36191791260E+02  0.53444302979E+01  0.38632197234E+02  0.20000013473E+01 0.  0.
         13    1    3    3    0    0  0.12248998648E+02  0.36191791260E+02 -0.21798856974E+02  0.43989601634E+02  0.10566000000E+00 0. -1.
         13    1    4    4    0    0 -0.11996089582E+01 -0.35047287310E+01  0.94004890308E+00  0.38232239153E+01  0.10566000000E+00 0. -1.
        -13    1    4    4    0    0 -0.93891544755E+01 -0.26305681896E+02  0.37740678783E+01  0.28185100216E+02  0.10566000000E+00 0.  1.
         14    1    4    4    0    0 -0.16602352144E+01 -0.63813806330E+01  0.63031351652E+00  0.66238731027E+01  0.00000000000E+00 0. -1.
<mgrwt>
<rscale>  0 0.80966743E+02</rscale>
<asrwt>0</asrwt>
<pdfrwt beam="1">  1        1 0.76212482E-02 0.80966743E+02</pdfrwt>
<pdfrwt beam="2">  1       -2 0.50897978E-02 0.80966743E+02</pdfrwt>
<totfact> 0.12705553E+05</totfact>
</mgrwt>
</event>
<event>
 8    1  0.1241100E-020  0.7939911E+02  0.7818608E-02  0.1330765E+00
         -2   -1    0    0    0  501 -0.00000000000E+00  0.00000000000E+00  0.23173165762E+02  0.23173165903E+02  0.25500000000E-02 0.  1.
          1   -1    0    0  501    0  0.00000000000E+00 -0.00000000000E+00 -0.68012064560E+02  0.68012064747E+02  0.50400000000E-02 0. -1.
        -24    2    1    2    0    0 -0.88817841970E-15  0.71054273576E-14 -0.44838898798E+02  0.91185230649E+02  0.79399114877E+02 0.  0.
         66    2    3    3    0    0  0.61462478809E+01 -0.39171970953E+02 -0.20879949524E+02  0.44857462673E+02  0.19999984939E+01 0.  0.
         13    1    3    3    0    0 -0.61462478809E+01  0.39171970953E+02 -0.23958949273E+02  0.46327767976E+02  0.10566000000E+00 0. -1.
         13    1    4    4    0    0  0.49917153730E+00 -0.59664304302E+01 -0.32354323836E+01  0.68063684184E+01  0.10566000000E+00 0. -1.
        -13    1    4    4    0    0  0.17492713737E+01 -0.83029431506E+01 -0.38639277908E+01  0.93241577265E+01  0.10566000000E+00 0.  1.
         14    1    4    4    0    0  0.38978049699E+01 -0.24902597372E+02 -0.13780589350E+02  0.28726936528E+02  0.00000000000E+00 0. -1.
<mgrwt>
<rscale>  0 0.79399115E+02</rscale>
<asrwt>0</asrwt>
<pdfrwt beam="1">  1        1 0.10463394E-01 0.79399115E+02</pdfrwt>
<pdfrwt beam="2">  1       -2 0.35651025E-02 0.79399115E+02</pdfrwt>
<totfact> 0.14095808E+05</totfact>
</mgrwt>
</event>
<event>
 8    1  0.1241100E-020  0.8826668E+02  0.7818608E-02  0.1307104E+00
         -2   -1    0    0    0  501 -0.00000000000E+00  0.00000000000E+00  0.13204561829E+02  0.13204562075E+02  0.25500000000E-02 0.  1.
          1   -1    0    0  501    0  0.00000000000E+00 -0.00000000000E+00 -0.14750595806E+03  0.14750595815E+03  0.50400000000E-02 0. -1.
        -24    2    1    2    0    0 -0.35527136788E-14  0.00000000000E+00 -0.13430139623E+03  0.16071052022E+03  0.88266677065E+02 0.  0.
         66    2    3    3    0    0  0.23979323994E+02  0.36191802175E+02 -0.52977254424E+02  0.68523309999E+02  0.20000007548E+01 0.  0.
         13    1    3    3    0    0 -0.23979323994E+02 -0.36191802175E+02 -0.81324141811E+02  0.92187210225E+02  0.10566000000E+00 0. -1.
         13    1    4    4    0    0  0.19287258987E+02  0.27823811188E+02 -0.41565337219E+02  0.53608313258E+02  0.10566000000E+00 0.  1.
        -13    1    4    4    0    0  0.40406592136E+01  0.74772385283E+01 -0.10114023399E+02  0.13211383585E+02  0.10566000000E+00 0. -1.
         14    1    4    4    0    0  0.65140579278E+00  0.89075245866E+00 -0.12978938070E+01  0.17036131555E+01  0.00000000000E+00 0. -1.
<mgrwt>
<rscale>  0 0.88266677E+02</rscale>
<asrwt>0</asrwt>
<pdfrwt beam="1">  1        1 0.22693223E-01 0.88266677E+02</pdfrwt>
<pdfrwt beam="2">  1       -2 0.20314712E-02 0.88266677E+02</pdfrwt>
<totfact> 0.12082627E+05</totfact>
</mgrwt>
</event>
<event>
 8    1  0.1241100E-020  0.7960905E+02  0.7818608E-02  0.1330165E+00
         -2   -1    0    0    0  501 -0.00000000000E+00  0.00000000000E+00  0.25249375873E+02  0.25249376002E+02  0.25500000000E-02 0.  1.
          1   -1    0    0  501    0  0.00000000000E+00 -0.00000000000E+00 -0.62750067071E+02  0.62750067273E+02  0.50400000000E-02 0. -1.
        -24    2    1    2    0    0 -0.17763568394E-14  0.00000000000E+00 -0.37500691198E+02  0.87999443275E+02  0.79609045820E+02 0.  0.
         66    2    3    3    0    0  0.66990621415E+01  0.39211061413E+02 -0.18649865695E+02  0.43979566436E+02  0.20000006986E+01 0.  0.
         13    1    3    3    0    0 -0.66990621415E+01 -0.39211061413E+02 -0.18850825504E+02  0.44019876839E+02  0.10566000000E+00 0. -1.
         13    1    4    4    0    0  0.69323193394E+00  0.22982181106E+01 -0.11410999775E+01  0.26600094346E+01  0.10566000000E+00 0.  1.
        -13    1    4    4    0    0  0.54407700952E+01  0.30871698918E+02 -0.14289484288E+02  0.34450896919E+02  0.10566000000E+00 0.  1.
         14    1    4    4    0    0  0.56506011236E+00  0.60411443846E+01 -0.32192814296E+01  0.68686600825E+01  0.00000000000E+00 0. -1.
<mgrwt>
<rscale>  0 0.79609046E+02</rscale>
<asrwt>0</asrwt>
<pdfrwt beam="1">  1        1 0.96538565E-02 0.79609046E+02</pdfrwt>
<pdfrwt beam="2">  1       -2 0.38845194E-02 0.79609046E+02</pdfrwt>
<totfact> 0.13818760E+05</totfact>
</mgrwt>
</event>
<event>
 8    1  0.1241100E-020  0.8006153E+02  0.7818608E-02  0.1328877E+00
          1   -1    0    0  501    0  0.00000000000E+00  0.00000000000E+00  0.40706502658E+03  0.40706502662E+03  0.50400000000E-02 0. -1.
         -2   -1    0    0    0  501 -0.00000000000E+00 -0.00000000000E+00 -0.39366243155E+01  0.39366251414E+01  0.25500000000E-02 0.  1.
        -24    2    1    2    0    0  0.00000000000E+00  0.35527136788E-14  0.40312840227E+03  0.41100165176E+03  0.80061532780E+02 0.  0.
         66    2    3    3    0    0  0.18735084371E+02  0.25507118370E+02  0.32731442812E+03  0.32884700299E+03  0.20000112575E+01 0.  0.
         13    1    3    3    0    0 -0.18735084371E+02 -0.25507118370E+02  0.75813974145E+02  0.82154648764E+02  0.10566000000E+00 0. -1.
         13    1    4    4    0    0  0.87565359281E+01  0.11824645652E+02  0.14686889253E+03  0.14760413925E+03  0.10566000000E+00 0. -1.
        -13    1    4    4    0    0  0.85074401810E+01  0.11724915693E+02  0.14927223228E+03  0.14997353326E+03  0.10566000000E+00 0.  1.
         14    1    4    4    0    0  0.14711082620E+01  0.19575570245E+01  0.31173303311E+02  0.31269330475E+02  0.00000000000E+00 0. -1.
<mgrwt>
<rscale>  0 0.80061533E+02</rscale>
<asrwt>0</asrwt>
<pdfrwt beam="1">  1        1 0.62625424E-01 0.80061533E+02</pdfrwt>
<pdfrwt beam="2">  1       -2 0.60563423E-03 0.80061533E+02</pdfrwt>
<totfact> 0.19009083E+05</totfact>
</mgrwt>
</event>
<event>
 8    1  0.1241100E-020  0.8165218E+02  0.7818608E-02  0.1324427E+00
          1   -1    0    0  501    0  0.00000000000E+00  0.00000000000E+00  0.13592192841E+02  0.13592193775E+02  0.50400000000E-02 0. -1.
         -2   -1    0    0    0  501 -0.00000000000E+00 -0.00000000000E+00 -0.12262697286E+03  0.12262697289E+03  0.25500000000E-02 0.  1.
        -24    2    1    2    0    0  0.00000000000E+00  0.00000000000E+00 -0.10903478002E+03  0.13621916666E+03  0.81652177633E+02 0.  0.
         66    2    3    3    0    0 -0.20247229803E+02  0.27363712892E+02 -0.92078704888E+02  0.98189668298E+02  0.19999922153E+01 0.  0.
         13    1    3    3    0    0  0.20247229803E+02 -0.27363712892E+02 -0.16956075133E+02  0.38029498365E+02  0.10566000000E+00 0. -1.
         13    1    4    4    0    0 -0.50766472477E+01  0.56921444765E+01 -0.19949963654E+02  0.21358489410E+02  0.10566000000E+00 0. -1.
        -13    1    4    4    0    0 -0.77793211718E+01  0.10431400354E+02 -0.35185235946E+02  0.37514583082E+02  0.10566000000E+00 0.  1.
         14    1    4    4    0    0 -0.73912613834E+01  0.11240168062E+02 -0.36943505288E+02  0.39316595807E+02  0.00000000000E+00 0. -1.
<mgrwt>
<rscale>  0 0.81652178E+02</rscale>
<asrwt>0</asrwt>
<pdfrwt beam="1">  1        1 0.20911068E-02 0.81652178E+02</pdfrwt>
<pdfrwt beam="2">  1       -2 0.18865687E-01 0.81652178E+02</pdfrwt>
<totfact> 0.95385625E+04</totfact>
</mgrwt>
</event>
<event>
 8    1  0.1241100E-020  0.8020991E+02  0.7818608E-02  0.1328457E+00
         -2   -1    0    0    0  501 -0.00000000000E+00  0.00000000000E+00  0.38146472868E+02  0.38146472954E+02  0.25500000000E-02 0.  1.
          1   -1    0    0  501    0  0.00000000000E+00 -0.00000000000E+00 -0.42163987347E+02  0.42163987648E+02  0.50400000000E-02 0. -1.
        -24    2    1    2    0    0  0.17763568394E-14  0.00000000000E+00 -0.40175144783E+01  0.80310460601E+02  0.80209909983E+02 0.  0.
         66    2    3    3    0    0 -0.85284012682E+01  0.22237587716E+02  0.30266389794E+02  0.38565506514E+02  0.20000014786E+01 0.  0.
         13    1    3    3    0    0  0.85284012682E+01 -0.22237587716E+02 -0.34283904272E+02  0.41744954088E+02  0.10566000000E+00 0. -1.
         13    1    4    4    0    0 -0.90489455140E+00  0.12221809645E+01  0.21214353151E+01  0.26123193317E+01  0.10566000000E+00 0. -1.
        -13    1    4    4    0    0 -0.48586188197E+01  0.12744793321E+02  0.17721843106E+02  0.22363157665E+02  0.10566000000E+00 0.  1.
         14    1    4    4    0    0 -0.27648878971E+01  0.82706134300E+01  0.10423111373E+02  0.13590029517E+02  0.00000000000E+00 0. -1.
<mgrwt>
<rscale>  0 0.80209910E+02</rscale>
<asrwt>0</asrwt>
<pdfrwt beam="1">  1        1 0.64867674E-02 0.80209910E+02</pdfrwt>
<pdfrwt beam="2">  1       -2 0.58686881E-02 0.80209910E+02</pdfrwt>
<totfact> 0.12712104E+05</totfact>
</mgrwt>
</event>
<event>
 8    1  0.1241100E-020  0.8222945E+02  0.7818608E-02  0.1322841E+00
          1   -1    0    0  501    0  0.00000000000E+00  0.00000000000E+00  0.99392207438E+02  0.99392207566E+02  0.50400000000E-02 0. -1.
         -2   -1    0    0    0  501 -0.00000000000E+00 -0.00000000000E+00 -0.17007575867E+02  0.17007576058E+02  0.25500000000E-02 0.  1.
        -24    2    1    2    0    0 -0.88817841970E-15 -0.35527136788E-14  0.82384631571E+02  0.11639978362E+03  0.82229447940E+02 0.  0.
         66    2    3    3    0    0  0.65069046491E+01  0.20427847197E+02 -0.84039429611E+01  0.23114129963E+02  0.19999993600E+01 0.  0.
         13    1    3    3    0    0 -0.65069046491E+01 -0.20427847197E+02  0.90788574532E+02  0.93285653661E+02  0.10566000000E+00 0. -1.
         13    1    4    4    0    0  0.30739530504E+01  0.90244754706E+01 -0.44639365895E+01  0.10527499171E+02  0.10566000000E+00 0.  1.
        -13    1    4    4    0    0 -0.62499502960E-02  0.32813782105E+00 -0.21411214970E+00  0.40585901460E+00  0.10566000000E+00 0. -1.
        -14    1    4    4    0    0  0.34392015490E+01  0.11075233905E+02 -0.37258942219E+01  0.12180771778E+02  0.00000000000E+00 0.  1.
<mgrwt>
<rscale>  0 0.82229448E+02</rscale>
<asrwt>0</asrwt>
<pdfrwt beam="1">  1        1 0.15291109E-01 0.82229448E+02</pdfrwt>
<pdfrwt beam="2">  1       -2 0.26165502E-02 0.82229448E+02</pdfrwt>
<totfact> 0.13630722E+05</totfact>
</mgrwt>
</event>
<event>
 8    1  0.1241100E-020  0.7882052E+02  0.7818608E-02  0.1332432E+00
          1   -1    0    0  501    0  0.00000000000E+00  0.00000000000E+00  0.17292804599E+03  0.17292804606E+03  0.50400000000E-02 0. -1.
         -2   -1    0    0    0  501 -0.00000000000E+00 -0.00000000000E+00 -0.89815881317E+01  0.89815884936E+01  0.25500000000E-02 0.  1.
        -24    2    1    2    0    0  0.00000000000E+00 -0.17763568394E-14  0.16394645786E+03  0.18190963456E+03  0.78820518270E+02 0.  0.
         66    2    3    3    0    0 -0.34083289548E+02 -0.10131920882E+02  0.42938700665E+02  0.55785826685E+02  0.19999992369E+01 0.  0.
         13    1    3    3    0    0  0.34083289548E+02  0.10131920882E+02  0.12100775719E+03  0.12612380787E+03  0.10566000000E+00 0. -1.
         13    1    4    4    0    0 -0.40309506345E+01 -0.10394483302E+01  0.41267624085E+01  0.58626229506E+01  0.10566000000E+00 0. -1.
        -13    1    4    4    0    0 -0.21862545704E+02 -0.67760099583E+01  0.28230541688E+02  0.36343635807E+02  0.10566000000E+00 0.  1.
         14    1    4    4    0    0 -0.81897932099E+01 -0.23164625933E+01  0.10581396569E+02  0.13579567928E+02  0.00000000000E+00 0. -1.
<mgrwt>
<rscale>  0 0.78820518E+02</rscale>
<asrwt>0</asrwt>
<pdfrwt beam="1">  1        1 0.26604314E-01 0.78820518E+02</pdfrwt>
<pdfrwt beam="2">  1       -2 0.13817829E-02 0.78820518E+02</pdfrwt>
<totfact> 0.16867830E+05</totfact>
</mgrwt>
</event>
<event>
 8    1  0.1241100E-020  0.8042630E+02  0.7818608E-02  0.1327846E+00
         -2   -1    0    0    0  501 -0.00000000000E+00  0.00000000000E+00  0.83415694019E+02  0.83415694058E+02  0.25500000000E-02 0.  1.
          1   -1    0    0  501    0  0.00000000000E+00 -0.00000000000E+00 -0.19386008381E+02  0.19386009036E+02  0.50400000000E-02 0. -1.
        -24    2    1    2    0    0  0.71054273576E-14 -0.11102230246E-15  0.64029685638E+02  0.10280170309E+03  0.80426298660E+02 0.  0.
         66    2    3    3    0    0 -0.40180841530E+02 -0.70619673561E+00  0.32425802452E+02  0.51676216921E+02  0.19999976764E+01 0.  0.
         13    1    3    3    0    0  0.40180841530E+02  0.70619673561E+00  0.31603883186E+02  0.51125486173E+02  0.10566000000E+00 0. -1.
         13    1    4    4    0    0 -0.51986370423E+01 -0.29480048268E+00  0.44497378401E+01  0.68501142548E+01  0.10566000000E+00 0.  1.
        -13    1    4    4    0    0 -0.24409318356E+02  0.32603693054E+00  0.20090049685E+02  0.31615540215E+02  0.10566000000E+00 0. -1.
        -14    1    4    4    0    0 -0.10572886132E+02 -0.73743318348E+00  0.78860149263E+01  0.13210562452E+02  0.00000000000E+00 0.  1.
<mgrwt>
<rscale>  0 0.80426299E+02</rscale>
<asrwt>0</asrwt>
<pdfrwt beam="1">  1        1 0.29824628E-02 0.80426299E+02</pdfrwt>
<pdfrwt beam="2">  1       -2 0.12833184E-01 0.80426299E+02</pdfrwt>
<totfact> 0.10925187E+05</totfact>
</mgrwt>
</event>
<event>
 8    1  0.1241100E-020  0.8019888E+02  0.7818608E-02  0.1328488E+00
         -2   -1    0    0    0  501 -0.00000000000E+00  0.00000000000E+00  0.12219260413E+03  0.12219260416E+03  0.25500000000E-02 0.  1.
          1   -1    0    0  501    0  0.00000000000E+00 -0.00000000000E+00 -0.13159267523E+02  0.13159268489E+02  0.50400000000E-02 0. -1.
        -24    2    1    2    0    0  0.00000000000E+00  0.00000000000E+00  0.10903333661E+03  0.13535187265E+03  0.80198883639E+02 0.  0.
         66    2    3    3    0    0 -0.33237777747E+01  0.26170992621E+02  0.10546183953E+03  0.10872979330E+03  0.19999998888E+01 0.  0.
         13    1    3    3    0    0  0.33237777747E+01 -0.26170992621E+02  0.35714970759E+01  0.26622079349E+02  0.10566000000E+00 0. -1.
         13    1    4    4    0    0 -0.13787950106E+01  0.11517117504E+02  0.49122174203E+02  0.50473203125E+02  0.10566000000E+00 0. -1.
        -13    1    4    4    0    0 -0.79916364414E+00  0.81311554249E+01  0.32878756075E+02  0.33878874186E+02  0.10566000000E+00 0.  1.
         14    1    4    4    0    0 -0.11458191199E+01  0.65227196918E+01  0.23460909253E+02  0.24377715985E+02  0.00000000000E+00 0. -1.
<mgrwt>
<rscale>  0 0.80198884E+02</rscale>
<asrwt>0</asrwt>
<pdfrwt beam="1">  1        1 0.20245028E-02 0.80198884E+02</pdfrwt>
<pdfrwt beam="2">  1       -2 0.18798862E-01 0.80198884E+02</pdfrwt>
<totfact> 0.99990567E+04</totfact>
</mgrwt>
</event>
<event>
 8    1  0.1241100E-020  0.7529073E+02  0.7818608E-02  0.1342973E+00
          1   -1    0    0  501    0  0.00000000000E+00  0.00000000000E+00  0.17381057716E+03  0.17381057723E+03  0.50400000000E-02 0. -1.
         -2   -1    0    0    0  501 -0.00000000000E+00 -0.00000000000E+00 -0.81535518927E+01  0.81535522915E+01  0.25500000000E-02 0.  1.
        -24    2    1    2    0    0 -0.35527136788E-14 -0.35527136788E-14  0.16565702526E+03  0.18196412952E+03  0.75290732584E+02 0.  0.
         66    2    3    3    0    0 -0.23890599851E+02 -0.16134058230E+02  0.24476701204E+02  0.37870536111E+02  0.20000018302E+01 0.  0.
         13    1    3    3    0    0  0.23890599851E+02  0.16134058230E+02  0.14118032406E+03  0.14409359341E+03  0.10566000000E+00 0. -1.
         13    1    4    4    0    0 -0.57106935381E+01 -0.41096817340E+01  0.52450918112E+01  0.87763122542E+01  0.10566000000E+00 0. -1.
        -13    1    4    4    0    0 -0.12805840703E+02 -0.80463206873E+01  0.13918571277E+02  0.20554090180E+02  0.10566000000E+00 0.  1.
        -14    1    4    4    0    0 -0.53740656095E+01 -0.39780558087E+01  0.53130381164E+01  0.85401336769E+01  0.00000000000E+00 0.  1.
<mgrwt>
<rscale>  0 0.75290733E+02</rscale>
<asrwt>0</asrwt>
<pdfrwt beam="1">  1        1 0.26740089E-01 0.75290733E+02</pdfrwt>
<pdfrwt beam="2">  1       -2 0.12543926E-02 0.75290733E+02</pdfrwt>
<totfact> 0.19064598E+05</totfact>
</mgrwt>
</event>
<event>
 8    1  0.1241100E-020  0.8011979E+02  0.7818608E-02  0.1328712E+00
          1   -1    0    0  501    0  0.00000000000E+00  0.00000000000E+00  0.28694540533E+03  0.28694540537E+03  0.50400000000E-02 0. -1.
         -2   -1    0    0    0  501 -0.00000000000E+00 -0.00000000000E+00 -0.55926837859E+01  0.55926843672E+01  0.25500000000E-02 0.  1.
        -24    2    1    2    0    0 -0.71054273576E-14  0.17763568394E-14  0.28135272154E+03  0.29253808974E+03  0.80119785505E+02 0.  0.
         66    2    3    3    0    0 -0.33927613494E+02  0.12409445619E+02  0.77763657941E+02  0.85768664340E+02  0.19999971024E+01 0.  0.
         13    1    3    3    0    0  0.33927613494E+02 -0.12409445619E+02  0.20358906360E+03  0.20676942540E+03  0.10566000000E+00 0. -1.
         13    1    4    4    0    0 -0.14349679012E+02  0.45036321631E+01  0.33319285161E+02  0.36556557799E+02  0.10566000000E+00 0.  1.
        -13    1    4    4    0    0 -0.12166423511E+02  0.48269351902E+01  0.26606480190E+02  0.29651932762E+02  0.10566000000E+00 0. -1.
         14    1    4    4    0    0 -0.74115109706E+01  0.30788782653E+01  0.17837892590E+02  0.19560173780E+02  0.00000000000E+00 0. -1.
<mgrwt>
<rscale>  0 0.80119786E+02</rscale>
<asrwt>0</asrwt>
<pdfrwt beam="1">  1        1 0.44145466E-01 0.80119786E+02</pdfrwt>
<pdfrwt beam="2">  1       -2 0.86041258E-03 0.80119786E+02</pdfrwt>
<totfact> 0.17818065E+05</totfact>
</mgrwt>
</event>
<event>
 8    1  0.1241100E-020  0.7882644E+02  0.7818608E-02  0.1332415E+00
          1   -1    0    0  501    0  0.00000000000E+00  0.00000000000E+00  0.38429365407E+02  0.38429365737E+02  0.50400000000E-02 0. -1.
         -2   -1    0    0    0  501 -0.00000000000E+00 -0.00000000000E+00 -0.40422267490E+02  0.40422267571E+02  0.25500000000E-02 0.  1.
        -24    2    1    2    0    0  0.00000000000E+00  0.00000000000E+00 -0.19929020835E+01  0.78851633308E+02  0.78826444907E+02 0.  0.
         66    2    3    3    0    0 -0.26833808469E+02  0.25366674080E+02 -0.14708247470E+02  0.39797662919E+02  0.19999998494E+01 0.  0.
         13    1    3    3    0    0  0.26833808469E+02 -0.25366674080E+02  0.12715345386E+02  0.39053970389E+02  0.10566000000E+00 0. -1.
         13    1    4    4    0    0 -0.23377454097E+01  0.17045888664E+01 -0.12151887084E+01  0.31398287273E+01  0.10566000000E+00 0.  1.
        -13    1    4    4    0    0 -0.19038229386E+02  0.18067790282E+02 -0.98451103691E+01  0.28032776995E+02  0.10566000000E+00 0.  1.
        -14    1    4    4    0    0 -0.54578336735E+01  0.55942949314E+01 -0.36479483920E+01  0.86250571974E+01  0.00000000000E+00 0.  1.
<mgrwt>
<rscale>  0 0.78826445E+02</rscale>
<asrwt>0</asrwt>
<pdfrwt beam="1">  1        1 0.59122101E-02 0.78826445E+02</pdfrwt>
<pdfrwt beam="2">  1       -2 0.62188104E-02 0.78826445E+02</pdfrwt>
<totfact> 0.13151762E+05</totfact>
</mgrwt>
</event>
<event>
 8    1  0.1241100E-020  0.7734480E+02  0.7818608E-02  0.1336760E+00
         -2   -1    0    0    0  501 -0.00000000000E+00  0.00000000000E+00  0.12746292669E+02  0.12746292924E+02  0.25500000000E-02 0.  1.
          1   -1    0    0  501    0  0.00000000000E+00 -0.00000000000E+00 -0.11733250355E+03  0.11733250366E+03  0.50400000000E-02 0. -1.
        -24    2    1    2    0    0 -0.17763568394E-14  0.35527136788E-14 -0.10458621088E+03  0.13007879658E+03  0.77344798234E+02 0.  0.
         66    2    3    3    0    0  0.15393722763E+02 -0.22158909936E+02 -0.57943803476E+01  0.27668733922E+02  0.20000007963E+01 0.  0.
         13    1    3    3    0    0 -0.15393722763E+02  0.22158909936E+02 -0.98791830532E+02  0.10241006266E+03  0.10566000000E+00 0. -1.
         13    1    4    4    0    0  0.32338551183E+01 -0.39321606838E+01 -0.11422704021E+01  0.52187788108E+01  0.10566000000E+00 0. -1.
        -13    1    4    4    0    0  0.12183536583E+02 -0.18134160594E+02 -0.45614984150E+01  0.22318261042E+02  0.10566000000E+00 0.  1.
        -14    1    4    4    0    0 -0.23668939006E-01 -0.92588658543E-01 -0.90611530513E-01  0.13169406906E+00  0.00000000000E+00 0.  1.
<mgrwt>
<rscale>  0 0.77344798E+02</rscale>
<asrwt>0</asrwt>
<pdfrwt beam="1">  1        1 0.18051154E-01 0.77344798E+02</pdfrwt>
<pdfrwt beam="2">  1       -2 0.19609682E-02 0.77344798E+02</pdfrwt>
<totfact> 0.16539339E+05</totfact>
</mgrwt>
</event>
<event>
 8    1  0.1241100E-020  0.8243898E+02  0.7818608E-02  0.1322269E+00
         -2   -1    0    0    0  501 -0.00000000000E+00  0.00000000000E+00  0.31230064091E+03  0.31230064092E+03  0.25500000000E-02 0.  1.
          1   -1    0    0  501    0  0.00000000000E+00 -0.00000000000E+00 -0.54404172111E+01  0.54404195456E+01  0.50400000000E-02 0. -1.
        -24    2    1    2    0    0  0.88817841970E-15  0.71054273576E-14  0.30686022370E+03  0.31774106047E+03  0.82438975112E+02 0.  0.
         66    2    3    3    0    0  0.75213132864E+01  0.34762769360E+02  0.23363134192E+03  0.23633159801E+03  0.20000005501E+01 0.  0.
         13    1    3    3    0    0 -0.75213132864E+01 -0.34762769360E+02  0.73228881777E+02  0.81409462456E+02  0.10566000000E+00 0. -1.
         13    1    4    4    0    0  0.49974443518E+01  0.25175348977E+02  0.16505000856E+03  0.16703379639E+03  0.10566000000E+00 0. -1.
        -13    1    4    4    0    0  0.11277836783E+01  0.53406242621E+01  0.39191364944E+02  0.39569791682E+02  0.10566000000E+00 0.  1.
        -14    1    4    4    0    0  0.13960852562E+01  0.42467961211E+01  0.29389968416E+02  0.29728009937E+02  0.00000000000E+00 0.  1.
<mgrwt>
<rscale>  0 0.82438975E+02</rscale>
<asrwt>0</asrwt>
<pdfrwt beam="1">  1        1 0.83698726E-03 0.82438975E+02</pdfrwt>
<pdfrwt beam="2">  1       -2 0.48046263E-01 0.82438975E+02</pdfrwt>
<totfact> 0.63592278E+04</totfact>
</mgrwt>
</event>
<event>
 8    1  0.1241100E-020  0.7545024E+02  0.7818608E-02  0.1342482E+00
          1   -1    0    0  501    0  0.00000000000E+00  0.00000000000E+00  0.10168855788E+03  0.10168855801E+03  0.50400000000E-02 0. -1.
         -2   -1    0    0    0  501 -0.00000000000E+00 -0.00000000000E+00 -0.13995525275E+02  0.13995525508E+02  0.25500000000E-02 0.  1.
        -24    2    1    2    0    0  0.17763568394E-14 -0.35527136788E-14  0.87693032606E+02  0.11568408351E+03  0.75450243279E+02 0.  0.
         66    2    3    3    0    0 -0.12424472874E+02  0.29374788813E+02  0.13061805034E+02  0.34523273778E+02  0.19999843965E+01 0.  0.
         13    1    3    3    0    0  0.12424472874E+02 -0.29374788813E+02  0.74631227571E+02  0.81160809735E+02  0.10566000000E+00 0. -1.
         13    1    4    4    0    0 -0.62226657473E+01  0.16478671791E+02  0.73387746435E+01  0.19082373288E+02  0.10566000000E+00 0. -1.
        -13    1    4    4    0    0 -0.48340113376E+01  0.10191807104E+02  0.40958856864E+01  0.12001168329E+02  0.10566000000E+00 0.  1.
         14    1    4    4    0    0 -0.13677957894E+01  0.27043099180E+01  0.16271447045E+01  0.34397321616E+01  0.00000000000E+00 0. -1.
<mgrwt>
<rscale>  0 0.75450243E+02</rscale>
<asrwt>0</asrwt>
<pdfrwt beam="1">  1        1 0.15644394E-01 0.75450243E+02</pdfrwt>
<pdfrwt beam="2">  1       -2 0.21531578E-02 0.75450243E+02</pdfrwt>
<totfact> 0.17256177E+05</totfact>
</mgrwt>
</event>
<event>
 8    1  0.1241100E-020  0.8061301E+02  0.7818608E-02  0.1327321E+00
         -2   -1    0    0    0  501 -0.00000000000E+00  0.00000000000E+00  0.10891918408E+02  0.10891918707E+02  0.25500000000E-02 0.  1.
          1   -1    0    0  501    0  0.00000000000E+00 -0.00000000000E+00 -0.14915776418E+03  0.14915776426E+03  0.50400000000E-02 0. -1.
        -24    2    1    2    0    0 -0.17763568394E-14  0.00000000000E+00 -0.13826584577E+03  0.16004968297E+03  0.80613007091E+02 0.  0.
         66    2    3    3    0    0 -0.10374559560E+02 -0.34173393387E+02 -0.32182946865E+02  0.48116466694E+02  0.19999991419E+01 0.  0.
         13    1    3    3    0    0  0.10374559560E+02  0.34173393387E+02 -0.10608289891E+03  0.11193321628E+03  0.10566000000E+00 0. -1.
         13    1    4    4    0    0 -0.78086412261E+00 -0.35559198980E+01 -0.34274820806E+01  0.50013110828E+01  0.10566000000E+00 0. -1.
        -13    1    4    4    0    0 -0.38867359650E+01 -0.11256471655E+02 -0.11602972755E+02  0.16626936319E+02  0.10566000000E+00 0.  1.
        -14    1    4    4    0    0 -0.57069594728E+01 -0.19361001834E+02 -0.17152492029E+02  0.26488219292E+02  0.00000000000E+00 0.  1.
<mgrwt>
<rscale>  0 0.80613007E+02</rscale>
<asrwt>0</asrwt>
<pdfrwt beam="1">  1        1 0.22947347E-01 0.80613007E+02</pdfrwt>
<pdfrwt beam="2">  1       -2 0.16756799E-02 0.80613007E+02</pdfrwt>
<totfact> 0.15453431E+05</totfact>
</mgrwt>
</event>
<event>
 8    1  0.1241100E-020  0.7948258E+02  0.7818608E-02  0.1330526E+00
         -2   -1    0    0    0  501 -0.00000000000E+00  0.00000000000E+00  0.11135545943E+02  0.11135546235E+02  0.25500000000E-02 0.  1.
          1   -1    0    0  501    0  0.00000000000E+00 -0.00000000000E+00 -0.14183140865E+03  0.14183140874E+03  0.50400000000E-02 0. -1.
        -24    2    1    2    0    0  0.35527136788E-14  0.00000000000E+00 -0.13069586271E+03  0.15296695498E+03  0.79482581648E+02 0.  0.
         66    2    3    3    0    0  0.14460934659E+02 -0.21470838283E+02 -0.74210902034E+01  0.27003483175E+02  0.19999990044E+01 0.  0.
         13    1    3    3    0    0 -0.14460934659E+02  0.21470838283E+02 -0.12327477251E+03  0.12596347180E+03  0.10566000000E+00 0. -1.
         13    1    4    4    0    0  0.45614139794E+00 -0.11525648338E+01 -0.20272659048E+00  0.12604494346E+01  0.10566000000E+00 0. -1.
        -13    1    4    4    0    0  0.85965191477E+01 -0.11909473839E+02 -0.37354703417E+01  0.15155877121E+02  0.10566000000E+00 0.  1.
        -14    1    4    4    0    0  0.54082741129E+01 -0.84087996098E+01 -0.34828932712E+01  0.10587156620E+02  0.00000000000E+00 0.  1.
<mgrwt>
<rscale>  0 0.79482582E+02</rscale>
<asrwt>0</asrwt>
<pdfrwt beam="1">  1        1 0.21820215E-01 0.79482582E+02</pdfrwt>
<pdfrwt beam="2">  1       -2 0.17131610E-02 0.79482582E+02</pdfrwt>
<totfact> 0.15900660E+05</totfact>
</mgrwt>
</event>
<event>
 8    1  0.1241100E-020  0.8796788E+02  0.7818608E-02  0.1307849E+00
         -2   -1    0    0    0  501 -0.00000000000E+00  0.00000000000E+00  0.98412396637E+02  0.98412396670E+02  0.25500000000E-02 0.  1.
          1   -1    0    0  501    0  0.00000000000E+00 -0.00000000000E+00 -0.19657959032E+02  0.19657959678E+02  0.50400000000E-02 0. -1.
        -24    2    1    2    0    0  0.00000000000E+00  0.35527136788E-14  0.78754437605E+02  0.11807035635E+03  0.87967878261E+02 0.  0.
         66    2    3    3    0    0  0.18138078203E+02  0.31407332041E+02  0.72741667751E+02  0.81306584069E+02  0.19999997623E+01 0.  0.
         13    1    3    3    0    0 -0.18138078203E+02 -0.31407332041E+02  0.60127698541E+01  0.36763772279E+02  0.10566000000E+00 0. -1.
         13    1    4    4    0    0  0.21573558195E+01  0.37224646560E+01  0.92617748752E+01  0.10212862729E+02  0.10566000000E+00 0. -1.
        -13    1    4    4    0    0  0.58344719268E+01  0.87046071984E+01  0.21542490084E+02  0.23956237021E+02  0.10566000000E+00 0.  1.
        -14    1    4    4    0    0  0.10146250456E+02  0.18980260186E+02  0.41937402792E+02  0.47137484320E+02  0.00000000000E+00 0.  1.
<mgrwt>
<rscale>  0 0.87967878E+02</rscale>
<asrwt>0</asrwt>
<pdfrwt beam="1">  1        1 0.30243014E-02 0.87967878E+02</pdfrwt>
<pdfrwt beam="2">  1       -2 0.15140369E-01 0.87967878E+02</pdfrwt>
<totfact> 0.83533607E+04</totfact>
</mgrwt>
</event>
<event>
 8    1  0.1241100E-020  0.7951000E+02  0.7818608E-02  0.1330448E+00
         -2   -1    0    0    0  501 -0.00000000000E+00  0.00000000000E+00  0.13967060303E+02  0.13967060536E+02  0.25500000000E-02 0.  1.
          1   -1    0    0  501    0  0.00000000000E+00 -0.00000000000E+00 -0.11315624614E+03  0.11315624625E+03  0.50400000000E-02 0. -1.
        -24    2    1    2    0    0 -0.71054273576E-14  0.35527136788E-14 -0.99189185834E+02  0.12712330678E+03  0.79510002776E+02 0.  0.
         66    2    3    3    0    0  0.36646405876E+02 -0.13539168363E+02 -0.61175958496E+02  0.72613814398E+02  0.19999999875E+01 0.  0.
         13    1    3    3    0    0 -0.36646405876E+02  0.13539168363E+02 -0.38013227337E+02  0.54509492386E+02  0.10566000000E+00 0. -1.
         13    1    4    4    0    0  0.42059786236E+01 -0.21774012963E+01 -0.77942586074E+01  0.91210176988E+01  0.10566000000E+00 0. -1.
        -13    1    4    4    0    0  0.49244634046E+01 -0.15788613009E+01 -0.81577397771E+01  0.96593491053E+01  0.10566000000E+00 0.  1.
         14    1    4    4    0    0  0.27515963848E+02 -0.97829057657E+01 -0.45223960112E+02  0.53833447594E+02  0.00000000000E+00 0. -1.
<mgrwt>
<rscale>  0 0.79510003E+02</rscale>
<asrwt>0</asrwt>
<pdfrwt beam="1">  1        1 0.17408653E-01 0.79510003E+02</pdfrwt>
<pdfrwt beam="2">  1       -2 0.21487786E-02 0.79510003E+02</pdfrwt>
<totfact> 0.15262476E+05</totfact>
</mgrwt>
</event>
<event>
 8    1  0.1241100E-020  0.7831790E+02  0.7818608E-02  0.1333894E+00
         -2   -1    0    0    0  501 -0.00000000000E+00  0.00000000000E+00  0.11030994980E+03  0.11030994982E+03  0.25500000000E-02 0.  1.
          1   -1    0    0  501    0  0.00000000000E+00 -0.00000000000E+00 -0.13901041389E+02  0.13901042302E+02  0.50400000000E-02 0. -1.
        -24    2    1    2    0    0  0.17763568394E-14 -0.17763568394E-14  0.96408908407E+02  0.12421099213E+03  0.78317896710E+02 0.  0.
         66    2    3    3    0    0 -0.13810697557E+02  0.15413743337E+02  0.10091102127E+03  0.10303083550E+03  0.19999995707E+01 0.  0.
         13    1    3    3    0    0  0.13810697557E+02 -0.15413743337E+02 -0.45021128646E+01  0.21180156632E+02  0.10566000000E+00 0. -1.
         13    1    4    4    0    0 -0.36857198072E+01  0.48165442789E+01  0.27725020186E+02  0.28380830461E+02  0.10566000000E+00 0.  1.
        -13    1    4    4    0    0 -0.10205792461E+01  0.66048115809E+00  0.52215401951E+01  0.53622256016E+01  0.10566000000E+00 0. -1.
        -14    1    4    4    0    0 -0.91043985037E+01  0.99367178996E+01  0.67964460890E+02  0.69287779433E+02  0.00000000000E+00 0.  1.
<mgrwt>
<rscale>  0 0.78317897E+02</rscale>
<asrwt>0</asrwt>
<pdfrwt beam="1">  1        1 0.21386219E-02 0.78317897E+02</pdfrwt>
<pdfrwt beam="2">  1       -2 0.16970761E-01 0.78317897E+02</pdfrwt>
<totfact> 0.10928314E+05</totfact>
</mgrwt>
</event>
<event>
 8    1  0.1241100E-020  0.7992536E+02  0.7818608E-02  0.1329263E+00
          1   -1    0    0  501    0  0.00000000000E+00  0.00000000000E+00  0.35987684023E+02  0.35987684376E+02  0.50400000000E-02 0. -1.
         -2   -1    0    0    0  501 -0.00000000000E+00 -0.00000000000E+00 -0.44376730252E+02  0.44376730325E+02  0.25500000000E-02 0.  1.
        -24    2    1    2    0    0  0.35527136788E-14  0.35527136788E-14 -0.83890462285E+01  0.80364414701E+02  0.79925359265E+02 0.  0.
         66    2    3    3    0    0 -0.17404955481E+02 -0.17328485230E+02 -0.35863029670E+02  0.43512823069E+02  0.19999996626E+01 0.  0.
         13    1    3    3    0    0  0.17404955481E+02  0.17328485230E+02  0.27473983441E+02  0.36851591632E+02  0.10566000000E+00 0. -1.
         13    1    4    4    0    0 -0.94381977110E+01 -0.84681769778E+01 -0.18532936714E+02  0.22455968130E+02  0.10566000000E+00 0. -1.
        -13    1    4    4    0    0 -0.41260287136E+01 -0.53414049279E+01 -0.99445058753E+01  0.12019113141E+02  0.10566000000E+00 0.  1.
        -14    1    4    4    0    0 -0.38407290562E+01 -0.35189033245E+01 -0.73855870802E+01  0.90377417981E+01  0.00000000000E+00 0.  1.
<mgrwt>
<rscale>  0 0.79925359E+02</rscale>
<asrwt>0</asrwt>
<pdfrwt beam="1">  1        1 0.55365669E-02 0.79925359E+02</pdfrwt>
<pdfrwt beam="2">  1       -2 0.68271892E-02 0.79925359E+02</pdfrwt>
<totfact> 0.12511623E+05</totfact>
</mgrwt>
</event>
<event>
 8    1  0.1241100E-020  0.7995240E+02  0.7818608E-02  0.1329187E+00
         -2   -1    0    0    0  501 -0.00000000000E+00  0.00000000000E+00  0.11022483595E+02  0.11022483890E+02  0.25500000000E-02 0.  1.
          1   -1    0    0  501    0  0.00000000000E+00 -0.00000000000E+00 -0.14498515036E+03  0.14498515044E+03  0.50400000000E-02 0. -1.
        -24    2    1    2    0    0  0.00000000000E+00  0.00000000000E+00 -0.13396266676E+03  0.15600763433E+03  0.79952397617E+02 0.  0.
         66    2    3    3    0    0 -0.90127201905E+01 -0.33854449412E+02 -0.29553993136E+02  0.45878005430E+02  0.20000004280E+01 0.  0.
         13    1    3    3    0    0  0.90127201905E+01  0.33854449412E+02 -0.10440867363E+03  0.11012962890E+03  0.10566000000E+00 0. -1.
         13    1    4    4    0    0 -0.40506536488E+01 -0.12776133849E+02 -0.11922628684E+02  0.17938718736E+02  0.10566000000E+00 0. -1.
        -13    1    4    4    0    0 -0.18993206896E+01 -0.92537834972E+01 -0.72406300717E+01  0.11902849069E+02  0.10566000000E+00 0.  1.
        -14    1    4    4    0    0 -0.30627458521E+01 -0.11824532066E+02 -0.10390734380E+02  0.16036437624E+02  0.00000000000E+00 0.  1.
<mgrwt>
<rscale>  0 0.79952398E+02</rscale>
<asrwt>0</asrwt>
<pdfrwt beam="1">  1        1 0.22305406E-01 0.79952398E+02</pdfrwt>
<pdfrwt beam="2">  1       -2 0.16957668E-02 0.79952398E+02</pdfrwt>
<totfact> 0.15715027E+05</totfact>
</mgrwt>
</event>
<event>
 8    1  0.1241100E-020  0.7948563E+02  0.7818608E-02  0.1330518E+00
          1   -1    0    0  501    0  0.00000000000E+00  0.00000000000E+00  0.70864239213E+02  0.70864239392E+02  0.50400000000E-02 0. -1.
         -2   -1    0    0    0  501 -0.00000000000E+00 -0.00000000000E+00 -0.22288975453E+02  0.22288975599E+02  0.25500000000E-02 0.  1.
        -24    2    1    2    0    0  0.35527136788E-14  0.00000000000E+00  0.48575263759E+02  0.93153214991E+02  0.79485628977E+02 0.  0.
         66    2    3    3    0    0  0.22836935464E+02 -0.32494938515E+02  0.24069618714E+02  0.46484333993E+02  0.20000278328E+01 0.  0.
         13    1    3    3    0    0 -0.22836935464E+02  0.32494938515E+02  0.24505645046E+02  0.46668880998E+02  0.10566000000E+00 0. -1.
         13    1    4    4    0    0  0.66072655822E+01 -0.79401362370E+01  0.60961686387E+01  0.11994838809E+02  0.10566000000E+00 0. -1.
        -13    1    4    4    0    0  0.15251341732E+02 -0.23099933472E+02  0.16999615015E+02  0.32483971828E+02  0.10566000000E+00 0.  1.
         14    1    4    4    0    0  0.97832814903E+00 -0.14548688058E+01  0.97383505957E+00  0.20055233563E+01  0.00000000000E+00 0. -1.
<mgrwt>
<rscale>  0 0.79485629E+02</rscale>
<asrwt>0</asrwt>
<pdfrwt beam="1">  1        1 0.10902190E-01 0.79485629E+02</pdfrwt>
<pdfrwt beam="2">  1       -2 0.34290732E-02 0.79485629E+02</pdfrwt>
<totfact> 0.14145003E+05</totfact>
</mgrwt>
</event>
<event>
 8    1  0.1241100E-020  0.7904121E+02  0.7818608E-02  0.1331795E+00
         -2   -1    0    0    0  501 -0.00000000000E+00  0.00000000000E+00  0.22583293389E+02  0.22583293533E+02  0.25500000000E-02 0.  1.
          1   -1    0    0  501    0  0.00000000000E+00 -0.00000000000E+00 -0.69160781605E+02  0.69160781788E+02  0.50400000000E-02 0. -1.
        -24    2    1    2    0    0  0.00000000000E+00  0.00000000000E+00 -0.46577488216E+02  0.91744075321E+02  0.79041210441E+02 0.  0.
         66    2    3    3    0    0  0.16226786250E+02  0.35948575692E+02 -0.25700589486E+02  0.47118244787E+02  0.20000013992E+01 0.  0.
         13    1    3    3    0    0 -0.16226786250E+02 -0.35948575692E+02 -0.20876898730E+02  0.44625830534E+02  0.10566000000E+00 0. -1.
         13    1    4    4    0    0  0.97725376259E+01  0.22640250602E+02 -0.15405181355E+02  0.29076007560E+02  0.10566000000E+00 0.  1.
        -13    1    4    4    0    0  0.28053569598E+01  0.66265165194E+01 -0.47345404121E+01  0.86143941054E+01  0.10566000000E+00 0.  1.
        -14    1    4    4    0    0  0.36488916645E+01  0.66818085697E+01 -0.55608677186E+01  0.94278431216E+01  0.00000000000E+00 0.  1.
<mgrwt>
<rscale>  0 0.79041210E+02</rscale>
<asrwt>0</asrwt>
<pdfrwt beam="1">  1        1 0.10640120E-01 0.79041210E+02</pdfrwt>
<pdfrwt beam="2">  1       -2 0.34743529E-02 0.79041210E+02</pdfrwt>
<totfact> 0.14308682E+05</totfact>
</mgrwt>
</event>
<event>
 8    1  0.1241100E-020  0.8398267E+02  0.7818608E-02  0.1318115E+00
          1   -1    0    0  501    0  0.00000000000E+00  0.00000000000E+00  0.61504919186E+02  0.61504919393E+02  0.50400000000E-02 0. -1.
         -2   -1    0    0    0  501 -0.00000000000E+00 -0.00000000000E+00 -0.28668798901E+02  0.28668799015E+02  0.25500000000E-02 0.  1.
        -24    2    1    2    0    0  0.00000000000E+00 -0.88817841970E-15  0.32836120285E+02  0.90173718407E+02  0.83982669022E+02 0.  0.
         66    2    3    3    0    0  0.21051391273E+02 -0.65156997303E+01 -0.21921860014E+02  0.31147766590E+02  0.19999998996E+01 0.  0.
         13    1    3    3    0    0 -0.21051391273E+02  0.65156997303E+01  0.54757980299E+02  0.59025951817E+02  0.10566000000E+00 0. -1.
         13    1    4    4    0    0  0.63566979158E+01 -0.26897875861E+01 -0.66344808250E+01  0.95744485744E+01  0.10566000000E+00 0. -1.
        -13    1    4    4    0    0  0.62023593787E+01 -0.20908033923E+01 -0.62343713347E+01  0.90398711641E+01  0.10566000000E+00 0.  1.
         14    1    4    4    0    0  0.84923339781E+01 -0.17351087519E+01 -0.90530078541E+01  0.12533446852E+02  0.00000000000E+00 0. -1.
<mgrwt>
<rscale>  0 0.83982669E+02</rscale>
<asrwt>0</asrwt>
<pdfrwt beam="1">  1        1 0.94622953E-02 0.83982669E+02</pdfrwt>
<pdfrwt beam="2">  1       -2 0.44105845E-02 0.83982669E+02</pdfrwt>
<totfact> 0.11883142E+05</totfact>
</mgrwt>
</event>
<event>
 8    1  0.1241100E-020  0.7886190E+02  0.7818608E-02  0.1332313E+00
          1   -1    0    0  501    0  0.00000000000E+00  0.00000000000E+00  0.10836050090E+02  0.10836051262E+02  0.50400000000E-02 0. -1.
         -2   -1    0    0    0  501 -0.00000000000E+00 -0.00000000000E+00 -0.14348397952E+03  0.14348397955E+03  0.25500000000E-02 0.  1.
        -24    2    1    2    0    0  0.00000000000E+00  0.00000000000E+00 -0.13264792943E+03  0.15432003081E+03  0.78861896539E+02 0.  0.
         66    2    3    3    0    0  0.30713250935E+01 -0.11519119161E+02 -0.13986323795E+03  0.14038464473E+03  0.20000004322E+01 0.  0.
         13    1    3    3    0    0 -0.30713250935E+01  0.11519119161E+02  0.72153085186E+01  0.13935386077E+02  0.10566000000E+00 0. -1.
         13    1    4    4    0    0  0.44790685248E+00 -0.84968003805E+00 -0.16539641468E+02  0.16567844779E+02  0.10566000000E+00 0. -1.
        -13    1    4    4    0    0  0.51318918381E+00 -0.14206164729E+01 -0.13665280085E+02  0.13748911162E+02  0.10566000000E+00 0.  1.
         14    1    4    4    0    0  0.21102290572E+01 -0.92488226500E+01 -0.10965831640E+03  0.11006788879E+03  0.00000000000E+00 0. -1.
<mgrwt>
<rscale>  0 0.78861897E+02</rscale>
<asrwt>0</asrwt>
<pdfrwt beam="1">  1        1 0.16670848E-02 0.78861897E+02</pdfrwt>
<pdfrwt beam="2">  1       -2 0.22074457E-01 0.78861897E+02</pdfrwt>
<totfact> 0.99476277E+04</totfact>
</mgrwt>
</event>
<event>
 8    1  0.1241100E-020  0.8029529E+02  0.7818608E-02  0.1328216E+00
          1   -1    0    0  501    0  0.00000000000E+00  0.00000000000E+00  0.57500831383E+01  0.57500853471E+01  0.50400000000E-02 0. -1.
         -2   -1    0    0    0  501 -0.00000000000E+00 -0.00000000000E+00 -0.28031474306E+03  0.28031474307E+03  0.25500000000E-02 0.  1.
        -24    2    1    2    0    0  0.35527136788E-14  0.71054273576E-14 -0.27456465992E+03  0.28606482841E+03  0.80295289900E+02 0.  0.
         66    2    3    3    0    0  0.28178496693E+02  0.28459506164E+02 -0.14598953707E+03  0.15139655247E+03  0.19999996040E+01 0.  0.
         13    1    3    3    0    0 -0.28178496693E+02 -0.28459506164E+02 -0.12857512285E+03  0.13466827595E+03  0.10566000000E+00 0. -1.
         13    1    4    4    0    0  0.89583195597E+01  0.90970711194E+01 -0.48678347645E+02  0.50324952914E+02  0.10566000000E+00 0. -1.
        -13    1    4    4    0    0  0.17062888308E+02  0.17579009212E+02 -0.88323880044E+02  0.91658511183E+02  0.10566000000E+00 0.  1.
         14    1    4    4    0    0  0.21572888250E+01  0.17834258322E+01 -0.89873093819E+01  0.94130883721E+01  0.00000000000E+00 0. -1.
<mgrwt>
<rscale>  0 0.80295290E+02</rscale>
<asrwt>0</asrwt>
<pdfrwt beam="1">  1        1 0.88462857E-03 0.80295290E+02</pdfrwt>
<pdfrwt beam="2">  1       -2 0.43125335E-01 0.80295290E+02</pdfrwt>
<totfact> 0.72157923E+04</totfact>
</mgrwt>
</event>
<event>
 8    1  0.1241100E-020  0.7590489E+02  0.7818608E-02  0.1341092E+00
         -2   -1    0    0    0  501 -0.00000000000E+00  0.00000000000E+00  0.23968473376E+03  0.23968473377E+03  0.25500000000E-02 0.  1.
          1   -1    0    0  501    0  0.00000000000E+00 -0.00000000000E+00 -0.60095097098E+01  0.60095118233E+01  0.50400000000E-02 0. -1.
        -24    2    1    2    0    0  0.00000000000E+00  0.00000000000E+00  0.23367522405E+03  0.24569424560E+03  0.75904887751E+02 0.  0.
         66    2    3    3    0    0 -0.19473532828E+02 -0.13190503317E+02  0.21322151352E+03  0.21452417506E+03  0.20000000028E+01 0.  0.
         13    1    3    3    0    0  0.19473532828E+02  0.13190503317E+02  0.20453710527E+02  0.31170070531E+02  0.10566000000E+00 0. -1.
         13    1    4    4    0    0 -0.90610813521E+01 -0.60562152697E+01  0.10470074017E+03  0.10526650510E+03  0.10566000000E+00 0. -1.
        -13    1    4    4    0    0 -0.47815717673E+01 -0.32596588074E+01  0.54374965609E+02  0.54682143823E+02  0.10566000000E+00 0.  1.
        -14    1    4    4    0    0 -0.56308797086E+01 -0.38746292398E+01  0.54145807740E+02  0.54575526144E+02  0.00000000000E+00 0.  1.
<mgrwt>
<rscale>  0 0.75904888E+02</rscale>
<asrwt>0</asrwt>
<pdfrwt beam="1">  1        1 0.92454030E-03 0.75904888E+02</pdfrwt>
<pdfrwt beam="2">  1       -2 0.36874567E-01 0.75904888E+02</pdfrwt>
<totfact> 0.90063652E+04</totfact>
</mgrwt>
</event>
<event>
 8    1  0.1241100E-020  0.9003298E+02  0.7818608E-02  0.1302772E+00
         -2   -1    0    0    0  501 -0.00000000000E+00  0.00000000000E+00  0.93180786768E+01  0.93180790258E+01  0.25500000000E-02 0.  1.
          1   -1    0    0  501    0  0.00000000000E+00 -0.00000000000E+00 -0.21747876135E+03  0.21747876141E+03  0.50400000000E-02 0. -1.
        -24    2    1    2    0    0  0.00000000000E+00  0.00000000000E+00 -0.20816068267E+03  0.22679684043E+03  0.90032977402E+02 0.  0.
         66    2    3    3    0    0 -0.57005291131E+01  0.40972542253E+02 -0.59548508311E+02  0.72534613095E+02  0.20000009908E+01 0.  0.
         13    1    3    3    0    0  0.57005291131E+01 -0.40972542253E+02 -0.14861217436E+03  0.15426222734E+03  0.10566000000E+00 0. -1.
         13    1    4    4    0    0 -0.25640355361E+01  0.25172955194E+02 -0.36277341327E+02  0.44230177585E+02  0.10566000000E+00 0. -1.
        -13    1    4    4    0    0 -0.27888194625E+01  0.14036488730E+02 -0.20859953233E+02  0.25297220061E+02  0.10566000000E+00 0.  1.
         14    1    4    4    0    0 -0.34767411451E+00  0.17630983289E+01 -0.24112137506E+01  0.30072154493E+01  0.00000000000E+00 0. -1.
<mgrwt>
<rscale>  0 0.90032977E+02</rscale>
<asrwt>0</asrwt>
<pdfrwt beam="1">  1        1 0.33458268E-01 0.90032977E+02</pdfrwt>
<pdfrwt beam="2">  1       -2 0.14335507E-02 0.90032977E+02</pdfrwt>
<totfact> 0.12365642E+05</totfact>
</mgrwt>
</event>
<event>
 8    1  0.1241100E-020  0.7998138E+02  0.7818608E-02  0.1329104E+00
         -2   -1    0    0    0  501 -0.00000000000E+00  0.00000000000E+00  0.40759507185E+02  0.40759507264E+02  0.25500000000E-02 0.  1.
          1   -1    0    0  501    0  0.00000000000E+00 -0.00000000000E+00 -0.39236376681E+02  0.39236377005E+02  0.50400000000E-02 0. -1.
        -24    2    1    2    0    0  0.88817841970E-15  0.00000000000E+00  0.15231305035E+01  0.79995884269E+02  0.79981382668E+02 0.  0.
         66    2    3    3    0    0  0.70572390439E+01 -0.37717230891E+02  0.11937979312E+02  0.40235673395E+02  0.19999836354E+01 0.  0.
         13    1    3    3    0    0 -0.70572390439E+01  0.37717230891E+02 -0.10414848809E+02  0.39760210874E+02  0.10566000000E+00 0. -1.
         13    1    4    4    0    0  0.26128804537E+01 -0.11411482374E+02  0.43065350450E+01  0.12474232736E+02  0.10566000000E+00 0. -1.
        -13    1    4    4    0    0  0.77936918892E+00 -0.37867446871E+01  0.85318118065E+00  0.39605471617E+01  0.10566000000E+00 0.  1.
         14    1    4    4    0    0  0.36649894013E+01 -0.22519003830E+02  0.67782630864E+01  0.23800893497E+02  0.00000000000E+00 0. -1.
<mgrwt>
<rscale>  0 0.79981383E+02</rscale>
<asrwt>0</asrwt>
<pdfrwt beam="1">  1        1 0.60363657E-02 0.79981383E+02</pdfrwt>
<pdfrwt beam="2">  1       -2 0.62706934E-02 0.79981383E+02</pdfrwt>
<totfact> 0.12666074E+05</totfact>
</mgrwt>
</event>
<event>
 8    1  0.1241100E-020  0.8263431E+02  0.7818608E-02  0.1321738E+00
          1   -1    0    0  501    0  0.00000000000E+00  0.00000000000E+00  0.79526113376E+02  0.79526113536E+02  0.50400000000E-02 0. -1.
         -2   -1    0    0    0  501 -0.00000000000E+00 -0.00000000000E+00 -0.21465996521E+02  0.21465996672E+02  0.25500000000E-02 0.  1.
        -24    2    1    2    0    0  0.17763568394E-14  0.00000000000E+00  0.58060116855E+02  0.10099211021E+03  0.82634309793E+02 0.  0.
         66    2    3    3    0    0  0.13613282785E+02 -0.38984358249E+02  0.29077708312E+02  0.50543197184E+02  0.20000011491E+01 0.  0.
         13    1    3    3    0    0 -0.13613282785E+02  0.38984358249E+02  0.28982408543E+02  0.50448913024E+02  0.10566000000E+00 0. -1.
         13    1    4    4    0    0  0.20207025394E+01 -0.67219040478E+01  0.51189082955E+01  0.86880158238E+01  0.10566000000E+00 0. -1.
        -13    1    4    4    0    0  0.43526741814E+01 -0.11594251642E+02  0.95718641902E+01  0.15652609743E+02  0.10566000000E+00 0.  1.
         14    1    4    4    0    0  0.72399060643E+01 -0.20668202560E+02  0.14386935826E+02  0.26202571617E+02  0.00000000000E+00 0. -1.
<mgrwt>
<rscale>  0 0.82634310E+02</rscale>
<asrwt>0</asrwt>
<pdfrwt beam="1">  1        1 0.12234787E-01 0.82634310E+02</pdfrwt>
<pdfrwt beam="2">  1       -2 0.33024610E-02 0.82634310E+02</pdfrwt>
<totfact> 0.12957236E+05</totfact>
</mgrwt>
</event>
<event>
 8    1  0.1241100E-020  0.7963860E+02  0.7818608E-02  0.1330080E+00
         -2   -1    0    0    0  501 -0.00000000000E+00  0.00000000000E+00  0.32859551352E+02  0.32859551451E+02  0.25500000000E-02 0.  1.
          1   -1    0    0  501    0  0.00000000000E+00 -0.00000000000E+00 -0.48253148637E+02  0.48253148900E+02  0.50400000000E-02 0. -1.
        -24    2    1    2    0    0  0.00000000000E+00  0.00000000000E+00 -0.15393597285E+02  0.81112700352E+02  0.79638604464E+02 0.  0.
         66    2    3    3    0    0 -0.12824526298E+01  0.19352758306E+02  0.27689165743E+02  0.33865376904E+02  0.19999786154E+01 0.  0.
         13    1    3    3    0    0  0.12824526298E+01 -0.19352758306E+02 -0.43082763028E+02  0.47247323448E+02  0.10566000000E+00 0. -1.
         13    1    4    4    0    0 -0.55765237642E-01  0.34622637528E+01  0.53535619474E+01  0.63766895499E+01  0.10566000000E+00 0.  1.
        -13    1    4    4    0    0 -0.85990506549E+00  0.56745307019E+01  0.92016668284E+01  0.10845347937E+02  0.10566000000E+00 0.  1.
        -14    1    4    4    0    0 -0.36678232669E+00  0.10215963852E+02  0.13133936968E+02  0.16643339417E+02  0.00000000000E+00 0.  1.
<mgrwt>
<rscale>  0 0.79638604E+02</rscale>
<asrwt>0</asrwt>
<pdfrwt beam="1">  1        1 0.74235614E-02 0.79638604E+02</pdfrwt>
<pdfrwt beam="2">  1       -2 0.50553156E-02 0.79638604E+02</pdfrwt>
<totfact> 0.13249707E+05</totfact>
</mgrwt>
</event>
<event>
 8    1  0.1241100E-020  0.8162857E+02  0.7818608E-02  0.1324492E+00
         -2   -1    0    0    0  501 -0.00000000000E+00  0.00000000000E+00  0.11368469346E+02  0.11368469632E+02  0.25500000000E-02 0.  1.
          1   -1    0    0  501    0  0.00000000000E+00 -0.00000000000E+00 -0.14652860530E+03  0.14652860538E+03  0.50400000000E-02 0. -1.
        -24    2    1    2    0    0  0.00000000000E+00  0.00000000000E+00 -0.13516013595E+03  0.15789707501E+03  0.81628573111E+02 0.  0.
         66    2    3    3    0    0  0.34959281408E+02 -0.17651699055E+02 -0.45560004915E+02  0.60111961211E+02  0.19999991566E+01 0.  0.
         13    1    3    3    0    0 -0.34959281408E+02  0.17651699055E+02 -0.89600131034E+02  0.97785113803E+02  0.10566000000E+00 0. -1.
         13    1    4    4    0    0  0.43806740558E+01 -0.17659402668E+01 -0.54759601971E+01  0.72322993802E+01  0.10566000000E+00 0. -1.
        -13    1    4    4    0    0  0.95315398074E+01 -0.45799605744E+01 -0.13195549706E+02  0.16910351446E+02  0.10566000000E+00 0.  1.
        -14    1    4    4    0    0  0.21047067545E+02 -0.11305798214E+02 -0.26888495013E+02  0.35969310385E+02  0.00000000000E+00 0.  1.
<mgrwt>
<rscale>  0 0.81628573E+02</rscale>
<asrwt>0</asrwt>
<pdfrwt beam="1">  1        1 0.22542861E-01 0.81628573E+02</pdfrwt>
<pdfrwt beam="2">  1       -2 0.17489954E-02 0.81628573E+02</pdfrwt>
<totfact> 0.14894969E+05</totfact>
</mgrwt>
</event>
<event>
 8    1  0.1241100E-020  0.7168358E+02  0.7818608E-02  0.1354460E+00
         -2   -1    0    0    0  501 -0.00000000000E+00  0.00000000000E+00  0.20555460645E+02  0.20555460803E+02  0.25500000000E-02 0.  1.
          1   -1    0    0  501    0  0.00000000000E+00 -0.00000000000E+00 -0.62495999340E+02  0.62495999543E+02  0.50400000000E-02 0. -1.
        -24    2    1    2    0    0  0.00000000000E+00  0.88817841970E-15 -0.41940538695E+02  0.83051460347E+02  0.71683584451E+02 0.  0.
         66    2    3    3    0    0 -0.23936899373E+02  0.55125839957E+01  0.92093085286E+01  0.26309220622E+02  0.19999980703E+01 0.  0.
         13    1    3    3    0    0  0.23936899373E+02 -0.55125839957E+01 -0.51149847223E+02  0.56742239724E+02  0.10566000000E+00 0. -1.
         13    1    4    4    0    0 -0.12736910199E+02  0.20918885805E+01  0.50329703440E+01  0.13854487857E+02  0.10566000000E+00 0. -1.
        -13    1    4    4    0    0 -0.45959021253E+01  0.11444273699E+01  0.14256001223E+01  0.49472750170E+01  0.10566000000E+00 0.  1.
         14    1    4    4    0    0 -0.66040870486E+01  0.22762680454E+01  0.27507380623E+01  0.75074577486E+01  0.00000000000E+00 0. -1.
<mgrwt>
<rscale>  0 0.71683584E+02</rscale>
<asrwt>0</asrwt>
<pdfrwt beam="1">  1        1 0.96147691E-02 0.71683584E+02</pdfrwt>
<pdfrwt beam="2">  1       -2 0.31623786E-02 0.71683584E+02</pdfrwt>
<totfact> 0.18376805E+05</totfact>
</mgrwt>
</event>
<event>
 8    1  0.1241100E-020  0.7986846E+02  0.7818608E-02  0.1329425E+00
          1   -1    0    0  501    0  0.00000000000E+00  0.00000000000E+00  0.76932643225E+01  0.76932659734E+01  0.50400000000E-02 0. -1.
         -2   -1    0    0    0  501 -0.00000000000E+00 -0.00000000000E+00 -0.20729074810E+03  0.20729074812E+03  0.25500000000E-02 0.  1.
        -24    2    1    2    0    0  0.00000000000E+00  0.00000000000E+00 -0.19959748378E+03  0.21498401409E+03  0.79868459254E+02 0.  0.
         66    2    3    3    0    0  0.31200845878E+02  0.23444258753E+02 -0.12231919116E+03  0.12840993179E+03  0.20000010953E+01 0.  0.
         13    1    3    3    0    0 -0.31200845878E+02 -0.23444258753E+02 -0.77278292615E+02  0.86574082296E+02  0.10566000000E+00 0. -1.
         13    1    4    4    0    0  0.54635838848E+01  0.35504612677E+01 -0.18784886307E+02  0.19883149692E+02  0.10566000000E+00 0. -1.
        -13    1    4    4    0    0  0.18260329252E+02  0.14412802298E+02 -0.74781097815E+02  0.78315976971E+02  0.10566000000E+00 0.  1.
        -14    1    4    4    0    0  0.74769327404E+01  0.54809951876E+01 -0.28753207042E+02  0.30210805131E+02  0.00000000000E+00 0.  1.
<mgrwt>
<rscale>  0 0.79868459E+02</rscale>
<asrwt>0</asrwt>
<pdfrwt beam="1">  1        1 0.11835794E-02 0.79868459E+02</pdfrwt>
<pdfrwt beam="2">  1       -2 0.31890880E-01 0.79868459E+02</pdfrwt>
<totfact> 0.84190099E+04</totfact>
</mgrwt>
</event>
<event>
 8    1  0.1241100E-020  0.7999582E+02  0.7818608E-02  0.1329063E+00
         -2   -1    0    0    0  501 -0.00000000000E+00  0.00000000000E+00  0.55736598161E+02  0.55736598219E+02  0.25500000000E-02 0.  1.
          1   -1    0    0  501    0  0.00000000000E+00 -0.00000000000E+00 -0.28703451917E+02  0.28703452360E+02  0.50400000000E-02 0. -1.
        -24    2    1    2    0    0  0.00000000000E+00  0.00000000000E+00  0.27033146243E+02  0.84440050579E+02  0.79995819553E+02 0.  0.
         66    2    3    3    0    0  0.66566479655E+01 -0.11802413334E+02  0.53220351002E+02  0.54954651145E+02  0.19999997687E+01 0.  0.
         13    1    3    3    0    0 -0.66566479655E+01  0.11802413334E+02 -0.26187204759E+02  0.29485399434E+02  0.10566000000E+00 0. -1.
         13    1    4    4    0    0  0.28835152768E+01 -0.49754144886E+01  0.25896478441E+02  0.26527498362E+02  0.10566000000E+00 0.  1.
        -13    1    4    4    0    0  0.11046732997E+01 -0.14011535876E+01  0.68184390737E+01  0.70488162065E+01  0.10566000000E+00 0. -1.
         14    1    4    4    0    0  0.26684593890E+01 -0.54258452576E+01  0.20505433488E+02  0.21378336577E+02  0.00000000000E+00 0. -1.
<mgrwt>
<rscale>  0 0.79995820E+02</rscale>
<asrwt>0</asrwt>
<pdfrwt beam="1">  1        1 0.44159158E-02 0.79995820E+02</pdfrwt>
<pdfrwt beam="2">  1       -2 0.85748611E-02 0.79995820E+02</pdfrwt>
<totfact> 0.12001546E+05</totfact>
</mgrwt>
</event>
<event>
 8    1  0.1241100E-020  0.7399329E+02  0.7818608E-02  0.1347017E+00
         -2   -1    0    0    0  501 -0.00000000000E+00  0.00000000000E+00  0.12171386415E+03  0.12171386417E+03  0.25500000000E-02 0.  1.
          1   -1    0    0  501    0  0.00000000000E+00 -0.00000000000E+00 -0.11245650520E+02  0.11245651649E+02  0.50400000000E-02 0. -1.
        -24    2    1    2    0    0  0.44408920985E-15  0.00000000000E+00  0.11046821363E+03  0.13295951582E+03  0.73993287708E+02 0.  0.
         66    2    3    3    0    0 -0.37920880916E+01  0.97831204503E+01  0.11897377845E+03  0.11945228906E+03  0.20000063207E+01 0.  0.
         13    1    3    3    0    0  0.37920880916E+01 -0.97831204503E+01 -0.85055648222E+01  0.13507226763E+02  0.10566000000E+00 0. -1.
         13    1    4    4    0    0 -0.26296365536E+01  0.57837185044E+01  0.78605793517E+02  0.78862211017E+02  0.10566000000E+00 0. -1.
        -13    1    4    4    0    0 -0.79674970869E+00  0.26459079001E+01  0.30111905211E+02  0.30238611710E+02  0.10566000000E+00 0.  1.
         14    1    4    4    0    0 -0.36570182932E+00  0.13534940459E+01  0.10256079721E+02  0.10351466332E+02  0.00000000000E+00 0. -1.
<mgrwt>
<rscale>  0 0.73993288E+02</rscale>
<asrwt>0</asrwt>
<pdfrwt beam="1">  1        1 0.17301002E-02 0.73993288E+02</pdfrwt>
<pdfrwt beam="2">  1       -2 0.18725209E-01 0.73993288E+02</pdfrwt>
<totfact> 0.12303176E+05</totfact>
</mgrwt>
</event>
<event>
 8    1  0.1241100E-020  0.8017494E+02  0.7818608E-02  0.1328556E+00
          1   -1    0    0  501    0  0.00000000000E+00  0.00000000000E+00  0.26912021478E+03  0.26912021483E+03  0.50400000000E-02 0. -1.
         -2   -1    0    0    0  501 -0.00000000000E+00 -0.00000000000E+00 -0.59713284940E+01  0.59713290385E+01  0.25500000000E-02 0.  1.
        -24    2    1    2    0    0 -0.71054273576E-14 -0.22204460493E-15  0.26314888628E+03  0.27509154386E+03  0.80174940928E+02 0.  0.
         66    2    3    3    0    0  0.35598202623E+02  0.16198323593E+01  0.19446982293E+03  0.19771789981E+03  0.19999970727E+01 0.  0.
         13    1    3    3    0    0 -0.35598202623E+02 -0.16198323593E+01  0.68679063356E+02  0.77373644055E+02  0.10566000000E+00 0. -1.
         13    1    4    4    0    0  0.16161488084E+02  0.23228496725E+00  0.91264642571E+02  0.92684916794E+02  0.10566000000E+00 0. -1.
        -13    1    4    4    0    0  0.17391422559E+02  0.11724595295E+01  0.93746152480E+02  0.95352968012E+02  0.10566000000E+00 0.  1.
         14    1    4    4    0    0  0.20452919795E+01  0.21508786258E+00  0.94590278776E+01  0.96800150031E+01  0.00000000000E+00 0. -1.
<mgrwt>
<rscale>  0 0.80174941E+02</rscale>
<asrwt>0</asrwt>
<pdfrwt beam="1">  1        1 0.41403109E-01 0.80174941E+02</pdfrwt>
<pdfrwt beam="2">  1       -2 0.91866598E-03 0.80174941E+02</pdfrwt>
<totfact> 0.17565922E+05</totfact>
</mgrwt>
</event>
<event>
 8    1  0.1241100E-020  0.8033225E+02  0.7818608E-02  0.1328111E+00
         -2   -1    0    0    0  501 -0.00000000000E+00  0.00000000000E+00  0.48739052398E+02  0.48739052465E+02  0.25500000000E-02 0.  1.
          1   -1    0    0  501    0  0.00000000000E+00 -0.00000000000E+00 -0.33101129491E+02  0.33101129875E+02  0.50400000000E-02 0. -1.
        -24    2    1    2    0    0  0.00000000000E+00  0.00000000000E+00  0.15637922907E+02  0.81840182340E+02  0.80332252630E+02 0.  0.
         66    2    3    3    0    0 -0.16883191890E+02 -0.36035061728E+02  0.13190010815E+02  0.41970754455E+02  0.20000005181E+01 0.  0.
         13    1    3    3    0    0  0.16883191890E+02  0.36035061728E+02  0.24479120915E+01  0.39869427884E+02  0.10566000000E+00 0. -1.
         13    1    4    4    0    0 -0.81123455726E+01 -0.16299173640E+02  0.62012317709E+01  0.19233815315E+02  0.10566000000E+00 0.  1.
        -13    1    4    4    0    0 -0.83996381273E+01 -0.18076739533E+02  0.65373888572E+01  0.20977870481E+02  0.10566000000E+00 0.  1.
        -14    1    4    4    0    0 -0.37120819039E+00 -0.16591485547E+01  0.45139018698E+00  0.17590686593E+01  0.00000000000E+00 0.  1.
<mgrwt>
<rscale>  0 0.80332253E+02</rscale>
<asrwt>0</asrwt>
<pdfrwt beam="1">  1        1 0.50924815E-02 0.80332253E+02</pdfrwt>
<pdfrwt beam="2">  1       -2 0.74983157E-02 0.80332253E+02</pdfrwt>
<totfact> 0.12158868E+05</totfact>
</mgrwt>
</event>
<event>
 8    1  0.1241100E-020  0.7817470E+02  0.7818608E-02  0.1334313E+00
          1   -1    0    0  501    0  0.00000000000E+00  0.00000000000E+00  0.44746682024E+02  0.44746682308E+02  0.50400000000E-02 0. -1.
         -2   -1    0    0    0  501 -0.00000000000E+00 -0.00000000000E+00 -0.34143777019E+02  0.34143777114E+02  0.25500000000E-02 0.  1.
        -24    2    1    2    0    0  0.00000000000E+00  0.88817841970E-15  0.10602905005E+02  0.78890459422E+02  0.78174695351E+02 0.  0.
         66    2    3    3    0    0 -0.35276746849E+02 -0.50667077017E+01 -0.10831974450E+02  0.37302172411E+02  0.20000002374E+01 0.  0.
         13    1    3    3    0    0  0.35276746849E+02  0.50667077017E+01  0.21434879455E+02  0.41588287010E+02  0.10566000000E+00 0. -1.
         13    1    4    4    0    0 -0.47290182123E+01 -0.10766894416E+01 -0.10499236460E+01  0.49635045184E+01  0.10566000000E+00 0. -1.
        -13    1    4    4    0    0 -0.27466031920E+02 -0.37526213110E+01 -0.85326337800E+01  0.29004863030E+02  0.10566000000E+00 0.  1.
        -14    1    4    4    0    0 -0.30816967163E+01 -0.23739694913E+00 -0.12494170238E+01  0.33338048627E+01  0.00000000000E+00 0.  1.
<mgrwt>
<rscale>  0 0.78174695E+02</rscale>
<asrwt>0</asrwt>
<pdfrwt beam="1">  1        1 0.68841050E-02 0.78174695E+02</pdfrwt>
<pdfrwt beam="2">  1       -2 0.52528888E-02 0.78174695E+02</pdfrwt>
<totfact> 0.13789029E+05</totfact>
</mgrwt>
</event>
<event>
 8    1  0.1241100E-020  0.8618527E+02  0.7818608E-02  0.1312362E+00
         -2   -1    0    0    0  501 -0.00000000000E+00  0.00000000000E+00  0.75847184465E+01  0.75847188751E+01  0.25500000000E-02 0.  1.
          1   -1    0    0  501    0  0.00000000000E+00 -0.00000000000E+00 -0.24483114741E+03  0.24483114746E+03  0.50400000000E-02 0. -1.
        -24    2    1    2    0    0  0.88817841970E-15 -0.71054273576E-14 -0.23724642896E+03  0.25241586633E+03  0.86185274396E+02 0.  0.
         66    2    3    3    0    0  0.63109492399E+01 -0.37418748197E+02 -0.59025038162E+02  0.70199330040E+02  0.20000027519E+01 0.  0.
         13    1    3    3    0    0 -0.63109492399E+01  0.37418748197E+02 -0.17822139080E+03  0.18221653629E+03  0.10566000000E+00 0. -1.
         13    1    4    4    0    0  0.95938112608E+00 -0.60550301571E+01 -0.84741731689E+01  0.10459759905E+02  0.10566000000E+00 0. -1.
        -13    1    4    4    0    0  0.89570666739E-01 -0.16107510384E+01 -0.27508675409E+01  0.31907644970E+01  0.10566000000E+00 0.  1.
        -14    1    4    4    0    0  0.52619974471E+01 -0.29752967002E+02 -0.47799997452E+02  0.56548805637E+02  0.00000000000E+00 0.  1.
<mgrwt>
<rscale>  0 0.86185274E+02</rscale>
<asrwt>0</asrwt>
<pdfrwt beam="1">  1        1 0.37666325E-01 0.86185274E+02</pdfrwt>
<pdfrwt beam="2">  1       -2 0.11668800E-02 0.86185274E+02</pdfrwt>
<totfact> 0.14232041E+05</totfact>
</mgrwt>
</event>
<event>
 8    1  0.1241100E-020  0.7972342E+02  0.7818608E-02  0.1329838E+00
         -2   -1    0    0    0  501 -0.00000000000E+00  0.00000000000E+00  0.45184317933E+02  0.45184318005E+02  0.25500000000E-02 0.  1.
          1   -1    0    0  501    0  0.00000000000E+00 -0.00000000000E+00 -0.35166093205E+02  0.35166093566E+02  0.50400000000E-02 0. -1.
        -24    2    1    2    0    0 -0.35527136788E-14  0.17763568394E-14  0.10018224728E+02  0.80350411571E+02  0.79723420730E+02 0.  0.
         66    2    3    3    0    0 -0.26154677978E+02  0.15069622964E+02  0.31212669847E+02  0.43467131018E+02  0.20000008830E+01 0.  0.
         13    1    3    3    0    0  0.26154677978E+02 -0.15069622964E+02 -0.21194445119E+02  0.36883280553E+02  0.10566000000E+00 0. -1.
         13    1    4    4    0    0 -0.69699838999E+01  0.43399507435E+01  0.77907824527E+01  0.11319156474E+02  0.10566000000E+00 0. -1.
        -13    1    4    4    0    0 -0.10331347374E+02  0.59451972649E+01  0.11770200671E+02  0.16752041576E+02  0.10566000000E+00 0.  1.
        -14    1    4    4    0    0 -0.88533467039E+01  0.47844749556E+01  0.11651686723E+02  0.15395932968E+02  0.00000000000E+00 0.  1.
<mgrwt>
<rscale>  0 0.79723421E+02</rscale>
<asrwt>0</asrwt>
<pdfrwt beam="1">  1        1 0.54101682E-02 0.79723421E+02</pdfrwt>
<pdfrwt beam="2">  1       -2 0.69514336E-02 0.79723421E+02</pdfrwt>
<totfact> 0.12553277E+05</totfact>
</mgrwt>
</event>
<event>
 8    1  0.1241100E-020  0.7900580E+02  0.7818608E-02  0.1331897E+00
          1   -1    0    0  501    0  0.00000000000E+00  0.00000000000E+00  0.28763059336E+02  0.28763059777E+02  0.50400000000E-02 0. -1.
         -2   -1    0    0    0  501 -0.00000000000E+00 -0.00000000000E+00 -0.54252885943E+02  0.54252886003E+02  0.25500000000E-02 0.  1.
        -24    2    1    2    0    0 -0.88817841970E-15  0.35527136788E-14 -0.25489826607E+02  0.83015945780E+02  0.79005797213E+02 0.  0.
         66    2    3    3    0    0 -0.50928713555E+01  0.31594808290E+02 -0.37041356730E+02  0.48992156136E+02  0.20000012232E+01 0.  0.
         13    1    3    3    0    0  0.50928713555E+01 -0.31594808290E+02  0.11551530123E+02  0.34023789644E+02  0.10566000000E+00 0. -1.
         13    1    4    4    0    0 -0.16748217379E+01  0.11172517193E+02 -0.13779520467E+02  0.17818993143E+02  0.10566000000E+00 0. -1.
        -13    1    4    4    0    0 -0.22286227762E+01  0.16194161652E+02 -0.17879645026E+02  0.24226235807E+02  0.10566000000E+00 0.  1.
         14    1    4    4    0    0 -0.11894268415E+01  0.42281294455E+01 -0.53821912362E+01  0.69469271857E+01  0.00000000000E+00 0. -1.
<mgrwt>
<rscale>  0 0.79005797E+02</rscale>
<asrwt>0</asrwt>
<pdfrwt beam="1">  1        1 0.44250861E-02 0.79005797E+02</pdfrwt>
<pdfrwt beam="2">  1       -2 0.83465978E-02 0.79005797E+02</pdfrwt>
<totfact> 0.12444369E+05</totfact>
</mgrwt>
</event>
<event>
 8    1  0.1241100E-020  0.7841309E+02  0.7818608E-02  0.1333616E+00
         -2   -1    0    0    0  501 -0.00000000000E+00  0.00000000000E+00  0.53834216407E+03  0.53834216408E+03  0.25500000000E-02 0.  1.
          1   -1    0    0  501    0  0.00000000000E+00 -0.00000000000E+00 -0.28553436788E+01  0.28553481269E+01  0.50400000000E-02 0. -1.
        -24    2    1    2    0    0  0.00000000000E+00  0.00000000000E+00  0.53548682040E+03  0.54119751221E+03  0.78413088206E+02 0.  0.
         66    2    3    3    0    0 -0.23180313976E+02  0.25564614123E+02  0.39597840476E+03  0.39748430597E+03  0.20000002038E+01 0.  0.
         13    1    3    3    0    0  0.23180313976E+02 -0.25564614123E+02  0.13950841563E+03  0.14371320624E+03  0.10566000000E+00 0. -1.
         13    1    4    4    0    0 -0.88695321171E+01  0.98442113544E+01  0.16153337418E+03  0.16207596748E+03  0.10566000000E+00 0. -1.
        -13    1    4    4    0    0 -0.73902958376E+01  0.87041767210E+01  0.12690646730E+03  0.12741915779E+03  0.10566000000E+00 0.  1.
         14    1    4    4    0    0 -0.69204860217E+01  0.70162260474E+01  0.10753856328E+03  0.10798918069E+03  0.00000000000E+00 0. -1.
<mgrwt>
<rscale>  0 0.78413088E+02</rscale>
<asrwt>0</asrwt>
<pdfrwt beam="1">  1        1 0.43928430E-03 0.78413088E+02</pdfrwt>
<pdfrwt beam="2">  1       -2 0.82821812E-01 0.78413088E+02</pdfrwt>
<totfact> 0.50071923E+04</totfact>
</mgrwt>
</event>
<event>
 8    1  0.1241100E-020  0.8119097E+02  0.7818608E-02  0.1325705E+00
         -2   -1    0    0    0  501 -0.00000000000E+00  0.00000000000E+00  0.88840433557E+01  0.88840437216E+01  0.25500000000E-02 0.  1.
          1   -1    0    0  501    0  0.00000000000E+00 -0.00000000000E+00 -0.18550036207E+03  0.18550036213E+03  0.50400000000E-02 0. -1.
        -24    2    1    2    0    0  0.00000000000E+00  0.00000000000E+00 -0.17661631871E+03  0.19438440586E+03  0.81190967510E+02 0.  0.
         66    2    3    3    0    0 -0.17441725755E+02 -0.22721173974E+02 -0.19572715629E+02  0.34749917174E+02  0.20000006001E+01 0.  0.
         13    1    3    3    0    0  0.17441725755E+02  0.22721173974E+02 -0.15704360308E+03  0.15963448868E+03  0.10566000000E+00 0. -1.
         13    1    4    4    0    0 -0.70049447803E+00 -0.91589150659E+00 -0.46786539621E+00  0.12488441977E+01  0.10566000000E+00 0. -1.
        -13    1    4    4    0    0 -0.90202308106E+01 -0.12472350483E+02 -0.10156786267E+02  0.18441680014E+02  0.10566000000E+00 0.  1.
        -14    1    4    4    0    0 -0.77210004666E+01 -0.93329319853E+01 -0.89480639662E+01  0.15059392962E+02  0.00000000000E+00 0.  1.
<mgrwt>
<rscale>  0 0.81190968E+02</rscale>
<asrwt>0</asrwt>
<pdfrwt beam="1">  1        1 0.28538514E-01 0.81190968E+02</pdfrwt>
<pdfrwt beam="2">  1       -2 0.13667761E-02 0.81190968E+02</pdfrwt>
<totfact> 0.15799390E+05</totfact>
</mgrwt>
</event>
<event>
 8    1  0.1349611E-020  0.7928889E+02  0.7818608E-02  0.1331082E+00
         -2   -1    0    0    0  501 -0.00000000000E+00  0.00000000000E+00  0.82398323213E+01  0.82398327159E+01  0.25500000000E-02 0.  1.
          1   -1    0    0  501    0  0.00000000000E+00 -0.00000000000E+00 -0.19074199879E+03  0.19074199886E+03  0.50400000000E-02 0. -1.
        -24    2    1    2    0    0  0.35527136788E-14  0.35527136788E-14 -0.18250216647E+03  0.19898183158E+03  0.79288892856E+02 0.  0.
         66    2    3    3    0    0 -0.19581053858E+02  0.26922863921E+02 -0.37401533865E+02  0.50111206472E+02  0.20000016677E+01 0.  0.
         13    1    3    3    0    0  0.19581053858E+02 -0.26922863921E+02 -0.14510063261E+03  0.14887062510E+03  0.10566000000E+00 0. -1.
         13    1    4    4    0    0 -0.26931890455E+01  0.33890243594E+01 -0.54546978732E+01  0.69644559204E+01  0.10566000000E+00 0. -1.
        -13    1    4    4    0    0 -0.16127725381E+02  0.22102310989E+02 -0.30499975350E+02  0.40974081288E+02  0.10566000000E+00 0.  1.
         14    1    4    4    0    0 -0.76013943211E+00  0.14315285727E+01 -0.14468606420E+01  0.21726692634E+01  0.00000000000E+00 0. -1.
<mgrwt>
<rscale>  0 0.79288893E+02</rscale>
<asrwt>0</asrwt>
<pdfrwt beam="1">  1        1 0.29344920E-01 0.79288893E+02</pdfrwt>
<pdfrwt beam="2">  1       -2 0.12676667E-02 0.79288893E+02</pdfrwt>
<totfact> 0.16918134E+05</totfact>
</mgrwt>
</event>
<event>
 8    1  0.1241100E-020  0.8681802E+02  0.7818608E-02  0.1310746E+00
          1   -1    0    0  501    0  0.00000000000E+00  0.00000000000E+00  0.92078421229E+02  0.92078421367E+02  0.50400000000E-02 0. -1.
         -2   -1    0    0    0  501 -0.00000000000E+00 -0.00000000000E+00 -0.20464535238E+02  0.20464535397E+02  0.25500000000E-02 0.  1.
        -24    2    1    2    0    0  0.35527136788E-14  0.00000000000E+00  0.71613885991E+02  0.11254295676E+03  0.86818019158E+02 0.  0.
         66    2    3    3    0    0 -0.17134753234E+02  0.14800445939E+02 -0.12149513026E+02  0.25773312606E+02  0.20000018793E+01 0.  0.
         13    1    3    3    0    0  0.17134753234E+02 -0.14800445939E+02  0.83763399017E+02  0.86769644158E+02  0.10566000000E+00 0. -1.
         13    1    4    4    0    0 -0.58795371132E+01  0.47388748992E+01 -0.36731817206E+01  0.83981736089E+01  0.10566000000E+00 0. -1.
        -13    1    4    4    0    0 -0.75207604837E+01  0.59570992424E+01 -0.49021107536E+01  0.10774540524E+02  0.10566000000E+00 0.  1.
        -14    1    4    4    0    0 -0.37344556374E+01  0.41044717976E+01 -0.35742205518E+01  0.66005984727E+01  0.00000000000E+00 0.  1.
<mgrwt>
<rscale>  0 0.86818019E+02</rscale>
<asrwt>0</asrwt>
<pdfrwt beam="1">  1        1 0.14165911E-01 0.86818019E+02</pdfrwt>
<pdfrwt beam="2">  1       -2 0.31483901E-02 0.86818019E+02</pdfrwt>
<totfact> 0.11601365E+05</totfact>
</mgrwt>
</event>
<event>
 8    1  0.1241100E-020  0.8162056E+02  0.7818608E-02  0.1324514E+00
          1   -1    0    0  501    0  0.00000000000E+00  0.00000000000E+00  0.32994586761E+02  0.32994587146E+02  0.50400000000E-02 0. -1.
         -2   -1    0    0    0  501 -0.00000000000E+00 -0.00000000000E+00 -0.50477339660E+02  0.50477339724E+02  0.25500000000E-02 0.  1.
        -24    2    1    2    0    0  0.35527136788E-14 -0.71054273576E-14 -0.17482752898E+02  0.83471926870E+02  0.81620560685E+02 0.  0.
         66    2    3    3    0    0 -0.30847570654E+02  0.24994393429E+02 -0.18295513278E+02  0.43760920064E+02  0.20000001544E+01 0.  0.
         13    1    3    3    0    0  0.30847570654E+02 -0.24994393429E+02  0.81276037946E+00  0.39711006807E+02  0.10566000000E+00 0. -1.
         13    1    4    4    0    0 -0.76618772092E+01  0.62939477640E+01 -0.42612097356E+01  0.10792924222E+02  0.10566000000E+00 0. -1.
        -13    1    4    4    0    0 -0.21092581658E+02  0.16897979176E+02 -0.13228710359E+02  0.30090673689E+02  0.10566000000E+00 0.  1.
         14    1    4    4    0    0 -0.20931117867E+01  0.18024664886E+01 -0.80559318323E+00  0.28773221528E+01  0.00000000000E+00 0. -1.
<mgrwt>
<rscale>  0 0.81620561E+02</rscale>
<asrwt>0</asrwt>
<pdfrwt beam="1">  1        1 0.50760904E-02 0.81620561E+02</pdfrwt>
<pdfrwt beam="2">  1       -2 0.77657445E-02 0.81620561E+02</pdfrwt>
<totfact> 0.11611329E+05</totfact>
</mgrwt>
</event>
<event>
 8    1  0.1241100E-020  0.7390673E+02  0.7818608E-02  0.1347290E+00
         -2   -1    0    0    0  501 -0.00000000000E+00  0.00000000000E+00  0.55400193961E+02  0.55400194019E+02  0.25500000000E-02 0.  1.
          1   -1    0    0  501    0  0.00000000000E+00 -0.00000000000E+00 -0.24648851845E+02  0.24648852360E+02  0.50400000000E-02 0. -1.
        -24    2    1    2    0    0  0.00000000000E+00 -0.35527136788E-14  0.30751342116E+02  0.80049046380E+02  0.73906730305E+02 0.  0.
         66    2    3    3    0    0  0.10230424073E+02  0.20162476365E+02  0.47008476864E+02  0.52201378180E+02  0.19999892356E+01 0.  0.
         13    1    3    3    0    0 -0.10230424073E+02 -0.20162476365E+02 -0.16257134749E+02  0.27847668200E+02  0.10566000000E+00 0. -1.
         13    1    4    4    0    0  0.21474418265E+01  0.28160583675E+01  0.78312627976E+01  0.85954367061E+01  0.10566000000E+00 0. -1.
        -13    1    4    4    0    0  0.34871906688E+01  0.71601905047E+01  0.15703886070E+02  0.17608294311E+02  0.10566000000E+00 0.  1.
         14    1    4    4    0    0  0.45957915780E+01  0.10186227492E+02  0.23473327997E+02  0.25997647163E+02  0.00000000000E+00 0. -1.
<mgrwt>
<rscale>  0 0.73906730E+02</rscale>
<asrwt>0</asrwt>
<pdfrwt beam="1">  1        1 0.37921312E-02 0.73906730E+02</pdfrwt>
<pdfrwt beam="2">  1       -2 0.85231067E-02 0.73906730E+02</pdfrwt>
<totfact> 0.14667518E+05</totfact>
</mgrwt>
</event>
<event>
 8    1  0.1241100E-020  0.8354457E+02  0.7818608E-02  0.1319283E+00
         -2   -1    0    0    0  501 -0.00000000000E+00  0.00000000000E+00  0.22092816231E+03  0.22092816233E+03  0.25500000000E-02 0.  1.
          1   -1    0    0  501    0  0.00000000000E+00 -0.00000000000E+00 -0.78981493603E+01  0.78981509684E+01  0.50400000000E-02 0. -1.
        -24    2    1    2    0    0  0.00000000000E+00  0.00000000000E+00  0.21303001295E+03  0.22882631329E+03  0.83544570368E+02 0.  0.
         66    2    3    3    0    0  0.34419577323E+02 -0.21022320517E+02  0.13611027986E+03  0.14197412987E+03  0.20000013221E+01 0.  0.
         13    1    3    3    0    0 -0.34419577323E+02  0.21022320517E+02  0.76919733092E+02  0.86852183427E+02  0.10566000000E+00 0. -1.
         13    1    4    4    0    0  0.11136862293E+01 -0.45756805321E+00  0.40900708512E+01  0.42649160770E+01  0.10566000000E+00 0. -1.
        -13    1    4    4    0    0  0.17485425593E+02 -0.10609108559E+02  0.71565203555E+02  0.74430389066E+02  0.10566000000E+00 0.  1.
         14    1    4    4    0    0  0.15820465501E+02 -0.99556439055E+01  0.60455005452E+02  0.63278824724E+02  0.00000000000E+00 0. -1.
<mgrwt>
<rscale>  0 0.83544570E+02</rscale>
<asrwt>0</asrwt>
<pdfrwt beam="1">  1        1 0.12151001E-02 0.83544570E+02</pdfrwt>
<pdfrwt beam="2">  1       -2 0.33988947E-01 0.83544570E+02</pdfrwt>
<totfact> 0.72939641E+04</totfact>
</mgrwt>
</event>
<event>
 8    1  0.1241100E-020  0.8212813E+02  0.7818608E-02  0.1323118E+00
          1   -1    0    0  501    0  0.00000000000E+00  0.00000000000E+00  0.24482809516E+03  0.24482809521E+03  0.50400000000E-02 0. -1.
         -2   -1    0    0    0  501 -0.00000000000E+00 -0.00000000000E+00 -0.68875163919E+01  0.68875168640E+01  0.25500000000E-02 0.  1.
        -24    2    1    2    0    0  0.00000000000E+00  0.35527136788E-14  0.23794057876E+03  0.25171561207E+03  0.82128133658E+02 0.  0.
         66    2    3    3    0    0 -0.31216251210E+02 -0.25824879901E+02  0.98972168656E+02  0.10696199749E+03  0.19999944617E+01 0.  0.
         13    1    3    3    0    0  0.31216251210E+02  0.25824879901E+02  0.13896841011E+03  0.14475361458E+03  0.10566000000E+00 0. -1.
         13    1    4    4    0    0 -0.74189382553E+01 -0.63523402762E+01  0.24436534786E+02  0.26316311827E+02  0.10566000000E+00 0. -1.
        -13    1    4    4    0    0 -0.37095935306E+01 -0.24836112897E+01  0.98682941853E+01  0.10831611300E+02  0.10566000000E+00 0.  1.
        -14    1    4    4    0    0 -0.20087719424E+02 -0.16988928335E+02  0.64667339685E+02  0.69814074366E+02  0.00000000000E+00 0.  1.
<mgrwt>
<rscale>  0 0.82128134E+02</rscale>
<asrwt>0</asrwt>
<pdfrwt beam="1">  1        1 0.37665859E-01 0.82128134E+02</pdfrwt>
<pdfrwt beam="2">  1       -2 0.10596180E-02 0.82128134E+02</pdfrwt>
<totfact> 0.16179285E+05</totfact>
</mgrwt>
</event>
<event>
 8    1  0.1241100E-020  0.8425281E+02  0.7818608E-02  0.1317398E+00
         -2   -1    0    0    0  501 -0.00000000000E+00  0.00000000000E+00  0.27650107955E+02  0.27650108073E+02  0.25500000000E-02 0.  1.
          1   -1    0    0  501    0  0.00000000000E+00 -0.00000000000E+00 -0.64181813874E+02  0.64181814072E+02  0.50400000000E-02 0. -1.
        -24    2    1    2    0    0  0.71054273576E-14 -0.17763568394E-14 -0.36531705919E+02  0.91831922145E+02  0.84252812341E+02 0.  0.
         66    2    3    3    0    0  0.34524225524E+02 -0.14375507650E+02  0.28041007132E+01  0.37555829657E+02  0.19999980471E+01 0.  0.
         13    1    3    3    0    0 -0.34524225524E+02  0.14375507650E+02 -0.39335806632E+02  0.54276092487E+02  0.10566000000E+00 0. -1.
         13    1    4    4    0    0  0.10123925356E+02 -0.39489491877E+01  0.76662689060E+00  0.10894353819E+02  0.10566000000E+00 0. -1.
        -13    1    4    4    0    0  0.16195951146E+02 -0.70858959544E+01  0.61196407849E+00  0.17689104530E+02  0.10566000000E+00 0.  1.
         14    1    4    4    0    0  0.82043490217E+01 -0.33406625080E+01  0.14255097441E+01  0.89723713083E+01  0.00000000000E+00 0. -1.
<mgrwt>
<rscale>  0 0.84252812E+02</rscale>
<asrwt>0</asrwt>
<pdfrwt beam="1">  1        1 0.98741252E-02 0.84252812E+02</pdfrwt>
<pdfrwt beam="2">  1       -2 0.42538628E-02 0.84252812E+02</pdfrwt>
<totfact> 0.11860085E+05</totfact>
</mgrwt>
</event>
<event>
 8    1  0.1241100E-020  0.7687590E+02  0.7818608E-02  0.1338158E+00
         -2   -1    0    0    0  501 -0.00000000000E+00  0.00000000000E+00  0.21704018560E+03  0.21704018562E+03  0.25500000000E-02 0.  1.
          1   -1    0    0  501    0  0.00000000000E+00 -0.00000000000E+00 -0.68073838766E+01  0.68073857423E+01  0.50400000000E-02 0. -1.
        -24    2    1    2    0    0  0.00000000000E+00  0.00000000000E+00  0.21023280173E+03  0.22384757136E+03  0.76875901830E+02 0.  0.
         66    2    3    3    0    0  0.13297002658E+02  0.48374425644E+01  0.20917015536E+03  0.20965773304E+03  0.19999995680E+01 0.  0.
         13    1    3    3    0    0 -0.13297002658E+02 -0.48374425644E+01  0.10626463634E+01  0.14189838321E+02  0.10566000000E+00 0. -1.
         13    1    4    4    0    0  0.14332857979E+01 -0.90303821401E-01  0.21061901890E+02  0.21111071461E+02  0.10566000000E+00 0. -1.
        -13    1    4    4    0    0  0.67597985731E+01  0.26907050299E+01  0.10524691999E+03  0.10549815213E+03  0.10566000000E+00 0.  1.
         14    1    4    4    0    0  0.51039182870E+01  0.22370413559E+01  0.82861333480E+02  0.83048509451E+02  0.00000000000E+00 0. -1.
<mgrwt>
<rscale>  0 0.76875902E+02</rscale>
<asrwt>0</asrwt>
<pdfrwt beam="1">  1        1 0.10472901E-02 0.76875902E+02</pdfrwt>
<pdfrwt beam="2">  1       -2 0.33390795E-01 0.76875902E+02</pdfrwt>
<totfact> 0.91107999E+04</totfact>
</mgrwt>
</event>
<event>
 8    1  0.1241100E-020  0.7732483E+02  0.7818608E-02  0.1336819E+00
         -2   -1    0    0    0  501 -0.00000000000E+00  0.00000000000E+00  0.65179298107E+03  0.65179298108E+03  0.25500000000E-02 0.  1.
          1   -1    0    0  501    0  0.00000000000E+00 -0.00000000000E+00 -0.22933361374E+01  0.22933416756E+01  0.50400000000E-02 0. -1.
        -24    2    1    2    0    0  0.17763568394E-14  0.88817841970E-15  0.64949964494E+03  0.65408632275E+03  0.77324826814E+02 0.  0.
         66    2    3    3    0    0  0.11686984867E+02  0.78869752960E+01  0.62925187444E+03  0.62941298961E+03  0.20000004107E+01 0.  0.
         13    1    3    3    0    0 -0.11686984867E+02 -0.78869752960E+01  0.20247770493E+02  0.24673333147E+02  0.10566000000E+00 0. -1.
         13    1    4    4    0    0  0.45778858832E+01  0.30613261121E+01  0.25622991244E+03  0.25628911008E+03  0.10566000000E+00 0. -1.
        -13    1    4    4    0    0  0.41213322247E+01  0.20743378682E+01  0.21690354538E+03  0.21695263865E+03  0.10566000000E+00 0.  1.
         14    1    4    4    0    0  0.29877667592E+01  0.27513113157E+01  0.15611841663E+03  0.15617124087E+03  0.00000000000E+00 0. -1.
<mgrwt>
<rscale>  0 0.77324827E+02</rscale>
<asrwt>0</asrwt>
<pdfrwt beam="1">  1        1 0.35282064E-03 0.77324827E+02</pdfrwt>
<pdfrwt beam="2">  1       -2 0.10027605E+00 0.77324827E+02</pdfrwt>
<totfact> 0.44125036E+04</totfact>
</mgrwt>
</event>
<event>
 8    1  0.1241100E-020  0.7896867E+02  0.7818608E-02  0.1332004E+00
          1   -1    0    0  501    0  0.00000000000E+00  0.00000000000E+00  0.18491850957E+02  0.18491851644E+02  0.50400000000E-02 0. -1.
         -2   -1    0    0    0  501 -0.00000000000E+00 -0.00000000000E+00 -0.84308096692E+02  0.84308096731E+02  0.25500000000E-02 0.  1.
        -24    2    1    2    0    0 -0.17763568394E-14  0.71054273576E-14 -0.65816245735E+02  0.10279994838E+03  0.78968672164E+02 0.  0.
         66    2    3    3    0    0 -0.10749614426E+02  0.37566725813E+02 -0.40082428363E+02  0.56012625101E+02  0.20000021525E+01 0.  0.
         13    1    3    3    0    0  0.10749614426E+02 -0.37566725813E+02 -0.25733817372E+02  0.46787323274E+02  0.10566000000E+00 0. -1.
         13    1    4    4    0    0 -0.32427453737E+01  0.10448387172E+02 -0.11007260427E+02  0.15519508310E+02  0.10566000000E+00 0. -1.
        -13    1    4    4    0    0 -0.13740385189E+01  0.32120485388E+01 -0.32908897088E+01  0.48006621188E+01  0.10566000000E+00 0.  1.
        -14    1    4    4    0    0 -0.61328305337E+01  0.23906290102E+02 -0.25784278227E+02  0.35692454672E+02  0.00000000000E+00 0.  1.
<mgrwt>
<rscale>  0 0.78968672E+02</rscale>
<asrwt>0</asrwt>
<pdfrwt beam="1">  1        1 0.28449002E-02 0.78968672E+02</pdfrwt>
<pdfrwt beam="2">  1       -2 0.12970476E-01 0.78968672E+02</pdfrwt>
<totfact> 0.11419884E+05</totfact>
</mgrwt>
</event>
<event>
 8    1  0.1241100E-020  0.7966865E+02  0.7818608E-02  0.1329994E+00
          1   -1    0    0  501    0  0.00000000000E+00  0.00000000000E+00  0.39726800470E+01  0.39726832440E+01  0.50400000000E-02 0. -1.
         -2   -1    0    0    0  501 -0.00000000000E+00 -0.00000000000E+00 -0.39942127780E+03  0.39942127781E+03  0.25500000000E-02 0.  1.
        -24    2    1    2    0    0  0.00000000000E+00  0.71054273576E-14 -0.39544859775E+03  0.40339396105E+03  0.79668653487E+02 0.  0.
         66    2    3    3    0    0  0.38532785526E+01 -0.39552341175E+02 -0.20975904240E+03  0.21349962838E+03  0.20000009386E+01 0.  0.
         13    1    3    3    0    0 -0.38532785526E+01  0.39552341175E+02 -0.18568955535E+03  0.18989433267E+03  0.10566000000E+00 0. -1.
         13    1    4    4    0    0  0.13414406086E+01 -0.95681442209E+01 -0.49466196383E+02  0.50401037642E+02  0.10566000000E+00 0. -1.
        -13    1    4    4    0    0  0.87772621422E+00 -0.57812885919E+01 -0.29098879721E+02  0.29680796252E+02  0.10566000000E+00 0. -1.
        -14    1    4    4    0    0  0.16341117298E+01 -0.24202908362E+02 -0.13119396630E+03  0.13341779449E+03  0.00000000000E+00 0.  1.
<mgrwt>
<rscale>  0 0.79668653E+02</rscale>
<asrwt>0</asrwt>
<pdfrwt beam="1">  1        1 0.61118211E-03 0.79668653E+02</pdfrwt>
<pdfrwt beam="2">  1       -2 0.61449396E-01 0.79668653E+02</pdfrwt>
<totfact> 0.59787908E+04</totfact>
</mgrwt>
</event>
<event>
 8    1  0.1241100E-020  0.7779376E+02  0.7818608E-02  0.1335432E+00
          1   -1    0    0  501    0  0.00000000000E+00  0.00000000000E+00  0.80336418904E+01  0.80336434714E+01  0.50400000000E-02 0. -1.
         -2   -1    0    0    0  501 -0.00000000000E+00 -0.00000000000E+00 -0.18832894423E+03  0.18832894424E+03  0.25500000000E-02 0.  1.
        -24    2    1    2    0    0  0.00000000000E+00  0.00000000000E+00 -0.18029530234E+03  0.19636258772E+03  0.77793764594E+02 0.  0.
         66    2    3    3    0    0 -0.13316697589E+02 -0.30268179153E+02 -0.14178028424E+03  0.14559926546E+03  0.19999994279E+01 0.  0.
         13    1    3    3    0    0  0.13316697589E+02  0.30268179153E+02 -0.38515018092E+02  0.50763322257E+02  0.10566000000E+00 0. -1.
         13    1    4    4    0    0 -0.18789004632E+01 -0.38677612582E+01 -0.21091945592E+02  0.21526058093E+02  0.10566000000E+00 0. -1.
        -13    1    4    4    0    0 -0.43713237484E+01 -0.10488354884E+02 -0.49228915561E+02  0.50523374301E+02  0.10566000000E+00 0.  1.
         14    1    4    4    0    0 -0.70664733772E+01 -0.15912063011E+02 -0.71459423092E+02  0.73549833065E+02  0.00000000000E+00 0. -1.
<mgrwt>
<rscale>  0 0.77793765E+02</rscale>
<asrwt>0</asrwt>
<pdfrwt beam="1">  1        1 0.12359452E-02 0.77793765E+02</pdfrwt>
<pdfrwt beam="2">  1       -2 0.28973680E-01 0.77793765E+02</pdfrwt>
<totfact> 0.93640031E+04</totfact>
</mgrwt>
</event>
<event>
 8    1  0.1241100E-020  0.8327228E+02  0.7818608E-02  0.1320014E+00
          1   -1    0    0  501    0  0.00000000000E+00  0.00000000000E+00  0.24125232936E+03  0.24125232941E+03  0.50400000000E-02 0. -1.
         -2   -1    0    0    0  501 -0.00000000000E+00 -0.00000000000E+00 -0.71857048991E+01  0.71857053516E+01  0.25500000000E-02 0.  1.
        -24    2    1    2    0    0 -0.35527136788E-14  0.71054273576E-14  0.23406662446E+03  0.24843803477E+03  0.83272278887E+02 0.  0.
         66    2    3    3    0    0 -0.22466969696E+02  0.29646973633E+02  0.61456810799E+02  0.71865481095E+02  0.20000016320E+01 0.  0.
         13    1    3    3    0    0  0.22466969696E+02 -0.29646973633E+02  0.17260981366E+03  0.17657255367E+03  0.10566000000E+00 0. -1.
         13    1    4    4    0    0 -0.19828017791E+01  0.23118264553E+01  0.42925118826E+01  0.52643011647E+01  0.10566000000E+00 0. -1.
        -13    1    4    4    0    0 -0.17755662189E+02  0.23728207483E+02  0.48872075044E+02  0.57155771828E+02  0.10566000000E+00 0.  1.
         14    1    4    4    0    0 -0.27285057278E+01  0.36069396947E+01  0.82922238732E+01  0.94454081030E+01  0.00000000000E+00 0. -1.
<mgrwt>
<rscale>  0 0.83272279E+02</rscale>
<asrwt>0</asrwt>
<pdfrwt beam="1">  1        1 0.37115742E-01 0.83272279E+02</pdfrwt>
<pdfrwt beam="2">  1       -2 0.11054931E-02 0.83272279E+02</pdfrwt>
<totfact> 0.15550745E+05</totfact>
</mgrwt>
</event>
<event>
 8    1  0.1241100E-020  0.7461038E+02  0.7818608E-02  0.1345082E+00
          1   -1    0    0  501    0  0.00000000000E+00  0.00000000000E+00  0.31905228192E+02  0.31905228591E+02  0.50400000000E-02 0. -1.
         -2   -1    0    0    0  501 -0.00000000000E+00 -0.00000000000E+00 -0.43619097283E+02  0.43619097358E+02  0.25500000000E-02 0.  1.
        -24    2    1    2    0    0  0.00000000000E+00  0.17763568394E-14 -0.11713869091E+02  0.75524325948E+02  0.74610381857E+02 0.  0.
         66    2    3    3    0    0  0.36360993123E+02 -0.80669898332E+01 -0.42688870893E+01  0.37542263512E+02  0.20000016877E+01 0.  0.
         13    1    3    3    0    0 -0.36360993123E+02  0.80669898332E+01 -0.74449820016E+01  0.37982062436E+02  0.10566000000E+00 0. -1.
         13    1    4    4    0    0  0.53211741584E+01 -0.13860136375E+01 -0.38638067196E+00  0.55132914204E+01  0.10566000000E+00 0. -1.
        -13    1    4    4    0    0  0.55519956062E+00 -0.32207126662E+00 -0.12399209229E+00  0.66220429434E+00  0.10566000000E+00 0.  1.
        -14    1    4    4    0    0  0.30484619404E+02 -0.63589049290E+01 -0.37585143250E+01  0.31366767797E+02  0.00000000000E+00 0.  1.
<mgrwt>
<rscale>  0 0.74610382E+02</rscale>
<asrwt>0</asrwt>
<pdfrwt beam="1">  1        1 0.49084967E-02 0.74610382E+02</pdfrwt>
<pdfrwt beam="2">  1       -2 0.67106304E-02 0.74610382E+02</pdfrwt>
<totfact> 0.14903493E+05</totfact>
</mgrwt>
</event>
<event>
 8    1  0.1241100E-020  0.8008903E+02  0.7818608E-02  0.1328799E+00
         -2   -1    0    0    0  501 -0.00000000000E+00  0.00000000000E+00  0.51459889454E+02  0.51459889517E+02  0.25500000000E-02 0.  1.
          1   -1    0    0  501    0  0.00000000000E+00 -0.00000000000E+00 -0.31161417591E+02  0.31161417998E+02  0.50400000000E-02 0. -1.
        -24    2    1    2    0    0 -0.17763568394E-14  0.71054273576E-14  0.20298471863E+02  0.82621307516E+02  0.80089028560E+02 0.  0.
         66    2    3    3    0    0 -0.14308141513E+02  0.33689738414E+02  0.26848546090E+02  0.45437493505E+02  0.20000002070E+01 0.  0.
         13    1    3    3    0    0  0.14308141513E+02 -0.33689738414E+02 -0.65500742273E+01  0.37183814011E+02  0.10566000000E+00 0. -1.
         13    1    4    4    0    0 -0.16754973816E+01  0.44018809490E+01  0.32981904459E+01  0.57509191977E+01  0.10566000000E+00 0. -1.
        -13    1    4    4    0    0 -0.11862001061E+02  0.27681003315E+02  0.21713116295E+02  0.37127019770E+02  0.10566000000E+00 0.  1.
         14    1    4    4    0    0 -0.77064307010E+00  0.16068541505E+01  0.18372393493E+01  0.25595545373E+01  0.00000000000E+00 0. -1.
<mgrwt>
<rscale>  0 0.80089029E+02</rscale>
<asrwt>0</asrwt>
<pdfrwt beam="1">  1        1 0.47940643E-02 0.80089029E+02</pdfrwt>
<pdfrwt beam="2">  1       -2 0.79169060E-02 0.80089029E+02</pdfrwt>
<totfact> 0.12137104E+05</totfact>
</mgrwt>
</event>
<event>
 8    1  0.1241100E-020  0.8005148E+02  0.7818608E-02  0.1328905E+00
         -2   -1    0    0    0  501 -0.00000000000E+00  0.00000000000E+00  0.47547284055E+02  0.47547284123E+02  0.25500000000E-02 0.  1.
          1   -1    0    0  501    0  0.00000000000E+00 -0.00000000000E+00 -0.33694038035E+02  0.33694038412E+02  0.50400000000E-02 0. -1.
        -24    2    1    2    0    0  0.00000000000E+00  0.00000000000E+00  0.13853246020E+02  0.81241322535E+02  0.80051483821E+02 0.  0.
         66    2    3    3    0    0  0.35656162508E+02 -0.16458301305E+02  0.14647731038E+02  0.41961811627E+02  0.20000009627E+01 0.  0.
         13    1    3    3    0    0 -0.35656162508E+02  0.16458301305E+02 -0.79448501754E+00  0.39279510908E+02  0.10566000000E+00 0. -1.
         13    1    4    4    0    0  0.47138183129E+01 -0.24975812518E+01  0.21935234981E+01  0.57689431068E+01  0.10566000000E+00 0.  1.
        -13    1    4    4    0    0  0.10323047570E+01 -0.53281332354E+00  0.71734480504E+00  0.13694125580E+01  0.10566000000E+00 0.  1.
        -14    1    4    4    0    0  0.29910039438E+02 -0.13427906729E+02  0.11736862734E+02  0.34823455963E+02  0.00000000000E+00 0.  1.
<mgrwt>
<rscale>  0 0.80051484E+02</rscale>
<asrwt>0</asrwt>
<pdfrwt beam="1">  1        1 0.51836982E-02 0.80051484E+02</pdfrwt>
<pdfrwt beam="2">  1       -2 0.73149667E-02 0.80051484E+02</pdfrwt>
<totfact> 0.12318284E+05</totfact>
</mgrwt>
</event>
<event>
 8    1  0.1241100E-020  0.8042006E+02  0.7818608E-02  0.1327864E+00
         -2   -1    0    0    0  501 -0.00000000000E+00  0.00000000000E+00  0.37655424241E+02  0.37655424328E+02  0.25500000000E-02 0.  1.
          1   -1    0    0  501    0  0.00000000000E+00 -0.00000000000E+00 -0.42937945187E+02  0.42937945482E+02  0.50400000000E-02 0. -1.
        -24    2    1    2    0    0  0.00000000000E+00  0.17763568394E-14 -0.52825209453E+01  0.80593369810E+02  0.80420061115E+02 0.  0.
         66    2    3    3    0    0  0.38847050179E+02  0.80122274452E+01 -0.91029036586E+01  0.40744962259E+02  0.19999995699E+01 0.  0.
         13    1    3    3    0    0 -0.38847050179E+02 -0.80122274452E+01  0.38203827133E+01  0.39848407551E+02  0.10566000000E+00 0. -1.
         13    1    4    4    0    0  0.20579175508E+02  0.44600498231E+01 -0.42111271206E+01  0.21474153410E+02  0.10566000000E+00 0. -1.
        -13    1    4    4    0    0  0.16049689964E+02  0.33575517450E+01 -0.45584401651E+01  0.17019290304E+02  0.10566000000E+00 0.  1.
         14    1    4    4    0    0  0.22181847066E+01  0.19462587719E+00 -0.33333637293E+00  0.22515185458E+01  0.00000000000E+00 0. -1.
<mgrwt>
<rscale>  0 0.80420061E+02</rscale>
<asrwt>0</asrwt>
<pdfrwt beam="1">  1        1 0.66058378E-02 0.80420061E+02</pdfrwt>
<pdfrwt beam="2">  1       -2 0.57931422E-02 0.80420061E+02</pdfrwt>
<totfact> 0.12656029E+05</totfact>
</mgrwt>
</event>
<event>
 8    1  0.1241100E-020  0.7916447E+02  0.7818608E-02  0.1331439E+00
          1   -1    0    0  501    0  0.00000000000E+00  0.00000000000E+00  0.36687740282E+01  0.36687774900E+01  0.50400000000E-02 0. -1.
         -2   -1    0    0    0  501 -0.00000000000E+00 -0.00000000000E+00 -0.42705073271E+03  0.42705073272E+03  0.25500000000E-02 0.  1.
        -24    2    1    2    0    0  0.00000000000E+00  0.00000000000E+00 -0.42338195868E+03  0.43071951021E+03  0.79164471426E+02 0.  0.
         66    2    3    3    0    0  0.31667201524E+02 -0.21251393091E+02 -0.26897116732E+03  0.27166877297E+03  0.20000001276E+01 0.  0.
         13    1    3    3    0    0 -0.31667201524E+02  0.21251393091E+02 -0.15441079136E+03  0.15905073723E+03  0.10566000000E+00 0. -1.
         13    1    4    4    0    0  0.51496553192E+01 -0.28165935767E+01 -0.41265623986E+02  0.41681111265E+02  0.10566000000E+00 0. -1.
        -13    1    4    4    0    0  0.17708899369E+02 -0.12969829346E+02 -0.15346895067E+03  0.15503080847E+03  0.10566000000E+00 0.  1.
        -14    1    4    4    0    0  0.88086468361E+01 -0.54649701681E+01 -0.74236592661E+02  0.74956853242E+02  0.00000000000E+00 0.  1.
<mgrwt>
<rscale>  0 0.79164471E+02</rscale>
<asrwt>0</asrwt>
<pdfrwt beam="1">  1        1 0.56442738E-03 0.79164471E+02</pdfrwt>
<pdfrwt beam="2">  1       -2 0.65700074E-01 0.79164471E+02</pdfrwt>
<totfact> 0.58084724E+04</totfact>
</mgrwt>
</event>
<event>
 8    1  0.1241100E-020  0.7948734E+02  0.7818608E-02  0.1330513E+00
         -2   -1    0    0    0  501 -0.00000000000E+00  0.00000000000E+00  0.88583609545E+03  0.88583609546E+03  0.25500000000E-02 0.  1.
          1   -1    0    0  501    0  0.00000000000E+00 -0.00000000000E+00 -0.17831244890E+01  0.17831316118E+01  0.50400000000E-02 0. -1.
        -24    2    1    2    0    0 -0.17763568394E-14  0.00000000000E+00  0.88405297096E+03  0.88761922707E+03  0.79487337302E+02 0.  0.
         66    2    3    3    0    0 -0.12865989618E+02 -0.19492030654E+02  0.80105042146E+03  0.80139331834E+03  0.20000026613E+01 0.  0.
         13    1    3    3    0    0  0.12865989618E+02  0.19492030654E+02  0.83002549499E+02  0.86225908724E+02  0.10566000000E+00 0. -1.
         13    1    4    4    0    0 -0.52074021786E+00 -0.10063688464E+01  0.32421977816E+02  0.32441944426E+02  0.10566000000E+00 0. -1.
        -13    1    4    4    0    0 -0.28165852848E+01 -0.33323268695E+01  0.16340958761E+03  0.16346786241E+03  0.10566000000E+00 0.  1.
        -14    1    4    4    0    0 -0.95286641154E+01 -0.15153334938E+02  0.60521885604E+03  0.60548351151E+03  0.00000000000E+00 0.  1.
<mgrwt>
<rscale>  0 0.79487337E+02</rscale>
<asrwt>0</asrwt>
<pdfrwt beam="1">  1        1 0.27432728E-03 0.79487337E+02</pdfrwt>
<pdfrwt beam="2">  1       -2 0.13628253E+00 0.79487337E+02</pdfrwt>
<totfact> 0.30374179E+04</totfact>
</mgrwt>
</event>
<event>
 8    1  0.1241100E-020  0.7958962E+02  0.7818608E-02  0.1330220E+00
          1   -1    0    0  501    0  0.00000000000E+00  0.00000000000E+00  0.30259820334E+02  0.30259820754E+02  0.50400000000E-02 0. -1.
         -2   -1    0    0    0  501 -0.00000000000E+00 -0.00000000000E+00 -0.52334316057E+02  0.52334316119E+02  0.25500000000E-02 0.  1.
        -24    2    1    2    0    0  0.00000000000E+00  0.00000000000E+00 -0.22074495723E+02  0.82594136873E+02  0.79589622969E+02 0.  0.
         66    2    3    3    0    0 -0.25177199155E+02 -0.30716591602E+02 -0.13176442168E+02  0.41892946743E+02  0.20000004134E+01 0.  0.
         13    1    3    3    0    0  0.25177199155E+02  0.30716591602E+02 -0.88980535550E+01  0.40701190130E+02  0.10566000000E+00 0. -1.
         13    1    4    4    0    0 -0.34659795471E+01 -0.37548459480E+01 -0.14723971275E+01  0.53189284307E+01  0.10566000000E+00 0. -1.
        -13    1    4    4    0    0 -0.70517139300E+01 -0.77158770563E+01 -0.32666740685E+01  0.10951883473E+02  0.10566000000E+00 0.  1.
        -14    1    4    4    0    0 -0.14659505678E+02 -0.19245868597E+02 -0.84373709720E+01  0.25622134839E+02  0.00000000000E+00 0.  1.
<mgrwt>
<rscale>  0 0.79589623E+02</rscale>
<asrwt>0</asrwt>
<pdfrwt beam="1">  1        1 0.46553570E-02 0.79589623E+02</pdfrwt>
<pdfrwt beam="2">  1       -2 0.80514333E-02 0.79589623E+02</pdfrwt>
<totfact> 0.12293423E+05</totfact>
</mgrwt>
</event>
<event>
 8    1  0.1241100E-020  0.7968551E+02  0.7818608E-02  0.1329946E+00
         -2   -1    0    0    0  501 -0.00000000000E+00  0.00000000000E+00  0.42782496761E+03  0.42782496762E+03  0.25500000000E-02 0.  1.
          1   -1    0    0  501    0  0.00000000000E+00 -0.00000000000E+00 -0.37104994287E+01  0.37105028516E+01  0.50400000000E-02 0. -1.
        -24    2    1    2    0    0  0.00000000000E+00 -0.17763568394E-14  0.42411446819E+03  0.43153547047E+03  0.79685507794E+02 0.  0.
         66    2    3    3    0    0  0.33348902094E+02 -0.13959166283E+02  0.30255479335E+03  0.30471365333E+03  0.19999876130E+01 0.  0.
         13    1    3    3    0    0 -0.33348902094E+02  0.13959166283E+02  0.12155967483E+03  0.12682181714E+03  0.10566000000E+00 0. -1.
         13    1    4    4    0    0  0.25140399686E+01 -0.95797305175E+00  0.19392283008E+02  0.19578302113E+02  0.10566000000E+00 0. -1.
        -13    1    4    4    0    0  0.60615350528E+01 -0.24407031886E+01  0.51671811855E+02  0.52083457486E+02  0.10566000000E+00 0.  1.
        -14    1    4    4    0    0  0.24773327073E+02 -0.10560490043E+02  0.23149069849E+03  0.23305189373E+03  0.00000000000E+00 0.  1.
<mgrwt>
<rscale>  0 0.79685508E+02</rscale>
<asrwt>0</asrwt>
<pdfrwt beam="1">  1        1 0.57084664E-03 0.79685508E+02</pdfrwt>
<pdfrwt beam="2">  1       -2 0.65819190E-01 0.79685508E+02</pdfrwt>
<totfact> 0.57037349E+04</totfact>
</mgrwt>
</event>
<event>
 8    1  0.1241100E-020  0.8075079E+02  0.7818608E-02  0.1326934E+00
          1   -1    0    0  501    0  0.00000000000E+00  0.00000000000E+00  0.60191323592E+02  0.60191323803E+02  0.50400000000E-02 0. -1.
         -2   -1    0    0    0  501 -0.00000000000E+00 -0.00000000000E+00 -0.27083179173E+02  0.27083179293E+02  0.25500000000E-02 0.  1.
        -24    2    1    2    0    0  0.17763568394E-14  0.35527136788E-14  0.33108144420E+02  0.87274503096E+02  0.80750787388E+02 0.  0.
         66    2    3    3    0    0  0.13723757293E+02  0.21751877623E+02 -0.17039136220E+02  0.30916303924E+02  0.19999977198E+01 0.  0.
         13    1    3    3    0    0 -0.13723757293E+02 -0.21751877623E+02  0.50147280640E+02  0.56358199172E+02  0.10566000000E+00 0. -1.
         13    1    4    4    0    0  0.44424259021E+01  0.60335649514E+01 -0.46509879480E+01  0.88194051300E+01  0.10566000000E+00 0. -1.
        -13    1    4    4    0    0  0.87210476324E+01  0.14407073005E+02 -0.11060626338E+02  0.20148673490E+02  0.10566000000E+00 0.  1.
         14    1    4    4    0    0  0.56028375825E+00  0.13112396666E+01 -0.13275219336E+01  0.19482253046E+01  0.00000000000E+00 0. -1.
<mgrwt>
<rscale>  0 0.80750787E+02</rscale>
<asrwt>0</asrwt>
<pdfrwt beam="1">  1        1 0.92602036E-02 0.80750787E+02</pdfrwt>
<pdfrwt beam="2">  1       -2 0.41666430E-02 0.80750787E+02</pdfrwt>
<totfact> 0.13200703E+05</totfact>
</mgrwt>
</event>
<event>
 8    1  0.1241100E-020  0.8071101E+02  0.7818608E-02  0.1327046E+00
         -2   -1    0    0    0  501 -0.00000000000E+00  0.00000000000E+00  0.30321311362E+02  0.30321311470E+02  0.25500000000E-02 0.  1.
          1   -1    0    0  501    0  0.00000000000E+00 -0.00000000000E+00 -0.53710304342E+02  0.53710304579E+02  0.50400000000E-02 0. -1.
        -24    2    1    2    0    0 -0.17763568394E-14  0.00000000000E+00 -0.23388992980E+02  0.84031616048E+02  0.80711012279E+02 0.  0.
         66    2    3    3    0    0 -0.95989232973E+01  0.55384256352E+01  0.28671946164E+02  0.30804122819E+02  0.19999997066E+01 0.  0.
         13    1    3    3    0    0  0.95989232973E+01 -0.55384256352E+01 -0.52060939143E+02  0.53227493230E+02  0.10566000000E+00 0. -1.
         13    1    4    4    0    0 -0.40949620071E+01  0.20643058202E+01  0.10598147263E+02  0.11548244967E+02  0.10566000000E+00 0. -1.
        -13    1    4    4    0    0 -0.41107801868E+01  0.18697000584E+01  0.12163851975E+02  0.12975544341E+02  0.10566000000E+00 0.  1.
         14    1    4    4    0    0 -0.13931811034E+01  0.16044197565E+01  0.59099469255E+01  0.62803335106E+01  0.00000000000E+00 0. -1.
<mgrwt>
<rscale>  0 0.80711012E+02</rscale>
<asrwt>0</asrwt>
<pdfrwt beam="1">  1        1 0.82631238E-02 0.80711012E+02</pdfrwt>
<pdfrwt beam="2">  1       -2 0.46648172E-02 0.80711012E+02</pdfrwt>
<totfact> 0.12983185E+05</totfact>
</mgrwt>
</event>
<event>
 8    1  0.1241100E-020  0.7898414E+02  0.7818608E-02  0.1331959E+00
         -2   -1    0    0    0  501 -0.00000000000E+00  0.00000000000E+00  0.33679996721E+02  0.33679996818E+02  0.25500000000E-02 0.  1.
          1   -1    0    0  501    0  0.00000000000E+00 -0.00000000000E+00 -0.46307116609E+02  0.46307116884E+02  0.50400000000E-02 0. -1.
        -24    2    1    2    0    0  0.35527136788E-14  0.00000000000E+00 -0.12627119888E+02  0.79987113702E+02  0.78984138924E+02 0.  0.
         66    2    3    3    0    0  0.20688507345E+02 -0.17714745021E+02  0.22607170901E+02  0.35452936503E+02  0.20000007951E+01 0.  0.
         13    1    3    3    0    0 -0.20688507345E+02  0.17714745021E+02 -0.35234290789E+02  0.44534177199E+02  0.10566000000E+00 0. -1.
         13    1    4    4    0    0  0.63371289323E+01 -0.62235800186E+01  0.81323411532E+01  0.12043184297E+02  0.10566000000E+00 0. -1.
        -13    1    4    4    0    0  0.50126372277E+01 -0.38998300871E+01  0.46112399732E+01  0.78491977177E+01  0.10566000000E+00 0.  1.
         14    1    4    4    0    0  0.93387411852E+01 -0.75913349152E+01  0.98635897748E+01  0.15560554488E+02  0.00000000000E+00 0. -1.
<mgrwt>
<rscale>  0 0.78984139E+02</rscale>
<asrwt>0</asrwt>
<pdfrwt beam="1">  1        1 0.71241718E-02 0.78984139E+02</pdfrwt>
<pdfrwt beam="2">  1       -2 0.51815380E-02 0.78984139E+02</pdfrwt>
<totfact> 0.13470624E+05</totfact>
</mgrwt>
</event>
<event>
 8    1  0.1241100E-020  0.7795351E+02  0.7818608E-02  0.1334961E+00
         -2   -1    0    0    0  501 -0.00000000000E+00  0.00000000000E+00  0.20260387853E+02  0.20260388013E+02  0.25500000000E-02 0.  1.
          1   -1    0    0  501    0  0.00000000000E+00 -0.00000000000E+00 -0.74983136029E+02  0.74983136199E+02  0.50400000000E-02 0. -1.
        -24    2    1    2    0    0  0.00000000000E+00  0.00000000000E+00 -0.54722748176E+02  0.95243524212E+02  0.77953510096E+02 0.  0.
         66    2    3    3    0    0 -0.33273332803E+02  0.13899348227E+02 -0.93862568821E+01  0.37314989241E+02  0.20000117212E+01 0.  0.
         13    1    3    3    0    0  0.33273332803E+02 -0.13899348227E+02 -0.45336491294E+02  0.57928534971E+02  0.10566000000E+00 0. -1.
         13    1    4    4    0    0 -0.77037942870E+01  0.34527900228E+01 -0.16229379747E+01  0.85974005992E+01  0.10566000000E+00 0. -1.
        -13    1    4    4    0    0 -0.12563117130E+02  0.47487066421E+01 -0.32625090212E+01  0.13821622768E+02  0.10566000000E+00 0.  1.
         14    1    4    4    0    0 -0.13006421386E+02  0.56978515617E+01 -0.45008098862E+01  0.14895965874E+02  0.00000000000E+00 0. -1.
<mgrwt>
<rscale>  0 0.77953510E+02</rscale>
<asrwt>0</asrwt>
<pdfrwt beam="1">  1        1 0.11535867E-01 0.77953510E+02</pdfrwt>
<pdfrwt beam="2">  1       -2 0.31169828E-02 0.77953510E+02</pdfrwt>
<totfact> 0.15049249E+05</totfact>
</mgrwt>
</event>
<event>
 8    1  0.1241100E-020  0.7872858E+02  0.7818608E-02  0.1332699E+00
          1   -1    0    0  501    0  0.00000000000E+00  0.00000000000E+00  0.84479581282E+02  0.84479581432E+02  0.50400000000E-02 0. -1.
         -2   -1    0    0    0  501 -0.00000000000E+00 -0.00000000000E+00 -0.18342271201E+02  0.18342271378E+02  0.25500000000E-02 0.  1.
        -24    2    1    2    0    0  0.00000000000E+00  0.00000000000E+00  0.66137310081E+02  0.10282185281E+03  0.78728582044E+02 0.  0.
         66    2    3    3    0    0  0.35733526676E+02 -0.15242101833E+02  0.41176344516E+02  0.56645370019E+02  0.19999999782E+01 0.  0.
         13    1    3    3    0    0 -0.35733526676E+02  0.15242101833E+02  0.24960965565E+02  0.46176482791E+02  0.10566000000E+00 0. -1.
         13    1    4    4    0    0  0.52823971246E+01 -0.25592866868E+01  0.66456267457E+01  0.88673099983E+01  0.10566000000E+00 0. -1.
        -13    1    4    4    0    0  0.24318555755E+02 -0.10550464169E+02  0.28374227697E+02  0.38830560254E+02  0.10566000000E+00 0.  1.
        -14    1    4    4    0    0  0.61325737960E+01 -0.21323509772E+01  0.61564900735E+01  0.89474997669E+01  0.00000000000E+00 0.  1.
<mgrwt>
<rscale>  0 0.78728582E+02</rscale>
<asrwt>0</asrwt>
<pdfrwt beam="1">  1        1 0.12996859E-01 0.78728582E+02</pdfrwt>
<pdfrwt beam="2">  1       -2 0.28218879E-02 0.78728582E+02</pdfrwt>
<totfact> 0.14930398E+05</totfact>
</mgrwt>
</event>
<event>
 8    1  0.1241100E-020  0.7746046E+02  0.7818608E-02  0.1336417E+00
         -2   -1    0    0    0  501 -0.00000000000E+00  0.00000000000E+00  0.93862721848E+02  0.93862721882E+02  0.25500000000E-02 0.  1.
          1   -1    0    0  501    0  0.00000000000E+00 -0.00000000000E+00 -0.15981112176E+02  0.15981112970E+02  0.50400000000E-02 0. -1.
        -24    2    1    2    0    0  0.71054273576E-14  0.00000000000E+00  0.77881609672E+02  0.10984383485E+03  0.77460460430E+02 0.  0.
         66    2    3    3    0    0  0.34646897260E+02 -0.13826356670E+02  0.53597517633E+02  0.65331994645E+02  0.19999998410E+01 0.  0.
         13    1    3    3    0    0 -0.34646897260E+02  0.13826356670E+02  0.24284092039E+02  0.44511840208E+02  0.10566000000E+00 0. -1.
         13    1    4    4    0    0  0.15088243879E+02 -0.61193970410E+01  0.24939889594E+02  0.29784415061E+02  0.10566000000E+00 0. -1.
        -13    1    4    4    0    0  0.18852568274E+02 -0.72967086752E+01  0.27505048115E+02  0.34135027814E+02  0.10566000000E+00 0.  1.
         14    1    4    4    0    0  0.70608510661E+00 -0.41025095341E+00  0.11525799239E+01  0.14125517702E+01  0.00000000000E+00 0. -1.
<mgrwt>
<rscale>  0 0.77460460E+02</rscale>
<asrwt>0</asrwt>
<pdfrwt beam="1">  1        1 0.24586327E-02 0.77460460E+02</pdfrwt>
<pdfrwt beam="2">  1       -2 0.14440419E-01 0.77460460E+02</pdfrwt>
<totfact> 0.11703594E+05</totfact>
</mgrwt>
</event>
<event>
 8    1  0.1241100E-020  0.7718247E+02  0.7818608E-02  0.1337243E+00
         -2   -1    0    0    0  501 -0.00000000000E+00  0.00000000000E+00  0.63455118671E+01  0.63455123795E+01  0.25500000000E-02 0.  1.
          1   -1    0    0  501    0  0.00000000000E+00 -0.00000000000E+00 -0.23469871154E+03  0.23469871160E+03  0.50400000000E-02 0. -1.
        -24    2    1    2    0    0  0.00000000000E+00  0.00000000000E+00 -0.22835319967E+03  0.24104422398E+03  0.77182472818E+02 0.  0.
         66    2    3    3    0    0 -0.10794553166E+02 -0.36558487464E+02 -0.13252571991E+03  0.13791342147E+03  0.19999998916E+01 0.  0.
         13    1    3    3    0    0  0.10794553166E+02  0.36558487464E+02 -0.95827479762E+02  0.10313080251E+03  0.10566000000E+00 0. -1.
         13    1    4    4    0    0 -0.51036353382E+01 -0.17476490253E+02 -0.61219823771E+02  0.63869811271E+02  0.10566000000E+00 0.  1.
        -13    1    4    4    0    0 -0.45907339378E+01 -0.13631862672E+02 -0.50799728129E+02  0.52797027000E+02  0.10566000000E+00 0. -1.
        -14    1    4    4    0    0 -0.11001838901E+01 -0.54501345397E+01 -0.20506168012E+02  0.21246583199E+02  0.00000000000E+00 0.  1.
<mgrwt>
<rscale>  0 0.77182473E+02</rscale>
<asrwt>0</asrwt>
<pdfrwt beam="1">  1        1 0.36107488E-01 0.77182473E+02</pdfrwt>
<pdfrwt beam="2">  1       -2 0.97623281E-03 0.77182473E+02</pdfrwt>
<totfact> 0.18911232E+05</totfact>
</mgrwt>
</event>
<event>
 8    1  0.1241100E-020  0.7945270E+02  0.7818608E-02  0.1330612E+00
          1   -1    0    0  501    0  0.00000000000E+00  0.00000000000E+00  0.58021719785E+02  0.58021720004E+02  0.50400000000E-02 0. -1.
         -2   -1    0    0    0  501 -0.00000000000E+00 -0.00000000000E+00 -0.27199862302E+02  0.27199862422E+02  0.25500000000E-02 0.  1.
        -24    2    1    2    0    0  0.00000000000E+00  0.10658141036E-13  0.30821857483E+02  0.85221582425E+02  0.79452697956E+02 0.  0.
         66    2    3    3    0    0  0.15181858766E+02  0.29260601773E+02 -0.83105523651E+01  0.34054910497E+02  0.19999991625E+01 0.  0.
         13    1    3    3    0    0 -0.15181858766E+02 -0.29260601773E+02  0.39132409848E+02  0.51166671928E+02  0.10566000000E+00 0. -1.
         13    1    4    4    0    0  0.11237489116E+02  0.22028678471E+02 -0.57714853230E+01  0.25394193109E+02  0.10566000000E+00 0. -1.
        -13    1    4    4    0    0  0.14247852137E+01  0.31714593595E+01 -0.75157886484E+00  0.35586798395E+01  0.10566000000E+00 0.  1.
        -14    1    4    4    0    0  0.25195844366E+01  0.40604639422E+01 -0.17874881772E+01  0.51020375482E+01  0.00000000000E+00 0.  1.
<mgrwt>
<rscale>  0 0.79452698E+02</rscale>
<asrwt>0</asrwt>
<pdfrwt beam="1">  1        1 0.89264183E-02 0.79452698E+02</pdfrwt>
<pdfrwt beam="2">  1       -2 0.41845943E-02 0.79452698E+02</pdfrwt>
<totfact> 0.13725150E+05</totfact>
</mgrwt>
</event>
<event>
 8    1  0.1241100E-020  0.8574685E+02  0.7818608E-02  0.1313491E+00
          1   -1    0    0  501    0  0.00000000000E+00  0.00000000000E+00  0.17506229315E+02  0.17506230041E+02  0.50400000000E-02 0. -1.
         -2   -1    0    0    0  501 -0.00000000000E+00 -0.00000000000E+00 -0.10499864506E+03  0.10499864509E+03  0.25500000000E-02 0.  1.
        -24    2    1    2    0    0 -0.71054273576E-14  0.35527136788E-14 -0.87492415747E+02  0.12250487513E+03  0.85746846113E+02 0.  0.
         66    2    3    3    0    0  0.17175039530E+02 -0.27894111511E+02 -0.83235214191E+02  0.89471583307E+02  0.19999745480E+01 0.  0.
         13    1    3    3    0    0 -0.17175039530E+02  0.27894111511E+02 -0.42572015566E+01  0.33033291828E+02  0.10566000000E+00 0. -1.
         13    1    4    4    0    0  0.38961331810E+00 -0.37820547496E+00 -0.99550345840E+00  0.11388718498E+01  0.10566000000E+00 0. -1.
        -13    1    4    4    0    0  0.64356258477E+01 -0.10111537265E+02 -0.31126188156E+02  0.33354328341E+02  0.10566000000E+00 0.  1.
         14    1    4    4    0    0  0.10349800364E+02 -0.17404368771E+02 -0.51113522576E+02  0.54978383116E+02  0.00000000000E+00 0. -1.
<mgrwt>
<rscale>  0 0.85746846E+02</rscale>
<asrwt>0</asrwt>
<pdfrwt beam="1">  1        1 0.26932662E-02 0.85746846E+02</pdfrwt>
<pdfrwt beam="2">  1       -2 0.16153637E-01 0.85746846E+02</pdfrwt>
<totfact> 0.87741517E+04</totfact>
</mgrwt>
</event>
<event>
 8    1  0.1241100E-020  0.8009912E+02  0.7818608E-02  0.1328770E+00
          1   -1    0    0  501    0  0.00000000000E+00  0.00000000000E+00  0.39298050316E+01  0.39298082635E+01  0.50400000000E-02 0. -1.
         -2   -1    0    0    0  501 -0.00000000000E+00 -0.00000000000E+00 -0.40815420694E+03  0.40815420695E+03  0.25500000000E-02 0.  1.
        -24    2    1    2    0    0  0.00000000000E+00  0.00000000000E+00 -0.40422440191E+03  0.41208401521E+03  0.80099116691E+02 0.  0.
         66    2    3    3    0    0  0.48716667546E+01 -0.16715874230E+02 -0.38764677305E+03  0.38804274796E+03  0.20000011975E+01 0.  0.
         13    1    3    3    0    0 -0.48716667546E+01  0.16715874230E+02 -0.16577628863E+02  0.24041267250E+02  0.10566000000E+00 0. -1.
         13    1    4    4    0    0  0.26642262339E+01 -0.98754968452E+01 -0.24653142904E+03  0.24674355150E+03  0.10566000000E+00 0.  1.
        -13    1    4    4    0    0  0.10789490522E+01 -0.34134639213E+01 -0.65548431680E+02  0.65646202683E+02  0.10566000000E+00 0. -1.
        -14    1    4    4    0    0  0.11284914685E+01 -0.34269134632E+01 -0.75566912329E+02  0.75652993780E+02  0.00000000000E+00 0.  1.
<mgrwt>
<rscale>  0 0.80099117E+02</rscale>
<asrwt>0</asrwt>
<pdfrwt beam="1">  1        1 0.60458596E-03 0.80099117E+02</pdfrwt>
<pdfrwt beam="2">  1       -2 0.62792921E-01 0.80099117E+02</pdfrwt>
<totfact> 0.58116821E+04</totfact>
</mgrwt>
</event>
<event>
 8    1  0.1241100E-020  0.8289557E+02  0.7818608E-02  0.1321029E+00
          1   -1    0    0  501    0  0.00000000000E+00  0.00000000000E+00  0.57658954396E+02  0.57658954616E+02  0.50400000000E-02 0. -1.
         -2   -1    0    0    0  501 -0.00000000000E+00 -0.00000000000E+00 -0.29794484697E+02  0.29794484807E+02  0.25500000000E-02 0.  1.
        -24    2    1    2    0    0  0.00000000000E+00  0.17763568394E-14  0.27864469699E+02  0.87453439423E+02  0.82895569214E+02 0.  0.
         66    2    3    3    0    0  0.16364402570E+02 -0.15769735649E+02 -0.22596775392E+02  0.32110629103E+02  0.20000023346E+01 0.  0.
         13    1    3    3    0    0 -0.16364402570E+02  0.15769735649E+02  0.50461245091E+02  0.55342810320E+02  0.10566000000E+00 0. -1.
         13    1    4    4    0    0  0.87566595467E+00 -0.71569469280E+00 -0.14282655693E+01  0.18248606329E+01  0.10566000000E+00 0. -1.
        -13    1    4    4    0    0  0.57149574956E+01 -0.46230459034E+01 -0.66920041805E+01  0.99411959335E+01  0.10566000000E+00 0.  1.
         14    1    4    4    0    0  0.97737791201E+01 -0.10430995053E+02 -0.14476505643E+02  0.20344572537E+02  0.00000000000E+00 0. -1.
<mgrwt>
<rscale>  0 0.82895569E+02</rscale>
<asrwt>0</asrwt>
<pdfrwt beam="1">  1        1 0.88706082E-02 0.82895569E+02</pdfrwt>
<pdfrwt beam="2">  1       -2 0.45837670E-02 0.82895569E+02</pdfrwt>
<totfact> 0.12192478E+05</totfact>
</mgrwt>
</event>
<event>
 8    1  0.1241100E-020  0.7850126E+02  0.7818608E-02  0.1333359E+00
         -2   -1    0    0    0  501 -0.00000000000E+00  0.00000000000E+00  0.15790541648E+03  0.15790541650E+03  0.25500000000E-02 0.  1.
          1   -1    0    0  501    0  0.00000000000E+00 -0.00000000000E+00 -0.97565488464E+01  0.97565501482E+01  0.50400000000E-02 0. -1.
        -24    2    1    2    0    0 -0.88817841970E-15 -0.35527136788E-14  0.14814886763E+03  0.16766196664E+03  0.78501261641E+02 0.  0.
         66    2    3    3    0    0 -0.43053089688E+01 -0.28204665925E+02  0.13161307593E+03  0.13468496805E+03  0.19999992856E+01 0.  0.
         13    1    3    3    0    0  0.43053089688E+01  0.28204665925E+02  0.16535791700E+02  0.32976998597E+02  0.10566000000E+00 0. -1.
         13    1    4    4    0    0 -0.44794009479E+00 -0.15539374509E+01  0.79067292837E+01  0.80711154082E+01  0.10566000000E+00 0.  1.
        -13    1    4    4    0    0 -0.24853264242E+01 -0.14203890596E+02  0.69441942667E+02  0.70923352437E+02  0.10566000000E+00 0.  1.
         14    1    4    4    0    0 -0.13720424498E+01 -0.12446837878E+02  0.54264403979E+02  0.55690500202E+02  0.00000000000E+00 0. -1.
<mgrwt>
<rscale>  0 0.78501262E+02</rscale>
<asrwt>0</asrwt>
<pdfrwt beam="1">  1        1 0.15010077E-02 0.78501262E+02</pdfrwt>
<pdfrwt beam="2">  1       -2 0.24293140E-01 0.78501262E+02</pdfrwt>
<totfact> 0.97532948E+04</totfact>
</mgrwt>
</event>
<event>
 8    1  0.1241100E-020  0.7974359E+02  0.7818608E-02  0.1329781E+00
          1   -1    0    0  501    0  0.00000000000E+00  0.00000000000E+00  0.47927697912E+01  0.47927724412E+01  0.50400000000E-02 0. -1.
         -2   -1    0    0    0  501 -0.00000000000E+00 -0.00000000000E+00 -0.33169952620E+03  0.33169952621E+03  0.25500000000E-02 0.  1.
        -24    2    1    2    0    0  0.00000000000E+00  0.00000000000E+00 -0.32690675641E+03  0.33649229865E+03  0.79743586988E+02 0.  0.
         66    2    3    3    0    0  0.11709576210E+02 -0.18360708747E+02 -0.30436457188E+03  0.30514918062E+03  0.20000035579E+01 0.  0.
         13    1    3    3    0    0 -0.11709576210E+02  0.18360708747E+02 -0.22542184524E+02  0.31343118030E+02  0.10566000000E+00 0. -1.
         13    1    4    4    0    0  0.19367453211E+01 -0.23425962200E+01 -0.44317893453E+02  0.44422129436E+02  0.10566000000E+00 0. -1.
        -13    1    4    4    0    0  0.69518063687E+01 -0.12605461718E+02 -0.19879156016E+03  0.19931211912E+03  0.10566000000E+00 0.  1.
        -14    1    4    4    0    0  0.28210245203E+01 -0.34126508090E+01 -0.61255118276E+02  0.61414932059E+02  0.00000000000E+00 0.  1.
<mgrwt>
<rscale>  0 0.79743587E+02</rscale>
<asrwt>0</asrwt>
<pdfrwt beam="1">  1        1 0.73734967E-03 0.79743587E+02</pdfrwt>
<pdfrwt beam="2">  1       -2 0.51030678E-01 0.79743587E+02</pdfrwt>
<totfact> 0.66955140E+04</totfact>
</mgrwt>
</event>
<event>
 8    1  0.1241100E-020  0.7995023E+02  0.7818608E-02  0.1329193E+00
          1   -1    0    0  501    0  0.00000000000E+00  0.00000000000E+00  0.59576688902E+01  0.59576710220E+01  0.50400000000E-02 0. -1.
         -2   -1    0    0    0  501 -0.00000000000E+00 -0.00000000000E+00 -0.26822730487E+03  0.26822730489E+03  0.25500000000E-02 0.  1.
        -24    2    1    2    0    0  0.88817841970E-15 -0.35527136788E-14 -0.26226963598E+03  0.27418497591E+03  0.79950228609E+02 0.  0.
         66    2    3    3    0    0  0.50426116877E+01 -0.13859544411E+02 -0.25854518406E+03  0.25897321697E+03  0.20000001251E+01 0.  0.
         13    1    3    3    0    0 -0.50426116877E+01  0.13859544411E+02 -0.37244519205E+01  0.15211758940E+02  0.10566000000E+00 0. -1.
         13    1    4    4    0    0  0.66281843183E+00 -0.71895415985E+00 -0.20082726658E+02  0.20106797294E+02  0.10566000000E+00 0. -1.
        -13    1    4    4    0    0  0.64921589360E+00 -0.11636087253E+01 -0.21159569853E+02  0.21201745846E+02  0.10566000000E+00 0.  1.
        -14    1    4    4    0    0  0.37305773623E+01 -0.11976981526E+02 -0.21730288755E+03  0.21766467383E+03  0.00000000000E+00 0.  1.
<mgrwt>
<rscale>  0 0.79950229E+02</rscale>
<asrwt>0</asrwt>
<pdfrwt beam="1">  1        1 0.91656482E-03 0.79950229E+02</pdfrwt>
<pdfrwt beam="2">  1       -2 0.41265730E-01 0.79950229E+02</pdfrwt>
<totfact> 0.74624398E+04</totfact>
</mgrwt>
</event>
<event>
 8    1  0.1241100E-020  0.7908424E+02  0.7818608E-02  0.1331670E+00
          1   -1    0    0  501    0  0.00000000000E+00  0.00000000000E+00  0.10350735135E+03  0.10350735147E+03  0.50400000000E-02 0. -1.
         -2   -1    0    0    0  501 -0.00000000000E+00 -0.00000000000E+00 -0.15105972505E+02  0.15105972720E+02  0.25500000000E-02 0.  1.
        -24    2    1    2    0    0  0.00000000000E+00  0.00000000000E+00  0.88401378847E+02  0.11861332419E+03  0.79084239228E+02 0.  0.
         66    2    3    3    0    0  0.15600550261E+02 -0.11472069606E+02 -0.74357888369E+01  0.20839301963E+02  0.20000002983E+01 0.  0.
         13    1    3    3    0    0 -0.15600550261E+02  0.11472069606E+02  0.95837167684E+02  0.97774022231E+02  0.10566000000E+00 0. -1.
         13    1    4    4    0    0  0.37541750682E+01 -0.30225098266E+01 -0.12775307737E+01  0.49872482400E+01  0.10566000000E+00 0. -1.
        -13    1    4    4    0    0  0.97873692124E+01 -0.74787742916E+01 -0.54319102528E+01  0.13462595368E+02  0.10566000000E+00 0.  1.
        -14    1    4    4    0    0  0.20590059803E+01 -0.97078548807E+00 -0.72634781033E+00  0.23894583554E+01  0.00000000000E+00 0.  1.
<mgrwt>
<rscale>  0 0.79084239E+02</rscale>
<asrwt>0</asrwt>
<pdfrwt beam="1">  1        1 0.15924207E-01 0.79084239E+02</pdfrwt>
<pdfrwt beam="2">  1       -2 0.23239959E-02 0.79084239E+02</pdfrwt>
<totfact> 0.15251315E+05</totfact>
</mgrwt>
</event>
<event>
 8    1  0.1241100E-020  0.7960318E+02  0.7818608E-02  0.1330181E+00
         -2   -1    0    0    0  501 -0.00000000000E+00  0.00000000000E+00  0.45807816682E+02  0.45807816753E+02  0.25500000000E-02 0.  1.
          1   -1    0    0  501    0  0.00000000000E+00 -0.00000000000E+00 -0.34582887562E+02  0.34582887929E+02  0.50400000000E-02 0. -1.
        -24    2    1    2    0    0  0.17763568394E-14  0.00000000000E+00  0.11224929121E+02  0.80390704682E+02  0.79603180625E+02 0.  0.
         66    2    3    3    0    0  0.13903934435E+02 -0.21766755940E+01  0.43187609428E+02  0.45466767249E+02  0.20000016395E+01 0.  0.
         13    1    3    3    0    0 -0.13903934435E+02  0.21766755940E+01 -0.31962680307E+02  0.34923937433E+02  0.10566000000E+00 0. -1.
         13    1    4    4    0    0  0.23796398152E+01  0.28207051885E+00  0.64852643960E+01  0.69146270868E+01  0.10566000000E+00 0. -1.
        -13    1    4    4    0    0  0.10291649893E+02 -0.20204921735E+01  0.32425324267E+02  0.34079513846E+02  0.10566000000E+00 0.  1.
         14    1    4    4    0    0  0.12326447260E+01 -0.43825393931E+00  0.42770207648E+01  0.44726263155E+01  0.00000000000E+00 0. -1.
<mgrwt>
<rscale>  0 0.79603181E+02</rscale>
<asrwt>0</asrwt>
<pdfrwt beam="1">  1        1 0.53204443E-02 0.79603181E+02</pdfrwt>
<pdfrwt beam="2">  1       -2 0.70473564E-02 0.79603181E+02</pdfrwt>
<totfact> 0.12571946E+05</totfact>
</mgrwt>
</event>
<event>
 8    1  0.1241100E-020  0.7893195E+02  0.7818608E-02  0.1332110E+00
          1   -1    0    0  501    0  0.00000000000E+00  0.00000000000E+00  0.81868884613E+02  0.81868884768E+02  0.50400000000E-02 0. -1.
         -2   -1    0    0    0  501 -0.00000000000E+00 -0.00000000000E+00 -0.19025093135E+02  0.19025093306E+02  0.25500000000E-02 0.  1.
        -24    2    1    2    0    0  0.00000000000E+00  0.35527136788E-14  0.62843791478E+02  0.10089397807E+03  0.78931949705E+02 0.  0.
         66    2    3    3    0    0 -0.82312882067E+01 -0.30058803211E+02  0.54474175697E+00  0.31234316028E+02  0.19999995349E+01 0.  0.
         13    1    3    3    0    0  0.82312882067E+01  0.30058803211E+02  0.62299049721E+02  0.69659662045E+02  0.10566000000E+00 0. -1.
         13    1    4    4    0    0 -0.60635900411E-01 -0.11900423844E+01 -0.10679794563E+00  0.12010193279E+01  0.10566000000E+00 0. -1.
        -13    1    4    4    0    0 -0.53362692520E+01 -0.20161200089E+02  0.86354075944E+00  0.20873586784E+02  0.10566000000E+00 0.  1.
         14    1    4    4    0    0 -0.28343830543E+01 -0.87075607381E+01 -0.21200105683E+00  0.91597099165E+01  0.00000000000E+00 0. -1.
<mgrwt>
<rscale>  0 0.78931950E+02</rscale>
<asrwt>0</asrwt>
<pdfrwt beam="1">  1        1 0.12595213E-01 0.78931950E+02</pdfrwt>
<pdfrwt beam="2">  1       -2 0.29269374E-02 0.78931950E+02</pdfrwt>
<totfact> 0.14751668E+05</totfact>
</mgrwt>
</event>
<event>
 8    1  0.1241100E-020  0.7861350E+02  0.7818608E-02  0.1333033E+00
          1   -1    0    0  501    0  0.00000000000E+00  0.00000000000E+00  0.16364842188E+02  0.16364842964E+02  0.50400000000E-02 0. -1.
         -2   -1    0    0    0  501 -0.00000000000E+00 -0.00000000000E+00 -0.94410963955E+02  0.94410963989E+02  0.25500000000E-02 0.  1.
        -24    2    1    2    0    0  0.00000000000E+00  0.00000000000E+00 -0.78046121767E+02  0.11077580695E+03  0.78613499371E+02 0.  0.
         66    2    3    3    0    0 -0.34176225168E+02  0.18087859245E+02 -0.48793672416E+02  0.62289706101E+02  0.19999998709E+01 0.  0.
         13    1    3    3    0    0  0.34176225168E+02 -0.18087859245E+02 -0.29252449351E+02  0.48486100852E+02  0.10566000000E+00 0. -1.
         13    1    4    4    0    0 -0.10641250829E+02  0.52576979396E+01 -0.14702729631E+02  0.18896058569E+02  0.10566000000E+00 0. -1.
        -13    1    4    4    0    0 -0.13356079682E+02  0.66070042431E+01 -0.19679350742E+02  0.24684516994E+02  0.10566000000E+00 0.  1.
         14    1    4    4    0    0 -0.10178894657E+02  0.62231570626E+01 -0.14411592043E+02  0.18709130538E+02  0.00000000000E+00 0. -1.
<mgrwt>
<rscale>  0 0.78613499E+02</rscale>
<asrwt>0</asrwt>
<pdfrwt beam="1">  1        1 0.25176681E-02 0.78613499E+02</pdfrwt>
<pdfrwt beam="2">  1       -2 0.14524763E-01 0.78613499E+02</pdfrwt>
<totfact> 0.11254515E+05</totfact>
</mgrwt>
</event>
<event>
 8    1  0.1241100E-020  0.7937598E+02  0.7818608E-02  0.1330832E+00
         -2   -1    0    0    0  501 -0.00000000000E+00  0.00000000000E+00  0.94347752344E+01  0.94347755790E+01  0.25500000000E-02 0.  1.
          1   -1    0    0  501    0  0.00000000000E+00 -0.00000000000E+00 -0.16695009050E+03  0.16695009057E+03  0.50400000000E-02 0. -1.
        -24    2    1    2    0    0  0.00000000000E+00  0.00000000000E+00 -0.15751531526E+03  0.17638486615E+03  0.79375981665E+02 0.  0.
         66    2    3    3    0    0 -0.23090922172E+02  0.96763229540E+01 -0.10449593945E+02  0.27203233693E+02  0.19999992673E+01 0.  0.
         13    1    3    3    0    0  0.23090922172E+02 -0.96763229540E+01 -0.14706572132E+03  0.14918163246E+03  0.10566000000E+00 0. -1.
         13    1    4    4    0    0 -0.63029044962E+00 -0.32401238277E-01 -0.25575756872E+00  0.68912398064E+00  0.10566000000E+00 0. -1.
        -13    1    4    4    0    0 -0.17536346399E+02  0.77067619880E+01 -0.77545958936E+01  0.20665491692E+02  0.10566000000E+00 0.  1.
        -14    1    4    4    0    0 -0.49242853224E+01  0.20019622042E+01 -0.24392404828E+01  0.58486180194E+01  0.00000000000E+00 0.  1.
<mgrwt>
<rscale>  0 0.79375982E+02</rscale>
<asrwt>0</asrwt>
<pdfrwt beam="1">  1        1 0.25684627E-01 0.79375982E+02</pdfrwt>
<pdfrwt beam="2">  1       -2 0.14515040E-02 0.79375982E+02</pdfrwt>
<totfact> 0.16446319E+05</totfact>
</mgrwt>
</event>
<event>
 8    1  0.1241100E-020  0.7904423E+02  0.7818608E-02  0.1331786E+00
         -2   -1    0    0    0  501 -0.00000000000E+00  0.00000000000E+00  0.34486475945E+01  0.34486485373E+01  0.25500000000E-02 0.  1.
          1   -1    0    0  501    0  0.00000000000E+00 -0.00000000000E+00 -0.45293038900E+03  0.45293038903E+03  0.50400000000E-02 0. -1.
        -24    2    1    2    0    0  0.00000000000E+00  0.00000000000E+00 -0.44948174141E+03  0.45637903757E+03  0.79044228582E+02 0.  0.
         66    2    3    3    0    0  0.35165682190E+02 -0.37170804983E+01 -0.32646743702E+03  0.32838305272E+03  0.19999955265E+01 0.  0.
         13    1    3    3    0    0 -0.35165682190E+02  0.37170804983E+01 -0.12301430438E+03  0.12799598485E+03  0.10566000000E+00 0. -1.
         13    1    4    4    0    0  0.78016851719E+01 -0.36159220131E+00 -0.73019961659E+02  0.73436523645E+02  0.10566000000E+00 0. -1.
        -13    1    4    4    0    0  0.10055956681E+02 -0.99113392604E+00 -0.98904747752E+02  0.99419640430E+02  0.10566000000E+00 0.  1.
        -14    1    4    4    0    0  0.17308040337E+02 -0.23643543710E+01 -0.15454272761E+03  0.15552688864E+03  0.00000000000E+00 0.  1.
<mgrwt>
<rscale>  0 0.79044229E+02</rscale>
<asrwt>0</asrwt>
<pdfrwt beam="1">  1        1 0.69681552E-01 0.79044229E+02</pdfrwt>
<pdfrwt beam="2">  1       -2 0.53056160E-03 0.79044229E+02</pdfrwt>
<totfact> 0.19977573E+05</totfact>
</mgrwt>
</event>
<event>
 8    1  0.1241100E-020  0.7941122E+02  0.7818608E-02  0.1330731E+00
         -2   -1    0    0    0  501 -0.00000000000E+00  0.00000000000E+00  0.16490373014E+03  0.16490373016E+03  0.25500000000E-02 0.  1.
          1   -1    0    0  501    0  0.00000000000E+00 -0.00000000000E+00 -0.95603386055E+01  0.95603399340E+01  0.50400000000E-02 0. -1.
        -24    2    1    2    0    0  0.00000000000E+00  0.00000000000E+00  0.15534339153E+03  0.17446407009E+03  0.79411223767E+02 0.  0.
         66    2    3    3    0    0  0.38520097151E+02  0.86686221716E+01  0.86394755086E+02  0.95010508015E+02  0.20000079855E+01 0.  0.
         13    1    3    3    0    0 -0.38520097151E+02 -0.86686221716E+01  0.68948636447E+02  0.79453562077E+02  0.10566000000E+00 0. -1.
         13    1    4    4    0    0  0.97198567453E+01  0.19746208216E+01  0.22376738505E+02  0.24476607867E+02  0.10566000000E+00 0. -1.
        -13    1    4    4    0    0  0.67797070963E+01  0.22493921332E+01  0.15698860067E+02  0.17247885804E+02  0.10566000000E+00 0.  1.
        -14    1    4    4    0    0  0.22020533309E+02  0.44446092168E+01  0.48319156515E+02  0.53286014343E+02  0.00000000000E+00 0.  1.
<mgrwt>
<rscale>  0 0.79411224E+02</rscale>
<asrwt>0</asrwt>
<pdfrwt beam="1">  1        1 0.14708214E-02 0.79411224E+02</pdfrwt>
<pdfrwt beam="2">  1       -2 0.25369805E-01 0.79411224E+02</pdfrwt>
<totfact> 0.93272968E+04</totfact>
</mgrwt>
</event>
<event>
 8    1  0.1241100E-020  0.8417650E+02  0.7818608E-02  0.1317600E+00
          1   -1    0    0  501    0  0.00000000000E+00  0.00000000000E+00  0.76924513487E+02  0.76924513652E+02  0.50400000000E-02 0. -1.
         -2   -1    0    0    0  501 -0.00000000000E+00 -0.00000000000E+00 -0.23028039646E+02  0.23028039787E+02  0.25500000000E-02 0.  1.
        -24    2    1    2    0    0 -0.71054273576E-14  0.00000000000E+00  0.53896473841E+02  0.99952553439E+02  0.84176499372E+02 0.  0.
         66    2    3    3    0    0  0.42039123061E+02 -0.76950828493E+00  0.25491899466E+02  0.49210943096E+02  0.19999928162E+01 0.  0.
         13    1    3    3    0    0 -0.42039123061E+02  0.76950828493E+00  0.28404574374E+02  0.50741610343E+02  0.10566000000E+00 0. -1.
         13    1    4    4    0    0  0.14389062369E+02 -0.26191991172E+00  0.79956090147E+01  0.16463737287E+02  0.10566000000E+00 0. -1.
        -13    1    4    4    0    0  0.19857279434E+02 -0.80252931976E+00  0.12182041464E+02  0.23310274518E+02  0.10566000000E+00 0.  1.
        -14    1    4    4    0    0  0.77927812588E+01  0.29494094655E+00  0.53142489875E+01  0.94369312920E+01  0.00000000000E+00 0.  1.
<mgrwt>
<rscale>  0 0.84176499E+02</rscale>
<asrwt>0</asrwt>
<pdfrwt beam="1">  1        1 0.11834541E-01 0.84176499E+02</pdfrwt>
<pdfrwt beam="2">  1       -2 0.35427753E-02 0.84176499E+02</pdfrwt>
<totfact> 0.12249089E+05</totfact>
</mgrwt>
</event>
<event>
 8    1  0.1241100E-020  0.8009158E+02  0.7818608E-02  0.1328792E+00
          1   -1    0    0  501    0  0.00000000000E+00  0.00000000000E+00  0.20341869119E+03  0.20341869125E+03  0.50400000000E-02 0. -1.
         -2   -1    0    0    0  501 -0.00000000000E+00 -0.00000000000E+00 -0.78835684634E+01  0.78835688758E+01  0.25500000000E-02 0.  1.
        -24    2    1    2    0    0  0.00000000000E+00  0.00000000000E+00  0.19553512272E+03  0.21130226013E+03  0.80091578306E+02 0.  0.
         66    2    3    3    0    0 -0.32167500372E+02  0.89949345627E+01  0.39666679307E+02  0.51895109266E+02  0.19999976186E+01 0.  0.
         13    1    3    3    0    0  0.32167500372E+02 -0.89949345627E+01  0.15586844342E+03  0.15940715086E+03  0.10566000000E+00 0. -1.
         13    1    4    4    0    0 -0.18115742755E+02  0.59441163106E+01  0.22055003627E+02  0.29153850574E+02  0.10566000000E+00 0. -1.
        -13    1    4    4    0    0 -0.65819831939E+01  0.12452764067E+01  0.79787994262E+01  0.10418522948E+02  0.10566000000E+00 0.  1.
         14    1    4    4    0    0 -0.74697744234E+01  0.18055418454E+01  0.96328762531E+01  0.12322735743E+02  0.00000000000E+00 0. -1.
<mgrwt>
<rscale>  0 0.80091578E+02</rscale>
<asrwt>0</asrwt>
<pdfrwt beam="1">  1        1 0.31295183E-01 0.80091578E+02</pdfrwt>
<pdfrwt beam="2">  1       -2 0.12128567E-02 0.80091578E+02</pdfrwt>
<totfact> 0.16678173E+05</totfact>
</mgrwt>
</event>
<event>
 8    1  0.1241100E-020  0.7879612E+02  0.7818608E-02  0.1332503E+00
         -2   -1    0    0    0  501 -0.00000000000E+00  0.00000000000E+00  0.37361057984E+02  0.37361058071E+02  0.25500000000E-02 0.  1.
          1   -1    0    0  501    0  0.00000000000E+00 -0.00000000000E+00 -0.41546119152E+02  0.41546119458E+02  0.50400000000E-02 0. -1.
        -24    2    1    2    0    0  0.00000000000E+00 -0.44408920985E-15 -0.41850611682E+01  0.78907177529E+02  0.78796116203E+02 0.  0.
         66    2    3    3    0    0  0.10128769232E+02 -0.39801230158E+01  0.35798177486E+02  0.37469225328E+02  0.19999974931E+01 0.  0.
         13    1    3    3    0    0 -0.10128769232E+02  0.39801230158E+01 -0.39983238654E+02  0.41437952202E+02  0.10566000000E+00 0. -1.
         13    1    4    4    0    0  0.14184463109E+01 -0.70640613897E+00  0.33293661529E+01  0.36887453946E+01  0.10566000000E+00 0. -1.
        -13    1    4    4    0    0  0.68443141367E+01 -0.23312334198E+01  0.25112296456E+02  0.26132697576E+02  0.10566000000E+00 0.  1.
         14    1    4    4    0    0  0.18660087842E+01 -0.94248345695E+00  0.73565148768E+01  0.76477823572E+01  0.00000000000E+00 0. -1.
<mgrwt>
<rscale>  0 0.78796116E+02</rscale>
<asrwt>0</asrwt>
<pdfrwt beam="1">  1        1 0.63917107E-02 0.78796116E+02</pdfrwt>
<pdfrwt beam="2">  1       -2 0.57478551E-02 0.78796116E+02</pdfrwt>
<totfact> 0.13331089E+05</totfact>
</mgrwt>
</event>
<event>
 8    1  0.1241100E-020  0.7640963E+02  0.7818608E-02  0.1339561E+00
         -2   -1    0    0    0  501 -0.00000000000E+00  0.00000000000E+00  0.14925707042E+02  0.14925707260E+02  0.25500000000E-02 0.  1.
          1   -1    0    0  501    0  0.00000000000E+00 -0.00000000000E+00 -0.97791545237E+02  0.97791545367E+02  0.50400000000E-02 0. -1.
        -24    2    1    2    0    0  0.35527136788E-14  0.00000000000E+00 -0.82865838195E+02  0.11271725263E+03  0.76409632246E+02 0.  0.
         66    2    3    3    0    0 -0.29807400460E+02 -0.99082799557E+01 -0.94480519281E+01  0.32862148606E+02  0.19999979712E+01 0.  0.
         13    1    3    3    0    0  0.29807400460E+02  0.99082799557E+01 -0.73417786267E+02  0.79855104021E+02  0.10566000000E+00 0. -1.
         13    1    4    4    0    0 -0.15206486799E+02 -0.42175756892E+01 -0.49830371585E+01  0.16548927724E+02  0.10566000000E+00 0. -1.
        -13    1    4    4    0    0 -0.79467552322E+01 -0.26982640525E+01 -0.24892085799E+01  0.87543629698E+01  0.10566000000E+00 0.  1.
        -14    1    4    4    0    0 -0.66541584287E+01 -0.29924402140E+01 -0.19758061897E+01  0.75588579116E+01  0.00000000000E+00 0.  1.
<mgrwt>
<rscale>  0 0.76409632E+02</rscale>
<asrwt>0</asrwt>
<pdfrwt beam="1">  1        1 0.15044853E-01 0.76409632E+02</pdfrwt>
<pdfrwt beam="2">  1       -2 0.22962627E-02 0.76409632E+02</pdfrwt>
<totfact> 0.16574272E+05</totfact>
</mgrwt>
</event>
<event>
 8    1  0.1241100E-020  0.7920052E+02  0.7818608E-02  0.1331336E+00
         -2   -1    0    0    0  501 -0.00000000000E+00  0.00000000000E+00  0.34728713992E+03  0.34728713993E+03  0.25500000000E-02 0.  1.
          1   -1    0    0  501    0  0.00000000000E+00 -0.00000000000E+00 -0.45155146277E+01  0.45155174404E+01  0.50400000000E-02 0. -1.
        -24    2    1    2    0    0  0.00000000000E+00  0.00000000000E+00  0.34277162529E+03  0.35180265737E+03  0.79200521632E+02 0.  0.
         66    2    3    3    0    0 -0.29451931771E+01  0.18938172327E+02  0.32529361092E+03  0.32586387011E+03  0.20000009703E+01 0.  0.
         13    1    3    3    0    0  0.29451931771E+01 -0.18938172327E+02  0.17478014364E+02  0.25938787252E+02  0.10566000000E+00 0. -1.
         13    1    4    4    0    0 -0.71935917023E+00  0.27625599692E+01  0.42143457053E+02  0.42240162779E+02  0.10566000000E+00 0. -1.
        -13    1    4    4    0    0 -0.17839523713E+01  0.14635937715E+02  0.24925934580E+03  0.24969506562E+03  0.10566000000E+00 0.  1.
         14    1    4    4    0    0 -0.44188163551E+00  0.15396746425E+01  0.33890808067E+02  0.33928641718E+02  0.00000000000E+00 0. -1.
<mgrwt>
<rscale>  0 0.79200522E+02</rscale>
<asrwt>0</asrwt>
<pdfrwt beam="1">  1        1 0.69469473E-03 0.79200522E+02</pdfrwt>
<pdfrwt beam="2">  1       -2 0.53428794E-01 0.79200522E+02</pdfrwt>
<totfact> 0.66316089E+04</totfact>
</mgrwt>
</event>
<event>
 8    1  0.1241100E-020  0.7887467E+02  0.7818608E-02  0.1332276E+00
         -2   -1    0    0    0  501 -0.00000000000E+00  0.00000000000E+00  0.58205295295E+01  0.58205300880E+01  0.25500000000E-02 0.  1.
          1   -1    0    0  501    0  0.00000000000E+00 -0.00000000000E+00 -0.26720990758E+03  0.26720990763E+03  0.50400000000E-02 0. -1.
        -24    2    1    2    0    0  0.71054273576E-14  0.00000000000E+00 -0.26138937805E+03  0.27303043772E+03  0.78874666158E+02 0.  0.
         66    2    3    3    0    0 -0.33075187496E+02  0.21304998699E+02 -0.13884276429E+03  0.14432319353E+03  0.19999994572E+01 0.  0.
         13    1    3    3    0    0  0.33075187496E+02 -0.21304998699E+02 -0.12254661377E+03  0.12870724419E+03  0.10566000000E+00 0. -1.
         13    1    4    4    0    0 -0.65233962204E+01  0.35900192818E+01 -0.27322297454E+02  0.28318934282E+02  0.10566000000E+00 0. -1.
        -13    1    4    4    0    0 -0.20537107244E+02  0.14204372566E+02 -0.88035238167E+02  0.91508203442E+02  0.10566000000E+00 0.  1.
         14    1    4    4    0    0 -0.60146840313E+01  0.35106068516E+01 -0.23485228667E+02  0.24496055805E+02  0.00000000000E+00 0. -1.
<mgrwt>
<rscale>  0 0.78874666E+02</rscale>
<asrwt>0</asrwt>
<pdfrwt beam="1">  1        1 0.41109207E-01 0.78874666E+02</pdfrwt>
<pdfrwt beam="2">  1       -2 0.89546633E-03 0.78874666E+02</pdfrwt>
<totfact> 0.18315122E+05</totfact>
</mgrwt>
</event>
<event>
 8    1  0.1241100E-020  0.7767511E+02  0.7818608E-02  0.1335782E+00
         -2   -1    0    0    0  501 -0.00000000000E+00  0.00000000000E+00  0.25833604195E+02  0.25833604321E+02  0.25500000000E-02 0.  1.
          1   -1    0    0  501    0  0.00000000000E+00 -0.00000000000E+00 -0.58387343785E+02  0.58387344003E+02  0.50400000000E-02 0. -1.
        -24    2    1    2    0    0 -0.44408920985E-15  0.00000000000E+00 -0.32553739590E+02  0.84220948324E+02  0.77675106535E+02 0.  0.
         66    2    3    3    0    0  0.34094799411E+01  0.38335869676E+02 -0.10856828094E+02  0.40039158073E+02  0.20000014076E+01 0.  0.
         13    1    3    3    0    0 -0.34094799411E+01 -0.38335869676E+02 -0.21696911496E+02  0.44181790251E+02  0.10566000000E+00 0. -1.
         13    1    4    4    0    0  0.63945468135E+00  0.31960172517E+01 -0.86516764231E+00  0.33738861344E+01  0.10566000000E+00 0. -1.
        -13    1    4    4    0    0  0.14018410073E+01  0.25536175030E+02 -0.70647221963E+01  0.26532675272E+02  0.10566000000E+00 0.  1.
        -14    1    4    4    0    0  0.13681842524E+01  0.96036773947E+01 -0.29269382556E+01  0.10132596666E+02  0.00000000000E+00 0.  1.
<mgrwt>
<rscale>  0 0.77675107E+02</rscale>
<asrwt>0</asrwt>
<pdfrwt beam="1">  1        1 0.89826683E-02 0.77675107E+02</pdfrwt>
<pdfrwt beam="2">  1       -2 0.39744007E-02 0.77675107E+02</pdfrwt>
<totfact> 0.14621215E+05</totfact>
</mgrwt>
</event>
<event>
 8    1  0.1241100E-020  0.7960082E+02  0.7818608E-02  0.1330188E+00
          1   -1    0    0  501    0  0.00000000000E+00  0.00000000000E+00  0.14269100475E+02  0.14269101365E+02  0.50400000000E-02 0. -1.
         -2   -1    0    0    0  501 -0.00000000000E+00 -0.00000000000E+00 -0.11101417803E+03  0.11101417806E+03  0.25500000000E-02 0.  1.
        -24    2    1    2    0    0  0.00000000000E+00  0.00000000000E+00 -0.96745077558E+02  0.12528327943E+03  0.79600817033E+02 0.  0.
         66    2    3    3    0    0  0.80081422421E+01  0.91052118252E+01 -0.10802497543E+03  0.10872180351E+03  0.20000044723E+01 0.  0.
         13    1    3    3    0    0 -0.80081422421E+01 -0.91052118252E+01  0.11279897870E+02  0.16561475917E+02  0.10566000000E+00 0. -1.
         13    1    4    4    0    0  0.32044946318E+00  0.45785120774E+00 -0.68826250022E+01  0.69060847478E+01  0.10566000000E+00 0.  1.
        -13    1    4    4    0    0  0.39201783561E+01  0.31717140265E+01 -0.43895313197E+02  0.44184128971E+02  0.10566000000E+00 0.  1.
        -14    1    4    4    0    0  0.37675144228E+01  0.54756465910E+01 -0.57247037229E+02  0.57631589792E+02  0.00000000000E+00 0.  1.
<mgrwt>
<rscale>  0 0.79600817E+02</rscale>
<asrwt>0</asrwt>
<pdfrwt beam="1">  1        1 0.21952464E-02 0.79600817E+02</pdfrwt>
<pdfrwt beam="2">  1       -2 0.17079104E-01 0.79600817E+02</pdfrwt>
<totfact> 0.10465025E+05</totfact>
</mgrwt>
</event>
<event>
 8    1  0.1458409E-020  0.8693452E+02  0.7818608E-02  0.1310450E+00
         -2   -1    0    0    0  501 -0.00000000000E+00  0.00000000000E+00  0.23992833752E+02  0.23992833888E+02  0.25500000000E-02 0.  1.
          1   -1    0    0  501    0  0.00000000000E+00 -0.00000000000E+00 -0.78748631851E+02  0.78748632012E+02  0.50400000000E-02 0. -1.
        -24    2    1    2    0    0  0.00000000000E+00  0.00000000000E+00 -0.54755798098E+02  0.10274146590E+03  0.86934523578E+02 0.  0.
         66    2    3    3    0    0 -0.19901278993E+02 -0.68046498744E+01  0.17533103172E+02  0.27454942694E+02  0.20000015012E+01 0.  0.
         13    1    3    3    0    0  0.19901278993E+02  0.68046498744E+01 -0.72288901270E+02  0.75286523206E+02  0.10566000000E+00 0. -1.
         13    1    4    4    0    0 -0.30408645581E+01 -0.14723900297E+01  0.29462925863E+01  0.44840376559E+01  0.10566000000E+00 0. -1.
        -13    1    4    4    0    0 -0.10557324651E+02 -0.37981534357E+01  0.85133731988E+01  0.14084451021E+02  0.10566000000E+00 0.  1.
         14    1    4    4    0    0 -0.63030897842E+01 -0.15341064090E+01  0.60734373869E+01  0.88864540169E+01  0.00000000000E+00 0. -1.
<mgrwt>
<rscale>  0 0.86934524E+02</rscale>
<asrwt>0</asrwt>
<pdfrwt beam="1">  1        1 0.12115174E-01 0.86934524E+02</pdfrwt>
<pdfrwt beam="2">  1       -2 0.36912053E-02 0.86934524E+02</pdfrwt>
<totfact> 0.11252714E+05</totfact>
</mgrwt>
</event>
<event>
 8    1  0.1241100E-020  0.7722407E+02  0.7818608E-02  0.1337119E+00
          1   -1    0    0  501    0  0.00000000000E+00  0.00000000000E+00  0.25847434611E+03  0.25847434616E+03  0.50400000000E-02 0. -1.
         -2   -1    0    0    0  501 -0.00000000000E+00 -0.00000000000E+00 -0.57680352651E+01  0.57680358287E+01  0.25500000000E-02 0.  1.
        -24    2    1    2    0    0  0.00000000000E+00  0.00000000000E+00  0.25270631084E+03  0.26424238199E+03  0.77224069420E+02 0.  0.
         66    2    3    3    0    0 -0.33185766450E+02  0.16946249799E+02  0.16072601723E+03  0.16500097906E+03  0.19999999260E+01 0.  0.
         13    1    3    3    0    0  0.33185766450E+02 -0.16946249799E+02  0.91980293614E+02  0.99241402925E+02  0.10566000000E+00 0. -1.
         13    1    4    4    0    0 -0.10760350937E+02  0.62152396178E+01  0.51174448373E+02  0.52661652900E+02  0.10566000000E+00 0. -1.
        -13    1    4    4    0    0 -0.80295652092E+01  0.40816998977E+01  0.38522668448E+02  0.39561867245E+02  0.10566000000E+00 0.  1.
         14    1    4    4    0    0 -0.14395850304E+02  0.66493102829E+01  0.71028900408E+02  0.72777458917E+02  0.00000000000E+00 0. -1.
<mgrwt>
<rscale>  0 0.77224069E+02</rscale>
<asrwt>0</asrwt>
<pdfrwt beam="1">  1        1 0.39765287E-01 0.77224069E+02</pdfrwt>
<pdfrwt beam="2">  1       -2 0.88739002E-03 0.77224069E+02</pdfrwt>
<totfact> 0.19239935E+05</totfact>
</mgrwt>
</event>
<event>
 8    1  0.1241100E-020  0.7918264E+02  0.7818608E-02  0.1331387E+00
          1   -1    0    0  501    0  0.00000000000E+00  0.00000000000E+00  0.85185102994E+01  0.85185117903E+01  0.50400000000E-02 0. -1.
         -2   -1    0    0    0  501 -0.00000000000E+00 -0.00000000000E+00 -0.18400780584E+03  0.18400780586E+03  0.25500000000E-02 0.  1.
        -24    2    1    2    0    0  0.00000000000E+00  0.00000000000E+00 -0.17548929554E+03  0.19252631765E+03  0.79182637856E+02 0.  0.
         66    2    3    3    0    0  0.34006219298E+02  0.13066312725E+02 -0.12533550598E+03  0.13053788929E+03  0.20000003715E+01 0.  0.
         13    1    3    3    0    0 -0.34006219298E+02 -0.13066312725E+02 -0.50153789561E+02  0.61988428360E+02  0.10566000000E+00 0. -1.
         13    1    4    4    0    0  0.11986958050E+02  0.49575178731E+01 -0.41531174300E+02  0.43509927023E+02  0.10566000000E+00 0. -1.
        -13    1    4    4    0    0  0.89408966766E+01  0.33782779201E+01 -0.33747668983E+02  0.35075186683E+02  0.10566000000E+00 0.  1.
         14    1    4    4    0    0  0.13078364571E+02  0.47305169320E+01 -0.50056662700E+02  0.51952775585E+02  0.00000000000E+00 0. -1.
<mgrwt>
<rscale>  0 0.79182638E+02</rscale>
<asrwt>0</asrwt>
<pdfrwt beam="1">  1        1 0.13105403E-02 0.79182638E+02</pdfrwt>
<pdfrwt beam="2">  1       -2 0.28308890E-01 0.79182638E+02</pdfrwt>
<totfact> 0.90271065E+04</totfact>
</mgrwt>
</event>
<event>
 8    1  0.1241100E-020  0.7707510E+02  0.7818608E-02  0.1337563E+00
         -2   -1    0    0    0  501 -0.00000000000E+00  0.00000000000E+00  0.63648478719E+01  0.63648483827E+01  0.25500000000E-02 0.  1.
          1   -1    0    0  501    0  0.00000000000E+00 -0.00000000000E+00 -0.23333516154E+03  0.23333516159E+03  0.50400000000E-02 0. -1.
        -24    2    1    2    0    0  0.00000000000E+00  0.22204460493E-15 -0.22697031367E+03  0.23970000998E+03  0.77075102961E+02 0.  0.
         66    2    3    3    0    0 -0.37856831831E+02 -0.16069137567E+01 -0.13497629071E+03  0.14020813437E+03  0.20000002594E+01 0.  0.
         13    1    3    3    0    0  0.37856831831E+02  0.16069137567E+01 -0.91994022960E+02  0.99491875610E+02  0.10566000000E+00 0. -1.
         13    1    4    4    0    0 -0.14306084246E+02 -0.13761582107E+01 -0.49630941116E+02  0.51670101006E+02  0.10566000000E+00 0. -1.
        -13    1    4    4    0    0 -0.15997677113E+02 -0.38156638425E+00 -0.57156140111E+02  0.59354079745E+02  0.10566000000E+00 0.  1.
        -14    1    4    4    0    0 -0.75530704732E+01  0.15081083826E+00 -0.28189209482E+02  0.29183953617E+02  0.00000000000E+00 0.  1.
<mgrwt>
<rscale>  0 0.77075103E+02</rscale>
<asrwt>0</asrwt>
<pdfrwt beam="1">  1        1 0.35897711E-01 0.77075103E+02</pdfrwt>
<pdfrwt beam="2">  1       -2 0.97920758E-03 0.77075103E+02</pdfrwt>
<totfact> 0.18959382E+05</totfact>
</mgrwt>
</event>
<event>
 8    1  0.1241100E-020  0.8024456E+02  0.7818608E-02  0.1328359E+00
         -2   -1    0    0    0  501 -0.00000000000E+00  0.00000000000E+00  0.40883416562E+03  0.40883416563E+03  0.25500000000E-02 0.  1.
          1   -1    0    0  501    0  0.00000000000E+00 -0.00000000000E+00 -0.39375297021E+01  0.39375329277E+01  0.50400000000E-02 0. -1.
        -24    2    1    2    0    0  0.00000000000E+00  0.00000000000E+00  0.40489663592E+03  0.41277169855E+03  0.80244559634E+02 0.  0.
         66    2    3    3    0    0  0.14818406399E+02 -0.34705108226E+02  0.27230425471E+03  0.27491387171E+03  0.20000045288E+01 0.  0.
         13    1    3    3    0    0 -0.14818406399E+02  0.34705108226E+02  0.13259238121E+03  0.13785782685E+03  0.10566000000E+00 0. -1.
         13    1    4    4    0    0  0.12928307156E+01 -0.19505478860E+01  0.17017174400E+02  0.17177643520E+02  0.10566000000E+00 0. -1.
        -13    1    4    4    0    0  0.38119450330E+01 -0.93606554032E+01  0.70262034601E+02  0.70985332745E+02  0.10566000000E+00 0.  1.
         14    1    4    4    0    0  0.97136306504E+01 -0.23393904937E+02  0.18502504571E+03  0.18675089544E+03  0.00000000000E+00 0. -1.
<mgrwt>
<rscale>  0 0.80244560E+02</rscale>
<asrwt>0</asrwt>
<pdfrwt beam="1">  1        1 0.60577395E-03 0.80244560E+02</pdfrwt>
<pdfrwt beam="2">  1       -2 0.62897575E-01 0.80244560E+02</pdfrwt>
<totfact> 0.57780260E+04</totfact>
</mgrwt>
</event>
<event>
 8    1  0.1241100E-020  0.8018292E+02  0.7818608E-02  0.1328533E+00
         -2   -1    0    0    0  501 -0.00000000000E+00  0.00000000000E+00  0.26668387321E+02  0.26668387443E+02  0.25500000000E-02 0.  1.
          1   -1    0    0  501    0  0.00000000000E+00 -0.00000000000E+00 -0.60270808223E+02  0.60270808434E+02  0.50400000000E-02 0. -1.
        -24    2    1    2    0    0  0.88817841970E-15  0.71054273576E-14 -0.33602420902E+02  0.86939195877E+02  0.80182922679E+02 0.  0.
         66    2    3    3    0    0 -0.51657768968E+01 -0.32245619036E+02  0.83575849517E+01  0.33768541816E+02  0.19999980541E+01 0.  0.
         13    1    3    3    0    0  0.51657768968E+01  0.32245619036E+02 -0.41960005854E+02  0.53170654061E+02  0.10566000000E+00 0. -1.
         13    1    4    4    0    0 -0.15436634510E+01 -0.94873049023E+01  0.21129291680E+01  0.98421280658E+01  0.10566000000E+00 0. -1.
        -13    1    4    4    0    0 -0.15439414560E+01 -0.11446983711E+02  0.23797359310E+01  0.11793705882E+02  0.10566000000E+00 0.  1.
        -14    1    4    4    0    0 -0.20781719899E+01 -0.11311330423E+02  0.38649198528E+01  0.12132707869E+02  0.00000000000E+00 0.  1.
<mgrwt>
<rscale>  0 0.80182923E+02</rscale>
<asrwt>0</asrwt>
<pdfrwt beam="1">  1        1 0.92724320E-02 0.80182923E+02</pdfrwt>
<pdfrwt beam="2">  1       -2 0.41028289E-02 0.80182923E+02</pdfrwt>
<totfact> 0.13462991E+05</totfact>
</mgrwt>
</event>
<event>
 8    1  0.1241100E-020  0.8035055E+02  0.7818608E-02  0.1328060E+00
         -2   -1    0    0    0  501 -0.00000000000E+00  0.00000000000E+00  0.98453241000E+01  0.98453244302E+01  0.25500000000E-02 0.  1.
          1   -1    0    0  501    0  0.00000000000E+00 -0.00000000000E+00 -0.16394104850E+03  0.16394104858E+03  0.50400000000E-02 0. -1.
        -24    2    1    2    0    0  0.00000000000E+00  0.71054273576E-14 -0.15409572440E+03  0.17378637301E+03  0.80350551740E+02 0.  0.
         66    2    3    3    0    0  0.21673532837E+02  0.33711311073E+02 -0.82328182665E+02  0.91586703114E+02  0.20000016184E+01 0.  0.
         13    1    3    3    0    0 -0.21673532837E+02 -0.33711311073E+02 -0.71767541737E+02  0.82199669896E+02  0.10566000000E+00 0. -1.
         13    1    4    4    0    0  0.57356575276E+01  0.94929334336E+01 -0.21109406342E+02  0.23846000767E+02  0.10566000000E+00 0. -1.
        -13    1    4    4    0    0  0.80837808249E+01  0.11727152957E+02 -0.29662999668E+02  0.32905597430E+02  0.10566000000E+00 0.  1.
        -14    1    4    4    0    0  0.78540944849E+01  0.12491224683E+02 -0.31555776656E+02  0.34835104917E+02  0.00000000000E+00 0.  1.
<mgrwt>
<rscale>  0 0.80350552E+02</rscale>
<asrwt>0</asrwt>
<pdfrwt beam="1">  1        1 0.25221698E-01 0.80350552E+02</pdfrwt>
<pdfrwt beam="2">  1       -2 0.15146654E-02 0.80350552E+02</pdfrwt>
<totfact> 0.15865671E+05</totfact>
</mgrwt>
</event>
<event>
 8    1  0.1241100E-020  0.7896742E+02  0.7818608E-02  0.1332008E+00
          1   -1    0    0  501    0  0.00000000000E+00  0.00000000000E+00  0.59939396049E+02  0.59939396261E+02  0.50400000000E-02 0. -1.
         -2   -1    0    0    0  501 -0.00000000000E+00 -0.00000000000E+00 -0.26008992856E+02  0.26008992981E+02  0.25500000000E-02 0.  1.
        -24    2    1    2    0    0  0.00000000000E+00  0.00000000000E+00  0.33930403193E+02  0.85948389242E+02  0.78967419563E+02 0.  0.
         66    2    3    3    0    0 -0.37371641753E+02  0.82321454948E+01  0.65052657647E+01  0.38868062631E+02  0.19999958205E+01 0.  0.
         13    1    3    3    0    0  0.37371641753E+02 -0.82321454948E+01  0.27425137428E+02  0.47080326610E+02  0.10566000000E+00 0. -1.
         13    1    4    4    0    0 -0.79055497723E+01  0.13501520445E+01  0.16791909833E+01  0.81946003038E+01  0.10566000000E+00 0. -1.
        -13    1    4    4    0    0 -0.35706421462E+01  0.10714479354E+01  0.98751461404E+00  0.38579573822E+01  0.10566000000E+00 0.  1.
        -14    1    4    4    0    0 -0.25895449834E+02  0.58105455148E+01  0.38385601673E+01  0.26815504945E+02  0.00000000000E+00 0.  1.
<mgrwt>
<rscale>  0 0.78967420E+02</rscale>
<asrwt>0</asrwt>
<pdfrwt beam="1">  1        1 0.92214456E-02 0.78967420E+02</pdfrwt>
<pdfrwt beam="2">  1       -2 0.40013835E-02 0.78967420E+02</pdfrwt>
<totfact> 0.14029334E+05</totfact>
</mgrwt>
</event>
<event>
 8    1  0.1241100E-020  0.7743650E+02  0.7818608E-02  0.1336488E+00
          1   -1    0    0  501    0  0.00000000000E+00  0.00000000000E+00  0.20901231228E+02  0.20901231836E+02  0.50400000000E-02 0. -1.
         -2   -1    0    0    0  501 -0.00000000000E+00 -0.00000000000E+00 -0.71723177482E+02  0.71723177528E+02  0.25500000000E-02 0.  1.
        -24    2    1    2    0    0  0.00000000000E+00  0.00000000000E+00 -0.50821946254E+02  0.92624409363E+02  0.77436496491E+02 0.  0.
         66    2    3    3    0    0 -0.31194247949E+02  0.37122054868E+01 -0.52446636567E+02  0.61167894023E+02  0.19999993359E+01 0.  0.
         13    1    3    3    0    0  0.31194247949E+02 -0.37122054868E+01  0.16246903123E+01  0.31456515340E+02  0.10566000000E+00 0. -1.
         13    1    4    4    0    0 -0.47772137831E+01  0.75034237434E-01 -0.83401454857E+01  0.96123146236E+01  0.10566000000E+00 0. -1.
        -13    1    4    4    0    0 -0.22602645490E+02  0.26772424798E+01 -0.37526398343E+02  0.43889508394E+02  0.10566000000E+00 0.  1.
        -14    1    4    4    0    0 -0.38143886763E+01  0.95992876949E+00 -0.65800927381E+01  0.76660710053E+01  0.00000000000E+00 0.  1.
<mgrwt>
<rscale>  0 0.77436496E+02</rscale>
<asrwt>0</asrwt>
<pdfrwt beam="1">  1        1 0.32155741E-02 0.77436496E+02</pdfrwt>
<pdfrwt beam="2">  1       -2 0.11034335E-01 0.77436496E+02</pdfrwt>
<totfact> 0.12421204E+05</totfact>
</mgrwt>
</event>
<event>
 8    1  0.1241100E-020  0.8096717E+02  0.7818608E-02  0.1326329E+00
         -2   -1    0    0    0  501 -0.00000000000E+00  0.00000000000E+00  0.11499348240E+02  0.11499348522E+02  0.25500000000E-02 0.  1.
          1   -1    0    0  501    0  0.00000000000E+00 -0.00000000000E+00 -0.14252290138E+03  0.14252290147E+03  0.50400000000E-02 0. -1.
        -24    2    1    2    0    0  0.00000000000E+00  0.00000000000E+00 -0.13102355314E+03  0.15402224999E+03  0.80967166277E+02 0.  0.
         66    2    3    3    0    0 -0.95695279974E+01  0.25600418933E+02 -0.88024913862E+01  0.28782653953E+02  0.19999995823E+01 0.  0.
         13    1    3    3    0    0  0.95695279974E+01 -0.25600418933E+02 -0.12222106175E+03  0.12523959604E+03  0.10566000000E+00 0. -1.
         13    1    4    4    0    0 -0.22153732209E+01  0.59799936277E+01 -0.29338818499E+01  0.70204721379E+01  0.10566000000E+00 0. -1.
        -13    1    4    4    0    0 -0.69602008886E+01  0.18480419891E+02 -0.54629968314E+01  0.20489651392E+02  0.10566000000E+00 0.  1.
         14    1    4    4    0    0 -0.39395388783E+00  0.11400054142E+01 -0.40561270493E+00  0.12725304226E+01  0.00000000000E+00 0. -1.
<mgrwt>
<rscale>  0 0.80967166E+02</rscale>
<asrwt>0</asrwt>
<pdfrwt beam="1">  1        1 0.21926599E-01 0.80967166E+02</pdfrwt>
<pdfrwt beam="2">  1       -2 0.17691306E-02 0.80967166E+02</pdfrwt>
<totfact> 0.15145735E+05</totfact>
</mgrwt>
</event>
<event>
 8    1  0.1241100E-020  0.7701173E+02  0.7818608E-02  0.1337752E+00
         -2   -1    0    0    0  501 -0.00000000000E+00  0.00000000000E+00  0.14186564100E+03  0.14186564103E+03  0.25500000000E-02 0.  1.
          1   -1    0    0  501    0  0.00000000000E+00 -0.00000000000E+00 -0.10451449972E+02  0.10451451187E+02  0.50400000000E-02 0. -1.
        -24    2    1    2    0    0  0.00000000000E+00  0.00000000000E+00  0.13141419103E+03  0.15231709221E+03  0.77011732717E+02 0.  0.
         66    2    3    3    0    0 -0.19906961463E+02  0.31140495230E+02  0.86931690629E+02  0.94483524419E+02  0.19999982777E+01 0.  0.
         13    1    3    3    0    0  0.19906961463E+02 -0.31140495230E+02  0.44482500403E+02  0.57833567796E+02  0.10566000000E+00 0. -1.
         13    1    4    4    0    0 -0.11813981778E+01  0.26755220620E+01  0.64172946427E+01  0.70531520986E+01  0.10566000000E+00 0. -1.
        -13    1    4    4    0    0 -0.15377927246E+02  0.23651659087E+02  0.66018879047E+02  0.71794046958E+02  0.10566000000E+00 0.  1.
         14    1    4    4    0    0 -0.33476360389E+01  0.48133140809E+01  0.14495516940E+02  0.15636325363E+02  0.00000000000E+00 0. -1.
<mgrwt>
<rscale>  0 0.77011733E+02</rscale>
<asrwt>0</asrwt>
<pdfrwt beam="1">  1        1 0.16079155E-02 0.77011733E+02</pdfrwt>
<pdfrwt beam="2">  1       -2 0.21825482E-01 0.77011733E+02</pdfrwt>
<totfact> 0.10611131E+05</totfact>
</mgrwt>
</event>
<event>
 8    1  0.1241100E-020  0.8306699E+02  0.7818608E-02  0.1320566E+00
         -2   -1    0    0    0  501 -0.00000000000E+00  0.00000000000E+00  0.38521362983E+02  0.38521363068E+02  0.25500000000E-02 0.  1.
          1   -1    0    0  501    0  0.00000000000E+00 -0.00000000000E+00 -0.44781155926E+02  0.44781156209E+02  0.50400000000E-02 0. -1.
        -24    2    1    2    0    0 -0.35527136788E-14  0.00000000000E+00 -0.62597929423E+01  0.83302519277E+02  0.83066989293E+02 0.  0.
         66    2    3    3    0    0 -0.21608907595E+02  0.11427675306E+02  0.30511734105E+02  0.39147190995E+02  0.19999985864E+01 0.  0.
         13    1    3    3    0    0  0.21608907595E+02 -0.11427675306E+02 -0.36771527047E+02  0.44155328283E+02  0.10566000000E+00 0. -1.
         13    1    4    4    0    0 -0.49218121478E+01  0.31156709068E+01  0.77115395529E+01  0.96649183302E+01  0.10566000000E+00 0. -1.
        -13    1    4    4    0    0 -0.77480005533E+01  0.43649885010E+01  0.10092420330E+02  0.13451867875E+02  0.10566000000E+00 0.  1.
         14    1    4    4    0    0 -0.89390948938E+01  0.39470158978E+01  0.12707774222E+02  0.16030404789E+02  0.00000000000E+00 0. -1.
<mgrwt>
<rscale>  0 0.83066989E+02</rscale>
<asrwt>0</asrwt>
<pdfrwt beam="1">  1        1 0.68894087E-02 0.83066989E+02</pdfrwt>
<pdfrwt beam="2">  1       -2 0.59263635E-02 0.83066989E+02</pdfrwt>
<totfact> 0.11633638E+05</totfact>
</mgrwt>
</event>
<event>
 8    1  0.1911490E-020  0.8498005E+02  0.7818608E-02  0.1315485E+00
          1   -1    0    0  501    0  0.00000000000E+00  0.00000000000E+00  0.57076128970E+02  0.57076129193E+02  0.50400000000E-02 0. -1.
         -2   -1    0    0    0  501 -0.00000000000E+00 -0.00000000000E+00 -0.31631475386E+02  0.31631475488E+02  0.25500000000E-02 0.  1.
        -24    2    1    2    0    0  0.00000000000E+00  0.00000000000E+00  0.25444653585E+02  0.88707604681E+02  0.84980049025E+02 0.  0.
         66    2    3    3    0    0  0.15541048240E+02 -0.12397906823E+02 -0.26442184558E+02  0.33142441040E+02  0.19999999783E+01 0.  0.
         13    1    3    3    0    0 -0.15541048240E+02  0.12397906823E+02  0.51886838143E+02  0.55565163641E+02  0.10566000000E+00 0. -1.
         13    1    4    4    0    0  0.22330410702E+01 -0.23305324200E+01 -0.42627664682E+01  0.53479150872E+01  0.10566000000E+00 0. -1.
        -13    1    4    4    0    0  0.68297476536E+01 -0.60715397318E+01 -0.12250322410E+02  0.15283671382E+02  0.10566000000E+00 0.  1.
         14    1    4    4    0    0  0.64782595164E+01 -0.39958346711E+01 -0.99290956795E+01  0.12510854571E+02  0.00000000000E+00 0. -1.
<mgrwt>
<rscale>  0 0.84980049E+02</rscale>
<asrwt>0</asrwt>
<pdfrwt beam="1">  1        1 0.87809428E-02 0.84980049E+02</pdfrwt>
<pdfrwt beam="2">  1       -2 0.48663809E-02 0.84980049E+02</pdfrwt>
<totfact> 0.11358971E+05</totfact>
</mgrwt>
</event>
<event>
 8    1  0.1241100E-020  0.8036297E+02  0.7818608E-02  0.1328025E+00
         -2   -1    0    0    0  501 -0.00000000000E+00  0.00000000000E+00  0.23722414516E+01  0.23722428222E+01  0.25500000000E-02 0.  1.
          1   -1    0    0  501    0  0.00000000000E+00 -0.00000000000E+00 -0.68060165030E+03  0.68060165032E+03  0.50400000000E-02 0. -1.
        -24    2    1    2    0    0 -0.88817841970E-15  0.71054273576E-14 -0.67822940885E+03  0.68297389314E+03  0.80362974591E+02 0.  0.
         66    2    3    3    0    0  0.40818021560E+01 -0.34137050371E+02 -0.51566734979E+03  0.51681603589E+03  0.19999991300E+01 0.  0.
         13    1    3    3    0    0 -0.40818021560E+01  0.34137050371E+02 -0.16256205906E+03  0.16615785725E+03  0.10566000000E+00 0. -1.
         13    1    4    4    0    0  0.23514873207E+00 -0.18822745595E+01 -0.27971459002E+02  0.28035904394E+02  0.10566000000E+00 0. -1.
        -13    1    4    4    0    0  0.35722848220E+01 -0.29831461145E+02 -0.44289174644E+03  0.44390966145E+03  0.10566000000E+00 0.  1.
        -14    1    4    4    0    0  0.27436860189E+00 -0.24233146670E+01 -0.44804144346E+02  0.44870470052E+02  0.00000000000E+00 0.  1.
<mgrwt>
<rscale>  0 0.80362975E+02</rscale>
<asrwt>0</asrwt>
<pdfrwt beam="1">  1        1 0.10470779E+00 0.80362975E+02</pdfrwt>
<pdfrwt beam="2">  1       -2 0.36496087E-03 0.80362975E+02</pdfrwt>
<totfact> 0.19784919E+05</totfact>
</mgrwt>
</event>
<event>
 8    1  0.1241100E-020  0.8007065E+02  0.7818608E-02  0.1328851E+00
         -2   -1    0    0    0  501 -0.00000000000E+00  0.00000000000E+00  0.62477339398E+01  0.62477344602E+01  0.25500000000E-02 0.  1.
          1   -1    0    0  501    0  0.00000000000E+00 -0.00000000000E+00 -0.25654536331E+03  0.25654536336E+03  0.50400000000E-02 0. -1.
        -24    2    1    2    0    0  0.00000000000E+00 -0.35527136788E-14 -0.25029762937E+03  0.26279309782E+03  0.80070650011E+02 0.  0.
         66    2    3    3    0    0 -0.24271331726E+02  0.28388196584E+02 -0.78139761005E+02  0.86630303640E+02  0.20000024400E+01 0.  0.
         13    1    3    3    0    0  0.24271331726E+02 -0.28388196584E+02 -0.17215786836E+03  0.17616279418E+03  0.10566000000E+00 0. -1.
         13    1    4    4    0    0 -0.92316643234E+01  0.94884341786E+01 -0.27357459689E+02  0.30392363745E+02  0.10566000000E+00 0.  1.
        -13    1    4    4    0    0 -0.20877746535E+01  0.27204992419E+01 -0.67345926036E+01  0.75581625214E+01  0.10566000000E+00 0. -1.
         14    1    4    4    0    0 -0.12951892749E+02  0.16179263164E+02 -0.44047708712E+02  0.48679777373E+02  0.00000000000E+00 0. -1.
<mgrwt>
<rscale>  0 0.80070650E+02</rscale>
<asrwt>0</asrwt>
<pdfrwt beam="1">  1        1 0.39468510E-01 0.80070650E+02</pdfrwt>
<pdfrwt beam="2">  1       -2 0.96119007E-03 0.80070650E+02</pdfrwt>
<totfact> 0.17462273E+05</totfact>
</mgrwt>
</event>
<event>
 8    1  0.1241100E-020  0.7850039E+02  0.7818608E-02  0.1333362E+00
          1   -1    0    0  501    0  0.00000000000E+00  0.00000000000E+00  0.11927833728E+03  0.11927833738E+03  0.50400000000E-02 0. -1.
         -2   -1    0    0    0  501 -0.00000000000E+00 -0.00000000000E+00 -0.12915821226E+02  0.12915821478E+02  0.25500000000E-02 0.  1.
        -24    2    1    2    0    0  0.35527136788E-14  0.17763568394E-14  0.10636251605E+03  0.13219415886E+03  0.78500387364E+02 0.  0.
         66    2    3    3    0    0  0.26111320498E+02  0.12914196251E+02  0.89809382807E+01  0.30548891504E+02  0.19999991879E+01 0.  0.
         13    1    3    3    0    0 -0.26111320498E+02 -0.12914196251E+02  0.97381577771E+02  0.10164526736E+03  0.10566000000E+00 0. -1.
         13    1    4    4    0    0  0.15343084528E+01  0.11111141326E+01  0.38767534273E+00  0.19365260780E+01  0.10566000000E+00 0. -1.
        -13    1    4    4    0    0  0.21591600177E+02  0.10218431185E+02  0.71284523829E+01  0.24928688925E+02  0.10566000000E+00 0.  1.
        -14    1    4    4    0    0  0.29854118684E+01  0.15846509334E+01  0.14648105551E+01  0.36836765014E+01  0.00000000000E+00 0.  1.
<mgrwt>
<rscale>  0 0.78500387E+02</rscale>
<asrwt>0</asrwt>
<pdfrwt beam="1">  1        1 0.18350515E-01 0.78500387E+02</pdfrwt>
<pdfrwt beam="2">  1       -2 0.19870493E-02 0.78500387E+02</pdfrwt>
<totfact> 0.15940083E+05</totfact>
</mgrwt>
</event>
<event>
 8    1  0.1241100E-020  0.7874885E+02  0.7818608E-02  0.1332640E+00
         -2   -1    0    0    0  501 -0.00000000000E+00  0.00000000000E+00  0.59788510380E+01  0.59788515818E+01  0.25500000000E-02 0.  1.
          1   -1    0    0  501    0  0.00000000000E+00 -0.00000000000E+00 -0.25930487823E+03  0.25930487828E+03  0.50400000000E-02 0. -1.
        -24    2    1    2    0    0  0.00000000000E+00  0.00000000000E+00 -0.25332602719E+03  0.26528372986E+03  0.78748849363E+02 0.  0.
         66    2    3    3    0    0 -0.20976140934E+02  0.27906987501E+02 -0.65590925805E+02  0.74330128438E+02  0.20000014223E+01 0.  0.
         13    1    3    3    0    0  0.20976140934E+02 -0.27906987501E+02 -0.18773510138E+03  0.19095360142E+03  0.10566000000E+00 0. -1.
         13    1    4    4    0    0 -0.66612017625E+00  0.11175424029E+01 -0.24830286126E+01  0.28052116209E+01  0.10566000000E+00 0. -1.
        -13    1    4    4    0    0 -0.88032058290E+01  0.12877396955E+02 -0.28392644954E+02  0.32395636076E+02  0.10566000000E+00 0.  1.
        -14    1    4    4    0    0 -0.11506814929E+02  0.13912048143E+02 -0.34715252239E+02  0.39129280741E+02  0.00000000000E+00 0.  1.
<mgrwt>
<rscale>  0 0.78748849E+02</rscale>
<asrwt>0</asrwt>
<pdfrwt beam="1">  1        1 0.39893050E-01 0.78748849E+02</pdfrwt>
<pdfrwt beam="2">  1       -2 0.91982348E-03 0.78748849E+02</pdfrwt>
<totfact> 0.18285124E+05</totfact>
</mgrwt>
</event>
<event>
 8    1  0.1241100E-020  0.7931626E+02  0.7818608E-02  0.1331003E+00
         -2   -1    0    0    0  501 -0.00000000000E+00  0.00000000000E+00  0.12306768930E+03  0.12306768933E+03  0.25500000000E-02 0.  1.
          1   -1    0    0  501    0  0.00000000000E+00 -0.00000000000E+00 -0.12779692087E+02  0.12779693081E+02  0.50400000000E-02 0. -1.
        -24    2    1    2    0    0  0.00000000000E+00  0.35527136788E-14  0.11028799721E+03  0.13584738241E+03  0.79316259227E+02 0.  0.
         66    2    3    3    0    0 -0.19752892986E+02  0.28498353803E+02  0.88053992440E+02  0.94656423653E+02  0.20000008658E+01 0.  0.
         13    1    3    3    0    0  0.19752892986E+02 -0.28498353803E+02  0.22234004773E+02  0.41190958754E+02  0.10566000000E+00 0. -1.
         13    1    4    4    0    0 -0.57391853408E+00  0.10327179135E+01  0.33834800701E+01  0.35853856407E+01  0.10566000000E+00 0. -1.
        -13    1    4    4    0    0 -0.18188604001E+01  0.29193512947E+01  0.99812868633E+01  0.10557846211E+02  0.10566000000E+00 0.  1.
        -14    1    4    4    0    0 -0.17360114052E+02  0.24546284595E+02  0.74689225506E+02  0.80513191801E+02  0.00000000000E+00 0.  1.
<mgrwt>
<rscale>  0 0.79316259E+02</rscale>
<asrwt>0</asrwt>
<pdfrwt beam="1">  1        1 0.19661066E-02 0.79316259E+02</pdfrwt>
<pdfrwt beam="2">  1       -2 0.18933491E-01 0.79316259E+02</pdfrwt>
<totfact> 0.10266268E+05</totfact>
</mgrwt>
</event>
<event>
 8    1  0.1241100E-020  0.8045386E+02  0.7818608E-02  0.1327768E+00
         -2   -1    0    0    0  501 -0.00000000000E+00  0.00000000000E+00  0.13231656248E+02  0.13231656493E+02  0.25500000000E-02 0.  1.
          1   -1    0    0  501    0  0.00000000000E+00 -0.00000000000E+00 -0.12229806087E+03  0.12229806098E+03  0.50400000000E-02 0. -1.
        -24    2    1    2    0    0  0.00000000000E+00  0.00000000000E+00 -0.10906640463E+03  0.13552971747E+03  0.80453860689E+02 0.  0.
         66    2    3    3    0    0  0.33319944717E+02 -0.18378587052E+02 -0.32718728471E+02  0.50224559384E+02  0.19999986349E+01 0.  0.
         13    1    3    3    0    0 -0.33319944717E+02  0.18378587052E+02 -0.76347676155E+02  0.85305158087E+02  0.10566000000E+00 0. -1.
         13    1    4    4    0    0  0.27345137428E+01 -0.18853062515E+01 -0.26249828255E+01  0.42348133301E+01  0.10566000000E+00 0. -1.
        -13    1    4    4    0    0  0.14567424164E+02 -0.84005039678E+01 -0.13903321012E+02  0.21819528246E+02  0.10566000000E+00 0.  1.
        -14    1    4    4    0    0  0.16018006811E+02 -0.80927768325E+01 -0.16190424633E+02  0.24170217807E+02  0.00000000000E+00 0.  1.
<mgrwt>
<rscale>  0 0.80453861E+02</rscale>
<asrwt>0</asrwt>
<pdfrwt beam="1">  1        1 0.18815086E-01 0.80453861E+02</pdfrwt>
<pdfrwt beam="2">  1       -2 0.20356395E-02 0.80453861E+02</pdfrwt>
<totfact> 0.14987445E+05</totfact>
</mgrwt>
</event>
<event>
 8    1  0.1241100E-020  0.8052036E+02  0.7818608E-02  0.1327581E+00
          1   -1    0    0  501    0  0.00000000000E+00  0.00000000000E+00  0.16662972142E+03  0.16662972150E+03  0.50400000000E-02 0. -1.
         -2   -1    0    0    0  501 -0.00000000000E+00 -0.00000000000E+00 -0.97274491889E+01  0.97274495231E+01  0.25500000000E-02 0.  1.
        -24    2    1    2    0    0  0.35527136788E-14  0.00000000000E+00  0.15690227223E+03  0.17635717102E+03  0.80520362262E+02 0.  0.
         66    2    3    3    0    0  0.30747303524E+02 -0.28714179852E+01  0.22008941175E+02  0.37974138669E+02  0.20000001885E+01 0.  0.
         13    1    3    3    0    0 -0.30747303524E+02  0.28714179852E+01  0.13489333106E+03  0.13838303235E+03  0.10566000000E+00 0. -1.
         13    1    4    4    0    0  0.67841037550E+01 -0.13462766866E+00  0.47224105772E+01  0.82676788800E+01  0.10566000000E+00 0. -1.
        -13    1    4    4    0    0  0.23466393089E+02 -0.25769868631E+01  0.16677244138E+02  0.28904222909E+02  0.10566000000E+00 0.  1.
        -14    1    4    4    0    0  0.49680667982E+00 -0.15980345343E+00  0.60928646041E+00  0.80223688003E+00  0.00000000000E+00 0.  1.
<mgrwt>
<rscale>  0 0.80520362E+02</rscale>
<asrwt>0</asrwt>
<pdfrwt beam="1">  1        1 0.25635340E-01 0.80520362E+02</pdfrwt>
<pdfrwt beam="2">  1       -2 0.14965308E-02 0.80520362E+02</pdfrwt>
<totfact> 0.15824962E+05</totfact>
</mgrwt>
</event>
<event>
 8    1  0.1241100E-020  0.7819041E+02  0.7818608E-02  0.1334267E+00
          1   -1    0    0  501    0  0.00000000000E+00  0.00000000000E+00  0.14966919497E+02  0.14966920346E+02  0.50400000000E-02 0. -1.
         -2   -1    0    0    0  501 -0.00000000000E+00 -0.00000000000E+00 -0.10212088928E+03  0.10212088931E+03  0.25500000000E-02 0.  1.
        -24    2    1    2    0    0  0.00000000000E+00  0.88817841970E-15 -0.87153969779E+02  0.11708780965E+03  0.78190413231E+02 0.  0.
         66    2    3    3    0    0 -0.31768879351E+02 -0.60631871785E+01 -0.76427226782E+02  0.83012919876E+02  0.19999846869E+01 0.  0.
         13    1    3    3    0    0  0.31768879351E+02  0.60631871785E+01 -0.10726742998E+02  0.34074889778E+02  0.10566000000E+00 0. -1.
         13    1    4    4    0    0 -0.12909858483E+01  0.70514811484E-01 -0.33285075736E+01  0.35723582550E+01  0.10566000000E+00 0. -1.
        -13    1    4    4    0    0 -0.18998696212E+02 -0.36374203151E+01 -0.46506358896E+02  0.50368977219E+02  0.10566000000E+00 0.  1.
         14    1    4    4    0    0 -0.11479197291E+02 -0.24962816748E+01 -0.26592360312E+02  0.29071584401E+02  0.00000000000E+00 0. -1.
<mgrwt>
<rscale>  0 0.78190413E+02</rscale>
<asrwt>0</asrwt>
<pdfrwt beam="1">  1        1 0.23026031E-02 0.78190413E+02</pdfrwt>
<pdfrwt beam="2">  1       -2 0.15710906E-01 0.78190413E+02</pdfrwt>
<totfact> 0.11193875E+05</totfact>
</mgrwt>
</event>
<event>
 8    1  0.1241100E-020  0.7893680E+02  0.7818608E-02  0.1332096E+00
          1   -1    0    0  501    0  0.00000000000E+00  0.00000000000E+00  0.27939931322E+03  0.27939931327E+03  0.50400000000E-02 0. -1.
         -2   -1    0    0    0  501 -0.00000000000E+00 -0.00000000000E+00 -0.55753696641E+01  0.55753702472E+01  0.25500000000E-02 0.  1.
        -24    2    1    2    0    0  0.00000000000E+00  0.00000000000E+00  0.27382394356E+03  0.28497468351E+03  0.78936798635E+02 0.  0.
         66    2    3    3    0    0  0.13844961905E+02 -0.31768759898E+02  0.68996903516E+02  0.77236712570E+02  0.19999995848E+01 0.  0.
         13    1    3    3    0    0 -0.13844961905E+02  0.31768759898E+02  0.20482704004E+03  0.20773797094E+03  0.10566000000E+00 0. -1.
         13    1    4    4    0    0  0.10299057955E+01 -0.18664124380E+01  0.47223525177E+01  0.51822754340E+01  0.10566000000E+00 0. -1.
        -13    1    4    4    0    0  0.50242227371E+01 -0.10468091158E+02  0.24076671794E+02  0.26730526282E+02  0.10566000000E+00 0.  1.
        -14    1    4    4    0    0  0.77908333721E+01 -0.19434256302E+02  0.40197879203E+02  0.45323910854E+02  0.00000000000E+00 0.  1.
<mgrwt>
<rscale>  0 0.78936799E+02</rscale>
<asrwt>0</asrwt>
<pdfrwt beam="1">  1        1 0.42984494E-01 0.78936799E+02</pdfrwt>
<pdfrwt beam="2">  1       -2 0.85774954E-03 0.78936799E+02</pdfrwt>
<totfact> 0.18435866E+05</totfact>
</mgrwt>
</event>
<event>
 8    1  0.1241100E-020  0.8070975E+02  0.7818608E-02  0.1327049E+00
          1   -1    0    0  501    0  0.00000000000E+00  0.00000000000E+00  0.68562968506E+02  0.68562968691E+02  0.50400000000E-02 0. -1.
         -2   -1    0    0    0  501 -0.00000000000E+00 -0.00000000000E+00 -0.23752123559E+02  0.23752123695E+02  0.25500000000E-02 0.  1.
        -24    2    1    2    0    0  0.00000000000E+00  0.00000000000E+00  0.44810844947E+02  0.92315092386E+02  0.80709754413E+02 0.  0.
         66    2    3    3    0    0  0.20804702079E+02  0.71297820726E+01  0.61086075249E+02  0.64955200091E+02  0.20000021315E+01 0.  0.
         13    1    3    3    0    0 -0.20804702079E+02 -0.71297820726E+01 -0.16275230302E+02  0.27359892295E+02  0.10566000000E+00 0. -1.
         13    1    4    4    0    0  0.12003635220E+01  0.64805291181E+00  0.34773529230E+01  0.37368425908E+01  0.10566000000E+00 0. -1.
        -13    1    4    4    0    0  0.50728899059E+01  0.15176517609E+01  0.16860301152E+02  0.17672532298E+02  0.10566000000E+00 0.  1.
        -14    1    4    4    0    0  0.14531448651E+02  0.49640773999E+01  0.40748421174E+02  0.43545825202E+02  0.00000000000E+00 0.  1.
<mgrwt>
<rscale>  0 0.80709754E+02</rscale>
<asrwt>0</asrwt>
<pdfrwt beam="1">  1        1 0.10548149E-01 0.80709754E+02</pdfrwt>
<pdfrwt beam="2">  1       -2 0.36541729E-02 0.80709754E+02</pdfrwt>
<totfact> 0.13494375E+05</totfact>
</mgrwt>
</event>
<event>
 8    1  0.1241100E-020  0.7959379E+02  0.7818608E-02  0.1330208E+00
          1   -1    0    0  501    0  0.00000000000E+00  0.00000000000E+00  0.17570054561E+03  0.17570054568E+03  0.50400000000E-02 0. -1.
         -2   -1    0    0    0  501 -0.00000000000E+00 -0.00000000000E+00 -0.90141598223E+01  0.90141601830E+01  0.25500000000E-02 0.  1.
        -24    2    1    2    0    0  0.00000000000E+00  0.35527136788E-14  0.16668638579E+03  0.18471470586E+03  0.79593789682E+02 0.  0.
         66    2    3    3    0    0 -0.37469959905E+01 -0.26333257955E+02  0.14775092167E+02  0.30492357462E+02  0.20000153945E+01 0.  0.
         13    1    3    3    0    0  0.37469959905E+01  0.26333257955E+02  0.15191129362E+03  0.15422234840E+03  0.10566000000E+00 0. -1.
         13    1    4    4    0    0 -0.32157809764E+00 -0.18645906389E+01  0.59797117559E+00  0.19871699187E+01  0.10566000000E+00 0. -1.
        -13    1    4    4    0    0 -0.19205621104E+01 -0.16933758352E+02  0.95561750133E+01  0.19538996281E+02  0.10566000000E+00 0.  1.
        -14    1    4    4    0    0 -0.15048557825E+01 -0.75349089642E+01  0.46209459781E+01  0.89661912626E+01  0.00000000000E+00 0.  1.
<mgrwt>
<rscale>  0 0.79593790E+02</rscale>
<asrwt>0</asrwt>
<pdfrwt beam="1">  1        1 0.27030849E-01 0.79593790E+02</pdfrwt>
<pdfrwt beam="2">  1       -2 0.13867941E-02 0.79593790E+02</pdfrwt>
<totfact> 0.16484964E+05</totfact>
</mgrwt>
</event>
<event>
 8    1  0.1241100E-020  0.8082690E+02  0.7818608E-02  0.1326721E+00
         -2   -1    0    0    0  501 -0.00000000000E+00  0.00000000000E+00  0.74753946614E+02  0.74753946658E+02  0.25500000000E-02 0.  1.
          1   -1    0    0  501    0  0.00000000000E+00 -0.00000000000E+00 -0.21848301616E+02  0.21848302197E+02  0.50400000000E-02 0. -1.
        -24    2    1    2    0    0  0.00000000000E+00 -0.88817841970E-15  0.52905644998E+02  0.96602248855E+02  0.80826896582E+02 0.  0.
         66    2    3    3    0    0  0.38418206766E+02 -0.48635150919E+01  0.12756750602E+02  0.40820914383E+02  0.19999937476E+01 0.  0.
         13    1    3    3    0    0 -0.38418206766E+02  0.48635150919E+01  0.40148894396E+02  0.55781334471E+02  0.10566000000E+00 0. -1.
         13    1    4    4    0    0  0.14112329126E+01 -0.35352116863E-01  0.18069408826E+00  0.14271098399E+01  0.10566000000E+00 0. -1.
        -13    1    4    4    0    0  0.26838365575E+02 -0.35771580256E+01  0.95545929526E+01  0.28712285468E+02  0.10566000000E+00 0.  1.
        -14    1    4    4    0    0  0.10168608278E+02 -0.12510049494E+01  0.30214635616E+01  0.10681519075E+02  0.00000000000E+00 0.  1.
<mgrwt>
<rscale>  0 0.80826897E+02</rscale>
<asrwt>0</asrwt>
<pdfrwt beam="1">  1        1 0.33612771E-02 0.80826897E+02</pdfrwt>
<pdfrwt beam="2">  1       -2 0.11500607E-01 0.80826897E+02</pdfrwt>
<totfact> 0.11045005E+05</totfact>
</mgrwt>
</event>
<event>
 8    1  0.1241100E-020  0.7971163E+02  0.7818608E-02  0.1329872E+00
          1   -1    0    0  501    0  0.00000000000E+00  0.00000000000E+00  0.16964122382E+03  0.16964122390E+03  0.50400000000E-02 0. -1.
         -2   -1    0    0    0  501 -0.00000000000E+00 -0.00000000000E+00 -0.93637961076E+01  0.93637964548E+01  0.25500000000E-02 0.  1.
        -24    2    1    2    0    0  0.35527136788E-14  0.35527136788E-14  0.16027742771E+03  0.17900502035E+03  0.79711626983E+02 0.  0.
         66    2    3    3    0    0  0.31350257078E+02  0.22126054529E+02  0.10417449694E+03  0.11103479957E+03  0.19999986056E+01 0.  0.
         13    1    3    3    0    0 -0.31350257078E+02 -0.22126054529E+02  0.56102930770E+02  0.67970220780E+02  0.10566000000E+00 0. -1.
         13    1    4    4    0    0  0.54381879358E+01  0.45536864851E+01  0.20339127542E+02  0.21540687590E+02  0.10566000000E+00 0. -1.
        -13    1    4    4    0    0  0.12772229450E+02  0.85058782752E+01  0.42114485931E+02  0.44823218309E+02  0.10566000000E+00 0.  1.
         14    1    4    4    0    0  0.13139839692E+02  0.90664897684E+01  0.41720883470E+02  0.44670893671E+02  0.00000000000E+00 0. -1.
<mgrwt>
<rscale>  0 0.79711627E+02</rscale>
<asrwt>0</asrwt>
<pdfrwt beam="1">  1        1 0.26098650E-01 0.79711627E+02</pdfrwt>
<pdfrwt beam="2">  1       -2 0.14405841E-02 0.79711627E+02</pdfrwt>
<totfact> 0.16311553E+05</totfact>
</mgrwt>
</event>
<event>
 8    1  0.1241100E-020  0.8035122E+02  0.7818608E-02  0.1328058E+00
          1   -1    0    0  501    0  0.00000000000E+00  0.00000000000E+00  0.57491692058E+01  0.57491714150E+01  0.50400000000E-02 0. -1.
         -2   -1    0    0    0  501 -0.00000000000E+00 -0.00000000000E+00 -0.28075001843E+03  0.28075001844E+03  0.25500000000E-02 0.  1.
        -24    2    1    2    0    0  0.00000000000E+00  0.00000000000E+00 -0.27500084922E+03  0.28649918986E+03  0.80351220989E+02 0.  0.
         66    2    3    3    0    0 -0.33468504457E+02  0.69940811692E+01 -0.21263369786E+03  0.21537443541E+03  0.19999999134E+01 0.  0.
         13    1    3    3    0    0  0.33468504457E+02 -0.69940811692E+01 -0.62367151360E+02  0.71124754445E+02  0.10566000000E+00 0. -1.
         13    1    4    4    0    0 -0.47398448671E+01  0.88036272470E+00 -0.33179291108E+02  0.33527864387E+02  0.10566000000E+00 0. -1.
        -13    1    4    4    0    0 -0.14835028496E+02  0.36435241019E+01 -0.95770857949E+02  0.96981553579E+02  0.10566000000E+00 0.  1.
        -14    1    4    4    0    0 -0.13893631094E+02  0.24701943426E+01 -0.83683548807E+02  0.84865017445E+02  0.00000000000E+00 0.  1.
<mgrwt>
<rscale>  0 0.80351221E+02</rscale>
<asrwt>0</asrwt>
<pdfrwt beam="1">  1        1 0.88448796E-03 0.80351221E+02</pdfrwt>
<pdfrwt beam="2">  1       -2 0.43192300E-01 0.80351221E+02</pdfrwt>
<totfact> 0.71970282E+04</totfact>
</mgrwt>
</event>
<event>
 8    1  0.1241100E-020  0.7983973E+02  0.7818608E-02  0.1329507E+00
         -2   -1    0    0    0  501 -0.00000000000E+00  0.00000000000E+00  0.94161505630E+02  0.94161505665E+02  0.25500000000E-02 0.  1.
          1   -1    0    0  501    0  0.00000000000E+00 -0.00000000000E+00 -0.16924064346E+02  0.16924065096E+02  0.50400000000E-02 0. -1.
        -24    2    1    2    0    0  0.88817841970E-15  0.17763568394E-14  0.77237441284E+02  0.11108557076E+03  0.79839725044E+02 0.  0.
         66    2    3    3    0    0  0.48546576155E+01 -0.13311877447E+02  0.90531679181E+02  0.91655652927E+02  0.19999991302E+01 0.  0.
         13    1    3    3    0    0 -0.48546576155E+01  0.13311877447E+02 -0.13294237897E+02  0.19429917833E+02  0.10566000000E+00 0. -1.
         13    1    4    4    0    0  0.37923153065E+00 -0.32314901182E+01  0.19324206947E+02  0.19596491602E+02  0.10566000000E+00 0. -1.
        -13    1    4    4    0    0  0.17074246055E+01 -0.32431018139E+01  0.22828272381E+02  0.23120860539E+02  0.10566000000E+00 0.  1.
         14    1    4    4    0    0  0.27680014794E+01 -0.68372855148E+01  0.48379199853E+02  0.48938300786E+02  0.00000000000E+00 0. -1.
<mgrwt>
<rscale>  0 0.79839725E+02</rscale>
<asrwt>0</asrwt>
<pdfrwt beam="1">  1        1 0.26037023E-02 0.79839725E+02</pdfrwt>
<pdfrwt beam="2">  1       -2 0.14486385E-01 0.79839725E+02</pdfrwt>
<totfact> 0.10824833E+05</totfact>
</mgrwt>
</event>
<event>
 8    1  0.1241100E-020  0.8028599E+02  0.7818608E-02  0.1328242E+00
         -2   -1    0    0    0  501 -0.00000000000E+00  0.00000000000E+00  0.13069719574E+03  0.13069719576E+03  0.25500000000E-02 0.  1.
          1   -1    0    0  501    0  0.00000000000E+00 -0.00000000000E+00 -0.12329722459E+02  0.12329723489E+02  0.50400000000E-02 0. -1.
        -24    2    1    2    0    0  0.00000000000E+00  0.00000000000E+00  0.11836747328E+03  0.14302691925E+03  0.80285994422E+02 0.  0.
         66    2    3    3    0    0 -0.79926743489E+01  0.33250011214E+02  0.96589135480E+02  0.10248369232E+03  0.20000023062E+01 0.  0.
         13    1    3    3    0    0  0.79926743489E+01 -0.33250011214E+02  0.21778337800E+02  0.40543226936E+02  0.10566000000E+00 0. -1.
         13    1    4    4    0    0 -0.19998282802E+01  0.61817756069E+01  0.17656273882E+02  0.18814059483E+02  0.10566000000E+00 0. -1.
        -13    1    4    4    0    0 -0.45997108798E+01  0.18553413998E+02  0.55375632346E+02  0.58582064942E+02  0.10566000000E+00 0.  1.
        -14    1    4    4    0    0 -0.13931351889E+01  0.85148216092E+01  0.23557229252E+02  0.25087567892E+02  0.00000000000E+00 0.  1.
<mgrwt>
<rscale>  0 0.80285994E+02</rscale>
<asrwt>0</asrwt>
<pdfrwt beam="1">  1        1 0.18968804E-02 0.80285994E+02</pdfrwt>
<pdfrwt beam="2">  1       -2 0.20107262E-01 0.80285994E+02</pdfrwt>
<totfact> 0.97775503E+04</totfact>
</mgrwt>
</event>
<event>
 8    1  0.1241100E-020  0.8017648E+02  0.7818608E-02  0.1328551E+00
         -2   -1    0    0    0  501 -0.00000000000E+00  0.00000000000E+00  0.67653408990E+01  0.67653413796E+01  0.25500000000E-02 0.  1.
          1   -1    0    0  501    0  0.00000000000E+00 -0.00000000000E+00 -0.23754412377E+03  0.23754412383E+03  0.50400000000E-02 0. -1.
        -24    2    1    2    0    0  0.00000000000E+00  0.00000000000E+00 -0.23077878287E+03  0.24430946521E+03  0.80176481367E+02 0.  0.
         66    2    3    3    0    0  0.40009294429E+02  0.12144678510E+01 -0.12059930096E+03  0.12708426326E+03  0.20000007175E+01 0.  0.
         13    1    3    3    0    0 -0.40009294429E+02 -0.12144678510E+01 -0.11017948192E+03  0.11722520195E+03  0.10566000000E+00 0. -1.
         13    1    4    4    0    0  0.17709277067E+02 -0.13528186605E+00 -0.55124165120E+02  0.57899236089E+02  0.10566000000E+00 0. -1.
        -13    1    4    4    0    0  0.19314461455E+02  0.94482510511E+00 -0.56501784548E+02  0.59719376562E+02  0.10566000000E+00 0.  1.
        -14    1    4    4    0    0  0.29855559072E+01  0.40492461192E+00 -0.89733512886E+01  0.94656506044E+01  0.00000000000E+00 0.  1.
<mgrwt>
<rscale>  0 0.80176481E+02</rscale>
<asrwt>0</asrwt>
<pdfrwt beam="1">  1        1 0.36545244E-01 0.80176481E+02</pdfrwt>
<pdfrwt beam="2">  1       -2 0.10408219E-02 0.80176481E+02</pdfrwt>
<totfact> 0.17142331E+05</totfact>
</mgrwt>
</event>
<event>
 8    1  0.1241100E-020  0.8024125E+02  0.7818608E-02  0.1328368E+00
         -2   -1    0    0    0  501 -0.00000000000E+00  0.00000000000E+00  0.21381941934E+02  0.21381942086E+02  0.25500000000E-02 0.  1.
          1   -1    0    0  501    0  0.00000000000E+00 -0.00000000000E+00 -0.75281489611E+02  0.75281489779E+02  0.50400000000E-02 0. -1.
        -24    2    1    2    0    0  0.00000000000E+00  0.35527136788E-14 -0.53899547677E+02  0.96663431865E+02  0.80241247624E+02 0.  0.
         66    2    3    3    0    0  0.83708828500E+01  0.31441479503E+02  0.12601640062E+01  0.32622481920E+02  0.20000000681E+01 0.  0.
         13    1    3    3    0    0 -0.83708828500E+01 -0.31441479503E+02 -0.55159711683E+02  0.64040949946E+02  0.10566000000E+00 0. -1.
         13    1    4    4    0    0  0.22185409255E+01  0.95479719848E+01 -0.13096396357E+00  0.98037752145E+01  0.10566000000E+00 0. -1.
        -13    1    4    4    0    0  0.20368135951E+01  0.95198872096E+01  0.54131277878E+00  0.97509510134E+01  0.10566000000E+00 0.  1.
         14    1    4    4    0    0  0.41155283294E+01  0.12373620308E+02  0.84981519094E+00  0.13067755692E+02  0.00000000000E+00 0. -1.
<mgrwt>
<rscale>  0 0.80241248E+02</rscale>
<asrwt>0</asrwt>
<pdfrwt beam="1">  1        1 0.11581768E-01 0.80241248E+02</pdfrwt>
<pdfrwt beam="2">  1       -2 0.32895296E-02 0.80241248E+02</pdfrwt>
<totfact> 0.13917016E+05</totfact>
</mgrwt>
</event>
<event>
 8    1  0.1241100E-020  0.8161016E+02  0.7818608E-02  0.1324543E+00
         -2   -1    0    0    0  501 -0.00000000000E+00  0.00000000000E+00  0.56493189935E+02  0.56493189992E+02  0.25500000000E-02 0.  1.
          1   -1    0    0  501    0  0.00000000000E+00 -0.00000000000E+00 -0.29473542498E+02  0.29473542929E+02  0.50400000000E-02 0. -1.
        -24    2    1    2    0    0  0.00000000000E+00  0.00000000000E+00  0.27019647436E+02  0.85966732922E+02  0.81610157589E+02 0.  0.
         66    2    3    3    0    0 -0.18228798360E+01 -0.11492415968E+02  0.54689564961E+02  0.55949504277E+02  0.19999993994E+01 0.  0.
         13    1    3    3    0    0  0.18228798360E+01  0.11492415968E+02 -0.27669917524E+02  0.30017228645E+02  0.10566000000E+00 0. -1.
         13    1    4    4    0    0 -0.46787725082E+00 -0.48528964747E+01  0.20892997171E+02  0.21454556816E+02  0.10566000000E+00 0. -1.
        -13    1    4    4    0    0 -0.22728518186E+00 -0.37953790236E+00  0.40787222117E+01  0.41040037146E+01  0.10566000000E+00 0.  1.
        -14    1    4    4    0    0 -0.11277174033E+01 -0.62599815906E+01  0.29717845578E+02  0.30390943747E+02  0.00000000000E+00 0.  1.
<mgrwt>
<rscale>  0 0.81610158E+02</rscale>
<asrwt>0</asrwt>
<pdfrwt beam="1">  1        1 0.45343912E-02 0.81610158E+02</pdfrwt>
<pdfrwt beam="2">  1       -2 0.86912600E-02 0.81610158E+02</pdfrwt>
<totfact> 0.11383359E+05</totfact>
</mgrwt>
</event>
<event>
 8    1  0.1241100E-020  0.7886243E+02  0.7818608E-02  0.1332311E+00
          1   -1    0    0  501    0  0.00000000000E+00  0.00000000000E+00  0.35283277805E+02  0.35283278165E+02  0.50400000000E-02 0. -1.
         -2   -1    0    0    0  501 -0.00000000000E+00 -0.00000000000E+00 -0.44066784703E+02  0.44066784777E+02  0.25500000000E-02 0.  1.
        -24    2    1    2    0    0 -0.17763568394E-14  0.35527136788E-14 -0.87835068978E+01  0.79350062942E+02  0.78862427654E+02 0.  0.
         66    2    3    3    0    0  0.15282217439E+02 -0.23446273117E+02  0.23517576423E+02  0.36610794808E+02  0.20000006836E+01 0.  0.
         13    1    3    3    0    0 -0.15282217439E+02  0.23446273117E+02 -0.32301083321E+02  0.42739268134E+02  0.10566000000E+00 0. -1.
         13    1    4    4    0    0  0.31854147473E+00 -0.75344279131E+00  0.51444354253E+00  0.97209099624E+00  0.10566000000E+00 0.  1.
        -13    1    4    4    0    0  0.13336542862E+02 -0.20948996305E+02  0.21095974278E+02  0.32584890923E+02  0.10566000000E+00 0.  1.
        -14    1    4    4    0    0  0.16271331023E+01 -0.17438340208E+01  0.19071586026E+01  0.30538128889E+01  0.00000000000E+00 0.  1.
<mgrwt>
<rscale>  0 0.78862428E+02</rscale>
<asrwt>0</asrwt>
<pdfrwt beam="1">  1        1 0.54281966E-02 0.78862428E+02</pdfrwt>
<pdfrwt beam="2">  1       -2 0.67795054E-02 0.78862428E+02</pdfrwt>
<totfact> 0.12953030E+05</totfact>
</mgrwt>
</event>
<event>
 8    1  0.1241100E-020  0.8103411E+02  0.7818608E-02  0.1326142E+00
         -2   -1    0    0    0  501 -0.00000000000E+00  0.00000000000E+00  0.12203728149E+03  0.12203728152E+03  0.25500000000E-02 0.  1.
          1   -1    0    0  501    0  0.00000000000E+00 -0.00000000000E+00 -0.13451885646E+02  0.13451886590E+02  0.50400000000E-02 0. -1.
        -24    2    1    2    0    0 -0.88817841970E-15 -0.35527136788E-14  0.10858539584E+03  0.13548916811E+03  0.81034106916E+02 0.  0.
         66    2    3    3    0    0  0.57946927403E+01  0.21949485523E+02  0.11038808015E+03  0.11271595548E+03  0.20000004727E+01 0.  0.
         13    1    3    3    0    0 -0.57946927403E+01 -0.21949485523E+02 -0.18026843041E+01  0.22773212629E+02  0.10566000000E+00 0. -1.
         13    1    4    4    0    0  0.63526954895E-02  0.15661991800E+01  0.87378421333E+01  0.88777288430E+01  0.10566000000E+00 0. -1.
        -13    1    4    4    0    0  0.45541789539E+01  0.17082768433E+02  0.85016932550E+02  0.86835773202E+02  0.10566000000E+00 0.  1.
        -14    1    4    4    0    0  0.12341610909E+01  0.33005179100E+01  0.16633305464E+02  0.17002453433E+02  0.00000000000E+00 0.  1.
<mgrwt>
<rscale>  0 0.81034107E+02</rscale>
<asrwt>0</asrwt>
<pdfrwt beam="1">  1        1 0.20695210E-02 0.81034107E+02</pdfrwt>
<pdfrwt beam="2">  1       -2 0.18774966E-01 0.81034107E+02</pdfrwt>
<totfact> 0.97400144E+04</totfact>
</mgrwt>
</event>
<event>
 8    1  0.1241100E-020  0.8288586E+02  0.7818608E-02  0.1321056E+00
          1   -1    0    0  501    0  0.00000000000E+00  0.00000000000E+00  0.18792419802E+01  0.18792487386E+01  0.50400000000E-02 0. -1.
         -2   -1    0    0    0  501 -0.00000000000E+00 -0.00000000000E+00 -0.91393943857E+03  0.91393943857E+03  0.25500000000E-02 0.  1.
        -24    2    1    2    0    0 -0.17763568394E-14  0.35527136788E-14 -0.91206019659E+03  0.91581868731E+03  0.82885860234E+02 0.  0.
         66    2    3    3    0    0  0.15845152163E+02 -0.31229300519E+02 -0.70067195850E+03  0.70154937914E+03  0.19999712332E+01 0.  0.
         13    1    3    3    0    0 -0.15845152163E+02  0.31229300519E+02 -0.21138823809E+03  0.21426930817E+03  0.10566000000E+00 0. -1.
         13    1    4    4    0    0  0.42117112465E+01 -0.86215203090E+01 -0.18110880971E+03  0.18136284416E+03  0.10566000000E+00 0.  1.
        -13    1    4    4    0    0  0.26879438267E+01 -0.56714551383E+01 -0.13913433895E+03  0.13927586254E+03  0.10566000000E+00 0. -1.
        -14    1    4    4    0    0  0.89454970897E+01 -0.16936325072E+02 -0.38042880984E+03  0.38091067245E+03  0.00000000000E+00 0.  1.
<mgrwt>
<rscale>  0 0.82885860E+02</rscale>
<asrwt>0</asrwt>
<pdfrwt beam="1">  1        1 0.28911540E-03 0.82885860E+02</pdfrwt>
<pdfrwt beam="2">  1       -2 0.14060571E+00 0.82885860E+02</pdfrwt>
<totfact> 0.26346249E+04</totfact>
</mgrwt>
</event>
<event>
 8    1  0.1241100E-020  0.8069677E+02  0.7818608E-02  0.1327086E+00
         -2   -1    0    0    0  501 -0.00000000000E+00  0.00000000000E+00  0.65897855824E+01  0.65897860758E+01  0.25500000000E-02 0.  1.
          1   -1    0    0  501    0  0.00000000000E+00 -0.00000000000E+00 -0.24704783455E+03  0.24704783461E+03  0.50400000000E-02 0. -1.
        -24    2    1    2    0    0  0.00000000000E+00 -0.35527136788E-14 -0.24045804897E+03  0.25363762068E+03  0.80696773849E+02 0.  0.
         66    2    3    3    0    0  0.24276807823E+02  0.21938450414E+02 -0.46234361679E+02  0.56676937107E+02  0.19999988205E+01 0.  0.
         13    1    3    3    0    0 -0.24276807823E+02 -0.21938450414E+02 -0.19422368729E+03  0.19696068358E+03  0.10566000000E+00 0. -1.
         13    1    4    4    0    0  0.43461900933E+01  0.40522673669E+01 -0.95044585512E+01  0.11209644755E+02  0.10566000000E+00 0. -1.
        -13    1    4    4    0    0  0.11098442684E+02  0.10590680825E+02 -0.21323004468E+02  0.26268224796E+02  0.10566000000E+00 0.  1.
        -14    1    4    4    0    0  0.88321750450E+01  0.72955022225E+01 -0.15406898660E+02  0.19199067556E+02  0.00000000000E+00 0.  1.
<mgrwt>
<rscale>  0 0.80696774E+02</rscale>
<asrwt>0</asrwt>
<pdfrwt beam="1">  1        1 0.38007352E-01 0.80696774E+02</pdfrwt>
<pdfrwt beam="2">  1       -2 0.10138134E-02 0.80696774E+02</pdfrwt>
<totfact> 0.16980888E+05</totfact>
</mgrwt>
</event>
<event>
 8    1  0.1241100E-020  0.8081734E+02  0.7818608E-02  0.1326748E+00
          1   -1    0    0  501    0  0.00000000000E+00  0.00000000000E+00  0.16796983026E+02  0.16796983782E+02  0.50400000000E-02 0. -1.
         -2   -1    0    0    0  501 -0.00000000000E+00 -0.00000000000E+00 -0.97211542764E+02  0.97211542797E+02  0.25500000000E-02 0.  1.
        -24    2    1    2    0    0  0.00000000000E+00 -0.13877787808E-16 -0.80414559737E+02  0.11400852658E+03  0.80817341673E+02 0.  0.
         66    2    3    3    0    0 -0.33908415967E+02 -0.68935190291E-01 -0.92906432907E+01  0.35215074566E+02  0.19999996135E+01 0.  0.
         13    1    3    3    0    0  0.33908415967E+02  0.68935190291E-01 -0.71123916447E+02  0.78793452014E+02  0.10566000000E+00 0. -1.
         13    1    4    4    0    0 -0.12314471548E+01 -0.18338141648E+00 -0.13851030416E+00  0.12571555110E+01  0.10566000000E+00 0. -1.
        -13    1    4    4    0    0 -0.13796592115E+02 -0.15684571299E+00 -0.44680672252E+01  0.14503287329E+02  0.10566000000E+00 0.  1.
         14    1    4    4    0    0 -0.18880376697E+02  0.27129193918E+00 -0.46840657614E+01  0.19454631726E+02  0.00000000000E+00 0. -1.
<mgrwt>
<rscale>  0 0.80817342E+02</rscale>
<asrwt>0</asrwt>
<pdfrwt beam="1">  1        1 0.25841514E-02 0.80817342E+02</pdfrwt>
<pdfrwt beam="2">  1       -2 0.14955622E-01 0.80817342E+02</pdfrwt>
<totfact> 0.10412529E+05</totfact>
</mgrwt>
</event>
<event>
 8    1  0.1241100E-020  0.7895735E+02  0.7818608E-02  0.1332037E+00
         -2   -1    0    0    0  501 -0.00000000000E+00  0.00000000000E+00  0.29090260031E+02  0.29090260143E+02  0.25500000000E-02 0.  1.
          1   -1    0    0  501    0  0.00000000000E+00 -0.00000000000E+00 -0.53576889293E+02  0.53576889530E+02  0.50400000000E-02 0. -1.
        -24    2    1    2    0    0  0.00000000000E+00  0.00000000000E+00 -0.24486629262E+02  0.82667149673E+02  0.78957346855E+02 0.  0.
         66    2    3    3    0    0  0.35224590657E+02  0.32647336642E+01  0.60375664074E+01  0.35942766764E+02  0.20000004201E+01 0.  0.
         13    1    3    3    0    0 -0.35224590657E+02 -0.32647336642E+01 -0.30524195670E+02  0.46724382909E+02  0.10566000000E+00 0. -1.
         13    1    4    4    0    0  0.24293781157E+02  0.15104443312E+01  0.42745093305E+01  0.24713393919E+02  0.10566000000E+00 0. -1.
        -13    1    4    4    0    0  0.53363028381E+01  0.73888990632E+00  0.55701499178E+00  0.54169655722E+01  0.10566000000E+00 0.  1.
         14    1    4    4    0    0  0.55945066626E+01  0.10153994267E+01  0.12060420851E+01  0.58124072728E+01  0.00000000000E+00 0. -1.
<mgrwt>
<rscale>  0 0.78957347E+02</rscale>
<asrwt>0</asrwt>
<pdfrwt beam="1">  1        1 0.82425984E-02 0.78957347E+02</pdfrwt>
<pdfrwt beam="2">  1       -2 0.44754247E-02 0.78957347E+02</pdfrwt>
<totfact> 0.13792573E+05</totfact>
</mgrwt>
</event>
<event>
 8    1  0.1241100E-020  0.7909966E+02  0.7818608E-02  0.1331626E+00
         -2   -1    0    0    0  501 -0.00000000000E+00  0.00000000000E+00  0.13729813626E+02  0.13729813863E+02  0.25500000000E-02 0.  1.
          1   -1    0    0  501    0  0.00000000000E+00 -0.00000000000E+00 -0.11392645814E+03  0.11392645825E+03  0.50400000000E-02 0. -1.
        -24    2    1    2    0    0  0.00000000000E+00  0.00000000000E+00 -0.10019664451E+03  0.12765627211E+03  0.79099660165E+02 0.  0.
         66    2    3    3    0    0 -0.85401313398E+01 -0.35408765832E+02 -0.74895067100E+02  0.83306576233E+02  0.20000066542E+01 0.  0.
         13    1    3    3    0    0  0.85401313398E+01  0.35408765832E+02 -0.25301577411E+02  0.44349695879E+02  0.10566000000E+00 0. -1.
         13    1    4    4    0    0 -0.10450573879E+01 -0.35214518647E+01 -0.88800736798E+01  0.96103923319E+01  0.10566000000E+00 0. -1.
        -13    1    4    4    0    0 -0.72192861927E+01 -0.30969615532E+02 -0.64157824266E+02  0.71606373724E+02  0.10566000000E+00 0.  1.
        -14    1    4    4    0    0 -0.27578775928E+00 -0.91769843572E+00 -0.18571691550E+01  0.20898101773E+01  0.00000000000E+00 0.  1.
<mgrwt>
<rscale>  0 0.79099660E+02</rscale>
<asrwt>0</asrwt>
<pdfrwt beam="1">  1        1 0.17527147E-01 0.79099660E+02</pdfrwt>
<pdfrwt beam="2">  1       -2 0.21122791E-02 0.79099660E+02</pdfrwt>
<totfact> 0.15494437E+05</totfact>
</mgrwt>
</event>
<event>
 8    1  0.1241100E-020  0.7909574E+02  0.7818608E-02  0.1331637E+00
          1   -1    0    0  501    0  0.00000000000E+00  0.00000000000E+00  0.42418801046E+02  0.42418801345E+02  0.50400000000E-02 0. -1.
         -2   -1    0    0    0  501 -0.00000000000E+00 -0.00000000000E+00 -0.36871246758E+02  0.36871246846E+02  0.25500000000E-02 0.  1.
        -24    2    1    2    0    0  0.88817841970E-15 -0.35527136788E-14  0.55475542877E+01  0.79290048192E+02  0.79095741881E+02 0.  0.
         66    2    3    3    0    0  0.50927641883E+01 -0.21663211683E+02 -0.29966567614E+02  0.37379488592E+02  0.20000013243E+01 0.  0.
         13    1    3    3    0    0 -0.50927641883E+01  0.21663211683E+02  0.35514121902E+02  0.41910559600E+02  0.10566000000E+00 0. -1.
         13    1    4    4    0    0  0.17987141078E+01 -0.46768200662E+01 -0.62553575830E+01  0.80155274873E+01  0.10566000000E+00 0. -1.
        -13    1    4    4    0    0  0.16294333450E+01 -0.74804227822E+01 -0.99070935430E+01  0.12520920275E+02  0.10566000000E+00 0.  1.
         14    1    4    4    0    0  0.16646167356E+01 -0.95059688343E+01 -0.13804116488E+02  0.16843040829E+02  0.00000000000E+00 0. -1.
<mgrwt>
<rscale>  0 0.79095742E+02</rscale>
<asrwt>0</asrwt>
<pdfrwt beam="1">  1        1 0.65259694E-02 0.79095742E+02</pdfrwt>
<pdfrwt beam="2">  1       -2 0.56724996E-02 0.79095742E+02</pdfrwt>
<totfact> 0.13233605E+05</totfact>
</mgrwt>
</event>
<event>
 8    1  0.1241100E-020  0.8149064E+02  0.7818608E-02  0.1324874E+00
         -2   -1    0    0    0  501 -0.00000000000E+00  0.00000000000E+00  0.88491724005E+02  0.88491724042E+02  0.25500000000E-02 0.  1.
          1   -1    0    0  501    0  0.00000000000E+00 -0.00000000000E+00 -0.18760862477E+02  0.18760863154E+02  0.50400000000E-02 0. -1.
        -24    2    1    2    0    0 -0.35527136788E-14 -0.71054273576E-14  0.69730861529E+02  0.10725258720E+03  0.81490640019E+02 0.  0.
         66    2    3    3    0    0  0.20398556179E+02  0.31443070457E+02  0.55837650480E+02  0.67280093513E+02  0.19999995117E+01 0.  0.
         13    1    3    3    0    0 -0.20398556179E+02 -0.31443070457E+02  0.13893211049E+02  0.39972493683E+02  0.10566000000E+00 0. -1.
         13    1    4    4    0    0  0.68980892596E+01  0.11810257043E+02  0.20065201331E+02  0.24283518595E+02  0.10566000000E+00 0. -1.
        -13    1    4    4    0    0  0.37530485082E+01  0.49282454730E+01  0.85954658564E+01  0.10595573315E+02  0.10566000000E+00 0.  1.
        -14    1    4    4    0    0  0.97474184112E+01  0.14704567941E+02  0.27176983292E+02  0.32401001603E+02  0.00000000000E+00 0.  1.
<mgrwt>
<rscale>  0 0.81490640E+02</rscale>
<asrwt>0</asrwt>
<pdfrwt beam="1">  1        1 0.28862866E-02 0.81490640E+02</pdfrwt>
<pdfrwt beam="2">  1       -2 0.13614112E-01 0.81490640E+02</pdfrwt>
<totfact> 0.10424131E+05</totfact>
</mgrwt>
</event>
<event>
 8    1  0.1241100E-020  0.8047469E+02  0.7818608E-02  0.1327710E+00
         -2   -1    0    0    0  501 -0.00000000000E+00  0.00000000000E+00  0.85845782886E+01  0.85845786673E+01  0.25500000000E-02 0.  1.
          1   -1    0    0  501    0  0.00000000000E+00 -0.00000000000E+00 -0.18859910799E+03  0.18859910806E+03  0.50400000000E-02 0. -1.
        -24    2    1    2    0    0  0.00000000000E+00 -0.35527136788E-14 -0.18001452970E+03  0.19718368673E+03  0.80474687988E+02 0.  0.
         66    2    3    3    0    0 -0.35514467926E+02 -0.18335223929E+02 -0.79220208725E+02  0.88754151202E+02  0.20000041374E+01 0.  0.
         13    1    3    3    0    0  0.35514467926E+02  0.18335223929E+02 -0.10079432098E+03  0.10842953552E+03  0.10566000000E+00 0. -1.
         13    1    4    4    0    0 -0.56854695089E+01 -0.36160411731E+01 -0.13089134221E+02  0.14721987502E+02  0.10566000000E+00 0. -1.
        -13    1    4    4    0    0 -0.14821216122E+02 -0.72608783313E+01 -0.31707726444E+02  0.35746047079E+02  0.10566000000E+00 0.  1.
        -14    1    4    4    0    0 -0.15007782295E+02 -0.74583044244E+01 -0.34423348060E+02  0.38286116621E+02  0.00000000000E+00 0.  1.
<mgrwt>
<rscale>  0 0.80474688E+02</rscale>
<asrwt>0</asrwt>
<pdfrwt beam="1">  1        1 0.29015244E-01 0.80474688E+02</pdfrwt>
<pdfrwt beam="2">  1       -2 0.13207045E-02 0.80474688E+02</pdfrwt>
<totfact> 0.16228331E+05</totfact>
</mgrwt>
</event>
<event>
 8    1  0.1241100E-020  0.8089101E+02  0.7818608E-02  0.1326542E+00
         -2   -1    0    0    0  501 -0.00000000000E+00  0.00000000000E+00  0.10505403290E+03  0.10505403293E+03  0.25500000000E-02 0.  1.
          1   -1    0    0  501    0  0.00000000000E+00 -0.00000000000E+00 -0.15571405927E+02  0.15571406743E+02  0.50400000000E-02 0. -1.
        -24    2    1    2    0    0  0.00000000000E+00  0.17763568394E-14  0.89482626969E+02  0.12062543967E+03  0.80891014126E+02 0.  0.
         66    2    3    3    0    0  0.43716320996E+01 -0.15050180602E+02  0.10032919589E+03  0.10156557805E+03  0.19999982538E+01 0.  0.
         13    1    3    3    0    0 -0.43716320996E+01  0.15050180602E+02 -0.10846568926E+02  0.19059861617E+02  0.10566000000E+00 0. -1.
         13    1    4    4    0    0  0.18024217470E+01 -0.60336527566E+01  0.36239243840E+02  0.36782436677E+02  0.10566000000E+00 0. -1.
        -13    1    4    4    0    0  0.16797825838E+01 -0.74779476427E+01  0.53120311003E+02  0.53670475827E+02  0.10566000000E+00 0.  1.
         14    1    4    4    0    0  0.88942776880E+00 -0.15385802024E+01  0.10969641052E+02  0.11112665549E+02  0.00000000000E+00 0. -1.
<mgrwt>
<rscale>  0 0.80891014E+02</rscale>
<asrwt>0</asrwt>
<pdfrwt beam="1">  1        1 0.23956009E-02 0.80891014E+02</pdfrwt>
<pdfrwt beam="2">  1       -2 0.16162159E-01 0.80891014E+02</pdfrwt>
<totfact> 0.10188300E+05</totfact>
</mgrwt>
</event>
<event>
 8    1  0.1241100E-020  0.7998154E+02  0.7818608E-02  0.1329104E+00
         -2   -1    0    0    0  501 -0.00000000000E+00  0.00000000000E+00  0.17236641887E+02  0.17236642076E+02  0.25500000000E-02 0.  1.
          1   -1    0    0  501    0  0.00000000000E+00 -0.00000000000E+00 -0.92782666523E+02  0.92782666660E+02  0.50400000000E-02 0. -1.
        -24    2    1    2    0    0 -0.71054273576E-14  0.00000000000E+00 -0.75546024636E+02  0.11001930874E+03  0.79981538223E+02 0.  0.
         66    2    3    3    0    0  0.39160449835E+02 -0.45545300623E+01 -0.28779352394E+02  0.48852182174E+02  0.20000008890E+01 0.  0.
         13    1    3    3    0    0 -0.39160449835E+02  0.45545300623E+01 -0.46766672242E+02  0.61167126563E+02  0.10566000000E+00 0. -1.
         13    1    4    4    0    0  0.92894127183E+01 -0.61255059649E+00 -0.60464504079E+01  0.11101312240E+02  0.10566000000E+00 0. -1.
        -13    1    4    4    0    0  0.12423132687E+02 -0.14078311011E+01 -0.91055720019E+01  0.15467346886E+02  0.10566000000E+00 0.  1.
         14    1    4    4    0    0  0.17447904429E+02 -0.25341483647E+01 -0.13627329984E+02  0.22283523048E+02  0.00000000000E+00 0. -1.
<mgrwt>
<rscale>  0 0.79981538E+02</rscale>
<asrwt>0</asrwt>
<pdfrwt beam="1">  1        1 0.14274256E-01 0.79981538E+02</pdfrwt>
<pdfrwt beam="2">  1       -2 0.26517911E-02 0.79981538E+02</pdfrwt>
<totfact> 0.14525599E+05</totfact>
</mgrwt>
</event>
<event>
 8    1  0.1241100E-020  0.8142341E+02  0.7818608E-02  0.1325060E+00
          1   -1    0    0  501    0  0.00000000000E+00  0.00000000000E+00  0.24772342730E+02  0.24772343243E+02  0.50400000000E-02 0. -1.
         -2   -1    0    0    0  501 -0.00000000000E+00 -0.00000000000E+00 -0.66906987911E+02  0.66906987959E+02  0.25500000000E-02 0.  1.
        -24    2    1    2    0    0  0.00000000000E+00  0.35527136788E-14 -0.42134645181E+02  0.91679331202E+02  0.81423408459E+02 0.  0.
         66    2    3    3    0    0  0.21339354554E+02  0.28909170877E+02 -0.42571631399E+02  0.55744524474E+02  0.19999988056E+01 0.  0.
         13    1    3    3    0    0 -0.21339354554E+02 -0.28909170877E+02  0.43698621865E+00  0.35934806728E+02  0.10566000000E+00 0. -1.
         13    1    4    4    0    0  0.75353520031E+01  0.99094621787E+01 -0.15585575174E+02  0.19947438132E+02  0.10566000000E+00 0. -1.
        -13    1    4    4    0    0  0.43135046848E+01  0.62710628180E+01 -0.96108151180E+01  0.12260158351E+02  0.10566000000E+00 0.  1.
         14    1    4    4    0    0  0.94904978664E+01  0.12728645880E+02 -0.17375241107E+02  0.23536927990E+02  0.00000000000E+00 0. -1.
<mgrwt>
<rscale>  0 0.81423408E+02</rscale>
<asrwt>0</asrwt>
<pdfrwt beam="1">  1        1 0.38111297E-02 0.81423408E+02</pdfrwt>
<pdfrwt beam="2">  1       -2 0.10293383E-01 0.81423408E+02</pdfrwt>
<totfact> 0.11087274E+05</totfact>
</mgrwt>
</event>
<event>
 8    1  0.1241100E-020  0.8064526E+02  0.7818608E-02  0.1327230E+00
         -2   -1    0    0    0  501 -0.00000000000E+00  0.00000000000E+00  0.55699199007E+01  0.55699204844E+01  0.25500000000E-02 0.  1.
          1   -1    0    0  501    0  0.00000000000E+00 -0.00000000000E+00 -0.29190981960E+03  0.29190981965E+03  0.50400000000E-02 0. -1.
        -24    2    1    2    0    0 -0.17763568394E-14  0.35527136788E-14 -0.28633989970E+03  0.29747974013E+03  0.80645257931E+02 0.  0.
         66    2    3    3    0    0  0.12697643991E+02 -0.31197124933E+02 -0.22486314432E+03  0.22738057192E+03  0.20000119127E+01 0.  0.
         13    1    3    3    0    0 -0.12697643991E+02  0.31197124933E+02 -0.61476755380E+02  0.70099168205E+02  0.10566000000E+00 0. -1.
         13    1    4    4    0    0  0.21838999517E+01 -0.48190412521E+01 -0.35604077525E+02  0.35995195208E+02  0.10566000000E+00 0. -1.
        -13    1    4    4    0    0  0.15568371709E+01 -0.36909292553E+01 -0.22956716079E+02  0.23303833975E+02  0.10566000000E+00 0.  1.
        -14    1    4    4    0    0  0.89569068689E+01 -0.22687154425E+02 -0.16630235072E+03  0.16808154274E+03  0.00000000000E+00 0.  1.
<mgrwt>
<rscale>  0 0.80645258E+02</rscale>
<asrwt>0</asrwt>
<pdfrwt beam="1">  1        1 0.44909191E-01 0.80645258E+02</pdfrwt>
<pdfrwt beam="2">  1       -2 0.85691103E-03 0.80645258E+02</pdfrwt>
<totfact> 0.17571186E+05</totfact>
</mgrwt>
</event>
<event>
 8    1  0.1241100E-020  0.7899965E+02  0.7818608E-02  0.1331914E+00
          1   -1    0    0  501    0  0.00000000000E+00  0.00000000000E+00  0.51246143408E+02  0.51246143656E+02  0.50400000000E-02 0. -1.
         -2   -1    0    0    0  501 -0.00000000000E+00 -0.00000000000E+00 -0.30445923322E+02  0.30445923429E+02  0.25500000000E-02 0.  1.
        -24    2    1    2    0    0  0.88817841970E-15 -0.35527136788E-14  0.20800220086E+02  0.81692067085E+02  0.78999649803E+02 0.  0.
         66    2    3    3    0    0 -0.66667208605E+01  0.18783685451E+02 -0.24827344346E+02  0.31900925240E+02  0.19999994291E+01 0.  0.
         13    1    3    3    0    0  0.66667208605E+01 -0.18783685451E+02  0.45627564433E+02  0.49791141845E+02  0.10566000000E+00 0. -1.
         13    1    4    4    0    0 -0.30053090047E-01  0.51151234107E+00 -0.69215921012E+00  0.86763844489E+00  0.10566000000E+00 0.  1.
        -13    1    4    4    0    0 -0.15483941910E+01  0.32534966850E+01 -0.36776454108E+01  0.51496606736E+01  0.10566000000E+00 0.  1.
         14    1    4    4    0    0 -0.50882735794E+01  0.15018676425E+02 -0.20457539725E+02  0.25883626121E+02  0.00000000000E+00 0. -1.
<mgrwt>
<rscale>  0 0.78999650E+02</rscale>
<asrwt>0</asrwt>
<pdfrwt beam="1">  1        1 0.78840221E-02 0.78999650E+02</pdfrwt>
<pdfrwt beam="2">  1       -2 0.46839882E-02 0.78999650E+02</pdfrwt>
<totfact> 0.13677478E+05</totfact>
</mgrwt>
</event>
<event>
 8    1  0.1241100E-020  0.7925255E+02  0.7818608E-02  0.1331186E+00
          1   -1    0    0  501    0  0.00000000000E+00  0.00000000000E+00  0.24755425976E+01  0.24755477281E+01  0.50400000000E-02 0. -1.
         -2   -1    0    0    0  501 -0.00000000000E+00 -0.00000000000E+00 -0.63430139954E+03  0.63430139954E+03  0.25500000000E-02 0.  1.
        -24    2    1    2    0    0  0.00000000000E+00  0.00000000000E+00 -0.63182585694E+03  0.63677694727E+03  0.79252552498E+02 0.  0.
         66    2    3    3    0    0  0.30503987585E+01 -0.27715395145E+02 -0.54205937791E+03  0.54277971336E+03  0.19999997585E+01 0.  0.
         13    1    3    3    0    0 -0.30503987585E+01  0.27715395145E+02 -0.89766479031E+02  0.93997233908E+02  0.10566000000E+00 0. -1.
         13    1    4    4    0    0  0.47018491246E-01 -0.27068788338E+00 -0.85520203943E+01  0.85570847565E+01  0.10566000000E+00 0.  1.
        -13    1    4    4    0    0  0.29213088575E+01 -0.24047676288E+02 -0.47301511146E+03  0.47363501941E+03  0.10566000000E+00 0.  1.
        -14    1    4    4    0    0  0.82071409764E-01 -0.33970309732E+01 -0.60492246052E+02  0.60587609192E+02  0.00000000000E+00 0.  1.
<mgrwt>
<rscale>  0 0.79252552E+02</rscale>
<asrwt>0</asrwt>
<pdfrwt beam="1">  1        1 0.38085361E-03 0.79252552E+02</pdfrwt>
<pdfrwt beam="2">  1       -2 0.97584701E-01 0.79252552E+02</pdfrwt>
<totfact> 0.42430405E+04</totfact>
</mgrwt>
</event>
<event>
 8    1  0.1241100E-020  0.8106852E+02  0.7818608E-02  0.1326046E+00
          1   -1    0    0  501    0  0.00000000000E+00  0.00000000000E+00  0.10915574886E+03  0.10915574898E+03  0.50400000000E-02 0. -1.
         -2   -1    0    0    0  501 -0.00000000000E+00 -0.00000000000E+00 -0.15052126556E+02  0.15052126772E+02  0.25500000000E-02 0.  1.
        -24    2    1    2    0    0 -0.71054273576E-14  0.88817841970E-15  0.94103622305E+02  0.12420787575E+03  0.81068518348E+02 0.  0.
         66    2    3    3    0    0 -0.37480443885E+02  0.62718228928E+01  0.25581200969E+02  0.45853215224E+02  0.20000167974E+01 0.  0.
         13    1    3    3    0    0  0.37480443885E+02 -0.62718228928E+01  0.68522421336E+02  0.78354660525E+02  0.10566000000E+00 0. -1.
         13    1    4    4    0    0 -0.22274002431E+02  0.31907274529E+01  0.15852096264E+02  0.27524753332E+02  0.10566000000E+00 0. -1.
        -13    1    4    4    0    0 -0.69851183392E+01  0.11495570576E+01  0.41433070786E+01  0.82031406927E+01  0.10566000000E+00 0.  1.
         14    1    4    4    0    0 -0.82213231142E+01  0.19315383823E+01  0.55857976265E+01  0.10125321200E+02  0.00000000000E+00 0. -1.
<mgrwt>
<rscale>  0 0.81068518E+02</rscale>
<asrwt>0</asrwt>
<pdfrwt beam="1">  1        1 0.16793191E-01 0.81068518E+02</pdfrwt>
<pdfrwt beam="2">  1       -2 0.23157119E-02 0.81068518E+02</pdfrwt>
<totfact> 0.14394869E+05</totfact>
</mgrwt>
</event>
<event>
 8    1  0.1241100E-020  0.7952972E+02  0.7818608E-02  0.1330391E+00
         -2   -1    0    0    0  501 -0.00000000000E+00  0.00000000000E+00  0.98823073236E+02  0.98823073269E+02  0.25500000000E-02 0.  1.
          1   -1    0    0  501    0  0.00000000000E+00 -0.00000000000E+00 -0.16000756119E+02  0.16000756913E+02  0.50400000000E-02 0. -1.
        -24    2    1    2    0    0  0.00000000000E+00  0.00000000000E+00  0.82822317117E+02  0.11482383018E+03  0.79529716238E+02 0.  0.
         66    2    3    3    0    0 -0.19064252791E+02 -0.55029317982E+01  0.91148605240E+02  0.93304856442E+02  0.20000013692E+01 0.  0.
         13    1    3    3    0    0  0.19064252791E+02  0.55029317982E+01 -0.83262881234E+01  0.21518973740E+02  0.10566000000E+00 0. -1.
         13    1    4    4    0    0 -0.67524615546E+01 -0.20408877461E+01  0.30192695758E+02  0.31005983310E+02  0.10566000000E+00 0. -1.
        -13    1    4    4    0    0 -0.10525884377E+02 -0.26398729161E+01  0.53380621297E+02  0.54472608392E+02  0.10566000000E+00 0.  1.
        -14    1    4    4    0    0 -0.17859068595E+01 -0.82217113601E+00  0.75752881847E+01  0.78262647392E+01  0.00000000000E+00 0.  1.
<mgrwt>
<rscale>  0 0.79529716E+02</rscale>
<asrwt>0</asrwt>
<pdfrwt beam="1">  1        1 0.24616549E-02 0.79529716E+02</pdfrwt>
<pdfrwt beam="2">  1       -2 0.15203549E-01 0.79529716E+02</pdfrwt>
<totfact> 0.10805694E+05</totfact>
</mgrwt>
</event>
<event>
 8    1  0.1241100E-020  0.8084790E+02  0.7818608E-02  0.1326662E+00
          1   -1    0    0  501    0  0.00000000000E+00  0.00000000000E+00  0.15247784274E+03  0.15247784283E+03  0.50400000000E-02 0. -1.
         -2   -1    0    0    0  501 -0.00000000000E+00 -0.00000000000E+00 -0.10716939636E+02  0.10716939939E+02  0.25500000000E-02 0.  1.
        -24    2    1    2    0    0  0.00000000000E+00  0.35527136788E-14  0.14176090311E+03  0.16319478276E+03  0.80847903325E+02 0.  0.
         66    2    3    3    0    0  0.27787806960E+02 -0.29235846998E+02  0.75524004713E+02  0.85643284789E+02  0.19999940824E+01 0.  0.
         13    1    3    3    0    0 -0.27787806960E+02  0.29235846998E+02  0.66236898394E+02  0.77551497976E+02  0.10566000000E+00 0. -1.
         13    1    4    4    0    0  0.13313179705E+02 -0.14405026931E+02  0.38643112416E+02  0.43336437971E+02  0.10566000000E+00 0. -1.
        -13    1    4    4    0    0  0.67773464065E+01 -0.70776974872E+01  0.17824172508E+02  0.20340563307E+02  0.10566000000E+00 0.  1.
         14    1    4    4    0    0  0.76972808482E+01 -0.77531225795E+01  0.19056719788E+02  0.21966283511E+02  0.00000000000E+00 0. -1.
<mgrwt>
<rscale>  0 0.80847903E+02</rscale>
<asrwt>0</asrwt>
<pdfrwt beam="1">  1        1 0.23458128E-01 0.80847903E+02</pdfrwt>
<pdfrwt beam="2">  1       -2 0.16487601E-02 0.80847903E+02</pdfrwt>
<totfact> 0.15396317E+05</totfact>
</mgrwt>
</event>
<event>
 8    1  0.1241100E-020  0.7597427E+02  0.7818608E-02  0.1340880E+00
         -2   -1    0    0    0  501 -0.00000000000E+00  0.00000000000E+00  0.90275951877E+01  0.90275955478E+01  0.25500000000E-02 0.  1.
          1   -1    0    0  501    0  0.00000000000E+00 -0.00000000000E+00 -0.15984571392E+03  0.15984571400E+03  0.50400000000E-02 0. -1.
        -24    2    1    2    0    0  0.00000000000E+00  0.00000000000E+00 -0.15081811873E+03  0.16887330955E+03  0.75974270246E+02 0.  0.
         66    2    3    3    0    0  0.37655545757E+02  0.13639498135E+00 -0.64787521654E+02  0.74962535258E+02  0.20000000926E+01 0.  0.
         13    1    3    3    0    0 -0.37655545757E+02 -0.13639498135E+00 -0.86030597077E+02  0.93910774287E+02  0.10566000000E+00 0. -1.
         13    1    4    4    0    0  0.18420551631E+02 -0.13627821266E+00 -0.33015047844E+02  0.37806611093E+02  0.10566000000E+00 0. -1.
        -13    1    4    4    0    0  0.84174415008E+01 -0.66177218085E-01 -0.14786670489E+02  0.17015125301E+02  0.10566000000E+00 0.  1.
        -14    1    4    4    0    0  0.10817552625E+02  0.33885041210E+00 -0.16985803321E+02  0.20140798864E+02  0.00000000000E+00 0.  1.
<mgrwt>
<rscale>  0 0.75974270E+02</rscale>
<asrwt>0</asrwt>
<pdfrwt beam="1">  1        1 0.24591646E-01 0.75974270E+02</pdfrwt>
<pdfrwt beam="2">  1       -2 0.13888610E-02 0.75974270E+02</pdfrwt>
<totfact> 0.18327962E+05</totfact>
</mgrwt>
</event>
<event>
 8    1  0.1241100E-020  0.7985384E+02  0.7818608E-02  0.1329467E+00
          1   -1    0    0  501    0  0.00000000000E+00  0.00000000000E+00  0.15749634019E+02  0.15749634825E+02  0.50400000000E-02 0. -1.
         -2   -1    0    0    0  501 -0.00000000000E+00 -0.00000000000E+00 -0.10121879055E+03  0.10121879059E+03  0.25500000000E-02 0.  1.
        -24    2    1    2    0    0  0.00000000000E+00 -0.71054273576E-14 -0.85469156536E+02  0.11696842541E+03  0.79853840385E+02 0.  0.
         66    2    3    3    0    0 -0.11764888228E+02 -0.33714774042E+02 -0.68843282396E+02  0.77578966940E+02  0.19999991635E+01 0.  0.
         13    1    3    3    0    0  0.11764888228E+02  0.33714774042E+02 -0.16625874140E+02  0.39389458472E+02  0.10566000000E+00 0. -1.
         13    1    4    4    0    0 -0.88665770049E-01 -0.64218530961E+00 -0.14869489196E+01  0.16255598161E+01  0.10566000000E+00 0.  1.
        -13    1    4    4    0    0 -0.71709411281E+01 -0.20713715298E+02 -0.40669161752E+02  0.46200349347E+02  0.10566000000E+00 0.  1.
        -14    1    4    4    0    0 -0.45052813297E+01 -0.12358873435E+02 -0.26687171724E+02  0.29753057777E+02  0.00000000000E+00 0.  1.
<mgrwt>
<rscale>  0 0.79853840E+02</rscale>
<asrwt>0</asrwt>
<pdfrwt beam="1">  1        1 0.24230208E-02 0.79853840E+02</pdfrwt>
<pdfrwt beam="2">  1       -2 0.15572121E-01 0.79853840E+02</pdfrwt>
<totfact> 0.10630427E+05</totfact>
</mgrwt>
</event>
<event>
 8    1  0.1241100E-020  0.7519636E+02  0.7818608E-02  0.1343264E+00
         -2   -1    0    0    0  501 -0.00000000000E+00  0.00000000000E+00  0.18980327193E+03  0.18980327195E+03  0.25500000000E-02 0.  1.
          1   -1    0    0  501    0  0.00000000000E+00 -0.00000000000E+00 -0.74478327124E+01  0.74478344177E+01  0.50400000000E-02 0. -1.
        -24    2    1    2    0    0  0.71054273576E-14  0.00000000000E+00  0.18235543922E+03  0.19725110636E+03  0.75196361281E+02 0.  0.
         66    2    3    3    0    0  0.35686463833E+02 -0.87254978073E+01  0.11189010377E+03  0.11778392649E+03  0.20000014149E+01 0.  0.
         13    1    3    3    0    0 -0.35686463833E+02  0.87254978073E+01  0.70465335446E+02  0.79467179870E+02  0.10566000000E+00 0. -1.
         13    1    4    4    0    0  0.11286784992E+02 -0.30930633102E+01  0.38016490967E+02  0.39777170658E+02  0.10566000000E+00 0. -1.
        -13    1    4    4    0    0  0.17756263616E+02 -0.42194251217E+01  0.54885092802E+02  0.57840064159E+02  0.10566000000E+00 0.  1.
         14    1    4    4    0    0  0.66434152251E+01 -0.14130093754E+01  0.18988520001E+02  0.20166691677E+02  0.00000000000E+00 0. -1.
<mgrwt>
<rscale>  0 0.75196361E+02</rscale>
<asrwt>0</asrwt>
<pdfrwt beam="1">  1        1 0.11458205E-02 0.75196361E+02</pdfrwt>
<pdfrwt beam="2">  1       -2 0.29200505E-01 0.75196361E+02</pdfrwt>
<totfact> 0.10187330E+05</totfact>
</mgrwt>
</event>
<event>
 8    1  0.1241100E-020  0.7884566E+02  0.7818608E-02  0.1332360E+00
          1   -1    0    0  501    0  0.00000000000E+00  0.00000000000E+00  0.10819634883E+02  0.10819636057E+02  0.50400000000E-02 0. -1.
         -2   -1    0    0    0  501 -0.00000000000E+00 -0.00000000000E+00 -0.14364248688E+03  0.14364248690E+03  0.25500000000E-02 0.  1.
        -24    2    1    2    0    0 -0.35527136788E-14  0.00000000000E+00 -0.13282285199E+03  0.15446212295E+03  0.78845655659E+02 0.  0.
         66    2    3    3    0    0 -0.28263133189E+02 -0.17928758734E+02 -0.10716773304E+03  0.11229055220E+03  0.20000052464E+01 0.  0.
         13    1    3    3    0    0  0.28263133189E+02  0.17928758734E+02 -0.25655118949E+02  0.42171570752E+02  0.10566000000E+00 0. -1.
         13    1    4    4    0    0 -0.12229847150E+02 -0.88428456509E+01 -0.47879161462E+02  0.50201497456E+02  0.10566000000E+00 0. -1.
        -13    1    4    4    0    0 -0.12839209236E+02 -0.75121399029E+01 -0.47975350902E+02  0.50228706911E+02  0.10566000000E+00 0.  1.
         14    1    4    4    0    0 -0.31940768024E+01 -0.15737731801E+01 -0.11313220679E+02  0.11860347835E+02  0.00000000000E+00 0. -1.
<mgrwt>
<rscale>  0 0.78845656E+02</rscale>
<asrwt>0</asrwt>
<pdfrwt beam="1">  1        1 0.16645594E-02 0.78845656E+02</pdfrwt>
<pdfrwt beam="2">  1       -2 0.22098843E-01 0.78845656E+02</pdfrwt>
<totfact> 0.99493999E+04</totfact>
</mgrwt>
</event>
<event>
 8    1  0.1241100E-020  0.7772252E+02  0.7818608E-02  0.1335642E+00
          1   -1    0    0  501    0  0.00000000000E+00  0.00000000000E+00  0.48510980768E+02  0.48510981030E+02  0.50400000000E-02 0. -1.
         -2   -1    0    0    0  501 -0.00000000000E+00 -0.00000000000E+00 -0.31131041581E+02  0.31131041685E+02  0.25500000000E-02 0.  1.
        -24    2    1    2    0    0  0.00000000000E+00 -0.71054273576E-14  0.17379939187E+02  0.79642022715E+02  0.77722516017E+02 0.  0.
         66    2    3    3    0    0 -0.12732440472E+02 -0.34102586895E+02 -0.51695805393E+01  0.36821543068E+02  0.19999994147E+01 0.  0.
         13    1    3    3    0    0  0.12732440472E+02  0.34102586895E+02  0.22549519726E+02  0.42820479647E+02  0.10566000000E+00 0. -1.
         13    1    4    4    0    0 -0.44231234458E+01 -0.97437471227E+01 -0.18443217170E+01  0.10858973968E+02  0.10566000000E+00 0. -1.
        -13    1    4    4    0    0 -0.40686806726E+01 -0.12283150817E+02 -0.20369794017E+01  0.13099252098E+02  0.10566000000E+00 0.  1.
         14    1    4    4    0    0 -0.42406363536E+01 -0.12075688955E+02 -0.12882794206E+01  0.12863317002E+02  0.00000000000E+00 0. -1.
<mgrwt>
<rscale>  0 0.77722516E+02</rscale>
<asrwt>0</asrwt>
<pdfrwt beam="1">  1        1 0.74632278E-02 0.77722516E+02</pdfrwt>
<pdfrwt beam="2">  1       -2 0.47893911E-02 0.77722516E+02</pdfrwt>
<totfact> 0.14189025E+05</totfact>
</mgrwt>
</event>
<event>
 8    1  0.1241100E-020  0.7988863E+02  0.7818608E-02  0.1329368E+00
         -2   -1    0    0    0  501 -0.00000000000E+00  0.00000000000E+00  0.22419180721E+03  0.22419180723E+03  0.25500000000E-02 0.  1.
          1   -1    0    0  501    0  0.00000000000E+00 -0.00000000000E+00 -0.71168878233E+01  0.71168896079E+01  0.50400000000E-02 0. -1.
        -24    2    1    2    0    0 -0.71054273576E-14  0.35527136788E-14  0.21707491939E+03  0.23130869684E+03  0.79888626247E+02 0.  0.
         66    2    3    3    0    0 -0.30788277446E+02  0.25386962060E+02  0.10553110508E+03  0.11284161471E+03  0.20000005111E+01 0.  0.
         13    1    3    3    0    0  0.30788277446E+02 -0.25386962060E+02  0.11154381431E+03  0.11846708212E+03  0.10566000000E+00 0. -1.
         13    1    4    4    0    0 -0.87826455120E+01  0.77890295675E+01  0.31529401382E+02  0.33643991430E+02  0.10566000000E+00 0. -1.
        -13    1    4    4    0    0 -0.16099774243E+02  0.13425574631E+02  0.56278583161E+02  0.60056131006E+02  0.10566000000E+00 0.  1.
        -14    1    4    4    0    0 -0.59058576908E+01  0.41723578606E+01  0.17723120534E+02  0.19141492278E+02  0.00000000000E+00 0.  1.
<mgrwt>
<rscale>  0 0.79888626E+02</rscale>
<asrwt>0</asrwt>
<pdfrwt beam="1">  1        1 0.10949058E-02 0.79888626E+02</pdfrwt>
<pdfrwt beam="2">  1       -2 0.34491053E-01 0.79888626E+02</pdfrwt>
<totfact> 0.81357353E+04</totfact>
</mgrwt>
</event>
<event>
 8    1  0.1241100E-020  0.7684767E+02  0.7818608E-02  0.1338243E+00
          1   -1    0    0  501    0  0.00000000000E+00  0.00000000000E+00  0.96150502198E+02  0.96150502330E+02  0.50400000000E-02 0. -1.
         -2   -1    0    0    0  501 -0.00000000000E+00 -0.00000000000E+00 -0.15355000676E+02  0.15355000888E+02  0.25500000000E-02 0.  1.
        -24    2    1    2    0    0  0.00000000000E+00  0.00000000000E+00  0.80795501522E+02  0.11150550322E+03  0.76847668681E+02 0.  0.
         66    2    3    3    0    0  0.41009826329E+01  0.34871385029E+02  0.17873650310E+02  0.39449954671E+02  0.19999989386E+01 0.  0.
         13    1    3    3    0    0 -0.41009826329E+01 -0.34871385029E+02  0.62921851212E+02  0.72055548547E+02  0.10566000000E+00 0. -1.
         13    1    4    4    0    0  0.16847672130E+00  0.38544825642E+01  0.14459887231E+01  0.41215855768E+01  0.10566000000E+00 0. -1.
        -13    1    4    4    0    0  0.36175934431E+01  0.29825488273E+02  0.15777673511E+02  0.33935127501E+02  0.10566000000E+00 0.  1.
        -14    1    4    4    0    0  0.31491246855E+00  0.11914141916E+01  0.64998807568E+00  0.13932415933E+01  0.00000000000E+00 0.  1.
<mgrwt>
<rscale>  0 0.76847669E+02</rscale>
<asrwt>0</asrwt>
<pdfrwt beam="1">  1        1 0.14792385E-01 0.76847669E+02</pdfrwt>
<pdfrwt beam="2">  1       -2 0.23623078E-02 0.76847669E+02</pdfrwt>
<totfact> 0.16276283E+05</totfact>
</mgrwt>
</event>
<event>
 8    1  0.1241100E-020  0.8249340E+02  0.7818608E-02  0.1322121E+00
         -2   -1    0    0    0  501 -0.00000000000E+00  0.00000000000E+00  0.50440804422E+02  0.50440804486E+02  0.25500000000E-02 0.  1.
          1   -1    0    0  501    0  0.00000000000E+00 -0.00000000000E+00 -0.33728448180E+02  0.33728448556E+02  0.50400000000E-02 0. -1.
        -24    2    1    2    0    0 -0.35527136788E-14  0.35527136788E-14  0.16712356242E+02  0.84169253043E+02  0.82493395533E+02 0.  0.
         66    2    3    3    0    0 -0.28104819955E+02  0.23625935321E+02 -0.10760493363E+02  0.38312581184E+02  0.19999837679E+01 0.  0.
         13    1    3    3    0    0  0.28104819955E+02 -0.23625935321E+02  0.27472849604E+02  0.45856671858E+02  0.10566000000E+00 0. -1.
         13    1    4    4    0    0 -0.67500841483E+01  0.63671518047E+01 -0.20487955690E+01  0.95033144446E+01  0.10566000000E+00 0. -1.
        -13    1    4    4    0    0 -0.61944532517E+01  0.49712007246E+01 -0.23377957992E+01  0.82801292844E+01  0.10566000000E+00 0.  1.
         14    1    4    4    0    0 -0.15160282555E+02  0.12287582792E+02 -0.63739019944E+01  0.20529137455E+02  0.00000000000E+00 0. -1.
<mgrwt>
<rscale>  0 0.82493396E+02</rscale>
<asrwt>0</asrwt>
<pdfrwt beam="1">  1        1 0.51889921E-02 0.82493396E+02</pdfrwt>
<pdfrwt beam="2">  1       -2 0.77601238E-02 0.82493396E+02</pdfrwt>
<totfact> 0.11306222E+05</totfact>
</mgrwt>
</event>
<event>
 8    1  0.1241100E-020  0.8106926E+02  0.7818608E-02  0.1326044E+00
          1   -1    0    0  501    0  0.00000000000E+00  0.00000000000E+00  0.35850053622E+01  0.35850089050E+01  0.50400000000E-02 0. -1.
         -2   -1    0    0    0  501 -0.00000000000E+00 -0.00000000000E+00 -0.45831318302E+03  0.45831318303E+03  0.25500000000E-02 0.  1.
        -24    2    1    2    0    0  0.00000000000E+00  0.00000000000E+00 -0.45472817766E+03  0.46189819193E+03  0.81069255296E+02 0.  0.
         66    2    3    3    0    0 -0.63198776302E+01 -0.14034177081E+02 -0.44100172425E+03  0.44127476673E+03  0.19999971422E+01 0.  0.
         13    1    3    3    0    0  0.63198776302E+01  0.14034177081E+02 -0.13726453412E+02  0.20623425199E+02  0.10566000000E+00 0. -1.
         13    1    4    4    0    0 -0.25105569462E+00 -0.96830372613E+00 -0.42680518229E+02  0.42692369826E+02  0.10566000000E+00 0. -1.
        -13    1    4    4    0    0 -0.11623585044E+01 -0.21251509303E+01 -0.73327098038E+02  0.73367171231E+02  0.10566000000E+00 0.  1.
         14    1    4    4    0    0 -0.49064634311E+01 -0.10940722425E+02 -0.32499410798E+03  0.32521522568E+03  0.00000000000E+00 0. -1.
<mgrwt>
<rscale>  0 0.81069255E+02</rscale>
<asrwt>0</asrwt>
<pdfrwt beam="1">  1        1 0.55153992E-03 0.81069255E+02</pdfrwt>
<pdfrwt beam="2">  1       -2 0.70509674E-01 0.81069255E+02</pdfrwt>
<totfact> 0.51955292E+04</totfact>
</mgrwt>
</event>
<event>
 8    1  0.1241100E-020  0.8021616E+02  0.7818608E-02  0.1328439E+00
          1   -1    0    0  501    0  0.00000000000E+00  0.00000000000E+00  0.20114413451E+02  0.20114414083E+02  0.50400000000E-02 0. -1.
         -2   -1    0    0    0  501 -0.00000000000E+00 -0.00000000000E+00 -0.79975397319E+02  0.79975397360E+02  0.25500000000E-02 0.  1.
        -24    2    1    2    0    0  0.35527136788E-14 -0.35527136788E-14 -0.59860983868E+02  0.10008981144E+03  0.80216163988E+02 0.  0.
         66    2    3    3    0    0  0.19551432078E+02 -0.25300604575E+02 -0.60109392726E+02  0.68114008730E+02  0.20000007843E+01 0.  0.
         13    1    3    3    0    0 -0.19551432078E+02  0.25300604575E+02  0.24840885809E+00  0.31975802713E+02  0.10566000000E+00 0. -1.
         13    1    4    4    0    0  0.18555599126E+01 -0.27336110415E+01 -0.64835117522E+01  0.72775559491E+01  0.10566000000E+00 0. -1.
        -13    1    4    4    0    0  0.29368848611E+01 -0.33660857287E+01 -0.96082929415E+01  0.10596522217E+02  0.10566000000E+00 0.  1.
        -14    1    4    4    0    0  0.14758987305E+02 -0.19200907804E+02 -0.44017588033E+02  0.50239930563E+02  0.00000000000E+00 0.  1.
<mgrwt>
<rscale>  0 0.80216164E+02</rscale>
<asrwt>0</asrwt>
<pdfrwt beam="1">  1        1 0.30945252E-02 0.80216164E+02</pdfrwt>
<pdfrwt beam="2">  1       -2 0.12303907E-01 0.80216164E+02</pdfrwt>
<totfact> 0.11100161E+05</totfact>
</mgrwt>
</event>
<event>
 8    1  0.1241100E-020  0.8141398E+02  0.7818608E-02  0.1325086E+00
         -2   -1    0    0    0  501 -0.00000000000E+00  0.00000000000E+00  0.22167341259E+02  0.22167341405E+02  0.25500000000E-02 0.  1.
          1   -1    0    0  501    0  0.00000000000E+00 -0.00000000000E+00 -0.74752267392E+02  0.74752267561E+02  0.50400000000E-02 0. -1.
        -24    2    1    2    0    0 -0.35527136788E-14  0.00000000000E+00 -0.52584926133E+02  0.96919608967E+02  0.81413980039E+02 0.  0.
         66    2    3    3    0    0  0.31765886943E+02 -0.18696507605E+02 -0.58123061614E+01  0.37368621461E+02  0.19999992595E+01 0.  0.
         13    1    3    3    0    0 -0.31765886943E+02  0.18696507605E+02 -0.46772619971E+02  0.59550987506E+02  0.10566000000E+00 0. -1.
         13    1    4    4    0    0  0.77783458048E+01 -0.49085993362E+01 -0.13421642328E+01  0.92956753259E+01  0.10566000000E+00 0. -1.
        -13    1    4    4    0    0  0.13487734383E+02 -0.85805591098E+01 -0.29218327739E+01  0.16250945948E+02  0.10566000000E+00 0.  1.
         14    1    4    4    0    0  0.10499806756E+02 -0.52073491593E+01 -0.15483091548E+01  0.11822000187E+02  0.00000000000E+00 0. -1.
<mgrwt>
<rscale>  0 0.81413980E+02</rscale>
<asrwt>0</asrwt>
<pdfrwt beam="1">  1        1 0.11500349E-01 0.81413980E+02</pdfrwt>
<pdfrwt beam="2">  1       -2 0.34103602E-02 0.81413980E+02</pdfrwt>
<totfact> 0.13360477E+05</totfact>
</mgrwt>
</event>
<event>
 8    1  0.1241100E-020  0.8204195E+02  0.7818608E-02  0.1323355E+00
         -2   -1    0    0    0  501 -0.00000000000E+00  0.00000000000E+00  0.23531642786E+02  0.23531642924E+02  0.25500000000E-02 0.  1.
          1   -1    0    0  501    0  0.00000000000E+00 -0.00000000000E+00 -0.71508830120E+02  0.71508830297E+02  0.50400000000E-02 0. -1.
        -24    2    1    2    0    0 -0.35527136788E-14  0.71054273576E-14 -0.47977187334E+02  0.95040473221E+02  0.82041946866E+02 0.  0.
         66    2    3    3    0    0 -0.17248995653E+02 -0.36856169408E+02 -0.18232651404E+02  0.44635576076E+02  0.19999999807E+01 0.  0.
         13    1    3    3    0    0  0.17248995653E+02  0.36856169408E+02 -0.29744535930E+02  0.50404897145E+02  0.10566000000E+00 0. -1.
         13    1    4    4    0    0 -0.64549848489E+01 -0.11636625980E+02 -0.58929659912E+01  0.14553903456E+02  0.10566000000E+00 0. -1.
        -13    1    4    4    0    0 -0.90282134318E+01 -0.21187137639E+02 -0.10472853712E+02  0.25300104111E+02  0.10566000000E+00 0.  1.
        -14    1    4    4    0    0 -0.17657973724E+01 -0.40324057888E+01 -0.18668317009E+01  0.47815685089E+01  0.00000000000E+00 0.  1.
<mgrwt>
<rscale>  0 0.82041947E+02</rscale>
<asrwt>0</asrwt>
<pdfrwt beam="1">  1        1 0.11001358E-01 0.82041947E+02</pdfrwt>
<pdfrwt beam="2">  1       -2 0.36202528E-02 0.82041947E+02</pdfrwt>
<totfact> 0.12988602E+05</totfact>
</mgrwt>
</event>
<event>
 8    1  0.1241100E-020  0.7249821E+02  0.7818608E-02  0.1351798E+00
         -2   -1    0    0    0  501 -0.00000000000E+00  0.00000000000E+00  0.96050659638E+01  0.96050663023E+01  0.25500000000E-02 0.  1.
          1   -1    0    0  501    0  0.00000000000E+00 -0.00000000000E+00 -0.13680256931E+03  0.13680256941E+03  0.50400000000E-02 0. -1.
        -24    2    1    2    0    0  0.00000000000E+00  0.00000000000E+00 -0.12719750335E+03  0.14640763571E+03  0.72498213325E+02 0.  0.
         66    2    3    3    0    0  0.32313613124E+02  0.65510631505E+01 -0.33361304281E+02  0.46947445475E+02  0.19999979449E+01 0.  0.
         13    1    3    3    0    0 -0.32313613124E+02 -0.65510631505E+01 -0.93836199068E+02  0.99460190232E+02  0.10566000000E+00 0. -1.
         13    1    4    4    0    0  0.55615602681E+00  0.20756189703E+00 -0.81811786189E+00  0.10163032711E+01  0.10566000000E+00 0. -1.
        -13    1    4    4    0    0  0.11552659541E+02  0.25973667667E+01 -0.11079786303E+02  0.16216753225E+02  0.10566000000E+00 0.  1.
        -14    1    4    4    0    0  0.20204797557E+02  0.37461344867E+01 -0.21463400116E+02  0.29714388980E+02  0.00000000000E+00 0.  1.
<mgrwt>
<rscale>  0 0.72498213E+02</rscale>
<asrwt>0</asrwt>
<pdfrwt beam="1">  1        1 0.21046548E-01 0.72498213E+02</pdfrwt>
<pdfrwt beam="2">  1       -2 0.14777026E-02 0.72498213E+02</pdfrwt>
<totfact> 0.20174173E+05</totfact>
</mgrwt>
</event>
<event>
 8    1  0.1241100E-020  0.7360350E+02  0.7818608E-02  0.1348251E+00
         -2   -1    0    0    0  501 -0.00000000000E+00  0.00000000000E+00  0.13818004966E+02  0.13818005201E+02  0.25500000000E-02 0.  1.
          1   -1    0    0  501    0  0.00000000000E+00 -0.00000000000E+00 -0.98014786399E+02  0.98014786529E+02  0.50400000000E-02 0. -1.
        -24    2    1    2    0    0  0.00000000000E+00  0.00000000000E+00 -0.84196781433E+02  0.11183279173E+03  0.73603500612E+02 0.  0.
         66    2    3    3    0    0 -0.16516818482E+02 -0.16268862096E+02  0.12434939430E+01  0.23302949377E+02  0.20000014542E+01 0.  0.
         13    1    3    3    0    0  0.16516818482E+02  0.16268862096E+02 -0.85440275376E+02  0.88529842353E+02  0.10566000000E+00 0. -1.
         13    1    4    4    0    0 -0.71290352591E+01 -0.58810224455E+01  0.10069709148E+01  0.92970276535E+01  0.10566000000E+00 0. -1.
        -13    1    4    4    0    0 -0.80526548670E+01 -0.87937245258E+01  0.16474494508E+00  0.11925315358E+02  0.10566000000E+00 0.  1.
         14    1    4    4    0    0 -0.13351283557E+01 -0.15941151246E+01  0.71778083063E-01  0.20806063659E+01  0.00000000000E+00 0. -1.
<mgrwt>
<rscale>  0 0.73603501E+02</rscale>
<asrwt>0</asrwt>
<pdfrwt beam="1">  1        1 0.15079198E-01 0.73603501E+02</pdfrwt>
<pdfrwt beam="2">  1       -2 0.21258470E-02 0.73603501E+02</pdfrwt>
<totfact> 0.18327818E+05</totfact>
</mgrwt>
</event>
<event>
 8    1  0.1241100E-020  0.8070853E+02  0.7818608E-02  0.1327053E+00
         -2   -1    0    0    0  501 -0.00000000000E+00  0.00000000000E+00  0.39346293055E+02  0.39346293137E+02  0.25500000000E-02 0.  1.
          1   -1    0    0  501    0  0.00000000000E+00 -0.00000000000E+00 -0.41388062596E+02  0.41388062902E+02  0.50400000000E-02 0. -1.
        -24    2    1    2    0    0  0.00000000000E+00  0.00000000000E+00 -0.20417695410E+01  0.80734356040E+02  0.80708533764E+02 0.  0.
         66    2    3    3    0    0 -0.18810944854E+02  0.25005427133E+02  0.24429484926E+02  0.39748242422E+02  0.20000023741E+01 0.  0.
         13    1    3    3    0    0  0.18810944854E+02 -0.25005427133E+02 -0.26471254467E+02  0.40986113618E+02  0.10566000000E+00 0. -1.
         13    1    4    4    0    0 -0.50677598126E+01  0.74265840777E+01  0.68503356927E+01  0.11303742908E+02  0.10566000000E+00 0.  1.
        -13    1    4    4    0    0 -0.32474500084E+01  0.36135463434E+01  0.44771854659E+01  0.66075716011E+01  0.10566000000E+00 0. -1.
         14    1    4    4    0    0 -0.10495735033E+02  0.13965296712E+02  0.13101963767E+02  0.21836927913E+02  0.00000000000E+00 0. -1.
<mgrwt>
<rscale>  0 0.80708534E+02</rscale>
<asrwt>0</asrwt>
<pdfrwt beam="1">  1        1 0.63673943E-02 0.80708534E+02</pdfrwt>
<pdfrwt beam="2">  1       -2 0.60532759E-02 0.80708534E+02</pdfrwt>
<totfact> 0.12454944E+05</totfact>
</mgrwt>
</event>
<event>
 8    1  0.1241100E-020  0.7950776E+02  0.7818608E-02  0.1330454E+00
         -2   -1    0    0    0  501 -0.00000000000E+00  0.00000000000E+00  0.18146211900E+02  0.18146212079E+02  0.25500000000E-02 0.  1.
          1   -1    0    0  501    0  0.00000000000E+00 -0.00000000000E+00 -0.87090955283E+02  0.87090955429E+02  0.50400000000E-02 0. -1.
        -24    2    1    2    0    0  0.00000000000E+00 -0.17763568394E-14 -0.68944743383E+02  0.10523716751E+03  0.79507759275E+02 0.  0.
         66    2    3    3    0    0 -0.13050742533E+02 -0.14538558982E+02  0.11293451263E+02  0.22654659542E+02  0.19999948979E+01 0.  0.
         13    1    3    3    0    0  0.13050742533E+02  0.14538558982E+02 -0.80238194646E+02  0.82582507966E+02  0.10566000000E+00 0. -1.
         13    1    4    4    0    0 -0.54899075318E+01 -0.48387039345E+01  0.42928804671E+01  0.84848174532E+01  0.10566000000E+00 0. -1.
        -13    1    4    4    0    0 -0.66347793357E+01 -0.88313587490E+01  0.63829211525E+01  0.12757979490E+02  0.10566000000E+00 0.  1.
        -14    1    4    4    0    0 -0.92605566535E+00 -0.86849629845E+00  0.61764964308E+00  0.14118625986E+01  0.00000000000E+00 0.  1.
<mgrwt>
<rscale>  0 0.79507759E+02</rscale>
<asrwt>0</asrwt>
<pdfrwt beam="1">  1        1 0.13398608E-01 0.79507759E+02</pdfrwt>
<pdfrwt beam="2">  1       -2 0.27917250E-02 0.79507759E+02</pdfrwt>
<totfact> 0.14608740E+05</totfact>
</mgrwt>
</event>
<event>
 8    1  0.1241100E-020  0.8021478E+02  0.7818608E-02  0.1328443E+00
         -2   -1    0    0    0  501 -0.00000000000E+00  0.00000000000E+00  0.99282643736E+02  0.99282643769E+02  0.25500000000E-02 0.  1.
          1   -1    0    0  501    0  0.00000000000E+00 -0.00000000000E+00 -0.16202252821E+02  0.16202253605E+02  0.50400000000E-02 0. -1.
        -24    2    1    2    0    0  0.00000000000E+00  0.00000000000E+00  0.83080390915E+02  0.11548489737E+03  0.80214775239E+02 0.  0.
         66    2    3    3    0    0 -0.13722528207E+02  0.32981544890E+02  0.67739427630E+02  0.76607572333E+02  0.19999998634E+01 0.  0.
         13    1    3    3    0    0  0.13722528207E+02 -0.32981544890E+02  0.15340963286E+02  0.38877325040E+02  0.10566000000E+00 0. -1.
         13    1    4    4    0    0 -0.18647813946E+01  0.46956987471E+01  0.97801559824E+01  0.11008615328E+02  0.10566000000E+00 0. -1.
        -13    1    4    4    0    0 -0.84941339237E+01  0.22204096758E+02  0.44943476517E+02  0.50843873470E+02  0.10566000000E+00 0.  1.
         14    1    4    4    0    0 -0.33636128890E+01  0.60817493850E+01  0.13015795130E+02  0.14755083535E+02  0.00000000000E+00 0. -1.
<mgrwt>
<rscale>  0 0.80214775E+02</rscale>
<asrwt>0</asrwt>
<pdfrwt beam="1">  1        1 0.24926544E-02 0.80214775E+02</pdfrwt>
<pdfrwt beam="2">  1       -2 0.15274253E-01 0.80214775E+02</pdfrwt>
<totfact> 0.10559023E+05</totfact>
</mgrwt>
</event>
<event>
 8    1  0.1241100E-020  0.7954941E+02  0.7818608E-02  0.1330335E+00
         -2   -1    0    0    0  501 -0.00000000000E+00  0.00000000000E+00  0.21755892348E+03  0.21755892349E+03  0.25500000000E-02 0.  1.
          1   -1    0    0  501    0  0.00000000000E+00 -0.00000000000E+00 -0.72717173319E+01  0.72717190786E+01  0.50400000000E-02 0. -1.
        -24    2    1    2    0    0 -0.71054273576E-14  0.35527136788E-14  0.21028720614E+03  0.22483064257E+03  0.79549410873E+02 0.  0.
         66    2    3    3    0    0 -0.31947753504E+02  0.23650829501E+02  0.10532074831E+03  0.11258987847E+03  0.20000051537E+01 0.  0.
         13    1    3    3    0    0  0.31947753504E+02 -0.23650829501E+02  0.10496645784E+03  0.11224076409E+03  0.10566000000E+00 0. -1.
         13    1    4    4    0    0 -0.13759558016E+02  0.10509183309E+02  0.46896134187E+02  0.49990268417E+02  0.10566000000E+00 0. -1.
        -13    1    4    4    0    0 -0.13421342529E+02  0.10398075919E+02  0.44146240966E+02  0.47298564181E+02  0.10566000000E+00 0.  1.
         14    1    4    4    0    0 -0.47668529588E+01  0.27435702726E+01  0.14278373154E+02  0.15301045876E+02  0.00000000000E+00 0. -1.
<mgrwt>
<rscale>  0 0.79549411E+02</rscale>
<asrwt>0</asrwt>
<pdfrwt beam="1">  1        1 0.11187261E-02 0.79549411E+02</pdfrwt>
<pdfrwt beam="2">  1       -2 0.33470598E-01 0.79549411E+02</pdfrwt>
<totfact> 0.83339372E+04</totfact>
</mgrwt>
</event>
<event>
 8    1  0.1241100E-020  0.7932588E+02  0.7818608E-02  0.1330975E+00
          1   -1    0    0  501    0  0.00000000000E+00  0.00000000000E+00  0.64714451210E+02  0.64714451407E+02  0.50400000000E-02 0. -1.
         -2   -1    0    0    0  501 -0.00000000000E+00 -0.00000000000E+00 -0.24309080632E+02  0.24309080766E+02  0.25500000000E-02 0.  1.
        -24    2    1    2    0    0  0.00000000000E+00  0.22204460493E-15  0.40405370578E+02  0.89023532173E+02  0.79325880449E+02 0.  0.
         66    2    3    3    0    0  0.16347766202E+02 -0.17555417741E+01 -0.20260478650E+02  0.26169035013E+02  0.20000029168E+01 0.  0.
         13    1    3    3    0    0 -0.16347766202E+02  0.17555417741E+01  0.60665849228E+02  0.62854497160E+02  0.10566000000E+00 0. -1.
         13    1    4    4    0    0  0.13709273875E+01 -0.54955139413E+00 -0.17025950754E+01  0.22564225364E+01  0.10566000000E+00 0. -1.
        -13    1    4    4    0    0  0.78306112947E+01 -0.97487046402E+00 -0.88797525176E+01  0.11879815423E+02  0.10566000000E+00 0.  1.
         14    1    4    4    0    0  0.71462275198E+01 -0.23111991598E+00 -0.96781310565E+01  0.12032797053E+02  0.00000000000E+00 0. -1.
<mgrwt>
<rscale>  0 0.79325880E+02</rscale>
<asrwt>0</asrwt>
<pdfrwt beam="1">  1        1 0.99560693E-02 0.79325880E+02</pdfrwt>
<pdfrwt beam="2">  1       -2 0.37398587E-02 0.79325880E+02</pdfrwt>
<totfact> 0.14021992E+05</totfact>
</mgrwt>
</event>
<event>
 8    1  0.1241100E-020  0.8024230E+02  0.7818608E-02  0.1328365E+00
          1   -1    0    0  501    0  0.00000000000E+00  0.00000000000E+00  0.25469568698E+03  0.25469568703E+03  0.50400000000E-02 0. -1.
         -2   -1    0    0    0  501 -0.00000000000E+00 -0.00000000000E+00 -0.63201164793E+01  0.63201169937E+01  0.25500000000E-02 0.  1.
        -24    2    1    2    0    0  0.00000000000E+00 -0.35527136788E-14  0.24837557050E+03  0.26101580402E+03  0.80242295134E+02 0.  0.
         66    2    3    3    0    0  0.36144341463E+02  0.17285243131E+02  0.11911280639E+03  0.12568633051E+03  0.19999957425E+01 0.  0.
         13    1    3    3    0    0 -0.36144341463E+02 -0.17285243131E+02  0.12926276411E+03  0.13532947351E+03  0.10566000000E+00 0. -1.
         13    1    4    4    0    0  0.53775960945E+00  0.16455586601E+00  0.17694667475E+01  0.18596883170E+01  0.10566000000E+00 0.  1.
        -13    1    4    4    0    0  0.65212141856E+01  0.37746213544E+01  0.21577101693E+02  0.22855119390E+02  0.10566000000E+00 0.  1.
        -14    1    4    4    0    0  0.29085367667E+02  0.13346065910E+02  0.95766237945E+02  0.10097152281E+03  0.00000000000E+00 0.  1.
<mgrwt>
<rscale>  0 0.80242295E+02</rscale>
<asrwt>0</asrwt>
<pdfrwt beam="1">  1        1 0.39183950E-01 0.80242295E+02</pdfrwt>
<pdfrwt beam="2">  1       -2 0.97232570E-03 0.80242295E+02</pdfrwt>
<totfact> 0.17339260E+05</totfact>
</mgrwt>
</event>
<event>
 8    1  0.1241100E-020  0.8111252E+02  0.7818608E-02  0.1325924E+00
          1   -1    0    0  501    0  0.00000000000E+00  0.00000000000E+00  0.14931888295E+02  0.14931889146E+02  0.50400000000E-02 0. -1.
         -2   -1    0    0    0  501 -0.00000000000E+00 -0.00000000000E+00 -0.11015419089E+03  0.11015419092E+03  0.25500000000E-02 0.  1.
        -24    2    1    2    0    0  0.17763568394E-14  0.00000000000E+00 -0.95222302596E+02  0.12508608007E+03  0.81112517619E+02 0.  0.
         66    2    3    3    0    0 -0.11050092621E+02  0.36218149328E+02 -0.69931471221E+02  0.79550421475E+02  0.20000005059E+01 0.  0.
         13    1    3    3    0    0  0.11050092621E+02 -0.36218149328E+02 -0.25290831375E+02  0.45535658591E+02  0.10566000000E+00 0. -1.
         13    1    4    4    0    0 -0.37949188922E+01  0.13121381850E+02 -0.24099935545E+02  0.27701807312E+02  0.10566000000E+00 0. -1.
        -13    1    4    4    0    0 -0.67884289524E+00  0.28701644526E+01 -0.63649566270E+01  0.70158754664E+01  0.10566000000E+00 0.  1.
         14    1    4    4    0    0 -0.65763308333E+01  0.20226603025E+02 -0.39466579049E+02  0.44832738696E+02  0.00000000000E+00 0. -1.
<mgrwt>
<rscale>  0 0.81112518E+02</rscale>
<asrwt>0</asrwt>
<pdfrwt beam="1">  1        1 0.22972137E-02 0.81112518E+02</pdfrwt>
<pdfrwt beam="2">  1       -2 0.16946798E-01 0.81112518E+02</pdfrwt>
<totfact> 0.99927594E+04</totfact>
</mgrwt>
</event>
<event>
 8    1  0.1241100E-020  0.8094680E+02  0.7818608E-02  0.1326386E+00
         -2   -1    0    0    0  501 -0.00000000000E+00  0.00000000000E+00  0.27574403259E+02  0.27574403377E+02  0.25500000000E-02 0.  1.
          1   -1    0    0  501    0  0.00000000000E+00 -0.00000000000E+00 -0.59406407276E+02  0.59406407489E+02  0.50400000000E-02 0. -1.
        -24    2    1    2    0    0  0.00000000000E+00  0.35527136788E-14 -0.31832004017E+02  0.86980810866E+02  0.80946803391E+02 0.  0.
         66    2    3    3    0    0 -0.21946426367E+01  0.24325392417E+02  0.18719779157E+02  0.30837822714E+02  0.20000013857E+01 0.  0.
         13    1    3    3    0    0  0.21946426367E+01 -0.24325392417E+02 -0.50551783174E+02  0.56142988152E+02  0.10566000000E+00 0. -1.
         13    1    4    4    0    0 -0.36676479420E+00  0.13421196454E+01  0.13002086568E+01  0.19072252472E+01  0.10566000000E+00 0. -1.
        -13    1    4    4    0    0  0.10727673416E+00  0.18611355621E+01  0.17564781654E+01  0.25635353439E+01  0.10566000000E+00 0.  1.
        -14    1    4    4    0    0 -0.19351545767E+01  0.21122137209E+02  0.15663092334E+02  0.26367062123E+02  0.00000000000E+00 0.  1.
<mgrwt>
<rscale>  0 0.80946803E+02</rscale>
<asrwt>0</asrwt>
<pdfrwt beam="1">  1        1 0.91394473E-02 0.80946803E+02</pdfrwt>
<pdfrwt beam="2">  1       -2 0.42422159E-02 0.80946803E+02</pdfrwt>
<totfact> 0.13085465E+05</totfact>
</mgrwt>
</event>
<event>
 8    1  0.1241100E-020  0.8233236E+02  0.7818608E-02  0.1322560E+00
         -2   -1    0    0    0  501 -0.00000000000E+00  0.00000000000E+00  0.24260823086E+03  0.24260823088E+03  0.25500000000E-02 0.  1.
          1   -1    0    0  501    0  0.00000000000E+00 -0.00000000000E+00 -0.69851468846E+01  0.69851487028E+01  0.50400000000E-02 0. -1.
        -24    2    1    2    0    0  0.17763568394E-14  0.00000000000E+00  0.23562308398E+03  0.24959337958E+03  0.82332359533E+02 0.  0.
         66    2    3    3    0    0 -0.13597252619E+02  0.68240646747E+01  0.23376307780E+03  0.23426615137E+03  0.19999997392E+01 0.  0.
         13    1    3    3    0    0  0.13597252619E+02 -0.68240646747E+01  0.18600061782E+01  0.15327228206E+02  0.10566000000E+00 0. -1.
         13    1    4    4    0    0 -0.24226832631E+01  0.19618432714E+01  0.47908230519E+02  0.48009665055E+02  0.10566000000E+00 0. -1.
        -13    1    4    4    0    0 -0.45342012281E+01  0.24879489550E+01  0.78315414563E+02  0.78486076428E+02  0.10566000000E+00 0.  1.
        -14    1    4    4    0    0 -0.66403681278E+01  0.23742724483E+01  0.10753943272E+03  0.10777040989E+03  0.00000000000E+00 0.  1.
<mgrwt>
<rscale>  0 0.82332360E+02</rscale>
<asrwt>0</asrwt>
<pdfrwt beam="1">  1        1 0.10746382E-02 0.82332360E+02</pdfrwt>
<pdfrwt beam="2">  1       -2 0.37324340E-01 0.82332360E+02</pdfrwt>
<totfact> 0.72615523E+04</totfact>
</mgrwt>
</event>
<event>
 8    1  0.1241100E-020  0.7867215E+02  0.7818608E-02  0.1332862E+00
          1   -1    0    0  501    0  0.00000000000E+00  0.00000000000E+00  0.40578923797E+01  0.40578955096E+01  0.50400000000E-02 0. -1.
         -2   -1    0    0    0  501 -0.00000000000E+00 -0.00000000000E+00 -0.38131281089E+03  0.38131281090E+03  0.25500000000E-02 0.  1.
        -24    2    1    2    0    0  0.00000000000E+00  0.00000000000E+00 -0.37725491851E+03  0.38537070641E+03  0.78672154014E+02 0.  0.
         66    2    3    3    0    0  0.43595263478E+01  0.23262167875E+02 -0.34249977144E+03  0.34332233740E+03  0.19999993463E+01 0.  0.
         13    1    3    3    0    0 -0.43595263478E+01 -0.23262167875E+02 -0.34755147064E+02  0.42048369001E+02  0.10566000000E+00 0. -1.
         13    1    4    4    0    0 -0.90794398772E-01  0.30271243887E+01 -0.42685435066E+02  0.42792864551E+02  0.10566000000E+00 0. -1.
        -13    1    4    4    0    0  0.29568308716E+01  0.13870066860E+02 -0.20589843556E+03  0.20638628475E+03  0.10566000000E+00 0.  1.
         14    1    4    4    0    0  0.14934898750E+01  0.63649766254E+01 -0.93915900822E+02  0.94143188106E+02  0.00000000000E+00 0. -1.
<mgrwt>
<rscale>  0 0.78672154E+02</rscale>
<asrwt>0</asrwt>
<pdfrwt beam="1">  1        1 0.62429168E-03 0.78672154E+02</pdfrwt>
<pdfrwt beam="2">  1       -2 0.58663481E-01 0.78672154E+02</pdfrwt>
<totfact> 0.63659428E+04</totfact>
</mgrwt>
</event>
<event>
 8    1  0.1241100E-020  0.9014806E+02  0.7818608E-02  0.1302494E+00
          1   -1    0    0  501    0  0.00000000000E+00  0.00000000000E+00  0.11880895799E+03  0.11880895810E+03  0.50400000000E-02 0. -1.
         -2   -1    0    0    0  501 -0.00000000000E+00 -0.00000000000E+00 -0.17100295805E+02  0.17100295995E+02  0.25500000000E-02 0.  1.
        -24    2    1    2    0    0  0.00000000000E+00  0.00000000000E+00  0.10170866219E+03  0.13590925409E+03  0.90148063676E+02 0.  0.
         66    2    3    3    0    0  0.26529089774E+02  0.16117539181E+02  0.16537283642E+01  0.31149678781E+02  0.19999993027E+01 0.  0.
         13    1    3    3    0    0 -0.26529089774E+02 -0.16117539181E+02  0.10005493382E+03  0.10475957531E+03  0.10566000000E+00 0. -1.
         13    1    4    4    0    0  0.16499454069E+02  0.10412224413E+02  0.12488131860E+01  0.19550373403E+02  0.10566000000E+00 0.  1.
        -13    1    4    4    0    0  0.51260673369E+01  0.33144657670E+01  0.64146419855E+00  0.61388020017E+01  0.10566000000E+00 0. -1.
         14    1    4    4    0    0  0.49035683678E+01  0.23908490006E+01 -0.23654902035E+00  0.54605033761E+01  0.00000000000E+00 0. -1.
<mgrwt>
<rscale>  0 0.90148064E+02</rscale>
<asrwt>0</asrwt>
<pdfrwt beam="1">  1        1 0.18278301E-01 0.90148064E+02</pdfrwt>
<pdfrwt beam="2">  1       -2 0.26308148E-02 0.90148064E+02</pdfrwt>
<totfact> 0.10954794E+05</totfact>
</mgrwt>
</event>
<event>
 8    1  0.1241100E-020  0.7938278E+02  0.7818608E-02  0.1330812E+00
          1   -1    0    0  501    0  0.00000000000E+00  0.00000000000E+00  0.17813542997E+01  0.17813614295E+01  0.50400000000E-02 0. -1.
         -2   -1    0    0    0  501 -0.00000000000E+00 -0.00000000000E+00 -0.88438520668E+03  0.88438520669E+03  0.25500000000E-02 0.  1.
        -24    2    1    2    0    0  0.00000000000E+00  0.00000000000E+00 -0.88260385239E+03  0.88616656812E+03  0.79382782800E+02 0.  0.
         66    2    3    3    0    0 -0.21825993997E+02 -0.11189275985E+02 -0.78958481590E+03  0.78996819899E+03  0.19999994739E+01 0.  0.
         13    1    3    3    0    0  0.21825993997E+02  0.11189275985E+02 -0.93019036484E+02  0.96198369132E+02  0.10566000000E+00 0. -1.
         13    1    4    4    0    0 -0.53624255188E+01 -0.32555433586E+01 -0.21368621852E+03  0.21377830882E+03  0.10566000000E+00 0. -1.
        -13    1    4    4    0    0 -0.15235871102E+02 -0.73755409824E+01 -0.52186001396E+03  0.52213448048E+03  0.10566000000E+00 0.  1.
        -14    1    4    4    0    0 -0.12276973770E+01 -0.55819164440E+00 -0.54038583420E+02  0.54055409691E+02  0.00000000000E+00 0.  1.
<mgrwt>
<rscale>  0 0.79382783E+02</rscale>
<asrwt>0</asrwt>
<pdfrwt beam="1">  1        1 0.27405576E-03 0.79382783E+02</pdfrwt>
<pdfrwt beam="2">  1       -2 0.13605891E+00 0.79382783E+02</pdfrwt>
<totfact> 0.30531044E+04</totfact>
</mgrwt>
</event>
<event>
 8    1  0.1241100E-020  0.7047572E+02  0.7818608E-02  0.1358483E+00
         -2   -1    0    0    0  501 -0.00000000000E+00  0.00000000000E+00  0.97130588808E+00  0.97130923537E+00  0.25500000000E-02 0.  1.
          1   -1    0    0  501    0  0.00000000000E+00 -0.00000000000E+00 -0.12783866314E+04  0.12783866314E+04  0.50400000000E-02 0. -1.
        -24    2    1    2    0    0  0.17763568394E-14  0.35527136788E-14 -0.12774153255E+04  0.12793579407E+04  0.70475715247E+02 0.  0.
         66    2    3    3    0    0 -0.80519972721E+01 -0.19150298138E+02 -0.11552733182E+04  0.11554618160E+04  0.19999989886E+01 0.  0.
         13    1    3    3    0    0  0.80519972721E+01  0.19150298138E+02 -0.12214200734E+03  0.12389612464E+03  0.10566000000E+00 0. -1.
         13    1    4    4    0    0 -0.42288260019E+00 -0.43201687739E+00 -0.32178257816E+02  0.32184109563E+02  0.10566000000E+00 0. -1.
        -13    1    4    4    0    0 -0.36620804123E+01 -0.10584939237E+02 -0.60830381362E+03  0.60840693010E+03  0.10566000000E+00 0.  1.
        -14    1    4    4    0    0 -0.39670342596E+01 -0.81333420237E+01 -0.51479124677E+03  0.51487077638E+03  0.00000000000E+00 0.  1.
<mgrwt>
<rscale>  0 0.70475715E+02</rscale>
<asrwt>0</asrwt>
<pdfrwt beam="1">  1        1 0.19667352E+00 0.70475715E+02</pdfrwt>
<pdfrwt beam="2">  1       -2 0.14943295E-03 0.70475715E+02</pdfrwt>
<totfact> 0.24138855E+05</totfact>
</mgrwt>
</event>
<event>
 8    1  0.1241100E-020  0.7970382E+02  0.7818608E-02  0.1329894E+00
         -2   -1    0    0    0  501 -0.00000000000E+00  0.00000000000E+00  0.67890249981E+01  0.67890254770E+01  0.25500000000E-02 0.  1.
          1   -1    0    0  501    0  0.00000000000E+00 -0.00000000000E+00 -0.23393266433E+03  0.23393266438E+03  0.50400000000E-02 0. -1.
        -24    2    1    2    0    0 -0.71054273576E-14  0.00000000000E+00 -0.22714363933E+03  0.24072168986E+03  0.79703820991E+02 0.  0.
         66    2    3    3    0    0 -0.34807133971E+02 -0.18044287181E+02 -0.92493744636E+02  0.10047997645E+03  0.19999987993E+01 0.  0.
         13    1    3    3    0    0  0.34807133971E+02  0.18044287181E+02 -0.13464989469E+03  0.14024171341E+03  0.10566000000E+00 0. -1.
         13    1    4    4    0    0 -0.42612580581E+01 -0.17613216696E+01 -0.10352394586E+02  0.11333305430E+02  0.10566000000E+00 0. -1.
        -13    1    4    4    0    0 -0.48048908456E+01 -0.20506939597E+01 -0.12131310377E+02  0.13208791665E+02  0.10566000000E+00 0.  1.
        -14    1    4    4    0    0 -0.25740985067E+02 -0.14232271552E+02 -0.70010039673E+02  0.75937879354E+02  0.00000000000E+00 0.  1.
<mgrwt>
<rscale>  0 0.79703821E+02</rscale>
<asrwt>0</asrwt>
<pdfrwt beam="1">  1        1 0.35989635E-01 0.79703821E+02</pdfrwt>
<pdfrwt beam="2">  1       -2 0.10444656E-02 0.79703821E+02</pdfrwt>
<totfact> 0.17360713E+05</totfact>
</mgrwt>
</event>
<event>
 8    1  0.1241100E-020  0.7937254E+02  0.7818608E-02  0.1330842E+00
         -2   -1    0    0    0  501 -0.00000000000E+00  0.00000000000E+00  0.56735213284E+01  0.56735219014E+01  0.25500000000E-02 0.  1.
          1   -1    0    0  501    0  0.00000000000E+00 -0.00000000000E+00 -0.27760536113E+03  0.27760536118E+03  0.50400000000E-02 0. -1.
        -24    2    1    2    0    0  0.00000000000E+00  0.00000000000E+00 -0.27193183981E+03  0.28327888308E+03  0.79372539959E+02 0.  0.
         66    2    3    3    0    0 -0.38600083078E+02 -0.66944651472E+01 -0.15811418163E+03  0.16290757108E+03  0.20000010161E+01 0.  0.
         13    1    3    3    0    0  0.38600083078E+02  0.66944651472E+01 -0.11381765817E+03  0.12037131200E+03  0.10566000000E+00 0. -1.
         13    1    4    4    0    0 -0.78733539919E+01 -0.16089312913E+01 -0.32771069896E+02  0.33742147963E+02  0.10566000000E+00 0. -1.
        -13    1    4    4    0    0 -0.20141579628E+02 -0.38101631582E+01 -0.85068594753E+02  0.87503585930E+02  0.10566000000E+00 0.  1.
         14    1    4    4    0    0 -0.10585149458E+02 -0.12753706976E+01 -0.40274516985E+02  0.41661837187E+02  0.00000000000E+00 0. -1.
<mgrwt>
<rscale>  0 0.79372540E+02</rscale>
<asrwt>0</asrwt>
<pdfrwt beam="1">  1        1 0.42708507E-01 0.79372540E+02</pdfrwt>
<pdfrwt beam="2">  1       -2 0.87284970E-03 0.79372540E+02</pdfrwt>
<totfact> 0.18147623E+05</totfact>
</mgrwt>
</event>
<event>
 8    1  0.1241100E-020  0.8188199E+02  0.7818608E-02  0.1323794E+00
         -2   -1    0    0    0  501 -0.00000000000E+00  0.00000000000E+00  0.69558757539E+01  0.69558762213E+01  0.25500000000E-02 0.  1.
          1   -1    0    0  501    0  0.00000000000E+00 -0.00000000000E+00 -0.24097110964E+03  0.24097110970E+03  0.50400000000E-02 0. -1.
        -24    2    1    2    0    0  0.00000000000E+00  0.00000000000E+00 -0.23401523389E+03  0.24792698592E+03  0.81881992243E+02 0.  0.
         66    2    3    3    0    0  0.27340963756E+02 -0.30384173797E+02 -0.11146639593E+03  0.11874124690E+03  0.19999942655E+01 0.  0.
         13    1    3    3    0    0 -0.27340963756E+02  0.30384173797E+02 -0.12254883796E+03  0.12918573902E+03  0.10566000000E+00 0. -1.
         13    1    4    4    0    0  0.66180364347E+01 -0.81175859947E+01 -0.27319089437E+02  0.29258117170E+02  0.10566000000E+00 0. -1.
        -13    1    4    4    0    0  0.86626771154E+01 -0.91378983563E+01 -0.33296276942E+02  0.35597701940E+02  0.10566000000E+00 0.  1.
         14    1    4    4    0    0  0.12060250206E+02 -0.13128689446E+02 -0.50851029553E+02  0.53885427790E+02  0.00000000000E+00 0. -1.
<mgrwt>
<rscale>  0 0.81881992E+02</rscale>
<asrwt>0</asrwt>
<pdfrwt beam="1">  1        1 0.37072472E-01 0.81881992E+02</pdfrwt>
<pdfrwt beam="2">  1       -2 0.10701350E-02 0.81881992E+02</pdfrwt>
<totfact> 0.16257893E+05</totfact>
</mgrwt>
</event>
<event>
 8    1  0.1241100E-020  0.8064652E+02  0.7818608E-02  0.1327227E+00
          1   -1    0    0  501    0  0.00000000000E+00  0.00000000000E+00  0.74394858402E+02  0.74394858573E+02  0.50400000000E-02 0. -1.
         -2   -1    0    0    0  501 -0.00000000000E+00 -0.00000000000E+00 -0.21855884353E+02  0.21855884501E+02  0.25500000000E-02 0.  1.
        -24    2    1    2    0    0  0.35527136788E-14  0.00000000000E+00  0.52538974050E+02  0.96250743074E+02  0.80646523472E+02 0.  0.
         66    2    3    3    0    0  0.27339986979E+02 -0.78049341720E+01 -0.77982548681E+01  0.29550036609E+02  0.19999997861E+01 0.  0.
         13    1    3    3    0    0 -0.27339986979E+02  0.78049341720E+01  0.60337228918E+02  0.66700706465E+02  0.10566000000E+00 0. -1.
         13    1    4    4    0    0  0.92664262172E+01 -0.19213439182E+01 -0.30908155864E+01  0.99560294453E+01  0.10566000000E+00 0. -1.
        -13    1    4    4    0    0  0.13694245677E+02 -0.43173704303E+01 -0.32801898575E+01  0.14728980333E+02  0.10566000000E+00 0.  1.
         14    1    4    4    0    0  0.43793150850E+01 -0.15662198235E+01 -0.14272494242E+01  0.48650268312E+01  0.00000000000E+00 0. -1.
<mgrwt>
<rscale>  0 0.80646523E+02</rscale>
<asrwt>0</asrwt>
<pdfrwt beam="1">  1        1 0.11445363E-01 0.80646523E+02</pdfrwt>
<pdfrwt beam="2">  1       -2 0.33624437E-02 0.80646523E+02</pdfrwt>
<totfact> 0.13700690E+05</totfact>
</mgrwt>
</event>
<event>
 8    1  0.1241100E-020  0.8092172E+02  0.7818608E-02  0.1326456E+00
         -2   -1    0    0    0  501 -0.00000000000E+00  0.00000000000E+00  0.20691347453E+02  0.20691347610E+02  0.25500000000E-02 0.  1.
          1   -1    0    0  501    0  0.00000000000E+00 -0.00000000000E+00 -0.79119128124E+02  0.79119128284E+02  0.50400000000E-02 0. -1.
        -24    2    1    2    0    0  0.00000000000E+00  0.00000000000E+00 -0.58427780670E+02  0.99810475895E+02  0.80921724798E+02 0.  0.
         66    2    3    3    0    0  0.40066172160E+02 -0.21308443069E+01 -0.23035327673E+02  0.46308368065E+02  0.19999957154E+01 0.  0.
         13    1    3    3    0    0 -0.40066172160E+02  0.21308443069E+01 -0.35392452997E+02  0.53502107829E+02  0.10566000000E+00 0. -1.
         13    1    4    4    0    0  0.72828819399E+01 -0.39184592523E+00 -0.44800481458E+01  0.85601348123E+01  0.10566000000E+00 0. -1.
        -13    1    4    4    0    0  0.16422922346E+01  0.20778217355E+00 -0.71556155715E+00  0.18065131035E+01  0.10566000000E+00 0.  1.
        -14    1    4    4    0    0  0.31140997985E+02 -0.19467805552E+01 -0.17839717970E+02  0.35941720149E+02  0.00000000000E+00 0.  1.
<mgrwt>
<rscale>  0 0.80921725E+02</rscale>
<asrwt>0</asrwt>
<pdfrwt beam="1">  1        1 0.12172173E-01 0.80921725E+02</pdfrwt>
<pdfrwt beam="2">  1       -2 0.31832843E-02 0.80921725E+02</pdfrwt>
<totfact> 0.13709103E+05</totfact>
</mgrwt>
</event>
<event>
 8    1  0.1241100E-020  0.8460112E+02  0.7818608E-02  0.1316479E+00
          1   -1    0    0  501    0  0.00000000000E+00  0.00000000000E+00  0.59952221464E+01  0.59952242649E+01  0.50400000000E-02 0. -1.
         -2   -1    0    0    0  501 -0.00000000000E+00 -0.00000000000E+00 -0.29846051183E+03  0.29846051184E+03  0.25500000000E-02 0.  1.
        -24    2    1    2    0    0  0.00000000000E+00 -0.35527136788E-14 -0.29246528968E+03  0.30445573611E+03  0.84601120430E+02 0.  0.
         66    2    3    3    0    0 -0.68069478860E+01  0.19464269342E+02 -0.27913275001E+03  0.27990049026E+03  0.19999994627E+01 0.  0.
         13    1    3    3    0    0  0.68069478860E+01 -0.19464269342E+02 -0.13332539677E+02  0.24555245852E+02  0.10566000000E+00 0. -1.
         13    1    4    4    0    0 -0.43515877592E+01  0.11716342567E+02 -0.16886036717E+03  0.16932230734E+03  0.10566000000E+00 0. -1.
        -13    1    4    4    0    0 -0.25246634413E+01  0.66659888029E+01 -0.94355716036E+02  0.94624635507E+02  0.10566000000E+00 0.  1.
         14    1    4    4    0    0  0.69303314469E-01  0.10819379730E+01 -0.15916666807E+02  0.15953547410E+02  0.00000000000E+00 0. -1.
<mgrwt>
<rscale>  0 0.84601120E+02</rscale>
<asrwt>0</asrwt>
<pdfrwt beam="1">  1        1 0.92234227E-03 0.84601120E+02</pdfrwt>
<pdfrwt beam="2">  1       -2 0.45916990E-01 0.84601120E+02</pdfrwt>
<totfact> 0.60969462E+04</totfact>
</mgrwt>
</event>
<event>
 8    1  0.1241100E-020  0.7945591E+02  0.7818608E-02  0.1330603E+00
          1   -1    0    0  501    0  0.00000000000E+00  0.00000000000E+00  0.37865340121E+02  0.37865340457E+02  0.50400000000E-02 0. -1.
         -2   -1    0    0    0  501 -0.00000000000E+00 -0.00000000000E+00 -0.41682190359E+02  0.41682190437E+02  0.25500000000E-02 0.  1.
        -24    2    1    2    0    0  0.17763568394E-14  0.00000000000E+00 -0.38168502376E+01  0.79547530893E+02  0.79455908059E+02 0.  0.
         66    2    3    3    0    0 -0.11611347123E+02  0.21177900129E+02 -0.33457529689E+02  0.41312626967E+02  0.20000045270E+01 0.  0.
         13    1    3    3    0    0  0.11611347123E+02 -0.21177900129E+02  0.29640679452E+02  0.38234903926E+02  0.10566000000E+00 0. -1.
         13    1    4    4    0    0 -0.40095700138E+00  0.11850108827E+01 -0.21410259151E+01  0.24819696440E+01  0.10566000000E+00 0. -1.
        -13    1    4    4    0    0 -0.57231185079E+01  0.88908364828E+01 -0.14315205542E+02  0.17797115850E+02  0.10566000000E+00 0.  1.
        -14    1    4    4    0    0 -0.54872716137E+01  0.11102052763E+02 -0.17001298232E+02  0.21033541473E+02  0.00000000000E+00 0.  1.
<mgrwt>
<rscale>  0 0.79455908E+02</rscale>
<asrwt>0</asrwt>
<pdfrwt beam="1">  1        1 0.58254370E-02 0.79455908E+02</pdfrwt>
<pdfrwt beam="2">  1       -2 0.64126447E-02 0.79455908E+02</pdfrwt>
<totfact> 0.12829180E+05</totfact>
</mgrwt>
</event>
<event>
 8    1  0.1241100E-020  0.8007028E+02  0.7818608E-02  0.1328852E+00
          1   -1    0    0  501    0  0.00000000000E+00  0.00000000000E+00  0.72623217268E+02  0.72623217443E+02  0.50400000000E-02 0. -1.
         -2   -1    0    0    0  501 -0.00000000000E+00 -0.00000000000E+00 -0.22070246405E+02  0.22070246552E+02  0.25500000000E-02 0.  1.
        -24    2    1    2    0    0  0.00000000000E+00 -0.17763568394E-14  0.50552970863E+02  0.94693463995E+02  0.80070277009E+02 0.  0.
         66    2    3    3    0    0  0.33624293495E+02  0.14490435228E+02  0.62140299902E+01  0.37191127799E+02  0.19999980262E+01 0.  0.
         13    1    3    3    0    0 -0.33624293495E+02 -0.14490435228E+02  0.44338940873E+02  0.57502336195E+02  0.10566000000E+00 0. -1.
         13    1    4    4    0    0  0.45978085312E+01  0.24881212296E+01  0.78095192690E+00  0.52869311033E+01  0.10566000000E+00 0. -1.
        -13    1    4    4    0    0  0.14821575941E+02  0.66622675424E+01  0.23639175257E+01  0.16421455242E+02  0.10566000000E+00 0.  1.
         14    1    4    4    0    0  0.14204909023E+02  0.53400464565E+01  0.30691605377E+01  0.15482741454E+02  0.00000000000E+00 0. -1.
<mgrwt>
<rscale>  0 0.80070277E+02</rscale>
<asrwt>0</asrwt>
<pdfrwt beam="1">  1        1 0.11172803E-01 0.80070277E+02</pdfrwt>
<pdfrwt beam="2">  1       -2 0.33954226E-02 0.80070277E+02</pdfrwt>
<totfact> 0.13918338E+05</totfact>
</mgrwt>
</event>
<event>
 8    1  0.1241100E-020  0.7599477E+02  0.7818608E-02  0.1340818E+00
          1   -1    0    0  501    0  0.00000000000E+00  0.00000000000E+00  0.77115010946E+01  0.77115027416E+01  0.50400000000E-02 0. -1.
         -2   -1    0    0    0  501 -0.00000000000E+00 -0.00000000000E+00 -0.18722697040E+03  0.18722697041E+03  0.25500000000E-02 0.  1.
        -24    2    1    2    0    0  0.00000000000E+00  0.00000000000E+00 -0.17951546930E+03  0.19493847316E+03  0.75994766909E+02 0.  0.
         66    2    3    3    0    0 -0.17500084490E+02  0.20527970214E+02 -0.15836970316E+03  0.16066304306E+03  0.20000023080E+01 0.  0.
         13    1    3    3    0    0  0.17500084490E+02 -0.20527970214E+02 -0.21145766145E+02  0.34275430095E+02  0.10566000000E+00 0. -1.
         13    1    4    4    0    0 -0.81011180570E+01  0.10113378402E+02 -0.76508104189E+02  0.77597742925E+02  0.10566000000E+00 0. -1.
        -13    1    4    4    0    0 -0.46022912383E+01  0.60682406267E+01 -0.44379979134E+02  0.45028861199E+02  0.10566000000E+00 0.  1.
         14    1    4    4    0    0 -0.47966751951E+01  0.43463511850E+01 -0.37481619835E+02  0.38036438937E+02  0.00000000000E+00 0. -1.
<mgrwt>
<rscale>  0 0.75994767E+02</rscale>
<asrwt>0</asrwt>
<pdfrwt beam="1">  1        1 0.11863851E-02 0.75994767E+02</pdfrwt>
<pdfrwt beam="2">  1       -2 0.28804146E-01 0.75994767E+02</pdfrwt>
<totfact> 0.99674158E+04</totfact>
</mgrwt>
</event>
<event>
 8    1  0.1241100E-020  0.7947004E+02  0.7818608E-02  0.1330562E+00
         -2   -1    0    0    0  501 -0.00000000000E+00  0.00000000000E+00  0.91737998673E+01  0.91738002217E+01  0.25500000000E-02 0.  1.
          1   -1    0    0  501    0  0.00000000000E+00 -0.00000000000E+00 -0.17210662853E+03  0.17210662861E+03  0.50400000000E-02 0. -1.
        -24    2    1    2    0    0  0.17763568394E-14  0.00000000000E+00 -0.16293282866E+03  0.18128042883E+03  0.79470039758E+02 0.  0.
         66    2    3    3    0    0 -0.12636575508E+02 -0.27888062378E+02 -0.13920079896E+03  0.14254223757E+03  0.19999992317E+01 0.  0.
         13    1    3    3    0    0  0.12636575508E+02  0.27888062378E+02 -0.23732029702E+02  0.38738191254E+02  0.10566000000E+00 0. -1.
         13    1    4    4    0    0 -0.69128424244E+01 -0.16354964854E+02 -0.81805203357E+02  0.83710063470E+02  0.10566000000E+00 0. -1.
        -13    1    4    4    0    0 -0.57024641822E+01 -0.11318900573E+02 -0.55754053318E+02  0.57176579413E+02  0.10566000000E+00 0.  1.
         14    1    4    4    0    0 -0.21268901305E-01 -0.21419695106E+00 -0.16415422871E+01  0.16555946908E+01  0.00000000000E+00 0. -1.
<mgrwt>
<rscale>  0 0.79470040E+02</rscale>
<asrwt>0</asrwt>
<pdfrwt beam="1">  1        1 0.26477941E-01 0.79470040E+02</pdfrwt>
<pdfrwt beam="2">  1       -2 0.14113540E-02 0.79470040E+02</pdfrwt>
<totfact> 0.16488751E+05</totfact>
</mgrwt>
</event>
<event>
 8    1  0.1241100E-020  0.7720524E+02  0.7818608E-02  0.1337175E+00
         -2   -1    0    0    0  501 -0.00000000000E+00  0.00000000000E+00  0.70042939028E+01  0.70042943670E+01  0.25500000000E-02 0.  1.
          1   -1    0    0  501    0  0.00000000000E+00 -0.00000000000E+00 -0.21274979294E+03  0.21274979300E+03  0.50400000000E-02 0. -1.
        -24    2    1    2    0    0  0.35527136788E-14  0.00000000000E+00 -0.20574549904E+03  0.21975408737E+03  0.77205236483E+02 0.  0.
         66    2    3    3    0    0 -0.22745299948E+02  0.31108963025E+02 -0.97977993855E+02  0.10530338799E+03  0.19999981240E+01 0.  0.
         13    1    3    3    0    0  0.22745299948E+02 -0.31108963025E+02 -0.10776750518E+03  0.11445069938E+03  0.10566000000E+00 0. -1.
         13    1    4    4    0    0 -0.12984711449E+02  0.17457086374E+02 -0.55965550465E+02  0.60045870790E+02  0.10566000000E+00 0. -1.
        -13    1    4    4    0    0 -0.24931568705E+01  0.39781995568E+01 -0.13055060054E+02  0.13873992214E+02  0.10566000000E+00 0.  1.
         14    1    4    4    0    0 -0.72674316286E+01  0.96736770934E+01 -0.28957383335E+02  0.31383524987E+02  0.00000000000E+00 0. -1.
<mgrwt>
<rscale>  0 0.77205236E+02</rscale>
<asrwt>0</asrwt>
<pdfrwt beam="1">  1        1 0.32730733E-01 0.77205236E+02</pdfrwt>
<pdfrwt beam="2">  1       -2 0.10775839E-02 0.77205236E+02</pdfrwt>
<totfact> 0.18540945E+05</totfact>
</mgrwt>
</event>
<event>
 8    1  0.1241100E-020  0.7924280E+02  0.7818608E-02  0.1331214E+00
          1   -1    0    0  501    0  0.00000000000E+00  0.00000000000E+00  0.55304324890E+02  0.55304325119E+02  0.50400000000E-02 0. -1.
         -2   -1    0    0    0  501 -0.00000000000E+00 -0.00000000000E+00 -0.28385760935E+02  0.28385761050E+02  0.25500000000E-02 0.  1.
        -24    2    1    2    0    0  0.00000000000E+00  0.17763568394E-14  0.26918563955E+02  0.83690086169E+02  0.79242800541E+02 0.  0.
         66    2    3    3    0    0  0.31614490423E+02  0.15395341727E+02 -0.57570129180E+01  0.35688033717E+02  0.20000003170E+01 0.  0.
         13    1    3    3    0    0 -0.31614490423E+02 -0.15395341727E+02  0.32675576873E+02  0.48002052452E+02  0.10566000000E+00 0. -1.
         13    1    4    4    0    0  0.54698345647E+01  0.27060911586E+01 -0.13945379666E+01  0.62608242029E+01  0.10566000000E+00 0. -1.
        -13    1    4    4    0    0  0.87760743521E+01  0.36246897116E+01 -0.98729653889E+00  0.95469248992E+01  0.10566000000E+00 0.  1.
         14    1    4    4    0    0  0.17368581506E+02  0.90645608566E+01 -0.33751784126E+01  0.19880284615E+02  0.00000000000E+00 0. -1.
<mgrwt>
<rscale>  0 0.79242801E+02</rscale>
<asrwt>0</asrwt>
<pdfrwt beam="1">  1        1 0.85083576E-02 0.79242801E+02</pdfrwt>
<pdfrwt beam="2">  1       -2 0.43670402E-02 0.79242801E+02</pdfrwt>
<totfact> 0.13723039E+05</totfact>
</mgrwt>
</event>
<event>
 8    1  0.1241100E-020  0.7955836E+02  0.7818608E-02  0.1330309E+00
         -2   -1    0    0    0  501 -0.00000000000E+00  0.00000000000E+00  0.75195168184E+01  0.75195172508E+01  0.25500000000E-02 0.  1.
          1   -1    0    0  501    0  0.00000000000E+00 -0.00000000000E+00 -0.21043683106E+03  0.21043683112E+03  0.50400000000E-02 0. -1.
        -24    2    1    2    0    0  0.00000000000E+00  0.00000000000E+00 -0.20291731425E+03  0.21795634838E+03  0.79558364591E+02 0.  0.
         66    2    3    3    0    0 -0.35500110918E+02  0.15933526437E+02 -0.12382000874E+03  0.12980573838E+03  0.20000031357E+01 0.  0.
         13    1    3    3    0    0  0.35500110918E+02 -0.15933526437E+02 -0.79097305506E+02  0.88150609994E+02  0.10566000000E+00 0. -1.
         13    1    4    4    0    0 -0.36902996628E+01  0.21055689234E+01 -0.13974719026E+02  0.14606699421E+02  0.10566000000E+00 0. -1.
        -13    1    4    4    0    0 -0.81857880104E+01  0.41283138157E+01 -0.29834842492E+02  0.31211842158E+02  0.10566000000E+00 0.  1.
         14    1    4    4    0    0 -0.23624023245E+02  0.96996436978E+01 -0.80010447222E+02  0.83987196803E+02  0.00000000000E+00 0. -1.
<mgrwt>
<rscale>  0 0.79558365E+02</rscale>
<asrwt>0</asrwt>
<pdfrwt beam="1">  1        1 0.32374893E-01 0.79558365E+02</pdfrwt>
<pdfrwt beam="2">  1       -2 0.11568489E-02 0.79558365E+02</pdfrwt>
<totfact> 0.17088676E+05</totfact>
</mgrwt>
</event>
<event>
 8    1  0.1241100E-020  0.8014761E+02  0.7818608E-02  0.1328633E+00
          1   -1    0    0  501    0  0.00000000000E+00  0.00000000000E+00  0.70825306253E+02  0.70825306432E+02  0.50400000000E-02 0. -1.
         -2   -1    0    0    0  501 -0.00000000000E+00 -0.00000000000E+00 -0.22674235349E+02  0.22674235492E+02  0.25500000000E-02 0.  1.
        -24    2    1    2    0    0  0.00000000000E+00  0.00000000000E+00  0.48151070904E+02  0.93499541924E+02  0.80147605771E+02 0.  0.
         66    2    3    3    0    0  0.27965997785E+02  0.11543278151E+02 -0.65213912939E+01  0.31014074899E+02  0.19999987154E+01 0.  0.
         13    1    3    3    0    0 -0.27965997785E+02 -0.11543278151E+02  0.54672462197E+02  0.62485467025E+02  0.10566000000E+00 0. -1.
         13    1    4    4    0    0  0.10257134814E+02  0.49350638300E+01 -0.22187025749E+01  0.11597304633E+02  0.10566000000E+00 0. -1.
        -13    1    4    4    0    0  0.15979411149E+02  0.60718218267E+01 -0.42016606541E+01  0.17603230308E+02  0.10566000000E+00 0.  1.
         14    1    4    4    0    0  0.17294518219E+01  0.53639249420E+00 -0.10102806486E+00  0.18135399587E+01  0.00000000000E+00 0. -1.
<mgrwt>
<rscale>  0 0.80147606E+02</rscale>
<asrwt>0</asrwt>
<pdfrwt beam="1">  1        1 0.10896201E-01 0.80147606E+02</pdfrwt>
<pdfrwt beam="2">  1       -2 0.34883439E-02 0.80147606E+02</pdfrwt>
<totfact> 0.13826463E+05</totfact>
</mgrwt>
</event>
<event>
 8    1  0.1241100E-020  0.8205002E+02  0.7818608E-02  0.1323332E+00
         -2   -1    0    0    0  501 -0.00000000000E+00  0.00000000000E+00  0.53696437440E+03  0.53696437441E+03  0.25500000000E-02 0.  1.
          1   -1    0    0  501    0  0.00000000000E+00 -0.00000000000E+00 -0.31343802886E+01  0.31343843407E+01  0.50400000000E-02 0. -1.
        -24    2    1    2    0    0  0.35527136788E-14  0.00000000000E+00  0.53382999411E+03  0.54009875875E+03  0.82050024905E+02 0.  0.
         66    2    3    3    0    0  0.27618515077E+02 -0.30131134630E+02  0.28827980397E+03  0.29116990407E+03  0.20000022358E+01 0.  0.
         13    1    3    3    0    0 -0.27618515077E+02  0.30131134630E+02  0.24555019015E+03  0.24892885468E+03  0.10566000000E+00 0. -1.
         13    1    4    4    0    0  0.16843338934E+01 -0.17173825943E+01  0.15068070373E+02  0.15259236299E+02  0.10566000000E+00 0. -1.
        -13    1    4    4    0    0  0.22654635295E+02 -0.25336213218E+02  0.23898721303E+03  0.24139191237E+03  0.10566000000E+00 0.  1.
         14    1    4    4    0    0  0.32795458882E+01 -0.30775388175E+01  0.34224520561E+02  0.34518755396E+02  0.00000000000E+00 0. -1.
<mgrwt>
<rscale>  0 0.82050025E+02</rscale>
<asrwt>0</asrwt>
<pdfrwt beam="1">  1        1 0.48221246E-03 0.82050025E+02</pdfrwt>
<pdfrwt beam="2">  1       -2 0.82609940E-01 0.82050025E+02</pdfrwt>
<totfact> 0.44629004E+04</totfact>
</mgrwt>
</event>
<event>
 8    1  0.1241100E-020  0.8114670E+02  0.7818608E-02  0.1325828E+00
         -2   -1    0    0    0  501 -0.00000000000E+00  0.00000000000E+00  0.15236814649E+02  0.15236814862E+02  0.25500000000E-02 0.  1.
          1   -1    0    0  501    0  0.00000000000E+00 -0.00000000000E+00 -0.10804072969E+03  0.10804072981E+03  0.50400000000E-02 0. -1.
        -24    2    1    2    0    0  0.17763568394E-14  0.00000000000E+00 -0.92803915043E+02  0.12327754467E+03  0.81146696624E+02 0.  0.
         66    2    3    3    0    0  0.15537952203E+02 -0.35575214990E+02 -0.64222653868E+02  0.75070454585E+02  0.20000003801E+01 0.  0.
         13    1    3    3    0    0 -0.15537952203E+02  0.35575214990E+02 -0.28581261175E+02  0.48207090087E+02  0.10566000000E+00 0. -1.
         13    1    4    4    0    0  0.34241188817E+01 -0.69932724522E+01 -0.12342745973E+02  0.14594005342E+02  0.10566000000E+00 0.  1.
        -13    1    4    4    0    0  0.81306918722E+01 -0.20173400840E+02 -0.37403950400E+02  0.43268243798E+02  0.10566000000E+00 0.  1.
        -14    1    4    4    0    0  0.39831414495E+01 -0.84085416973E+01 -0.14475957495E+02  0.17208205446E+02  0.00000000000E+00 0.  1.
<mgrwt>
<rscale>  0 0.81146697E+02</rscale>
<asrwt>0</asrwt>
<pdfrwt beam="1">  1        1 0.16621650E-01 0.81146697E+02</pdfrwt>
<pdfrwt beam="2">  1       -2 0.23441254E-02 0.81146697E+02</pdfrwt>
<totfact> 0.14332056E+05</totfact>
</mgrwt>
</event>
<event>
 8    1  0.1241100E-020  0.8193929E+02  0.7818608E-02  0.1323636E+00
         -2   -1    0    0    0  501 -0.00000000000E+00  0.00000000000E+00  0.10590551668E+03  0.10590551671E+03  0.25500000000E-02 0.  1.
          1   -1    0    0  501    0  0.00000000000E+00 -0.00000000000E+00 -0.15849142300E+02  0.15849143102E+02  0.50400000000E-02 0. -1.
        -24    2    1    2    0    0 -0.71054273576E-14  0.00000000000E+00  0.90056374380E+02  0.12175465981E+03  0.81939286180E+02 0.  0.
         66    2    3    3    0    0 -0.30054493296E+02  0.10233254556E+02  0.83474186904E+02  0.89330464802E+02  0.19999990791E+01 0.  0.
         13    1    3    3    0    0  0.30054493296E+02 -0.10233254556E+02  0.65821874756E+01  0.32424195011E+02  0.10566000000E+00 0. -1.
         13    1    4    4    0    0 -0.21444518750E+01  0.37952552219E+00  0.65954162784E+01  0.69464662518E+01  0.10566000000E+00 0. -1.
        -13    1    4    4    0    0 -0.10251284306E+02  0.34054704600E+01  0.27109089383E+02  0.29182185493E+02  0.10566000000E+00 0.  1.
        -14    1    4    4    0    0 -0.17658757116E+02  0.64482585737E+01  0.49769681243E+02  0.53201813057E+02  0.00000000000E+00 0.  1.
<mgrwt>
<rscale>  0 0.81939286E+02</rscale>
<asrwt>0</asrwt>
<pdfrwt beam="1">  1        1 0.24383296E-02 0.81939286E+02</pdfrwt>
<pdfrwt beam="2">  1       -2 0.16293157E-01 0.81939286E+02</pdfrwt>
<totfact> 0.98369937E+04</totfact>
</mgrwt>
</event>
<event>
 8    1  0.1241100E-020  0.8133830E+02  0.7818608E-02  0.1325296E+00
          1   -1    0    0  501    0  0.00000000000E+00  0.00000000000E+00  0.37709657962E+02  0.37709658299E+02  0.50400000000E-02 0. -1.
         -2   -1    0    0    0  501 -0.00000000000E+00 -0.00000000000E+00 -0.43860910355E+02  0.43860910429E+02  0.25500000000E-02 0.  1.
        -24    2    1    2    0    0  0.17763568394E-14 -0.35527136788E-14 -0.61512523927E+01  0.81570568728E+02  0.81338304486E+02 0.  0.
         66    2    3    3    0    0 -0.14844077684E+02 -0.31244159380E+02  0.18324284045E+02  0.39195963295E+02  0.20000038078E+01 0.  0.
         13    1    3    3    0    0  0.14844077684E+02  0.31244159380E+02 -0.24475536437E+02  0.42374605433E+02  0.10566000000E+00 0. -1.
         13    1    4    4    0    0 -0.11146045242E+01 -0.29647913549E+01  0.21194464618E+01  0.38125514244E+01  0.10566000000E+00 0. -1.
        -13    1    4    4    0    0 -0.34502581369E+01 -0.60996847895E+01  0.36185108539E+01  0.78876625547E+01  0.10566000000E+00 0.  1.
        -14    1    4    4    0    0 -0.10279215023E+02 -0.22179683236E+02  0.12586326729E+02  0.27495749316E+02  0.00000000000E+00 0.  1.
<mgrwt>
<rscale>  0 0.81338304E+02</rscale>
<asrwt>0</asrwt>
<pdfrwt beam="1">  1        1 0.58014859E-02 0.81338304E+02</pdfrwt>
<pdfrwt beam="2">  1       -2 0.67478324E-02 0.81338304E+02</pdfrwt>
<totfact> 0.11998246E+05</totfact>
</mgrwt>
</event>
<event>
 8    1  0.1241100E-020  0.7972412E+02  0.7818608E-02  0.1329836E+00
         -2   -1    0    0    0  501 -0.00000000000E+00  0.00000000000E+00  0.95651159670E+01  0.95651163069E+01  0.25500000000E-02 0.  1.
          1   -1    0    0  501    0  0.00000000000E+00 -0.00000000000E+00 -0.16612281256E+03  0.16612281263E+03  0.50400000000E-02 0. -1.
        -24    2    1    2    0    0  0.00000000000E+00  0.35527136788E-14 -0.15655769659E+03  0.17568792894E+03  0.79724124415E+02 0.  0.
         66    2    3    3    0    0  0.87643616204E+01 -0.25448299168E+02 -0.13607145068E+02  0.30225558172E+02  0.20000011884E+01 0.  0.
         13    1    3    3    0    0 -0.87643616204E+01  0.25448299168E+02 -0.14295055152E+03  0.14546237077E+03  0.10566000000E+00 0. -1.
         13    1    4    4    0    0  0.31885660302E+01 -0.11004311271E+02 -0.61650064515E+01  0.13010775859E+02  0.10566000000E+00 0. -1.
        -13    1    4    4    0    0  0.34927476622E+01 -0.10075161866E+02 -0.55106086894E+01  0.12003588839E+02  0.10566000000E+00 0.  1.
        -14    1    4    4    0    0  0.20830479279E+01 -0.43688260308E+01 -0.19315299271E+01  0.52111934733E+01  0.00000000000E+00 0.  1.
<mgrwt>
<rscale>  0 0.79724124E+02</rscale>
<asrwt>0</asrwt>
<pdfrwt beam="1">  1        1 0.25557354E-01 0.79724124E+02</pdfrwt>
<pdfrwt beam="2">  1       -2 0.14715565E-02 0.79724124E+02</pdfrwt>
<totfact> 0.16240537E+05</totfact>
</mgrwt>
</event>
<event>
 8    1  0.1241100E-020  0.8469112E+02  0.7818608E-02  0.1316242E+00
         -2   -1    0    0    0  501 -0.00000000000E+00  0.00000000000E+00  0.17689568961E+02  0.17689569145E+02  0.25500000000E-02 0.  1.
          1   -1    0    0  501    0  0.00000000000E+00 -0.00000000000E+00 -0.10136743935E+03  0.10136743948E+03  0.50400000000E-02 0. -1.
        -24    2    1    2    0    0  0.00000000000E+00 -0.71054273576E-14 -0.83677870390E+02  0.11905700862E+03  0.84691117060E+02 0.  0.
         66    2    3    3    0    0 -0.11024212180E+02  0.35342322731E+02 -0.13034190338E+02  0.39300167375E+02  0.20000019370E+01 0.  0.
         13    1    3    3    0    0  0.11024212180E+02 -0.35342322731E+02 -0.70643680052E+02  0.79756841246E+02  0.10566000000E+00 0. -1.
         13    1    4    4    0    0 -0.15002274762E+01  0.41909122144E+01 -0.21197641437E+01  0.49314289744E+01  0.10566000000E+00 0. -1.
        -13    1    4    4    0    0 -0.34713081488E+01  0.10130000353E+02 -0.38824974211E+01  0.11390866415E+02  0.10566000000E+00 0.  1.
         14    1    4    4    0    0 -0.60526765552E+01  0.21021410164E+02 -0.70319287734E+01  0.22977871986E+02  0.00000000000E+00 0. -1.
<mgrwt>
<rscale>  0 0.84691117E+02</rscale>
<asrwt>0</asrwt>
<pdfrwt beam="1">  1        1 0.15594990E-01 0.84691117E+02</pdfrwt>
<pdfrwt beam="2">  1       -2 0.27214722E-02 0.84691117E+02</pdfrwt>
<totfact> 0.12623399E+05</totfact>
</mgrwt>
</event>
<event>
 8    1  0.1241100E-020  0.7922048E+02  0.7818608E-02  0.1331278E+00
         -2   -1    0    0    0  501 -0.00000000000E+00  0.00000000000E+00  0.75355862776E+02  0.75355862819E+02  0.25500000000E-02 0.  1.
          1   -1    0    0  501    0  0.00000000000E+00 -0.00000000000E+00 -0.20820821664E+02  0.20820822274E+02  0.50400000000E-02 0. -1.
        -24    2    1    2    0    0  0.00000000000E+00  0.00000000000E+00  0.54535041112E+02  0.96176685093E+02  0.79220477443E+02 0.  0.
         66    2    3    3    0    0 -0.31074986217E+02  0.44172015678E+01  0.56568087131E+02  0.64723372417E+02  0.20000043260E+01 0.  0.
         13    1    3    3    0    0  0.31074986217E+02 -0.44172015678E+01 -0.20330460186E+01  0.31453312675E+02  0.10566000000E+00 0. -1.
         13    1    4    4    0    0 -0.42742862410E+01  0.27543364046E+00  0.83592321497E+01  0.93932588982E+01  0.10566000000E+00 0. -1.
        -13    1    4    4    0    0 -0.17553296442E+02  0.32643157660E+01  0.30982742565E+02  0.35759131341E+02  0.10566000000E+00 0.  1.
        -14    1    4    4    0    0 -0.92474035341E+01  0.87745216126E+00  0.17226112416E+02  0.19570982178E+02  0.00000000000E+00 0.  1.
<mgrwt>
<rscale>  0 0.79220477E+02</rscale>
<asrwt>0</asrwt>
<pdfrwt beam="1">  1        1 0.32032033E-02 0.79220477E+02</pdfrwt>
<pdfrwt beam="2">  1       -2 0.11593210E-01 0.79220477E+02</pdfrwt>
<totfact> 0.11604452E+05</totfact>
</mgrwt>
</event>
<event>
 8    1  0.1241100E-020  0.7945290E+02  0.7818608E-02  0.1330611E+00
          1   -1    0    0  501    0  0.00000000000E+00  0.00000000000E+00  0.36520094418E+03  0.36520094421E+03  0.50400000000E-02 0. -1.
         -2   -1    0    0    0  501 -0.00000000000E+00 -0.00000000000E+00 -0.43214307272E+01  0.43214314795E+01  0.25500000000E-02 0.  1.
        -24    2    1    2    0    0  0.00000000000E+00 -0.35527136788E-14  0.36087951345E+03  0.36952237569E+03  0.79452897422E+02 0.  0.
         66    2    3    3    0    0 -0.33618665086E+02  0.20213443255E+02  0.15211595663E+03  0.15710525832E+03  0.20000003416E+01 0.  0.
         13    1    3    3    0    0  0.33618665086E+02 -0.20213443255E+02  0.20876355683E+03  0.21241711737E+03  0.10566000000E+00 0. -1.
         13    1    4    4    0    0 -0.63604748823E+01  0.37619542611E+01  0.31470527512E+02  0.32326664018E+02  0.10566000000E+00 0. -1.
        -13    1    4    4    0    0 -0.14438446669E+02  0.82997133472E+01  0.62235842754E+02  0.64425656933E+02  0.10566000000E+00 0.  1.
         14    1    4    4    0    0 -0.12819743534E+02  0.81517756464E+01  0.58409586360E+02  0.60352937371E+02  0.00000000000E+00 0. -1.
<mgrwt>
<rscale>  0 0.79452897E+02</rscale>
<asrwt>0</asrwt>
<pdfrwt beam="1">  1        1 0.56184749E-01 0.79452897E+02</pdfrwt>
<pdfrwt beam="2">  1       -2 0.66483570E-03 0.79452897E+02</pdfrwt>
<totfact> 0.19043242E+05</totfact>
</mgrwt>
</event>
<event>
 8    1  0.1241100E-020  0.7904565E+02  0.7818608E-02  0.1331782E+00
          1   -1    0    0  501    0  0.00000000000E+00  0.00000000000E+00  0.89064821434E+03  0.89064821435E+03  0.50400000000E-02 0. -1.
         -2   -1    0    0    0  501 -0.00000000000E+00 -0.00000000000E+00 -0.17538383584E+01  0.17538402122E+01  0.25500000000E-02 0.  1.
        -24    2    1    2    0    0  0.35527136788E-14 -0.88817841970E-15  0.88889437598E+03  0.89240205457E+03  0.79045653535E+02 0.  0.
         66    2    3    3    0    0  0.24621134016E+02 -0.61905245682E+01  0.78633096866E+03  0.78674323326E+03  0.19999926508E+01 0.  0.
         13    1    3    3    0    0 -0.24621134016E+02  0.61905245682E+01  0.10256340733E+03  0.10565882131E+03  0.10566000000E+00 0. -1.
         13    1    4    4    0    0  0.11802312253E+02 -0.30869012955E+01  0.40024023860E+03  0.40042612714E+03  0.10566000000E+00 0. -1.
        -13    1    4    4    0    0  0.12763551430E+02 -0.31545616306E+01  0.38398805386E+03  0.38421308694E+03  0.10566000000E+00 0.  1.
         14    1    4    4    0    0  0.55270332494E-01  0.50938357828E-01  0.21026761944E+01  0.21040191787E+01  0.00000000000E+00 0. -1.
<mgrwt>
<rscale>  0 0.79045654E+02</rscale>
<asrwt>0</asrwt>
<pdfrwt beam="1">  1        1 0.13702294E+00 0.79045654E+02</pdfrwt>
<pdfrwt beam="2">  1       -2 0.26982115E-03 0.79045654E+02</pdfrwt>
<totfact> 0.20260692E+05</totfact>
</mgrwt>
</event>
<event>
 8    1  0.1241100E-020  0.8350066E+02  0.7818608E-02  0.1319401E+00
         -2   -1    0    0    0  501 -0.00000000000E+00  0.00000000000E+00  0.73707024910E+01  0.73707029321E+01  0.25500000000E-02 0.  1.
          1   -1    0    0  501    0  0.00000000000E+00 -0.00000000000E+00 -0.23648898837E+03  0.23648898842E+03  0.50400000000E-02 0. -1.
        -24    2    1    2    0    0  0.00000000000E+00  0.00000000000E+00 -0.22911828588E+03  0.24385969136E+03  0.83500659543E+02 0.  0.
         66    2    3    3    0    0 -0.25045771616E+00  0.37116250886E+02 -0.58951467210E+02  0.69691852336E+02  0.19999967185E+01 0.  0.
         13    1    3    3    0    0  0.25045771616E+00 -0.37116250886E+02 -0.17016681867E+03  0.17416783902E+03  0.10566000000E+00 0. -1.
         13    1    4    4    0    0 -0.19140340226E+00  0.14430633706E+02 -0.21797421278E+02  0.26142275395E+02  0.10566000000E+00 0. -1.
        -13    1    4    4    0    0 -0.15837782326E+00  0.50093031630E+01 -0.73181536200E+01  0.88704418241E+01  0.10566000000E+00 0.  1.
        -14    1    4    4    0    0  0.99323509360E-01  0.17676314018E+02 -0.29835892312E+02  0.34679135117E+02  0.00000000000E+00 0.  1.
<mgrwt>
<rscale>  0 0.83500660E+02</rscale>
<asrwt>0</asrwt>
<pdfrwt beam="1">  1        1 0.36382916E-01 0.83500660E+02</pdfrwt>
<pdfrwt beam="2">  1       -2 0.11339544E-02 0.83500660E+02</pdfrwt>
<totfact> 0.15377384E+05</totfact>
</mgrwt>
</event>
<event>
 8    1  0.1241100E-020  0.7880408E+02  0.7818608E-02  0.1332480E+00
         -2   -1    0    0    0  501 -0.00000000000E+00  0.00000000000E+00  0.25575954364E+02  0.25575954491E+02  0.25500000000E-02 0.  1.
          1   -1    0    0  501    0  0.00000000000E+00 -0.00000000000E+00 -0.60702360610E+02  0.60702360820E+02  0.50400000000E-02 0. -1.
        -24    2    1    2    0    0  0.35527136788E-14  0.00000000000E+00 -0.35126406246E+02  0.86278315311E+02  0.78804081602E+02 0.  0.
         66    2    3    3    0    0 -0.24611790924E+02  0.19283647960E+02  0.86313883694E+01  0.32497695336E+02  0.20000014583E+01 0.  0.
         13    1    3    3    0    0  0.24611790924E+02 -0.19283647960E+02 -0.43757794616E+02  0.53780619974E+02  0.10566000000E+00 0. -1.
         13    1    4    4    0    0 -0.26758184407E+01  0.22298093477E+01  0.10294587856E+01  0.36335937419E+01  0.10566000000E+00 0.  1.
        -13    1    4    4    0    0 -0.54310893929E+01  0.50454418686E+01  0.25136990542E+01  0.78283499292E+01  0.10566000000E+00 0. -1.
        -14    1    4    4    0    0 -0.16504883091E+02  0.12008396744E+02  0.50882305296E+01  0.21035751665E+02  0.00000000000E+00 0.  1.
<mgrwt>
<rscale>  0 0.78804082E+02</rscale>
<asrwt>0</asrwt>
<pdfrwt beam="1">  1        1 0.93388248E-02 0.78804082E+02</pdfrwt>
<pdfrwt beam="2">  1       -2 0.39347622E-02 0.78804082E+02</pdfrwt>
<totfact> 0.14137092E+05</totfact>
</mgrwt>
</event>
<event>
 8    1  0.1241100E-020  0.8245668E+02  0.7818608E-02  0.1322221E+00
          1   -1    0    0  501    0  0.00000000000E+00  0.00000000000E+00  0.22523495440E+03  0.22523495446E+03  0.50400000000E-02 0. -1.
         -2   -1    0    0    0  501 -0.00000000000E+00 -0.00000000000E+00 -0.75466798212E+01  0.75466802520E+01  0.25500000000E-02 0.  1.
        -24    2    1    2    0    0  0.00000000000E+00  0.71054273576E-14  0.21768827458E+03  0.23278163471E+03  0.82456682983E+02 0.  0.
         66    2    3    3    0    0  0.19897657165E+02 -0.35387723789E+02  0.12878281965E+03  0.13504526054E+03  0.20000003942E+01 0.  0.
         13    1    3    3    0    0 -0.19897657165E+02  0.35387723789E+02  0.88905454933E+02  0.97736374173E+02  0.10566000000E+00 0. -1.
         13    1    4    4    0    0  0.68276955516E+01 -0.11766612677E+02  0.45124132500E+02  0.47130341590E+02  0.10566000000E+00 0. -1.
        -13    1    4    4    0    0  0.16510229448E+01 -0.32872822336E+01  0.12682272825E+02  0.13205427266E+02  0.10566000000E+00 0.  1.
        -14    1    4    4    0    0  0.11418938668E+02 -0.20333828879E+02  0.70976414324E+02  0.74709491683E+02  0.00000000000E+00 0.  1.
<mgrwt>
<rscale>  0 0.82456683E+02</rscale>
<asrwt>0</asrwt>
<pdfrwt beam="1">  1        1 0.34651533E-01 0.82456683E+02</pdfrwt>
<pdfrwt beam="2">  1       -2 0.11610277E-02 0.82456683E+02</pdfrwt>
<totfact> 0.15748393E+05</totfact>
</mgrwt>
</event>
<event>
 8    1  0.1241100E-020  0.7798788E+02  0.7818608E-02  0.1334860E+00
         -2   -1    0    0    0  501 -0.00000000000E+00  0.00000000000E+00  0.50160372090E+02  0.50160372154E+02  0.25500000000E-02 0.  1.
          1   -1    0    0  501    0  0.00000000000E+00 -0.00000000000E+00 -0.30313320285E+02  0.30313320704E+02  0.50400000000E-02 0. -1.
        -24    2    1    2    0    0  0.00000000000E+00  0.71054273576E-14  0.19847051804E+02  0.80473692858E+02  0.77987882244E+02 0.  0.
         66    2    3    3    0    0 -0.14543292737E+02  0.32473279645E+02  0.26326814494E+02  0.44307137270E+02  0.19999992864E+01 0.  0.
         13    1    3    3    0    0  0.14543292737E+02 -0.32473279645E+02 -0.64797626892E+01  0.36166555588E+02  0.10566000000E+00 0. -1.
         13    1    4    4    0    0 -0.42152966889E+01  0.10383688191E+02  0.89644215955E+01  0.14351366667E+02  0.10566000000E+00 0. -1.
        -13    1    4    4    0    0 -0.26988260346E+01  0.56509514456E+01  0.38754491270E+01  0.73652687783E+01  0.10566000000E+00 0.  1.
        -14    1    4    4    0    0 -0.76291700139E+01  0.16438640008E+02  0.13486943771E+02  0.22590501825E+02  0.00000000000E+00 0.  1.
<mgrwt>
<rscale>  0 0.77987882E+02</rscale>
<asrwt>0</asrwt>
<pdfrwt beam="1">  1        1 0.46635878E-02 0.77987882E+02</pdfrwt>
<pdfrwt beam="2">  1       -2 0.77169803E-02 0.77987882E+02</pdfrwt>
<totfact> 0.13034086E+05</totfact>
</mgrwt>
</event>
<event>
 8    1  0.1241100E-020  0.8430580E+02  0.7818608E-02  0.1317258E+00
          1   -1    0    0  501    0  0.00000000000E+00  0.00000000000E+00  0.99728956682E+02  0.99728956809E+02  0.50400000000E-02 0. -1.
         -2   -1    0    0    0  501 -0.00000000000E+00 -0.00000000000E+00 -0.17816959696E+02  0.17816959878E+02  0.25500000000E-02 0.  1.
        -24    2    1    2    0    0  0.00000000000E+00  0.00000000000E+00  0.81911996986E+02  0.11754591669E+03  0.84305796239E+02 0.  0.
         66    2    3    3    0    0 -0.18037662484E+02 -0.16568025229E+01 -0.12054271953E+02  0.21849662190E+02  0.20000007460E+01 0.  0.
         13    1    3    3    0    0  0.18037662484E+02  0.16568025229E+01  0.93966268939E+02  0.95696254497E+02  0.10566000000E+00 0. -1.
         13    1    4    4    0    0 -0.44756015038E+01 -0.12619046210E+00 -0.27005383030E+01  0.52298187363E+01  0.10566000000E+00 0. -1.
        -13    1    4    4    0    0 -0.10068796352E+02 -0.91231035116E+00 -0.76831183701E+01  0.12698600004E+02  0.10566000000E+00 0.  1.
        -14    1    4    4    0    0 -0.34932646288E+01 -0.61830170965E+00 -0.16706152799E+01  0.39212434487E+01  0.00000000000E+00 0.  1.
<mgrwt>
<rscale>  0 0.84305796E+02</rscale>
<asrwt>0</asrwt>
<pdfrwt beam="1">  1        1 0.15342917E-01 0.84305796E+02</pdfrwt>
<pdfrwt beam="2">  1       -2 0.27410707E-02 0.84305796E+02</pdfrwt>
<totfact> 0.12745029E+05</totfact>
</mgrwt>
</event>
<event>
 8    1  0.1241100E-020  0.7810167E+02  0.7818608E-02  0.1334527E+00
         -2   -1    0    0    0  501 -0.00000000000E+00  0.00000000000E+00  0.20911563140E+02  0.20911563296E+02  0.25500000000E-02 0.  1.
          1   -1    0    0  501    0  0.00000000000E+00 -0.00000000000E+00 -0.72924609027E+02  0.72924609201E+02  0.50400000000E-02 0. -1.
        -24    2    1    2    0    0 -0.35527136788E-14  0.00000000000E+00 -0.52013045886E+02  0.93836172497E+02  0.78101666605E+02 0.  0.
         66    2    3    3    0    0  0.21917613565E+02 -0.32197328002E+02 -0.28945067739E+02  0.48568165088E+02  0.19999996832E+01 0.  0.
         13    1    3    3    0    0 -0.21917613565E+02  0.32197328002E+02 -0.23067978147E+02  0.45268007408E+02  0.10566000000E+00 0. -1.
         13    1    4    4    0    0  0.83393979346E+01 -0.12729041648E+02 -0.11711961229E+02  0.19203001303E+02  0.10566000000E+00 0. -1.
        -13    1    4    4    0    0  0.33766248629E+01 -0.45934397139E+01 -0.34463973162E+01  0.66625897643E+01  0.10566000000E+00 0.  1.
        -14    1    4    4    0    0  0.10201590768E+02 -0.14874846640E+02 -0.13786709194E+02  0.22702574021E+02  0.00000000000E+00 0.  1.
<mgrwt>
<rscale>  0 0.78101667E+02</rscale>
<asrwt>0</asrwt>
<pdfrwt beam="1">  1        1 0.11219171E-01 0.78101667E+02</pdfrwt>
<pdfrwt beam="2">  1       -2 0.32171636E-02 0.78101667E+02</pdfrwt>
<totfact> 0.14906515E+05</totfact>
</mgrwt>
</event>
<event>
 8    1  0.1241100E-020  0.7972381E+02  0.7818608E-02  0.1329837E+00
          1   -1    0    0  501    0  0.00000000000E+00  0.00000000000E+00  0.30753953117E+03  0.30753953121E+03  0.50400000000E-02 0. -1.
         -2   -1    0    0    0  501 -0.00000000000E+00 -0.00000000000E+00 -0.51667217603E+01  0.51667223896E+01  0.25500000000E-02 0.  1.
        -24    2    1    2    0    0  0.00000000000E+00  0.35527136788E-14  0.30237280941E+03  0.31270625360E+03  0.79723805547E+02 0.  0.
         66    2    3    3    0    0 -0.31661085331E+02 -0.23463107439E+02  0.12840186363E+03  0.13432788362E+03  0.20000002701E+01 0.  0.
         13    1    3    3    0    0  0.31661085331E+02  0.23463107439E+02  0.17397094578E+03  0.17837836998E+03  0.10566000000E+00 0. -1.
         13    1    4    4    0    0 -0.77260034201E+01 -0.62925688385E+01  0.33986651539E+02  0.35417385538E+02  0.10566000000E+00 0. -1.
        -13    1    4    4    0    0 -0.93440619624E+01 -0.69742426646E+01  0.39108036775E+02  0.40809328090E+02  0.10566000000E+00 0.  1.
        -14    1    4    4    0    0 -0.14591019948E+02 -0.10196295935E+02  0.55307175313E+02  0.58101169997E+02  0.00000000000E+00 0.  1.
<mgrwt>
<rscale>  0 0.79723806E+02</rscale>
<asrwt>0</asrwt>
<pdfrwt beam="1">  1        1 0.47313770E-01 0.79723806E+02</pdfrwt>
<pdfrwt beam="2">  1       -2 0.79488039E-03 0.79723806E+02</pdfrwt>
<totfact> 0.18292670E+05</totfact>
</mgrwt>
</event>
<event>
 8    1  0.1241100E-020  0.8297522E+02  0.7818608E-02  0.1320814E+00
         -2   -1    0    0    0  501 -0.00000000000E+00  0.00000000000E+00  0.35847593639E+02  0.35847593729E+02  0.25500000000E-02 0.  1.
          1   -1    0    0  501    0  0.00000000000E+00 -0.00000000000E+00 -0.48014984940E+02  0.48014985204E+02  0.50400000000E-02 0. -1.
        -24    2    1    2    0    0 -0.88817841970E-15  0.00000000000E+00 -0.12167391301E+02  0.83862578934E+02  0.82975217592E+02 0.  0.
         66    2    3    3    0    0  0.77075497979E+01 -0.22110125747E+02  0.28497915761E+02  0.36937720416E+02  0.20000005897E+01 0.  0.
         13    1    3    3    0    0 -0.77075497979E+01  0.22110125747E+02 -0.40665307062E+02  0.46924858518E+02  0.10566000000E+00 0. -1.
         13    1    4    4    0    0  0.21394982880E+00 -0.30056886133E+00  0.31507594619E+00  0.49654109307E+00  0.10566000000E+00 0. -1.
        -13    1    4    4    0    0  0.46861670740E+01 -0.11837137506E+02  0.16075399634E+02  0.20506282540E+02  0.10566000000E+00 0.  1.
        -14    1    4    4    0    0  0.28074328952E+01 -0.99724193799E+01  0.12107440181E+02  0.15934896783E+02  0.00000000000E+00 0.  1.
<mgrwt>
<rscale>  0 0.82975218E+02</rscale>
<asrwt>0</asrwt>
<pdfrwt beam="1">  1        1 0.73869208E-02 0.82975218E+02</pdfrwt>
<pdfrwt beam="2">  1       -2 0.55150144E-02 0.82975218E+02</pdfrwt>
<totfact> 0.11804298E+05</totfact>
</mgrwt>
</event>
<event>
 8    1  0.1241100E-020  0.7874606E+02  0.7818608E-02  0.1332648E+00
         -2   -1    0    0    0  501 -0.00000000000E+00  0.00000000000E+00  0.93114665662E+02  0.93114665697E+02  0.25500000000E-02 0.  1.
          1   -1    0    0  501    0  0.00000000000E+00 -0.00000000000E+00 -0.16648669511E+02  0.16648670273E+02  0.50400000000E-02 0. -1.
        -24    2    1    2    0    0  0.00000000000E+00 -0.88817841970E-15  0.76465996152E+02  0.10976333597E+03  0.78746056129E+02 0.  0.
         66    2    3    3    0    0  0.35648553969E+02 -0.73138586846E+01  0.59115629470E+02  0.69447603099E+02  0.19999999194E+01 0.  0.
         13    1    3    3    0    0 -0.35648553969E+02  0.73138586846E+01  0.17350366682E+02  0.40315732872E+02  0.10566000000E+00 0. -1.
         13    1    4    4    0    0  0.23015630995E+02 -0.56075508180E+01  0.38596493577E+02  0.45286470129E+02  0.10566000000E+00 0. -1.
        -13    1    4    4    0    0  0.54529847828E+01 -0.52553357350E+00  0.89426985914E+01  0.10487814391E+02  0.10566000000E+00 0.  1.
         14    1    4    4    0    0  0.71799381909E+01 -0.11807742931E+01  0.11576437301E+02  0.13673318578E+02  0.00000000000E+00 0. -1.
<mgrwt>
<rscale>  0 0.78746056E+02</rscale>
<asrwt>0</asrwt>
<pdfrwt beam="1">  1        1 0.25613339E-02 0.78746056E+02</pdfrwt>
<pdfrwt beam="2">  1       -2 0.14325333E-01 0.78746056E+02</pdfrwt>
<totfact> 0.11243052E+05</totfact>
</mgrwt>
</event>
<event>
 8    1  0.1241100E-020  0.7983334E+02  0.7818608E-02  0.1329525E+00
          1   -1    0    0  501    0  0.00000000000E+00  0.00000000000E+00  0.27016059454E+02  0.27016059924E+02  0.50400000000E-02 0. -1.
         -2   -1    0    0    0  501 -0.00000000000E+00 -0.00000000000E+00 -0.58977533990E+02  0.58977534045E+02  0.25500000000E-02 0.  1.
        -24    2    1    2    0    0  0.00000000000E+00  0.00000000000E+00 -0.31961474536E+02  0.85993593970E+02  0.79833341088E+02 0.  0.
         66    2    3    3    0    0  0.13424127137E+02 -0.24789050146E+02 -0.46393324169E+02  0.54323519067E+02  0.19999999723E+01 0.  0.
         13    1    3    3    0    0 -0.13424127137E+02  0.24789050146E+02  0.14431849632E+02  0.31670074903E+02  0.10566000000E+00 0. -1.
         13    1    4    4    0    0  0.34663082685E+01 -0.60126523468E+01 -0.11123716552E+02  0.13111655701E+02  0.10566000000E+00 0.  1.
        -13    1    4    4    0    0  0.19830455188E+01 -0.24953432807E+01 -0.52876802103E+01  0.61749440208E+01  0.10566000000E+00 0. -1.
         14    1    4    4    0    0  0.79747733493E+01 -0.16281054518E+02 -0.29981927407E+02  0.35036919345E+02  0.00000000000E+00 0. -1.
<mgrwt>
<rscale>  0 0.79833341E+02</rscale>
<asrwt>0</asrwt>
<pdfrwt beam="1">  1        1 0.41563169E-02 0.79833341E+02</pdfrwt>
<pdfrwt beam="2">  1       -2 0.90734668E-02 0.79833341E+02</pdfrwt>
<totfact> 0.11939589E+05</totfact>
</mgrwt>
</event>
<event>
 8    1  0.1241100E-020  0.7906368E+02  0.7818608E-02  0.1331730E+00
          1   -1    0    0  501    0  0.00000000000E+00  0.00000000000E+00  0.51092817621E+02  0.51092817870E+02  0.50400000000E-02 0. -1.
         -2   -1    0    0    0  501 -0.00000000000E+00 -0.00000000000E+00 -0.30586813559E+02  0.30586813666E+02  0.25500000000E-02 0.  1.
        -24    2    1    2    0    0  0.35527136788E-14  0.00000000000E+00  0.20506004062E+02  0.81679631535E+02  0.79063683226E+02 0.  0.
         66    2    3    3    0    0  0.22435155046E+02  0.24127666325E+01 -0.23241845593E+02  0.32455215458E+02  0.19999997779E+01 0.  0.
         13    1    3    3    0    0 -0.22435155046E+02 -0.24127666325E+01  0.43747849655E+02  0.49224416078E+02  0.10566000000E+00 0. -1.
         13    1    4    4    0    0  0.43360443950E+01  0.60913319276E+00 -0.48723579070E+01  0.65515921616E+01  0.10566000000E+00 0. -1.
        -13    1    4    4    0    0  0.12146662991E+02  0.53195928658E+00 -0.12778675736E+02  0.17638880920E+02  0.10566000000E+00 0.  1.
        -14    1    4    4    0    0  0.59524476596E+01  0.12716741532E+01 -0.55908119495E+01  0.82647423763E+01  0.00000000000E+00 0.  1.
<mgrwt>
<rscale>  0 0.79063683E+02</rscale>
<asrwt>0</asrwt>
<pdfrwt beam="1">  1        1 0.78604335E-02 0.79063683E+02</pdfrwt>
<pdfrwt beam="2">  1       -2 0.47056636E-02 0.79063683E+02</pdfrwt>
<totfact> 0.13640438E+05</totfact>
</mgrwt>
</event>
<event>
 8    1  0.1241100E-020  0.8129238E+02  0.7818608E-02  0.1325423E+00
          1   -1    0    0  501    0  0.00000000000E+00  0.00000000000E+00  0.11596149659E+02  0.11596150755E+02  0.50400000000E-02 0. -1.
         -2   -1    0    0    0  501 -0.00000000000E+00 -0.00000000000E+00 -0.14247078877E+03  0.14247078879E+03  0.25500000000E-02 0.  1.
        -24    2    1    2    0    0  0.00000000000E+00  0.00000000000E+00 -0.13087463911E+03  0.15406693955E+03  0.81292377866E+02 0.  0.
         66    2    3    3    0    0 -0.21039572299E+02  0.14061182753E+02 -0.12569971703E+03  0.12823727742E+03  0.19999991195E+01 0.  0.
         13    1    3    3    0    0  0.21039572299E+02 -0.14061182753E+02 -0.51749220815E+01  0.25829662125E+02  0.10566000000E+00 0. -1.
         13    1    4    4    0    0 -0.11595965655E+02  0.70694858801E+01 -0.64139384204E+02  0.65561542234E+02  0.10566000000E+00 0. -1.
        -13    1    4    4    0    0 -0.63163466632E+01  0.42737335185E+01 -0.39439279837E+02  0.40170001139E+02  0.10566000000E+00 0.  1.
         14    1    4    4    0    0 -0.31272599803E+01  0.27179633542E+01 -0.22121052987E+02  0.22505734047E+02  0.00000000000E+00 0. -1.
<mgrwt>
<rscale>  0 0.81292378E+02</rscale>
<asrwt>0</asrwt>
<pdfrwt beam="1">  1        1 0.17840232E-02 0.81292378E+02</pdfrwt>
<pdfrwt beam="2">  1       -2 0.21918582E-01 0.81292378E+02</pdfrwt>
<totfact> 0.92211833E+04</totfact>
</mgrwt>
</event>
<event>
 8    1  0.1241100E-020  0.7900093E+02  0.7818608E-02  0.1331911E+00
         -2   -1    0    0    0  501 -0.00000000000E+00  0.00000000000E+00  0.86470018510E+02  0.86470018547E+02  0.25500000000E-02 0.  1.
          1   -1    0    0  501    0  0.00000000000E+00 -0.00000000000E+00 -0.18044251270E+02  0.18044251974E+02  0.50400000000E-02 0. -1.
        -24    2    1    2    0    0  0.17763568394E-14 -0.35527136788E-14  0.68425767240E+02  0.10451427052E+03  0.79000931135E+02 0.  0.
         66    2    3    3    0    0  0.14961535364E+02 -0.21095580474E+02  0.73689071123E+02  0.78121381559E+02  0.19999994570E+01 0.  0.
         13    1    3    3    0    0 -0.14961535364E+02  0.21095580474E+02 -0.52633038826E+01  0.26392888962E+02  0.10566000000E+00 0. -1.
         13    1    4    4    0    0  0.48907973630E+01 -0.78774023873E+01  0.27156503236E+02  0.28695996224E+02  0.10566000000E+00 0. -1.
        -13    1    4    4    0    0  0.41338122213E+01 -0.53798563780E+01  0.20758184503E+02  0.21839062389E+02  0.10566000000E+00 0.  1.
         14    1    4    4    0    0  0.59369257799E+01 -0.78383217082E+01  0.25774383383E+02  0.27586322946E+02  0.00000000000E+00 0. -1.
<mgrwt>
<rscale>  0 0.79000931E+02</rscale>
<asrwt>0</asrwt>
<pdfrwt beam="1">  1        1 0.27760387E-02 0.79000931E+02</pdfrwt>
<pdfrwt beam="2">  1       -2 0.13303080E-01 0.79000931E+02</pdfrwt>
<totfact> 0.11343328E+05</totfact>
</mgrwt>
</event>
<event>
 8    1  0.1241100E-020  0.7487388E+02  0.7818608E-02  0.1344262E+00
         -2   -1    0    0    0  501 -0.00000000000E+00  0.00000000000E+00  0.11554894813E+03  0.11554894816E+03  0.25500000000E-02 0.  1.
          1   -1    0    0  501    0  0.00000000000E+00 -0.00000000000E+00 -0.12129268959E+02  0.12129270006E+02  0.50400000000E-02 0. -1.
        -24    2    1    2    0    0  0.00000000000E+00 -0.17763568394E-14  0.10341967917E+03  0.12767821816E+03  0.74873876310E+02 0.  0.
         66    2    3    3    0    0  0.27624921800E+02 -0.89772461864E+01  0.91948175259E+02  0.96447883238E+02  0.19999985036E+01 0.  0.
         13    1    3    3    0    0 -0.27624921800E+02  0.89772461864E+01  0.11471503913E+02  0.31230334927E+02  0.10566000000E+00 0. -1.
         13    1    4    4    0    0  0.78628140254E-01  0.10794888970E-01  0.32953189583E+00  0.35504115259E+00  0.10566000000E+00 0.  1.
        -13    1    4    4    0    0  0.97256322957E+01 -0.33432439729E+01  0.33090818920E+02  0.34652253385E+02  0.10566000000E+00 0. -1.
        -14    1    4    4    0    0  0.17820661364E+02 -0.56447971025E+01  0.58527824443E+02  0.61440588700E+02  0.00000000000E+00 0.  1.
<mgrwt>
<rscale>  0 0.74873876E+02</rscale>
<asrwt>0</asrwt>
<pdfrwt beam="1">  1        1 0.18660414E-02 0.74873876E+02</pdfrwt>
<pdfrwt beam="2">  1       -2 0.17776761E-01 0.74873876E+02</pdfrwt>
<totfact> 0.12109637E+05</totfact>
</mgrwt>
</event>
<event>
 8    1  0.1241100E-020  0.8018239E+02  0.7818608E-02  0.1328535E+00
         -2   -1    0    0    0  501 -0.00000000000E+00  0.00000000000E+00  0.10550330487E+04  0.10550330487E+04  0.25500000000E-02 0.  1.
          1   -1    0    0  501    0  0.00000000000E+00 -0.00000000000E+00 -0.15234588114E+01  0.15234671482E+01  0.50400000000E-02 0. -1.
        -24    2    1    2    0    0 -0.35527136788E-14 -0.17763568394E-14  0.10535095898E+04  0.10565565158E+04  0.80182387096E+02 0.  0.
         66    2    3    3    0    0  0.18820329737E+02  0.12545924213E+02  0.96285591967E+03  0.96312363023E+03  0.20000130987E+01 0.  0.
         13    1    3    3    0    0 -0.18820329737E+02 -0.12545924213E+02  0.90653670175E+02  0.93432885571E+02  0.10566000000E+00 0. -1.
         13    1    4    4    0    0  0.38596513368E+00  0.43715381545E+00  0.24059832141E+02  0.24067130266E+02  0.10566000000E+00 0. -1.
        -13    1    4    4    0    0  0.12435418880E+02  0.90474657185E+01  0.65323202556E+03  0.65341302915E+03  0.10566000000E+00 0.  1.
         14    1    4    4    0    0  0.59989457235E+01  0.30613046786E+01  0.28556406196E+03  0.28564347082E+03  0.00000000000E+00 0. -1.
<mgrwt>
<rscale>  0 0.80182387E+02</rscale>
<asrwt>0</asrwt>
<pdfrwt beam="1">  1        1 0.23437966E-03 0.80182387E+02</pdfrwt>
<pdfrwt beam="2">  1       -2 0.16231226E+00 0.80182387E+02</pdfrwt>
<totfact> 0.24323411E+04</totfact>
</mgrwt>
</event>
<event>
 8    1  0.1241100E-020  0.8215078E+02  0.7818608E-02  0.1323056E+00
          1   -1    0    0  501    0  0.00000000000E+00  0.00000000000E+00  0.80537431356E+01  0.80537447126E+01  0.50400000000E-02 0. -1.
         -2   -1    0    0    0  501 -0.00000000000E+00 -0.00000000000E+00 -0.20949110473E+03  0.20949110474E+03  0.25500000000E-02 0.  1.
        -24    2    1    2    0    0  0.00000000000E+00 -0.88817841970E-15 -0.20143736159E+03  0.21754484946E+03  0.82150781369E+02 0.  0.
         66    2    3    3    0    0 -0.83133207825E+01  0.79494276854E+01 -0.20513141222E+03  0.20546338113E+03  0.19999999736E+01 0.  0.
         13    1    3    3    0    0  0.83133207825E+01 -0.79494276854E+01  0.36940506297E+01  0.12081468332E+02  0.10566000000E+00 0. -1.
         13    1    4    4    0    0 -0.11061223885E+01  0.16346646831E+01 -0.34813468338E+02  0.34869533652E+02  0.10566000000E+00 0. -1.
        -13    1    4    4    0    0 -0.37046628202E+01  0.35045144742E+01 -0.77841054512E+02  0.78007993692E+02  0.10566000000E+00 0.  1.
         14    1    4    4    0    0 -0.35025355738E+01  0.28102485281E+01 -0.92476889373E+02  0.92585853781E+02  0.00000000000E+00 0. -1.
<mgrwt>
<rscale>  0 0.82150781E+02</rscale>
<asrwt>0</asrwt>
<pdfrwt beam="1">  1        1 0.12390377E-02 0.82150781E+02</pdfrwt>
<pdfrwt beam="2">  1       -2 0.32229397E-01 0.82150781E+02</pdfrwt>
<totfact> 0.77937605E+04</totfact>
</mgrwt>
</event>
<event>
 8    1  0.1241100E-020  0.8042684E+02  0.7818608E-02  0.1327844E+00
          1   -1    0    0  501    0  0.00000000000E+00  0.00000000000E+00  0.60063201220E+02  0.60063201431E+02  0.50400000000E-02 0. -1.
         -2   -1    0    0    0  501 -0.00000000000E+00 -0.00000000000E+00 -0.26923622501E+02  0.26923622622E+02  0.25500000000E-02 0.  1.
        -24    2    1    2    0    0  0.00000000000E+00  0.00000000000E+00  0.33139578719E+02  0.86986824053E+02  0.80426835579E+02 0.  0.
         66    2    3    3    0    0  0.20559619561E+01 -0.17769704730E+02 -0.22343168904E+02  0.28691576961E+02  0.20000015316E+01 0.  0.
         13    1    3    3    0    0 -0.20559619561E+01  0.17769704730E+02  0.55482747622E+02  0.58295247092E+02  0.10566000000E+00 0. -1.
         13    1    4    4    0    0  0.66734428140E+00 -0.55032772548E+01 -0.59245184929E+01  0.81143386879E+01  0.10566000000E+00 0.  1.
        -13    1    4    4    0    0  0.11465971774E+01 -0.53371989570E+01 -0.68205823038E+01  0.87368120497E+01  0.10566000000E+00 0. -1.
         14    1    4    4    0    0  0.24202049730E+00 -0.69292285179E+01 -0.95980681070E+01  0.11840426224E+02  0.00000000000E+00 0. -1.
<mgrwt>
<rscale>  0 0.80426836E+02</rscale>
<asrwt>0</asrwt>
<pdfrwt beam="1">  1        1 0.92404924E-02 0.80426836E+02</pdfrwt>
<pdfrwt beam="2">  1       -2 0.41420959E-02 0.80426836E+02</pdfrwt>
<totfact> 0.13343463E+05</totfact>
</mgrwt>
</event>
<event>
 8    1  0.1241100E-020  0.8079432E+02  0.7818608E-02  0.1326812E+00
         -2   -1    0    0    0  501 -0.00000000000E+00  0.00000000000E+00  0.40152303940E+01  0.40152312038E+01  0.25500000000E-02 0.  1.
          1   -1    0    0  501    0  0.00000000000E+00 -0.00000000000E+00 -0.40643505313E+03  0.40643505316E+03  0.50400000000E-02 0. -1.
        -24    2    1    2    0    0  0.00000000000E+00  0.35527136788E-14 -0.40241982273E+03  0.41045028436E+03  0.80794320372E+02 0.  0.
         66    2    3    3    0    0  0.36285442288E+02  0.17049776326E+02 -0.22548240027E+03  0.22902759882E+03  0.19999995441E+01 0.  0.
         13    1    3    3    0    0 -0.36285442288E+02 -0.17049776326E+02 -0.17693742247E+03  0.18142268554E+03  0.10566000000E+00 0. -1.
         13    1    4    4    0    0  0.38846130175E+01  0.23279822048E+01 -0.25847718356E+02  0.26241673493E+02  0.10566000000E+00 0. -1.
        -13    1    4    4    0    0  0.11781200579E+02  0.47877618951E+01 -0.69597170208E+02  0.70749534387E+02  0.10566000000E+00 0.  1.
        -14    1    4    4    0    0  0.20619628692E+02  0.99340322264E+01 -0.13003751170E+03  0.13203639094E+03  0.00000000000E+00 0.  1.
<mgrwt>
<rscale>  0 0.80794320E+02</rscale>
<asrwt>0</asrwt>
<pdfrwt beam="1">  1        1 0.62528437E-01 0.80794320E+02</pdfrwt>
<pdfrwt beam="2">  1       -2 0.61772814E-03 0.80794320E+02</pdfrwt>
<totfact> 0.18554832E+05</totfact>
</mgrwt>
</event>
<event>
 8    1  0.1241100E-020  0.8060185E+02  0.7818608E-02  0.1327352E+00
         -2   -1    0    0    0  501 -0.00000000000E+00  0.00000000000E+00  0.35355558977E+03  0.35355558978E+03  0.25500000000E-02 0.  1.
          1   -1    0    0  501    0  0.00000000000E+00 -0.00000000000E+00 -0.45938013207E+01  0.45938040854E+01  0.50400000000E-02 0. -1.
        -24    2    1    2    0    0  0.35527136788E-14 -0.35527136788E-14  0.34896178845E+03  0.35814939386E+03  0.80601851888E+02 0.  0.
         66    2    3    3    0    0 -0.25878463582E+02  0.16827544642E+02  0.28954335832E+03  0.29119103263E+03  0.20000003365E+01 0.  0.
         13    1    3    3    0    0  0.25878463582E+02 -0.16827544642E+02  0.59418430131E+02  0.66958361235E+02  0.10566000000E+00 0. -1.
         13    1    4    4    0    0 -0.14802754394E+01  0.13161554277E+01  0.17451428131E+02  0.17563797663E+02  0.10566000000E+00 0. -1.
        -13    1    4    4    0    0 -0.18318776381E+01  0.15268917679E+01  0.24535918744E+02  0.24651767620E+02  0.10566000000E+00 0.  1.
        -14    1    4    4    0    0 -0.22566310505E+02  0.13984497447E+02  0.24755601144E+03  0.24897546734E+03  0.00000000000E+00 0.  1.
<mgrwt>
<rscale>  0 0.80601852E+02</rscale>
<asrwt>0</asrwt>
<pdfrwt beam="1">  1        1 0.70673878E-03 0.80601852E+02</pdfrwt>
<pdfrwt beam="2">  1       -2 0.54393175E-01 0.80601852E+02</pdfrwt>
<totfact> 0.62693915E+04</totfact>
</mgrwt>
</event>
<event>
 8    1  0.1241100E-020  0.7752074E+02  0.7818608E-02  0.1336238E+00
          1   -1    0    0  501    0  0.00000000000E+00  0.00000000000E+00  0.38958296073E+02  0.38958296399E+02  0.50400000000E-02 0. -1.
         -2   -1    0    0    0  501 -0.00000000000E+00 -0.00000000000E+00 -0.38563450601E+02  0.38563450686E+02  0.25500000000E-02 0.  1.
        -24    2    1    2    0    0  0.00000000000E+00  0.00000000000E+00  0.39484547171E+00  0.77521747085E+02  0.77520741535E+02 0.  0.
         66    2    3    3    0    0  0.35147624355E+02 -0.10501517349E+02 -0.12241420141E+02  0.38723245347E+02  0.19999996636E+01 0.  0.
         13    1    3    3    0    0 -0.35147624355E+02  0.10501517349E+02  0.12636265613E+02  0.38798501738E+02  0.10566000000E+00 0. -1.
         13    1    4    4    0    0  0.54980507280E+01 -0.21848449042E+01 -0.16868717046E+01  0.61529512631E+01  0.10566000000E+00 0. -1.
        -13    1    4    4    0    0  0.16925504133E+02 -0.42810278059E+01 -0.56848917577E+01  0.18361074249E+02  0.10566000000E+00 0.  1.
        -14    1    4    4    0    0  0.12724069494E+02 -0.40356446388E+01 -0.48696566791E+01  0.14209219835E+02  0.00000000000E+00 0.  1.
<mgrwt>
<rscale>  0 0.77520742E+02</rscale>
<asrwt>0</asrwt>
<pdfrwt beam="1">  1        1 0.59935840E-02 0.77520742E+02</pdfrwt>
<pdfrwt beam="2">  1       -2 0.59328386E-02 0.77520742E+02</pdfrwt>
<totfact> 0.13814026E+05</totfact>
</mgrwt>
</event>
<event>
 8    1  0.1241100E-020  0.8368033E+02  0.7818608E-02  0.1318920E+00
          1   -1    0    0  501    0  0.00000000000E+00  0.00000000000E+00  0.17720329515E+03  0.17720329522E+03  0.50400000000E-02 0. -1.
         -2   -1    0    0    0  501 -0.00000000000E+00 -0.00000000000E+00 -0.98790448657E+01  0.98790451948E+01  0.25500000000E-02 0.  1.
        -24    2    1    2    0    0  0.00000000000E+00  0.00000000000E+00  0.16732425028E+03  0.18708234042E+03  0.83680328408E+02 0.  0.
         66    2    3    3    0    0 -0.10399427242E+02 -0.26815234617E+02  0.15847098167E+02  0.32898866360E+02  0.19999982305E+01 0.  0.
         13    1    3    3    0    0  0.10399427242E+02  0.26815234617E+02  0.15147715212E+03  0.15418347406E+03  0.10566000000E+00 0. -1.
         13    1    4    4    0    0 -0.87802927604E+00 -0.15054510830E+01  0.12495926543E+01  0.21470827209E+01  0.10566000000E+00 0. -1.
        -13    1    4    4    0    0 -0.48086875669E+01 -0.11659569890E+02  0.63349333433E+01  0.14114233618E+02  0.10566000000E+00 0.  1.
        -14    1    4    4    0    0 -0.47127103988E+01 -0.13650213644E+02  0.82625721696E+01  0.16637550021E+02  0.00000000000E+00 0.  1.
<mgrwt>
<rscale>  0 0.83680328E+02</rscale>
<asrwt>0</asrwt>
<pdfrwt beam="1">  1        1 0.27262044E-01 0.83680328E+02</pdfrwt>
<pdfrwt beam="2">  1       -2 0.15198532E-02 0.83680328E+02</pdfrwt>
<totfact> 0.14446991E+05</totfact>
</mgrwt>
</event>
<event>
 8    1  0.1241100E-020  0.7919674E+02  0.7818608E-02  0.1331347E+00
          1   -1    0    0  501    0  0.00000000000E+00  0.00000000000E+00  0.44788810781E+02  0.44788811065E+02  0.50400000000E-02 0. -1.
         -2   -1    0    0    0  501 -0.00000000000E+00 -0.00000000000E+00 -0.35009437842E+02  0.35009437935E+02  0.25500000000E-02 0.  1.
        -24    2    1    2    0    0  0.35527136788E-14  0.71054273576E-14  0.97793729392E+01  0.79798248999E+02  0.79196744935E+02 0.  0.
         66    2    3    3    0    0 -0.11957050670E+02 -0.36654237828E+02  0.13878032857E+02  0.41025650574E+02  0.19999993809E+01 0.  0.
         13    1    3    3    0    0  0.11957050670E+02  0.36654237828E+02 -0.40986599181E+01  0.38772598425E+02  0.10566000000E+00 0. -1.
         13    1    4    4    0    0 -0.22075431046E+01 -0.73352298560E+01  0.34269350635E+01  0.83924901885E+01  0.10566000000E+00 0. -1.
        -13    1    4    4    0    0 -0.19573719505E+01 -0.49958827773E+01  0.20772000987E+01  0.57546567198E+01  0.10566000000E+00 0.  1.
        -14    1    4    4    0    0 -0.77921356152E+01 -0.24323125195E+02  0.83738976950E+01  0.26878503666E+02  0.00000000000E+00 0.  1.
<mgrwt>
<rscale>  0 0.79196745E+02</rscale>
<asrwt>0</asrwt>
<pdfrwt beam="1">  1        1 0.68905863E-02 0.79196745E+02</pdfrwt>
<pdfrwt beam="2">  1       -2 0.53860674E-02 0.79196745E+02</pdfrwt>
<totfact> 0.13300200E+05</totfact>
</mgrwt>
</event>
<event>
 8    1  0.1241100E-020  0.7905730E+02  0.7818608E-02  0.1331748E+00
          1   -1    0    0  501    0  0.00000000000E+00  0.00000000000E+00  0.13031272130E+02  0.13031273104E+02  0.50400000000E-02 0. -1.
         -2   -1    0    0    0  501 -0.00000000000E+00 -0.00000000000E+00 -0.11990495857E+03  0.11990495859E+03  0.25500000000E-02 0.  1.
        -24    2    1    2    0    0  0.00000000000E+00  0.35527136788E-14 -0.10687368644E+03  0.13293623170E+03  0.79057301026E+02 0.  0.
         66    2    3    3    0    0  0.10973370485E+02 -0.30392907125E+02 -0.91681210456E+02  0.97229563500E+02  0.20000011034E+01 0.  0.
         13    1    3    3    0    0 -0.10973370485E+02  0.30392907125E+02 -0.15192475981E+02  0.35706668198E+02  0.10566000000E+00 0. -1.
         13    1    4    4    0    0  0.12253316043E+01 -0.46981980273E+01 -0.13384181547E+02  0.14238046986E+02  0.10566000000E+00 0. -1.
        -13    1    4    4    0    0  0.26346963617E+01 -0.66212098295E+01 -0.22129195308E+02  0.23248537450E+02  0.10566000000E+00 0.  1.
        -14    1    4    4    0    0  0.71133425195E+01 -0.19073499268E+02 -0.56167833601E+02  0.59742979065E+02  0.00000000000E+00 0.  1.
<mgrwt>
<rscale>  0 0.79057301E+02</rscale>
<asrwt>0</asrwt>
<pdfrwt beam="1">  1        1 0.20048113E-02 0.79057301E+02</pdfrwt>
<pdfrwt beam="2">  1       -2 0.18446916E-01 0.79057301E+02</pdfrwt>
<totfact> 0.10429241E+05</totfact>
</mgrwt>
</event>
<event>
 8    1  0.1241100E-020  0.8074496E+02  0.7818608E-02  0.1326951E+00
          1   -1    0    0  501    0  0.00000000000E+00  0.00000000000E+00  0.12407806386E+03  0.12407806396E+03  0.50400000000E-02 0. -1.
         -2   -1    0    0    0  501 -0.00000000000E+00 -0.00000000000E+00 -0.13136383257E+02  0.13136383505E+02  0.25500000000E-02 0.  1.
        -24    2    1    2    0    0 -0.22204460493E-15  0.00000000000E+00  0.11094168060E+03  0.13721444746E+03  0.80744957109E+02 0.  0.
         66    2    3    3    0    0 -0.19986903622E+01  0.39988415211E+02  0.47031150601E+02  0.61798035968E+02  0.20000020867E+01 0.  0.
         13    1    3    3    0    0  0.19986903622E+01 -0.39988415211E+02  0.63910529998E+02  0.75416411496E+02  0.10566000000E+00 0. -1.
         13    1    4    4    0    0 -0.16101980552E+01  0.23635458273E+02  0.27860394788E+02  0.36571032079E+02  0.10566000000E+00 0. -1.
        -13    1    4    4    0    0 -0.68838691109E+00  0.14771781953E+02  0.17259922481E+02  0.22728737464E+02  0.10566000000E+00 0.  1.
         14    1    4    4    0    0  0.29989460416E+00  0.15811749855E+01  0.19108333321E+01  0.24982664252E+01  0.00000000000E+00 0. -1.
<mgrwt>
<rscale>  0 0.80744957E+02</rscale>
<asrwt>0</asrwt>
<pdfrwt beam="1">  1        1 0.19088933E-01 0.80744957E+02</pdfrwt>
<pdfrwt beam="2">  1       -2 0.20209821E-02 0.80744957E+02</pdfrwt>
<totfact> 0.14880730E+05</totfact>
</mgrwt>
</event>
<event>
 8    1  0.1241100E-020  0.8712361E+02  0.7818608E-02  0.1309971E+00
         -2   -1    0    0    0  501 -0.00000000000E+00  0.00000000000E+00  0.20872576061E+03  0.20872576063E+03  0.25500000000E-02 0.  1.
          1   -1    0    0  501    0  0.00000000000E+00 -0.00000000000E+00 -0.90915020885E+01  0.90915034855E+01  0.50400000000E-02 0. -1.
        -24    2    1    2    0    0  0.00000000000E+00  0.00000000000E+00  0.19963425852E+03  0.21781726411E+03  0.87123609713E+02 0.  0.
         66    2    3    3    0    0 -0.37712844095E+02  0.18653825785E+02  0.12786639607E+03  0.13462555136E+03  0.20000019847E+01 0.  0.
         13    1    3    3    0    0  0.37712844095E+02 -0.18653825785E+02  0.71767862452E+02  0.83191712755E+02  0.10566000000E+00 0. -1.
         13    1    4    4    0    0 -0.15156580412E+02  0.69362113666E+01  0.49193056448E+02  0.51940359304E+02  0.10566000000E+00 0.  1.
        -13    1    4    4    0    0 -0.18463785676E+02  0.10051115471E+02  0.65365869292E+02  0.68663267735E+02  0.10566000000E+00 0. -1.
         14    1    4    4    0    0 -0.40924780077E+01  0.16664989472E+01  0.13307470330E+02  0.14021924318E+02  0.00000000000E+00 0. -1.
<mgrwt>
<rscale>  0 0.87123610E+02</rscale>
<asrwt>0</asrwt>
<pdfrwt beam="1">  1        1 0.13986927E-02 0.87123610E+02</pdfrwt>
<pdfrwt beam="2">  1       -2 0.32111657E-01 0.87123610E+02</pdfrwt>
<totfact> 0.67039690E+04</totfact>
</mgrwt>
</event>
<event>
 8    1  0.1241100E-020  0.8075390E+02  0.7818608E-02  0.1326926E+00
          1   -1    0    0  501    0  0.00000000000E+00  0.00000000000E+00  0.24096683951E+03  0.24096683956E+03  0.50400000000E-02 0. -1.
         -2   -1    0    0    0  501 -0.00000000000E+00 -0.00000000000E+00 -0.67656524327E+01  0.67656529132E+01  0.25500000000E-02 0.  1.
        -24    2    1    2    0    0  0.71054273576E-14  0.17763568394E-14  0.23420118708E+03  0.24773249248E+03  0.80753896500E+02 0.  0.
         66    2    3    3    0    0  0.38458419144E+02  0.12215961898E+02  0.11752518979E+03  0.12427570151E+03  0.20000057180E+01 0.  0.
         13    1    3    3    0    0 -0.38458419144E+02 -0.12215961898E+02  0.11667599729E+03  0.12345679096E+03  0.10566000000E+00 0. -1.
         13    1    4    4    0    0  0.20188492247E+02  0.60179160875E+01  0.63263382821E+02  0.66678762010E+02  0.10566000000E+00 0. -1.
        -13    1    4    4    0    0  0.16540014184E+02  0.53304325111E+01  0.48604559808E+02  0.51617826166E+02  0.10566000000E+00 0.  1.
         14    1    4    4    0    0  0.17299127136E+01  0.86761329983E+00  0.56572471620E+01  0.59791133361E+01  0.00000000000E+00 0. -1.
<mgrwt>
<rscale>  0 0.80753896E+02</rscale>
<asrwt>0</asrwt>
<pdfrwt beam="1">  1        1 0.37071817E-01 0.80753896E+02</pdfrwt>
<pdfrwt beam="2">  1       -2 0.10408698E-02 0.80753896E+02</pdfrwt>
<totfact> 0.16866769E+05</totfact>
</mgrwt>
</event>
<event>
 8    1  0.1241100E-020  0.8032108E+02  0.7818608E-02  0.1328143E+00
          1   -1    0    0  501    0  0.00000000000E+00  0.00000000000E+00  0.45195063090E+02  0.45195063371E+02  0.50400000000E-02 0. -1.
         -2   -1    0    0    0  501 -0.00000000000E+00 -0.00000000000E+00 -0.35686842113E+02  0.35686842204E+02  0.25500000000E-02 0.  1.
        -24    2    1    2    0    0 -0.17763568394E-14  0.00000000000E+00  0.95082209775E+01  0.80881905576E+02  0.80321083057E+02 0.  0.
         66    2    3    3    0    0  0.79592240002E+01 -0.11574362428E+02 -0.33102657650E+02  0.36015289326E+02  0.20000023570E+01 0.  0.
         13    1    3    3    0    0 -0.79592240002E+01  0.11574362428E+02  0.42610878627E+02  0.44866616250E+02  0.10566000000E+00 0. -1.
         13    1    4    4    0    0  0.72689998910E+00 -0.57379917257E+00 -0.17168596336E+01  0.19535608825E+01  0.10566000000E+00 0. -1.
        -13    1    4    4    0    0  0.48062241716E+00 -0.56963796943E+00 -0.26447110617E+01  0.27497537998E+01  0.10566000000E+00 0.  1.
        -14    1    4    4    0    0  0.67517015939E+01 -0.10430925286E+02 -0.28741086954E+02  0.31311974643E+02  0.00000000000E+00 0.  1.
<mgrwt>
<rscale>  0 0.80321083E+02</rscale>
<asrwt>0</asrwt>
<pdfrwt beam="1">  1        1 0.69530866E-02 0.80321083E+02</pdfrwt>
<pdfrwt beam="2">  1       -2 0.54902834E-02 0.80321083E+02</pdfrwt>
<totfact> 0.12804462E+05</totfact>
</mgrwt>
</event>
<event>
 8    1  0.1241100E-020  0.7853481E+02  0.7818608E-02  0.1333262E+00
          1   -1    0    0  501    0  0.00000000000E+00  0.00000000000E+00  0.42398555879E+02  0.42398556179E+02  0.50400000000E-02 0. -1.
         -2   -1    0    0    0  501 -0.00000000000E+00 -0.00000000000E+00 -0.36367487623E+02  0.36367487712E+02  0.25500000000E-02 0.  1.
        -24    2    1    2    0    0  0.38163916471E-16  0.00000000000E+00  0.60310682568E+01  0.78766043891E+02  0.78534806843E+02 0.  0.
         66    2    3    3    0    0 -0.29273029280E-01  0.19441321693E+02 -0.31170390458E+02  0.36790747101E+02  0.19999962310E+01 0.  0.
         13    1    3    3    0    0  0.29273029280E-01 -0.19441321693E+02  0.37201458714E+02  0.41975296790E+02  0.10566000000E+00 0. -1.
         13    1    4    4    0    0  0.70320549715E+00  0.53662482192E+01 -0.81089859208E+01  0.97497658751E+01  0.10566000000E+00 0. -1.
        -13    1    4    4    0    0 -0.64310914624E+00  0.95195972042E+01 -0.16304328055E+02  0.18891230708E+02  0.10566000000E+00 0.  1.
        -14    1    4    4    0    0 -0.89369380187E-01  0.45554762692E+01 -0.67570764819E+01  0.81497505181E+01  0.00000000000E+00 0.  1.
<mgrwt>
<rscale>  0 0.78534807E+02</rscale>
<asrwt>0</asrwt>
<pdfrwt beam="1">  1        1 0.65228548E-02 0.78534807E+02</pdfrwt>
<pdfrwt beam="2">  1       -2 0.55949981E-02 0.78534807E+02</pdfrwt>
<totfact> 0.13498904E+05</totfact>
</mgrwt>
</event>
<event>
 8    1  0.1241100E-020  0.8148919E+02  0.7818608E-02  0.1324878E+00
          1   -1    0    0  501    0  0.00000000000E+00  0.00000000000E+00  0.25156965087E+02  0.25156965592E+02  0.50400000000E-02 0. -1.
         -2   -1    0    0    0  501 -0.00000000000E+00 -0.00000000000E+00 -0.65990546103E+02  0.65990546152E+02  0.25500000000E-02 0.  1.
        -24    2    1    2    0    0  0.00000000000E+00 -0.71054273576E-14 -0.40833581015E+02  0.91147511745E+02  0.81489186759E+02 0.  0.
         66    2    3    3    0    0 -0.17465031053E+02  0.32325645129E+02 -0.40063582808E+02  0.54397291284E+02  0.19999972223E+01 0.  0.
         13    1    3    3    0    0  0.17465031053E+02 -0.32325645129E+02 -0.76999820710E+00  0.36750220461E+02  0.10566000000E+00 0. -1.
         13    1    4    4    0    0 -0.63664869851E+01  0.11874434663E+02 -0.13384250622E+02  0.18991674066E+02  0.10566000000E+00 0. -1.
        -13    1    4    4    0    0 -0.43691895524E+01  0.81439173392E+01 -0.11009527649E+02  0.14374772000E+02  0.10566000000E+00 0.  1.
         14    1    4    4    0    0 -0.67293545150E+01  0.12307293126E+02 -0.15669804538E+02  0.21030845217E+02  0.00000000000E+00 0. -1.
<mgrwt>
<rscale>  0 0.81489187E+02</rscale>
<asrwt>0</asrwt>
<pdfrwt beam="1">  1        1 0.38703024E-02 0.81489187E+02</pdfrwt>
<pdfrwt beam="2">  1       -2 0.10152392E-01 0.81489187E+02</pdfrwt>
<totfact> 0.11094676E+05</totfact>
</mgrwt>
</event>
<event>
 8    1  0.1241100E-020  0.8013764E+02  0.7818608E-02  0.1328661E+00
          1   -1    0    0  501    0  0.00000000000E+00  0.00000000000E+00  0.25834144452E+02  0.25834144943E+02  0.50400000000E-02 0. -1.
         -2   -1    0    0    0  501 -0.00000000000E+00 -0.00000000000E+00 -0.62146833324E+02  0.62146833377E+02  0.25500000000E-02 0.  1.
        -24    2    1    2    0    0  0.00000000000E+00  0.00000000000E+00 -0.36312688873E+02  0.87980978320E+02  0.80137638928E+02 0.  0.
         66    2    3    3    0    0 -0.54209021093E+01 -0.39481301456E+02 -0.13866817939E+02  0.42242727037E+02  0.20000008651E+01 0.  0.
         13    1    3    3    0    0  0.54209021093E+01  0.39481301456E+02 -0.22445870934E+02  0.45738251282E+02  0.10566000000E+00 0. -1.
         13    1    4    4    0    0 -0.67255068699E+00 -0.75195080949E+01 -0.19456200888E+01  0.77969178514E+01  0.10566000000E+00 0. -1.
        -13    1    4    4    0    0 -0.53058797637E+00 -0.29426657701E+01 -0.11877857321E+01  0.32191310033E+01  0.10566000000E+00 0.  1.
         14    1    4    4    0    0 -0.42177634460E+01 -0.29019127591E+02 -0.10733412118E+02  0.31226678183E+02  0.00000000000E+00 0. -1.
<mgrwt>
<rscale>  0 0.80137639E+02</rscale>
<asrwt>0</asrwt>
<pdfrwt beam="1">  1        1 0.39744838E-02 0.80137639E+02</pdfrwt>
<pdfrwt beam="2">  1       -2 0.95610512E-02 0.80137639E+02</pdfrwt>
<totfact> 0.11709876E+05</totfact>
</mgrwt>
</event>
<event>
 8    1  0.1241100E-020  0.8108785E+02  0.7818608E-02  0.1325992E+00
         -2   -1    0    0    0  501 -0.00000000000E+00  0.00000000000E+00  0.90845719859E+01  0.90845723438E+01  0.25500000000E-02 0.  1.
          1   -1    0    0  501    0  0.00000000000E+00 -0.00000000000E+00 -0.18094522557E+03  0.18094522564E+03  0.50400000000E-02 0. -1.
        -24    2    1    2    0    0  0.00000000000E+00  0.71054273576E-14 -0.17186065359E+03  0.19002979799E+03  0.81087852799E+02 0.  0.
         66    2    3    3    0    0 -0.61630250638E+01 -0.37517046217E+02 -0.53148840446E+02  0.65378214050E+02  0.19999991872E+01 0.  0.
         13    1    3    3    0    0  0.61630250638E+01  0.37517046217E+02 -0.11871181314E+03  0.12465158394E+03  0.10566000000E+00 0. -1.
         13    1    4    4    0    0 -0.97081811309E-01 -0.39007849281E+01 -0.57933487669E+01  0.69856711849E+01  0.10566000000E+00 0. -1.
        -13    1    4    4    0    0 -0.15668465220E+01 -0.99498645008E+01 -0.14063108929E+02  0.17298468383E+02  0.10566000000E+00 0.  1.
         14    1    4    4    0    0 -0.44990967305E+01 -0.23666396789E+02 -0.33292382751E+02  0.41094074482E+02  0.00000000000E+00 0. -1.
<mgrwt>
<rscale>  0 0.81087853E+02</rscale>
<asrwt>0</asrwt>
<pdfrwt beam="1">  1        1 0.27837724E-01 0.81087853E+02</pdfrwt>
<pdfrwt beam="2">  1       -2 0.13976266E-02 0.81087853E+02</pdfrwt>
<totfact> 0.15777103E+05</totfact>
</mgrwt>
</event>
<event>
 8    1  0.1241100E-020  0.8862519E+02  0.7818608E-02  0.1306216E+00
          1   -1    0    0  501    0  0.00000000000E+00  0.00000000000E+00  0.79767640718E+02  0.79767640877E+02  0.50400000000E-02 0. -1.
         -2   -1    0    0    0  501 -0.00000000000E+00 -0.00000000000E+00 -0.24616574450E+02  0.24616574582E+02  0.25500000000E-02 0.  1.
        -24    2    1    2    0    0 -0.35527136788E-14 -0.71054273576E-14  0.55151066268E+02  0.10438421546E+03  0.88625190135E+02 0.  0.
         66    2    3    3    0    0  0.13931737332E+02 -0.42003757509E+02  0.25485211739E+02  0.51106799615E+02  0.19999998895E+01 0.  0.
         13    1    3    3    0    0 -0.13931737332E+02  0.42003757509E+02  0.29665854529E+02  0.53277415843E+02  0.10566000000E+00 0. -1.
         13    1    4    4    0    0  0.19652569262E+01 -0.61790249631E+01  0.44042181294E+01  0.78390615285E+01  0.10566000000E+00 0.  1.
        -13    1    4    4    0    0  0.10234687397E+02 -0.31659592910E+02  0.18462189060E+02  0.38051836201E+02  0.10566000000E+00 0. -1.
         14    1    4    4    0    0  0.17317930094E+01 -0.41651396359E+01  0.26188045496E+01  0.52159018858E+01  0.00000000000E+00 0. -1.
<mgrwt>
<rscale>  0 0.88625190E+02</rscale>
<asrwt>0</asrwt>
<pdfrwt beam="1">  1        1 0.12271945E-01 0.88625190E+02</pdfrwt>
<pdfrwt beam="2">  1       -2 0.37871654E-02 0.88625190E+02</pdfrwt>
<totfact> 0.10693201E+05</totfact>
</mgrwt>
</event>
<event>
 8    1  0.1241100E-020  0.8176730E+02  0.7818608E-02  0.1324110E+00
          1   -1    0    0  501    0  0.00000000000E+00  0.00000000000E+00  0.90733872026E+02  0.90733872166E+02  0.50400000000E-02 0. -1.
         -2   -1    0    0    0  501 -0.00000000000E+00 -0.00000000000E+00 -0.18421706111E+02  0.18421706288E+02  0.25500000000E-02 0.  1.
        -24    2    1    2    0    0 -0.71054273576E-14  0.00000000000E+00  0.72312165915E+02  0.10915557845E+03  0.81767297671E+02 0.  0.
         66    2    3    3    0    0  0.35662558131E+02  0.18843390913E+02  0.27467007836E+02  0.48839819314E+02  0.19999993977E+01 0.  0.
         13    1    3    3    0    0 -0.35662558131E+02 -0.18843390913E+02  0.44845158079E+02  0.60315759140E+02  0.10566000000E+00 0. -1.
         13    1    4    4    0    0  0.70518178823E+01  0.35121761109E+01  0.59882586794E+01  0.98961569574E+01  0.10566000000E+00 0. -1.
        -13    1    4    4    0    0  0.16336190148E+01  0.99103012842E+00  0.15968910051E+01  0.24924038033E+01  0.10566000000E+00 0.  1.
        -14    1    4    4    0    0  0.26977121234E+02  0.14340184673E+02  0.19881858152E+02  0.36451258553E+02  0.00000000000E+00 0.  1.
<mgrwt>
<rscale>  0 0.81767298E+02</rscale>
<asrwt>0</asrwt>
<pdfrwt beam="1">  1        1 0.13959057E-01 0.81767298E+02</pdfrwt>
<pdfrwt beam="2">  1       -2 0.28341086E-02 0.81767298E+02</pdfrwt>
<totfact> 0.13629907E+05</totfact>
</mgrwt>
</event>
<event>
 8    1  0.1241100E-020  0.8110933E+02  0.7818608E-02  0.1325932E+00
          1   -1    0    0  501    0  0.00000000000E+00  0.00000000000E+00  0.23176787799E+03  0.23176787804E+03  0.50400000000E-02 0. -1.
         -2   -1    0    0    0  501 -0.00000000000E+00 -0.00000000000E+00 -0.70962406981E+01  0.70962411563E+01  0.25500000000E-02 0.  1.
        -24    2    1    2    0    0  0.00000000000E+00  0.71054273576E-14  0.22467163729E+03  0.23886411920E+03  0.81109326457E+02 0.  0.
         66    2    3    3    0    0  0.23338914741E+02  0.26779652632E+02  0.16987384688E+03  0.17355972628E+03  0.19999993016E+01 0.  0.
         13    1    3    3    0    0 -0.23338914741E+02 -0.26779652632E+02  0.54797790415E+02  0.65304392921E+02  0.10566000000E+00 0. -1.
         13    1    4    4    0    0  0.45520975676E+01  0.48574240736E+01  0.28959431463E+02  0.29714912007E+02  0.10566000000E+00 0. -1.
        -13    1    4    4    0    0  0.24672036790E+01  0.30081139914E+01  0.20551233705E+02  0.20916505794E+02  0.10566000000E+00 0.  1.
        -14    1    4    4    0    0  0.16319613495E+02  0.18914114567E+02  0.12036318171E+03  0.12292830848E+03  0.00000000000E+00 0.  1.
<mgrwt>
<rscale>  0 0.81109326E+02</rscale>
<asrwt>0</asrwt>
<pdfrwt beam="1">  1        1 0.35656591E-01 0.81109326E+02</pdfrwt>
<pdfrwt beam="2">  1       -2 0.10917296E-02 0.81109326E+02</pdfrwt>
<totfact> 0.16545075E+05</totfact>
</mgrwt>
</event>
<event>
 8    1  0.1241100E-020  0.7947662E+02  0.7818608E-02  0.1330543E+00
          1   -1    0    0  501    0  0.00000000000E+00  0.00000000000E+00  0.18666020259E+03  0.18666020266E+03  0.50400000000E-02 0. -1.
         -2   -1    0    0    0  501 -0.00000000000E+00 -0.00000000000E+00 -0.84599359146E+01  0.84599362989E+01  0.25500000000E-02 0.  1.
        -24    2    1    2    0    0  0.00000000000E+00  0.00000000000E+00  0.17820026668E+03  0.19512013896E+03  0.79476622874E+02 0.  0.
         66    2    3    3    0    0  0.33392681824E+02 -0.67207871913E+01  0.39029304484E+02  0.51841361529E+02  0.19999942040E+01 0.  0.
         13    1    3    3    0    0 -0.33392681824E+02  0.67207871913E+01  0.13917096219E+03  0.14327877743E+03  0.10566000000E+00 0. -1.
         13    1    4    4    0    0  0.12778531357E+02 -0.33761340140E+01  0.14327823336E+02  0.19493250886E+02  0.10566000000E+00 0. -1.
        -13    1    4    4    0    0  0.12757123457E+02 -0.19274680063E+01  0.15203559526E+02  0.19940379086E+02  0.10566000000E+00 0.  1.
         14    1    4    4    0    0  0.78570270100E+01 -0.14171851710E+01  0.94979216226E+01  0.12407731557E+02  0.00000000000E+00 0. -1.
<mgrwt>
<rscale>  0 0.79476623E+02</rscale>
<asrwt>0</asrwt>
<pdfrwt beam="1">  1        1 0.28716953E-01 0.79476623E+02</pdfrwt>
<pdfrwt beam="2">  1       -2 0.13015287E-02 0.79476623E+02</pdfrwt>
<totfact> 0.16742372E+05</totfact>
</mgrwt>
</event>
<event>
 8    1  0.1241100E-020  0.7878895E+02  0.7818608E-02  0.1332524E+00
         -2   -1    0    0    0  501 -0.00000000000E+00  0.00000000000E+00  0.21340859556E+02  0.21340859708E+02  0.25500000000E-02 0.  1.
          1   -1    0    0  501    0  0.00000000000E+00 -0.00000000000E+00 -0.72720815422E+02  0.72720815597E+02  0.50400000000E-02 0. -1.
        -24    2    1    2    0    0 -0.35527136788E-14  0.00000000000E+00 -0.51379955866E+02  0.94061675305E+02  0.78788951614E+02 0.  0.
         66    2    3    3    0    0 -0.30046915664E+02 -0.20160867687E+02 -0.44226151864E+02  0.57177182594E+02  0.19999934684E+01 0.  0.
         13    1    3    3    0    0  0.30046915664E+02  0.20160867687E+02 -0.71538040021E+01  0.36884492711E+02  0.10566000000E+00 0. -1.
         13    1    4    4    0    0 -0.18189514083E+02 -0.11968830371E+02 -0.26768068312E+02  0.34505825135E+02  0.10566000000E+00 0. -1.
        -13    1    4    4    0    0 -0.61218115920E+01 -0.35929136899E+01 -0.80947338917E+01  0.10766684112E+02  0.10566000000E+00 0.  1.
         14    1    4    4    0    0 -0.57355899884E+01 -0.45991236268E+01 -0.93633496599E+01  0.11904673347E+02  0.00000000000E+00 0. -1.
<mgrwt>
<rscale>  0 0.78788952E+02</rscale>
<asrwt>0</asrwt>
<pdfrwt beam="1">  1        1 0.11187818E-01 0.78788952E+02</pdfrwt>
<pdfrwt beam="2">  1       -2 0.32832092E-02 0.78788952E+02</pdfrwt>
<totfact> 0.14548341E+05</totfact>
</mgrwt>
</event>
<event>
 8    1  0.1241100E-020  0.8092188E+02  0.7818608E-02  0.1326455E+00
          1   -1    0    0  501    0  0.00000000000E+00  0.00000000000E+00  0.72477954433E+01  0.72477971957E+01  0.50400000000E-02 0. -1.
         -2   -1    0    0    0  501 -0.00000000000E+00 -0.00000000000E+00 -0.22587387036E+03  0.22587387038E+03  0.25500000000E-02 0.  1.
        -24    2    1    2    0    0  0.00000000000E+00  0.00000000000E+00 -0.21862607492E+03  0.23312166757E+03  0.80921883673E+02 0.  0.
         66    2    3    3    0    0  0.12895264433E+02  0.29781040687E+02 -0.39887578693E+02  0.51460831324E+02  0.19999993484E+01 0.  0.
         13    1    3    3    0    0 -0.12895264433E+02 -0.29781040687E+02 -0.17873849623E+03  0.18166083625E+03  0.10566000000E+00 0. -1.
         13    1    4    4    0    0  0.11288116270E+02  0.25009397413E+02 -0.34166363560E+02  0.43820578394E+02  0.10566000000E+00 0. -1.
        -13    1    4    4    0    0  0.82072314453E+00  0.31993399407E+01 -0.38091754244E+01  0.50428507796E+01  0.10566000000E+00 0.  1.
         14    1    4    4    0    0  0.78642501869E+00  0.15723033337E+01 -0.19120397086E+01  0.25974021503E+01  0.00000000000E+00 0. -1.
<mgrwt>
<rscale>  0 0.80921884E+02</rscale>
<asrwt>0</asrwt>
<pdfrwt beam="1">  1        1 0.11150458E-02 0.80921884E+02</pdfrwt>
<pdfrwt beam="2">  1       -2 0.34749821E-01 0.80921884E+02</pdfrwt>
<totfact> 0.78442491E+04</totfact>
</mgrwt>
</event>
<event>
 8    1  0.1241100E-020  0.7945846E+02  0.7818608E-02  0.1330595E+00
         -2   -1    0    0    0  501 -0.00000000000E+00  0.00000000000E+00  0.18560842754E+02  0.18560842929E+02  0.25500000000E-02 0.  1.
          1   -1    0    0  501    0  0.00000000000E+00 -0.00000000000E+00 -0.85039881246E+02  0.85039881395E+02  0.50400000000E-02 0. -1.
        -24    2    1    2    0    0  0.00000000000E+00 -0.88817841970E-15 -0.66479038492E+02  0.10360072432E+03  0.79458464129E+02 0.  0.
         66    2    3    3    0    0  0.38918688595E+02  0.77434420607E+01 -0.31520149037E+02  0.50716318941E+02  0.19999986701E+01 0.  0.
         13    1    3    3    0    0 -0.38918688595E+02 -0.77434420607E+01 -0.34958889454E+02  0.52884405384E+02  0.10566000000E+00 0. -1.
         13    1    4    4    0    0  0.59019689325E+01  0.12993072705E+01 -0.50937444649E+01  0.79043553420E+01  0.10566000000E+00 0. -1.
        -13    1    4    4    0    0  0.83179811474E+01  0.18559452820E+01 -0.75940277713E+01  0.11415505468E+02  0.10566000000E+00 0.  1.
         14    1    4    4    0    0  0.24698738515E+02  0.45881895082E+01 -0.18832376801E+02  0.31396458131E+02  0.00000000000E+00 0. -1.
<mgrwt>
<rscale>  0 0.79458464E+02</rscale>
<asrwt>0</asrwt>
<pdfrwt beam="1">  1        1 0.13083059E-01 0.79458464E+02</pdfrwt>
<pdfrwt beam="2">  1       -2 0.28555143E-02 0.79458464E+02</pdfrwt>
<totfact> 0.14576757E+05</totfact>
</mgrwt>
</event>
<event>
 8    1  0.1241100E-020  0.7560090E+02  0.7818608E-02  0.1342020E+00
         -2   -1    0    0    0  501 -0.00000000000E+00  0.00000000000E+00  0.35038214464E+01  0.35038223743E+01  0.25500000000E-02 0.  1.
          1   -1    0    0  501    0  0.00000000000E+00 -0.00000000000E+00 -0.40780444528E+03  0.40780444531E+03  0.50400000000E-02 0. -1.
        -24    2    1    2    0    0 -0.17763568394E-14  0.00000000000E+00 -0.40430062383E+03  0.41130826768E+03  0.75600903659E+02 0.  0.
         66    2    3    3    0    0  0.12468059554E+02 -0.35608384629E+02 -0.21241091566E+03  0.21574477203E+03  0.20000007550E+01 0.  0.
         13    1    3    3    0    0 -0.12468059554E+02  0.35608384629E+02 -0.19188970817E+03  0.19556349565E+03  0.10566000000E+00 0. -1.
         13    1    4    4    0    0  0.45742152997E+01 -0.14607975747E+02 -0.83208048433E+02  0.84604414123E+02  0.10566000000E+00 0. -1.
        -13    1    4    4    0    0  0.31230810838E+01 -0.72984932665E+01 -0.43743398747E+02  0.44458044687E+02  0.10566000000E+00 0.  1.
        -14    1    4    4    0    0  0.47707631701E+01 -0.13701915615E+02 -0.85459468475E+02  0.86682313218E+02  0.00000000000E+00 0.  1.
<mgrwt>
<rscale>  0 0.75600904E+02</rscale>
<asrwt>0</asrwt>
<pdfrwt beam="1">  1        1 0.62739108E-01 0.75600904E+02</pdfrwt>
<pdfrwt beam="2">  1       -2 0.53904985E-03 0.75600904E+02</pdfrwt>
<totfact> 0.22093918E+05</totfact>
</mgrwt>
</event>
<event>
 8    1  0.1241100E-020  0.8065308E+02  0.7818608E-02  0.1327208E+00
          1   -1    0    0  501    0  0.00000000000E+00  0.00000000000E+00  0.49045498407E+01  0.49045524303E+01  0.50400000000E-02 0. -1.
         -2   -1    0    0    0  501 -0.00000000000E+00 -0.00000000000E+00 -0.33157564249E+03  0.33157564250E+03  0.25500000000E-02 0.  1.
        -24    2    1    2    0    0  0.00000000000E+00  0.00000000000E+00 -0.32667109265E+03  0.33648019493E+03  0.80653076864E+02 0.  0.
         66    2    3    3    0    0 -0.14421113295E+02 -0.83302955160E+01 -0.31654451426E+03  0.31698863045E+03  0.19999988976E+01 0.  0.
         13    1    3    3    0    0  0.14421113295E+02  0.83302955160E+01 -0.10126578397E+02  0.19491564486E+02  0.10566000000E+00 0. -1.
         13    1    4    4    0    0 -0.43083352373E+01 -0.20426947522E+01 -0.80869927571E+02  0.81010435770E+02  0.10566000000E+00 0. -1.
        -13    1    4    4    0    0 -0.39749262592E+01 -0.29333130667E+01 -0.10599091126E+03  0.10610602621E+03  0.10566000000E+00 0.  1.
        -14    1    4    4    0    0 -0.61378517983E+01 -0.33542876971E+01 -0.12968367542E+03  0.12987216846E+03  0.00000000000E+00 0.  1.
<mgrwt>
<rscale>  0 0.80653077E+02</rscale>
<asrwt>0</asrwt>
<pdfrwt beam="1">  1        1 0.75454659E-03 0.80653077E+02</pdfrwt>
<pdfrwt beam="2">  1       -2 0.51011620E-01 0.80653077E+02</pdfrwt>
<totfact> 0.65035324E+04</totfact>
</mgrwt>
</event>
<event>
 8    1  0.1241100E-020  0.7919377E+02  0.7818608E-02  0.1331355E+00
          1   -1    0    0  501    0  0.00000000000E+00  0.00000000000E+00  0.46205650364E+01  0.46205677852E+01  0.50400000000E-02 0. -1.
         -2   -1    0    0    0  501 -0.00000000000E+00 -0.00000000000E+00 -0.33933354862E+03  0.33933354863E+03  0.25500000000E-02 0.  1.
        -24    2    1    2    0    0  0.00000000000E+00  0.71054273576E-14 -0.33471298359E+03  0.34395411642E+03  0.79193767554E+02 0.  0.
         66    2    3    3    0    0  0.16993509585E+02 -0.30706259148E+02 -0.24686798964E+03  0.24935809195E+03  0.19999987731E+01 0.  0.
         13    1    3    3    0    0 -0.16993509585E+02  0.30706259148E+02 -0.87844993949E+02  0.94596024466E+02  0.10566000000E+00 0. -1.
         13    1    4    4    0    0  0.29327388125E+01 -0.45798218299E+01 -0.36879606853E+02  0.37278576832E+02  0.10566000000E+00 0. -1.
        -13    1    4    4    0    0  0.13647410497E+02 -0.25028195749E+02 -0.20329944379E+03  0.20528842492E+03  0.10566000000E+00 0.  1.
         14    1    4    4    0    0  0.41336027610E+00 -0.10982415692E+01 -0.66889389916E+01  0.67910901994E+01  0.00000000000E+00 0. -1.
<mgrwt>
<rscale>  0 0.79193768E+02</rscale>
<asrwt>0</asrwt>
<pdfrwt beam="1">  1        1 0.71085664E-03 0.79193768E+02</pdfrwt>
<pdfrwt beam="2">  1       -2 0.52205142E-01 0.79193768E+02</pdfrwt>
<totfact> 0.67255892E+04</totfact>
</mgrwt>
</event>
<event>
 8    1  0.1241100E-020  0.7884375E+02  0.7818608E-02  0.1332365E+00
         -2   -1    0    0    0  501 -0.00000000000E+00  0.00000000000E+00  0.10633737672E+02  0.10633737977E+02  0.25500000000E-02 0.  1.
          1   -1    0    0  501    0  0.00000000000E+00 -0.00000000000E+00 -0.14614657691E+03  0.14614657700E+03  0.50400000000E-02 0. -1.
        -24    2    1    2    0    0  0.00000000000E+00  0.71054273576E-14 -0.13551283924E+03  0.15678031498E+03  0.78843754129E+02 0.  0.
         66    2    3    3    0    0 -0.21232482663E+01  0.38878006351E+02 -0.79742766071E+02  0.88763259863E+02  0.19999999376E+01 0.  0.
         13    1    3    3    0    0  0.21232482663E+01 -0.38878006351E+02 -0.55770073172E+02  0.68017055116E+02  0.10566000000E+00 0. -1.
         13    1    4    4    0    0 -0.11168299471E+00  0.57945231016E+01 -0.11081941070E+02  0.12506380491E+02  0.10566000000E+00 0. -1.
        -13    1    4    4    0    0 -0.13919578000E+01  0.17529119025E+02 -0.34880746481E+02  0.39062580552E+02  0.10566000000E+00 0.  1.
        -14    1    4    4    0    0 -0.61960747158E+00  0.15554364225E+02 -0.33780078520E+02  0.37194298819E+02  0.00000000000E+00 0.  1.
<mgrwt>
<rscale>  0 0.78843754E+02</rscale>
<asrwt>0</asrwt>
<pdfrwt beam="1">  1        1 0.22484087E-01 0.78843754E+02</pdfrwt>
<pdfrwt beam="2">  1       -2 0.16359598E-02 0.78843754E+02</pdfrwt>
<totfact> 0.16336163E+05</totfact>
</mgrwt>
</event>
<event>
 8    1  0.1241100E-020  0.8019901E+02  0.7818608E-02  0.1328488E+00
         -2   -1    0    0    0  501 -0.00000000000E+00  0.00000000000E+00  0.12423390741E+03  0.12423390744E+03  0.25500000000E-02 0.  1.
          1   -1    0    0  501    0  0.00000000000E+00 -0.00000000000E+00 -0.12943085276E+02  0.12943086258E+02  0.50400000000E-02 0. -1.
        -24    2    1    2    0    0 -0.17763568394E-14  0.00000000000E+00  0.11129082214E+03  0.13717699370E+03  0.80199005654E+02 0.  0.
         66    2    3    3    0    0  0.98970491092E+01  0.17597489303E+02  0.11489095891E+03  0.11666857202E+03  0.20000118496E+01 0.  0.
         13    1    3    3    0    0 -0.98970491092E+01 -0.17597489303E+02 -0.36001367726E+01  0.20508421676E+02  0.10566000000E+00 0. -1.
         13    1    4    4    0    0  0.42308254365E+01  0.68279343479E+01  0.44012267657E+02  0.44739372365E+02  0.10566000000E+00 0. -1.
        -13    1    4    4    0    0  0.11342172166E+01  0.32336221948E+01  0.17835375694E+02  0.18161898342E+02  0.10566000000E+00 0.  1.
        -14    1    4    4    0    0  0.45320064561E+01  0.75359327604E+01  0.53043315557E+02  0.53767301312E+02  0.00000000000E+00 0.  1.
<mgrwt>
<rscale>  0 0.80199006E+02</rscale>
<asrwt>0</asrwt>
<pdfrwt beam="1">  1        1 0.19912440E-02 0.80199006E+02</pdfrwt>
<pdfrwt beam="2">  1       -2 0.19112909E-01 0.80199006E+02</pdfrwt>
<totfact> 0.99516964E+04</totfact>
</mgrwt>
</event>
<event>
 8    1  0.1241100E-020  0.8062077E+02  0.7818608E-02  0.1327299E+00
         -2   -1    0    0    0  501 -0.00000000000E+00  0.00000000000E+00  0.25669308692E+02  0.25669308819E+02  0.25500000000E-02 0.  1.
          1   -1    0    0  501    0  0.00000000000E+00 -0.00000000000E+00 -0.63302334699E+02  0.63302334900E+02  0.50400000000E-02 0. -1.
        -24    2    1    2    0    0  0.44408920985E-15 -0.35527136788E-14 -0.37633026007E+02  0.88971643719E+02  0.80620771142E+02 0.  0.
         66    2    3    3    0    0 -0.33254703515E+01  0.28503810618E+02  0.12374175385E+02  0.31315270889E+02  0.20000004019E+01 0.  0.
         13    1    3    3    0    0  0.33254703515E+01 -0.28503810618E+02 -0.50007201392E+02  0.57656372830E+02  0.10566000000E+00 0. -1.
         13    1    4    4    0    0 -0.24019100856E+01  0.16683623747E+02  0.72369635483E+01  0.18343862157E+02  0.10566000000E+00 0.  1.
        -13    1    4    4    0    0 -0.80156711691E+00  0.39546104475E+01  0.19659348664E+01  0.44897124149E+01  0.10566000000E+00 0. -1.
         14    1    4    4    0    0 -0.12199314900E+00  0.78655764226E+01  0.31712769699E+01  0.84816963167E+01  0.00000000000E+00 0. -1.
<mgrwt>
<rscale>  0 0.80620771E+02</rscale>
<asrwt>0</asrwt>
<pdfrwt beam="1">  1        1 0.97388207E-02 0.80620771E+02</pdfrwt>
<pdfrwt beam="2">  1       -2 0.39491245E-02 0.80620771E+02</pdfrwt>
<totfact> 0.13365319E+05</totfact>
</mgrwt>
</event>
<event>
 8    1  0.1241100E-020  0.8562851E+02  0.7818608E-02  0.1313797E+00
          1   -1    0    0  501    0  0.00000000000E+00  0.00000000000E+00  0.26256191405E+02  0.26256191889E+02  0.50400000000E-02 0. -1.
         -2   -1    0    0    0  501 -0.00000000000E+00 -0.00000000000E+00 -0.69814398432E+02  0.69814398479E+02  0.25500000000E-02 0.  1.
        -24    2    1    2    0    0  0.00000000000E+00  0.00000000000E+00 -0.43558207027E+02  0.96070590368E+02  0.85628505383E+02 0.  0.
         66    2    3    3    0    0  0.28105481023E+02 -0.16212716516E+02 -0.53090740893E+02  0.62252686732E+02  0.19999991197E+01 0.  0.
         13    1    3    3    0    0 -0.28105481023E+02  0.16212716516E+02  0.95325338654E+01  0.33817903635E+02  0.10566000000E+00 0. -1.
         13    1    4    4    0    0  0.26684166383E+01 -0.18324564040E+01 -0.62791014225E+01  0.70651696751E+01  0.10566000000E+00 0. -1.
        -13    1    4    4    0    0  0.23959838911E+02 -0.13603064032E+02 -0.44417064608E+02  0.52268575876E+02  0.10566000000E+00 0.  1.
         14    1    4    4    0    0  0.14772254738E+01 -0.77719608065E+00 -0.23945748626E+01  0.29189411814E+01  0.00000000000E+00 0. -1.
<mgrwt>
<rscale>  0 0.85628505E+02</rscale>
<asrwt>0</asrwt>
<pdfrwt beam="1">  1        1 0.40394141E-02 0.85628505E+02</pdfrwt>
<pdfrwt beam="2">  1       -2 0.10740677E-01 0.85628505E+02</pdfrwt>
<totfact> 0.96726261E+04</totfact>
</mgrwt>
</event>
<event>
 8    1  0.1241100E-020  0.8800660E+02  0.7818608E-02  0.1307752E+00
          1   -1    0    0  501    0  0.00000000000E+00  0.00000000000E+00  0.47763244544E+02  0.47763244810E+02  0.50400000000E-02 0. -1.
         -2   -1    0    0    0  501 -0.00000000000E+00 -0.00000000000E+00 -0.40539343930E+02  0.40539344010E+02  0.25500000000E-02 0.  1.
        -24    2    1    2    0    0  0.00000000000E+00  0.00000000000E+00  0.72239006135E+01  0.88302588820E+02  0.88006604594E+02 0.  0.
         66    2    3    3    0    0  0.12026139990E+02  0.40626764751E+02 -0.82209207510E+01  0.43205851374E+02  0.19999994444E+01 0.  0.
         13    1    3    3    0    0 -0.12026139990E+02 -0.40626764751E+02  0.15444821364E+02  0.45096737446E+02  0.10566000000E+00 0. -1.
         13    1    4    4    0    0  0.79153943989E+01  0.25068765930E+02 -0.45512443905E+01  0.26679982820E+02  0.10566000000E+00 0.  1.
        -13    1    4    4    0    0  0.30653389542E+01  0.10175218324E+02 -0.25579244686E+01  0.10930942890E+02  0.10566000000E+00 0. -1.
         14    1    4    4    0    0  0.10454066372E+01  0.53827804975E+01 -0.11117518918E+01  0.55949256644E+01  0.00000000000E+00 0. -1.
<mgrwt>
<rscale>  0 0.88006605E+02</rscale>
<asrwt>0</asrwt>
<pdfrwt beam="1">  1        1 0.73481915E-02 0.88006605E+02</pdfrwt>
<pdfrwt beam="2">  1       -2 0.62368222E-02 0.88006605E+02</pdfrwt>
<totfact> 0.99890544E+04</totfact>
</mgrwt>
</event>
<event>
 8    1  0.1241100E-020  0.8103704E+02  0.7818608E-02  0.1326134E+00
          1   -1    0    0  501    0  0.00000000000E+00  0.00000000000E+00  0.76062475146E+02  0.76062475313E+02  0.50400000000E-02 0. -1.
         -2   -1    0    0    0  501 -0.00000000000E+00 -0.00000000000E+00 -0.21584237185E+02  0.21584237336E+02  0.25500000000E-02 0.  1.
        -24    2    1    2    0    0  0.88817841970E-15  0.00000000000E+00  0.54478237960E+02  0.97646712648E+02  0.81037041405E+02 0.  0.
         66    2    3    3    0    0 -0.20494673800E+01 -0.37463894541E+02  0.45609200627E+02  0.59092663600E+02  0.19999997032E+01 0.  0.
         13    1    3    3    0    0  0.20494673800E+01  0.37463894541E+02  0.88690373337E+01  0.38554049048E+02  0.10566000000E+00 0. -1.
         13    1    4    4    0    0  0.19004836561E-01 -0.10714108229E+01  0.11707251053E+01  0.15906110910E+01  0.10566000000E+00 0.  1.
        -13    1    4    4    0    0  0.22583674775E-01 -0.50122060100E+01  0.69302778461E+01  0.85535158952E+01  0.10566000000E+00 0.  1.
        -14    1    4    4    0    0 -0.20910558914E+01 -0.31380277708E+02  0.37508197675E+02  0.48948536614E+02  0.00000000000E+00 0.  1.
<mgrwt>
<rscale>  0 0.81037041E+02</rscale>
<asrwt>0</asrwt>
<pdfrwt beam="1">  1        1 0.11701920E-01 0.81037041E+02</pdfrwt>
<pdfrwt beam="2">  1       -2 0.33206518E-02 0.81037041E+02</pdfrwt>
<totfact> 0.13569184E+05</totfact>
</mgrwt>
</event>
<event>
 8    1  0.1241100E-020  0.8077351E+02  0.7818608E-02  0.1326871E+00
          1   -1    0    0  501    0  0.00000000000E+00  0.00000000000E+00  0.61436235296E+02  0.61436235503E+02  0.50400000000E-02 0. -1.
         -2   -1    0    0    0  501 -0.00000000000E+00 -0.00000000000E+00 -0.26549318071E+02  0.26549318194E+02  0.25500000000E-02 0.  1.
        -24    2    1    2    0    0  0.35527136788E-14  0.00000000000E+00  0.34886917225E+02  0.87985553696E+02  0.80773514631E+02 0.  0.
         66    2    3    3    0    0  0.24637706103E+02 -0.25326668335E+02  0.38705792431E+02  0.52446115563E+02  0.19999947672E+01 0.  0.
         13    1    3    3    0    0 -0.24637706103E+02  0.25326668335E+02 -0.38188752058E+01  0.35539438133E+02  0.10566000000E+00 0. -1.
         13    1    4    4    0    0  0.88093993300E+00 -0.88503278159E+00  0.12020952332E+01  0.17365296356E+01  0.10566000000E+00 0. -1.
        -13    1    4    4    0    0  0.13014013108E+02 -0.14623910387E+02  0.21754794022E+02  0.29266115546E+02  0.10566000000E+00 0.  1.
        -14    1    4    4    0    0  0.10742753062E+02 -0.98177251660E+01  0.15748903176E+02  0.21443470382E+02  0.00000000000E+00 0.  1.
<mgrwt>
<rscale>  0 0.80773515E+02</rscale>
<asrwt>0</asrwt>
<pdfrwt beam="1">  1        1 0.94517286E-02 0.80773515E+02</pdfrwt>
<pdfrwt beam="2">  1       -2 0.40845105E-02 0.80773515E+02</pdfrwt>
<totfact> 0.13233140E+05</totfact>
</mgrwt>
</event>
<event>
 8    1  0.1241100E-020  0.8022120E+02  0.7818608E-02  0.1328425E+00
          1   -1    0    0  501    0  0.00000000000E+00  0.00000000000E+00  0.11601870312E+02  0.11601871407E+02  0.50400000000E-02 0. -1.
         -2   -1    0    0    0  501 -0.00000000000E+00 -0.00000000000E+00 -0.13867247634E+03  0.13867247636E+03  0.25500000000E-02 0.  1.
        -24    2    1    2    0    0  0.17763568394E-14  0.00000000000E+00 -0.12707060603E+03  0.15027434777E+03  0.80221198453E+02 0.  0.
         66    2    3    3    0    0  0.10350352117E+02  0.34246217957E+02 -0.97444883599E+02  0.10382407515E+03  0.20000017342E+01 0.  0.
         13    1    3    3    0    0 -0.10350352117E+02 -0.34246217957E+02 -0.29625722427E+02  0.46450272622E+02  0.10566000000E+00 0. -1.
         13    1    4    4    0    0  0.13590735981E+01  0.62058024358E+01 -0.18588810164E+02  0.19644696289E+02  0.10566000000E+00 0. -1.
        -13    1    4    4    0    0  0.37096725374E+01  0.10214774653E+02 -0.28923964385E+02  0.30898384607E+02  0.10566000000E+00 0.  1.
        -14    1    4    4    0    0  0.52816059819E+01  0.17825640868E+02 -0.49932109051E+02  0.53280994251E+02  0.00000000000E+00 0.  1.
<mgrwt>
<rscale>  0 0.80221198E+02</rscale>
<asrwt>0</asrwt>
<pdfrwt beam="1">  1        1 0.17849033E-02 0.80221198E+02</pdfrwt>
<pdfrwt beam="2">  1       -2 0.21334226E-01 0.80221198E+02</pdfrwt>
<totfact> 0.96226662E+04</totfact>
</mgrwt>
</event>
<event>
 8    1  0.1241100E-020  0.8018209E+02  0.7818608E-02  0.1328535E+00
         -2   -1    0    0    0  501 -0.00000000000E+00  0.00000000000E+00  0.11192726879E+03  0.11192726882E+03  0.25500000000E-02 0.  1.
          1   -1    0    0  501    0  0.00000000000E+00 -0.00000000000E+00 -0.14360144087E+02  0.14360144971E+02  0.50400000000E-02 0. -1.
        -24    2    1    2    0    0 -0.35527136788E-14  0.35527136788E-14  0.97567124700E+02  0.12628741379E+03  0.80182086894E+02 0.  0.
         66    2    3    3    0    0 -0.29441777130E+02  0.26907177304E+02  0.54805562936E+02  0.67811976554E+02  0.20000010943E+01 0.  0.
         13    1    3    3    0    0  0.29441777130E+02 -0.26907177304E+02  0.42761561764E+02  0.58475437233E+02  0.10566000000E+00 0. -1.
         13    1    4    4    0    0 -0.77808640258E+01  0.61897470632E+01  0.14375265738E+02  0.17478965724E+02  0.10566000000E+00 0. -1.
        -13    1    4    4    0    0 -0.18777124964E+02  0.17853787869E+02  0.34611124480E+02  0.43235162368E+02  0.10566000000E+00 0.  1.
        -14    1    4    4    0    0 -0.28837881401E+01  0.28636423719E+01  0.58191727183E+01  0.70978484625E+01  0.00000000000E+00 0.  1.
<mgrwt>
<rscale>  0 0.80182087E+02</rscale>
<asrwt>0</asrwt>
<pdfrwt beam="1">  1        1 0.22092531E-02 0.80182087E+02</pdfrwt>
<pdfrwt beam="2">  1       -2 0.17219579E-01 0.80182087E+02</pdfrwt>
<totfact> 0.10249214E+05</totfact>
</mgrwt>
</event>
<event>
 8    1  0.1241100E-020  0.8750609E+02  0.7818608E-02  0.1309006E+00
          1   -1    0    0  501    0  0.00000000000E+00  0.00000000000E+00  0.10418560756E+02  0.10418561975E+02  0.50400000000E-02 0. -1.
         -2   -1    0    0    0  501 -0.00000000000E+00 -0.00000000000E+00 -0.18374214692E+03  0.18374214694E+03  0.25500000000E-02 0.  1.
        -24    2    1    2    0    0  0.00000000000E+00 -0.11102230246E-15 -0.17332358616E+03  0.19416070891E+03  0.87506087586E+02 0.  0.
         66    2    3    3    0    0 -0.23309607863E+02 -0.59693494416E+00 -0.16879236174E+03  0.17040702901E+03  0.20000007558E+01 0.  0.
         13    1    3    3    0    0  0.23309607863E+02  0.59693494416E+00 -0.45312244191E+01  0.23753679901E+02  0.10566000000E+00 0. -1.
         13    1    4    4    0    0 -0.21385999793E+01  0.28966091916E+00 -0.16643148142E+02  0.16782820306E+02  0.10566000000E+00 0.  1.
        -13    1    4    4    0    0 -0.33733470912E+01 -0.63249541437E+00 -0.25703103713E+02  0.25931452439E+02  0.10566000000E+00 0. -1.
         14    1    4    4    0    0 -0.17797660793E+02 -0.25410044895E+00 -0.12644610989E+03  0.12769275626E+03  0.00000000000E+00 0. -1.
<mgrwt>
<rscale>  0 0.87506088E+02</rscale>
<asrwt>0</asrwt>
<pdfrwt beam="1">  1        1 0.16028557E-02 0.87506088E+02</pdfrwt>
<pdfrwt beam="2">  1       -2 0.28268020E-01 0.87506088E+02</pdfrwt>
<totfact> 0.69761834E+04</totfact>
</mgrwt>
</event>
<event>
 8    1  0.1412165E-020  0.7562800E+02  0.7818608E-02  0.1341937E+00
         -2   -1    0    0    0  501 -0.00000000000E+00  0.00000000000E+00  0.13782790501E+02  0.13782790736E+02  0.25500000000E-02 0.  1.
          1   -1    0    0  501    0  0.00000000000E+00 -0.00000000000E+00 -0.10374521946E+03  0.10374521958E+03  0.50400000000E-02 0. -1.
        -24    2    1    2    0    0  0.00000000000E+00  0.00000000000E+00 -0.89962428959E+02  0.11752801032E+03  0.75628001330E+02 0.  0.
         66    2    3    3    0    0  0.24210623234E+02  0.10946320498E+02 -0.32581541944E+01  0.26843840607E+02  0.19999999831E+01 0.  0.
         13    1    3    3    0    0 -0.24210623234E+02 -0.10946320498E+02 -0.86704274764E+02  0.90684169712E+02  0.10566000000E+00 0. -1.
         13    1    4    4    0    0  0.46321967175E+01  0.18122460008E+01 -0.74953683729E+00  0.50313468875E+01  0.10566000000E+00 0. -1.
        -13    1    4    4    0    0  0.19141498350E+02  0.87411842659E+01 -0.22264484995E+01  0.21160659215E+02  0.10566000000E+00 0.  1.
         14    1    4    4    0    0  0.43692816630E+00  0.39289023091E+00 -0.28216885760E+00  0.65183450373E+00  0.00000000000E+00 0. -1.
<mgrwt>
<rscale>  0 0.75628001E+02</rscale>
<asrwt>0</asrwt>
<pdfrwt beam="1">  1        1 0.15960803E-01 0.75628001E+02</pdfrwt>
<pdfrwt beam="2">  1       -2 0.21204294E-02 0.75628001E+02</pdfrwt>
<totfact> 0.17204264E+05</totfact>
</mgrwt>
</event>
<event>
 8    1  0.1241100E-020  0.7948116E+02  0.7818608E-02  0.1330530E+00
          1   -1    0    0  501    0  0.00000000000E+00  0.00000000000E+00  0.14265483603E+02  0.14265484493E+02  0.50400000000E-02 0. -1.
         -2   -1    0    0    0  501 -0.00000000000E+00 -0.00000000000E+00 -0.11070874143E+03  0.11070874146E+03  0.25500000000E-02 0.  1.
        -24    2    1    2    0    0  0.00000000000E+00 -0.35527136788E-14 -0.96443257831E+02  0.12497422596E+03  0.79481162373E+02 0.  0.
         66    2    3    3    0    0  0.12614813860E+02 -0.26254144066E+02 -0.90703162489E+02  0.95286291236E+02  0.20000006456E+01 0.  0.
         13    1    3    3    0    0 -0.12614813860E+02  0.26254144066E+02 -0.57400953422E+01  0.29687934720E+02  0.10566000000E+00 0. -1.
         13    1    4    4    0    0  0.62866361273E+00 -0.11060234545E+01 -0.33658442494E+01  0.35998024066E+01  0.10566000000E+00 0. -1.
        -13    1    4    4    0    0  0.88184264256E+01 -0.19742258931E+02 -0.66417787521E+02  0.69848801676E+02  0.10566000000E+00 0.  1.
         14    1    4    4    0    0  0.31677238215E+01 -0.54058616814E+01 -0.20919530718E+02  0.21837687153E+02  0.00000000000E+00 0. -1.
<mgrwt>
<rscale>  0 0.79481162E+02</rscale>
<asrwt>0</asrwt>
<pdfrwt beam="1">  1        1 0.21946899E-02 0.79481162E+02</pdfrwt>
<pdfrwt beam="2">  1       -2 0.17032114E-01 0.79481162E+02</pdfrwt>
<totfact> 0.10513139E+05</totfact>
</mgrwt>
</event>
<event>
 8    1  0.1241100E-020  0.7983788E+02  0.7818608E-02  0.1329512E+00
         -2   -1    0    0    0  501 -0.00000000000E+00  0.00000000000E+00  0.40067033847E+03  0.40067033847E+03  0.25500000000E-02 0.  1.
          1   -1    0    0  501    0  0.00000000000E+00 -0.00000000000E+00 -0.39771381842E+01  0.39771413777E+01  0.50400000000E-02 0. -1.
        -24    2    1    2    0    0  0.00000000000E+00  0.00000000000E+00  0.39669320028E+03  0.40464747985E+03  0.79837884495E+02 0.  0.
         66    2    3    3    0    0 -0.39117883083E+02  0.21871796978E+01  0.16036536858E+03  0.16509404587E+03  0.20000024451E+01 0.  0.
         13    1    3    3    0    0  0.39117883083E+02 -0.21871796978E+01  0.23632783170E+03  0.23955343398E+03  0.10566000000E+00 0. -1.
         13    1    4    4    0    0 -0.10585450554E+02 -0.22672662233E+00  0.42820781518E+02  0.44110471117E+02  0.10566000000E+00 0. -1.
        -13    1    4    4    0    0 -0.23105303716E+02  0.21248565163E+01  0.95909025261E+02  0.98675844894E+02  0.10566000000E+00 0.  1.
        -14    1    4    4    0    0 -0.54271288133E+01  0.28904980376E+00  0.21635561802E+02  0.22307729858E+02  0.00000000000E+00 0.  1.
<mgrwt>
<rscale>  0 0.79837884E+02</rscale>
<asrwt>0</asrwt>
<pdfrwt beam="1">  1        1 0.61186781E-03 0.79837884E+02</pdfrwt>
<pdfrwt beam="2">  1       -2 0.61641575E-01 0.79837884E+02</pdfrwt>
<totfact> 0.59338114E+04</totfact>
</mgrwt>
</event>
<event>
 8    1  0.1241100E-020  0.8039356E+02  0.7818608E-02  0.1327938E+00
          1   -1    0    0  501    0  0.00000000000E+00  0.00000000000E+00  0.35658772068E+03  0.35658772072E+03  0.50400000000E-02 0. -1.
         -2   -1    0    0    0  501 -0.00000000000E+00 -0.00000000000E+00 -0.45312303642E+01  0.45312310817E+01  0.25500000000E-02 0.  1.
        -24    2    1    2    0    0 -0.35527136788E-14  0.00000000000E+00  0.35205649032E+03  0.36111895180E+03  0.80393563012E+02 0.  0.
         66    2    3    3    0    0  0.20092547601E+02 -0.33209429773E+02  0.12962911153E+03  0.13533027473E+03  0.20000017605E+01 0.  0.
         13    1    3    3    0    0 -0.20092547601E+02  0.33209429773E+02  0.22242737879E+03  0.22578867707E+03  0.10566000000E+00 0. -1.
         13    1    4    4    0    0  0.26492735744E+01 -0.43039425879E+01  0.18028858269E+02  0.18724141283E+02  0.10566000000E+00 0. -1.
        -13    1    4    4    0    0  0.93491675530E+01 -0.15903238892E+02  0.58318002296E+02  0.61166334670E+02  0.10566000000E+00 0.  1.
        -14    1    4    4    0    0  0.80941064736E+01 -0.13002248293E+02  0.53282250964E+02  0.55439798773E+02  0.00000000000E+00 0.  1.
<mgrwt>
<rscale>  0 0.80393563E+02</rscale>
<asrwt>0</asrwt>
<pdfrwt beam="1">  1        1 0.54859647E-01 0.80393563E+02</pdfrwt>
<pdfrwt beam="2">  1       -2 0.69711245E-03 0.80393563E+02</pdfrwt>
<totfact> 0.18385937E+05</totfact>
</mgrwt>
</event>
<event>
 8    1  0.1241100E-020  0.8134691E+02  0.7818608E-02  0.1325272E+00
          1   -1    0    0  501    0  0.00000000000E+00  0.00000000000E+00  0.34615734042E+01  0.34615770733E+01  0.50400000000E-02 0. -1.
         -2   -1    0    0    0  501 -0.00000000000E+00 -0.00000000000E+00 -0.47791247640E+03  0.47791247641E+03  0.25500000000E-02 0.  1.
        -24    2    1    2    0    0  0.00000000000E+00  0.35527136788E-14 -0.47445090300E+03  0.48137405348E+03  0.81346911499E+02 0.  0.
         66    2    3    3    0    0 -0.16499663017E+02 -0.25447298993E+02 -0.39752757143E+03  0.39868781515E+03  0.19999995101E+01 0.  0.
         13    1    3    3    0    0  0.16499663017E+02  0.25447298993E+02 -0.76923331571E+02  0.82686238334E+02  0.10566000000E+00 0. -1.
         13    1    4    4    0    0 -0.13021798596E+01 -0.20900689376E+01 -0.27436033547E+02  0.27546527211E+02  0.10566000000E+00 0.  1.
        -13    1    4    4    0    0 -0.75219746641E+01 -0.12700292597E+02 -0.19506158063E+03  0.19561929592E+03  0.10566000000E+00 0.  1.
         14    1    4    4    0    0 -0.76755084930E+01 -0.10656937459E+02 -0.17502995726E+03  0.17552199202E+03  0.00000000000E+00 0. -1.
<mgrwt>
<rscale>  0 0.81346911E+02</rscale>
<asrwt>0</asrwt>
<pdfrwt beam="1">  1        1 0.53255042E-03 0.81346911E+02</pdfrwt>
<pdfrwt beam="2">  1       -2 0.73524944E-01 0.81346911E+02</pdfrwt>
<totfact> 0.49936402E+04</totfact>
</mgrwt>
</event>
<event>
 8    1  0.1241100E-020  0.7928703E+02  0.7818608E-02  0.1331087E+00
         -2   -1    0    0    0  501 -0.00000000000E+00  0.00000000000E+00  0.60151260431E+02  0.60151260486E+02  0.25500000000E-02 0.  1.
          1   -1    0    0  501    0  0.00000000000E+00 -0.00000000000E+00 -0.26127599873E+02  0.26127600359E+02  0.50400000000E-02 0. -1.
        -24    2    1    2    0    0  0.00000000000E+00  0.88817841970E-15  0.34023660558E+02  0.86278860845E+02  0.79287025111E+02 0.  0.
         66    2    3    3    0    0 -0.25436883382E+02 -0.61719152118E+01  0.49385358279E+02  0.55928893886E+02  0.19999963500E+01 0.  0.
         13    1    3    3    0    0  0.25436883382E+02  0.61719152118E+01 -0.15361697720E+02  0.30349966959E+02  0.10566000000E+00 0. -1.
         13    1    4    4    0    0 -0.43091110407E+01 -0.13796303939E+01  0.80089792586E+01  0.91992788187E+01  0.10566000000E+00 0. -1.
        -13    1    4    4    0    0 -0.19139852533E+02 -0.40404363792E+01  0.36540325272E+02  0.41447142436E+02  0.10566000000E+00 0.  1.
         14    1    4    4    0    0 -0.19879198078E+01 -0.75184843871E+00  0.48360537481E+01  0.52824726305E+01  0.00000000000E+00 0. -1.
<mgrwt>
<rscale>  0 0.79287025E+02</rscale>
<asrwt>0</asrwt>
<pdfrwt beam="1">  1        1 0.40196308E-02 0.79287025E+02</pdfrwt>
<pdfrwt beam="2">  1       -2 0.92540401E-02 0.79287025E+02</pdfrwt>
<totfact> 0.12104366E+05</totfact>
</mgrwt>
</event>
<event>
 8    1  0.1241100E-020  0.8027245E+02  0.7818608E-02  0.1328280E+00
          1   -1    0    0  501    0  0.00000000000E+00  0.00000000000E+00  0.35107096828E+03  0.35107096832E+03  0.50400000000E-02 0. -1.
         -2   -1    0    0    0  501 -0.00000000000E+00 -0.00000000000E+00 -0.45885771763E+01  0.45885778849E+01  0.25500000000E-02 0.  1.
        -24    2    1    2    0    0  0.00000000000E+00  0.71054273576E-14  0.34648239111E+03  0.35565954621E+03  0.80272445205E+02 0.  0.
         66    2    3    3    0    0  0.29120086789E+02 -0.27570027012E+02  0.16932273417E+03  0.17401802823E+03  0.19999990633E+01 0.  0.
         13    1    3    3    0    0 -0.29120086789E+02  0.27570027012E+02  0.17715965694E+03  0.18164151798E+03  0.10566000000E+00 0. -1.
         13    1    4    4    0    0  0.17457593041E+01 -0.19718426004E+01  0.98264021330E+01  0.10173749638E+02  0.10566000000E+00 0. -1.
        -13    1    4    4    0    0  0.18164223765E+02 -0.17310766612E+02  0.10472515987E+03  0.10768923781E+03  0.10566000000E+00 0.  1.
        -14    1    4    4    0    0  0.92101037200E+01 -0.82874177997E+01  0.54771172167E+02  0.56155040779E+02  0.00000000000E+00 0.  1.
<mgrwt>
<rscale>  0 0.80272445E+02</rscale>
<asrwt>0</asrwt>
<pdfrwt beam="1">  1        1 0.54010924E-01 0.80272445E+02</pdfrwt>
<pdfrwt beam="2">  1       -2 0.70593493E-03 0.80272445E+02</pdfrwt>
<totfact> 0.18408049E+05</totfact>
</mgrwt>
</event>
<event>
 8    1  0.1241100E-020  0.7818171E+02  0.7818608E-02  0.1334292E+00
         -2   -1    0    0    0  501 -0.00000000000E+00  0.00000000000E+00  0.26903884144E+03  0.26903884145E+03  0.25500000000E-02 0.  1.
          1   -1    0    0  501    0  0.00000000000E+00 -0.00000000000E+00 -0.56798289586E+01  0.56798311948E+01  0.50400000000E-02 0. -1.
        -24    2    1    2    0    0  0.00000000000E+00  0.00000000000E+00  0.26335901248E+03  0.27471867264E+03  0.78181709150E+02 0.  0.
         66    2    3    3    0    0  0.10676927631E+02 -0.30945989608E+02  0.20667215723E+03  0.20925828937E+03  0.20000097636E+01 0.  0.
         13    1    3    3    0    0 -0.10676927631E+02  0.30945989608E+02  0.56686855245E+02  0.65460383272E+02  0.10566000000E+00 0. -1.
         13    1    4    4    0    0  0.38607399907E+01 -0.11602299277E+02  0.83280638639E+02  0.84173597986E+02  0.10566000000E+00 0. -1.
        -13    1    4    4    0    0  0.45719369541E+01 -0.12855472997E+02  0.82732913634E+02  0.83850533426E+02  0.10566000000E+00 0.  1.
         14    1    4    4    0    0  0.22442506859E+01 -0.64882173344E+01  0.40658604961E+02  0.41234157960E+02  0.00000000000E+00 0. -1.
<mgrwt>
<rscale>  0 0.78181709E+02</rscale>
<asrwt>0</asrwt>
<pdfrwt beam="1">  1        1 0.87381995E-03 0.78181709E+02</pdfrwt>
<pdfrwt beam="2">  1       -2 0.41390594E-01 0.78181709E+02</pdfrwt>
<totfact> 0.78939181E+04</totfact>
</mgrwt>
</event>
<event>
 8    1  0.1241100E-020  0.8153490E+02  0.7818608E-02  0.1324751E+00
         -2   -1    0    0    0  501 -0.00000000000E+00  0.00000000000E+00  0.13527200404E+02  0.13527200644E+02  0.25500000000E-02 0.  1.
          1   -1    0    0  501    0  0.00000000000E+00 -0.00000000000E+00 -0.12286245746E+03  0.12286245756E+03  0.50400000000E-02 0. -1.
        -24    2    1    2    0    0 -0.88817841970E-15  0.35527136788E-14 -0.10933525705E+03  0.13638965821E+03  0.81534903141E+02 0.  0.
         66    2    3    3    0    0  0.57463983902E+01 -0.28584041666E+02 -0.70949785694E+01  0.30073364811E+02  0.20000044322E+01 0.  0.
         13    1    3    3    0    0 -0.57463983902E+01  0.28584041666E+02 -0.10224027849E+03  0.10631629339E+03  0.10566000000E+00 0. -1.
         13    1    4    4    0    0  0.39400868618E+00 -0.29885338740E+01 -0.11417341714E+01  0.32251044192E+01  0.10566000000E+00 0. -1.
        -13    1    4    4    0    0  0.23675391219E+01 -0.97847229894E+01 -0.17543650481E+01  0.10219344707E+02  0.10566000000E+00 0.  1.
        -14    1    4    4    0    0  0.29848505821E+01 -0.15810784803E+02 -0.41988793499E+01  0.16628915685E+02  0.00000000000E+00 0.  1.
<mgrwt>
<rscale>  0 0.81534903E+02</rscale>
<asrwt>0</asrwt>
<pdfrwt beam="1">  1        1 0.18901916E-01 0.81534903E+02</pdfrwt>
<pdfrwt beam="2">  1       -2 0.20811079E-02 0.81534903E+02</pdfrwt>
<totfact> 0.14470613E+05</totfact>
</mgrwt>
</event>
<event>
 8    1  0.1241100E-020  0.8264760E+02  0.7818608E-02  0.1321702E+00
         -2   -1    0    0    0  501 -0.00000000000E+00  0.00000000000E+00  0.61167529417E+01  0.61167534733E+01  0.25500000000E-02 0.  1.
          1   -1    0    0  501    0  0.00000000000E+00 -0.00000000000E+00 -0.27917691057E+03  0.27917691062E+03  0.50400000000E-02 0. -1.
        -24    2    1    2    0    0  0.00000000000E+00  0.00000000000E+00 -0.27306015763E+03  0.28529366409E+03  0.82647595762E+02 0.  0.
         66    2    3    3    0    0  0.31464039220E+02 -0.20387811248E+02 -0.76820371689E+02  0.85504491807E+02  0.20000002986E+01 0.  0.
         13    1    3    3    0    0 -0.31464039220E+02  0.20387811248E+02 -0.19623978594E+03  0.19978917228E+03  0.10566000000E+00 0. -1.
         13    1    4    4    0    0  0.13525310772E+02 -0.88271062065E+01 -0.33751440547E+02  0.37416877722E+02  0.10566000000E+00 0. -1.
        -13    1    4    4    0    0  0.14086389355E+02 -0.83994037602E+01 -0.32602137711E+02  0.36495025633E+02  0.10566000000E+00 0.  1.
        -14    1    4    4    0    0  0.38523390930E+01 -0.31613012818E+01 -0.10466793431E+02  0.11592588451E+02  0.00000000000E+00 0.  1.
<mgrwt>
<rscale>  0 0.82647596E+02</rscale>
<asrwt>0</asrwt>
<pdfrwt beam="1">  1        1 0.42950284E-01 0.82647596E+02</pdfrwt>
<pdfrwt beam="2">  1       -2 0.94103917E-03 0.82647596E+02</pdfrwt>
<totfact> 0.16326347E+05</totfact>
</mgrwt>
</event>
<event>
 8    1  0.1241100E-020  0.8049380E+02  0.7818608E-02  0.1327656E+00
         -2   -1    0    0    0  501 -0.00000000000E+00  0.00000000000E+00  0.27985958003E+02  0.27985958119E+02  0.25500000000E-02 0.  1.
          1   -1    0    0  501    0  0.00000000000E+00 -0.00000000000E+00 -0.57879491332E+02  0.57879491551E+02  0.50400000000E-02 0. -1.
        -24    2    1    2    0    0  0.00000000000E+00  0.00000000000E+00 -0.29893533329E+02  0.85865449670E+02  0.80493801700E+02 0.  0.
         66    2    3    3    0    0 -0.82571048059E+01 -0.16737832266E+02  0.23051398744E+02  0.29727122255E+02  0.20000011852E+01 0.  0.
         13    1    3    3    0    0  0.82571048059E+01  0.16737832266E+02 -0.52944932073E+02  0.56138327415E+02  0.10566000000E+00 0. -1.
         13    1    4    4    0    0 -0.75955212044E+00 -0.27354149482E+01  0.33954880136E+01  0.44271793784E+01  0.10566000000E+00 0. -1.
        -13    1    4    4    0    0 -0.37698927412E+01 -0.77158408743E+01  0.98157265368E+01  0.13042466912E+02  0.10566000000E+00 0. -1.
        -14    1    4    4    0    0 -0.37276599442E+01 -0.62865764436E+01  0.98401841937E+01  0.12257475964E+02  0.00000000000E+00 0.  1.
<mgrwt>
<rscale>  0 0.80493802E+02</rscale>
<asrwt>0</asrwt>
<pdfrwt beam="1">  1        1 0.89045372E-02 0.80493802E+02</pdfrwt>
<pdfrwt beam="2">  1       -2 0.43055320E-02 0.80493802E+02</pdfrwt>
<totfact> 0.13235499E+05</totfact>
</mgrwt>
</event>
<event>
 8    1  0.1241100E-020  0.8120881E+02  0.7818608E-02  0.1325656E+00
          1   -1    0    0  501    0  0.00000000000E+00  0.00000000000E+00  0.15932889353E+01  0.15932969068E+01  0.50400000000E-02 0. -1.
         -2   -1    0    0    0  501 -0.00000000000E+00 -0.00000000000E+00 -0.10347862047E+04  0.10347862047E+04  0.25500000000E-02 0.  1.
        -24    2    1    2    0    0  0.35527136788E-14 -0.88817841970E-15 -0.10331929157E+04  0.10363795016E+04  0.81208805993E+02 0.  0.
         66    2    3    3    0    0  0.26083523087E+02 -0.78145233661E+01 -0.90089094284E+03  0.90130455887E+03  0.19999994159E+01 0.  0.
         13    1    3    3    0    0 -0.26083523087E+02  0.78145233661E+01 -0.13230197290E+03  0.13507494271E+03  0.10566000000E+00 0. -1.
         13    1    4    4    0    0  0.89247355831E+01 -0.34039469427E+01 -0.30319204485E+03  0.30334248793E+03  0.10566000000E+00 0. -1.
        -13    1    4    4    0    0  0.16798126297E+02 -0.44439129827E+01 -0.58597372645E+03  0.58623130645E+03  0.10566000000E+00 0.  1.
         14    1    4    4    0    0  0.36066120755E+00  0.33336559218E-01 -0.11725171544E+02  0.11730764492E+02  0.00000000000E+00 0. -1.
<mgrwt>
<rscale>  0 0.81208806E+02</rscale>
<asrwt>0</asrwt>
<pdfrwt beam="1">  1        1 0.24512282E-03 0.81208806E+02</pdfrwt>
<pdfrwt beam="2">  1       -2 0.15919734E+00 0.81208806E+02</pdfrwt>
<totfact> 0.24093706E+04</totfact>
</mgrwt>
</event>
<event>
 8    1  0.1241100E-020  0.8039034E+02  0.7818608E-02  0.1327947E+00
         -2   -1    0    0    0  501 -0.00000000000E+00  0.00000000000E+00  0.10556255319E+03  0.10556255323E+03  0.25500000000E-02 0.  1.
          1   -1    0    0  501    0  0.00000000000E+00 -0.00000000000E+00 -0.15305160228E+02  0.15305161058E+02  0.50400000000E-02 0. -1.
        -24    2    1    2    0    0  0.00000000000E+00  0.00000000000E+00  0.90257392967E+02  0.12086771428E+03  0.80390343766E+02 0.  0.
         66    2    3    3    0    0  0.23703778638E+02  0.25689678428E+02  0.74917633185E+02  0.82695105076E+02  0.19999855145E+01 0.  0.
         13    1    3    3    0    0 -0.23703778638E+02 -0.25689678428E+02  0.15339759782E+02  0.38172609207E+02  0.10566000000E+00 0. -1.
         13    1    4    4    0    0  0.97038961772E+01  0.11001536624E+02  0.31103001065E+02  0.34389057103E+02  0.10566000000E+00 0.  1.
        -13    1    4    4    0    0  0.13805083478E+02  0.14238166798E+02  0.42402371996E+02  0.46811088842E+02  0.10566000000E+00 0. -1.
         14    1    4    4    0    0  0.19479898364E+00  0.44997500469E+00  0.14122601233E+01  0.14949591315E+01  0.00000000000E+00 0. -1.
<mgrwt>
<rscale>  0 0.80390344E+02</rscale>
<asrwt>0</asrwt>
<pdfrwt beam="1">  1        1 0.23546400E-02 0.80390344E+02</pdfrwt>
<pdfrwt beam="2">  1       -2 0.16240393E-01 0.80390344E+02</pdfrwt>
<totfact> 0.10338852E+05</totfact>
</mgrwt>
</event>
<event>
 8    1  0.1241100E-020  0.8093077E+02  0.7818608E-02  0.1326431E+00
          1   -1    0    0  501    0  0.00000000000E+00  0.00000000000E+00  0.15747299502E+03  0.15747299510E+03  0.50400000000E-02 0. -1.
         -2   -1    0    0    0  501 -0.00000000000E+00 -0.00000000000E+00 -0.10398273077E+02  0.10398273389E+02  0.25500000000E-02 0.  1.
        -24    2    1    2    0    0  0.35527136788E-14 -0.71054273576E-14  0.14707472194E+03  0.16787126849E+03  0.80930766397E+02 0.  0.
         66    2    3    3    0    0 -0.18237169742E+02 -0.33409357123E+02  0.45242686008E+02  0.59158094448E+02  0.19999994814E+01 0.  0.
         13    1    3    3    0    0  0.18237169742E+02  0.33409357123E+02  0.10183203593E+03  0.10871317404E+03  0.10566000000E+00 0. -1.
         13    1    4    4    0    0 -0.49352606993E+01 -0.98182958983E+01  0.12450335158E+02  0.16606557202E+02  0.10566000000E+00 0.  1.
        -13    1    4    4    0    0 -0.49169663373E+01 -0.91297769763E+01  0.11593486614E+02  0.15554725375E+02  0.10566000000E+00 0.  1.
        -14    1    4    4    0    0 -0.83849427054E+01 -0.14461284248E+02  0.21198864236E+02  0.26996811870E+02  0.00000000000E+00 0.  1.
<mgrwt>
<rscale>  0 0.80930766E+02</rscale>
<asrwt>0</asrwt>
<pdfrwt beam="1">  1        1 0.24226613E-01 0.80930766E+02</pdfrwt>
<pdfrwt beam="2">  1       -2 0.15997345E-02 0.80930766E+02</pdfrwt>
<totfact> 0.15446746E+05</totfact>
</mgrwt>
</event>
<event>
 8    1  0.1241100E-020  0.8032676E+02  0.7818608E-02  0.1328127E+00
          1   -1    0    0  501    0  0.00000000000E+00  0.00000000000E+00  0.93157255923E+02  0.93157256059E+02  0.50400000000E-02 0. -1.
         -2   -1    0    0    0  501 -0.00000000000E+00 -0.00000000000E+00 -0.17315852005E+02  0.17315852192E+02  0.25500000000E-02 0.  1.
        -24    2    1    2    0    0  0.00000000000E+00  0.00000000000E+00  0.75841403919E+02  0.11047310825E+03  0.80326764521E+02 0.  0.
         66    2    3    3    0    0  0.37976146151E+02  0.12919269694E+02  0.39887703979E+02  0.56604983083E+02  0.19999937842E+01 0.  0.
         13    1    3    3    0    0 -0.37976146151E+02 -0.12919269694E+02  0.35953699939E+02  0.53868125169E+02  0.10566000000E+00 0. -1.
         13    1    4    4    0    0  0.17843922209E+02  0.65380458530E+01  0.18589657433E+02  0.26584546843E+02  0.10566000000E+00 0. -1.
        -13    1    4    4    0    0  0.61059652255E+01  0.23587726105E+01  0.60181846385E+01  0.88924872753E+01  0.10566000000E+00 0. -1.
        -14    1    4    4    0    0  0.14026258717E+02  0.40224512304E+01  0.15279861908E+02  0.21127948964E+02  0.00000000000E+00 0.  1.
<mgrwt>
<rscale>  0 0.80326765E+02</rscale>
<asrwt>0</asrwt>
<pdfrwt beam="1">  1        1 0.14331885E-01 0.80326765E+02</pdfrwt>
<pdfrwt beam="2">  1       -2 0.26639773E-02 0.80326765E+02</pdfrwt>
<totfact> 0.14366652E+05</totfact>
</mgrwt>
</event>
<event>
 8    1  0.1364836E-020  0.7860637E+02  0.7818608E-02  0.1333054E+00
         -2   -1    0    0    0  501 -0.00000000000E+00  0.00000000000E+00  0.27380441781E+02  0.27380441900E+02  0.25500000000E-02 0.  1.
          1   -1    0    0  501    0  0.00000000000E+00 -0.00000000000E+00 -0.56417648861E+02  0.56417649086E+02  0.50400000000E-02 0. -1.
        -24    2    1    2    0    0  0.35527136788E-14 -0.35527136788E-14 -0.29037207080E+02  0.83798090986E+02  0.78606365250E+02 0.  0.
         66    2    3    3    0    0 -0.14777251351E+02  0.15492810295E+02  0.20576244022E+02  0.29761991732E+02  0.20000013614E+01 0.  0.
         13    1    3    3    0    0  0.14777251351E+02 -0.15492810295E+02 -0.49613451101E+02  0.54036099254E+02  0.10566000000E+00 0. -1.
         13    1    4    4    0    0 -0.66320493430E+01  0.73721224242E+01  0.94561500520E+01  0.13702634979E+02  0.10566000000E+00 0. -1.
        -13    1    4    4    0    0 -0.54740160204E+01  0.63349719900E+01  0.79817405311E+01  0.11567889498E+02  0.10566000000E+00 0.  1.
         14    1    4    4    0    0 -0.26711859881E+01  0.17857158809E+01  0.31383534386E+01  0.44914672542E+01  0.00000000000E+00 0. -1.
<mgrwt>
<rscale>  0 0.78606365E+02</rscale>
<asrwt>0</asrwt>
<pdfrwt beam="1">  1        1 0.86796383E-02 0.78606365E+02</pdfrwt>
<pdfrwt beam="2">  1       -2 0.42123757E-02 0.78606365E+02</pdfrwt>
<totfact> 0.14075236E+05</totfact>
</mgrwt>
</event>
<event>
 8    1  0.1241100E-020  0.8072852E+02  0.7818608E-02  0.1326997E+00
          1   -1    0    0  501    0  0.00000000000E+00  0.00000000000E+00  0.17489124910E+03  0.17489124917E+03  0.50400000000E-02 0. -1.
         -2   -1    0    0    0  501 -0.00000000000E+00 -0.00000000000E+00 -0.93159240479E+01  0.93159243969E+01  0.25500000000E-02 0.  1.
        -24    2    1    2    0    0  0.00000000000E+00  0.00000000000E+00  0.16557532505E+03  0.18420717357E+03  0.80728523635E+02 0.  0.
         66    2    3    3    0    0  0.20000129389E+02  0.18650516545E+02  0.15171146549E+02  0.31337048895E+02  0.20000007111E+01 0.  0.
         13    1    3    3    0    0 -0.20000129389E+02 -0.18650516545E+02  0.15040417850E+03  0.15287012467E+03  0.10566000000E+00 0. -1.
         13    1    4    4    0    0  0.10004825588E+02  0.94818761377E+01  0.71113412650E+01  0.15510797812E+02  0.10566000000E+00 0. -1.
        -13    1    4    4    0    0  0.59912385884E+01  0.62982793345E+01  0.51884756469E+01  0.10123966909E+02  0.10566000000E+00 0.  1.
         14    1    4    4    0    0  0.40040652128E+01  0.28703610727E+01  0.28713296377E+01  0.57022841743E+01  0.00000000000E+00 0. -1.
<mgrwt>
<rscale>  0 0.80728524E+02</rscale>
<asrwt>0</asrwt>
<pdfrwt beam="1">  1        1 0.26906344E-01 0.80728524E+02</pdfrwt>
<pdfrwt beam="2">  1       -2 0.14332192E-02 0.80728524E+02</pdfrwt>
<totfact> 0.15861144E+05</totfact>
</mgrwt>
</event>
<event>
 8    1  0.1241100E-020  0.8142707E+02  0.7818608E-02  0.1325050E+00
         -2   -1    0    0    0  501 -0.00000000000E+00  0.00000000000E+00  0.15257577534E+02  0.15257577747E+02  0.25500000000E-02 0.  1.
          1   -1    0    0  501    0  0.00000000000E+00 -0.00000000000E+00 -0.10864057746E+03  0.10864057758E+03  0.50400000000E-02 0. -1.
        -24    2    1    2    0    0  0.00000000000E+00  0.35527136788E-14 -0.93382999929E+02  0.12389815533E+03  0.81427073003E+02 0.  0.
         66    2    3    3    0    0 -0.27189148828E+02  0.19075707684E+02 -0.10955734471E+02  0.35030851484E+02  0.20000000681E+01 0.  0.
         13    1    3    3    0    0  0.27189148828E+02 -0.19075707684E+02 -0.82427265457E+02  0.88867303844E+02  0.10566000000E+00 0. -1.
         13    1    4    4    0    0 -0.33077122454E+00  0.40074594392E+00 -0.17954762688E+00  0.55982881354E+00  0.10566000000E+00 0. -1.
        -13    1    4    4    0    0 -0.25251269313E+02  0.17707214598E+02 -0.98299907057E+01  0.32369923263E+02  0.10566000000E+00 0.  1.
        -14    1    4    4    0    0 -0.16071082905E+01  0.96774714122E+00 -0.94619613891E+00  0.21010994074E+01  0.00000000000E+00 0.  1.
<mgrwt>
<rscale>  0 0.81427073E+02</rscale>
<asrwt>0</asrwt>
<pdfrwt beam="1">  1        1 0.16713935E-01 0.81427073E+02</pdfrwt>
<pdfrwt beam="2">  1       -2 0.23473197E-02 0.81427073E+02</pdfrwt>
<totfact> 0.14212696E+05</totfact>
</mgrwt>
</event>
<event>
 8    1  0.1241100E-020  0.7996724E+02  0.7818608E-02  0.1329144E+00
         -2   -1    0    0    0  501 -0.00000000000E+00  0.00000000000E+00  0.39154880909E+01  0.39154889212E+01  0.25500000000E-02 0.  1.
          1   -1    0    0  501    0  0.00000000000E+00 -0.00000000000E+00 -0.40829893832E+03  0.40829893835E+03  0.50400000000E-02 0. -1.
        -24    2    1    2    0    0  0.00000000000E+00 -0.35527136788E-14 -0.40438345023E+03  0.41221442727E+03  0.79967238493E+02 0.  0.
         66    2    3    3    0    0 -0.37593096515E+02  0.13530032765E+02 -0.19913121765E+03  0.20310968597E+03  0.20000000016E+01 0.  0.
         13    1    3    3    0    0  0.37593096515E+02 -0.13530032765E+02 -0.20525223257E+03  0.20910474130E+03  0.10566000000E+00 0. -1.
         13    1    4    4    0    0 -0.10997125055E+02  0.45076305383E+01 -0.56724443755E+02  0.57956269513E+02  0.10566000000E+00 0. -1.
        -13    1    4    4    0    0 -0.65741002836E+01  0.21517724364E+01 -0.37349664473E+02  0.37984964386E+02  0.10566000000E+00 0.  1.
         14    1    4    4    0    0 -0.20021871177E+02  0.68706297900E+01 -0.10505710943E+03  0.10716845207E+03  0.00000000000E+00 0. -1.
<mgrwt>
<rscale>  0 0.79967238E+02</rscale>
<asrwt>0</asrwt>
<pdfrwt beam="1">  1        1 0.62815188E-01 0.79967238E+02</pdfrwt>
<pdfrwt beam="2">  1       -2 0.60238317E-03 0.79967238E+02</pdfrwt>
<totfact> 0.19077261E+05</totfact>
</mgrwt>
</event>
<event>
 8    1  0.1241100E-020  0.7830792E+02  0.7818608E-02  0.1333923E+00
         -2   -1    0    0    0  501 -0.00000000000E+00  0.00000000000E+00  0.20881060385E+02  0.20881060541E+02  0.25500000000E-02 0.  1.
          1   -1    0    0  501    0  0.00000000000E+00 -0.00000000000E+00 -0.73417371734E+02  0.73417371907E+02  0.50400000000E-02 0. -1.
        -24    2    1    2    0    0  0.00000000000E+00  0.35527136788E-14 -0.52536311349E+02  0.94298432448E+02  0.78307920110E+02 0.  0.
         66    2    3    3    0    0  0.13754897152E+02 -0.27338944434E+02 -0.55644345392E+02  0.63536668550E+02  0.19999994753E+01 0.  0.
         13    1    3    3    0    0 -0.13754897152E+02  0.27338944434E+02  0.31080340431E+01  0.30761763898E+02  0.10566000000E+00 0. -1.
         13    1    4    4    0    0  0.11604580765E+01 -0.31609086183E+01 -0.62353659171E+01  0.70872391237E+01  0.10566000000E+00 0. -1.
        -13    1    4    4    0    0  0.95175851598E+01 -0.18087315966E+02 -0.38288209046E+02  0.43401999287E+02  0.10566000000E+00 0.  1.
        -14    1    4    4    0    0  0.30768539158E+01 -0.60907198499E+01 -0.11120770428E+02  0.13047430139E+02  0.00000000000E+00 0.  1.
<mgrwt>
<rscale>  0 0.78307920E+02</rscale>
<asrwt>0</asrwt>
<pdfrwt beam="1">  1        1 0.11294980E-01 0.78307920E+02</pdfrwt>
<pdfrwt beam="2">  1       -2 0.32124709E-02 0.78307920E+02</pdfrwt>
<totfact> 0.14815424E+05</totfact>
</mgrwt>
</event>
<event>
 8    1  0.1241100E-020  0.8064190E+02  0.7818608E-02  0.1327240E+00
         -2   -1    0    0    0  501 -0.00000000000E+00  0.00000000000E+00  0.14534073242E+03  0.14534073244E+03  0.25500000000E-02 0.  1.
          1   -1    0    0  501    0  0.00000000000E+00 -0.00000000000E+00 -0.11185982795E+02  0.11185983930E+02  0.50400000000E-02 0. -1.
        -24    2    1    2    0    0  0.17763568394E-14  0.00000000000E+00  0.13415474962E+03  0.15652671637E+03  0.80641900345E+02 0.  0.
         66    2    3    3    0    0 -0.11594167731E+02  0.36941231216E+02  0.88793155973E+02  0.96888099421E+02  0.19999931607E+01 0.  0.
         13    1    3    3    0    0  0.11594167731E+02 -0.36941231216E+02  0.45361593649E+02  0.59638616949E+02  0.10566000000E+00 0. -1.
         13    1    4    4    0    0 -0.27635827862E+01  0.78202026235E+01  0.17824862350E+02  0.19660362171E+02  0.10566000000E+00 0. -1.
        -13    1    4    4    0    0 -0.43112722646E+01  0.12475450121E+02  0.29841475060E+02  0.32630487616E+02  0.10566000000E+00 0.  1.
         14    1    4    4    0    0 -0.45193126805E+01  0.16645578471E+02  0.41126818563E+02  0.44597249634E+02  0.00000000000E+00 0. -1.
<mgrwt>
<rscale>  0 0.80641900E+02</rscale>
<asrwt>0</asrwt>
<pdfrwt beam="1">  1        1 0.17209206E-02 0.80641900E+02</pdfrwt>
<pdfrwt beam="2">  1       -2 0.22360112E-01 0.80641900E+02</pdfrwt>
<totfact> 0.93540753E+04</totfact>
</mgrwt>
</event>
<event>
 8    1  0.1241100E-020  0.8087396E+02  0.7818608E-02  0.1326589E+00
         -2   -1    0    0    0  501 -0.00000000000E+00  0.00000000000E+00  0.55196894477E+02  0.55196894536E+02  0.25500000000E-02 0.  1.
          1   -1    0    0  501    0  0.00000000000E+00 -0.00000000000E+00 -0.29623936694E+02  0.29623937123E+02  0.50400000000E-02 0. -1.
        -24    2    1    2    0    0 -0.17763568394E-14  0.00000000000E+00  0.25572957783E+02  0.84820831659E+02  0.80873959428E+02 0.  0.
         66    2    3    3    0    0  0.87349003948E+01 -0.17763669219E+02  0.49745756635E+02  0.53576923494E+02  0.19999997167E+01 0.  0.
         13    1    3    3    0    0 -0.87349003948E+01  0.17763669219E+02 -0.24172798852E+02  0.31243908165E+02  0.10566000000E+00 0. -1.
         13    1    4    4    0    0  0.56175605296E+00 -0.72581317107E+00  0.33927703091E+01  0.35163090064E+01  0.10566000000E+00 0. -1.
        -13    1    4    4    0    0  0.27247969207E+01 -0.62873996778E+01  0.16526050715E+02  0.17890707902E+02  0.10566000000E+00 0.  1.
         14    1    4    4    0    0  0.54483474211E+01 -0.10750456370E+02  0.29826935611E+02  0.32169906586E+02  0.00000000000E+00 0. -1.
<mgrwt>
<rscale>  0 0.80873959E+02</rscale>
<asrwt>0</asrwt>
<pdfrwt beam="1">  1        1 0.45575288E-02 0.80873959E+02</pdfrwt>
<pdfrwt beam="2">  1       -2 0.84918299E-02 0.80873959E+02</pdfrwt>
<totfact> 0.11695933E+05</totfact>
</mgrwt>
</event>
<event>
 8    1  0.1241100E-020  0.7823740E+02  0.7818608E-02  0.1334129E+00
         -2   -1    0    0    0  501 -0.00000000000E+00  0.00000000000E+00  0.11672463039E+04  0.11672463039E+04  0.25500000000E-02 0.  1.
          1   -1    0    0  501    0  0.00000000000E+00 -0.00000000000E+00 -0.13110059915E+01  0.13110156793E+01  0.50400000000E-02 0. -1.
        -24    2    1    2    0    0  0.00000000000E+00  0.00000000000E+00  0.11659352979E+04  0.11685573196E+04  0.78237396683E+02 0.  0.
         66    2    3    3    0    0 -0.70475808318E+00 -0.12956380826E+02  0.11341420707E+04  0.11342180571E+04  0.19999999197E+01 0.  0.
         13    1    3    3    0    0  0.70475808318E+00  0.12956380826E+02  0.31793227141E+02  0.34339262429E+02  0.10566000000E+00 0. -1.
         13    1    4    4    0    0 -0.66884833615E+00 -0.85530712321E+01  0.67495519163E+03  0.67500972160E+03  0.10566000000E+00 0. -1.
        -13    1    4    4    0    0 -0.18743988115E-01 -0.43325707889E+01  0.44061234183E+03  0.44063365562E+03  0.10566000000E+00 0.  1.
        -14    1    4    4    0    0 -0.17165758909E-01 -0.70738805488E-01  0.18574537286E+02  0.18574679917E+02  0.00000000000E+00 0.  1.
<mgrwt>
<rscale>  0 0.78237397E+02</rscale>
<asrwt>0</asrwt>
<pdfrwt beam="1">  1        1 0.20169329E-03 0.78237397E+02</pdfrwt>
<pdfrwt beam="2">  1       -2 0.17957696E+00 0.78237397E+02</pdfrwt>
<totfact> 0.22814509E+04</totfact>
</mgrwt>
</event>
<event>
 8    1  0.1241100E-020  0.7947011E+02  0.7818608E-02  0.1330562E+00
         -2   -1    0    0    0  501 -0.00000000000E+00  0.00000000000E+00  0.64308199744E+01  0.64308204800E+01  0.25500000000E-02 0.  1.
          1   -1    0    0  501    0  0.00000000000E+00 -0.00000000000E+00 -0.24551682411E+03  0.24551682416E+03  0.50400000000E-02 0. -1.
        -24    2    1    2    0    0  0.35527136788E-14 -0.35527136788E-14 -0.23908600413E+03  0.25194764464E+03  0.79470109267E+02 0.  0.
         66    2    3    3    0    0 -0.25937223524E+02 -0.28608341682E+02 -0.90270490394E+02  0.98203555090E+02  0.20000045953E+01 0.  0.
         13    1    3    3    0    0  0.25937223524E+02  0.28608341682E+02 -0.14881551374E+03  0.15374408955E+03  0.10566000000E+00 0. -1.
         13    1    4    4    0    0 -0.51046071463E+01 -0.54871340754E+01 -0.18255019793E+02  0.19733792493E+02  0.10566000000E+00 0. -1.
        -13    1    4    4    0    0 -0.69631794092E+01 -0.88665318828E+01 -0.26510341731E+02  0.28808169638E+02  0.10566000000E+00 0.  1.
         14    1    4    4    0    0 -0.13869436969E+02 -0.14254675724E+02 -0.45505128869E+02  0.49661592959E+02  0.00000000000E+00 0. -1.
<mgrwt>
<rscale>  0 0.79470109E+02</rscale>
<asrwt>0</asrwt>
<pdfrwt beam="1">  1        1 0.37771812E-01 0.79470109E+02</pdfrwt>
<pdfrwt beam="2">  1       -2 0.98935715E-03 0.79470109E+02</pdfrwt>
<totfact> 0.17661622E+05</totfact>
</mgrwt>
</event>
<event>
 8    1  0.1241100E-020  0.7792440E+02  0.7818608E-02  0.1335047E+00
          1   -1    0    0  501    0  0.00000000000E+00  0.00000000000E+00  0.19520099658E+03  0.19520099665E+03  0.50400000000E-02 0. -1.
         -2   -1    0    0    0  501 -0.00000000000E+00 -0.00000000000E+00 -0.77768707847E+01  0.77768712028E+01  0.25500000000E-02 0.  1.
        -24    2    1    2    0    0  0.35527136788E-14 -0.35527136788E-14  0.18742412580E+03  0.20297786785E+03  0.77924398657E+02 0.  0.
         66    2    3    3    0    0  0.24165405384E+02 -0.17987528076E+02  0.29517243402E+02  0.42223046288E+02  0.19999990219E+01 0.  0.
         13    1    3    3    0    0 -0.24165405384E+02  0.17987528076E+02  0.15790688240E+03  0.16075482156E+03  0.10566000000E+00 0. -1.
         13    1    4    4    0    0  0.20224016556E+01 -0.19657760149E+01  0.29390217776E+01  0.40747265972E+01  0.10566000000E+00 0. -1.
        -13    1    4    4    0    0  0.40201340125E+01 -0.23249391215E+01  0.47643097994E+01  0.66540687777E+01  0.10566000000E+00 0.  1.
         14    1    4    4    0    0  0.18122869716E+02 -0.13696812939E+02  0.21813911825E+02  0.31494250913E+02  0.00000000000E+00 0. -1.
<mgrwt>
<rscale>  0 0.77924399E+02</rscale>
<asrwt>0</asrwt>
<pdfrwt beam="1">  1        1 0.30030921E-01 0.77924399E+02</pdfrwt>
<pdfrwt beam="2">  1       -2 0.11964418E-02 0.77924399E+02</pdfrwt>
<totfact> 0.17794036E+05</totfact>
</mgrwt>
</event>
<event>
 8    1  0.1241100E-020  0.7796476E+02  0.7818608E-02  0.1334928E+00
         -2   -1    0    0    0  501 -0.00000000000E+00  0.00000000000E+00  0.62574568289E+02  0.62574568341E+02  0.25500000000E-02 0.  1.
          1   -1    0    0  501    0  0.00000000000E+00 -0.00000000000E+00 -0.24285040165E+02  0.24285040688E+02  0.50400000000E-02 0. -1.
        -24    2    1    2    0    0  0.00000000000E+00  0.00000000000E+00  0.38289528124E+02  0.86859609029E+02  0.77964759454E+02 0.  0.
         66    2    3    3    0    0  0.72236815247E+01  0.22589742797E+02  0.53588650463E+02  0.58636349778E+02  0.20000006151E+01 0.  0.
         13    1    3    3    0    0 -0.72236815247E+01 -0.22589742797E+02 -0.15299122338E+02  0.28223259251E+02  0.10566000000E+00 0. -1.
         13    1    4    4    0    0  0.49028937266E+00  0.29259914558E+01  0.65899426811E+01  0.72277464153E+01  0.10566000000E+00 0. -1.
        -13    1    4    4    0    0  0.66340976149E+01  0.18350485405E+02  0.44183360059E+02  0.48300435152E+02  0.10566000000E+00 0.  1.
        -14    1    4    4    0    0  0.99294537135E-01  0.13132659365E+01  0.28153477227E+01  0.31081682105E+01  0.00000000000E+00 0.  1.
<mgrwt>
<rscale>  0 0.77964759E+02</rscale>
<asrwt>0</asrwt>
<pdfrwt beam="1">  1        1 0.37361601E-02 0.77964759E+02</pdfrwt>
<pdfrwt beam="2">  1       -2 0.96268567E-02 0.77964759E+02</pdfrwt>
<totfact> 0.12537513E+05</totfact>
</mgrwt>
</event>
<event>
 8    1  0.1241100E-020  0.8936292E+02  0.7818608E-02  0.1304402E+00
          1   -1    0    0  501    0  0.00000000000E+00  0.00000000000E+00  0.10387197657E+02  0.10387198880E+02  0.50400000000E-02 0. -1.
         -2   -1    0    0    0  501 -0.00000000000E+00 -0.00000000000E+00 -0.19220127901E+03  0.19220127903E+03  0.25500000000E-02 0.  1.
        -24    2    1    2    0    0  0.00000000000E+00  0.00000000000E+00 -0.18181408136E+03  0.20258847791E+03  0.89362918500E+02 0.  0.
         66    2    3    3    0    0  0.21151616048E+02  0.37094172725E+02 -0.61302045005E+02  0.74734926607E+02  0.20000053515E+01 0.  0.
         13    1    3    3    0    0 -0.21151616048E+02 -0.37094172725E+02 -0.12051203635E+03  0.12785355130E+03  0.10566000000E+00 0. -1.
         13    1    4    4    0    0  0.31869106350E+01  0.46337586920E+01 -0.83527497410E+01  0.10070139586E+02  0.10566000000E+00 0. -1.
        -13    1    4    4    0    0  0.15618407211E+02  0.28929808143E+02 -0.47209979395E+02  0.57529659841E+02  0.10566000000E+00 0.  1.
        -14    1    4    4    0    0  0.23462982028E+01  0.35306058909E+01 -0.57393158697E+01  0.71351271793E+01  0.00000000000E+00 0.  1.
<mgrwt>
<rscale>  0 0.89362918E+02</rscale>
<asrwt>0</asrwt>
<pdfrwt beam="1">  1        1 0.15980307E-02 0.89362918E+02</pdfrwt>
<pdfrwt beam="2">  1       -2 0.29569425E-01 0.89362918E+02</pdfrwt>
<totfact> 0.64915703E+04</totfact>
</mgrwt>
</event>
<event>
 8    1  0.1241100E-020  0.7899007E+02  0.7818608E-02  0.1331942E+00
         -2   -1    0    0    0  501 -0.00000000000E+00  0.00000000000E+00  0.36986493808E+01  0.36986502599E+01  0.25500000000E-02 0.  1.
          1   -1    0    0  501    0  0.00000000000E+00 -0.00000000000E+00 -0.42173707736E+03  0.42173707739E+03  0.50400000000E-02 0. -1.
        -24    2    1    2    0    0  0.00000000000E+00  0.00000000000E+00 -0.41803842798E+03  0.42543572765E+03  0.78990069590E+02 0.  0.
         66    2    3    3    0    0  0.19077397772E+02 -0.34277053830E+02 -0.23262299492E+03  0.23591591996E+03  0.20000004216E+01 0.  0.
         13    1    3    3    0    0 -0.19077397772E+02  0.34277053830E+02 -0.18541543306E+03  0.18951980769E+03  0.10566000000E+00 0. -1.
         13    1    4    4    0    0  0.11657053877E+00 -0.30815006998E+00 -0.27200801805E+01  0.27419966046E+01  0.10566000000E+00 0. -1.
        -13    1    4    4    0    0  0.11510664827E+02 -0.20833089726E+02 -0.13735239604E+03  0.13939944367E+03  0.10566000000E+00 0.  1.
        -14    1    4    4    0    0  0.74501624063E+01 -0.13135814034E+02 -0.92550518696E+02  0.93774479690E+02  0.00000000000E+00 0.  1.
<mgrwt>
<rscale>  0 0.78990070E+02</rscale>
<asrwt>0</asrwt>
<pdfrwt beam="1">  1        1 0.64882590E-01 0.78990070E+02</pdfrwt>
<pdfrwt beam="2">  1       -2 0.56902338E-03 0.78990070E+02</pdfrwt>
<totfact> 0.19803346E+05</totfact>
</mgrwt>
</event>
<event>
 8    1  0.1241100E-020  0.8030016E+02  0.7818608E-02  0.1328202E+00
         -2   -1    0    0    0  501 -0.00000000000E+00  0.00000000000E+00  0.58379217004E+01  0.58379222573E+01  0.25500000000E-02 0.  1.
          1   -1    0    0  501    0  0.00000000000E+00 -0.00000000000E+00 -0.27613063054E+03  0.27613063059E+03  0.50400000000E-02 0. -1.
        -24    2    1    2    0    0  0.00000000000E+00 -0.35527136788E-14 -0.27029270884E+03  0.28196855285E+03  0.80300164014E+02 0.  0.
         66    2    3    3    0    0 -0.24607534329E+02 -0.24996420450E+02 -0.20365084751E+03  0.20665918672E+03  0.19999953181E+01 0.  0.
         13    1    3    3    0    0  0.24607534329E+02  0.24996420450E+02 -0.66641861331E+02  0.75309366129E+02  0.10566000000E+00 0. -1.
         13    1    4    4    0    0 -0.48473039214E+01 -0.39916476694E+01 -0.38359844705E+02  0.38870534551E+02  0.10566000000E+00 0. -1.
        -13    1    4    4    0    0 -0.73429869423E+01 -0.79300234241E+01 -0.63171520997E+02  0.64089444980E+02  0.10566000000E+00 0.  1.
         14    1    4    4    0    0 -0.12417243465E+02 -0.13074749357E+02 -0.10211948181E+03  0.10369920719E+03  0.00000000000E+00 0. -1.
<mgrwt>
<rscale>  0 0.80300164E+02</rscale>
<asrwt>0</asrwt>
<pdfrwt beam="1">  1        1 0.42481626E-01 0.80300164E+02</pdfrwt>
<pdfrwt beam="2">  1       -2 0.89814206E-03 0.80300164E+02</pdfrwt>
<totfact> 0.17581441E+05</totfact>
</mgrwt>
</event>
<event>
 8    1  0.1241100E-020  0.7974662E+02  0.7818608E-02  0.1329772E+00
         -2   -1    0    0    0  501 -0.00000000000E+00  0.00000000000E+00  0.18559616413E+03  0.18559616415E+03  0.25500000000E-02 0.  1.
          1   -1    0    0  501    0  0.00000000000E+00 -0.00000000000E+00 -0.85663442848E+01  0.85663457674E+01  0.50400000000E-02 0. -1.
        -24    2    1    2    0    0 -0.11102230246E-15 -0.35527136788E-14  0.17702981984E+03  0.19416250991E+03  0.79746618373E+02 0.  0.
         66    2    3    3    0    0 -0.54920485842E+00 -0.15136314979E+02  0.17830866183E+03  0.17896197512E+03  0.19999991164E+01 0.  0.
         13    1    3    3    0    0  0.54920485842E+00  0.15136314979E+02 -0.12788419915E+01  0.15200534793E+02  0.10566000000E+00 0. -1.
         13    1    4    4    0    0 -0.87472896733E-01 -0.47265918913E+01  0.56824014038E+02  0.57020417903E+02  0.10566000000E+00 0. -1.
        -13    1    4    4    0    0  0.46721810083E+00 -0.62907342101E+01  0.69569288685E+02  0.69854768784E+02  0.10566000000E+00 0.  1.
         14    1    4    4    0    0 -0.92895006251E+00 -0.41189888775E+01  0.51915359112E+02  0.52086788433E+02  0.00000000000E+00 0. -1.
<mgrwt>
<rscale>  0 0.79746618E+02</rscale>
<asrwt>0</asrwt>
<pdfrwt beam="1">  1        1 0.13178993E-02 0.79746618E+02</pdfrwt>
<pdfrwt beam="2">  1       -2 0.28553254E-01 0.79746618E+02</pdfrwt>
<totfact> 0.88343799E+04</totfact>
</mgrwt>
</event>
<event>
 8    1  0.1241100E-020  0.7932600E+02  0.7818608E-02  0.1330975E+00
          1   -1    0    0  501    0  0.00000000000E+00  0.00000000000E+00  0.11040115114E+01  0.11040230156E+01  0.50400000000E-02 0. -1.
         -2   -1    0    0    0  501 -0.00000000000E+00 -0.00000000000E+00 -0.14249357497E+04  0.14249357497E+04  0.25500000000E-02 0.  1.
        -24    2    1    2    0    0  0.00000000000E+00  0.00000000000E+00 -0.14238317381E+04  0.14260397727E+04  0.79326002672E+02 0.  0.
         66    2    3    3    0    0 -0.16910689365E+02  0.58746820445E+01 -0.13481175423E+04  0.13482378837E+04  0.20000040322E+01 0.  0.
         13    1    3    3    0    0  0.16910689365E+02 -0.58746820445E+01 -0.75714195880E+02  0.77801888960E+02  0.10566000000E+00 0. -1.
         13    1    4    4    0    0 -0.34247515444E+01  0.87087655049E+00 -0.30170158621E+03  0.30172229886E+03  0.10566000000E+00 0. -1.
        -13    1    4    4    0    0 -0.10464419441E+02  0.43779255280E+01 -0.83868345640E+03  0.83876016924E+03  0.10566000000E+00 0.  1.
         14    1    4    4    0    0 -0.30215183797E+01  0.62587996597E+00 -0.20773249967E+03  0.20775541561E+03  0.00000000000E+00 0. -1.
<mgrwt>
<rscale>  0 0.79326003E+02</rscale>
<asrwt>0</asrwt>
<pdfrwt beam="1">  1        1 0.16984995E-03 0.79326003E+02</pdfrwt>
<pdfrwt beam="2">  1       -2 0.21921941E+00 0.79326003E+02</pdfrwt>
<totfact> 0.16516434E+04</totfact>
</mgrwt>
</event>
<event>
 8    1  0.1241100E-020  0.7967069E+02  0.7818608E-02  0.1329989E+00
         -2   -1    0    0    0  501 -0.00000000000E+00  0.00000000000E+00  0.28823923514E+03  0.28823923515E+03  0.25500000000E-02 0.  1.
          1   -1    0    0  501    0  0.00000000000E+00 -0.00000000000E+00 -0.55053378040E+01  0.55053401110E+01  0.50400000000E-02 0. -1.
        -24    2    1    2    0    0 -0.44408920985E-15  0.00000000000E+00  0.28273389734E+03  0.29374457527E+03  0.79670689675E+02 0.  0.
         66    2    3    3    0    0  0.20425554460E+01 -0.39032129485E+02  0.16933352662E+03  0.17379736017E+03  0.20000002531E+01 0.  0.
         13    1    3    3    0    0 -0.20425554460E+01  0.39032129485E+02  0.11340037072E+03  0.11994721510E+03  0.10566000000E+00 0. -1.
         13    1    4    4    0    0  0.15610735253E+01 -0.27166134592E+02  0.11971913515E+03  0.12277262848E+03  0.10566000000E+00 0. -1.
        -13    1    4    4    0    0  0.48104951374E+00 -0.11462027351E+02  0.48527184076E+02  0.49864899860E+02  0.10566000000E+00 0.  1.
         14    1    4    4    0    0  0.43240694459E-03 -0.40396754215E+00  0.10872073893E+01  0.11598318281E+01  0.00000000000E+00 0. -1.
<mgrwt>
<rscale>  0 0.79670690E+02</rscale>
<asrwt>0</asrwt>
<pdfrwt beam="1">  1        1 0.84697487E-03 0.79670690E+02</pdfrwt>
<pdfrwt beam="2">  1       -2 0.44344516E-01 0.79670690E+02</pdfrwt>
<totfact> 0.72561846E+04</totfact>
</mgrwt>
</event>
<event>
 8    1  0.1241100E-020  0.7964536E+02  0.7818608E-02  0.1330061E+00
         -2   -1    0    0    0  501 -0.00000000000E+00  0.00000000000E+00  0.96104098530E+02  0.96104098564E+02  0.25500000000E-02 0.  1.
          1   -1    0    0  501    0  0.00000000000E+00 -0.00000000000E+00 -0.16501332480E+02  0.16501333250E+02  0.50400000000E-02 0. -1.
        -24    2    1    2    0    0  0.88817841970E-15  0.00000000000E+00  0.79602766050E+02  0.11260543181E+03  0.79645357122E+02 0.  0.
         66    2    3    3    0    0  0.60643299095E+01  0.38881907036E+02  0.48222019906E+02  0.62273124250E+02  0.20000020135E+01 0.  0.
         13    1    3    3    0    0 -0.60643299095E+01 -0.38881907036E+02  0.31380746144E+02  0.50332307563E+02  0.10566000000E+00 0. -1.
         13    1    4    4    0    0  0.17267381882E+01  0.81055937512E+01  0.95926908258E+01  0.12677269270E+02  0.10566000000E+00 0. -1.
        -13    1    4    4    0    0  0.34794383957E+01  0.22359551263E+02  0.27405798606E+02  0.35540751055E+02  0.10566000000E+00 0.  1.
         14    1    4    4    0    0  0.85815332554E+00  0.84167620216E+01  0.11223530474E+02  0.14055103925E+02  0.00000000000E+00 0. -1.
<mgrwt>
<rscale>  0 0.79645357E+02</rscale>
<asrwt>0</asrwt>
<pdfrwt beam="1">  1        1 0.25386667E-02 0.79645357E+02</pdfrwt>
<pdfrwt beam="2">  1       -2 0.14785246E-01 0.79645357E+02</pdfrwt>
<totfact> 0.10839157E+05</totfact>
</mgrwt>
</event>
<event>
 8    1  0.1241100E-020  0.8021885E+02  0.7818608E-02  0.1328432E+00
         -2   -1    0    0    0  501 -0.00000000000E+00  0.00000000000E+00  0.13249557179E+03  0.13249557181E+03  0.25500000000E-02 0.  1.
          1   -1    0    0  501    0  0.00000000000E+00 -0.00000000000E+00 -0.12142033875E+02  0.12142034921E+02  0.50400000000E-02 0. -1.
        -24    2    1    2    0    0  0.00000000000E+00  0.00000000000E+00  0.12035353791E+03  0.14463760673E+03  0.80218845625E+02 0.  0.
         66    2    3    3    0    0 -0.17786788112E+02 -0.22228165848E+02  0.11109359891E+03  0.11470069269E+03  0.19999988322E+01 0.  0.
         13    1    3    3    0    0  0.17786788112E+02  0.22228165848E+02  0.92599390008E+01  0.29936914047E+02  0.10566000000E+00 0. -1.
         13    1    4    4    0    0 -0.54444580503E+01 -0.59700714676E+01  0.30730366134E+02  0.31774997144E+02  0.10566000000E+00 0. -1.
        -13    1    4    4    0    0 -0.66567781738E+01 -0.87925767525E+01  0.46072073421E+02  0.47373718611E+02  0.10566000000E+00 0.  1.
        -14    1    4    4    0    0 -0.56855518882E+01 -0.74655176278E+01  0.34291159355E+02  0.35551976930E+02  0.00000000000E+00 0.  1.
<mgrwt>
<rscale>  0 0.80218846E+02</rscale>
<asrwt>0</asrwt>
<pdfrwt beam="1">  1        1 0.18680054E-02 0.80218846E+02</pdfrwt>
<pdfrwt beam="2">  1       -2 0.20383933E-01 0.80218846E+02</pdfrwt>
<totfact> 0.97585367E+04</totfact>
</mgrwt>
</event>
<event>
 8    1  0.1241100E-020  0.7922233E+02  0.7818608E-02  0.1331273E+00
          1   -1    0    0  501    0  0.00000000000E+00  0.00000000000E+00  0.54312080472E+02  0.54312080706E+02  0.50400000000E-02 0. -1.
         -2   -1    0    0    0  501 -0.00000000000E+00 -0.00000000000E+00 -0.28889415830E+02  0.28889415943E+02  0.25500000000E-02 0.  1.
        -24    2    1    2    0    0 -0.88817841970E-15 -0.71054273576E-14  0.25422664642E+02  0.83201496648E+02  0.79222327453E+02 0.  0.
         66    2    3    3    0    0  0.61413579218E+01  0.32220193641E+02 -0.10556401277E+02  0.34515138150E+02  0.19999995630E+01 0.  0.
         13    1    3    3    0    0 -0.61413579218E+01 -0.32220193641E+02  0.35979065919E+02  0.48686358498E+02  0.10566000000E+00 0. -1.
         13    1    4    4    0    0  0.54833223300E-01  0.27546906150E+01 -0.73676754784E+00  0.28540002667E+01  0.10566000000E+00 0. -1.
        -13    1    4    4    0    0  0.49377961859E+01  0.22341526473E+02 -0.76540579321E+01  0.24127192194E+02  0.10566000000E+00 0.  1.
         14    1    4    4    0    0  0.11487285126E+01  0.71239765524E+01 -0.21655757970E+01  0.75339456892E+01  0.00000000000E+00 0. -1.
<mgrwt>
<rscale>  0 0.79222327E+02</rscale>
<asrwt>0</asrwt>
<pdfrwt beam="1">  1        1 0.83557046E-02 0.79222327E+02</pdfrwt>
<pdfrwt beam="2">  1       -2 0.44445256E-02 0.79222327E+02</pdfrwt>
<totfact> 0.13694282E+05</totfact>
</mgrwt>
</event>
<event>
 8    1  0.1241100E-020  0.7881754E+02  0.7818608E-02  0.1332441E+00
         -2   -1    0    0    0  501 -0.00000000000E+00  0.00000000000E+00  0.16298055800E+02  0.16298055999E+02  0.25500000000E-02 0.  1.
          1   -1    0    0  501    0  0.00000000000E+00 -0.00000000000E+00 -0.95290588345E+02  0.95290588478E+02  0.50400000000E-02 0. -1.
        -24    2    1    2    0    0  0.00000000000E+00  0.00000000000E+00 -0.78992532545E+02  0.11158864448E+03  0.78817544865E+02 0.  0.
         66    2    3    3    0    0 -0.29141576235E+02 -0.24575810438E+02 -0.25517202389E+02  0.45916549768E+02  0.20000001889E+01 0.  0.
         13    1    3    3    0    0  0.29141576235E+02  0.24575810438E+02 -0.53475330157E+02  0.65672094709E+02  0.10566000000E+00 0. -1.
         13    1    4    4    0    0 -0.88497457304E+01 -0.81827766985E+01 -0.82852969686E+01  0.14626453565E+02  0.10566000000E+00 0.  1.
        -13    1    4    4    0    0 -0.57175076531E+01 -0.51471497477E+01 -0.55692501915E+01  0.94979343027E+01  0.10566000000E+00 0. -1.
        -14    1    4    4    0    0 -0.14574322851E+02 -0.11245883992E+02 -0.11662655229E+02  0.21792161901E+02  0.00000000000E+00 0.  1.
<mgrwt>
<rscale>  0 0.78817545E+02</rscale>
<asrwt>0</asrwt>
<pdfrwt beam="1">  1        1 0.14660090E-01 0.78817545E+02</pdfrwt>
<pdfrwt beam="2">  1       -2 0.25073933E-02 0.78817545E+02</pdfrwt>
<totfact> 0.15180062E+05</totfact>
</mgrwt>
</event>
<event>
 8    1  0.1241100E-020  0.7996857E+02  0.7818608E-02  0.1329141E+00
         -2   -1    0    0    0  501 -0.00000000000E+00  0.00000000000E+00  0.18437684160E+02  0.18437684336E+02  0.25500000000E-02 0.  1.
          1   -1    0    0  501    0  0.00000000000E+00 -0.00000000000E+00 -0.86710628902E+02  0.86710629049E+02  0.50400000000E-02 0. -1.
        -24    2    1    2    0    0  0.00000000000E+00 -0.35527136788E-14 -0.68272944742E+02  0.10514831338E+03  0.79968573976E+02 0.  0.
         66    2    3    3    0    0  0.21895203356E+02  0.28007633157E+02 -0.10166842248E+02  0.37029609960E+02  0.19999718735E+01 0.  0.
         13    1    3    3    0    0 -0.21895203356E+02 -0.28007633157E+02 -0.58106102495E+02  0.68118703424E+02  0.10566000000E+00 0. -1.
         13    1    4    4    0    0  0.16912746051E+02  0.22436098043E+02 -0.83333172463E+01  0.29306566069E+02  0.10566000000E+00 0. -1.
        -13    1    4    4    0    0  0.48432469270E+01  0.55230344129E+01 -0.18464618205E+01  0.75750600798E+01  0.10566000000E+00 0.  1.
         14    1    4    4    0    0  0.13921037742E+00  0.48500700566E-01  0.12936819218E-01  0.14798381137E+00  0.00000000000E+00 0. -1.
<mgrwt>
<rscale>  0 0.79968574E+02</rscale>
<asrwt>0</asrwt>
<pdfrwt beam="1">  1        1 0.13340097E-01 0.79968574E+02</pdfrwt>
<pdfrwt beam="2">  1       -2 0.28365669E-02 0.79968574E+02</pdfrwt>
<totfact> 0.14371124E+05</totfact>
</mgrwt>
</event>
<event>
 8    1  0.1241100E-020  0.7158746E+02  0.7818608E-02  0.1354777E+00
          1   -1    0    0  501    0  0.00000000000E+00  0.00000000000E+00  0.92671962324E+01  0.92671976029E+01  0.50400000000E-02 0. -1.
         -2   -1    0    0    0  501 -0.00000000000E+00 -0.00000000000E+00 -0.13825011327E+03  0.13825011329E+03  0.25500000000E-02 0.  1.
        -24    2    1    2    0    0  0.00000000000E+00  0.00000000000E+00 -0.12898291703E+03  0.14751731089E+03  0.71587457885E+02 0.  0.
         66    2    3    3    0    0 -0.27717853628E+02  0.21688836592E+02 -0.77655797262E+02  0.85282518127E+02  0.20000017964E+01 0.  0.
         13    1    3    3    0    0  0.27717853628E+02 -0.21688836592E+02 -0.51327119772E+02  0.62234792766E+02  0.10566000000E+00 0. -1.
         13    1    4    4    0    0 -0.13300097818E+02  0.11255919719E+02 -0.39012528779E+02  0.42726770255E+02  0.10566000000E+00 0. -1.
        -13    1    4    4    0    0 -0.12783811225E+02  0.96154632888E+01 -0.34631903448E+02  0.38147907730E+02  0.10566000000E+00 0.  1.
         14    1    4    4    0    0 -0.16339445855E+01  0.81745358409E+00 -0.40113650360E+01  0.44078401426E+01  0.00000000000E+00 0. -1.
<mgrwt>
<rscale>  0 0.71587458E+02</rscale>
<asrwt>0</asrwt>
<pdfrwt beam="1">  1        1 0.14257227E-02 0.71587458E+02</pdfrwt>
<pdfrwt beam="2">  1       -2 0.21269247E-01 0.71587458E+02</pdfrwt>
<totfact> 0.12893347E+05</totfact>
</mgrwt>
</event>
<event>
 8    1  0.1241100E-020  0.7731278E+02  0.7818608E-02  0.1336855E+00
          1   -1    0    0  501    0  0.00000000000E+00  0.00000000000E+00  0.51024818713E+02  0.51024818961E+02  0.50400000000E-02 0. -1.
         -2   -1    0    0    0  501 -0.00000000000E+00 -0.00000000000E+00 -0.29286071111E+02  0.29286071222E+02  0.25500000000E-02 0.  1.
        -24    2    1    2    0    0  0.35527136788E-14  0.00000000000E+00  0.21738747602E+02  0.80310890184E+02  0.77312779893E+02 0.  0.
         66    2    3    3    0    0  0.23418708871E+02 -0.30009619051E+02  0.17711951264E+02  0.42032444374E+02  0.20000004363E+01 0.  0.
         13    1    3    3    0    0 -0.23418708871E+02  0.30009619051E+02  0.40267963379E+01  0.38278445809E+02  0.10566000000E+00 0. -1.
         13    1    4    4    0    0  0.89696692894E+01 -0.12533488620E+02  0.67016977507E+01  0.16806761167E+02  0.10566000000E+00 0. -1.
        -13    1    4    4    0    0  0.19419538067E+01 -0.26813628239E+01  0.18840781013E+01  0.38107486808E+01  0.10566000000E+00 0. -1.
        -14    1    4    4    0    0  0.12507085775E+02 -0.14794767607E+02  0.91261754116E+01  0.21414934526E+02  0.00000000000E+00 0.  1.
<mgrwt>
<rscale>  0 0.77312780E+02</rscale>
<asrwt>0</asrwt>
<pdfrwt beam="1">  1        1 0.78499720E-02 0.77312780E+02</pdfrwt>
<pdfrwt beam="2">  1       -2 0.45055495E-02 0.77312780E+02</pdfrwt>
<totfact> 0.14509714E+05</totfact>
</mgrwt>
</event>
<event>
 8    1  0.1241100E-020  0.7102699E+02  0.7818608E-02  0.1356635E+00
          1   -1    0    0  501    0  0.00000000000E+00  0.00000000000E+00  0.82654530883E+01  0.82654546249E+01  0.50400000000E-02 0. -1.
         -2   -1    0    0    0  501 -0.00000000000E+00 -0.00000000000E+00 -0.15258791863E+03  0.15258791865E+03  0.25500000000E-02 0.  1.
        -24    2    1    2    0    0  0.00000000000E+00  0.00000000000E+00 -0.14432246554E+03  0.16085337327E+03  0.71026992293E+02 0.  0.
         66    2    3    3    0    0 -0.16358469291E+02  0.30789633285E+02 -0.87172477205E+02  0.93907623849E+02  0.19999998945E+01 0.  0.
         13    1    3    3    0    0  0.16358469291E+02 -0.30789633285E+02 -0.57149988332E+02  0.66945749422E+02  0.10566000000E+00 0. -1.
         13    1    4    4    0    0 -0.94897043322E+00  0.25405876347E+01 -0.69008684870E+01  0.74154083045E+01  0.10566000000E+00 0. -1.
        -13    1    4    4    0    0 -0.35637876070E+01  0.72309195975E+01 -0.21442201136E+02  0.22907770165E+02  0.10566000000E+00 0.  1.
        -14    1    4    4    0    0 -0.11845711251E+02  0.21018126052E+02 -0.58829407582E+02  0.63584445380E+02  0.00000000000E+00 0.  1.
<mgrwt>
<rscale>  0 0.71026992E+02</rscale>
<asrwt>0</asrwt>
<pdfrwt beam="1">  1        1 0.12716084E-02 0.71026992E+02</pdfrwt>
<pdfrwt beam="2">  1       -2 0.23475062E-01 0.71026992E+02</pdfrwt>
<totfact> 0.12747297E+05</totfact>
</mgrwt>
</event>
<event>
 8    1  0.1241100E-020  0.7650565E+02  0.7818608E-02  0.1339271E+00
          1   -1    0    0  501    0  0.00000000000E+00  0.00000000000E+00  0.14104664187E+03  0.14104664196E+03  0.50400000000E-02 0. -1.
         -2   -1    0    0    0  501 -0.00000000000E+00 -0.00000000000E+00 -0.10374429453E+02  0.10374429767E+02  0.25500000000E-02 0.  1.
        -24    2    1    2    0    0  0.00000000000E+00  0.00000000000E+00  0.13067221242E+03  0.15142107173E+03  0.76505645969E+02 0.  0.
         66    2    3    3    0    0 -0.23071514055E+02 -0.13888600501E+02  0.11682771452E+02  0.29422357760E+02  0.20000006728E+01 0.  0.
         13    1    3    3    0    0  0.23071514055E+02  0.13888600501E+02  0.11898944097E+03  0.12199871397E+03  0.10566000000E+00 0. -1.
         13    1    4    4    0    0 -0.39457977932E+01 -0.28277098794E+01  0.17825608007E+01  0.51724221049E+01  0.10566000000E+00 0. -1.
        -13    1    4    4    0    0 -0.18229308254E+02 -0.10839206638E+02  0.93830848796E+01  0.23191583082E+02  0.10566000000E+00 0.  1.
         14    1    4    4    0    0 -0.89640800721E+00 -0.22168398338E+00  0.51712577198E+00  0.10583525726E+01  0.00000000000E+00 0. -1.
<mgrwt>
<rscale>  0 0.76505646E+02</rscale>
<asrwt>0</asrwt>
<pdfrwt beam="1">  1        1 0.21699481E-01 0.76505646E+02</pdfrwt>
<pdfrwt beam="2">  1       -2 0.15960662E-02 0.76505646E+02</pdfrwt>
<totfact> 0.17587638E+05</totfact>
</mgrwt>
</event>
<event>
 8    1  0.1241100E-020  0.7858787E+02  0.7818608E-02  0.1333107E+00
          1   -1    0    0  501    0  0.00000000000E+00  0.00000000000E+00  0.63503063121E+02  0.63503063321E+02  0.50400000000E-02 0. -1.
         -2   -1    0    0    0  501 -0.00000000000E+00 -0.00000000000E+00 -0.24313999514E+02  0.24313999647E+02  0.25500000000E-02 0.  1.
        -24    2    1    2    0    0  0.00000000000E+00  0.00000000000E+00  0.39189063607E+02  0.87817062968E+02  0.78587873377E+02 0.  0.
         66    2    3    3    0    0  0.17759130626E+02  0.11075269145E+02 -0.17520687242E+02  0.27368280410E+02  0.19999959905E+01 0.  0.
         13    1    3    3    0    0 -0.17759130626E+02 -0.11075269145E+02  0.56709750850E+02  0.60448782558E+02  0.10566000000E+00 0. -1.
         13    1    4    4    0    0  0.55727944615E+00  0.33247182268E+00 -0.39173601598E+00  0.76532283110E+00  0.10566000000E+00 0.  1.
        -13    1    4    4    0    0  0.10879127139E+02  0.71605171493E+01 -0.11983856894E+02  0.17698937912E+02  0.10566000000E+00 0.  1.
        -14    1    4    4    0    0  0.63227240410E+01  0.35822801731E+01 -0.51450943328E+01  0.89040196670E+01  0.00000000000E+00 0.  1.
<mgrwt>
<rscale>  0 0.78587873E+02</rscale>
<asrwt>0</asrwt>
<pdfrwt beam="1">  1        1 0.97697019E-02 0.78587873E+02</pdfrwt>
<pdfrwt beam="2">  1       -2 0.37406154E-02 0.78587873E+02</pdfrwt>
<totfact> 0.14343901E+05</totfact>
</mgrwt>
</event>
<event>
 8    1  0.1241100E-020  0.8588686E+02  0.7818608E-02  0.1313129E+00
          1   -1    0    0  501    0  0.00000000000E+00  0.00000000000E+00  0.39271114947E+02  0.39271115271E+02  0.50400000000E-02 0. -1.
         -2   -1    0    0    0  501 -0.00000000000E+00 -0.00000000000E+00 -0.46959154190E+02  0.46959154259E+02  0.25500000000E-02 0.  1.
        -24    2    1    2    0    0  0.00000000000E+00  0.00000000000E+00 -0.76880392430E+01  0.86230269530E+02  0.85886864163E+02 0.  0.
         66    2    3    3    0    0 -0.55334646570E+01 -0.42406172583E+02 -0.74980326302E+01  0.43464044880E+02  0.19999999344E+01 0.  0.
         13    1    3    3    0    0  0.55334646570E+01  0.42406172583E+02 -0.19000661282E+00  0.42766224650E+02  0.10566000000E+00 0. -1.
         13    1    4    4    0    0 -0.18694694148E+01 -0.90425845615E+01 -0.17079175106E+01  0.93910275105E+01  0.10566000000E+00 0. -1.
        -13    1    4    4    0    0 -0.21496965138E+01 -0.17774182694E+02 -0.26601468866E+01  0.18100561070E+02  0.10566000000E+00 0.  1.
         14    1    4    4    0    0 -0.15142987284E+01 -0.15589405327E+02 -0.31299682331E+01  0.15972456300E+02  0.00000000000E+00 0. -1.
<mgrwt>
<rscale>  0 0.85886864E+02</rscale>
<asrwt>0</asrwt>
<pdfrwt beam="1">  1        1 0.60417101E-02 0.85886864E+02</pdfrwt>
<pdfrwt beam="2">  1       -2 0.72244852E-02 0.85886864E+02</pdfrwt>
<totfact> 0.10347195E+05</totfact>
</mgrwt>
</event>
<event>
 8    1  0.1241100E-020  0.7966245E+02  0.7818608E-02  0.1330012E+00
         -2   -1    0    0    0  501 -0.00000000000E+00  0.00000000000E+00  0.41603850717E+01  0.41603858532E+01  0.25500000000E-02 0.  1.
          1   -1    0    0  501    0  0.00000000000E+00 -0.00000000000E+00 -0.38134121084E+03  0.38134121088E+03  0.50400000000E-02 0. -1.
        -24    2    1    2    0    0  0.00000000000E+00  0.71054273576E-14 -0.37718082577E+03  0.38550159673E+03  0.79662448816E+02 0.  0.
         66    2    3    3    0    0  0.18950420634E+02  0.32416019229E+02 -0.25265306012E+03  0.25543587363E+03  0.20000002859E+01 0.  0.
         13    1    3    3    0    0 -0.18950420634E+02 -0.32416019229E+02 -0.12452776565E+03  0.13006572310E+03  0.10566000000E+00 0. -1.
         13    1    4    4    0    0  0.93315369210E+00  0.14920424350E+01 -0.12242180182E+02  0.12368472262E+02  0.10566000000E+00 0.  1.
        -13    1    4    4    0    0  0.11815736459E+02  0.19180917596E+02 -0.14642262652E+03  0.14814559038E+03  0.10566000000E+00 0.  1.
         14    1    4    4    0    0  0.62015304824E+01  0.11743059198E+02 -0.93988253423E+02  0.94921810988E+02  0.00000000000E+00 0. -1.
<mgrwt>
<rscale>  0 0.79662449E+02</rscale>
<asrwt>0</asrwt>
<pdfrwt beam="1">  1        1 0.58667851E-01 0.79662449E+02</pdfrwt>
<pdfrwt beam="2">  1       -2 0.64005960E-03 0.79662449E+02</pdfrwt>
<totfact> 0.19053115E+05</totfact>
</mgrwt>
</event>
<event>
 8    1  0.1241100E-020  0.7439890E+02  0.7818608E-02  0.1345743E+00
         -2   -1    0    0    0  501 -0.00000000000E+00  0.00000000000E+00  0.21985037090E+03  0.21985037091E+03  0.25500000000E-02 0.  1.
          1   -1    0    0  501    0  0.00000000000E+00 -0.00000000000E+00 -0.62942759428E+01  0.62942779606E+01  0.50400000000E-02 0. -1.
        -24    2    1    2    0    0  0.00000000000E+00  0.00000000000E+00  0.21355609495E+03  0.22614464887E+03  0.74398901346E+02 0.  0.
         66    2    3    3    0    0 -0.95029168778E+01 -0.33205967924E+02  0.14862660377E+03  0.15260016081E+03  0.19999989512E+01 0.  0.
         13    1    3    3    0    0  0.95029168778E+01  0.33205967924E+02  0.64929491181E+02  0.73544488060E+02  0.10566000000E+00 0. -1.
         13    1    4    4    0    0 -0.37816412264E+01 -0.15121639768E+02  0.67342880718E+02  0.69123364697E+02  0.10566000000E+00 0. -1.
        -13    1    4    4    0    0 -0.42636803241E+01 -0.13814983440E+02  0.59586192623E+02  0.61315236709E+02  0.10566000000E+00 0.  1.
        -14    1    4    4    0    0 -0.14575953274E+01 -0.42693447160E+01  0.21697530432E+02  0.22161559406E+02  0.00000000000E+00 0.  1.
<mgrwt>
<rscale>  0 0.74398901E+02</rscale>
<asrwt>0</asrwt>
<pdfrwt beam="1">  1        1 0.96835014E-03 0.74398901E+02</pdfrwt>
<pdfrwt beam="2">  1       -2 0.33823140E-01 0.74398901E+02</pdfrwt>
<totfact> 0.98557432E+04</totfact>
</mgrwt>
</event>
<event>
 8    1  0.1241100E-020  0.7941712E+02  0.7818608E-02  0.1330714E+00
          1   -1    0    0  501    0  0.00000000000E+00  0.00000000000E+00  0.91889503037E+01  0.91889516859E+01  0.50400000000E-02 0. -1.
         -2   -1    0    0    0  501 -0.00000000000E+00 -0.00000000000E+00 -0.17159410185E+03  0.17159410187E+03  0.25500000000E-02 0.  1.
        -24    2    1    2    0    0  0.88817841970E-15  0.00000000000E+00 -0.16240515155E+03  0.18078305356E+03  0.79417121604E+02 0.  0.
         66    2    3    3    0    0 -0.74404766751E+01 -0.88687617373E+01 -0.16765871202E+03  0.16806980497E+03  0.19999995754E+01 0.  0.
         13    1    3    3    0    0  0.74404766751E+01  0.88687617373E+01  0.52535604739E+01  0.12713248585E+02  0.10566000000E+00 0. -1.
         13    1    4    4    0    0 -0.16986136433E+01 -0.29334919226E+01 -0.40616766496E+02  0.40758110209E+02  0.10566000000E+00 0. -1.
        -13    1    4    4    0    0 -0.33249068913E+01 -0.30045146261E+01 -0.70103598439E+02  0.70246763571E+02  0.10566000000E+00 0.  1.
        -14    1    4    4    0    0 -0.24169561405E+01 -0.29307551887E+01 -0.56938347085E+02  0.57064931190E+02  0.00000000000E+00 0.  1.
<mgrwt>
<rscale>  0 0.79417122E+02</rscale>
<asrwt>0</asrwt>
<pdfrwt beam="1">  1        1 0.14136849E-02 0.79417122E+02</pdfrwt>
<pdfrwt beam="2">  1       -2 0.26399090E-01 0.79417122E+02</pdfrwt>
<totfact> 0.91942141E+04</totfact>
</mgrwt>
</event>
<event>
 8    1  0.1241100E-020  0.7964459E+02  0.7818608E-02  0.1330063E+00
          1   -1    0    0  501    0  0.00000000000E+00  0.00000000000E+00  0.15929978986E+03  0.15929978994E+03  0.50400000000E-02 0. -1.
         -2   -1    0    0    0  501 -0.00000000000E+00 -0.00000000000E+00 -0.99549093856E+01  0.99549097122E+01  0.25500000000E-02 0.  1.
        -24    2    1    2    0    0  0.00000000000E+00  0.00000000000E+00  0.14934488047E+03  0.16925469965E+03  0.79644585693E+02 0.  0.
         66    2    3    3    0    0  0.12265618204E+02 -0.21242462015E+02  0.81204591235E+01  0.25915814724E+02  0.20000035078E+01 0.  0.
         13    1    3    3    0    0 -0.12265618204E+02  0.21242462015E+02  0.14122442135E+03  0.14333888492E+03  0.10566000000E+00 0. -1.
         13    1    4    4    0    0  0.18760747164E+01 -0.37027231030E+01  0.16602662751E+01  0.44718522849E+01  0.10566000000E+00 0. -1.
        -13    1    4    4    0    0  0.37848553335E+01 -0.77913554112E+01  0.30696802300E+01  0.91904542755E+01  0.10566000000E+00 0.  1.
        -14    1    4    4    0    0  0.66046881541E+01 -0.97483835013E+01  0.33905126184E+01  0.12253508164E+02  0.00000000000E+00 0.  1.
<mgrwt>
<rscale>  0 0.79644586E+02</rscale>
<asrwt>0</asrwt>
<pdfrwt beam="1">  1        1 0.24507658E-01 0.79644586E+02</pdfrwt>
<pdfrwt beam="2">  1       -2 0.15315247E-02 0.79644586E+02</pdfrwt>
<totfact> 0.16156482E+05</totfact>
</mgrwt>
</event>
<event>
 8    1  0.1241100E-020  0.7721860E+02  0.7818608E-02  0.1337135E+00
         -2   -1    0    0    0  501 -0.00000000000E+00  0.00000000000E+00  0.51090622883E+02  0.51090622946E+02  0.25500000000E-02 0.  1.
          1   -1    0    0  501    0  0.00000000000E+00 -0.00000000000E+00 -0.29177139079E+02  0.29177139514E+02  0.50400000000E-02 0. -1.
        -24    2    1    2    0    0  0.00000000000E+00 -0.44408920985E-15  0.21913483804E+02  0.80267762460E+02  0.77218604740E+02 0.  0.
         66    2    3    3    0    0 -0.25362364233E+02 -0.29416236465E+01  0.41033309763E+02  0.48369775409E+02  0.19999984578E+01 0.  0.
         13    1    3    3    0    0  0.25362364233E+02  0.29416236465E+01 -0.19119825959E+02  0.31897987051E+02  0.10566000000E+00 0. -1.
         13    1    4    4    0    0 -0.12206038802E+02 -0.10385654520E+01  0.18142702909E+02  0.21891432898E+02  0.10566000000E+00 0. -1.
        -13    1    4    4    0    0 -0.85498739554E+01 -0.10312552875E+01  0.14378602855E+02  0.16760644863E+02  0.10566000000E+00 0.  1.
        -14    1    4    4    0    0 -0.46064514762E+01 -0.87180290702E+00  0.85120039988E+01  0.97176976485E+01  0.00000000000E+00 0.  1.
<mgrwt>
<rscale>  0 0.77218605E+02</rscale>
<asrwt>0</asrwt>
<pdfrwt beam="1">  1        1 0.44887907E-02 0.77218605E+02</pdfrwt>
<pdfrwt beam="2">  1       -2 0.78600958E-02 0.77218605E+02</pdfrwt>
<totfact> 0.13321166E+05</totfact>
</mgrwt>
</event>
<event>
 8    1  0.1241100E-020  0.8000844E+02  0.7818608E-02  0.1329027E+00
          1   -1    0    0  501    0  0.00000000000E+00  0.00000000000E+00  0.23779955525E+02  0.23779956059E+02  0.50400000000E-02 0. -1.
         -2   -1    0    0    0  501 -0.00000000000E+00 -0.00000000000E+00 -0.67297747988E+02  0.67297748036E+02  0.25500000000E-02 0.  1.
        -24    2    1    2    0    0  0.00000000000E+00 -0.35527136788E-14 -0.43517792463E+02  0.91077704095E+02  0.80008436570E+02 0.  0.
         66    2    3    3    0    0 -0.15113511005E+02  0.29472121042E+02 -0.47260044916E+02  0.57745441180E+02  0.19999995199E+01 0.  0.
         13    1    3    3    0    0  0.15113511005E+02 -0.29472121042E+02  0.37422524525E+01  0.33332262915E+02  0.10566000000E+00 0. -1.
         13    1    4    4    0    0 -0.11798925592E+01  0.15310063313E+01 -0.30285482802E+01  0.35943560701E+01  0.10566000000E+00 0. -1.
        -13    1    4    4    0    0 -0.57429597061E+01  0.12619495417E+02 -0.19836269932E+02  0.24201694561E+02  0.10566000000E+00 0.  1.
         14    1    4    4    0    0 -0.81906587393E+01  0.15321619293E+02 -0.24395226703E+02  0.29949390549E+02  0.00000000000E+00 0. -1.
<mgrwt>
<rscale>  0 0.80008437E+02</rscale>
<asrwt>0</asrwt>
<pdfrwt beam="1">  1        1 0.36584548E-02 0.80008437E+02</pdfrwt>
<pdfrwt beam="2">  1       -2 0.10353500E-01 0.80008437E+02</pdfrwt>
<totfact> 0.11578353E+05</totfact>
</mgrwt>
</event>
<event>
 8    1  0.1241100E-020  0.7880837E+02  0.7818608E-02  0.1332468E+00
          1   -1    0    0  501    0  0.00000000000E+00  0.00000000000E+00  0.56872846541E+02  0.56872846764E+02  0.50400000000E-02 0. -1.
         -2   -1    0    0    0  501 -0.00000000000E+00 -0.00000000000E+00 -0.27301073170E+02  0.27301073289E+02  0.25500000000E-02 0.  1.
        -24    2    1    2    0    0  0.00000000000E+00  0.00000000000E+00  0.29571773371E+02  0.84173920053E+02  0.78808369078E+02 0.  0.
         66    2    3    3    0    0  0.58107978604E+00  0.29106402697E+02 -0.13527253566E+02  0.32163751637E+02  0.19999996656E+01 0.  0.
         13    1    3    3    0    0 -0.58107978604E+00 -0.29106402697E+02  0.43099026937E+02  0.52010168416E+02  0.10566000000E+00 0. -1.
         13    1    4    4    0    0  0.24471419404E+00  0.64428043276E+00 -0.25996514213E+00  0.74412917126E+00  0.10566000000E+00 0. -1.
        -13    1    4    4    0    0  0.21975122017E+00  0.57945151517E+01 -0.23165791434E+01  0.62451901017E+01  0.10566000000E+00 0.  1.
        -14    1    4    4    0    0  0.11661437184E+00  0.22667607112E+02 -0.10950709281E+02  0.25174432364E+02  0.00000000000E+00 0.  1.
<mgrwt>
<rscale>  0 0.78808369E+02</rscale>
<asrwt>0</asrwt>
<pdfrwt beam="1">  1        1 0.87496687E-02 0.78808369E+02</pdfrwt>
<pdfrwt beam="2">  1       -2 0.42001651E-02 0.78808369E+02</pdfrwt>
<totfact> 0.13993340E+05</totfact>
</mgrwt>
</event>
<event>
 8    1  0.1241100E-020  0.7127497E+02  0.7818608E-02  0.1355810E+00
         -2   -1    0    0    0  501 -0.00000000000E+00  0.00000000000E+00  0.16675396822E+02  0.16675397017E+02  0.25500000000E-02 0.  1.
          1   -1    0    0  501    0  0.00000000000E+00 -0.00000000000E+00 -0.76161928582E+02  0.76161928749E+02  0.50400000000E-02 0. -1.
        -24    2    1    2    0    0  0.00000000000E+00  0.35527136788E-14 -0.59486531760E+02  0.92837325765E+02  0.71274971725E+02 0.  0.
         66    2    3    3    0    0 -0.21862688618E+02 -0.28101563723E+02 -0.30537821504E+02  0.46949266024E+02  0.20000001738E+01 0.  0.
         13    1    3    3    0    0  0.21862688618E+02  0.28101563723E+02 -0.28948710257E+02  0.45888059742E+02  0.10566000000E+00 0. -1.
         13    1    4    4    0    0 -0.57650749280E+01 -0.80546202292E+01 -0.94264620550E+01  0.13674148854E+02  0.10566000000E+00 0. -1.
        -13    1    4    4    0    0 -0.15847622401E+02 -0.19644957146E+02 -0.20819292342E+02  0.32718887124E+02  0.10566000000E+00 0.  1.
         14    1    4    4    0    0 -0.24999128943E+00 -0.40198634831E+00 -0.29206710683E+00  0.55623004585E+00  0.00000000000E+00 0. -1.
<mgrwt>
<rscale>  0 0.71274972E+02</rscale>
<asrwt>0</asrwt>
<pdfrwt beam="1">  1        1 0.11717220E-01 0.71274972E+02</pdfrwt>
<pdfrwt beam="2">  1       -2 0.25654457E-02 0.71274972E+02</pdfrwt>
<totfact> 0.19209390E+05</totfact>
</mgrwt>
</event>
<event>
 8    1  0.1241100E-020  0.7208614E+02  0.7818608E-02  0.1353139E+00
          1   -1    0    0  501    0  0.00000000000E+00  0.00000000000E+00  0.23287408311E+03  0.23287408316E+03  0.50400000000E-02 0. -1.
         -2   -1    0    0    0  501 -0.00000000000E+00 -0.00000000000E+00 -0.55785629771E+01  0.55785635600E+01  0.25500000000E-02 0.  1.
        -24    2    1    2    0    0  0.71054273576E-14 -0.44408920985E-15  0.22729552013E+03  0.23845264672E+03  0.72086137761E+02 0.  0.
         66    2    3    3    0    0 -0.35725442194E+02  0.39069374620E+01  0.12151141410E+03  0.12673040348E+03  0.20000079206E+01 0.  0.
         13    1    3    3    0    0  0.35725442194E+02 -0.39069374620E+01  0.10578410603E+03  0.11172224324E+03  0.10566000000E+00 0. -1.
         13    1    4    4    0    0 -0.15253210481E+02  0.21344183418E+01  0.49737044054E+02  0.52067272705E+02  0.10566000000E+00 0. -1.
        -13    1    4    4    0    0 -0.16623279006E+02  0.12263718040E+01  0.57210301459E+02  0.59589152954E+02  0.10566000000E+00 0.  1.
         14    1    4    4    0    0 -0.38489527072E+01  0.54614731630E+00  0.14564068582E+02  0.15073977826E+02  0.00000000000E+00 0. -1.
<mgrwt>
<rscale>  0 0.72086138E+02</rscale>
<asrwt>0</asrwt>
<pdfrwt beam="1">  1        1 0.35826779E-01 0.72086138E+02</pdfrwt>
<pdfrwt beam="2">  1       -2 0.85824059E-03 0.72086138E+02</pdfrwt>
<totfact> 0.22590685E+05</totfact>
</mgrwt>
</event>
<event>
 8    1  0.1241100E-020  0.7656081E+02  0.7818608E-02  0.1339105E+00
         -2   -1    0    0    0  501 -0.00000000000E+00  0.00000000000E+00  0.11556905430E+03  0.11556905433E+03  0.25500000000E-02 0.  1.
          1   -1    0    0  501    0  0.00000000000E+00 -0.00000000000E+00 -0.12679771868E+02  0.12679772869E+02  0.50400000000E-02 0. -1.
        -24    2    1    2    0    0 -0.88817841970E-15  0.00000000000E+00  0.10288928244E+03  0.12824882720E+03  0.76560807456E+02 0.  0.
         66    2    3    3    0    0 -0.65878761879E+01  0.28680010143E+02  0.92424050731E+02  0.97016226715E+02  0.19999994881E+01 0.  0.
         13    1    3    3    0    0  0.65878761879E+01 -0.28680010143E+02  0.10465231706E+02  0.31232600487E+02  0.10566000000E+00 0. -1.
         13    1    4    4    0    0 -0.28474417208E+01  0.16127165617E+02  0.52703561634E+02  0.55189400868E+02  0.10566000000E+00 0. -1.
        -13    1    4    4    0    0 -0.23826969996E+01  0.85894307549E+01  0.26676321625E+02  0.28126373125E+02  0.10566000000E+00 0.  1.
         14    1    4    4    0    0 -0.13577374675E+01  0.39634137719E+01  0.13044167472E+02  0.13700452722E+02  0.00000000000E+00 0. -1.
<mgrwt>
<rscale>  0 0.76560807E+02</rscale>
<asrwt>0</asrwt>
<pdfrwt beam="1">  1        1 0.19507341E-02 0.76560807E+02</pdfrwt>
<pdfrwt beam="2">  1       -2 0.17779855E-01 0.76560807E+02</pdfrwt>
<totfact> 0.11438592E+05</totfact>
</mgrwt>
</event>
<event>
 8    1  0.1241100E-020  0.7895136E+02  0.7818608E-02  0.1332054E+00
          1   -1    0    0  501    0  0.00000000000E+00  0.00000000000E+00  0.38700342742E+02  0.38700343070E+02  0.50400000000E-02 0. -1.
         -2   -1    0    0    0  501 -0.00000000000E+00 -0.00000000000E+00 -0.40266550016E+02  0.40266550097E+02  0.25500000000E-02 0.  1.
        -24    2    1    2    0    0  0.00000000000E+00  0.00000000000E+00 -0.15662072743E+01  0.78966893167E+02  0.78951359781E+02 0.  0.
         66    2    3    3    0    0  0.37041725929E+02 -0.12938040795E+02  0.33211030694E+01  0.39427301289E+02  0.20000004885E+01 0.  0.
         13    1    3    3    0    0 -0.37041725929E+02  0.12938040795E+02 -0.48873103437E+01  0.39539591878E+02  0.10566000000E+00 0. -1.
         13    1    4    4    0    0  0.11952843051E+01 -0.19740392119E+00  0.25590043552E+00  0.12427075065E+01  0.10566000000E+00 0.  1.
        -13    1    4    4    0    0  0.12785202995E+02 -0.49998731572E+01  0.14619581982E+01  0.13806108540E+02  0.10566000000E+00 0.  1.
        -14    1    4    4    0    0  0.23061238629E+02 -0.77407637171E+01  0.16032444357E+01  0.24378485243E+02  0.00000000000E+00 0.  1.
<mgrwt>
<rscale>  0 0.78951360E+02</rscale>
<asrwt>0</asrwt>
<pdfrwt beam="1">  1        1 0.59538989E-02 0.78951360E+02</pdfrwt>
<pdfrwt beam="2">  1       -2 0.61948539E-02 0.78951360E+02</pdfrwt>
<totfact> 0.13108098E+05</totfact>
</mgrwt>
</event>
<event>
 8    1  0.1241100E-020  0.7765848E+02  0.7818608E-02  0.1335831E+00
          1   -1    0    0  501    0  0.00000000000E+00  0.00000000000E+00  0.37691928142E+03  0.37691928145E+03  0.50400000000E-02 0. -1.
         -2   -1    0    0    0  501 -0.00000000000E+00 -0.00000000000E+00 -0.40000864496E+01  0.40000872624E+01  0.25500000000E-02 0.  1.
        -24    2    1    2    0    0  0.00000000000E+00  0.71054273576E-14  0.37291919497E+03  0.38091936871E+03  0.77658479806E+02 0.  0.
         66    2    3    3    0    0 -0.20672904797E+01  0.37358162672E+02  0.23703567161E+03  0.23997878161E+03  0.20000001711E+01 0.  0.
         13    1    3    3    0    0  0.20672904797E+01 -0.37358162672E+02  0.13588352336E+03  0.14094058710E+03  0.10566000000E+00 0. -1.
         13    1    4    4    0    0 -0.60309448514E+00  0.67432922215E+01  0.46216782485E+02  0.46710147294E+02  0.10566000000E+00 0. -1.
        -13    1    4    4    0    0 -0.16582810358E+01  0.24653048991E+02  0.15410043616E+03  0.15606882555E+03  0.10566000000E+00 0.  1.
         14    1    4    4    0    0  0.19408504116E+00  0.59618214586E+01  0.36718452965E+02  0.37199808766E+02  0.00000000000E+00 0. -1.
<mgrwt>
<rscale>  0 0.77658480E+02</rscale>
<asrwt>0</asrwt>
<pdfrwt beam="1">  1        1 0.57987583E-01 0.77658480E+02</pdfrwt>
<pdfrwt beam="2">  1       -2 0.61539796E-03 0.77658480E+02</pdfrwt>
<totfact> 0.20329628E+05</totfact>
</mgrwt>
</event>
<event>
 8    1  0.1241100E-020  0.7947637E+02  0.7818608E-02  0.1330544E+00
         -2   -1    0    0    0  501 -0.00000000000E+00  0.00000000000E+00  0.79690228248E+02  0.79690228289E+02  0.25500000000E-02 0.  1.
          1   -1    0    0  501    0  0.00000000000E+00 -0.00000000000E+00 -0.19815769576E+02  0.19815770217E+02  0.50400000000E-02 0. -1.
        -24    2    1    2    0    0  0.00000000000E+00  0.00000000000E+00  0.59874458671E+02  0.99505998506E+02  0.79476367163E+02 0.  0.
         66    2    3    3    0    0 -0.33372187033E+02  0.85605707004E+00  0.56887156487E+02  0.65989273734E+02  0.19999934552E+01 0.  0.
         13    1    3    3    0    0  0.33372187033E+02 -0.85605707004E+00  0.29873021848E+01  0.33516724772E+02  0.10566000000E+00 0. -1.
         13    1    4    4    0    0 -0.49156569742E+00  0.93559323931E-02  0.56484570566E+00  0.75626653711E+00  0.10566000000E+00 0. -1.
        -13    1    4    4    0    0 -0.28685018233E+02  0.10752955263E+01  0.49462773633E+02  0.57188842190E+02  0.10566000000E+00 0.  1.
         14    1    4    4    0    0 -0.41956031017E+01 -0.22859438864E+00  0.68595371477E+01  0.80441650072E+01  0.00000000000E+00 0. -1.
<mgrwt>
<rscale>  0 0.79476367E+02</rscale>
<asrwt>0</asrwt>
<pdfrwt beam="1">  1        1 0.30485800E-02 0.79476367E+02</pdfrwt>
<pdfrwt beam="2">  1       -2 0.12260035E-01 0.79476367E+02</pdfrwt>
<totfact> 0.11374100E+05</totfact>
</mgrwt>
</event>
<event>
 8    1  0.1241100E-020  0.8049207E+02  0.7818608E-02  0.1327661E+00
         -2   -1    0    0    0  501 -0.00000000000E+00  0.00000000000E+00  0.13488428502E+02  0.13488428744E+02  0.25500000000E-02 0.  1.
          1   -1    0    0  501    0  0.00000000000E+00 -0.00000000000E+00 -0.12008392610E+03  0.12008392620E+03  0.50400000000E-02 0. -1.
        -24    2    1    2    0    0 -0.35527136788E-14  0.17763568394E-14 -0.10659549760E+03  0.13357235495E+03  0.80492073513E+02 0.  0.
         66    2    3    3    0    0 -0.30726711035E+02  0.95334945711E+01 -0.13272170051E+02  0.34859271125E+02  0.19999989385E+01 0.  0.
         13    1    3    3    0    0  0.30726711035E+02 -0.95334945711E+01 -0.93323327544E+02  0.98713083822E+02  0.10566000000E+00 0. -1.
         13    1    4    4    0    0 -0.16847666515E+02  0.43432179581E+01 -0.69449787172E+01  0.18733694314E+02  0.10566000000E+00 0. -1.
        -13    1    4    4    0    0 -0.49600050838E+01  0.18837395491E+01 -0.25969752372E+01  0.59080935621E+01  0.10566000000E+00 0.  1.
         14    1    4    4    0    0 -0.89190394360E+01  0.33065370639E+01 -0.37302160968E+01  0.10217483249E+02  0.00000000000E+00 0. -1.
<mgrwt>
<rscale>  0 0.80492074E+02</rscale>
<asrwt>0</asrwt>
<pdfrwt beam="1">  1        1 0.18474450E-01 0.80492074E+02</pdfrwt>
<pdfrwt beam="2">  1       -2 0.20751430E-02 0.80492074E+02</pdfrwt>
<totfact> 0.14920207E+05</totfact>
</mgrwt>
</event>
<event>
 8    1  0.1241100E-020  0.8079923E+02  0.7818608E-02  0.1326799E+00
          1   -1    0    0  501    0  0.00000000000E+00  0.00000000000E+00  0.74560551832E+02  0.74560552002E+02  0.50400000000E-02 0. -1.
         -2   -1    0    0    0  501 -0.00000000000E+00 -0.00000000000E+00 -0.21889979805E+02  0.21889979954E+02  0.25500000000E-02 0.  1.
        -24    2    1    2    0    0 -0.35527136788E-14  0.00000000000E+00  0.52670572027E+02  0.96450531956E+02  0.80799232403E+02 0.  0.
         66    2    3    3    0    0  0.27111004933E+02  0.17298086719E+02 -0.27881010556E+01  0.32341983566E+02  0.20000002063E+01 0.  0.
         13    1    3    3    0    0 -0.27111004933E+02 -0.17298086719E+02  0.55458673083E+02  0.64108548391E+02  0.10566000000E+00 0. -1.
         13    1    4    4    0    0  0.27944998048E+01  0.14774073594E+01 -0.18673914380E+00  0.31682798500E+01  0.10566000000E+00 0. -1.
        -13    1    4    4    0    0  0.16727457093E+02  0.11737793587E+02 -0.20698483183E+01  0.20539694623E+02  0.10566000000E+00 0.  1.
        -14    1    4    4    0    0  0.75890480356E+01  0.40828857723E+01 -0.53151359347E+00  0.86340090929E+01  0.00000000000E+00 0.  1.
<mgrwt>
<rscale>  0 0.80799232E+02</rscale>
<asrwt>0</asrwt>
<pdfrwt beam="1">  1        1 0.11470854E-01 0.80799232E+02</pdfrwt>
<pdfrwt beam="2">  1       -2 0.33676892E-02 0.80799232E+02</pdfrwt>
<totfact> 0.13634853E+05</totfact>
</mgrwt>
</event>
<event>
 8    1  0.1241100E-020  0.7794730E+02  0.7818608E-02  0.1334980E+00
         -2   -1    0    0    0  501 -0.00000000000E+00  0.00000000000E+00  0.17271154719E+02  0.17271154907E+02  0.25500000000E-02 0.  1.
          1   -1    0    0  501    0  0.00000000000E+00 -0.00000000000E+00 -0.87946942001E+02  0.87946942145E+02  0.50400000000E-02 0. -1.
        -24    2    1    2    0    0  0.88817841970E-15  0.00000000000E+00 -0.70675787282E+02  0.10521809705E+03  0.77947296550E+02 0.  0.
         66    2    3    3    0    0 -0.67783301652E+01 -0.19306605237E+02  0.93731302752E+01  0.22595272532E+02  0.20000010124E+01 0.  0.
         13    1    3    3    0    0  0.67783301652E+01  0.19306605237E+02 -0.80048917557E+02  0.82622824520E+02  0.10566000000E+00 0. -1.
         13    1    4    4    0    0 -0.19268226822E+00 -0.17417855295E+01  0.61611237960E+00  0.18605649108E+01  0.10566000000E+00 0. -1.
        -13    1    4    4    0    0 -0.48675420613E+01 -0.11887314145E+02  0.64008348946E+01  0.14352109764E+02  0.10566000000E+00 0.  1.
        -14    1    4    4    0    0 -0.17181058357E+01 -0.56775055626E+01  0.23561830010E+01  0.63825978575E+01  0.00000000000E+00 0.  1.
<mgrwt>
<rscale>  0 0.77947297E+02</rscale>
<asrwt>0</asrwt>
<pdfrwt beam="1">  1        1 0.13530299E-01 0.77947297E+02</pdfrwt>
<pdfrwt beam="2">  1       -2 0.26571008E-02 0.77947297E+02</pdfrwt>
<totfact> 0.15438994E+05</totfact>
</mgrwt>
</event>
<event>
 8    1  0.1241100E-020  0.7986773E+02  0.7818608E-02  0.1329427E+00
         -2   -1    0    0    0  501 -0.00000000000E+00  0.00000000000E+00  0.53270230332E+01  0.53270236435E+01  0.25500000000E-02 0.  1.
          1   -1    0    0  501    0  0.00000000000E+00 -0.00000000000E+00 -0.29936300812E+03  0.29936300816E+03  0.50400000000E-02 0. -1.
        -24    2    1    2    0    0  0.00000000000E+00  0.00000000000E+00 -0.29403598508E+03  0.30469003180E+03  0.79867734135E+02 0.  0.
         66    2    3    3    0    0 -0.38523842640E+02  0.70507094551E+00 -0.10744100848E+03  0.11415845952E+03  0.20000002885E+01 0.  0.
         13    1    3    3    0    0  0.38523842640E+02 -0.70507094551E+00 -0.18659497661E+03  0.19053157228E+03  0.10566000000E+00 0. -1.
         13    1    4    4    0    0 -0.76407544206E+01 -0.27428634698E+00 -0.22750275686E+02  0.24000886837E+02  0.10566000000E+00 0. -1.
        -13    1    4    4    0    0 -0.89684853826E+01  0.66269134510E+00 -0.23798675983E+02  0.25441325289E+02  0.10566000000E+00 0.  1.
         14    1    4    4    0    0 -0.21914602837E+02  0.31666594739E+00 -0.60892056809E+02  0.64716247397E+02  0.00000000000E+00 0. -1.
<mgrwt>
<rscale>  0 0.79867734E+02</rscale>
<asrwt>0</asrwt>
<pdfrwt beam="1">  1        1 0.46055834E-01 0.79867734E+02</pdfrwt>
<pdfrwt beam="2">  1       -2 0.81954229E-03 0.79867734E+02</pdfrwt>
<totfact> 0.18113148E+05</totfact>
</mgrwt>
</event>
<event>
 8    1  0.1241100E-020  0.7970360E+02  0.7818608E-02  0.1329895E+00
          1   -1    0    0  501    0  0.00000000000E+00  0.00000000000E+00  0.31476003961E+01  0.31476044312E+01  0.50400000000E-02 0. -1.
         -2   -1    0    0    0  501 -0.00000000000E+00 -0.00000000000E+00 -0.50456366298E+03  0.50456366299E+03  0.25500000000E-02 0.  1.
        -24    2    1    2    0    0 -0.17763568394E-14  0.00000000000E+00 -0.50141606258E+03  0.50771126742E+03  0.79703596191E+02 0.  0.
         66    2    3    3    0    0 -0.10822174312E+02 -0.16729540838E+02 -0.47052987990E+03  0.47095579928E+03  0.19999999228E+01 0.  0.
         13    1    3    3    0    0  0.10822174312E+02  0.16729540838E+02 -0.30886182685E+02  0.36755468142E+02  0.10566000000E+00 0. -1.
         13    1    4    4    0    0 -0.10073362471E+01 -0.10697180543E+01 -0.42210533658E+02  0.42236232535E+02  0.10566000000E+00 0. -1.
        -13    1    4    4    0    0 -0.11391307515E+01 -0.12120422010E+01 -0.37165605386E+02  0.37202957583E+02  0.10566000000E+00 0.  1.
         14    1    4    4    0    0 -0.86757073133E+01 -0.14447780583E+02 -0.39115374085E+03  0.39151660916E+03  0.00000000000E+00 0. -1.
<mgrwt>
<rscale>  0 0.79703596E+02</rscale>
<asrwt>0</asrwt>
<pdfrwt beam="1">  1        1 0.48424693E-03 0.79703596E+02</pdfrwt>
<pdfrwt beam="2">  1       -2 0.77625115E-01 0.79703596E+02</pdfrwt>
<totfact> 0.50519051E+04</totfact>
</mgrwt>
</event>
<event>
 8    1  0.1241100E-020  0.8052503E+02  0.7818608E-02  0.1327568E+00
          1   -1    0    0  501    0  0.00000000000E+00  0.00000000000E+00  0.18607895978E+02  0.18607896661E+02  0.50400000000E-02 0. -1.
         -2   -1    0    0    0  501 -0.00000000000E+00 -0.00000000000E+00 -0.87117317814E+02  0.87117317851E+02  0.25500000000E-02 0.  1.
        -24    2    1    2    0    0  0.00000000000E+00  0.35527136788E-14 -0.68509421835E+02  0.10572521451E+03  0.80525027807E+02 0.  0.
         66    2    3    3    0    0  0.60311740566E+01 -0.31901800746E+02 -0.30683169647E+01  0.32672840683E+02  0.19999994942E+01 0.  0.
         13    1    3    3    0    0 -0.60311740566E+01  0.31901800746E+02 -0.65441104871E+02  0.73052373829E+02  0.10566000000E+00 0. -1.
         13    1    4    4    0    0  0.30384467877E+01 -0.13828217653E+02 -0.87833295616E+00  0.14185710950E+02  0.10566000000E+00 0. -1.
        -13    1    4    4    0    0  0.27180368002E+01 -0.13306062013E+02 -0.15748689738E+01  0.13672248779E+02  0.10566000000E+00 0.  1.
         14    1    4    4    0    0  0.27469046865E+00 -0.47675210796E+01 -0.61511503471E+00  0.48148809543E+01  0.00000000000E+00 0. -1.
<mgrwt>
<rscale>  0 0.80525028E+02</rscale>
<asrwt>0</asrwt>
<pdfrwt beam="1">  1        1 0.28627533E-02 0.80525028E+02</pdfrwt>
<pdfrwt beam="2">  1       -2 0.13402664E-01 0.80525028E+02</pdfrwt>
<totfact> 0.10785091E+05</totfact>
</mgrwt>
</event>
<event>
 8    1  0.1241100E-020  0.8095192E+02  0.7818608E-02  0.1326372E+00
          1   -1    0    0  501    0  0.00000000000E+00  0.00000000000E+00  0.70801747250E+01  0.70801765188E+01  0.50400000000E-02 0. -1.
         -2   -1    0    0    0  501 -0.00000000000E+00 -0.00000000000E+00 -0.23139301315E+03  0.23139301316E+03  0.25500000000E-02 0.  1.
        -24    2    1    2    0    0  0.00000000000E+00  0.00000000000E+00 -0.22431283842E+03  0.23847318968E+03  0.80951916068E+02 0.  0.
         66    2    3    3    0    0 -0.16249223943E+02  0.12608983817E+02 -0.21483522265E+03  0.21582677459E+03  0.19999969213E+01 0.  0.
         13    1    3    3    0    0  0.16249223943E+02 -0.12608983817E+02 -0.94776157734E+01  0.22646415090E+02  0.10566000000E+00 0. -1.
         13    1    4    4    0    0 -0.10465073552E+02  0.77909122566E+01 -0.13867422869E+03  0.13928664309E+03  0.10566000000E+00 0.  1.
        -13    1    4    4    0    0 -0.20396075651E+01  0.15274668044E+01 -0.31043201669E+02  0.31147787847E+02  0.10566000000E+00 0. -1.
        -14    1    4    4    0    0 -0.37445428251E+01  0.32906047565E+01 -0.45117792293E+02  0.45392343649E+02  0.00000000000E+00 0.  1.
<mgrwt>
<rscale>  0 0.80951916E+02</rscale>
<asrwt>0</asrwt>
<pdfrwt beam="1">  1        1 0.10892580E-02 0.80951916E+02</pdfrwt>
<pdfrwt beam="2">  1       -2 0.35598919E-01 0.80951916E+02</pdfrwt>
<totfact> 0.77526050E+04</totfact>
</mgrwt>
</event>
<event>
 8    1  0.1241100E-020  0.8048004E+02  0.7818608E-02  0.1327695E+00
          1   -1    0    0  501    0  0.00000000000E+00  0.00000000000E+00  0.84913430019E+01  0.84913444976E+01  0.50400000000E-02 0. -1.
         -2   -1    0    0    0  501 -0.00000000000E+00 -0.00000000000E+00 -0.19069529835E+03  0.19069529836E+03  0.25500000000E-02 0.  1.
        -24    2    1    2    0    0  0.00000000000E+00  0.00000000000E+00 -0.18220395535E+03  0.19918664286E+03  0.80480043185E+02 0.  0.
         66    2    3    3    0    0  0.39011187292E+02 -0.87169500827E+01 -0.80257924081E+02  0.89683846517E+02  0.19999989356E+01 0.  0.
         13    1    3    3    0    0 -0.39011187292E+02  0.87169500827E+01 -0.10194603126E+03  0.10950279634E+03  0.10566000000E+00 0. -1.
         13    1    4    4    0    0  0.45208270814E+01 -0.45738007247E+00 -0.92699426700E+01  0.10324246954E+02  0.10566000000E+00 0. -1.
        -13    1    4    4    0    0  0.29934726822E+02 -0.73330575165E+01 -0.61081340634E+02  0.68416393797E+02  0.10566000000E+00 0.  1.
         14    1    4    4    0    0  0.45556333885E+01 -0.92651249370E+00 -0.99066407765E+01  0.10943205766E+02  0.00000000000E+00 0. -1.
<mgrwt>
<rscale>  0 0.80480043E+02</rscale>
<asrwt>0</asrwt>
<pdfrwt beam="1">  1        1 0.13063607E-02 0.80480043E+02</pdfrwt>
<pdfrwt beam="2">  1       -2 0.29337735E-01 0.80480043E+02</pdfrwt>
<totfact> 0.85379946E+04</totfact>
</mgrwt>
</event>
<event>
 8    1  0.1241100E-020  0.7971253E+02  0.7818608E-02  0.1329869E+00
         -2   -1    0    0    0  501 -0.00000000000E+00  0.00000000000E+00  0.84753804747E+03  0.84753804748E+03  0.25500000000E-02 0.  1.
          1   -1    0    0  501    0  0.00000000000E+00 -0.00000000000E+00 -0.18742745198E+01  0.18742812962E+01  0.50400000000E-02 0. -1.
        -24    2    1    2    0    0  0.00000000000E+00  0.35527136788E-14  0.84566377295E+03  0.84941232877E+03  0.79712529669E+02 0.  0.
         66    2    3    3    0    0  0.19157857319E+01  0.31160463153E+02  0.68668331508E+03  0.68739553382E+03  0.20000001196E+01 0.  0.
         13    1    3    3    0    0 -0.19157857319E+01 -0.31160463153E+02  0.15898045787E+03  0.16201679496E+03  0.10566000000E+00 0. -1.
         13    1    4    4    0    0  0.32833478113E+00  0.43627583668E+01  0.86373460149E+02  0.86484260108E+02  0.10566000000E+00 0. -1.
        -13    1    4    4    0    0  0.60513965453E+00  0.18365717680E+02  0.41926126274E+03  0.41966377421E+03  0.10566000000E+00 0.  1.
        -14    1    4    4    0    0  0.98231129623E+00  0.84319871064E+01  0.18104859219E+03  0.18124749950E+03  0.00000000000E+00 0.  1.
<mgrwt>
<rscale>  0 0.79712530E+02</rscale>
<asrwt>0</asrwt>
<pdfrwt beam="1">  1        1 0.28835020E-03 0.79712530E+02</pdfrwt>
<pdfrwt beam="2">  1       -2 0.13039058E+00 0.79712530E+02</pdfrwt>
<totfact> 0.31597158E+04</totfact>
</mgrwt>
</event>
<event>
 8    1  0.1241100E-020  0.7782712E+02  0.7818608E-02  0.1335333E+00
         -2   -1    0    0    0  501 -0.00000000000E+00  0.00000000000E+00  0.47137172884E+02  0.47137172953E+02  0.25500000000E-02 0.  1.
          1   -1    0    0  501    0  0.00000000000E+00 -0.00000000000E+00 -0.32124652171E+02  0.32124652566E+02  0.50400000000E-02 0. -1.
        -24    2    1    2    0    0  0.22204460493E-15  0.00000000000E+00  0.15012520714E+02  0.79261825519E+02  0.77827123848E+02 0.  0.
         66    2    3    3    0    0 -0.14835442116E+01  0.24070869277E+02  0.38580177721E+02  0.45541604997E+02  0.20000053902E+01 0.  0.
         13    1    3    3    0    0  0.14835442116E+01 -0.24070869277E+02 -0.23567657007E+02  0.33720220522E+02  0.10566000000E+00 0. -1.
         13    1    4    4    0    0 -0.94258836706E-01  0.10319222844E+01  0.22228652741E+01  0.24547998679E+01  0.10566000000E+00 0. -1.
        -13    1    4    4    0    0 -0.10180421500E+01  0.21873879001E+02  0.34333524461E+02  0.40722291910E+02  0.10566000000E+00 0.  1.
        -14    1    4    4    0    0 -0.37124322486E+00  0.11650679915E+01  0.20237879857E+01  0.23645132201E+01  0.00000000000E+00 0.  1.
<mgrwt>
<rscale>  0 0.77827124E+02</rscale>
<asrwt>0</asrwt>
<pdfrwt beam="1">  1        1 0.49422542E-02 0.77827124E+02</pdfrwt>
<pdfrwt beam="2">  1       -2 0.72518728E-02 0.77827124E+02</pdfrwt>
<totfact> 0.13240211E+05</totfact>
</mgrwt>
</event>
<event>
 8    1  0.1241100E-020  0.7990467E+02  0.7818608E-02  0.1329322E+00
          1   -1    0    0  501    0  0.00000000000E+00  0.00000000000E+00  0.30149217277E+02  0.30149217698E+02  0.50400000000E-02 0. -1.
         -2   -1    0    0    0  501 -0.00000000000E+00 -0.00000000000E+00 -0.52942968553E+02  0.52942968614E+02  0.25500000000E-02 0.  1.
        -24    2    1    2    0    0  0.35527136788E-14  0.35527136788E-14 -0.22793751276E+02  0.83092186312E+02  0.79904670257E+02 0.  0.
         66    2    3    3    0    0  0.28092231748E+02  0.25220427654E+02 -0.24920211700E+02  0.45279801389E+02  0.20000017552E+01 0.  0.
         13    1    3    3    0    0 -0.28092231748E+02 -0.25220427654E+02  0.21264604238E+01  0.37812384923E+02  0.10566000000E+00 0. -1.
         13    1    4    4    0    0  0.27033343078E+01  0.23426239450E+01 -0.23629580428E+01  0.42884307241E+01  0.10566000000E+00 0. -1.
        -13    1    4    4    0    0  0.12630591127E+02  0.10162249175E+02 -0.10446567016E+02  0.19285877397E+02  0.10566000000E+00 0.  1.
         14    1    4    4    0    0  0.12758306313E+02  0.12715554534E+02 -0.12110686641E+02  0.21705493268E+02  0.00000000000E+00 0. -1.
<mgrwt>
<rscale>  0 0.79904670E+02</rscale>
<asrwt>0</asrwt>
<pdfrwt beam="1">  1        1 0.46383412E-02 0.79904670E+02</pdfrwt>
<pdfrwt beam="2">  1       -2 0.81450721E-02 0.79904670E+02</pdfrwt>
<totfact> 0.12146964E+05</totfact>
</mgrwt>
</event>
<event>
 8    1  0.1425094E-020  0.7881832E+02  0.7818608E-02  0.1332439E+00
          1   -1    0    0  501    0  0.00000000000E+00  0.00000000000E+00  0.13885326337E+02  0.13885327252E+02  0.50400000000E-02 0. -1.
         -2   -1    0    0    0  501 -0.00000000000E+00 -0.00000000000E+00 -0.11185057770E+03  0.11185057773E+03  0.25500000000E-02 0.  1.
        -24    2    1    2    0    0  0.17763568394E-14  0.88817841970E-15 -0.97965251360E+02  0.12573590498E+03  0.78818318470E+02 0.  0.
         66    2    3    3    0    0 -0.10058310909E+02 -0.44141098460E+01 -0.10934839001E+03  0.10991689762E+03  0.20000002393E+01 0.  0.
         13    1    3    3    0    0  0.10058310909E+02  0.44141098460E+01  0.11383138651E+02  0.15819007354E+02  0.10566000000E+00 0. -1.
         13    1    4    4    0    0 -0.42658272941E+01 -0.12229152606E+01 -0.46171412660E+02  0.46384300311E+02  0.10566000000E+00 0. -1.
        -13    1    4    4    0    0 -0.52734632520E+01 -0.25137460791E+01 -0.56494696872E+02  0.56796040995E+02  0.10566000000E+00 0.  1.
         14    1    4    4    0    0 -0.51902036296E+00 -0.67744850625E+00 -0.66822804791E+01  0.67365563174E+01  0.00000000000E+00 0. -1.
<mgrwt>
<rscale>  0 0.78818318E+02</rscale>
<asrwt>0</asrwt>
<pdfrwt beam="1">  1        1 0.21362042E-02 0.78818318E+02</pdfrwt>
<pdfrwt beam="2">  1       -2 0.17207781E-01 0.78818318E+02</pdfrwt>
<totfact> 0.10711959E+05</totfact>
</mgrwt>
</event>
<event>
 8    1  0.1241100E-020  0.7899219E+02  0.7818608E-02  0.1331936E+00
          1   -1    0    0  501    0  0.00000000000E+00  0.00000000000E+00  0.26322979999E+02  0.26322980481E+02  0.50400000000E-02 0. -1.
         -2   -1    0    0    0  501 -0.00000000000E+00 -0.00000000000E+00 -0.59261580365E+02  0.59261580420E+02  0.25500000000E-02 0.  1.
        -24    2    1    2    0    0 -0.88817841970E-15 -0.35527136788E-14 -0.32938600366E+02  0.85584560901E+02  0.78992187402E+02 0.  0.
         66    2    3    3    0    0  0.28700622187E+01  0.14682340733E+02 -0.56053837581E+02  0.58050332347E+02  0.19999978734E+01 0.  0.
         13    1    3    3    0    0 -0.28700622187E+01 -0.14682340733E+02  0.23115237215E+02  0.27534228554E+02  0.10566000000E+00 0. -1.
         13    1    4    4    0    0  0.18606153743E+01  0.66511097985E+01 -0.23386048382E+02  0.24384781609E+02  0.10566000000E+00 0. -1.
        -13    1    4    4    0    0  0.56279513723E+00  0.23659180896E+01 -0.10860169897E+02  0.11129634361E+02  0.10566000000E+00 0.  1.
        -14    1    4    4    0    0  0.44665170722E+00  0.56653128448E+01 -0.21807619301E+02  0.22535916377E+02  0.00000000000E+00 0.  1.
<mgrwt>
<rscale>  0 0.78992187E+02</rscale>
<asrwt>0</asrwt>
<pdfrwt beam="1">  1        1 0.40496893E-02 0.78992187E+02</pdfrwt>
<pdfrwt beam="2">  1       -2 0.91171662E-02 0.78992187E+02</pdfrwt>
<totfact> 0.12252708E+05</totfact>
</mgrwt>
</event>
<event>
 8    1  0.1241100E-020  0.8339657E+02  0.7818608E-02  0.1319680E+00
          1   -1    0    0  501    0  0.00000000000E+00  0.00000000000E+00  0.90052744303E+02  0.90052744444E+02  0.50400000000E-02 0. -1.
         -2   -1    0    0    0  501 -0.00000000000E+00 -0.00000000000E+00 -0.19308094598E+02  0.19308094766E+02  0.25500000000E-02 0.  1.
        -24    2    1    2    0    0  0.00000000000E+00 -0.88817841970E-15  0.70744649706E+02  0.10936083921E+03  0.83396568819E+02 0.  0.
         66    2    3    3    0    0  0.27691285856E+02 -0.45617141907E+01 -0.50068374987E+01  0.28577700336E+02  0.19999965115E+01 0.  0.
         13    1    3    3    0    0 -0.27691285856E+02  0.45617141907E+01  0.75751487204E+02  0.80783138874E+02  0.10566000000E+00 0. -1.
         13    1    4    4    0    0  0.86726972546E+01 -0.14963558876E+01 -0.24683199051E+01  0.91410352697E+01  0.10566000000E+00 0. -1.
        -13    1    4    4    0    0  0.11954625662E+02 -0.21091786325E+01 -0.17369942884E+01  0.12263360975E+02  0.10566000000E+00 0.  1.
         14    1    4    4    0    0  0.70639629395E+01 -0.95617967052E+00 -0.80152330516E+00  0.71733040910E+01  0.00000000000E+00 0. -1.
<mgrwt>
<rscale>  0 0.83396569E+02</rscale>
<asrwt>0</asrwt>
<pdfrwt beam="1">  1        1 0.13854268E-01 0.83396569E+02</pdfrwt>
<pdfrwt beam="2">  1       -2 0.29704761E-02 0.83396569E+02</pdfrwt>
<totfact> 0.12900489E+05</totfact>
</mgrwt>
</event>
<event>
 8    1  0.1241100E-020  0.7791274E+02  0.7818608E-02  0.1335081E+00
          1   -1    0    0  501    0  0.00000000000E+00  0.00000000000E+00  0.72416773404E+02  0.72416773580E+02  0.50400000000E-02 0. -1.
         -2   -1    0    0    0  501 -0.00000000000E+00 -0.00000000000E+00 -0.20956454704E+02  0.20956454859E+02  0.25500000000E-02 0.  1.
        -24    2    1    2    0    0  0.00000000000E+00  0.00000000000E+00  0.51460318700E+02  0.93373228439E+02  0.77912742144E+02 0.  0.
         66    2    3    3    0    0  0.36554670196E+02 -0.12476328168E+02  0.31580278970E+02  0.49932120933E+02  0.20000008306E+01 0.  0.
         13    1    3    3    0    0 -0.36554670196E+02  0.12476328168E+02  0.19880039730E+02  0.43441107506E+02  0.10566000000E+00 0. -1.
         13    1    4    4    0    0  0.23027384976E+01 -0.90541141522E+00  0.23973274823E+01  0.34468416721E+01  0.10566000000E+00 0. -1.
        -13    1    4    4    0    0  0.19727811853E+02 -0.59334736350E+01  0.16346260342E+02  0.26298366130E+02  0.10566000000E+00 0.  1.
        -14    1    4    4    0    0  0.14524119846E+02 -0.56374431179E+01  0.12836691146E+02  0.20186913131E+02  0.00000000000E+00 0.  1.
<mgrwt>
<rscale>  0 0.77912742E+02</rscale>
<asrwt>0</asrwt>
<pdfrwt beam="1">  1        1 0.11141042E-01 0.77912742E+02</pdfrwt>
<pdfrwt beam="2">  1       -2 0.32240700E-02 0.77912742E+02</pdfrwt>
<totfact> 0.14988801E+05</totfact>
</mgrwt>
</event>
<event>
 8    1  0.1241100E-020  0.7978224E+02  0.7818608E-02  0.1329671E+00
          1   -1    0    0  501    0  0.00000000000E+00  0.00000000000E+00  0.16051897955E+03  0.16051897963E+03  0.50400000000E-02 0. -1.
         -2   -1    0    0    0  501 -0.00000000000E+00 -0.00000000000E+00 -0.99134777895E+01  0.99134781175E+01  0.25500000000E-02 0.  1.
        -24    2    1    2    0    0  0.00000000000E+00  0.00000000000E+00  0.15060550176E+03  0.17043245775E+03  0.79782237955E+02 0.  0.
         66    2    3    3    0    0 -0.63305518465E+01  0.25263192012E+02  0.10873167466E+02  0.28293648237E+02  0.20000006349E+01 0.  0.
         13    1    3    3    0    0  0.63305518465E+01 -0.25263192012E+02  0.13973233430E+03  0.14213880951E+03  0.10566000000E+00 0. -1.
         13    1    4    4    0    0 -0.30864529491E+01  0.85435216525E+01  0.35975691910E+01  0.97709580980E+01  0.10566000000E+00 0. -1.
        -13    1    4    4    0    0 -0.18974991006E+01  0.93374738060E+01  0.39685683978E+01  0.10322287493E+02  0.10566000000E+00 0.  1.
        -14    1    4    4    0    0 -0.13465997968E+01  0.73821965530E+01  0.33070298771E+01  0.82004026467E+01  0.00000000000E+00 0.  1.
<mgrwt>
<rscale>  0 0.79782238E+02</rscale>
<asrwt>0</asrwt>
<pdfrwt beam="1">  1        1 0.24695226E-01 0.79782238E+02</pdfrwt>
<pdfrwt beam="2">  1       -2 0.15251505E-02 0.79782238E+02</pdfrwt>
<totfact> 0.16105144E+05</totfact>
</mgrwt>
</event>
<event>
 8    1  0.1241100E-020  0.7911336E+02  0.7818608E-02  0.1331587E+00
          1   -1    0    0  501    0  0.00000000000E+00  0.00000000000E+00  0.14589287809E+02  0.14589288679E+02  0.50400000000E-02 0. -1.
         -2   -1    0    0    0  501 -0.00000000000E+00 -0.00000000000E+00 -0.10725204389E+03  0.10725204392E+03  0.25500000000E-02 0.  1.
        -24    2    1    2    0    0  0.35527136788E-14  0.00000000000E+00 -0.92662756083E+02  0.12184133260E+03  0.79113361484E+02 0.  0.
         66    2    3    3    0    0 -0.19767979316E+02  0.34067686159E+02 -0.51548455513E+02  0.64904726434E+02  0.20000003197E+01 0.  0.
         13    1    3    3    0    0  0.19767979316E+02 -0.34067686159E+02 -0.41114300570E+02  0.56936606168E+02  0.10566000000E+00 0. -1.
         13    1    4    4    0    0 -0.66605419485E+00  0.19832172601E+01 -0.26425817948E+01  0.33721182466E+01  0.10566000000E+00 0. -1.
        -13    1    4    4    0    0 -0.57518167964E+01  0.93311752085E+01 -0.14411441298E+02  0.18106767562E+02  0.10566000000E+00 0.  1.
        -14    1    4    4    0    0 -0.13350108325E+02  0.22753293690E+02 -0.34494432420E+02  0.43425840625E+02  0.00000000000E+00 0.  1.
<mgrwt>
<rscale>  0 0.79113361E+02</rscale>
<asrwt>0</asrwt>
<pdfrwt beam="1">  1        1 0.22445060E-02 0.79113361E+02</pdfrwt>
<pdfrwt beam="2">  1       -2 0.16500314E-01 0.79113361E+02</pdfrwt>
<totfact> 0.10727687E+05</totfact>
</mgrwt>
</event>
<event>
 8    1  0.1241100E-020  0.8033614E+02  0.7818608E-02  0.1328100E+00
         -2   -1    0    0    0  501 -0.00000000000E+00  0.00000000000E+00  0.48029750877E+03  0.48029750878E+03  0.25500000000E-02 0.  1.
          1   -1    0    0  501    0  0.00000000000E+00 -0.00000000000E+00 -0.33593201957E+01  0.33593239765E+01  0.50400000000E-02 0. -1.
        -24    2    1    2    0    0  0.00000000000E+00 -0.17763568394E-14  0.47693818857E+03  0.48365683275E+03  0.80336144720E+02 0.  0.
         66    2    3    3    0    0 -0.14592040003E+01  0.11329128263E+02  0.47030392472E+03  0.47044687271E+03  0.20000017423E+01 0.  0.
         13    1    3    3    0    0  0.14592040003E+01 -0.11329128263E+02  0.66342638498E+01  0.13209960044E+02  0.10566000000E+00 0. -1.
         13    1    4    4    0    0 -0.14645570216E+00  0.22544644194E+01  0.10680054193E+03  0.10682448680E+03  0.10566000000E+00 0. -1.
        -13    1    4    4    0    0 -0.96170599018E+00  0.87725643172E+01  0.34916493005E+03  0.34927645541E+03  0.10566000000E+00 0.  1.
         14    1    4    4    0    0 -0.35104230794E+00  0.30209952600E+00  0.14338452744E+02  0.14345930500E+02  0.00000000000E+00 0. -1.
<mgrwt>
<rscale>  0 0.80336145E+02</rscale>
<asrwt>0</asrwt>
<pdfrwt beam="1">  1        1 0.51681904E-03 0.80336145E+02</pdfrwt>
<pdfrwt beam="2">  1       -2 0.73891888E-01 0.80336145E+02</pdfrwt>
<totfact> 0.51385921E+04</totfact>
</mgrwt>
</event>
<event>
 8    1  0.1241100E-020  0.7896378E+02  0.7818608E-02  0.1332018E+00
         -2   -1    0    0    0  501 -0.00000000000E+00  0.00000000000E+00  0.40239358750E+01  0.40239366829E+01  0.25500000000E-02 0.  1.
          1   -1    0    0  501    0  0.00000000000E+00 -0.00000000000E+00 -0.38738673140E+03  0.38738673144E+03  0.50400000000E-02 0. -1.
        -24    2    1    2    0    0  0.00000000000E+00  0.71054273576E-14 -0.38336279553E+03  0.39141066812E+03  0.78963777279E+02 0.  0.
         66    2    3    3    0    0 -0.78081561569E+01  0.36802573136E+02 -0.25075037232E+03  0.25356487513E+03  0.19999970496E+01 0.  0.
         13    1    3    3    0    0  0.78081561569E+01 -0.36802573136E+02 -0.13261242321E+03  0.13784579299E+03  0.10566000000E+00 0. -1.
         13    1    4    4    0    0 -0.11430531732E+01  0.34429958310E+01 -0.25005408171E+02  0.25267417611E+02  0.10566000000E+00 0. -1.
        -13    1    4    4    0    0 -0.26620440549E+01  0.11984165819E+02 -0.77782894712E+02  0.78745771840E+02  0.10566000000E+00 0.  1.
        -14    1    4    4    0    0 -0.40030589288E+01  0.21375411486E+02 -0.14796206944E+03  0.14955168568E+03  0.00000000000E+00 0.  1.
<mgrwt>
<rscale>  0 0.78963777E+02</rscale>
<asrwt>0</asrwt>
<pdfrwt beam="1">  1        1 0.59597929E-01 0.78963777E+02</pdfrwt>
<pdfrwt beam="2">  1       -2 0.61906743E-03 0.78963777E+02</pdfrwt>
<totfact> 0.19550729E+05</totfact>
</mgrwt>
</event>
<event>
 8    1  0.1241100E-020  0.7922530E+02  0.7818608E-02  0.1331264E+00
         -2   -1    0    0    0  501 -0.00000000000E+00  0.00000000000E+00  0.65131144696E+01  0.65131149688E+01  0.25500000000E-02 0.  1.
          1   -1    0    0  501    0  0.00000000000E+00 -0.00000000000E+00 -0.24092344117E+03  0.24092344122E+03  0.50400000000E-02 0. -1.
        -24    2    1    2    0    0  0.00000000000E+00  0.35527136788E-14 -0.23441032670E+03  0.24743655619E+03  0.79225299470E+02 0.  0.
         66    2    3    3    0    0 -0.11300286939E+02  0.31455020740E+02 -0.51023432050E+02  0.61028726130E+02  0.19999950630E+01 0.  0.
         13    1    3    3    0    0  0.11300286939E+02 -0.31455020740E+02 -0.18338689465E+03  0.18640783006E+03  0.10566000000E+00 0. -1.
         13    1    4    4    0    0 -0.82550750227E+00  0.18439771711E+01 -0.32511131063E+01  0.38291794042E+01  0.10566000000E+00 0. -1.
        -13    1    4    4    0    0 -0.10164521500E+02  0.27448240721E+02 -0.44645550764E+02  0.53385014593E+02  0.10566000000E+00 0.  1.
         14    1    4    4    0    0 -0.31025793621E+00  0.21628028478E+01 -0.31267681798E+01  0.38145321333E+01  0.00000000000E+00 0. -1.
<mgrwt>
<rscale>  0 0.79225299E+02</rscale>
<asrwt>0</asrwt>
<pdfrwt beam="1">  1        1 0.37065138E-01 0.79225299E+02</pdfrwt>
<pdfrwt beam="2">  1       -2 0.10020178E-02 0.79225299E+02</pdfrwt>
<totfact> 0.17740905E+05</totfact>
</mgrwt>
</event>
<event>
 8    1  0.1241100E-020  0.8449270E+02  0.7818608E-02  0.1316765E+00
          1   -1    0    0  501    0  0.00000000000E+00  0.00000000000E+00  0.38680421128E+03  0.38680421131E+03  0.50400000000E-02 0. -1.
         -2   -1    0    0    0  501 -0.00000000000E+00 -0.00000000000E+00 -0.46141017021E+01  0.46141024068E+01  0.25500000000E-02 0.  1.
        -24    2    1    2    0    0  0.00000000000E+00  0.00000000000E+00  0.38219010958E+03  0.39141831372E+03  0.84492700608E+02 0.  0.
         66    2    3    3    0    0  0.21432663410E+02  0.36373299577E+02  0.18837209180E+03  0.19305548666E+03  0.19999935819E+01 0.  0.
         13    1    3    3    0    0 -0.21432663410E+02 -0.36373299577E+02  0.19381801778E+03  0.19836282707E+03  0.10566000000E+00 0. -1.
         13    1    4    4    0    0  0.31408732002E+01  0.57429675124E+01  0.27195358480E+02  0.27972226354E+02  0.10566000000E+00 0. -1.
        -13    1    4    4    0    0  0.14581476430E+02  0.24772078817E+02  0.12754311717E+03  0.13074223971E+03  0.10566000000E+00 0.  1.
         14    1    4    4    0    0  0.37103137800E+01  0.58582532472E+01  0.33633616159E+02  0.34341020594E+02  0.00000000000E+00 0. -1.
<mgrwt>
<rscale>  0 0.84492701E+02</rscale>
<asrwt>0</asrwt>
<pdfrwt beam="1">  1        1 0.59508329E-01 0.84492701E+02</pdfrwt>
<pdfrwt beam="2">  1       -2 0.70986199E-03 0.84492701E+02</pdfrwt>
<totfact> 0.16355583E+05</totfact>
</mgrwt>
</event>
<event>
 8    1  0.1241100E-020  0.8080362E+02  0.7818608E-02  0.1326786E+00
          1   -1    0    0  501    0  0.00000000000E+00  0.00000000000E+00  0.19920465038E+02  0.19920465675E+02  0.50400000000E-02 0. -1.
         -2   -1    0    0    0  501 -0.00000000000E+00 -0.00000000000E+00 -0.81941161444E+02  0.81941161484E+02  0.25500000000E-02 0.  1.
        -24    2    1    2    0    0  0.35527136788E-14  0.35527136788E-14 -0.62020696406E+02  0.10186162716E+03  0.80803615667E+02 0.  0.
         66    2    3    3    0    0  0.22482725896E+02  0.18991424418E+02 -0.65876682044E+02  0.72179528945E+02  0.19999991192E+01 0.  0.
         13    1    3    3    0    0 -0.22482725896E+02 -0.18991424418E+02  0.38559856379E+01  0.29682098214E+02  0.10566000000E+00 0. -1.
         13    1    4    4    0    0  0.51582389025E+01  0.39716581962E+01 -0.13685778289E+02  0.15155632248E+02  0.10566000000E+00 0. -1.
        -13    1    4    4    0    0  0.61588193809E+01  0.60705694847E+01 -0.20728062778E+02  0.22459889149E+02  0.10566000000E+00 0.  1.
        -14    1    4    4    0    0  0.11165667612E+02  0.89491967370E+01 -0.31462840977E+02  0.34564007549E+02  0.00000000000E+00 0.  1.
<mgrwt>
<rscale>  0 0.80803616E+02</rscale>
<asrwt>0</asrwt>
<pdfrwt beam="1">  1        1 0.30646870E-02 0.80803616E+02</pdfrwt>
<pdfrwt beam="2">  1       -2 0.12606332E-01 0.80803616E+02</pdfrwt>
<totfact> 0.10838086E+05</totfact>
</mgrwt>
</event>
<event>
 8    1  0.1241100E-020  0.7821700E+02  0.7818608E-02  0.1334189E+00
          1   -1    0    0  501    0  0.00000000000E+00  0.00000000000E+00  0.41779938480E+02  0.41779938784E+02  0.50400000000E-02 0. -1.
         -2   -1    0    0    0  501 -0.00000000000E+00 -0.00000000000E+00 -0.36607878906E+02  0.36607878995E+02  0.25500000000E-02 0.  1.
        -24    2    1    2    0    0  0.53290705182E-14  0.00000000000E+00  0.51720595733E+01  0.78387817779E+02  0.78217004391E+02 0.  0.
         66    2    3    3    0    0  0.13741850929E+02  0.17608619912E+01 -0.34037008890E+02  0.36802948948E+02  0.19999937988E+01 0.  0.
         13    1    3    3    0    0 -0.13741850929E+02 -0.17608619912E+01  0.39209068463E+02  0.41584868831E+02  0.10566000000E+00 0. -1.
         13    1    4    4    0    0  0.44507221567E+01  0.60942881766E+00 -0.13131706083E+02  0.13879236287E+02  0.10566000000E+00 0. -1.
        -13    1    4    4    0    0  0.60032737517E+01  0.35606915378E+00 -0.13832799546E+02  0.15083885053E+02  0.10566000000E+00 0.  1.
         14    1    4    4    0    0  0.32878550205E+01  0.79536401977E+00 -0.70725032601E+01  0.78398276081E+01  0.00000000000E+00 0. -1.
<mgrwt>
<rscale>  0 0.78217004E+02</rscale>
<asrwt>0</asrwt>
<pdfrwt beam="1">  1        1 0.64276829E-02 0.78217004E+02</pdfrwt>
<pdfrwt beam="2">  1       -2 0.56319814E-02 0.78217004E+02</pdfrwt>
<totfact> 0.13621398E+05</totfact>
</mgrwt>
</event>
<event>
 8    1  0.1241100E-020  0.7305589E+02  0.7818608E-02  0.1349999E+00
         -2   -1    0    0    0  501 -0.00000000000E+00  0.00000000000E+00  0.76482535413E+01  0.76482539664E+01  0.25500000000E-02 0.  1.
          1   -1    0    0  501    0  0.00000000000E+00 -0.00000000000E+00 -0.17445691229E+03  0.17445691236E+03  0.50400000000E-02 0. -1.
        -24    2    1    2    0    0 -0.35527136788E-14  0.00000000000E+00 -0.16680865874E+03  0.18210516632E+03  0.73055889359E+02 0.  0.
         66    2    3    3    0    0  0.14381589724E+02  0.27129754161E+02 -0.34275966131E+02  0.46061866383E+02  0.19999991472E+01 0.  0.
         13    1    3    3    0    0 -0.14381589724E+02 -0.27129754161E+02 -0.13253269261E+03  0.13604329994E+03  0.10566000000E+00 0. -1.
         13    1    4    4    0    0  0.96338617736E+00  0.13806151100E+01 -0.23558184778E+01  0.28974567719E+01  0.10566000000E+00 0. -1.
        -13    1    4    4    0    0  0.96877596363E+01  0.18672045882E+02 -0.23836951727E+02  0.31791656387E+02  0.10566000000E+00 0.  1.
        -14    1    4    4    0    0  0.37304439107E+01  0.70770931694E+01 -0.80831959267E+01  0.11372753224E+02  0.00000000000E+00 0.  1.
<mgrwt>
<rscale>  0 0.73055889E+02</rscale>
<asrwt>0</asrwt>
<pdfrwt beam="1">  1        1 0.26839522E-01 0.73055889E+02</pdfrwt>
<pdfrwt beam="2">  1       -2 0.11766546E-02 0.73055889E+02</pdfrwt>
<totfact> 0.20654381E+05</totfact>
</mgrwt>
</event>
<event>
 8    1  0.1241100E-020  0.7974150E+02  0.7818608E-02  0.1329787E+00
         -2   -1    0    0    0  501 -0.00000000000E+00  0.00000000000E+00  0.44364254523E+02  0.44364254596E+02  0.25500000000E-02 0.  1.
          1   -1    0    0  501    0  0.00000000000E+00 -0.00000000000E+00 -0.35832375402E+02  0.35832375756E+02  0.50400000000E-02 0. -1.
        -24    2    1    2    0    0  0.00000000000E+00  0.00000000000E+00  0.85318791212E+01  0.80196630352E+02  0.79741498346E+02 0.  0.
         66    2    3    3    0    0 -0.20924803593E+02 -0.18265913398E+02  0.33000551254E+02  0.43180173503E+02  0.20000007548E+01 0.  0.
         13    1    3    3    0    0  0.20924803593E+02  0.18265913398E+02 -0.24468672132E+02  0.37016456849E+02  0.10566000000E+00 0. -1.
         13    1    4    4    0    0 -0.84841289815E+01 -0.82347492852E+01  0.14573004278E+02  0.18766330438E+02  0.10566000000E+00 0. -1.
        -13    1    4    4    0    0 -0.21815665470E+01 -0.17418848988E+01  0.26640877843E+01  0.38603009414E+01  0.10566000000E+00 0.  1.
         14    1    4    4    0    0 -0.10259108065E+02 -0.82892792142E+01  0.15763459191E+02  0.20553542124E+02  0.00000000000E+00 0. -1.
<mgrwt>
<rscale>  0 0.79741498E+02</rscale>
<asrwt>0</asrwt>
<pdfrwt beam="1">  1        1 0.55126732E-02 0.79741498E+02</pdfrwt>
<pdfrwt beam="2">  1       -2 0.68252699E-02 0.79741498E+02</pdfrwt>
<totfact> 0.12584549E+05</totfact>
</mgrwt>
</event>
<event>
 8    1  0.1241100E-020  0.7921269E+02  0.7818608E-02  0.1331301E+00
          1   -1    0    0  501    0  0.00000000000E+00  0.00000000000E+00  0.66324041309E+01  0.66324060459E+01  0.50400000000E-02 0. -1.
         -2   -1    0    0    0  501 -0.00000000000E+00 -0.00000000000E+00 -0.23651490911E+03  0.23651490912E+03  0.25500000000E-02 0.  1.
        -24    2    1    2    0    0  0.00000000000E+00  0.00000000000E+00 -0.22988250498E+03  0.24314731517E+03  0.79212693293E+02 0.  0.
         66    2    3    3    0    0  0.37875243591E+02  0.85026506160E+01 -0.13875696866E+03  0.14409831882E+03  0.19999975555E+01 0.  0.
         13    1    3    3    0    0 -0.37875243591E+02 -0.85026506160E+01 -0.91125536320E+02  0.99048996351E+02  0.10566000000E+00 0. -1.
         13    1    4    4    0    0  0.29461748639E+02  0.66684156641E+01 -0.11045741297E+03  0.11451337757E+03  0.10566000000E+00 0. -1.
        -13    1    4    4    0    0  0.51725230187E+01  0.89509139306E+00 -0.17006223874E+02  0.17798286364E+02  0.10566000000E+00 0.  1.
         14    1    4    4    0    0  0.32409719336E+01  0.93914355884E+00 -0.11293331817E+02  0.11786654878E+02  0.00000000000E+00 0. -1.
<mgrwt>
<rscale>  0 0.79212693E+02</rscale>
<asrwt>0</asrwt>
<pdfrwt beam="1">  1        1 0.10203702E-02 0.79212693E+02</pdfrwt>
<pdfrwt beam="2">  1       -2 0.36386903E-01 0.79212693E+02</pdfrwt>
<totfact> 0.81185839E+04</totfact>
</mgrwt>
</event>
<event>
 8    1  0.1241100E-020  0.7895946E+02  0.7818608E-02  0.1332031E+00
          1   -1    0    0  501    0  0.00000000000E+00  0.00000000000E+00  0.11274136118E+03  0.11274136130E+03  0.50400000000E-02 0. -1.
         -2   -1    0    0    0  501 -0.00000000000E+00 -0.00000000000E+00 -0.13824998161E+02  0.13824998396E+02  0.25500000000E-02 0.  1.
        -24    2    1    2    0    0  0.00000000000E+00 -0.35527136788E-14  0.98916363023E+02  0.12656635969E+03  0.78959461320E+02 0.  0.
         66    2    3    3    0    0  0.33403875245E+02 -0.19269209253E+02  0.36124546570E+02  0.52878201321E+02  0.20000008580E+01 0.  0.
         13    1    3    3    0    0 -0.33403875245E+02  0.19269209253E+02  0.62791816453E+02  0.73688158371E+02  0.10566000000E+00 0. -1.
         13    1    4    4    0    0  0.67351894460E+01 -0.34880006337E+01  0.77895983811E+01  0.10872807010E+02  0.10566000000E+00 0. -1.
        -13    1    4    4    0    0  0.19394716965E+02 -0.10967208066E+02  0.19999775378E+02  0.29940555742E+02  0.10566000000E+00 0.  1.
         14    1    4    4    0    0  0.72739688346E+01 -0.48140005524E+01  0.83351728103E+01  0.12064838569E+02  0.00000000000E+00 0. -1.
<mgrwt>
<rscale>  0 0.78959461E+02</rscale>
<asrwt>0</asrwt>
<pdfrwt beam="1">  1        1 0.17344825E-01 0.78959461E+02</pdfrwt>
<pdfrwt beam="2">  1       -2 0.21269228E-02 0.78959461E+02</pdfrwt>
<totfact> 0.15540529E+05</totfact>
</mgrwt>
</event>
<event>
 8    1  0.1241100E-020  0.7787234E+02  0.7818608E-02  0.1335200E+00
         -2   -1    0    0    0  501 -0.00000000000E+00  0.00000000000E+00  0.46072791061E+03  0.46072791062E+03  0.25500000000E-02 0.  1.
          1   -1    0    0  501    0  0.00000000000E+00 -0.00000000000E+00 -0.32904979834E+01  0.32905018433E+01  0.50400000000E-02 0. -1.
        -24    2    1    2    0    0  0.00000000000E+00 -0.88817841970E-15  0.45743741263E+03  0.46401841246E+03  0.77872335471E+02 0.  0.
         66    2    3    3    0    0  0.37764320031E+02 -0.62005762536E+01  0.27076238602E+03  0.27346089428E+03  0.20000006985E+01 0.  0.
         13    1    3    3    0    0 -0.37764320031E+02  0.62005762536E+01  0.18667502661E+03  0.19055751819E+03  0.10566000000E+00 0. -1.
         13    1    4    4    0    0  0.18060509942E+02 -0.25799716821E+01  0.12873693966E+03  0.13002326357E+03  0.10566000000E+00 0. -1.
        -13    1    4    4    0    0  0.18743174313E+01 -0.47116397708E-01  0.15059216772E+02  0.15175851199E+02  0.10566000000E+00 0.  1.
        -14    1    4    4    0    0  0.17829492657E+02 -0.35734881739E+01  0.12696622959E+03  0.12826177951E+03  0.00000000000E+00 0.  1.
<mgrwt>
<rscale>  0 0.77872335E+02</rscale>
<asrwt>0</asrwt>
<pdfrwt beam="1">  1        1 0.50623072E-03 0.77872335E+02</pdfrwt>
<pdfrwt beam="2">  1       -2 0.70881222E-01 0.77872335E+02</pdfrwt>
<totfact> 0.57423781E+04</totfact>
</mgrwt>
</event>
<event>
 8    1  0.1241100E-020  0.7996388E+02  0.7818608E-02  0.1329154E+00
         -2   -1    0    0    0  501 -0.00000000000E+00  0.00000000000E+00  0.11792974407E+03  0.11792974409E+03  0.25500000000E-02 0.  1.
          1   -1    0    0  501    0  0.00000000000E+00 -0.00000000000E+00 -0.13555149232E+02  0.13555150169E+02  0.50400000000E-02 0. -1.
        -24    2    1    2    0    0  0.88817841970E-15  0.14210854715E-13  0.10437459483E+03  0.13148489426E+03  0.79963875421E+02 0.  0.
         66    2    3    3    0    0  0.40455044503E+01  0.36371272183E+02  0.25843518393E+02  0.44845545941E+02  0.20000003508E+01 0.  0.
         13    1    3    3    0    0 -0.40455044503E+01 -0.36371272183E+02  0.78531076442E+02  0.86639348321E+02  0.10566000000E+00 0. -1.
         13    1    4    4    0    0  0.77150935459E+00  0.42399508230E+01  0.32769838639E+01  0.54149974095E+01  0.10566000000E+00 0. -1.
        -13    1    4    4    0    0  0.23873738306E+01  0.16258009304E+02  0.11169852458E+02  0.19869554306E+02  0.10566000000E+00 0.  1.
         14    1    4    4    0    0  0.88662126514E+00  0.15873312056E+02  0.11396682072E+02  0.19560994226E+02  0.00000000000E+00 0. -1.
<mgrwt>
<rscale>  0 0.79963875E+02</rscale>
<asrwt>0</asrwt>
<pdfrwt beam="1">  1        1 0.20854076E-02 0.79963875E+02</pdfrwt>
<pdfrwt beam="2">  1       -2 0.18143038E-01 0.79963875E+02</pdfrwt>
<totfact> 0.10175465E+05</totfact>
</mgrwt>
</event>
<event>
 8    1  0.1241100E-020  0.8109890E+02  0.7818608E-02  0.1325962E+00
          1   -1    0    0  501    0  0.00000000000E+00  0.00000000000E+00  0.95529061341E+02  0.95529061474E+02  0.50400000000E-02 0. -1.
         -2   -1    0    0    0  501 -0.00000000000E+00 -0.00000000000E+00 -0.17212122461E+02  0.17212122650E+02  0.25500000000E-02 0.  1.
        -24    2    1    2    0    0  0.35527136788E-14  0.00000000000E+00  0.78316938880E+02  0.11274118412E+03  0.81098900621E+02 0.  0.
         66    2    3    3    0    0  0.29738969787E+02  0.23858573567E+01  0.10562310348E+01  0.29920131364E+02  0.19999993761E+01 0.  0.
         13    1    3    3    0    0 -0.29738969787E+02 -0.23858573567E+01  0.77260707845E+02  0.82821052759E+02  0.10566000000E+00 0. -1.
         13    1    4    4    0    0  0.11112661720E+02  0.93718043264E+00 -0.38824812488E+00  0.11159366394E+02  0.10566000000E+00 0. -1.
        -13    1    4    4    0    0  0.99392579370E+01  0.47119842167E+00  0.43057311984E+00  0.99602928440E+01  0.10566000000E+00 0.  1.
        -14    1    4    4    0    0  0.86870501305E+01  0.97747850235E+00  0.10139060398E+01  0.88004721266E+01  0.00000000000E+00 0.  1.
<mgrwt>
<rscale>  0 0.81098901E+02</rscale>
<asrwt>0</asrwt>
<pdfrwt beam="1">  1        1 0.14696779E-01 0.81098901E+02</pdfrwt>
<pdfrwt beam="2">  1       -2 0.26480188E-02 0.81098901E+02</pdfrwt>
<totfact> 0.14057730E+05</totfact>
</mgrwt>
</event>
<event>
 8    1  0.1241100E-020  0.7884614E+02  0.7818608E-02  0.1332358E+00
          1   -1    0    0  501    0  0.00000000000E+00  0.00000000000E+00  0.25576327700E+02  0.25576328196E+02  0.50400000000E-02 0. -1.
         -2   -1    0    0    0  501 -0.00000000000E+00 -0.00000000000E+00 -0.60766290297E+02  0.60766290351E+02  0.25500000000E-02 0.  1.
        -24    2    1    2    0    0 -0.17763568394E-14  0.00000000000E+00 -0.35189962597E+02  0.86342618547E+02  0.78846143279E+02 0.  0.
         66    2    3    3    0    0  0.13141999287E+02 -0.34163012379E+02 -0.33563995544E+02  0.49702770117E+02  0.20000000901E+01 0.  0.
         13    1    3    3    0    0 -0.13141999287E+02  0.34163012379E+02 -0.16259670529E+01  0.36639848430E+02  0.10566000000E+00 0. -1.
         13    1    4    4    0    0  0.17808373505E+01 -0.50059443456E+01 -0.41193808172E+01  0.67239365563E+01  0.10566000000E+00 0. -1.
        -13    1    4    4    0    0  0.76580827436E+00 -0.14356425319E+01 -0.14943938948E+01  0.22117660231E+01  0.10566000000E+00 0. -1.
        -14    1    4    4    0    0  0.10595353662E+02 -0.27721425502E+02 -0.27950220832E+02  0.40767067538E+02  0.00000000000E+00 0.  1.
<mgrwt>
<rscale>  0 0.78846143E+02</rscale>
<asrwt>0</asrwt>
<pdfrwt beam="1">  1        1 0.39348197E-02 0.78846143E+02</pdfrwt>
<pdfrwt beam="2">  1       -2 0.93486600E-02 0.78846143E+02</pdfrwt>
<totfact> 0.12253050E+05</totfact>
</mgrwt>
</event>
<event>
 8    1  0.1241100E-020  0.8111419E+02  0.7818608E-02  0.1325919E+00
         -2   -1    0    0    0  501 -0.00000000000E+00  0.00000000000E+00  0.30782798431E+03  0.30782798432E+03  0.25500000000E-02 0.  1.
          1   -1    0    0  501    0  0.00000000000E+00 -0.00000000000E+00 -0.53434959447E+01  0.53434983215E+01  0.50400000000E-02 0. -1.
        -24    2    1    2    0    0 -0.17763568394E-14 -0.17763568394E-14  0.30248448836E+03  0.31317148264E+03  0.81114190119E+02 0.  0.
         66    2    3    3    0    0 -0.15811780475E+02 -0.12760863645E+02  0.28674109338E+03  0.28746705321E+03  0.20000011167E+01 0.  0.
         13    1    3    3    0    0  0.15811780475E+02  0.12760863645E+02  0.15743394980E+02  0.25704429429E+02  0.10566000000E+00 0. -1.
         13    1    4    4    0    0 -0.17245313974E+01 -0.12987546818E+01  0.32966446045E+02  0.33037229017E+02  0.10566000000E+00 0.  1.
        -13    1    4    4    0    0 -0.48474055348E+01 -0.39019729043E+01  0.98981904358E+02  0.99177372860E+02  0.10566000000E+00 0. -1.
        -14    1    4    4    0    0 -0.92398435425E+01 -0.75601360590E+01  0.15479274298E+03  0.15525245133E+03  0.00000000000E+00 0.  1.
<mgrwt>
<rscale>  0 0.81114190E+02</rscale>
<asrwt>0</asrwt>
<pdfrwt beam="1">  1        1 0.82207647E-03 0.81114190E+02</pdfrwt>
<pdfrwt beam="2">  1       -2 0.47358152E-01 0.81114190E+02</pdfrwt>
<totfact> 0.66849822E+04</totfact>
</mgrwt>
</event>
<event>
 8    1  0.1254371E-020  0.8113656E+02  0.7818608E-02  0.1325857E+00
          1   -1    0    0  501    0  0.00000000000E+00  0.00000000000E+00  0.11505165506E+02  0.11505166610E+02  0.50400000000E-02 0. -1.
         -2   -1    0    0    0  501 -0.00000000000E+00 -0.00000000000E+00 -0.14304749929E+03  0.14304749932E+03  0.25500000000E-02 0.  1.
        -24    2    1    2    0    0  0.35527136788E-14  0.88817841970E-15 -0.13154233379E+03  0.15455266593E+03  0.81136557522E+02 0.  0.
         66    2    3    3    0    0  0.16916893415E+02  0.54336423035E+01 -0.13522886667E+03  0.13640583589E+03  0.19999832719E+01 0.  0.
         13    1    3    3    0    0 -0.16916893415E+02 -0.54336423035E+01  0.36865328830E+01  0.18146830033E+02  0.10566000000E+00 0. -1.
         13    1    4    4    0    0  0.38419787989E+00  0.15752471076E+00 -0.20131536047E+01  0.20582452520E+01  0.10566000000E+00 0. -1.
        -13    1    4    4    0    0  0.83439923861E+01  0.32583777375E+01 -0.66264345577E+02  0.66867136122E+02  0.10566000000E+00 0.  1.
         14    1    4    4    0    0  0.81887031493E+01  0.20177398553E+01 -0.66951367490E+02  0.67480454519E+02  0.00000000000E+00 0. -1.
<mgrwt>
<rscale>  0 0.81136558E+02</rscale>
<asrwt>0</asrwt>
<pdfrwt beam="1">  1        1 0.17700257E-02 0.81136558E+02</pdfrwt>
<pdfrwt beam="2">  1       -2 0.22007306E-01 0.81136558E+02</pdfrwt>
<totfact> 0.92549515E+04</totfact>
</mgrwt>
</event>
<event>
 8    1  0.1241100E-020  0.8568221E+02  0.7818608E-02  0.1313658E+00
          1   -1    0    0  501    0  0.00000000000E+00  0.00000000000E+00  0.23130235597E+03  0.23130235602E+03  0.50400000000E-02 0. -1.
         -2   -1    0    0    0  501 -0.00000000000E+00 -0.00000000000E+00 -0.79348959349E+01  0.79348963447E+01  0.25500000000E-02 0.  1.
        -24    2    1    2    0    0  0.00000000000E+00  0.00000000000E+00  0.22336746003E+03  0.23923725237E+03  0.85682207714E+02 0.  0.
         66    2    3    3    0    0 -0.31384955063E+02  0.24565162430E+02  0.68049996336E+02  0.78887670819E+02  0.19999990942E+01 0.  0.
         13    1    3    3    0    0  0.31384955063E+02 -0.24565162430E+02  0.15531746370E+03  0.16034958155E+03  0.10566000000E+00 0. -1.
         13    1    4    4    0    0 -0.71097514254E+01  0.60023780811E+01  0.15151858283E+02  0.17781087745E+02  0.10566000000E+00 0. -1.
        -13    1    4    4    0    0 -0.36355182175E+01  0.33919284246E+01  0.88706941876E+01  0.10169687830E+02  0.10566000000E+00 0.  1.
         14    1    4    4    0    0 -0.20639685420E+02  0.15170855924E+02  0.44027443865E+02  0.50936895243E+02  0.00000000000E+00 0. -1.
<mgrwt>
<rscale>  0 0.85682208E+02</rscale>
<asrwt>0</asrwt>
<pdfrwt beam="1">  1        1 0.35584975E-01 0.85682208E+02</pdfrwt>
<pdfrwt beam="2">  1       -2 0.12207534E-02 0.85682208E+02</pdfrwt>
<totfact> 0.14293722E+05</totfact>
</mgrwt>
</event>
<event>
 8    1  0.1241100E-020  0.7958384E+02  0.7818608E-02  0.1330237E+00
         -2   -1    0    0    0  501 -0.00000000000E+00  0.00000000000E+00  0.76832200859E+02  0.76832200901E+02  0.25500000000E-02 0.  1.
          1   -1    0    0  501    0  0.00000000000E+00 -0.00000000000E+00 -0.20608505059E+02  0.20608505675E+02  0.50400000000E-02 0. -1.
        -24    2    1    2    0    0  0.00000000000E+00 -0.17763568394E-14  0.56223695800E+02  0.97440706576E+02  0.79583838364E+02 0.  0.
         66    2    3    3    0    0  0.37974541471E+02  0.99341698294E+01  0.35934744200E+02  0.53254665215E+02  0.19999990755E+01 0.  0.
         13    1    3    3    0    0 -0.37974541471E+02 -0.99341698294E+01  0.20288951600E+02  0.44186041361E+02  0.10566000000E+00 0. -1.
         13    1    4    4    0    0  0.20527381251E+01  0.72652895303E+00  0.25447106236E+01  0.33508647128E+01  0.10566000000E+00 0. -1.
        -13    1    4    4    0    0  0.18063309660E+02  0.45618363941E+01  0.17142736832E+02  0.25317545247E+02  0.10566000000E+00 0.  1.
         14    1    4    4    0    0  0.17858493685E+02  0.46458044823E+01  0.16247296744E+02  0.24586255256E+02  0.00000000000E+00 0. -1.
<mgrwt>
<rscale>  0 0.79583838E+02</rscale>
<asrwt>0</asrwt>
<pdfrwt beam="1">  1        1 0.31705393E-02 0.79583838E+02</pdfrwt>
<pdfrwt beam="2">  1       -2 0.11820338E-01 0.79583838E+02</pdfrwt>
<totfact> 0.11423545E+05</totfact>
</mgrwt>
</event>
<event>
 8    1  0.1241100E-020  0.8034399E+02  0.7818608E-02  0.1328078E+00
          1   -1    0    0  501    0  0.00000000000E+00  0.00000000000E+00  0.20710630135E+02  0.20710630748E+02  0.50400000000E-02 0. -1.
         -2   -1    0    0    0  501 -0.00000000000E+00 -0.00000000000E+00 -0.77920804948E+02  0.77920804990E+02  0.25500000000E-02 0.  1.
        -24    2    1    2    0    0  0.00000000000E+00  0.71054273576E-14 -0.57210174813E+02  0.98631435737E+02  0.80343985546E+02 0.  0.
         66    2    3    3    0    0  0.53704660655E+01 -0.33942280666E+02 -0.54104671470E+02  0.64126716674E+02  0.19999984725E+01 0.  0.
         13    1    3    3    0    0 -0.53704660655E+01  0.33942280666E+02 -0.31055033431E+01  0.34504719063E+02  0.10566000000E+00 0. -1.
         13    1    4    4    0    0  0.36164566886E+00 -0.15812454896E+01 -0.22159647668E+01  0.27482337549E+01  0.10566000000E+00 0. -1.
        -13    1    4    4    0    0  0.10204454296E+01 -0.11555308274E+02 -0.18412339027E+02  0.21762165578E+02  0.10566000000E+00 0.  1.
        -14    1    4    4    0    0  0.39883749670E+01 -0.20805726903E+02 -0.33476367676E+02  0.39616317341E+02  0.00000000000E+00 0.  1.
<mgrwt>
<rscale>  0 0.80343986E+02</rscale>
<asrwt>0</asrwt>
<pdfrwt beam="1">  1        1 0.31862509E-02 0.80343986E+02</pdfrwt>
<pdfrwt beam="2">  1       -2 0.11987816E-01 0.80343986E+02</pdfrwt>
<totfact> 0.11117141E+05</totfact>
</mgrwt>
</event>
<event>
 8    1  0.1241100E-020  0.7976353E+02  0.7818608E-02  0.1329724E+00
         -2   -1    0    0    0  501 -0.00000000000E+00  0.00000000000E+00  0.32546508213E+02  0.32546508313E+02  0.25500000000E-02 0.  1.
          1   -1    0    0  501    0  0.00000000000E+00 -0.00000000000E+00 -0.48870225444E+02  0.48870225704E+02  0.50400000000E-02 0. -1.
        -24    2    1    2    0    0  0.00000000000E+00  0.00000000000E+00 -0.16323717231E+02  0.81416734017E+02  0.79763530726E+02 0.  0.
         66    2    3    3    0    0 -0.23344733038E+02  0.18473497131E+01  0.24753006193E+02  0.34133569647E+02  0.19999999120E+01 0.  0.
         13    1    3    3    0    0  0.23344733038E+02 -0.18473497131E+01 -0.41076723424E+02  0.47283164370E+02  0.10566000000E+00 0. -1.
         13    1    4    4    0    0 -0.44383912272E+01  0.15041814802E+00  0.53429559252E+01  0.69484015686E+01  0.10566000000E+00 0. -1.
        -13    1    4    4    0    0 -0.74684432098E+01  0.10690486968E+01  0.69282458275E+01  0.10243645024E+02  0.10566000000E+00 0.  1.
        -14    1    4    4    0    0 -0.11437898601E+02  0.62788286825E+00  0.12481804441E+02  0.16941523054E+02  0.00000000000E+00 0.  1.
<mgrwt>
<rscale>  0 0.79763531E+02</rscale>
<asrwt>0</asrwt>
<pdfrwt beam="1">  1        1 0.75184962E-02 0.79763531E+02</pdfrwt>
<pdfrwt beam="2">  1       -2 0.50071551E-02 0.79763531E+02</pdfrwt>
<totfact> 0.13218369E+05</totfact>
</mgrwt>
</event>
<event>
 8    1  0.1241100E-020  0.7859178E+02  0.7818608E-02  0.1333096E+00
          1   -1    0    0  501    0  0.00000000000E+00  0.00000000000E+00  0.21548629986E+03  0.21548629992E+03  0.50400000000E-02 0. -1.
         -2   -1    0    0    0  501 -0.00000000000E+00 -0.00000000000E+00 -0.71659637131E+01  0.71659641668E+01  0.25500000000E-02 0.  1.
        -24    2    1    2    0    0  0.00000000000E+00  0.00000000000E+00  0.20832033615E+03  0.22265226409E+03  0.78591782332E+02 0.  0.
         66    2    3    3    0    0 -0.15775195370E+02 -0.35489749518E+02  0.87761013774E+02  0.95991534240E+02  0.19999993668E+01 0.  0.
         13    1    3    3    0    0  0.15775195370E+02  0.35489749518E+02  0.12055932237E+03  0.12666072985E+03  0.10566000000E+00 0. -1.
         13    1    4    4    0    0 -0.58228083323E-01 -0.17427639267E+00  0.56759232603E+00  0.60587775574E+00  0.10566000000E+00 0.  1.
        -13    1    4    4    0    0 -0.35130053835E+01 -0.91935841936E+01  0.22286965387E+02  0.24363562698E+02  0.10566000000E+00 0.  1.
        -14    1    4    4    0    0 -0.12203961903E+02 -0.26121888932E+02  0.64906456061E+02  0.71022093787E+02  0.00000000000E+00 0.  1.
<mgrwt>
<rscale>  0 0.78591782E+02</rscale>
<asrwt>0</asrwt>
<pdfrwt beam="1">  1        1 0.33151737E-01 0.78591782E+02</pdfrwt>
<pdfrwt beam="2">  1       -2 0.11024560E-02 0.78591782E+02</pdfrwt>
<totfact> 0.17732474E+05</totfact>
</mgrwt>
</event>
<event>
 8    1  0.1241100E-020  0.7937747E+02  0.7818608E-02  0.1330827E+00
         -2   -1    0    0    0  501 -0.00000000000E+00  0.00000000000E+00  0.51632467533E+01  0.51632473830E+01  0.25500000000E-02 0.  1.
          1   -1    0    0  501    0  0.00000000000E+00 -0.00000000000E+00 -0.30507850883E+03  0.30507850887E+03  0.50400000000E-02 0. -1.
        -24    2    1    2    0    0 -0.35527136788E-14  0.00000000000E+00 -0.29991526208E+03  0.31024175625E+03  0.79377470969E+02 0.  0.
         66    2    3    3    0    0  0.23284620637E+02  0.31907611420E+02 -0.16410204588E+03  0.16880092028E+03  0.19999997633E+01 0.  0.
         13    1    3    3    0    0 -0.23284620637E+02 -0.31907611420E+02 -0.13581321619E+03  0.14144083598E+03  0.10566000000E+00 0. -1.
         13    1    4    4    0    0  0.40601690904E+01  0.45981870077E+01 -0.26718815389E+02  0.27414130601E+02  0.10566000000E+00 0. -1.
        -13    1    4    4    0    0  0.18025201433E+02  0.25786579963E+02 -0.13006901528E+03  0.13382008628E+03  0.10566000000E+00 0.  1.
        -14    1    4    4    0    0  0.11992501140E+01  0.15228444490E+01 -0.73142152128E+01  0.75667033925E+01  0.00000000000E+00 0.  1.
<mgrwt>
<rscale>  0 0.79377471E+02</rscale>
<asrwt>0</asrwt>
<pdfrwt beam="1">  1        1 0.46935141E-01 0.79377471E+02</pdfrwt>
<pdfrwt beam="2">  1       -2 0.79434594E-03 0.79377471E+02</pdfrwt>
<totfact> 0.18475583E+05</totfact>
</mgrwt>
</event>
<event>
 8    1  0.1241100E-020  0.8143844E+02  0.7818608E-02  0.1325018E+00
          1   -1    0    0  501    0  0.00000000000E+00  0.00000000000E+00  0.15218355910E+03  0.15218355919E+03  0.50400000000E-02 0. -1.
         -2   -1    0    0    0  501 -0.00000000000E+00 -0.00000000000E+00 -0.10895099513E+02  0.10895099811E+02  0.25500000000E-02 0.  1.
        -24    2    1    2    0    0  0.35527136788E-14  0.71054273576E-14  0.14128845959E+03  0.16307865900E+03  0.81438444283E+02 0.  0.
         66    2    3    3    0    0  0.19624617640E+02  0.33121294300E+02  0.44279488298E+02  0.58709614599E+02  0.20000021872E+01 0.  0.
         13    1    3    3    0    0 -0.19624617640E+02 -0.33121294300E+02  0.97008971293E+02  0.10436904440E+03  0.10566000000E+00 0. -1.
         13    1    4    4    0    0  0.92275230627E+00  0.16540870334E+01  0.23535469473E+01  0.30228832266E+01  0.10566000000E+00 0.  1.
        -13    1    4    4    0    0  0.28391225273E+01  0.61386128349E+01  0.77590207323E+01  0.10293529571E+02  0.10566000000E+00 0.  1.
         14    1    4    4    0    0  0.15862742806E+02  0.25328594432E+02  0.34166920619E+02  0.45393201802E+02  0.00000000000E+00 0. -1.
<mgrwt>
<rscale>  0 0.81438444E+02</rscale>
<asrwt>0</asrwt>
<pdfrwt beam="1">  1        1 0.23412854E-01 0.81438444E+02</pdfrwt>
<pdfrwt beam="2">  1       -2 0.16761693E-02 0.81438444E+02</pdfrwt>
<totfact> 0.15093993E+05</totfact>
</mgrwt>
</event>
<event>
 8    1  0.1241100E-020  0.8355444E+02  0.7818608E-02  0.1319257E+00
          1   -1    0    0  501    0  0.00000000000E+00  0.00000000000E+00  0.86880275302E+02  0.86880275449E+02  0.50400000000E-02 0. -1.
         -2   -1    0    0    0  501 -0.00000000000E+00 -0.00000000000E+00 -0.20088980263E+02  0.20088980425E+02  0.25500000000E-02 0.  1.
        -24    2    1    2    0    0 -0.35527136788E-14  0.00000000000E+00  0.66791295039E+02  0.10696925587E+03  0.83554440991E+02 0.  0.
         66    2    3    3    0    0 -0.25483005848E+02  0.12021999275E+02 -0.60326745679E+01  0.28884342050E+02  0.19999998961E+01 0.  0.
         13    1    3    3    0    0  0.25483005848E+02 -0.12021999275E+02  0.72823969607E+02  0.78084913824E+02  0.10566000000E+00 0. -1.
         13    1    4    4    0    0 -0.73414267036E+01  0.31907066197E+01 -0.11681684567E+01  0.80902989040E+01  0.10566000000E+00 0.  1.
        -13    1    4    4    0    0 -0.17149508858E+01  0.53511698860E+00 -0.66245174452E+00  0.19176582285E+01  0.10566000000E+00 0.  1.
         14    1    4    4    0    0 -0.16426628259E+02  0.82961756665E+01 -0.42020543667E+01  0.18876384917E+02  0.00000000000E+00 0. -1.
<mgrwt>
<rscale>  0 0.83554441E+02</rscale>
<asrwt>0</asrwt>
<pdfrwt beam="1">  1        1 0.13366196E-01 0.83554441E+02</pdfrwt>
<pdfrwt beam="2">  1       -2 0.30906123E-02 0.83554441E+02</pdfrwt>
<totfact> 0.12756784E+05</totfact>
</mgrwt>
</event>
<event>
 8    1  0.1241100E-020  0.8086998E+02  0.7818608E-02  0.1326601E+00
          1   -1    0    0  501    0  0.00000000000E+00  0.00000000000E+00  0.45159018143E+02  0.45159018424E+02  0.50400000000E-02 0. -1.
         -2   -1    0    0    0  501 -0.00000000000E+00 -0.00000000000E+00 -0.36205137186E+02  0.36205137276E+02  0.25500000000E-02 0.  1.
        -24    2    1    2    0    0  0.00000000000E+00  0.00000000000E+00  0.89538809566E+01  0.81364155701E+02  0.80869981134E+02 0.  0.
         66    2    3    3    0    0 -0.27537159772E+02  0.23431472525E+02  0.22635842107E+02  0.42704922677E+02  0.19999999904E+01 0.  0.
         13    1    3    3    0    0  0.27537159772E+02 -0.23431472525E+02 -0.13681961151E+02  0.38659233023E+02  0.10566000000E+00 0. -1.
         13    1    4    4    0    0 -0.14358708918E+02  0.11987506687E+02  0.11316314919E+02  0.21861907184E+02  0.10566000000E+00 0. -1.
        -13    1    4    4    0    0 -0.10092423632E+02  0.81169277996E+01  0.80469431529E+01  0.15248147095E+02  0.10566000000E+00 0.  1.
         14    1    4    4    0    0 -0.30860272213E+01  0.33270380391E+01  0.32725840356E+01  0.55948683983E+01  0.00000000000E+00 0. -1.
<mgrwt>
<rscale>  0 0.80869981E+02</rscale>
<asrwt>0</asrwt>
<pdfrwt beam="1">  1        1 0.69475414E-02 0.80869981E+02</pdfrwt>
<pdfrwt beam="2">  1       -2 0.55700211E-02 0.80869981E+02</pdfrwt>
<totfact> 0.12560936E+05</totfact>
</mgrwt>
</event>
<event>
 8    1  0.1241100E-020  0.7898884E+02  0.7818608E-02  0.1331946E+00
         -2   -1    0    0    0  501 -0.00000000000E+00  0.00000000000E+00  0.22194932304E+02  0.22194932451E+02  0.25500000000E-02 0.  1.
          1   -1    0    0  501    0  0.00000000000E+00 -0.00000000000E+00 -0.70277721922E+02  0.70277722103E+02  0.50400000000E-02 0. -1.
        -24    2    1    2    0    0  0.35527136788E-14  0.00000000000E+00 -0.48082789618E+02  0.92472654554E+02  0.78988842141E+02 0.  0.
         66    2    3    3    0    0 -0.19785166836E+02  0.13847825482E+02  0.12490795001E+02  0.27262337771E+02  0.20000009260E+01 0.  0.
         13    1    3    3    0    0  0.19785166836E+02 -0.13847825482E+02 -0.60573584619E+02  0.65210316783E+02  0.10566000000E+00 0. -1.
         13    1    4    4    0    0 -0.14335586135E+01  0.13522976263E+01  0.88035498642E+00  0.21610155266E+01  0.10566000000E+00 0. -1.
        -13    1    4    4    0    0 -0.66406776324E+01  0.54148283118E+01  0.45531623167E+01  0.97036805482E+01  0.10566000000E+00 0.  1.
         14    1    4    4    0    0 -0.11710930590E+02  0.70806995439E+01  0.70572776975E+01  0.15397641696E+02  0.00000000000E+00 0. -1.
<mgrwt>
<rscale>  0 0.78988842E+02</rscale>
<asrwt>0</asrwt>
<pdfrwt beam="1">  1        1 0.10811957E-01 0.78988842E+02</pdfrwt>
<pdfrwt beam="2">  1       -2 0.34146050E-02 0.78988842E+02</pdfrwt>
<totfact> 0.14370686E+05</totfact>
</mgrwt>
</event>
<event>
 8    1  0.1241100E-020  0.7780311E+02  0.7818608E-02  0.1335404E+00
         -2   -1    0    0    0  501 -0.00000000000E+00  0.00000000000E+00  0.10505568005E+02  0.10505568315E+02  0.25500000000E-02 0.  1.
          1   -1    0    0  501    0  0.00000000000E+00 -0.00000000000E+00 -0.14405035354E+03  0.14405035363E+03  0.50400000000E-02 0. -1.
        -24    2    1    2    0    0 -0.17763568394E-14  0.00000000000E+00 -0.13354478553E+03  0.15455592194E+03  0.77803105748E+02 0.  0.
         66    2    3    3    0    0 -0.13187901281E+02 -0.33235454276E+02 -0.97126626191E+02  0.10351858605E+03  0.19999952337E+01 0.  0.
         13    1    3    3    0    0  0.13187901281E+02  0.33235454276E+02 -0.36418159341E+02  0.51037335892E+02  0.10566000000E+00 0. -1.
         13    1    4    4    0    0 -0.28770916377E+01 -0.65231189505E+01 -0.21036512429E+02  0.22212040796E+02  0.10566000000E+00 0. -1.
        -13    1    4    4    0    0 -0.36297870529E+01 -0.83604024705E+01 -0.23284588646E+02  0.25005097800E+02  0.10566000000E+00 0.  1.
         14    1    4    4    0    0 -0.66810225905E+01 -0.18351932856E+02 -0.52805525117E+02  0.56301447452E+02  0.00000000000E+00 0. -1.
<mgrwt>
<rscale>  0 0.77803106E+02</rscale>
<asrwt>0</asrwt>
<pdfrwt beam="1">  1        1 0.22161591E-01 0.77803106E+02</pdfrwt>
<pdfrwt beam="2">  1       -2 0.16162414E-02 0.77803106E+02</pdfrwt>
<totfact> 0.16881122E+05</totfact>
</mgrwt>
</event>
<event>
 8    1  0.1241100E-020  0.8516623E+02  0.7818608E-02  0.1314998E+00
          1   -1    0    0  501    0  0.00000000000E+00  0.00000000000E+00  0.16548091204E+03  0.16548091211E+03  0.50400000000E-02 0. -1.
         -2   -1    0    0    0  501 -0.00000000000E+00 -0.00000000000E+00 -0.10957891341E+02  0.10957891638E+02  0.25500000000E-02 0.  1.
        -24    2    1    2    0    0 -0.71054273576E-14  0.88817841970E-15  0.15452302070E+03  0.17643880375E+03  0.85166234766E+02 0.  0.
         66    2    3    3    0    0 -0.37553104516E+02  0.58593079046E+01  0.37629492399E+02  0.53521452373E+02  0.20000045089E+01 0.  0.
         13    1    3    3    0    0  0.37553104516E+02 -0.58593079046E+01  0.11689352830E+03  0.12291735138E+03  0.10566000000E+00 0. -1.
         13    1    4    4    0    0 -0.52500431875E+01  0.34984082284E+00  0.53613761243E+01  0.75127132285E+01  0.10566000000E+00 0. -1.
        -13    1    4    4    0    0 -0.23990522578E+02  0.42736568136E+01  0.24744313425E+02  0.34728972444E+02  0.10566000000E+00 0.  1.
        -14    1    4    4    0    0 -0.83125387510E+01  0.12358102681E+01  0.75238028498E+01  0.11279766701E+02  0.00000000000E+00 0.  1.
<mgrwt>
<rscale>  0 0.85166235E+02</rscale>
<asrwt>0</asrwt>
<pdfrwt beam="1">  1        1 0.25458601E-01 0.85166235E+02</pdfrwt>
<pdfrwt beam="2">  1       -2 0.16858295E-02 0.85166235E+02</pdfrwt>
<totfact> 0.13600907E+05</totfact>
</mgrwt>
</event>
<event>
 8    1  0.1241100E-020  0.7823604E+02  0.7818608E-02  0.1334133E+00
         -2   -1    0    0    0  501 -0.00000000000E+00  0.00000000000E+00  0.22556863788E+02  0.22556863932E+02  0.25500000000E-02 0.  1.
          1   -1    0    0  501    0  0.00000000000E+00 -0.00000000000E+00 -0.67838315941E+02  0.67838316128E+02  0.50400000000E-02 0. -1.
        -24    2    1    2    0    0 -0.35527136788E-14  0.00000000000E+00 -0.45281452153E+02  0.90395180061E+02  0.78236044565E+02 0.  0.
         66    2    3    3    0    0  0.21713684023E+02  0.86703178509E+01  0.13543470414E+02  0.27093986040E+02  0.20000007984E+01 0.  0.
         13    1    3    3    0    0 -0.21713684023E+02 -0.86703178509E+01 -0.58824922567E+02  0.63301194021E+02  0.10566000000E+00 0. -1.
         13    1    4    4    0    0  0.13997954721E+02  0.62869923106E+01  0.81564036118E+01  0.17378351262E+02  0.10566000000E+00 0. -1.
        -13    1    4    4    0    0  0.53475703079E+01  0.15885844741E+01  0.39171543695E+01  0.68172847395E+01  0.10566000000E+00 0.  1.
         14    1    4    4    0    0  0.23681589939E+01  0.79474106620E+00  0.14699124325E+01  0.28983500379E+01  0.00000000000E+00 0. -1.
<mgrwt>
<rscale>  0 0.78236045E+02</rscale>
<asrwt>0</asrwt>
<pdfrwt beam="1">  1        1 0.10436664E-01 0.78236045E+02</pdfrwt>
<pdfrwt beam="2">  1       -2 0.34702868E-02 0.78236045E+02</pdfrwt>
<totfact> 0.14670561E+05</totfact>
</mgrwt>
</event>
<event>
 8    1  0.1241100E-020  0.7973220E+02  0.7818608E-02  0.1329813E+00
          1   -1    0    0  501    0  0.00000000000E+00  0.00000000000E+00  0.73458534560E+02  0.73458534733E+02  0.50400000000E-02 0. -1.
         -2   -1    0    0    0  501 -0.00000000000E+00 -0.00000000000E+00 -0.21635413951E+02  0.21635414101E+02  0.25500000000E-02 0.  1.
        -24    2    1    2    0    0  0.00000000000E+00  0.00000000000E+00  0.51823120610E+02  0.95093948834E+02  0.79732197230E+02 0.  0.
         66    2    3    3    0    0  0.26132563970E+02 -0.13544297324E+02 -0.60957190041E+01  0.30125017521E+02  0.20000002060E+01 0.  0.
         13    1    3    3    0    0 -0.26132563970E+02  0.13544297324E+02  0.57918839614E+02  0.64968931313E+02  0.10566000000E+00 0. -1.
         13    1    4    4    0    0  0.28481578299E+01 -0.10364325840E+01 -0.62178314923E+00  0.30957993872E+01  0.10566000000E+00 0. -1.
        -13    1    4    4    0    0  0.18253834776E+02 -0.92764566216E+01 -0.38659493205E+01  0.20837750831E+02  0.10566000000E+00 0.  1.
        -14    1    4    4    0    0  0.50305713639E+01 -0.32314081189E+01 -0.16079865344E+01  0.61914673037E+01  0.00000000000E+00 0.  1.
<mgrwt>
<rscale>  0 0.79732197E+02</rscale>
<asrwt>0</asrwt>
<pdfrwt beam="1">  1        1 0.11301313E-01 0.79732197E+02</pdfrwt>
<pdfrwt beam="2">  1       -2 0.33285252E-02 0.79732197E+02</pdfrwt>
<totfact> 0.14105829E+05</totfact>
</mgrwt>
</event>
<event>
 8    1  0.1241100E-020  0.8035307E+02  0.7818608E-02  0.1328052E+00
          1   -1    0    0  501    0  0.00000000000E+00  0.00000000000E+00  0.91428794562E+01  0.91428808453E+01  0.50400000000E-02 0. -1.
         -2   -1    0    0    0  501 -0.00000000000E+00 -0.00000000000E+00 -0.17654766588E+03  0.17654766590E+03  0.25500000000E-02 0.  1.
        -24    2    1    2    0    0  0.88817841970E-15  0.00000000000E+00 -0.16740478643E+03  0.18569054675E+03  0.80353074817E+02 0.  0.
         66    2    3    3    0    0 -0.76687872036E+01 -0.39293148968E+02 -0.90834517932E+02  0.99285807095E+02  0.19999973708E+01 0.  0.
         13    1    3    3    0    0  0.76687872036E+01  0.39293148968E+02 -0.76570268494E+02  0.86404739652E+02  0.10566000000E+00 0. -1.
         13    1    4    4    0    0 -0.65678574624E+01 -0.33546212937E+02 -0.77007162328E+02  0.84253186099E+02  0.10566000000E+00 0. -1.
        -13    1    4    4    0    0 -0.64718650622E+00 -0.36390117854E+01 -0.78229776109E+01  0.86528261212E+01  0.10566000000E+00 0.  1.
         14    1    4    4    0    0 -0.45374323499E+00 -0.21079242456E+01 -0.60043779937E+01  0.63797948744E+01  0.00000000000E+00 0. -1.
<mgrwt>
<rscale>  0 0.80353075E+02</rscale>
<asrwt>0</asrwt>
<pdfrwt beam="1">  1        1 0.14065971E-02 0.80353075E+02</pdfrwt>
<pdfrwt beam="2">  1       -2 0.27161177E-01 0.80353075E+02</pdfrwt>
<totfact> 0.88284366E+04</totfact>
</mgrwt>
</event>
<event>
 8    1  0.1241100E-020  0.7993120E+02  0.7818608E-02  0.1329247E+00
          1   -1    0    0  501    0  0.00000000000E+00  0.00000000000E+00  0.86735703013E+01  0.86735717656E+01  0.50400000000E-02 0. -1.
         -2   -1    0    0    0  501 -0.00000000000E+00 -0.00000000000E+00 -0.18415129015E+03  0.18415129016E+03  0.25500000000E-02 0.  1.
        -24    2    1    2    0    0  0.00000000000E+00  0.00000000000E+00 -0.17547771984E+03  0.19282486193E+03  0.79931203019E+02 0.  0.
         66    2    3    3    0    0 -0.11123121351E+02 -0.73462403747E+01 -0.17862093123E+03  0.17912880344E+03  0.20000177084E+01 0.  0.
         13    1    3    3    0    0  0.11123121351E+02  0.73462403747E+01  0.31432113899E+01  0.13696058488E+02  0.10566000000E+00 0. -1.
         13    1    4    4    0    0 -0.41174453002E+01 -0.24372569364E+01 -0.71701696975E+02  0.71861241920E+02  0.10566000000E+00 0. -1.
        -13    1    4    4    0    0 -0.40056491523E+01 -0.21574246336E+01 -0.53184022630E+02  0.53378377020E+02  0.10566000000E+00 0.  1.
        -14    1    4    4    0    0 -0.30000268987E+01 -0.27515588047E+01 -0.53735211629E+02  0.53889184500E+02  0.00000000000E+00 0.  1.
<mgrwt>
<rscale>  0 0.79931203E+02</rscale>
<asrwt>0</asrwt>
<pdfrwt beam="1">  1        1 0.13343957E-02 0.79931203E+02</pdfrwt>
<pdfrwt beam="2">  1       -2 0.28330965E-01 0.79931203E+02</pdfrwt>
<totfact> 0.88082179E+04</totfact>
</mgrwt>
</event>
<event>
 8    1  0.1241100E-020  0.7955776E+02  0.7818608E-02  0.1330311E+00
         -2   -1    0    0    0  501 -0.00000000000E+00  0.00000000000E+00  0.92747947596E+01  0.92747951101E+01  0.25500000000E-02 0.  1.
          1   -1    0    0  501    0  0.00000000000E+00 -0.00000000000E+00 -0.17060856456E+03  0.17060856464E+03  0.50400000000E-02 0. -1.
        -24    2    1    2    0    0  0.00000000000E+00  0.35527136788E-14 -0.16133376981E+03  0.17988335975E+03  0.79557764141E+02 0.  0.
         66    2    3    3    0    0  0.22671317111E+02 -0.29550072090E+02 -0.11214205197E+03  0.11818221189E+03  0.20000014947E+01 0.  0.
         13    1    3    3    0    0 -0.22671317111E+02  0.29550072090E+02 -0.49191717830E+02  0.61701147859E+02  0.10566000000E+00 0. -1.
         13    1    4    4    0    0  0.24837236228E+01 -0.24985666492E+01 -0.10584678961E+02  0.11156088520E+02  0.10566000000E+00 0.  1.
        -13    1    4    4    0    0  0.12220037564E+02 -0.16456833086E+02 -0.59868760902E+02  0.63280616062E+02  0.10566000000E+00 0.  1.
        -14    1    4    4    0    0  0.79675559243E+01 -0.10594672355E+02 -0.41688612112E+02  0.43745507307E+02  0.00000000000E+00 0.  1.
<mgrwt>
<rscale>  0 0.79557764E+02</rscale>
<asrwt>0</asrwt>
<pdfrwt beam="1">  1        1 0.26247469E-01 0.79557764E+02</pdfrwt>
<pdfrwt beam="2">  1       -2 0.14268917E-02 0.79557764E+02</pdfrwt>
<totfact> 0.16413287E+05</totfact>
</mgrwt>
</event>
<event>
 8    1  0.1241100E-020  0.8013683E+02  0.7818608E-02  0.1328664E+00
         -2   -1    0    0    0  501 -0.00000000000E+00  0.00000000000E+00  0.69416514405E+02  0.69416514452E+02  0.25500000000E-02 0.  1.
          1   -1    0    0  501    0  0.00000000000E+00 -0.00000000000E+00 -0.23128181135E+02  0.23128181684E+02  0.50400000000E-02 0. -1.
        -24    2    1    2    0    0  0.00000000000E+00  0.00000000000E+00  0.46288333270E+02  0.92544696137E+02  0.80136826653E+02 0.  0.
         66    2    3    3    0    0  0.39286604024E+02  0.45013477475E+01  0.30441632726E+02  0.49943892512E+02  0.20000022366E+01 0.  0.
         13    1    3    3    0    0 -0.39286604024E+02 -0.45013477475E+01  0.15846700545E+02  0.42600803625E+02  0.10566000000E+00 0. -1.
         13    1    4    4    0    0  0.89122481602E+01  0.52902354123E+00  0.74587685771E+01  0.11634106150E+02  0.10566000000E+00 0. -1.
        -13    1    4    4    0    0  0.47871108897E+01  0.29014246281E+00  0.37649432093E+01  0.60980795931E+01  0.10566000000E+00 0.  1.
        -14    1    4    4    0    0  0.25587244974E+02  0.36821817435E+01  0.19217920939E+02  0.32211706769E+02  0.00000000000E+00 0.  1.
<mgrwt>
<rscale>  0 0.80136827E+02</rscale>
<asrwt>0</asrwt>
<pdfrwt beam="1">  1        1 0.35581818E-02 0.80136827E+02</pdfrwt>
<pdfrwt beam="2">  1       -2 0.10679464E-01 0.80136827E+02</pdfrwt>
<totfact> 0.11460578E+05</totfact>
</mgrwt>
</event>
<event>
 8    1  0.1241100E-020  0.7979286E+02  0.7818608E-02  0.1329640E+00
          1   -1    0    0  501    0  0.00000000000E+00  0.00000000000E+00  0.17082398218E+02  0.17082398961E+02  0.50400000000E-02 0. -1.
         -2   -1    0    0    0  501 -0.00000000000E+00 -0.00000000000E+00 -0.93179247293E+02  0.93179247328E+02  0.25500000000E-02 0.  1.
        -24    2    1    2    0    0  0.71054273576E-14 -0.17763568394E-14 -0.76096849075E+02  0.11026164629E+03  0.79792858097E+02 0.  0.
         66    2    3    3    0    0  0.37582318393E+02 -0.99224427149E+01 -0.50341532933E+02  0.63632974865E+02  0.20000067184E+01 0.  0.
         13    1    3    3    0    0 -0.37582318393E+02  0.99224427149E+01 -0.25755316142E+02  0.46628671425E+02  0.10566000000E+00 0. -1.
         13    1    4    4    0    0  0.13834588421E+02 -0.39049877004E+01 -0.20075344516E+02  0.24691605602E+02  0.10566000000E+00 0. -1.
        -13    1    4    4    0    0  0.11675190630E+02 -0.30442408333E+01 -0.15237024941E+02  0.19435935058E+02  0.10566000000E+00 0.  1.
         14    1    4    4    0    0  0.12072539342E+02 -0.29732141812E+01 -0.15029163476E+02  0.19505434205E+02  0.00000000000E+00 0. -1.
<mgrwt>
<rscale>  0 0.79792858E+02</rscale>
<asrwt>0</asrwt>
<pdfrwt beam="1">  1        1 0.26280614E-02 0.79792858E+02</pdfrwt>
<pdfrwt beam="2">  1       -2 0.14335268E-01 0.79792858E+02</pdfrwt>
<totfact> 0.10868203E+05</totfact>
</mgrwt>
</event>
<event>
 8    1  0.1241100E-020  0.7890423E+02  0.7818608E-02  0.1332190E+00
          1   -1    0    0  501    0  0.00000000000E+00  0.00000000000E+00  0.32472709076E+01  0.32472748188E+01  0.50400000000E-02 0. -1.
         -2   -1    0    0    0  501 -0.00000000000E+00 -0.00000000000E+00 -0.47931583966E+03  0.47931583967E+03  0.25500000000E-02 0.  1.
        -24    2    1    2    0    0 -0.35527136788E-14  0.00000000000E+00 -0.47606856875E+03  0.48256311449E+03  0.78904228709E+02 0.  0.
         66    2    3    3    0    0 -0.18238929334E+02 -0.56909909376E+00 -0.45193248342E+03  0.45230515361E+03  0.19999991225E+01 0.  0.
         13    1    3    3    0    0  0.18238929334E+02  0.56909909376E+00 -0.24136085332E+02  0.30257960873E+02  0.10566000000E+00 0. -1.
         13    1    4    4    0    0 -0.28683980901E+01 -0.29243519293E+00 -0.66394882787E+02  0.66457541711E+02  0.10566000000E+00 0. -1.
        -13    1    4    4    0    0 -0.10020107629E+02  0.35032266802E+00 -0.23559095010E+03  0.23580422434E+03  0.10566000000E+00 0.  1.
         14    1    4    4    0    0 -0.53504236146E+01 -0.62698656886E+00 -0.14994665054E+03  0.15004338756E+03  0.00000000000E+00 0. -1.
<mgrwt>
<rscale>  0 0.78904229E+02</rscale>
<asrwt>0</asrwt>
<pdfrwt beam="1">  1        1 0.49958082E-03 0.78904229E+02</pdfrwt>
<pdfrwt beam="2">  1       -2 0.73740842E-01 0.78904229E+02</pdfrwt>
<totfact> 0.53911298E+04</totfact>
</mgrwt>
</event>
<event>
 8    1  0.1241100E-020  0.7972661E+02  0.7818608E-02  0.1329829E+00
          1   -1    0    0  501    0  0.00000000000E+00  0.00000000000E+00  0.43842582818E+03  0.43842582821E+03  0.50400000000E-02 0. -1.
         -2   -1    0    0    0  501 -0.00000000000E+00 -0.00000000000E+00 -0.36245196275E+01  0.36245205246E+01  0.25500000000E-02 0.  1.
        -24    2    1    2    0    0 -0.35527136788E-14  0.71054273576E-14  0.43480130855E+03  0.44205034873E+03  0.79726613477E+02 0.  0.
         66    2    3    3    0    0 -0.22743516902E+02  0.29127023338E+02  0.30004277571E+03  0.30231658621E+03  0.19999988957E+01 0.  0.
         13    1    3    3    0    0  0.22743516902E+02 -0.29127023338E+02  0.13475853284E+03  0.13973376252E+03  0.10566000000E+00 0. -1.
         13    1    4    4    0    0 -0.88722459379E+01  0.12086443787E+02  0.11583367440E+03  0.11680004349E+03  0.10566000000E+00 0. -1.
        -13    1    4    4    0    0 -0.13288455400E+02  0.16545617896E+02  0.17791157232E+03  0.17917276369E+03  0.10566000000E+00 0.  1.
        -14    1    4    4    0    0 -0.58281556347E+00  0.49496165458E+00  0.62975289935E+01  0.63437790349E+01  0.00000000000E+00 0.  1.
<mgrwt>
<rscale>  0 0.79726613E+02</rscale>
<asrwt>0</asrwt>
<pdfrwt beam="1">  1        1 0.67450113E-01 0.79726613E+02</pdfrwt>
<pdfrwt beam="2">  1       -2 0.55761859E-03 0.79726613E+02</pdfrwt>
<totfact> 0.19440947E+05</totfact>
</mgrwt>
</event>
<event>
 8    1  0.1241100E-020  0.8180453E+02  0.7818608E-02  0.1324007E+00
         -2   -1    0    0    0  501 -0.00000000000E+00  0.00000000000E+00  0.26738989558E+02  0.26738989680E+02  0.25500000000E-02 0.  1.
          1   -1    0    0  501    0  0.00000000000E+00 -0.00000000000E+00 -0.62567637162E+02  0.62567637365E+02  0.50400000000E-02 0. -1.
        -24    2    1    2    0    0  0.11102230246E-15  0.00000000000E+00 -0.35828647603E+02  0.89306627045E+02  0.81804533157E+02 0.  0.
         66    2    3    3    0    0 -0.68714236813E+00  0.16233019022E+02  0.23025054162E+02  0.28251304208E+02  0.19999997669E+01 0.  0.
         13    1    3    3    0    0  0.68714236813E+00 -0.16233019022E+02 -0.58853701765E+02  0.61055322837E+02  0.10566000000E+00 0. -1.
         13    1    4    4    0    0  0.34943554768E+00  0.92668603877E+01  0.12727281738E+02  0.15747751304E+02  0.10566000000E+00 0. -1.
        -13    1    4    4    0    0 -0.62209236162E+00  0.37770099262E+01  0.48788464643E+01  0.62021858846E+01  0.10566000000E+00 0.  1.
         14    1    4    4    0    0 -0.41448555419E+00  0.31891487079E+01  0.54189259595E+01  0.63013670191E+01  0.00000000000E+00 0. -1.
<mgrwt>
<rscale>  0 0.81804533E+02</rscale>
<asrwt>0</asrwt>
<pdfrwt beam="1">  1        1 0.96257904E-02 0.81804533E+02</pdfrwt>
<pdfrwt beam="2">  1       -2 0.41136907E-02 0.81804533E+02</pdfrwt>
<totfact> 0.12815097E+05</totfact>
</mgrwt>
</event>
<event>
 8    1  0.1241100E-020  0.7882052E+02  0.7818608E-02  0.1332432E+00
         -2   -1    0    0    0  501 -0.00000000000E+00  0.00000000000E+00  0.87435268578E+02  0.87435268615E+02  0.25500000000E-02 0.  1.
          1   -1    0    0  501    0  0.00000000000E+00 -0.00000000000E+00 -0.17763640415E+02  0.17763641130E+02  0.50400000000E-02 0. -1.
        -24    2    1    2    0    0 -0.35527136788E-14 -0.35527136788E-14  0.69671628163E+02  0.10519890975E+03  0.78820522967E+02 0.  0.
         66    2    3    3    0    0  0.31362777973E+02  0.20103574333E+02  0.51918204556E+02  0.63931819262E+02  0.20000016984E+01 0.  0.
         13    1    3    3    0    0 -0.31362777973E+02 -0.20103574333E+02  0.17753423607E+02  0.41267090483E+02  0.10566000000E+00 0. -1.
         13    1    4    4    0    0  0.23369771111E+02  0.13984233528E+02  0.37976790104E+02  0.46732780142E+02  0.10566000000E+00 0. -1.
        -13    1    4    4    0    0  0.19066275004E+01  0.15635022011E+01  0.35384664290E+01  0.43141252025E+01  0.10566000000E+00 0.  1.
         14    1    4    4    0    0  0.60863793610E+01  0.45558386037E+01  0.10402948023E+02  0.12884913918E+02  0.00000000000E+00 0. -1.
<mgrwt>
<rscale>  0 0.78820523E+02</rscale>
<asrwt>0</asrwt>
<pdfrwt beam="1">  1        1 0.27328679E-02 0.78820523E+02</pdfrwt>
<pdfrwt beam="2">  1       -2 0.13451580E-01 0.78820523E+02</pdfrwt>
<totfact> 0.11380982E+05</totfact>
</mgrwt>
</event>
<event>
 8    1  0.1241100E-020  0.7947736E+02  0.7818608E-02  0.1330541E+00
          1   -1    0    0  501    0  0.00000000000E+00  0.00000000000E+00  0.49648685759E+02  0.49648686015E+02  0.50400000000E-02 0. -1.
         -2   -1    0    0    0  501 -0.00000000000E+00 -0.00000000000E+00 -0.31806740306E+02  0.31806740408E+02  0.25500000000E-02 0.  1.
        -24    2    1    2    0    0  0.00000000000E+00  0.11102230246E-15  0.17841945453E+02  0.81455426423E+02  0.79477364552E+02 0.  0.
         66    2    3    3    0    0  0.31225291046E+02 -0.64454374472E+00 -0.16213963576E+02  0.35246657327E+02  0.20000000935E+01 0.  0.
         13    1    3    3    0    0 -0.31225291046E+02  0.64454374472E+00  0.34055909029E+02  0.46208769096E+02  0.10566000000E+00 0. -1.
         13    1    4    4    0    0  0.80615845658E+01 -0.19252173263E+00 -0.38440473425E+01  0.89338723036E+01  0.10566000000E+00 0. -1.
        -13    1    4    4    0    0  0.10819222552E+02 -0.10056559128E+01 -0.56938957838E+01  0.12267784383E+02  0.10566000000E+00 0.  1.
         14    1    4    4    0    0  0.12344483928E+02  0.55363390074E+00 -0.66760204496E+01  0.14045000640E+02  0.00000000000E+00 0. -1.
<mgrwt>
<rscale>  0 0.79477365E+02</rscale>
<asrwt>0</asrwt>
<pdfrwt beam="1">  1        1 0.76382595E-02 0.79477365E+02</pdfrwt>
<pdfrwt beam="2">  1       -2 0.48933446E-02 0.79477365E+02</pdfrwt>
<totfact> 0.13384290E+05</totfact>
</mgrwt>
</event>
<event>
 8    1  0.1241100E-020  0.7962571E+02  0.7818608E-02  0.1330117E+00
          1   -1    0    0  501    0  0.00000000000E+00  0.00000000000E+00  0.35928237977E+02  0.35928238331E+02  0.50400000000E-02 0. -1.
         -2   -1    0    0    0  501 -0.00000000000E+00 -0.00000000000E+00 -0.44117485942E+02  0.44117486016E+02  0.25500000000E-02 0.  1.
        -24    2    1    2    0    0  0.00000000000E+00  0.00000000000E+00 -0.81892479649E+01  0.80045724346E+02  0.79625713208E+02 0.  0.
         66    2    3    3    0    0 -0.25799783813E+02  0.30037769759E+02 -0.80115987385E+01  0.40448512573E+02  0.19999995198E+01 0.  0.
         13    1    3    3    0    0  0.25799783813E+02 -0.30037769759E+02 -0.17764922642E+00  0.39597211773E+02  0.10566000000E+00 0. -1.
         13    1    4    4    0    0 -0.13997994154E+02  0.15190750700E+02 -0.36226031263E+01  0.20972295167E+02  0.10566000000E+00 0. -1.
        -13    1    4    4    0    0 -0.48792203318E+01  0.63777206054E+01 -0.16171287332E+01  0.81919704920E+01  0.10566000000E+00 0.  1.
         14    1    4    4    0    0 -0.69225693280E+01  0.84692984543E+01 -0.27718668790E+01  0.11284246914E+02  0.00000000000E+00 0. -1.
<mgrwt>
<rscale>  0 0.79625713E+02</rscale>
<asrwt>0</asrwt>
<pdfrwt beam="1">  1        1 0.55274213E-02 0.79625713E+02</pdfrwt>
<pdfrwt beam="2">  1       -2 0.67873055E-02 0.79625713E+02</pdfrwt>
<totfact> 0.12642117E+05</totfact>
</mgrwt>
</event>
<event>
 8    1  0.1241100E-020  0.8255132E+02  0.7818608E-02  0.1321963E+00
          1   -1    0    0  501    0  0.00000000000E+00  0.00000000000E+00  0.69906789045E+02  0.69906789227E+02  0.50400000000E-02 0. -1.
         -2   -1    0    0    0  501 -0.00000000000E+00 -0.00000000000E+00 -0.24370738539E+02  0.24370738672E+02  0.25500000000E-02 0.  1.
        -24    2    1    2    0    0  0.71054273576E-14  0.35527136788E-14  0.45536050507E+02  0.94277527899E+02  0.82551319620E+02 0.  0.
         66    2    3    3    0    0  0.33467444212E+02 -0.22662598155E+02  0.32199741730E+02  0.51715438276E+02  0.20000028550E+01 0.  0.
         13    1    3    3    0    0 -0.33467444212E+02  0.22662598155E+02  0.13336308777E+02  0.42562089623E+02  0.10566000000E+00 0. -1.
         13    1    4    4    0    0  0.20034844538E+01 -0.97148953235E+00  0.14490184695E+01  0.26586764430E+01  0.10566000000E+00 0. -1.
        -13    1    4    4    0    0  0.17566698544E+02 -0.12243159866E+02  0.17634315128E+02  0.27739215838E+02  0.10566000000E+00 0.  1.
         14    1    4    4    0    0  0.13897261215E+02 -0.94479487562E+01  0.13116408133E+02  0.21317545995E+02  0.00000000000E+00 0. -1.
<mgrwt>
<rscale>  0 0.82551320E+02</rscale>
<asrwt>0</asrwt>
<pdfrwt beam="1">  1        1 0.10754891E-01 0.82551320E+02</pdfrwt>
<pdfrwt beam="2">  1       -2 0.37493444E-02 0.82551320E+02</pdfrwt>
<totfact> 0.12722819E+05</totfact>
</mgrwt>
</event>
<event>
 8    1  0.1241100E-020  0.7738023E+02  0.7818608E-02  0.1336655E+00
         -2   -1    0    0    0  501 -0.00000000000E+00  0.00000000000E+00  0.69124925649E+02  0.69124925696E+02  0.25500000000E-02 0.  1.
          1   -1    0    0  501    0  0.00000000000E+00 -0.00000000000E+00 -0.21655357534E+02  0.21655358120E+02  0.50400000000E-02 0. -1.
        -24    2    1    2    0    0 -0.35527136788E-14  0.00000000000E+00  0.47469568115E+02  0.90780283817E+02  0.77380230245E+02 0.  0.
         66    2    3    3    0    0  0.24713165725E+02  0.90671899638E+01  0.56973636899E+02  0.62792911996E+02  0.20000003550E+01 0.  0.
         13    1    3    3    0    0 -0.24713165725E+02 -0.90671899638E+01 -0.95040687835E+01  0.27987371821E+02  0.10566000000E+00 0. -1.
         13    1    4    4    0    0  0.95480382826E+01  0.34919887005E+01  0.20395446520E+02  0.22789129490E+02  0.10566000000E+00 0. -1.
        -13    1    4    4    0    0  0.29896877763E+00  0.19111765689E+00  0.60593753062E+00  0.71009338497E+00  0.10566000000E+00 0. -1.
        -14    1    4    4    0    0  0.14866158665E+02  0.53840836064E+01  0.35972252849E+02  0.39293689121E+02  0.00000000000E+00 0.  1.
<mgrwt>
<rscale>  0 0.77380230E+02</rscale>
<asrwt>0</asrwt>
<pdfrwt beam="1">  1        1 0.33315935E-02 0.77380230E+02</pdfrwt>
<pdfrwt beam="2">  1       -2 0.10634604E-01 0.77380230E+02</pdfrwt>
<totfact> 0.12536047E+05</totfact>
</mgrwt>
</event>
<event>
 8    1  0.1241100E-020  0.7631439E+02  0.7818608E-02  0.1339848E+00
          1   -1    0    0  501    0  0.00000000000E+00  0.00000000000E+00  0.17023145835E+02  0.17023146581E+02  0.50400000000E-02 0. -1.
         -2   -1    0    0    0  501 -0.00000000000E+00 -0.00000000000E+00 -0.85528935083E+02  0.85528935121E+02  0.25500000000E-02 0.  1.
        -24    2    1    2    0    0  0.44408920985E-15  0.35527136788E-14 -0.68505789248E+02  0.10255208170E+03  0.76314391179E+02 0.  0.
         66    2    3    3    0    0 -0.27253491865E+01 -0.29333653999E+02 -0.66808669463E+02  0.73043063340E+02  0.20000003572E+01 0.  0.
         13    1    3    3    0    0  0.27253491865E+01  0.29333653999E+02 -0.16971197844E+01  0.29509018363E+02  0.10566000000E+00 0. -1.
         13    1    4    4    0    0  0.13651545327E+00 -0.76354604695E+01 -0.17442802819E+02  0.19041571029E+02  0.10566000000E+00 0. -1.
        -13    1    4    4    0    0 -0.21197086568E+01 -0.16164701402E+02 -0.37192217960E+02  0.40608656430E+02  0.10566000000E+00 0.  1.
         14    1    4    4    0    0 -0.74215598301E+00 -0.55334921274E+01 -0.12173648685E+02  0.13392835881E+02  0.00000000000E+00 0. -1.
<mgrwt>
<rscale>  0 0.76314391E+02</rscale>
<asrwt>0</asrwt>
<pdfrwt beam="1">  1        1 0.26189456E-02 0.76314391E+02</pdfrwt>
<pdfrwt beam="2">  1       -2 0.13158297E-01 0.76314391E+02</pdfrwt>
<totfact> 0.12419826E+05</totfact>
</mgrwt>
</event>
<event>
 8    1  0.1241100E-020  0.7950249E+02  0.7818608E-02  0.1330469E+00
          1   -1    0    0  501    0  0.00000000000E+00  0.00000000000E+00  0.21353389948E+02  0.21353390543E+02  0.50400000000E-02 0. -1.
         -2   -1    0    0    0  501 -0.00000000000E+00 -0.00000000000E+00 -0.74000493515E+02  0.74000493559E+02  0.25500000000E-02 0.  1.
        -24    2    1    2    0    0 -0.17763568394E-14 -0.17763568394E-14 -0.52647103567E+02  0.95353884102E+02  0.79502488636E+02 0.  0.
         66    2    3    3    0    0 -0.13922330884E+02 -0.10228588226E+02 -0.69245563256E+02  0.71396101601E+02  0.19999947251E+01 0.  0.
         13    1    3    3    0    0  0.13922330884E+02  0.10228588226E+02  0.16598459688E+02  0.23957782501E+02  0.10566000000E+00 0. -1.
         13    1    4    4    0    0 -0.35432830705E+00 -0.12140643677E+00 -0.10019548952E+01  0.10748793978E+01  0.10566000000E+00 0. -1.
        -13    1    4    4    0    0 -0.33575932978E+01 -0.28612317211E+01 -0.19812723664E+02  0.20298159098E+02  0.10566000000E+00 0.  1.
        -14    1    4    4    0    0 -0.10210409279E+02 -0.72459500677E+01 -0.48430884696E+02  0.50023063106E+02  0.00000000000E+00 0.  1.
<mgrwt>
<rscale>  0 0.79502489E+02</rscale>
<asrwt>0</asrwt>
<pdfrwt beam="1">  1        1 0.32851370E-02 0.79502489E+02</pdfrwt>
<pdfrwt beam="2">  1       -2 0.11384691E-01 0.79502489E+02</pdfrwt>
<totfact> 0.11543399E+05</totfact>
</mgrwt>
</event>
<event>
 8    1  0.1241100E-020  0.8173596E+02  0.7818608E-02  0.1324196E+00
          1   -1    0    0  501    0  0.00000000000E+00  0.00000000000E+00  0.44918641328E+02  0.44918641611E+02  0.50400000000E-02 0. -1.
         -2   -1    0    0    0  501 -0.00000000000E+00 -0.00000000000E+00 -0.37182600416E+02  0.37182600504E+02  0.25500000000E-02 0.  1.
        -24    2    1    2    0    0  0.17763568394E-14 -0.35527136788E-14  0.77360409117E+01  0.82101242114E+02  0.81735962879E+02 0.  0.
         66    2    3    3    0    0 -0.99846359569E+01  0.24326386743E+02 -0.27521872012E+02  0.38117180968E+02  0.19999996782E+01 0.  0.
         13    1    3    3    0    0  0.99846359569E+01 -0.24326386743E+02  0.35257912924E+02  0.43984061147E+02  0.10566000000E+00 0. -1.
         13    1    4    4    0    0 -0.27408433007E+01  0.71410312934E+01 -0.70389378882E+01  0.10395400933E+02  0.10566000000E+00 0. -1.
        -13    1    4    4    0    0 -0.43328917977E+01  0.91050697211E+01 -0.11451798864E+02  0.15258804253E+02  0.10566000000E+00 0.  1.
        -14    1    4    4    0    0 -0.29109008585E+01  0.80802857284E+01 -0.90311352599E+01  0.12462975782E+02  0.00000000000E+00 0.  1.
<mgrwt>
<rscale>  0 0.81735963E+02</rscale>
<asrwt>0</asrwt>
<pdfrwt beam="1">  1        1 0.69105602E-02 0.81735963E+02</pdfrwt>
<pdfrwt beam="2">  1       -2 0.57204001E-02 0.81735963E+02</pdfrwt>
<totfact> 0.12180614E+05</totfact>
</mgrwt>
</event>
<event>
 8    1  0.1615547E-020  0.6960217E+02  0.7818608E-02  0.1361451E+00
         -2   -1    0    0    0  501 -0.00000000000E+00  0.00000000000E+00  0.40051986224E+02  0.40051986306E+02  0.25500000000E-02 0.  1.
          1   -1    0    0  501    0  0.00000000000E+00 -0.00000000000E+00 -0.30238587026E+02  0.30238587446E+02  0.50400000000E-02 0. -1.
        -24    2    1    2    0    0  0.00000000000E+00 -0.88817841970E-15  0.98133991984E+01  0.70290573751E+02  0.69602169179E+02 0.  0.
         66    2    3    3    0    0 -0.19790947339E+02 -0.73922790118E+01  0.32802435065E+02  0.39068236881E+02  0.20000002992E+01 0.  0.
         13    1    3    3    0    0  0.19790947339E+02  0.73922790118E+01 -0.22989035866E+02  0.31222336871E+02  0.10566000000E+00 0. -1.
         13    1    4    4    0    0 -0.82193580153E+01 -0.26518507780E+01  0.13040831917E+02  0.15641758848E+02  0.10566000000E+00 0. -1.
        -13    1    4    4    0    0 -0.97525937608E+01 -0.34288262120E+01  0.16250447453E+02  0.19260273640E+02  0.10566000000E+00 0.  1.
         14    1    4    4    0    0 -0.18189955632E+01 -0.13116020218E+01  0.35111556949E+01  0.41662043921E+01  0.00000000000E+00 0. -1.
<mgrwt>
<rscale>  0 0.69602169E+02</rscale>
<asrwt>0</asrwt>
<pdfrwt beam="1">  1        1 0.46520904E-02 0.69602169E+02</pdfrwt>
<pdfrwt beam="2">  1       -2 0.61618441E-02 0.69602169E+02</pdfrwt>
<totfact> 0.17954268E+05</totfact>
</mgrwt>
</event>
<event>
 8    1  0.1241100E-020  0.7837428E+02  0.7818608E-02  0.1333729E+00
          1   -1    0    0  501    0  0.00000000000E+00  0.00000000000E+00  0.75160179381E+02  0.75160179550E+02  0.50400000000E-02 0. -1.
         -2   -1    0    0    0  501 -0.00000000000E+00 -0.00000000000E+00 -0.20431457886E+02  0.20431458045E+02  0.25500000000E-02 0.  1.
        -24    2    1    2    0    0  0.00000000000E+00 -0.71054273576E-14  0.54728721495E+02  0.95591637595E+02  0.78374282910E+02 0.  0.
         66    2    3    3    0    0  0.76187940153E+01 -0.31477202488E+02  0.52789675808E+00  0.32452102715E+02  0.19999992195E+01 0.  0.
         13    1    3    3    0    0 -0.76187940153E+01  0.31477202488E+02  0.54200824737E+02  0.63139534881E+02  0.10566000000E+00 0. -1.
         13    1    4    4    0    0  0.22765389011E+01 -0.90248359775E+01 -0.25391064602E+00  0.93116018193E+01  0.10566000000E+00 0.  1.
        -13    1    4    4    0    0  0.12885866456E+01 -0.41974144024E+01  0.65399054637E+00  0.44404516526E+01  0.10566000000E+00 0. -1.
        -14    1    4    4    0    0  0.40536684686E+01 -0.18254952108E+02  0.12781685774E+00  0.18700049243E+02  0.00000000000E+00 0.  1.
<mgrwt>
<rscale>  0 0.78374283E+02</rscale>
<asrwt>0</asrwt>
<pdfrwt beam="1">  1        1 0.11563105E-01 0.78374283E+02</pdfrwt>
<pdfrwt beam="2">  1       -2 0.31433012E-02 0.78374283E+02</pdfrwt>
<totfact> 0.14835894E+05</totfact>
</mgrwt>
</event>
<event>
 8    1  0.1241100E-020  0.8249976E+02  0.7818608E-02  0.1322103E+00
          1   -1    0    0  501    0  0.00000000000E+00  0.00000000000E+00  0.52733291585E+02  0.52733291825E+02  0.50400000000E-02 0. -1.
         -2   -1    0    0    0  501 -0.00000000000E+00 -0.00000000000E+00 -0.32267145204E+02  0.32267145304E+02  0.25500000000E-02 0.  1.
        -24    2    1    2    0    0 -0.17763568394E-14  0.00000000000E+00  0.20466146381E+02  0.85000437130E+02  0.82499764634E+02 0.  0.
         66    2    3    3    0    0  0.12712954936E+02 -0.35972496295E+00 -0.30164361877E+02  0.32796910853E+02  0.20000022099E+01 0.  0.
         13    1    3    3    0    0 -0.12712954936E+02  0.35972496295E+00  0.50630508258E+02  0.52203526277E+02  0.10566000000E+00 0. -1.
         13    1    4    4    0    0  0.41089632475E+01 -0.22209051253E+00 -0.11199881395E+02  0.11932368183E+02  0.10566000000E+00 0. -1.
        -13    1    4    4    0    0  0.81167333156E+01 -0.34951403987E+00 -0.17212826928E+02  0.19034077195E+02  0.10566000000E+00 0.  1.
        -14    1    4    4    0    0  0.48725837252E+00  0.21187958944E+00 -0.17516535537E+01  0.18304654748E+01  0.00000000000E+00 0.  1.
<mgrwt>
<rscale>  0 0.82499765E+02</rscale>
<asrwt>0</asrwt>
<pdfrwt beam="1">  1        1 0.81128142E-02 0.82499765E+02</pdfrwt>
<pdfrwt beam="2">  1       -2 0.49641762E-02 0.82499765E+02</pdfrwt>
<totfact> 0.12179364E+05</totfact>
</mgrwt>
</event>
<event>
 8    1  0.1241100E-020  0.7581855E+02  0.7818608E-02  0.1341355E+00
         -2   -1    0    0    0  501 -0.00000000000E+00  0.00000000000E+00  0.36154693004E+01  0.36154701997E+01  0.25500000000E-02 0.  1.
          1   -1    0    0  501    0  0.00000000000E+00 -0.00000000000E+00 -0.39749005260E+03  0.39749005263E+03  0.50400000000E-02 0. -1.
        -24    2    1    2    0    0  0.88817841970E-15  0.00000000000E+00 -0.39387458330E+03  0.40110552283E+03  0.75818553643E+02 0.  0.
         66    2    3    3    0    0  0.60561901199E+01 -0.36615346212E+02 -0.23727609026E+03  0.24016932366E+03  0.20000005029E+01 0.  0.
         13    1    3    3    0    0 -0.60561901199E+01  0.36615346212E+02 -0.15659849304E+03  0.16093619917E+03  0.10566000000E+00 0. -1.
         13    1    4    4    0    0  0.11773258841E+00 -0.78820695897E+00 -0.64434615020E+01  0.64934190790E+01  0.10566000000E+00 0. -1.
        -13    1    4    4    0    0  0.22108663205E+01 -0.10631350653E+02 -0.71829846532E+02  0.72646070530E+02  0.10566000000E+00 0.  1.
         14    1    4    4    0    0  0.37275912110E+01 -0.25195788600E+02 -0.15900278223E+03  0.16102983405E+03  0.00000000000E+00 0. -1.
<mgrwt>
<rscale>  0 0.75818554E+02</rscale>
<asrwt>0</asrwt>
<pdfrwt beam="1">  1        1 0.61152281E-01 0.75818554E+02</pdfrwt>
<pdfrwt beam="2">  1       -2 0.55622643E-03 0.75818554E+02</pdfrwt>
<totfact> 0.21838495E+05</totfact>
</mgrwt>
</event>
<event>
 8    1  0.1241100E-020  0.8019679E+02  0.7818608E-02  0.1328494E+00
         -2   -1    0    0    0  501 -0.00000000000E+00  0.00000000000E+00  0.44892399331E+02  0.44892399403E+02  0.25500000000E-02 0.  1.
          1   -1    0    0  501    0  0.00000000000E+00 -0.00000000000E+00 -0.35816332387E+02  0.35816332741E+02  0.50400000000E-02 0. -1.
        -24    2    1    2    0    0  0.35527136788E-14  0.35527136788E-14  0.90760669442E+01  0.80708732145E+02  0.80196785804E+02 0.  0.
         66    2    3    3    0    0 -0.20797622823E+02 -0.21814865729E+02 -0.22036954249E+02  0.37390598140E+02  0.19999987256E+01 0.  0.
         13    1    3    3    0    0  0.20797622823E+02  0.21814865729E+02  0.31113021193E+02  0.43318134004E+02  0.10566000000E+00 0. -1.
         13    1    4    4    0    0 -0.18619559668E+01 -0.24474347078E+01 -0.16992138508E+01  0.35150118659E+01  0.10566000000E+00 0. -1.
        -13    1    4    4    0    0 -0.16756202368E+02 -0.16902900890E+02 -0.17830798925E+02  0.29739316243E+02  0.10566000000E+00 0.  1.
         14    1    4    4    0    0 -0.21794644874E+01 -0.24645301309E+01 -0.25069414734E+01  0.41362700310E+01  0.00000000000E+00 0. -1.
<mgrwt>
<rscale>  0 0.80196786E+02</rscale>
<asrwt>0</asrwt>
<pdfrwt beam="1">  1        1 0.55102050E-02 0.80196786E+02</pdfrwt>
<pdfrwt beam="2">  1       -2 0.69065230E-02 0.80196786E+02</pdfrwt>
<totfact> 0.12381944E+05</totfact>
</mgrwt>
</event>
<event>
 8    1  0.1241100E-020  0.7847916E+02  0.7818608E-02  0.1333424E+00
         -2   -1    0    0    0  501 -0.00000000000E+00  0.00000000000E+00  0.73805216295E+02  0.73805216339E+02  0.25500000000E-02 0.  1.
          1   -1    0    0  501    0  0.00000000000E+00 -0.00000000000E+00 -0.20862271947E+02  0.20862272556E+02  0.50400000000E-02 0. -1.
        -24    2    1    2    0    0  0.00000000000E+00  0.17763568394E-14  0.52942944348E+02  0.94667488894E+02  0.78479157089E+02 0.  0.
         66    2    3    3    0    0  0.29025730839E+02 -0.10268752269E+02  0.55783962906E+02  0.63747869324E+02  0.20000004929E+01 0.  0.
         13    1    3    3    0    0 -0.29025730839E+02  0.10268752269E+02 -0.28410185580E+01  0.30919619571E+02  0.10566000000E+00 0. -1.
         13    1    4    4    0    0  0.47860255587E+01 -0.20673935357E+01  0.98646621838E+01  0.11158085889E+02  0.10566000000E+00 0. -1.
        -13    1    4    4    0    0  0.19898489101E+02 -0.67763299614E+01  0.36489236183E+02  0.42111091621E+02  0.10566000000E+00 0.  1.
        -14    1    4    4    0    0  0.43412161792E+01 -0.14250287722E+01  0.94300645386E+01  0.10478691813E+02  0.00000000000E+00 0.  1.
<mgrwt>
<rscale>  0 0.78479157E+02</rscale>
<asrwt>0</asrwt>
<pdfrwt beam="1">  1        1 0.32095803E-02 0.78479157E+02</pdfrwt>
<pdfrwt beam="2">  1       -2 0.11354649E-01 0.78479157E+02</pdfrwt>
<totfact> 0.11936491E+05</totfact>
</mgrwt>
</event>
<event>
 8    1  0.1241100E-020  0.7964565E+02  0.7818608E-02  0.1330060E+00
          1   -1    0    0  501    0  0.00000000000E+00  0.00000000000E+00  0.28876519830E+03  0.28876519835E+03  0.50400000000E-02 0. -1.
         -2   -1    0    0    0  501 -0.00000000000E+00 -0.00000000000E+00 -0.54918568998E+01  0.54918574918E+01  0.25500000000E-02 0.  1.
        -24    2    1    2    0    0  0.14210854715E-13  0.00000000000E+00  0.28327334140E+03  0.29425705584E+03  0.79645646216E+02 0.  0.
         66    2    3    3    0    0 -0.38858771046E+02 -0.27907058873E+01  0.11169716353E+03  0.11831334864E+03  0.19999995896E+01 0.  0.
         13    1    3    3    0    0  0.38858771046E+02  0.27907058873E+01  0.17157617787E+03  0.17594370720E+03  0.10566000000E+00 0. -1.
         13    1    4    4    0    0 -0.24458636269E+01 -0.51167924676E+00  0.62166728816E+01  0.67009141380E+01  0.10566000000E+00 0. -1.
        -13    1    4    4    0    0 -0.18967735929E+02 -0.12907142039E+01  0.55283617780E+02  0.58461359104E+02  0.10566000000E+00 0.  1.
         14    1    4    4    0    0 -0.17445171490E+02 -0.98831243664E+00  0.50196872869E+02  0.53151075395E+02  0.00000000000E+00 0. -1.
<mgrwt>
<rscale>  0 0.79645646E+02</rscale>
<asrwt>0</asrwt>
<pdfrwt beam="1">  1        1 0.44425431E-01 0.79645646E+02</pdfrwt>
<pdfrwt beam="2">  1       -2 0.84490081E-03 0.79645646E+02</pdfrwt>
<totfact> 0.18121231E+05</totfact>
</mgrwt>
</event>
<event>
 8    1  0.1241100E-020  0.8093579E+02  0.7818608E-02  0.1326417E+00
          1   -1    0    0  501    0  0.00000000000E+00  0.00000000000E+00  0.23495649739E+02  0.23495650280E+02  0.50400000000E-02 0. -1.
         -2   -1    0    0    0  501 -0.00000000000E+00 -0.00000000000E+00 -0.69700164272E+02  0.69700164319E+02  0.25500000000E-02 0.  1.
        -24    2    1    2    0    0  0.00000000000E+00  0.00000000000E+00 -0.46204514533E+02  0.93195814599E+02  0.80935793661E+02 0.  0.
         66    2    3    3    0    0  0.34634816027E+02 -0.53678661351E+01 -0.46353980609E+02  0.58147020436E+02  0.19999998017E+01 0.  0.
         13    1    3    3    0    0 -0.34634816027E+02  0.53678661351E+01  0.14946607632E+00  0.35048794162E+02  0.10566000000E+00 0. -1.
         13    1    4    4    0    0  0.11601465104E+02 -0.23636487793E+01 -0.15447477180E+02  0.19463209997E+02  0.10566000000E+00 0. -1.
        -13    1    4    4    0    0  0.12783599502E+02 -0.21669080434E+01 -0.17899770953E+02  0.22102689223E+02  0.10566000000E+00 0.  1.
         14    1    4    4    0    0  0.10249751422E+02 -0.83730931247E+00 -0.13006732476E+02  0.16581121217E+02  0.00000000000E+00 0. -1.
<mgrwt>
<rscale>  0 0.80935794E+02</rscale>
<asrwt>0</asrwt>
<pdfrwt beam="1">  1        1 0.36147154E-02 0.80935794E+02</pdfrwt>
<pdfrwt beam="2">  1       -2 0.10723102E-01 0.80935794E+02</pdfrwt>
<totfact> 0.11166247E+05</totfact>
</mgrwt>
</event>
<event>
 8    1  0.1241100E-020  0.8168522E+02  0.7818608E-02  0.1324336E+00
         -2   -1    0    0    0  501 -0.00000000000E+00  0.00000000000E+00  0.10150260820E+02  0.10150261140E+02  0.25500000000E-02 0.  1.
          1   -1    0    0  501    0  0.00000000000E+00 -0.00000000000E+00 -0.16434244549E+03  0.16434244557E+03  0.50400000000E-02 0. -1.
        -24    2    1    2    0    0 -0.17763568394E-14  0.00000000000E+00 -0.15419218467E+03  0.17449270671E+03  0.81685218252E+02 0.  0.
         66    2    3    3    0    0 -0.10815387735E+02 -0.26326905134E+02 -0.14642238815E+02  0.32069825477E+02  0.20000007005E+01 0.  0.
         13    1    3    3    0    0  0.10815387735E+02  0.26326905134E+02 -0.13954994586E+03  0.14242288123E+03  0.10566000000E+00 0. -1.
         13    1    4    4    0    0 -0.95462753916E-01 -0.64767673998E+00 -0.10452594878E+00  0.67133300713E+00  0.10566000000E+00 0.  1.
        -13    1    4    4    0    0 -0.79996786324E+01 -0.19252608565E+02 -0.10695885652E+02  0.23432262560E+02  0.10566000000E+00 0.  1.
        -14    1    4    4    0    0 -0.27202463490E+01 -0.64266198294E+01 -0.38418272148E+01  0.79662299100E+01  0.00000000000E+00 0.  1.
<mgrwt>
<rscale>  0 0.81685218E+02</rscale>
<asrwt>0</asrwt>
<pdfrwt beam="1">  1        1 0.25283451E-01 0.81685218E+02</pdfrwt>
<pdfrwt beam="2">  1       -2 0.15615787E-02 0.81685218E+02</pdfrwt>
<totfact> 0.15189842E+05</totfact>
</mgrwt>
</event>
<event>
 8    1  0.1241100E-020  0.7898047E+02  0.7818608E-02  0.1331970E+00
         -2   -1    0    0    0  501 -0.00000000000E+00  0.00000000000E+00  0.80422342484E+01  0.80422346526E+01  0.25500000000E-02 0.  1.
          1   -1    0    0  501    0  0.00000000000E+00 -0.00000000000E+00 -0.19391109715E+03  0.19391109721E+03  0.50400000000E-02 0. -1.
        -24    2    1    2    0    0  0.00000000000E+00  0.00000000000E+00 -0.18586886290E+03  0.20195333187E+03  0.78980466295E+02 0.  0.
         66    2    3    3    0    0  0.24580848960E+02 -0.30463378563E+02 -0.80148124050E+02  0.89218592961E+02  0.19999930442E+01 0.  0.
         13    1    3    3    0    0 -0.24580848960E+02  0.30463378563E+02 -0.10572073885E+03  0.11273473891E+03  0.10566000000E+00 0. -1.
         13    1    4    4    0    0  0.40154227038E+01 -0.54392876467E+01 -0.14690341638E+02  0.16171789359E+02  0.10566000000E+00 0. -1.
        -13    1    4    4    0    0  0.13623218029E+02 -0.15517933663E+02 -0.41701380988E+02  0.46534016321E+02  0.10566000000E+00 0.  1.
        -14    1    4    4    0    0  0.69422082267E+01 -0.95061572531E+01 -0.23756401423E+02  0.26512787280E+02  0.00000000000E+00 0.  1.
<mgrwt>
<rscale>  0 0.78980466E+02</rscale>
<asrwt>0</asrwt>
<pdfrwt beam="1">  1        1 0.29832473E-01 0.78980466E+02</pdfrwt>
<pdfrwt beam="2">  1       -2 0.12372670E-02 0.78980466E+02</pdfrwt>
<totfact> 0.17148401E+05</totfact>
</mgrwt>
</event>
<event>
 8    1  0.1241100E-020  0.8125595E+02  0.7818608E-02  0.1325525E+00
         -2   -1    0    0    0  501 -0.00000000000E+00  0.00000000000E+00  0.18534624710E+03  0.18534624711E+03  0.25500000000E-02 0.  1.
          1   -1    0    0  501    0  0.00000000000E+00 -0.00000000000E+00 -0.89056678032E+01  0.89056692293E+01  0.50400000000E-02 0. -1.
        -24    2    1    2    0    0  0.00000000000E+00  0.00000000000E+00  0.17644057929E+03  0.19425191634E+03  0.81255947362E+02 0.  0.
         66    2    3    3    0    0 -0.40067591541E+02  0.59321741897E+00  0.72622164887E+02  0.82968323066E+02  0.20000001833E+01 0.  0.
         13    1    3    3    0    0  0.40067591541E+02 -0.59321741897E+00  0.10381841441E+03  0.11128359328E+03  0.10566000000E+00 0. -1.
         13    1    4    4    0    0 -0.10838258454E+02  0.14308734619E+00  0.18343598624E+02  0.21306972915E+02  0.10566000000E+00 0. -1.
        -13    1    4    4    0    0 -0.26797439042E+02  0.68145092980E+00  0.49344422505E+02  0.56155590203E+02  0.10566000000E+00 0.  1.
         14    1    4    4    0    0 -0.24318940444E+01 -0.23132085702E+00  0.49341437583E+01  0.55057599484E+01  0.00000000000E+00 0. -1.
<mgrwt>
<rscale>  0 0.81255947E+02</rscale>
<asrwt>0</asrwt>
<pdfrwt beam="1">  1        1 0.13701030E-02 0.81255947E+02</pdfrwt>
<pdfrwt beam="2">  1       -2 0.28514805E-01 0.81255947E+02</pdfrwt>
<totfact> 0.84216934E+04</totfact>
</mgrwt>
</event>
<event>
 8    1  0.1241100E-020  0.8051445E+02  0.7818608E-02  0.1327598E+00
         -2   -1    0    0    0  501 -0.00000000000E+00  0.00000000000E+00  0.77608843465E+01  0.77608847654E+01  0.25500000000E-02 0.  1.
          1   -1    0    0  501    0  0.00000000000E+00 -0.00000000000E+00 -0.20882211313E+03  0.20882211319E+03  0.50400000000E-02 0. -1.
        -24    2    1    2    0    0  0.35527136788E-14  0.71054273576E-14 -0.20106122879E+03  0.21658299796E+03  0.80514453882E+02 0.  0.
         66    2    3    3    0    0  0.27017868347E+02  0.19595336171E+02 -0.40160628732E+02  0.52257234089E+02  0.20000012010E+01 0.  0.
         13    1    3    3    0    0 -0.27017868347E+02 -0.19595336171E+02 -0.16090060005E+03  0.16432576387E+03  0.10566000000E+00 0. -1.
         13    1    4    4    0    0  0.13606918742E+02  0.90440978177E+01 -0.18824679329E+02  0.24926364734E+02  0.10566000000E+00 0. -1.
        -13    1    4    4    0    0  0.87523324667E+01  0.69079690390E+01 -0.13369024446E+02  0.17408771885E+02  0.10566000000E+00 0.  1.
        -14    1    4    4    0    0  0.46586171377E+01  0.36432693142E+01 -0.79669249571E+01  0.99220974700E+01  0.00000000000E+00 0.  1.
<mgrwt>
<rscale>  0 0.80514454E+02</rscale>
<asrwt>0</asrwt>
<pdfrwt beam="1">  1        1 0.32126475E-01 0.80514454E+02</pdfrwt>
<pdfrwt beam="2">  1       -2 0.11939824E-02 0.80514454E+02</pdfrwt>
<totfact> 0.16530825E+05</totfact>
</mgrwt>
</event>
<event>
 8    1  0.1241100E-020  0.6940033E+02  0.7818608E-02  0.1362144E+00
          1   -1    0    0  501    0  0.00000000000E+00  0.00000000000E+00  0.86357071847E+02  0.86357071994E+02  0.50400000000E-02 0. -1.
         -2   -1    0    0    0  501 -0.00000000000E+00 -0.00000000000E+00 -0.13943286755E+02  0.13943286988E+02  0.25500000000E-02 0.  1.
        -24    2    1    2    0    0  0.17763568394E-14  0.00000000000E+00  0.72413785091E+02  0.10030035898E+03  0.69400329543E+02 0.  0.
         66    2    3    3    0    0 -0.10524084702E+02  0.32488849022E+02  0.44886029362E+02  0.56436134731E+02  0.20000004970E+01 0.  0.
         13    1    3    3    0    0  0.10524084702E+02 -0.32488849022E+02  0.27527755730E+02  0.43864224251E+02  0.10566000000E+00 0. -1.
         13    1    4    4    0    0 -0.19697618837E+01  0.74647997346E+01  0.97614970423E+01  0.12445930479E+02  0.10566000000E+00 0.  1.
        -13    1    4    4    0    0 -0.33340888522E+01  0.92267070194E+01  0.14139330684E+02  0.17209883995E+02  0.10566000000E+00 0.  1.
         14    1    4    4    0    0 -0.52202339659E+01  0.15797342268E+02  0.20985201635E+02  0.26780320257E+02  0.00000000000E+00 0. -1.
<mgrwt>
<rscale>  0 0.69400330E+02</rscale>
<asrwt>0</asrwt>
<pdfrwt beam="1">  1        1 0.13285704E-01 0.69400330E+02</pdfrwt>
<pdfrwt beam="2">  1       -2 0.21451210E-02 0.69400330E+02</pdfrwt>
<totfact> 0.21017045E+05</totfact>
</mgrwt>
</event>
<event>
 8    1  0.1241100E-020  0.8109371E+02  0.7818608E-02  0.1325976E+00
         -2   -1    0    0    0  501 -0.00000000000E+00  0.00000000000E+00  0.97357904126E+01  0.97357907466E+01  0.25500000000E-02 0.  1.
          1   -1    0    0  501    0  0.00000000000E+00 -0.00000000000E+00 -0.16886633694E+03  0.16886633701E+03  0.50400000000E-02 0. -1.
        -24    2    1    2    0    0  0.00000000000E+00  0.00000000000E+00 -0.15913054653E+03  0.17860212776E+03  0.81093706309E+02 0.  0.
         66    2    3    3    0    0  0.27381545759E+02 -0.29214077008E+02 -0.93337784541E+02  0.10158323373E+03  0.20000022646E+01 0.  0.
         13    1    3    3    0    0 -0.27381545759E+02  0.29214077008E+02 -0.65792761984E+02  0.77018894027E+02  0.10566000000E+00 0. -1.
         13    1    4    4    0    0  0.45803533758E+01 -0.41856968836E+01 -0.15822544177E+02  0.16995992578E+02  0.10566000000E+00 0. -1.
        -13    1    4    4    0    0  0.84734046590E+01 -0.94533260397E+01 -0.29055724992E+02  0.31708205225E+02  0.10566000000E+00 0.  1.
         14    1    4    4    0    0  0.14327787724E+02 -0.15575054085E+02 -0.48459515372E+02  0.52879035930E+02  0.00000000000E+00 0. -1.
<mgrwt>
<rscale>  0 0.81093706E+02</rscale>
<asrwt>0</asrwt>
<pdfrwt beam="1">  1        1 0.25979434E-01 0.81093706E+02</pdfrwt>
<pdfrwt beam="2">  1       -2 0.14978141E-02 0.81093706E+02</pdfrwt>
<totfact> 0.15567375E+05</totfact>
</mgrwt>
</event>
<event>
 8    1  0.1241100E-020  0.8063981E+02  0.7818608E-02  0.1327245E+00
         -2   -1    0    0    0  501 -0.00000000000E+00  0.00000000000E+00  0.16592999895E+02  0.16593000091E+02  0.25500000000E-02 0.  1.
          1   -1    0    0  501    0  0.00000000000E+00 -0.00000000000E+00 -0.97974743048E+02  0.97974743178E+02  0.50400000000E-02 0. -1.
        -24    2    1    2    0    0  0.35527136788E-14  0.00000000000E+00 -0.81381743153E+02  0.11456774327E+03  0.80639814478E+02 0.  0.
         66    2    3    3    0    0 -0.26143042805E+02 -0.80361419364E+01  0.13257003413E+01  0.27455340950E+02  0.20000002349E+01 0.  0.
         13    1    3    3    0    0  0.26143042805E+02  0.80361419364E+01 -0.82707443495E+02  0.87112402319E+02  0.10566000000E+00 0. -1.
         13    1    4    4    0    0 -0.87670112261E+01 -0.32910720695E+01 -0.12570341557E+00  0.93658211914E+01  0.10566000000E+00 0. -1.
        -13    1    4    4    0    0 -0.16831983203E+02 -0.45308803790E+01  0.12714713303E+01  0.17477766990E+02  0.10566000000E+00 0.  1.
         14    1    4    4    0    0 -0.54404837587E+00 -0.21418948792E+00  0.17993242665E+00  0.61175276884E+00  0.00000000000E+00 0. -1.
<mgrwt>
<rscale>  0 0.80639814E+02</rscale>
<asrwt>0</asrwt>
<pdfrwt beam="1">  1        1 0.15073037E-01 0.80639814E+02</pdfrwt>
<pdfrwt beam="2">  1       -2 0.25527693E-02 0.80639814E+02</pdfrwt>
<totfact> 0.14336370E+05</totfact>
</mgrwt>
</event>
<event>
 8    1  0.1241100E-020  0.8443905E+02  0.7818608E-02  0.1316906E+00
          1   -1    0    0  501    0  0.00000000000E+00  0.00000000000E+00  0.31207947517E+03  0.31207947521E+03  0.50400000000E-02 0. -1.
         -2   -1    0    0    0  501 -0.00000000000E+00 -0.00000000000E+00 -0.57116477520E+01  0.57116483212E+01  0.25500000000E-02 0.  1.
        -24    2    1    2    0    0  0.00000000000E+00  0.00000000000E+00  0.30636782741E+03  0.31779112353E+03  0.84439046174E+02 0.  0.
         66    2    3    3    0    0  0.12243190985E+02 -0.37777687303E+02  0.20694929168E+03  0.21073456934E+03  0.20000009918E+01 0.  0.
         13    1    3    3    0    0 -0.12243190985E+02  0.37777687303E+02  0.99418535737E+02  0.10705655419E+03  0.10566000000E+00 0. -1.
         13    1    4    4    0    0  0.10400381966E+01 -0.38380109820E+01  0.19157180453E+02  0.19565805241E+02  0.10566000000E+00 0.  1.
        -13    1    4    4    0    0  0.41446545112E+01 -0.11005636712E+02  0.64431558697E+02  0.65496100042E+02  0.10566000000E+00 0.  1.
        -14    1    4    4    0    0  0.70584982768E+01 -0.22934039608E+02  0.12336055253E+03  0.12567266405E+03  0.00000000000E+00 0.  1.
<mgrwt>
<rscale>  0 0.84439046E+02</rscale>
<asrwt>0</asrwt>
<pdfrwt beam="1">  1        1 0.48012230E-01 0.84439046E+02</pdfrwt>
<pdfrwt beam="2">  1       -2 0.87871503E-03 0.84439046E+02</pdfrwt>
<totfact> 0.15759717E+05</totfact>
</mgrwt>
</event>
<event>
 8    1  0.1452895E-020  0.7981875E+02  0.7818608E-02  0.1329567E+00
         -2   -1    0    0    0  501 -0.00000000000E+00  0.00000000000E+00  0.91839679898E+02  0.91839679933E+02  0.25500000000E-02 0.  1.
          1   -1    0    0  501    0  0.00000000000E+00 -0.00000000000E+00 -0.17342812055E+02  0.17342812788E+02  0.50400000000E-02 0. -1.
        -24    2    1    2    0    0  0.00000000000E+00  0.00000000000E+00  0.74496867842E+02  0.10918249272E+03  0.79818753426E+02 0.  0.
         66    2    3    3    0    0  0.82135823605E+01 -0.21959762191E+02  0.81407025898E+02  0.84739589066E+02  0.19999997236E+01 0.  0.
         13    1    3    3    0    0 -0.82135823605E+01  0.21959762191E+02 -0.69101580559E+01  0.24442903654E+02  0.10566000000E+00 0. -1.
         13    1    4    4    0    0  0.35787829531E+01 -0.99577858262E+01  0.36647579217E+02  0.38144742921E+02  0.10566000000E+00 0. -1.
        -13    1    4    4    0    0  0.29767360876E+01 -0.86822627940E+01  0.33802332337E+02  0.35026439734E+02  0.10566000000E+00 0.  1.
         14    1    4    4    0    0  0.16580633198E+01 -0.33197135705E+01  0.10957114344E+02  0.11568406412E+02  0.00000000000E+00 0. -1.
<mgrwt>
<rscale>  0 0.79818753E+02</rscale>
<asrwt>0</asrwt>
<pdfrwt beam="1">  1        1 0.26681250E-02 0.79818753E+02</pdfrwt>
<pdfrwt beam="2">  1       -2 0.14129181E-01 0.79818753E+02</pdfrwt>
<totfact> 0.10896419E+05</totfact>
</mgrwt>
</event>
<event>
 8    1  0.1241100E-020  0.8005549E+02  0.7818608E-02  0.1328894E+00
         -2   -1    0    0    0  501 -0.00000000000E+00  0.00000000000E+00  0.88658129478E+02  0.88658129515E+02  0.25500000000E-02 0.  1.
          1   -1    0    0  501    0  0.00000000000E+00 -0.00000000000E+00 -0.18071893616E+02  0.18071894319E+02  0.50400000000E-02 0. -1.
        -24    2    1    2    0    0  0.17763568394E-14  0.71054273576E-14  0.70586235862E+02  0.10673002383E+03  0.80055488846E+02 0.  0.
         66    2    3    3    0    0  0.14579209840E+02  0.33823289718E+02  0.56125276365E+02  0.67161111788E+02  0.20000006652E+01 0.  0.
         13    1    3    3    0    0 -0.14579209840E+02 -0.33823289718E+02  0.14460959497E+02  0.39568912046E+02  0.10566000000E+00 0. -1.
         13    1    4    4    0    0  0.12226679784E+01  0.37205620804E+01  0.52887078944E+01  0.65817242731E+01  0.10566000000E+00 0. -1.
        -13    1    4    4    0    0  0.79805953763E+01  0.16974574757E+02  0.29378705300E+02  0.34856069484E+02  0.10566000000E+00 0.  1.
        -14    1    4    4    0    0  0.53759464853E+01  0.13128152881E+02  0.21457863170E+02  0.25723318031E+02  0.00000000000E+00 0.  1.
<mgrwt>
<rscale>  0 0.80055489E+02</rscale>
<asrwt>0</asrwt>
<pdfrwt beam="1">  1        1 0.27802914E-02 0.80055489E+02</pdfrwt>
<pdfrwt beam="2">  1       -2 0.13639712E-01 0.80055489E+02</pdfrwt>
<totfact> 0.10903428E+05</totfact>
</mgrwt>
</event>
<event>
 8    1  0.1241100E-020  0.8759531E+02  0.7818608E-02  0.1308782E+00
         -2   -1    0    0    0  501 -0.00000000000E+00  0.00000000000E+00  0.14981635456E+02  0.14981635673E+02  0.25500000000E-02 0.  1.
          1   -1    0    0  501    0  0.00000000000E+00 -0.00000000000E+00 -0.12803906441E+03  0.12803906451E+03  0.50400000000E-02 0. -1.
        -24    2    1    2    0    0  0.00000000000E+00  0.00000000000E+00 -0.11305742896E+03  0.14302070019E+03  0.87595310601E+02 0.  0.
         66    2    3    3    0    0 -0.23608830553E+02  0.36793694366E+02 -0.60236933953E+02  0.74455631224E+02  0.19999959216E+01 0.  0.
         13    1    3    3    0    0  0.23608830553E+02 -0.36793694366E+02 -0.52820495006E+02  0.68565068963E+02  0.10566000000E+00 0. -1.
         13    1    4    4    0    0 -0.90557602483E+01  0.12841836902E+02 -0.21280091111E+02  0.26453223063E+02  0.10566000000E+00 0. -1.
        -13    1    4    4    0    0 -0.49636618686E+01  0.77731593287E+01 -0.12068910491E+02  0.15189789649E+02  0.10566000000E+00 0.  1.
         14    1    4    4    0    0 -0.95894084363E+01  0.16178698136E+02 -0.26887932351E+02  0.32812618512E+02  0.00000000000E+00 0. -1.
<mgrwt>
<rscale>  0 0.87595311E+02</rscale>
<asrwt>0</asrwt>
<pdfrwt beam="1">  1        1 0.19698317E-01 0.87595311E+02</pdfrwt>
<pdfrwt beam="2">  1       -2 0.23048671E-02 0.87595311E+02</pdfrwt>
<totfact> 0.12010943E+05</totfact>
</mgrwt>
</event>
<event>
 8    1  0.1241100E-020  0.7971522E+02  0.7818608E-02  0.1329862E+00
         -2   -1    0    0    0  501 -0.00000000000E+00  0.00000000000E+00  0.10099833916E+03  0.10099833919E+03  0.25500000000E-02 0.  1.
          1   -1    0    0  501    0  0.00000000000E+00 -0.00000000000E+00 -0.15729259533E+02  0.15729260340E+02  0.50400000000E-02 0. -1.
        -24    2    1    2    0    0  0.00000000000E+00 -0.17763568394E-14  0.85269079622E+02  0.11672759953E+03  0.79715221582E+02 0.  0.
         66    2    3    3    0    0  0.36869390516E+02  0.14617051170E+02  0.48064188567E+02  0.62347224167E+02  0.19999992043E+01 0.  0.
         13    1    3    3    0    0 -0.36869390516E+02 -0.14617051170E+02  0.37204891056E+02  0.54380375361E+02  0.10566000000E+00 0. -1.
         13    1    4    4    0    0  0.13384734979E+02  0.57941209209E+01  0.18729475417E+02  0.23738731667E+02  0.10566000000E+00 0. -1.
        -13    1    4    4    0    0  0.82024910258E+01  0.29157445000E+01  0.10739855861E+02  0.13825270087E+02  0.10566000000E+00 0.  1.
        -14    1    4    4    0    0  0.15282164511E+02  0.59071857493E+01  0.18594857288E+02  0.24783222413E+02  0.00000000000E+00 0.  1.
<mgrwt>
<rscale>  0 0.79715222E+02</rscale>
<asrwt>0</asrwt>
<pdfrwt beam="1">  1        1 0.24198863E-02 0.79715222E+02</pdfrwt>
<pdfrwt beam="2">  1       -2 0.15538205E-01 0.79715222E+02</pdfrwt>
<totfact> 0.10683630E+05</totfact>
</mgrwt>
</event>
<event>
 8    1  0.1241100E-020  0.7924130E+02  0.7818608E-02  0.1331218E+00
         -2   -1    0    0    0  501 -0.00000000000E+00  0.00000000000E+00  0.52710050891E+01  0.52710057059E+01  0.25500000000E-02 0.  1.
          1   -1    0    0  501    0  0.00000000000E+00 -0.00000000000E+00 -0.29781715521E+03  0.29781715525E+03  0.50400000000E-02 0. -1.
        -24    2    1    2    0    0  0.00000000000E+00 -0.71054273576E-14 -0.29254615012E+03  0.30308816096E+03  0.79241298340E+02 0.  0.
         66    2    3    3    0    0 -0.30808663205E+01 -0.38512737684E+02 -0.17950545013E+03  0.18362714757E+03  0.19999993424E+01 0.  0.
         13    1    3    3    0    0  0.30808663205E+01  0.38512737684E+02 -0.11304069999E+03  0.11946101338E+03  0.10566000000E+00 0. -1.
         13    1    4    4    0    0 -0.19681837150E+01 -0.25850663846E+02 -0.11836174415E+03  0.12116783489E+03  0.10566000000E+00 0. -1.
        -13    1    4    4    0    0 -0.92081760208E+00 -0.50403421638E+01 -0.23919439356E+02  0.24462291335E+02  0.10566000000E+00 0.  1.
        -14    1    4    4    0    0 -0.19186500338E+00 -0.76217316741E+01 -0.37224266623E+02  0.37997021350E+02  0.00000000000E+00 0.  1.
<mgrwt>
<rscale>  0 0.79241298E+02</rscale>
<asrwt>0</asrwt>
<pdfrwt beam="1">  1        1 0.45818011E-01 0.79241298E+02</pdfrwt>
<pdfrwt beam="2">  1       -2 0.81092414E-03 0.79241298E+02</pdfrwt>
<totfact> 0.18474680E+05</totfact>
</mgrwt>
</event>
<event>
 8    1  0.1241100E-020  0.8493153E+02  0.7818608E-02  0.1315612E+00
          1   -1    0    0  501    0  0.00000000000E+00  0.00000000000E+00  0.67921717204E+02  0.67921717391E+02  0.50400000000E-02 0. -1.
         -2   -1    0    0    0  501 -0.00000000000E+00 -0.00000000000E+00 -0.26550286044E+02  0.26550286166E+02  0.25500000000E-02 0.  1.
        -24    2    1    2    0    0  0.00000000000E+00  0.35527136788E-14  0.41371431161E+02  0.94472003557E+02  0.84931526184E+02 0.  0.
         66    2    3    3    0    0  0.29280056365E+02  0.30624782575E+02  0.23452731078E+02  0.48468851653E+02  0.19999942495E+01 0.  0.
         13    1    3    3    0    0 -0.29280056365E+02 -0.30624782575E+02  0.17918700083E+02  0.46003151905E+02  0.10566000000E+00 0. -1.
         13    1    4    4    0    0  0.27443267938E+01  0.29576915133E+01  0.24892139284E+01  0.47420057630E+01  0.10566000000E+00 0. -1.
        -13    1    4    4    0    0  0.65684685615E+01  0.60050597185E+01  0.43882895753E+01  0.99233951296E+01  0.10566000000E+00 0.  1.
        -14    1    4    4    0    0  0.19967261010E+02  0.21662031343E+02  0.16575227574E+02  0.33803450760E+02  0.00000000000E+00 0.  1.
<mgrwt>
<rscale>  0 0.84931526E+02</rscale>
<asrwt>0</asrwt>
<pdfrwt beam="1">  1        1 0.10449495E-01 0.84931526E+02</pdfrwt>
<pdfrwt beam="2">  1       -2 0.40846594E-02 0.84931526E+02</pdfrwt>
<totfact> 0.11707931E+05</totfact>
</mgrwt>
</event>
<event>
 8    1  0.1241100E-020  0.8198568E+02  0.7818608E-02  0.1323509E+00
         -2   -1    0    0    0  501 -0.00000000000E+00  0.00000000000E+00  0.24911712690E+02  0.24911712821E+02  0.25500000000E-02 0.  1.
          1   -1    0    0  501    0  0.00000000000E+00 -0.00000000000E+00 -0.67454726570E+02  0.67454726758E+02  0.50400000000E-02 0. -1.
        -24    2    1    2    0    0  0.00000000000E+00  0.88817841970E-15 -0.42543013880E+02  0.92366439579E+02  0.81985676375E+02 0.  0.
         66    2    3    3    0    0 -0.36922953388E+02  0.56901295079E+01 -0.23406882291E+01  0.37485475553E+02  0.19999988440E+01 0.  0.
         13    1    3    3    0    0  0.36922953388E+02 -0.56901295079E+01 -0.40202325650E+02  0.54880964026E+02  0.10566000000E+00 0. -1.
         13    1    4    4    0    0 -0.29254651281E+01  0.10741881952E+00 -0.34622770042E+00  0.29497326446E+01  0.10566000000E+00 0. -1.
        -13    1    4    4    0    0 -0.22495066435E+02  0.30835916797E+01 -0.11534471296E+01  0.22734954494E+02  0.10566000000E+00 0.  1.
        -14    1    4    4    0    0 -0.11502421825E+02  0.24991190088E+01 -0.84101339907E+00  0.11800788414E+02  0.00000000000E+00 0.  1.
<mgrwt>
<rscale>  0 0.81985676E+02</rscale>
<asrwt>0</asrwt>
<pdfrwt beam="1">  1        1 0.10377650E-01 0.81985676E+02</pdfrwt>
<pdfrwt beam="2">  1       -2 0.38325712E-02 0.81985676E+02</pdfrwt>
<totfact> 0.12891428E+05</totfact>
</mgrwt>
</event>
<event>
 8    1  0.1241100E-020  0.7931994E+02  0.7818608E-02  0.1330992E+00
         -2   -1    0    0    0  501 -0.00000000000E+00  0.00000000000E+00  0.27933048629E+03  0.27933048630E+03  0.25500000000E-02 0.  1.
          1   -1    0    0  501    0  0.00000000000E+00 -0.00000000000E+00 -0.56310108272E+01  0.56310130827E+01  0.50400000000E-02 0. -1.
        -24    2    1    2    0    0  0.00000000000E+00  0.00000000000E+00  0.27369947546E+03  0.28496149938E+03  0.79319942402E+02 0.  0.
         66    2    3    3    0    0  0.15426425788E+02 -0.34414907531E+02  0.18072267727E+03  0.18462677639E+03  0.20000014532E+01 0.  0.
         13    1    3    3    0    0 -0.15426425788E+02  0.34414907531E+02  0.92976798186E+02  0.10033472299E+03  0.10566000000E+00 0. -1.
         13    1    4    4    0    0  0.94311008675E+01 -0.22662288931E+02  0.11739456509E+03  0.11993339852E+03  0.10566000000E+00 0. -1.
        -13    1    4    4    0    0  0.49582546928E+01 -0.98234465356E+01  0.51222549799E+02  0.52391269916E+02  0.10566000000E+00 0.  1.
        -14    1    4    4    0    0  0.10370702280E+01 -0.19291720649E+01  0.12105562387E+02  0.12302107959E+02  0.00000000000E+00 0.  1.
<mgrwt>
<rscale>  0 0.79319942E+02</rscale>
<asrwt>0</asrwt>
<pdfrwt beam="1">  1        1 0.86630965E-03 0.79319942E+02</pdfrwt>
<pdfrwt beam="2">  1       -2 0.42973915E-01 0.79319942E+02</pdfrwt>
<totfact> 0.74607607E+04</totfact>
</mgrwt>
</event>
<event>
 8    1  0.1777418E-020  0.8077551E+02  0.7818608E-02  0.1326865E+00
          1   -1    0    0  501    0  0.00000000000E+00  0.00000000000E+00  0.10319640297E+03  0.10319640309E+03  0.50400000000E-02 0. -1.
         -2   -1    0    0    0  501 -0.00000000000E+00 -0.00000000000E+00 -0.15806469662E+02  0.15806469867E+02  0.25500000000E-02 0.  1.
        -24    2    1    2    0    0  0.44408920985E-15  0.35527136788E-14  0.87389933303E+02  0.11900287296E+03  0.80775511939E+02 0.  0.
         66    2    3    3    0    0 -0.21076084413E+01  0.17017580787E+02 -0.10110110420E+02  0.20006359081E+02  0.20000004483E+01 0.  0.
         13    1    3    3    0    0  0.21076084413E+01 -0.17017580787E+02  0.97500043723E+02  0.98996513874E+02  0.10566000000E+00 0. -1.
         13    1    4    4    0    0 -0.58314891300E+00  0.59979433548E+01 -0.37609806482E+01  0.71043315388E+01  0.10566000000E+00 0. -1.
        -13    1    4    4    0    0 -0.91575024737E+00  0.95689477206E+01 -0.58416861219E+01  0.11248991945E+02  0.10566000000E+00 0.  1.
         14    1    4    4    0    0 -0.60870928097E+00  0.14506897119E+01 -0.50744364989E+00  0.16530355976E+01  0.00000000000E+00 0. -1.
<mgrwt>
<rscale>  0 0.80775512E+02</rscale>
<asrwt>0</asrwt>
<pdfrwt beam="1">  1        1 0.15876370E-01 0.80775512E+02</pdfrwt>
<pdfrwt beam="2">  1       -2 0.24317645E-02 0.80775512E+02</pdfrwt>
<totfact> 0.14397206E+05</totfact>
</mgrwt>
</event>
<event>
 8    1  0.1241100E-020  0.7942138E+02  0.7818608E-02  0.1330702E+00
         -2   -1    0    0    0  501 -0.00000000000E+00  0.00000000000E+00  0.16893257068E+03  0.16893257070E+03  0.25500000000E-02 0.  1.
          1   -1    0    0  501    0  0.00000000000E+00 -0.00000000000E+00 -0.93347224515E+01  0.93347238121E+01  0.50400000000E-02 0. -1.
        -24    2    1    2    0    0  0.00000000000E+00  0.00000000000E+00  0.15959784822E+03  0.17826729451E+03  0.79421377054E+02 0.  0.
         66    2    3    3    0    0 -0.31019387936E+02 -0.13690408736E+01  0.13532525179E+03  0.13885604227E+03  0.20000008536E+01 0.  0.
         13    1    3    3    0    0  0.31019387936E+02  0.13690408736E+01  0.24272596437E+02  0.39411252234E+02  0.10566000000E+00 0. -1.
         13    1    4    4    0    0 -0.34847871001E+01 -0.42496867341E+00  0.17545632234E+02  0.17893705989E+02  0.10566000000E+00 0. -1.
        -13    1    4    4    0    0 -0.13589222535E+02 -0.10183871565E+00  0.59173702412E+02  0.60714212186E+02  0.10566000000E+00 0.  1.
        -14    1    4    4    0    0 -0.13945378301E+02 -0.84223348450E+00  0.58605917143E+02  0.60248124098E+02  0.00000000000E+00 0.  1.
<mgrwt>
<rscale>  0 0.79421377E+02</rscale>
<asrwt>0</asrwt>
<pdfrwt beam="1">  1        1 0.14361113E-02 0.79421377E+02</pdfrwt>
<pdfrwt beam="2">  1       -2 0.25989626E-01 0.79421377E+02</pdfrwt>
<totfact> 0.92447753E+04</totfact>
</mgrwt>
</event>
<event>
 8    1  0.1241100E-020  0.8896294E+02  0.7818608E-02  0.1305383E+00
         -2   -1    0    0    0  501 -0.00000000000E+00  0.00000000000E+00  0.38926334111E+03  0.38926334112E+03  0.25500000000E-02 0.  1.
          1   -1    0    0  501    0  0.00000000000E+00 -0.00000000000E+00 -0.50829360200E+01  0.50829385188E+01  0.50400000000E-02 0. -1.
        -24    2    1    2    0    0 -0.71054273576E-14 -0.35527136788E-14  0.38418040509E+03  0.39434627964E+03  0.88962939523E+02 0.  0.
         66    2    3    3    0    0  0.33666444179E+02  0.28131283645E+02  0.16028464331E+03  0.16619255539E+03  0.20000002994E+01 0.  0.
         13    1    3    3    0    0 -0.33666444179E+02 -0.28131283645E+02  0.22389576178E+03  0.22815372425E+03  0.10566000000E+00 0. -1.
         13    1    4    4    0    0  0.39653412794E+01  0.29528322468E+01  0.17978472982E+02  0.18646173992E+02  0.10566000000E+00 0. -1.
        -13    1    4    4    0    0  0.20499838581E+02  0.16443346389E+02  0.97149760249E+02  0.10064151282E+03  0.10566000000E+00 0.  1.
         14    1    4    4    0    0  0.92012643186E+01  0.87351050093E+01  0.45156410084E+02  0.46904868577E+02  0.00000000000E+00 0. -1.
<mgrwt>
<rscale>  0 0.88962940E+02</rscale>
<asrwt>0</asrwt>
<pdfrwt beam="1">  1        1 0.78199021E-03 0.88962940E+02</pdfrwt>
<pdfrwt beam="2">  1       -2 0.59886678E-01 0.88962940E+02</pdfrwt>
<totfact> 0.45671611E+04</totfact>
</mgrwt>
</event>
<event>
 8    1  0.1241100E-020  0.7891324E+02  0.7818608E-02  0.1332164E+00
          1   -1    0    0  501    0  0.00000000000E+00  0.00000000000E+00  0.20651624463E+03  0.20651624469E+03  0.50400000000E-02 0. -1.
         -2   -1    0    0    0  501 -0.00000000000E+00 -0.00000000000E+00 -0.75385104768E+01  0.75385109081E+01  0.25500000000E-02 0.  1.
        -24    2    1    2    0    0  0.71054273576E-14  0.11102230246E-15  0.19897773416E+03  0.21405475560E+03  0.78913241640E+02 0.  0.
         66    2    3    3    0    0  0.37115272529E+02  0.97152625613E+00  0.63532786586E+02  0.73613193719E+02  0.19999999572E+01 0.  0.
         13    1    3    3    0    0 -0.37115272529E+02 -0.97152625613E+00  0.13544494757E+03  0.14044156188E+03  0.10566000000E+00 0. -1.
         13    1    4    4    0    0  0.41827340721E+01 -0.83001334686E-02  0.79930565478E+01  0.90219427078E+01  0.10566000000E+00 0. -1.
        -13    1    4    4    0    0  0.15114109583E+02  0.10927360644E+01  0.25125538245E+02  0.29341680537E+02  0.10566000000E+00 0.  1.
        -14    1    4    4    0    0  0.17818428874E+02 -0.11290967475E+00  0.30414191793E+02  0.35249570474E+02  0.00000000000E+00 0.  1.
<mgrwt>
<rscale>  0 0.78913242E+02</rscale>
<asrwt>0</asrwt>
<pdfrwt beam="1">  1        1 0.31771729E-01 0.78913242E+02</pdfrwt>
<pdfrwt beam="2">  1       -2 0.11597709E-02 0.78913242E+02</pdfrwt>
<totfact> 0.17397742E+05</totfact>
</mgrwt>
</event>
<event>
 8    1  0.1241100E-020  0.7810250E+02  0.7818608E-02  0.1334524E+00
          1   -1    0    0  501    0  0.00000000000E+00  0.00000000000E+00  0.11316976323E+02  0.11316977445E+02  0.50400000000E-02 0. -1.
         -2   -1    0    0    0  501 -0.00000000000E+00 -0.00000000000E+00 -0.13475330256E+03  0.13475330259E+03  0.25500000000E-02 0.  1.
        -24    2    1    2    0    0 -0.27755575616E-16  0.00000000000E+00 -0.12343632624E+03  0.14607028003E+03  0.78102497226E+02 0.  0.
         66    2    3    3    0    0  0.66885603332E-01 -0.22159600125E+02 -0.12183780414E+03  0.12385274668E+03  0.19999977083E+01 0.  0.
         13    1    3    3    0    0 -0.66885603332E-01  0.22159600125E+02 -0.15985221009E+01  0.22217533354E+02  0.10566000000E+00 0. -1.
         13    1    4    4    0    0  0.36543638028E+00 -0.15821897569E+01 -0.76540128245E+01  0.78250843144E+01  0.10566000000E+00 0. -1.
        -13    1    4    4    0    0 -0.24419600354E+00 -0.19872299146E+02 -0.10917373347E+03  0.11096793748E+03  0.10566000000E+00 0.  1.
        -14    1    4    4    0    0 -0.54354773409E-01 -0.70511122193E+00 -0.50100578423E+01  0.50597248799E+01  0.00000000000E+00 0.  1.
<mgrwt>
<rscale>  0 0.78102497E+02</rscale>
<asrwt>0</asrwt>
<pdfrwt beam="1">  1        1 0.17410735E-02 0.78102497E+02</pdfrwt>
<pdfrwt beam="2">  1       -2 0.20731276E-01 0.78102497E+02</pdfrwt>
<totfact> 0.10399018E+05</totfact>
</mgrwt>
</event>
<event>
 8    1  0.1241100E-020  0.8061625E+02  0.7818608E-02  0.1327312E+00
         -2   -1    0    0    0  501 -0.00000000000E+00  0.00000000000E+00  0.25065272420E+03  0.25065272422E+03  0.25500000000E-02 0.  1.
          1   -1    0    0  501    0  0.00000000000E+00 -0.00000000000E+00 -0.64820541699E+01  0.64820561293E+01  0.50400000000E-02 0. -1.
        -24    2    1    2    0    0  0.00000000000E+00  0.00000000000E+00  0.24417067003E+03  0.25713478034E+03  0.80616246246E+02 0.  0.
         66    2    3    3    0    0 -0.10533152862E+02  0.18920202856E+02  0.23050479600E+03  0.23152836196E+03  0.20000068331E+01 0.  0.
         13    1    3    3    0    0  0.10533152862E+02 -0.18920202856E+02  0.13665874029E+02  0.25606418381E+02  0.10566000000E+00 0. -1.
         13    1    4    4    0    0 -0.64084664876E+01  0.13189397416E+02  0.15629309486E+03  0.15697952514E+03  0.10566000000E+00 0. -1.
        -13    1    4    4    0    0 -0.30050148995E+01  0.44692089947E+01  0.54913320990E+02  0.55176878579E+02  0.10566000000E+00 0.  1.
         14    1    4    4    0    0 -0.11196714748E+01  0.12615964448E+01  0.19298380149E+02  0.19371958243E+02  0.00000000000E+00 0. -1.
<mgrwt>
<rscale>  0 0.80616246E+02</rscale>
<asrwt>0</asrwt>
<pdfrwt beam="1">  1        1 0.99723914E-03 0.80616246E+02</pdfrwt>
<pdfrwt beam="2">  1       -2 0.38561962E-01 0.80616246E+02</pdfrwt>
<totfact> 0.75507592E+04</totfact>
</mgrwt>
</event>
<event>
 8    1  0.1241100E-020  0.7880585E+02  0.7818608E-02  0.1332475E+00
         -2   -1    0    0    0  501 -0.00000000000E+00  0.00000000000E+00  0.96513096695E+01  0.96513100064E+01  0.25500000000E-02 0.  1.
          1   -1    0    0  501    0  0.00000000000E+00 -0.00000000000E+00 -0.16086836416E+03  0.16086836424E+03  0.50400000000E-02 0. -1.
        -24    2    1    2    0    0  0.00000000000E+00  0.00000000000E+00 -0.15121705449E+03  0.17051967425E+03  0.78805848361E+02 0.  0.
         66    2    3    3    0    0 -0.17421859007E+02  0.21613447995E+02 -0.15228569159E+02  0.31726512987E+02  0.20000005357E+01 0.  0.
         13    1    3    3    0    0  0.17421859007E+02 -0.21613447995E+02 -0.13598848533E+03  0.13879316126E+03  0.10566000000E+00 0. -1.
         13    1    4    4    0    0 -0.71018207144E+00  0.10582290527E+01 -0.75000825122E+00  0.14825261262E+01  0.10566000000E+00 0. -1.
        -13    1    4    4    0    0 -0.14253896014E+01  0.24415882465E+01 -0.19356170868E+01  0.34279536495E+01  0.10566000000E+00 0.  1.
        -14    1    4    4    0    0 -0.15286287334E+02  0.18113630696E+02 -0.12542943821E+02  0.26816033211E+02  0.00000000000E+00 0.  1.
<mgrwt>
<rscale>  0 0.78805848E+02</rscale>
<asrwt>0</asrwt>
<pdfrwt beam="1">  1        1 0.24748977E-01 0.78805848E+02</pdfrwt>
<pdfrwt beam="2">  1       -2 0.14848170E-02 0.78805848E+02</pdfrwt>
<totfact> 0.16649164E+05</totfact>
</mgrwt>
</event>
<event>
 8    1  0.1241100E-020  0.8006116E+02  0.7818608E-02  0.1328878E+00
         -2   -1    0    0    0  501 -0.00000000000E+00  0.00000000000E+00  0.23055077552E+02  0.23055077694E+02  0.25500000000E-02 0.  1.
          1   -1    0    0  501    0  0.00000000000E+00 -0.00000000000E+00 -0.69505173358E+02  0.69505173541E+02  0.50400000000E-02 0. -1.
        -24    2    1    2    0    0  0.00000000000E+00  0.00000000000E+00 -0.46450095805E+02  0.92560251234E+02  0.80061156051E+02 0.  0.
         66    2    3    3    0    0 -0.35029837727E+02  0.89073462680E+01 -0.34157835957E+01  0.36360664580E+02  0.20000005915E+01 0.  0.
         13    1    3    3    0    0  0.35029837727E+02 -0.89073462680E+01 -0.43034312210E+02  0.56199586655E+02  0.10566000000E+00 0. -1.
         13    1    4    4    0    0 -0.34883286198E+01  0.86001492614E+00  0.19646342020E-01  0.35943862129E+01  0.10566000000E+00 0. -1.
        -13    1    4    4    0    0 -0.20130841855E+02  0.56795061130E+01 -0.17295058969E+01  0.20988328617E+02  0.10566000000E+00 0.  1.
         14    1    4    4    0    0 -0.11410667253E+02  0.23678252288E+01 -0.17059240408E+01  0.11777949749E+02  0.00000000000E+00 0. -1.
<mgrwt>
<rscale>  0 0.80061156E+02</rscale>
<asrwt>0</asrwt>
<pdfrwt beam="1">  1        1 0.10693104E-01 0.80061156E+02</pdfrwt>
<pdfrwt beam="2">  1       -2 0.35469350E-02 0.80061156E+02</pdfrwt>
<totfact> 0.13826105E+05</totfact>
</mgrwt>
</event>
<event>
 8    1  0.1241100E-020  0.8077552E+02  0.7818608E-02  0.1326865E+00
         -2   -1    0    0    0  501 -0.00000000000E+00  0.00000000000E+00  0.12121635285E+02  0.12121635554E+02  0.25500000000E-02 0.  1.
          1   -1    0    0  501    0  0.00000000000E+00 -0.00000000000E+00 -0.13456692113E+03  0.13456692122E+03  0.50400000000E-02 0. -1.
        -24    2    1    2    0    0  0.17763568394E-14 -0.35527136788E-14 -0.12244528585E+03  0.14668855678E+03  0.80775520203E+02 0.  0.
         66    2    3    3    0    0  0.14945572646E+02 -0.25791804180E+02 -0.11840139796E+02  0.32136835704E+02  0.19999985206E+01 0.  0.
         13    1    3    3    0    0 -0.14945572646E+02  0.25791804180E+02 -0.11060514605E+03  0.11455172107E+03  0.10566000000E+00 0. -1.
         13    1    4    4    0    0  0.43418404102E+00 -0.87463666708E+00 -0.57818964459E+00  0.11397246955E+01  0.10566000000E+00 0. -1.
        -13    1    4    4    0    0  0.37665070867E+01 -0.60992741359E+01 -0.35137510766E+01  0.79840673396E+01  0.10566000000E+00 0.  1.
        -14    1    4    4    0    0  0.10744881518E+02 -0.18817893377E+02 -0.77481990749E+01  0.23013043669E+02  0.00000000000E+00 0.  1.
<mgrwt>
<rscale>  0 0.80775520E+02</rscale>
<asrwt>0</asrwt>
<pdfrwt beam="1">  1        1 0.20702602E-01 0.80775520E+02</pdfrwt>
<pdfrwt beam="2">  1       -2 0.18648671E-02 0.80775520E+02</pdfrwt>
<totfact> 0.15083578E+05</totfact>
</mgrwt>
</event>
<event>
 8    1  0.1241100E-020  0.8038402E+02  0.7818608E-02  0.1327965E+00
         -2   -1    0    0    0  501 -0.00000000000E+00  0.00000000000E+00  0.13188615729E+02  0.13188615976E+02  0.25500000000E-02 0.  1.
          1   -1    0    0  501    0  0.00000000000E+00 -0.00000000000E+00 -0.12248424689E+03  0.12248424699E+03  0.50400000000E-02 0. -1.
        -24    2    1    2    0    0  0.00000000000E+00 -0.35527136788E-14 -0.10929563116E+03  0.13567286297E+03  0.80384020524E+02 0.  0.
         66    2    3    3    0    0 -0.32699196564E+02 -0.23313832247E+02 -0.53352054686E+02  0.66807289983E+02  0.20000064027E+01 0.  0.
         13    1    3    3    0    0  0.32699196564E+02  0.23313832247E+02 -0.55943576476E+02  0.68865572988E+02  0.10566000000E+00 0. -1.
         13    1    4    4    0    0 -0.22138629340E+01 -0.12761671760E+01 -0.34773793900E+01  0.43166101526E+01  0.10566000000E+00 0.  1.
        -13    1    4    4    0    0 -0.10310820325E+02 -0.69119491651E+01 -0.15451539637E+02  0.19820426288E+02  0.10566000000E+00 0.  1.
        -14    1    4    4    0    0 -0.20174513305E+02 -0.15125715906E+02 -0.34423135659E+02  0.42670253543E+02  0.00000000000E+00 0.  1.
<mgrwt>
<rscale>  0 0.80384021E+02</rscale>
<asrwt>0</asrwt>
<pdfrwt beam="1">  1        1 0.18843730E-01 0.80384021E+02</pdfrwt>
<pdfrwt beam="2">  1       -2 0.20290179E-02 0.80384021E+02</pdfrwt>
<totfact> 0.15026522E+05</totfact>
</mgrwt>
</event>
<event>
 8    1  0.1241100E-020  0.7712540E+02  0.7818608E-02  0.1337413E+00
         -2   -1    0    0    0  501 -0.00000000000E+00  0.00000000000E+00  0.19263654676E+02  0.19263654844E+02  0.25500000000E-02 0.  1.
          1   -1    0    0  501    0  0.00000000000E+00 -0.00000000000E+00 -0.77196246937E+02  0.77196247101E+02  0.50400000000E-02 0. -1.
        -24    2    1    2    0    0 -0.35527136788E-14 -0.44408920985E-15 -0.57932592261E+02  0.96459901946E+02  0.77125400727E+02 0.  0.
         66    2    3    3    0    0 -0.19524208950E+02 -0.33223672624E+01  0.12359801684E+02  0.23430697720E+02  0.20000096572E+01 0.  0.
         13    1    3    3    0    0  0.19524208950E+02  0.33223672624E+01 -0.70292393945E+02  0.73029204226E+02  0.10566000000E+00 0. -1.
         13    1    4    4    0    0 -0.21046518662E+01 -0.14911970432E+00  0.10666769850E+01  0.23665924850E+01  0.10566000000E+00 0. -1.
        -13    1    4    4    0    0 -0.71531745913E+01 -0.73161087443E+00  0.39150067162E+01  0.81878936747E+01  0.10566000000E+00 0.  1.
        -14    1    4    4    0    0 -0.10266382492E+02 -0.24416366836E+01  0.73781179824E+01  0.12876211560E+02  0.00000000000E+00 0.  1.
<mgrwt>
<rscale>  0 0.77125401E+02</rscale>
<asrwt>0</asrwt>
<pdfrwt beam="1">  1        1 0.11876346E-01 0.77125401E+02</pdfrwt>
<pdfrwt beam="2">  1       -2 0.29636392E-02 0.77125401E+02</pdfrwt>
<totfact> 0.15563076E+05</totfact>
</mgrwt>
</event>
<event>
 8    1  0.1241100E-020  0.8387697E+02  0.7818608E-02  0.1318396E+00
          1   -1    0    0  501    0  0.00000000000E+00  0.00000000000E+00  0.45679796350E+01  0.45679824154E+01  0.50400000000E-02 0. -1.
         -2   -1    0    0    0  501 -0.00000000000E+00 -0.00000000000E+00 -0.38503583866E+03  0.38503583867E+03  0.25500000000E-02 0.  1.
        -24    2    1    2    0    0 -0.35527136788E-14 -0.17763568394E-14 -0.38046785903E+03  0.38960382108E+03  0.83876967351E+02 0.  0.
         66    2    3    3    0    0 -0.29074838718E+02  0.13806195767E+02 -0.31505434872E+03  0.31670048932E+03  0.19999997226E+01 0.  0.
         13    1    3    3    0    0  0.29074838718E+02 -0.13806195767E+02 -0.65413510302E+02  0.72903331763E+02  0.10566000000E+00 0. -1.
         13    1    4    4    0    0 -0.47932284376E+01  0.21155757061E+01 -0.53407476301E+02  0.53663958000E+02  0.10566000000E+00 0. -1.
        -13    1    4    4    0    0 -0.30468300957E+01  0.12322663334E+01 -0.27331671238E+02  0.27528768055E+02  0.10566000000E+00 0.  1.
        -14    1    4    4    0    0 -0.21234780185E+02  0.10458353727E+02 -0.23431520118E+03  0.23550776327E+03  0.00000000000E+00 0.  1.
<mgrwt>
<rscale>  0 0.83876967E+02</rscale>
<asrwt>0</asrwt>
<pdfrwt beam="1">  1        1 0.70276662E-03 0.83876967E+02</pdfrwt>
<pdfrwt beam="2">  1       -2 0.59236257E-01 0.83876967E+02</pdfrwt>
<totfact> 0.53600285E+04</totfact>
</mgrwt>
</event>
<event>
 8    1  0.1241100E-020  0.7725340E+02  0.7818608E-02  0.1337032E+00
         -2   -1    0    0    0  501 -0.00000000000E+00  0.00000000000E+00  0.11342700383E+02  0.11342700669E+02  0.25500000000E-02 0.  1.
          1   -1    0    0  501    0  0.00000000000E+00 -0.00000000000E+00 -0.13154026303E+03  0.13154026313E+03  0.50400000000E-02 0. -1.
        -24    2    1    2    0    0 -0.88817841970E-15  0.00000000000E+00 -0.12019756265E+03  0.14288296380E+03  0.77253396539E+02 0.  0.
         66    2    3    3    0    0  0.52599888638E+01 -0.36111649426E+02 -0.36868709168E+02  0.51913586018E+02  0.19999976083E+01 0.  0.
         13    1    3    3    0    0 -0.52599888638E+01  0.36111649426E+02 -0.83328853483E+02  0.90969377781E+02  0.10566000000E+00 0. -1.
         13    1    4    4    0    0  0.28899156205E+01 -0.17935550501E+02 -0.17312763837E+02  0.25095388815E+02  0.10566000000E+00 0.  1.
        -13    1    4    4    0    0  0.50016858429E+00 -0.19879518943E+01 -0.23475108309E+01  0.31183477170E+01  0.10566000000E+00 0. -1.
        -14    1    4    4    0    0  0.18699046589E+01 -0.16188147030E+02 -0.17208434500E+02  0.23699849486E+02  0.00000000000E+00 0.  1.
<mgrwt>
<rscale>  0 0.77253397E+02</rscale>
<asrwt>0</asrwt>
<pdfrwt beam="1">  1        1 0.20236962E-01 0.77253397E+02</pdfrwt>
<pdfrwt beam="2">  1       -2 0.17450310E-02 0.77253397E+02</pdfrwt>
<totfact> 0.16925798E+05</totfact>
</mgrwt>
</event>
<event>
 8    1  0.1241100E-020  0.8035880E+02  0.7818608E-02  0.1328036E+00
          1   -1    0    0  501    0  0.00000000000E+00  0.00000000000E+00  0.62721935531E+01  0.62721955780E+01  0.50400000000E-02 0. -1.
         -2   -1    0    0    0  501 -0.00000000000E+00 -0.00000000000E+00 -0.25738748128E+03  0.25738748129E+03  0.25500000000E-02 0.  1.
        -24    2    1    2    0    0 -0.88817841970E-15  0.00000000000E+00 -0.25111528772E+03  0.26365967687E+03  0.80358804604E+02 0.  0.
         66    2    3    3    0    0  0.73211387471E+01 -0.11957183721E+02 -0.24909118234E+03  0.24949346772E+03  0.19999992782E+01 0.  0.
         13    1    3    3    0    0 -0.73211387471E+01  0.11957183721E+02 -0.20241053815E+01  0.14166209152E+02  0.10566000000E+00 0. -1.
         13    1    4    4    0    0  0.16874356640E+01 -0.25216330424E+01 -0.57327423571E+02  0.57407758444E+02  0.10566000000E+00 0.  1.
        -13    1    4    4    0    0  0.87214234245E+00 -0.27436288019E+01 -0.55376980664E+02  0.55451864556E+02  0.10566000000E+00 0. -1.
         14    1    4    4    0    0  0.47615607406E+01 -0.66919218769E+01 -0.13638677811E+03  0.13663384472E+03  0.00000000000E+00 0. -1.
<mgrwt>
<rscale>  0 0.80358805E+02</rscale>
<asrwt>0</asrwt>
<pdfrwt beam="1">  1        1 0.96495321E-03 0.80358805E+02</pdfrwt>
<pdfrwt beam="2">  1       -2 0.39598066E-01 0.80358805E+02</pdfrwt>
<totfact> 0.75166654E+04</totfact>
</mgrwt>
</event>
<event>
 8    1  0.1241100E-020  0.8199405E+02  0.7818608E-02  0.1323486E+00
         -2   -1    0    0    0  501 -0.00000000000E+00  0.00000000000E+00  0.81406053605E+01  0.81406057599E+01  0.25500000000E-02 0.  1.
          1   -1    0    0  501    0  0.00000000000E+00 -0.00000000000E+00 -0.20646571023E+03  0.20646571029E+03  0.50400000000E-02 0. -1.
        -24    2    1    2    0    0  0.00000000000E+00  0.00000000000E+00 -0.19832510487E+03  0.21460631605E+03  0.81994046537E+02 0.  0.
         66    2    3    3    0    0 -0.37781734028E+02  0.98023175073E+01 -0.13182866366E+03  0.13750033242E+03  0.19999993601E+01 0.  0.
         13    1    3    3    0    0  0.37781734028E+02 -0.98023175073E+01 -0.66496441201E+02  0.77105983627E+02  0.10566000000E+00 0. -1.
         13    1    4    4    0    0 -0.13784541607E+02  0.37052688018E+01 -0.51522029130E+02  0.53462821230E+02  0.10566000000E+00 0. -1.
        -13    1    4    4    0    0 -0.13380968705E+02  0.33741307147E+01 -0.45253119485E+02  0.47310580938E+02  0.10566000000E+00 0.  1.
         14    1    4    4    0    0 -0.10616223716E+02  0.27229179908E+01 -0.35053515050E+02  0.36726930252E+02  0.00000000000E+00 0. -1.
<mgrwt>
<rscale>  0 0.81994047E+02</rscale>
<asrwt>0</asrwt>
<pdfrwt beam="1">  1        1 0.31763952E-01 0.81994047E+02</pdfrwt>
<pdfrwt beam="2">  1       -2 0.12524010E-02 0.81994047E+02</pdfrwt>
<totfact> 0.15714971E+05</totfact>
</mgrwt>
</event>
<event>
 8    1  0.1241100E-020  0.7961555E+02  0.7818608E-02  0.1330146E+00
         -2   -1    0    0    0  501 -0.00000000000E+00  0.00000000000E+00  0.66079484063E+01  0.66079488983E+01  0.25500000000E-02 0.  1.
          1   -1    0    0  501    0  0.00000000000E+00 -0.00000000000E+00 -0.23981100420E+03  0.23981100425E+03  0.50400000000E-02 0. -1.
        -24    2    1    2    0    0  0.71054273576E-14 -0.35527136788E-14 -0.23320305579E+03  0.24641895315E+03  0.79615546475E+02 0.  0.
         66    2    3    3    0    0 -0.32376078433E+02  0.16732400509E+02 -0.67301315007E+02  0.76561417429E+02  0.19999889031E+01 0.  0.
         13    1    3    3    0    0  0.32376078433E+02 -0.16732400509E+02 -0.16590174078E+03  0.16985753572E+03  0.10566000000E+00 0. -1.
         13    1    4    4    0    0 -0.18100995610E+01  0.12940795854E+01 -0.37672012820E+01  0.43765365220E+01  0.10566000000E+00 0. -1.
        -13    1    4    4    0    0 -0.25278395529E+02  0.13231985365E+02 -0.52550212656E+02  0.59796477584E+02  0.10566000000E+00 0.  1.
         14    1    4    4    0    0 -0.52875833427E+01  0.22063355584E+01 -0.10983901069E+02  0.12388403323E+02  0.00000000000E+00 0. -1.
<mgrwt>
<rscale>  0 0.79615546E+02</rscale>
<asrwt>0</asrwt>
<pdfrwt beam="1">  1        1 0.36893994E-01 0.79615546E+02</pdfrwt>
<pdfrwt beam="2">  1       -2 0.10166077E-02 0.79615546E+02</pdfrwt>
<totfact> 0.17496141E+05</totfact>
</mgrwt>
</event>
<event>
 8    1  0.1241100E-020  0.8024399E+02  0.7818608E-02  0.1328360E+00
          1   -1    0    0  501    0  0.00000000000E+00  0.00000000000E+00  0.73347635839E+02  0.73347636012E+02  0.50400000000E-02 0. -1.
         -2   -1    0    0    0  501 -0.00000000000E+00 -0.00000000000E+00 -0.21947188145E+02  0.21947188293E+02  0.25500000000E-02 0.  1.
        -24    2    1    2    0    0  0.13877787808E-16  0.00000000000E+00  0.51400447694E+02  0.95294824306E+02  0.80243987416E+02 0.  0.
         66    2    3    3    0    0 -0.55309279719E-01 -0.24079919986E+02 -0.12358624567E+02  0.27140029425E+02  0.19999976021E+01 0.  0.
         13    1    3    3    0    0  0.55309279719E-01  0.24079919986E+02  0.63759072261E+02  0.68154794880E+02  0.10566000000E+00 0. -1.
         13    1    4    4    0    0  0.11220656515E+00 -0.73856658520E+01 -0.30721987312E+01  0.80006386913E+01  0.10566000000E+00 0. -1.
        -13    1    4    4    0    0  0.63578040834E-01 -0.11872769463E+02 -0.71561360812E+01  0.13863193879E+02  0.10566000000E+00 0.  1.
        -14    1    4    4    0    0 -0.23109388570E+00 -0.48214846707E+01 -0.21302897542E+01  0.52761968548E+01  0.00000000000E+00 0.  1.
<mgrwt>
<rscale>  0 0.80243987E+02</rscale>
<asrwt>0</asrwt>
<pdfrwt beam="1">  1        1 0.11284252E-01 0.80243987E+02</pdfrwt>
<pdfrwt beam="2">  1       -2 0.33764905E-02 0.80243987E+02</pdfrwt>
<totfact> 0.13857995E+05</totfact>
</mgrwt>
</event>
<event>
 8    1  0.1241100E-020  0.8266271E+02  0.7818608E-02  0.1321660E+00
          1   -1    0    0  501    0  0.00000000000E+00  0.00000000000E+00  0.45731561642E+02  0.45731561919E+02  0.50400000000E-02 0. -1.
         -2   -1    0    0    0  501 -0.00000000000E+00 -0.00000000000E+00 -0.37354526778E+02  0.37354526865E+02  0.25500000000E-02 0.  1.
        -24    2    1    2    0    0  0.00000000000E+00  0.00000000000E+00  0.83770348633E+01  0.83086088785E+02  0.82662708862E+02 0.  0.
         66    2    3    3    0    0  0.38122662050E+02  0.22281339412E+01 -0.11636878760E+02  0.39971475889E+02  0.19999987192E+01 0.  0.
         13    1    3    3    0    0 -0.38122662050E+02 -0.22281339412E+01  0.20013913623E+02  0.43114612896E+02  0.10566000000E+00 0. -1.
         13    1    4    4    0    0  0.54507754887E+01  0.68011329960E+00 -0.13025750319E+01  0.56463592941E+01  0.10566000000E+00 0. -1.
        -13    1    4    4    0    0  0.24369778707E+02  0.16727571468E+01 -0.75434238928E+01  0.25565575267E+02  0.10566000000E+00 0.  1.
        -14    1    4    4    0    0  0.83021078541E+01 -0.12473650521E+00 -0.27908798352E+01  0.87595413277E+01  0.00000000000E+00 0.  1.
<mgrwt>
<rscale>  0 0.82662709E+02</rscale>
<asrwt>0</asrwt>
<pdfrwt beam="1">  1        1 0.70356249E-02 0.82662709E+02</pdfrwt>
<pdfrwt beam="2">  1       -2 0.57468503E-02 0.82662709E+02</pdfrwt>
<totfact> 0.11835324E+05</totfact>
</mgrwt>
</event>
<event>
 8    1  0.1241100E-020  0.7974793E+02  0.7818608E-02  0.1329768E+00
         -2   -1    0    0    0  501 -0.00000000000E+00  0.00000000000E+00  0.24451573380E+02  0.24451573513E+02  0.25500000000E-02 0.  1.
          1   -1    0    0  501    0  0.00000000000E+00 -0.00000000000E+00 -0.65023761046E+02  0.65023761241E+02  0.50400000000E-02 0. -1.
        -24    2    1    2    0    0  0.00000000000E+00  0.00000000000E+00 -0.40572187666E+02  0.89475334754E+02  0.79747934879E+02 0.  0.
         66    2    3    3    0    0 -0.37562137438E+00  0.32890603112E+02  0.49393140178E+01  0.33321609909E+02  0.19999998744E+01 0.  0.
         13    1    3    3    0    0  0.37562137438E+00 -0.32890603112E+02 -0.45511501684E+02  0.56153724845E+02  0.10566000000E+00 0. -1.
         13    1    4    4    0    0 -0.45803755424E+00  0.60353444086E+01  0.71072832828E+00  0.60952013358E+01  0.10566000000E+00 0. -1.
        -13    1    4    4    0    0 -0.16204064710E+00  0.13019089621E+02  0.13349392725E+01  0.13088780639E+02  0.10566000000E+00 0.  1.
        -14    1    4    4    0    0  0.24445682696E+00  0.13836169082E+02  0.28936464170E+01  0.14137627934E+02  0.00000000000E+00 0.  1.
<mgrwt>
<rscale>  0 0.79747935E+02</rscale>
<asrwt>0</asrwt>
<pdfrwt beam="1">  1        1 0.10003656E-01 0.79747935E+02</pdfrwt>
<pdfrwt beam="2">  1       -2 0.37617805E-02 0.79747935E+02</pdfrwt>
<totfact> 0.13829587E+05</totfact>
</mgrwt>
</event>
<event>
 8    1  0.1241100E-020  0.8603882E+02  0.7818608E-02  0.1312738E+00
         -2   -1    0    0    0  501 -0.00000000000E+00  0.00000000000E+00  0.51654296976E+01  0.51654303270E+01  0.25500000000E-02 0.  1.
          1   -1    0    0  501    0  0.00000000000E+00 -0.00000000000E+00 -0.35827987052E+03  0.35827987056E+03  0.50400000000E-02 0. -1.
        -24    2    1    2    0    0  0.00000000000E+00 -0.55511151231E-16 -0.35311444082E+03  0.36344530088E+03  0.86038819240E+02 0.  0.
         66    2    3    3    0    0 -0.42880208821E+02  0.12678142329E+00 -0.18996775844E+03  0.19475748413E+03  0.19999996035E+01 0.  0.
         13    1    3    3    0    0  0.42880208821E+02 -0.12678142329E+00 -0.16314668239E+03  0.16868781675E+03  0.10566000000E+00 0. -1.
         13    1    4    4    0    0 -0.10535762819E+02  0.76749701850E+00 -0.45408686189E+02  0.46621360933E+02  0.10566000000E+00 0. -1.
        -13    1    4    4    0    0 -0.23422626646E+02 -0.69361303491E+00 -0.10394762645E+03  0.10655618586E+03  0.10566000000E+00 0.  1.
        -14    1    4    4    0    0 -0.89218193566E+01  0.52897439698E-01 -0.40611445802E+02  0.41579937337E+02  0.00000000000E+00 0.  1.
<mgrwt>
<rscale>  0 0.86038819E+02</rscale>
<asrwt>0</asrwt>
<pdfrwt beam="1">  1        1 0.55119961E-01 0.86038819E+02</pdfrwt>
<pdfrwt beam="2">  1       -2 0.79468182E-03 0.86038819E+02</pdfrwt>
<totfact> 0.15382436E+05</totfact>
</mgrwt>
</event>
<event>
 8    1  0.1241100E-020  0.8020532E+02  0.7818608E-02  0.1328470E+00
         -2   -1    0    0    0  501 -0.00000000000E+00  0.00000000000E+00  0.22067582870E+02  0.22067583017E+02  0.25500000000E-02 0.  1.
          1   -1    0    0  501    0  0.00000000000E+00 -0.00000000000E+00 -0.72877188991E+02  0.72877189165E+02  0.50400000000E-02 0. -1.
        -24    2    1    2    0    0  0.71054273576E-14  0.00000000000E+00 -0.50809606121E+02  0.94944772182E+02  0.80205322084E+02 0.  0.
         66    2    3    3    0    0 -0.27251896691E+02  0.12450680618E+02  0.60894115741E+01  0.30639292635E+02  0.19999996769E+01 0.  0.
         13    1    3    3    0    0  0.27251896691E+02 -0.12450680618E+02 -0.56899017695E+02  0.64305479548E+02  0.10566000000E+00 0. -1.
         13    1    4    4    0    0 -0.56514663770E+01  0.25824072601E+01  0.89847333774E+00  0.62790379710E+01  0.10566000000E+00 0. -1.
        -13    1    4    4    0    0 -0.69389899173E+01  0.27183694780E+01  0.22491987343E+01  0.77851893152E+01  0.10566000000E+00 0.  1.
        -14    1    4    4    0    0 -0.14661440397E+02  0.71499038801E+01  0.29417395021E+01  0.16575065349E+02  0.00000000000E+00 0.  1.
<mgrwt>
<rscale>  0 0.80205322E+02</rscale>
<asrwt>0</asrwt>
<pdfrwt beam="1">  1        1 0.11211875E-01 0.80205322E+02</pdfrwt>
<pdfrwt beam="2">  1       -2 0.33950128E-02 0.80205322E+02</pdfrwt>
<totfact> 0.13862048E+05</totfact>
</mgrwt>
</event>
<event>
 8    1  0.1241100E-020  0.8652627E+02  0.7818608E-02  0.1311489E+00
          1   -1    0    0  501    0  0.00000000000E+00  0.00000000000E+00  0.45588257988E+02  0.45588258267E+02  0.50400000000E-02 0. -1.
         -2   -1    0    0    0  501 -0.00000000000E+00 -0.00000000000E+00 -0.41056600198E+02  0.41056600277E+02  0.25500000000E-02 0.  1.
        -24    2    1    2    0    0 -0.35527136788E-14  0.35527136788E-14  0.45316577897E+01  0.86644858544E+02  0.86526271096E+02 0.  0.
         66    2    3    3    0    0 -0.30351001548E+02  0.16672940930E+02 -0.23662923430E+02  0.41989334492E+02  0.20000028974E+01 0.  0.
         13    1    3    3    0    0  0.30351001548E+02 -0.16672940930E+02  0.28194581220E+02  0.44655524052E+02  0.10566000000E+00 0. -1.
         13    1    4    4    0    0 -0.65426590038E+01  0.37578683683E+01 -0.55429789152E+01  0.93628916902E+01  0.10566000000E+00 0.  1.
        -13    1    4    4    0    0 -0.28100875630E+01  0.21190383878E+01 -0.23493672718E+01  0.42329193725E+01  0.10566000000E+00 0.  1.
        -14    1    4    4    0    0 -0.20998254981E+02  0.10796034174E+02 -0.15770577243E+02  0.28393523429E+02  0.00000000000E+00 0.  1.
<mgrwt>
<rscale>  0 0.86526271E+02</rscale>
<asrwt>0</asrwt>
<pdfrwt beam="1">  1        1 0.70135782E-02 0.86526271E+02</pdfrwt>
<pdfrwt beam="2">  1       -2 0.63164001E-02 0.86526271E+02</pdfrwt>
<totfact> 0.10397461E+05</totfact>
</mgrwt>
</event>
<event>
 8    1  0.1241100E-020  0.7859457E+02  0.7818608E-02  0.1333088E+00
         -2   -1    0    0    0  501 -0.00000000000E+00  0.00000000000E+00  0.52717988701E+01  0.52717994869E+01  0.25500000000E-02 0.  1.
          1   -1    0    0  501    0  0.00000000000E+00 -0.00000000000E+00 -0.29293161967E+03  0.29293161971E+03  0.50400000000E-02 0. -1.
        -24    2    1    2    0    0  0.00000000000E+00  0.00000000000E+00 -0.28765982080E+03  0.29820341920E+03  0.78594571823E+02 0.  0.
         66    2    3    3    0    0  0.19280257699E+02 -0.29920136542E+02 -0.80965514063E+02  0.88466702078E+02  0.20000003804E+01 0.  0.
         13    1    3    3    0    0 -0.19280257699E+02  0.29920136542E+02 -0.20669430673E+03  0.20973671712E+03  0.10566000000E+00 0. -1.
         13    1    4    4    0    0  0.73512502416E+01 -0.11785514269E+02 -0.33476964972E+02  0.36244414389E+02  0.10566000000E+00 0. -1.
        -13    1    4    4    0    0  0.97242348551E+01 -0.15025635785E+02 -0.39895380915E+02  0.43726228475E+02  0.10566000000E+00 0.  1.
         14    1    4    4    0    0  0.22047726018E+01 -0.31089864881E+01 -0.75931681764E+01  0.84960592137E+01  0.00000000000E+00 0. -1.
<mgrwt>
<rscale>  0 0.78594572E+02</rscale>
<asrwt>0</asrwt>
<pdfrwt beam="1">  1        1 0.45066390E-01 0.78594572E+02</pdfrwt>
<pdfrwt beam="2">  1       -2 0.81104626E-03 0.78594572E+02</pdfrwt>
<totfact> 0.18818236E+05</totfact>
</mgrwt>
</event>
<event>
 8    1  0.1241100E-020  0.7854729E+02  0.7818608E-02  0.1333225E+00
         -2   -1    0    0    0  501 -0.00000000000E+00  0.00000000000E+00  0.10469481591E+02  0.10469481901E+02  0.25500000000E-02 0.  1.
          1   -1    0    0  501    0  0.00000000000E+00 -0.00000000000E+00 -0.14732524851E+03  0.14732524860E+03  0.50400000000E-02 0. -1.
        -24    2    1    2    0    0  0.00000000000E+00  0.00000000000E+00 -0.13685576692E+03  0.15779473050E+03  0.78547285336E+02 0.  0.
         66    2    3    3    0    0 -0.10269087157E+02  0.34937646094E+02 -0.39062228046E+02  0.53441097714E+02  0.19999998447E+01 0.  0.
         13    1    3    3    0    0  0.10269087157E+02 -0.34937646094E+02 -0.97793538872E+02  0.10435363278E+03  0.10566000000E+00 0. -1.
         13    1    4    4    0    0 -0.14723017852E+01  0.73036998228E+01 -0.78564351534E+01  0.10828039573E+02  0.10566000000E+00 0. -1.
        -13    1    4    4    0    0 -0.35428576638E+01  0.10545159783E+02 -0.12647622552E+02  0.16844160874E+02  0.10566000000E+00 0.  1.
        -14    1    4    4    0    0 -0.52539277084E+01  0.17088786487E+02 -0.18558170340E+02  0.25768897267E+02  0.00000000000E+00 0.  1.
<mgrwt>
<rscale>  0 0.78547285E+02</rscale>
<asrwt>0</asrwt>
<pdfrwt beam="1">  1        1 0.22665421E-01 0.78547285E+02</pdfrwt>
<pdfrwt beam="2">  1       -2 0.16106896E-02 0.78547285E+02</pdfrwt>
<totfact> 0.16525432E+05</totfact>
</mgrwt>
</event>
<event>
 8    1  0.1241100E-020  0.7986254E+02  0.7818608E-02  0.1329442E+00
         -2   -1    0    0    0  501 -0.00000000000E+00  0.00000000000E+00  0.40130909311E+03  0.40130909311E+03  0.25500000000E-02 0.  1.
          1   -1    0    0  501    0  0.00000000000E+00 -0.00000000000E+00 -0.39732609577E+01  0.39732641542E+01  0.50400000000E-02 0. -1.
        -24    2    1    2    0    0  0.00000000000E+00 -0.35527136788E-14  0.39733583215E+03  0.40528235727E+03  0.79862541933E+02 0.  0.
         66    2    3    3    0    0  0.77431023203E+01 -0.30703370983E+02  0.32204159559E+03  0.32360074462E+03  0.19999999302E+01 0.  0.
         13    1    3    3    0    0 -0.77431023203E+01  0.30703370983E+02  0.75294236555E+02  0.81681612654E+02  0.10566000000E+00 0. -1.
         13    1    4    4    0    0  0.28303464986E+01 -0.11547521357E+02  0.12680296722E+03  0.12735917623E+03  0.10566000000E+00 0.  1.
        -13    1    4    4    0    0  0.37460210949E+01 -0.13732965257E+02  0.14542616498E+03  0.14612120871E+03  0.10566000000E+00 0. -1.
         14    1    4    4    0    0  0.11667347267E+01 -0.54228843684E+01  0.49812463393E+02  0.50120359677E+02  0.00000000000E+00 0. -1.
<mgrwt>
<rscale>  0 0.79862542E+02</rscale>
<asrwt>0</asrwt>
<pdfrwt beam="1">  1        1 0.61127117E-03 0.79862542E+02</pdfrwt>
<pdfrwt beam="2">  1       -2 0.61739860E-01 0.79862542E+02</pdfrwt>
<totfact> 0.59228113E+04</totfact>
</mgrwt>
</event>
<event>
 8    1  0.1241100E-020  0.8080876E+02  0.7818608E-02  0.1326772E+00
          1   -1    0    0  501    0  0.00000000000E+00  0.00000000000E+00  0.11547841112E+02  0.11547842212E+02  0.50400000000E-02 0. -1.
         -2   -1    0    0    0  501 -0.00000000000E+00 -0.00000000000E+00 -0.14136962826E+03  0.14136962828E+03  0.25500000000E-02 0.  1.
        -24    2    1    2    0    0 -0.35527136788E-14  0.00000000000E+00 -0.12982178715E+03  0.15291747049E+03  0.80808764154E+02 0.  0.
         66    2    3    3    0    0 -0.29887473380E+02 -0.21793186553E+02 -0.34302554686E+02  0.50486327870E+02  0.19999996654E+01 0.  0.
         13    1    3    3    0    0  0.29887473380E+02  0.21793186553E+02 -0.95519232460E+02  0.10243114262E+03  0.10566000000E+00 0. -1.
         13    1    4    4    0    0 -0.22576942013E+02 -0.16212236073E+02 -0.25035055973E+02  0.37407487228E+02  0.10566000000E+00 0. -1.
        -13    1    4    4    0    0 -0.62337783226E+01 -0.46818869027E+01 -0.82083500220E+01  0.11321140899E+02  0.10566000000E+00 0.  1.
         14    1    4    4    0    0 -0.10767530445E+01 -0.89906357705E+00 -0.10591486914E+01  0.17576997425E+01  0.00000000000E+00 0. -1.
<mgrwt>
<rscale>  0 0.80808764E+02</rscale>
<asrwt>0</asrwt>
<pdfrwt beam="1">  1        1 0.17765911E-02 0.80808764E+02</pdfrwt>
<pdfrwt beam="2">  1       -2 0.21749172E-01 0.80808764E+02</pdfrwt>
<totfact> 0.93869022E+04</totfact>
</mgrwt>
</event>
<event>
 8    1  0.1241100E-020  0.8146658E+02  0.7818608E-02  0.1324940E+00
          1   -1    0    0  501    0  0.00000000000E+00  0.00000000000E+00  0.12646171317E+03  0.12646171327E+03  0.50400000000E-02 0. -1.
         -2   -1    0    0    0  501 -0.00000000000E+00 -0.00000000000E+00 -0.13120184455E+02  0.13120184703E+02  0.25500000000E-02 0.  1.
        -24    2    1    2    0    0 -0.17763568394E-14 -0.35527136788E-14  0.11334152872E+03  0.13958189798E+03  0.81466582784E+02 0.  0.
         66    2    3    3    0    0 -0.88187647016E+01  0.29957947659E+02  0.11961850229E+02  0.33501270087E+02  0.19999994360E+01 0.  0.
         13    1    3    3    0    0  0.88187647016E+01 -0.29957947659E+02  0.10137967849E+03  0.10608062789E+03  0.10566000000E+00 0. -1.
         13    1    4    4    0    0 -0.40607656721E+01  0.10703908329E+02  0.41997441695E+01  0.12194772916E+02  0.10566000000E+00 0. -1.
        -13    1    4    4    0    0 -0.11284366076E+01  0.52406569214E+01  0.23044813744E+01  0.58360648202E+01  0.10566000000E+00 0.  1.
        -14    1    4    4    0    0 -0.36295624219E+01  0.14013382409E+02  0.54576246851E+01  0.15470432351E+02  0.00000000000E+00 0.  1.
<mgrwt>
<rscale>  0 0.81466583E+02</rscale>
<asrwt>0</asrwt>
<pdfrwt beam="1">  1        1 0.19455648E-01 0.81466583E+02</pdfrwt>
<pdfrwt beam="2">  1       -2 0.20184899E-02 0.81466583E+02</pdfrwt>
<totfact> 0.14578349E+05</totfact>
</mgrwt>
</event>
<event>
 8    1  0.1241100E-020  0.7880239E+02  0.7818608E-02  0.1332485E+00
          1   -1    0    0  501    0  0.00000000000E+00  0.00000000000E+00  0.80956171494E+02  0.80956171651E+02  0.50400000000E-02 0. -1.
         -2   -1    0    0    0  501 -0.00000000000E+00 -0.00000000000E+00 -0.19176476354E+02  0.19176476523E+02  0.25500000000E-02 0.  1.
        -24    2    1    2    0    0 -0.35527136788E-14  0.00000000000E+00  0.61779695140E+02  0.10013264817E+03  0.78802388916E+02 0.  0.
         66    2    3    3    0    0  0.28526299680E+02 -0.19597327491E+02  0.54771571020E+02  0.64820752361E+02  0.19999816292E+01 0.  0.
         13    1    3    3    0    0 -0.28526299680E+02  0.19597327491E+02  0.70081241205E+01  0.35311895813E+02  0.10566000000E+00 0. -1.
         13    1    4    4    0    0  0.52081068354E+01 -0.41257716288E+01  0.10631536098E+02  0.12537427654E+02  0.10566000000E+00 0. -1.
        -13    1    4    4    0    0  0.18126740038E+02 -0.12655782516E+02  0.34327923942E+02  0.40830932658E+02  0.10566000000E+00 0.  1.
        -14    1    4    4    0    0  0.51914528064E+01 -0.28157733454E+01  0.98121109798E+01  0.11452392049E+02  0.00000000000E+00 0.  1.
<mgrwt>
<rscale>  0 0.78802389E+02</rscale>
<asrwt>0</asrwt>
<pdfrwt beam="1">  1        1 0.12454796E-01 0.78802389E+02</pdfrwt>
<pdfrwt beam="2">  1       -2 0.29502272E-02 0.78802389E+02</pdfrwt>
<totfact> 0.14791066E+05</totfact>
</mgrwt>
</event>
<event>
 8    1  0.1241100E-020  0.7866797E+02  0.7818608E-02  0.1332875E+00
         -2   -1    0    0    0  501 -0.00000000000E+00  0.00000000000E+00  0.47788351077E+03  0.47788351078E+03  0.25500000000E-02 0.  1.
          1   -1    0    0  501    0  0.00000000000E+00 -0.00000000000E+00 -0.32375281103E+01  0.32375320333E+01  0.50400000000E-02 0. -1.
        -24    2    1    2    0    0  0.00000000000E+00  0.00000000000E+00  0.47464598266E+03  0.48112104281E+03  0.78667966668E+02 0.  0.
         66    2    3    3    0    0  0.44406247866E+01 -0.20081222406E+02  0.44235059625E+03  0.44283295342E+03  0.19999976427E+01 0.  0.
         13    1    3    3    0    0 -0.44406247866E+01  0.20081222406E+02  0.32295386418E+02  0.38288089398E+02  0.10566000000E+00 0. -1.
         13    1    4    4    0    0  0.24962623883E+01 -0.84839196210E+01  0.20552081700E+03  0.20571102450E+03  0.10566000000E+00 0. -1.
        -13    1    4    4    0    0  0.10131329438E+01 -0.48590103676E+01  0.99352846263E+02  0.99476809582E+02  0.10566000000E+00 0.  1.
         14    1    4    4    0    0  0.93122945449E+00 -0.67382924174E+01  0.13747693299E+03  0.13764511933E+03  0.00000000000E+00 0. -1.
<mgrwt>
<rscale>  0 0.78667967E+02</rscale>
<asrwt>0</asrwt>
<pdfrwt beam="1">  1        1 0.49808176E-03 0.78667967E+02</pdfrwt>
<pdfrwt beam="2">  1       -2 0.73520509E-01 0.78667967E+02</pdfrwt>
<totfact> 0.54451508E+04</totfact>
</mgrwt>
</event>
<event>
 8    1  0.1241100E-020  0.7915133E+02  0.7818608E-02  0.1331477E+00
         -2   -1    0    0    0  501 -0.00000000000E+00  0.00000000000E+00  0.11682749489E+03  0.11682749492E+03  0.25500000000E-02 0.  1.
          1   -1    0    0  501    0  0.00000000000E+00 -0.00000000000E+00 -0.13406373327E+02  0.13406374274E+02  0.50400000000E-02 0. -1.
        -24    2    1    2    0    0  0.11102230246E-15  0.00000000000E+00  0.10342112157E+03  0.13023386919E+03  0.79151325318E+02 0.  0.
         66    2    3    3    0    0  0.83312206498E+00  0.26935911549E+02  0.99374007800E+02  0.10298267257E+03  0.20000002725E+01 0.  0.
         13    1    3    3    0    0 -0.83312206498E+00 -0.26935911549E+02  0.40471137661E+01  0.27251196620E+02  0.10566000000E+00 0. -1.
         13    1    4    4    0    0  0.31931167841E-01  0.70124917670E+01  0.24364708606E+02  0.25354018417E+02  0.10566000000E+00 0. -1.
        -13    1    4    4    0    0  0.30553272374E+00  0.14944100733E+01  0.46944755213E+01  0.49371931468E+01  0.10566000000E+00 0.  1.
        -14    1    4    4    0    0  0.49565817340E+00  0.18429009709E+02  0.70314823672E+02  0.72691461011E+02  0.00000000000E+00 0.  1.
<mgrwt>
<rscale>  0 0.79151325E+02</rscale>
<asrwt>0</asrwt>
<pdfrwt beam="1">  1        1 0.20625190E-02 0.79151325E+02</pdfrwt>
<pdfrwt beam="2">  1       -2 0.17973461E-01 0.79151325E+02</pdfrwt>
<totfact> 0.10472691E+05</totfact>
</mgrwt>
</event>
<event>
 8    1  0.1241100E-020  0.7873414E+02  0.7818608E-02  0.1332683E+00
          1   -1    0    0  501    0  0.00000000000E+00  0.00000000000E+00  0.37715708464E+02  0.37715708801E+02  0.50400000000E-02 0. -1.
         -2   -1    0    0    0  501 -0.00000000000E+00 -0.00000000000E+00 -0.41090730311E+02  0.41090730390E+02  0.25500000000E-02 0.  1.
        -24    2    1    2    0    0 -0.17763568394E-14  0.00000000000E+00 -0.33750218467E+01  0.78806439191E+02  0.78734135453E+02 0.  0.
         66    2    3    3    0    0  0.15303414900E+02  0.36175611385E+02  0.52516132002E+00  0.39333765612E+02  0.19999890363E+01 0.  0.
         13    1    3    3    0    0 -0.15303414900E+02 -0.36175611385E+02 -0.39001831667E+01  0.39472673579E+02  0.10566000000E+00 0. -1.
         13    1    4    4    0    0  0.27257731014E+01  0.79876332741E+01  0.50913721836E+00  0.84559156255E+01  0.10566000000E+00 0. -1.
        -13    1    4    4    0    0  0.11386713293E+02  0.25441968970E+02  0.25476212490E+00  0.27875205694E+02  0.10566000000E+00 0.  1.
         14    1    4    4    0    0  0.11909285061E+01  0.27460091405E+01 -0.23873802324E+00  0.30026442929E+01  0.00000000000E+00 0. -1.
<mgrwt>
<rscale>  0 0.78734135E+02</rscale>
<asrwt>0</asrwt>
<pdfrwt beam="1">  1        1 0.58024167E-02 0.78734135E+02</pdfrwt>
<pdfrwt beam="2">  1       -2 0.63216509E-02 0.78734135E+02</pdfrwt>
<totfact> 0.13155333E+05</totfact>
</mgrwt>
</event>
<event>
 8    1  0.1241100E-020  0.8401071E+02  0.7818608E-02  0.1318040E+00
         -2   -1    0    0    0  501 -0.00000000000E+00  0.00000000000E+00  0.14179127260E+03  0.14179127262E+03  0.25500000000E-02 0.  1.
          1   -1    0    0  501    0  0.00000000000E+00 -0.00000000000E+00 -0.12443993248E+02  0.12443994269E+02  0.50400000000E-02 0. -1.
        -24    2    1    2    0    0  0.00000000000E+00  0.17763568394E-14  0.12934727935E+03  0.15423526689E+03  0.84010706922E+02 0.  0.
         66    2    3    3    0    0 -0.26771085939E+02  0.14019251938E+02  0.11821067158E+03  0.12202865788E+03  0.20000002944E+01 0.  0.
         13    1    3    3    0    0  0.26771085939E+02 -0.14019251938E+02  0.11136607768E+02  0.32206609009E+02  0.10566000000E+00 0. -1.
         13    1    4    4    0    0 -0.74194112220E+01  0.43554182403E+01  0.31741818904E+02  0.32887255318E+02  0.10566000000E+00 0. -1.
        -13    1    4    4    0    0 -0.18666434779E+01  0.10941544008E+01  0.10038946729E+02  0.10270012035E+02  0.10566000000E+00 0.  1.
        -14    1    4    4    0    0 -0.17485031239E+02  0.85696792967E+01  0.76429905947E+02  0.78871390528E+02  0.00000000000E+00 0.  1.
<mgrwt>
<rscale>  0 0.84010707E+02</rscale>
<asrwt>0</asrwt>
<pdfrwt beam="1">  1        1 0.19144606E-02 0.84010707E+02</pdfrwt>
<pdfrwt beam="2">  1       -2 0.21814042E-01 0.84010707E+02</pdfrwt>
<totfact> 0.84848401E+04</totfact>
</mgrwt>
</event>
<event>
 8    1  0.1241100E-020  0.7875987E+02  0.7818608E-02  0.1332608E+00
          1   -1    0    0  501    0  0.00000000000E+00  0.00000000000E+00  0.54613782809E+01  0.54613806065E+01  0.50400000000E-02 0. -1.
         -2   -1    0    0    0  501 -0.00000000000E+00 -0.00000000000E+00 -0.28395375645E+03  0.28395375646E+03  0.25500000000E-02 0.  1.
        -24    2    1    2    0    0  0.00000000000E+00  0.00000000000E+00 -0.27849237817E+03  0.28941513707E+03  0.78759868370E+02 0.  0.
         66    2    3    3    0    0 -0.78525843936E+01 -0.17457664356E+02 -0.26568934206E+03  0.26638554688E+03  0.19999940928E+01 0.  0.
         13    1    3    3    0    0  0.78525843936E+01  0.17457664356E+02 -0.12803036103E+02  0.23029590181E+02  0.10566000000E+00 0. -1.
         13    1    4    4    0    0 -0.96656183926E+00 -0.12044196057E+01 -0.21775513645E+02  0.21830460987E+02  0.10566000000E+00 0. -1.
        -13    1    4    4    0    0 -0.35290657091E+01 -0.86763694899E+01 -0.12078214294E+03  0.12114483443E+03  0.10566000000E+00 0.  1.
         14    1    4    4    0    0 -0.33569568452E+01 -0.75768752599E+01 -0.12313168548E+03  0.12341025147E+03  0.00000000000E+00 0. -1.
<mgrwt>
<rscale>  0 0.78759868E+02</rscale>
<asrwt>0</asrwt>
<pdfrwt beam="1">  1        1 0.84021245E-03 0.78759868E+02</pdfrwt>
<pdfrwt beam="2">  1       -2 0.43685182E-01 0.78759868E+02</pdfrwt>
<totfact> 0.75339011E+04</totfact>
</mgrwt>
</event>
<event>
 8    1  0.1241100E-020  0.7453155E+02  0.7818608E-02  0.1345328E+00
          1   -1    0    0  501    0  0.00000000000E+00  0.00000000000E+00  0.12426712220E+03  0.12426712230E+03  0.50400000000E-02 0. -1.
         -2   -1    0    0    0  501 -0.00000000000E+00 -0.00000000000E+00 -0.11175425452E+02  0.11175425743E+02  0.25500000000E-02 0.  1.
        -24    2    1    2    0    0  0.00000000000E+00 -0.71054273576E-14  0.11309169675E+03  0.13544254804E+03  0.74531550014E+02 0.  0.
         66    2    3    3    0    0  0.15177109323E+02 -0.30568703537E+02  0.29513504969E+02  0.45164557436E+02  0.19999973822E+01 0.  0.
         13    1    3    3    0    0 -0.15177109323E+02  0.30568703537E+02  0.83578191777E+02  0.90277990607E+02  0.10566000000E+00 0. -1.
         13    1    4    4    0    0  0.42795021799E+01 -0.84843077684E+01  0.72673747667E+01  0.11963424144E+02  0.10566000000E+00 0. -1.
        -13    1    4    4    0    0  0.71681868964E+01 -0.13497172727E+02  0.13652418940E+02  0.20492834893E+02  0.10566000000E+00 0.  1.
         14    1    4    4    0    0  0.37294202465E+01 -0.85872230411E+01  0.85937112624E+01  0.12708298399E+02  0.00000000000E+00 0. -1.
<mgrwt>
<rscale>  0 0.74531550E+02</rscale>
<asrwt>0</asrwt>
<pdfrwt beam="1">  1        1 0.19118019E-01 0.74531550E+02</pdfrwt>
<pdfrwt beam="2">  1       -2 0.17192962E-02 0.74531550E+02</pdfrwt>
<totfact> 0.18438850E+05</totfact>
</mgrwt>
</event>
<event>
 8    1  0.1241100E-020  0.7849990E+02  0.7818608E-02  0.1333363E+00
          1   -1    0    0  501    0  0.00000000000E+00  0.00000000000E+00  0.50306689316E+02  0.50306689568E+02  0.50400000000E-02 0. -1.
         -2   -1    0    0    0  501 -0.00000000000E+00 -0.00000000000E+00 -0.30623331410E+02  0.30623331516E+02  0.25500000000E-02 0.  1.
        -24    2    1    2    0    0 -0.44408920985E-15  0.00000000000E+00  0.19683357906E+02  0.80930021084E+02  0.78499896396E+02 0.  0.
         66    2    3    3    0    0  0.36525411121E+01 -0.37559379584E+02  0.20880034197E+02  0.43174342710E+02  0.19999972807E+01 0.  0.
         13    1    3    3    0    0 -0.36525411121E+01  0.37559379584E+02 -0.11966762907E+01  0.37755678374E+02  0.10566000000E+00 0. -1.
         13    1    4    4    0    0  0.22060599239E+01 -0.25915023716E+02  0.14988499055E+02  0.30018684557E+02  0.10566000000E+00 0. -1.
        -13    1    4    4    0    0  0.22133714066E+00 -0.31213036881E+01  0.12272840517E+01  0.33628733283E+01  0.10566000000E+00 0.  1.
        -14    1    4    4    0    0  0.12251440476E+01 -0.85230521791E+01  0.46642510902E+01  0.97927848244E+01  0.00000000000E+00 0.  1.
<mgrwt>
<rscale>  0 0.78499896E+02</rscale>
<asrwt>0</asrwt>
<pdfrwt beam="1">  1        1 0.77394907E-02 0.78499896E+02</pdfrwt>
<pdfrwt beam="2">  1       -2 0.47112818E-02 0.78499896E+02</pdfrwt>
<totfact> 0.13880384E+05</totfact>
</mgrwt>
</event>
<event>
 8    1  0.1241100E-020  0.8014741E+02  0.7818608E-02  0.1328634E+00
         -2   -1    0    0    0  501 -0.00000000000E+00  0.00000000000E+00  0.13754180987E+02  0.13754181223E+02  0.25500000000E-02 0.  1.
          1   -1    0    0  501    0  0.00000000000E+00 -0.00000000000E+00 -0.11675735284E+03  0.11675735295E+03  0.50400000000E-02 0. -1.
        -24    2    1    2    0    0  0.00000000000E+00  0.00000000000E+00 -0.10300317185E+03  0.13051153417E+03  0.80147408817E+02 0.  0.
         66    2    3    3    0    0  0.94597110909E+01 -0.20873897825E+02  0.19484719054E+01  0.23086842244E+02  0.19999994188E+01 0.  0.
         13    1    3    3    0    0 -0.94597110909E+01  0.20873897825E+02 -0.10495164375E+03  0.10742469193E+03  0.10566000000E+00 0. -1.
         13    1    4    4    0    0  0.33117778601E+01 -0.80826937859E+01  0.33691197899E+00  0.87419954901E+01  0.10566000000E+00 0. -1.
        -13    1    4    4    0    0  0.45474659837E+01 -0.81937175947E+01  0.75539065338E+00  0.94020335018E+01  0.10566000000E+00 0.  1.
         14    1    4    4    0    0  0.16004672471E+01 -0.45974864445E+01  0.85616927306E+00  0.49428132517E+01  0.00000000000E+00 0. -1.
<mgrwt>
<rscale>  0 0.80147409E+02</rscale>
<asrwt>0</asrwt>
<pdfrwt beam="1">  1        1 0.17962669E-01 0.80147409E+02</pdfrwt>
<pdfrwt beam="2">  1       -2 0.21160279E-02 0.80147409E+02</pdfrwt>
<totfact> 0.15019430E+05</totfact>
</mgrwt>
</event>
<event>
 8    1  0.1241100E-020  0.7974004E+02  0.7818608E-02  0.1329791E+00
         -2   -1    0    0    0  501 -0.00000000000E+00  0.00000000000E+00  0.74308184340E+02  0.74308184384E+02  0.25500000000E-02 0.  1.
          1   -1    0    0  501    0  0.00000000000E+00 -0.00000000000E+00 -0.21392237971E+02  0.21392238565E+02  0.50400000000E-02 0. -1.
        -24    2    1    2    0    0 -0.35527136788E-14 -0.88817841970E-15  0.52915946369E+02  0.95700422949E+02  0.79740037449E+02 0.  0.
         66    2    3    3    0    0  0.28631288650E+02 -0.65700684723E+01 -0.58338429557E+01  0.30015832676E+02  0.19999995361E+01 0.  0.
         13    1    3    3    0    0 -0.28631288650E+02  0.65700684723E+01  0.58749789325E+02  0.65684590272E+02  0.10566000000E+00 0. -1.
         13    1    4    4    0    0  0.54903919084E+00 -0.13596937390E+00 -0.25828856047E+00  0.63072079384E+00  0.10566000000E+00 0. -1.
        -13    1    4    4    0    0  0.10711862073E+02 -0.20070232223E+01 -0.14945458040E+01  0.11000770995E+02  0.10566000000E+00 0.  1.
        -14    1    4    4    0    0  0.17370387386E+02 -0.44270758761E+01 -0.40810085912E+01  0.18384340888E+02  0.00000000000E+00 0.  1.
<mgrwt>
<rscale>  0 0.79740037E+02</rscale>
<asrwt>0</asrwt>
<pdfrwt beam="1">  1        1 0.32911137E-02 0.79740037E+02</pdfrwt>
<pdfrwt beam="2">  1       -2 0.11432028E-01 0.79740037E+02</pdfrwt>
<totfact> 0.11446307E+05</totfact>
</mgrwt>
</event>
<event>
 8    1  0.1241100E-020  0.7898747E+02  0.7818608E-02  0.1331950E+00
          1   -1    0    0  501    0  0.00000000000E+00  0.00000000000E+00  0.48996006832E+02  0.48996007091E+02  0.50400000000E-02 0. -1.
         -2   -1    0    0    0  501 -0.00000000000E+00 -0.00000000000E+00 -0.31834333777E+02  0.31834333879E+02  0.25500000000E-02 0.  1.
        -24    2    1    2    0    0  0.00000000000E+00 -0.17763568394E-14  0.17161673056E+02  0.80830340970E+02  0.78987473686E+02 0.  0.
         66    2    3    3    0    0  0.61936466750E+01 -0.13609175116E+02 -0.28792300775E+02  0.32504884104E+02  0.20000000575E+01 0.  0.
         13    1    3    3    0    0 -0.61936466750E+01  0.13609175116E+02  0.45953973831E+02  0.48325456866E+02  0.10566000000E+00 0. -1.
         13    1    4    4    0    0  0.30515149989E+01 -0.88609182414E+01 -0.17896586048E+02  0.20202142759E+02  0.10566000000E+00 0. -1.
        -13    1    4    4    0    0  0.21652933559E+01 -0.30703470315E+01 -0.67814272479E+01  0.77533506153E+01  0.10566000000E+00 0.  1.
         14    1    4    4    0    0  0.97683832008E+00 -0.16779098427E+01 -0.41142874796E+01  0.45493907294E+01  0.00000000000E+00 0. -1.
<mgrwt>
<rscale>  0 0.78987474E+02</rscale>
<asrwt>0</asrwt>
<pdfrwt beam="1">  1        1 0.75378472E-02 0.78987474E+02</pdfrwt>
<pdfrwt beam="2">  1       -2 0.48975898E-02 0.78987474E+02</pdfrwt>
<totfact> 0.13588172E+05</totfact>
</mgrwt>
</event>
<event>
 8    1  0.1241100E-020  0.7461328E+02  0.7818608E-02  0.1345073E+00
          1   -1    0    0  501    0  0.00000000000E+00  0.00000000000E+00  0.14549464590E+03  0.14549464599E+03  0.50400000000E-02 0. -1.
         -2   -1    0    0    0  501 -0.00000000000E+00 -0.00000000000E+00 -0.95658870395E+01  0.95658873794E+01  0.25500000000E-02 0.  1.
        -24    2    1    2    0    0  0.00000000000E+00  0.00000000000E+00  0.13592875886E+03  0.15506053337E+03  0.74613279801E+02 0.  0.
         66    2    3    3    0    0  0.24402961761E+02 -0.76015242798E+01  0.11614336627E+02  0.28145701872E+02  0.20000011218E+01 0.  0.
         13    1    3    3    0    0 -0.24402961761E+02  0.76015242798E+01  0.12431442224E+03  0.12691483150E+03  0.10566000000E+00 0. -1.
         13    1    4    4    0    0  0.46190727861E+01 -0.21254014986E+01  0.19966062723E+01  0.54635854139E+01  0.10566000000E+00 0. -1.
        -13    1    4    4    0    0  0.14372281399E+02 -0.37485420090E+01  0.72379327951E+01  0.16523101252E+02  0.10566000000E+00 0.  1.
        -14    1    4    4    0    0  0.54116075762E+01 -0.17275807722E+01  0.23797975598E+01  0.61590152061E+01  0.00000000000E+00 0.  1.
<mgrwt>
<rscale>  0 0.74613280E+02</rscale>
<asrwt>0</asrwt>
<pdfrwt beam="1">  1        1 0.22383791E-01 0.74613280E+02</pdfrwt>
<pdfrwt beam="2">  1       -2 0.14716750E-02 0.74613280E+02</pdfrwt>
<totfact> 0.18901682E+05</totfact>
</mgrwt>
</event>
<event>
 8    1  0.1241100E-020  0.7906431E+02  0.7818608E-02  0.1331728E+00
          1   -1    0    0  501    0  0.00000000000E+00  0.00000000000E+00  0.18849334028E+03  0.18849334034E+03  0.50400000000E-02 0. -1.
         -2   -1    0    0    0  501 -0.00000000000E+00 -0.00000000000E+00 -0.82909634149E+01  0.82909638070E+01  0.25500000000E-02 0.  1.
        -24    2    1    2    0    0  0.17763568394E-14  0.00000000000E+00  0.18020237686E+03  0.19678430415E+03  0.79064313907E+02 0.  0.
         66    2    3    3    0    0 -0.78195245063E+01 -0.34259105314E+02  0.45223249319E+02  0.57305964267E+02  0.20000003032E+01 0.  0.
         13    1    3    3    0    0  0.78195245063E+01  0.34259105314E+02  0.13497912754E+03  0.13947833988E+03  0.10566000000E+00 0. -1.
         13    1    4    4    0    0 -0.15703708450E+01 -0.47207002631E+01  0.62647609711E+01  0.80005918297E+01  0.10566000000E+00 0. -1.
        -13    1    4    4    0    0 -0.24589025038E+01 -0.90534200591E+01  0.11666402068E+02  0.14970862285E+02  0.10566000000E+00 0.  1.
        -14    1    4    4    0    0 -0.37902511576E+01 -0.20484984992E+02  0.27292086279E+02  0.34334510153E+02  0.00000000000E+00 0.  1.
<mgrwt>
<rscale>  0 0.79064314E+02</rscale>
<asrwt>0</asrwt>
<pdfrwt beam="1">  1        1 0.28998974E-01 0.79064314E+02</pdfrwt>
<pdfrwt beam="2">  1       -2 0.12755329E-02 0.79064314E+02</pdfrwt>
<totfact> 0.17007159E+05</totfact>
</mgrwt>
</event>
<event>
 8    1  0.1241100E-020  0.8062116E+02  0.7818608E-02  0.1327298E+00
         -2   -1    0    0    0  501 -0.00000000000E+00  0.00000000000E+00  0.16318951310E+03  0.16318951312E+03  0.25500000000E-02 0.  1.
          1   -1    0    0  501    0  0.00000000000E+00 -0.00000000000E+00 -0.99573976902E+01  0.99573989657E+01  0.50400000000E-02 0. -1.
        -24    2    1    2    0    0  0.00000000000E+00  0.00000000000E+00  0.15323211541E+03  0.17314691209E+03  0.80621163300E+02 0.  0.
         66    2    3    3    0    0  0.12076435197E+02 -0.10022973238E+02  0.15634788337E+03  0.15714630418E+03  0.20000009484E+01 0.  0.
         13    1    3    3    0    0 -0.12076435197E+02  0.10022973238E+02 -0.31157679531E+01  0.16000607912E+02  0.10566000000E+00 0. -1.
         13    1    4    4    0    0  0.22651316844E+01 -0.12713044638E+01  0.28676835386E+02  0.28794428078E+02  0.10566000000E+00 0. -1.
        -13    1    4    4    0    0  0.28775000256E+01 -0.18749723975E+01  0.33888704249E+02  0.34062456864E+02  0.10566000000E+00 0.  1.
         14    1    4    4    0    0  0.69338034866E+01 -0.68766963764E+01  0.93782343730E+02  0.94289419234E+02  0.00000000000E+00 0. -1.
<mgrwt>
<rscale>  0 0.80621163E+02</rscale>
<asrwt>0</asrwt>
<pdfrwt beam="1">  1        1 0.15319074E-02 0.80621163E+02</pdfrwt>
<pdfrwt beam="2">  1       -2 0.25106079E-01 0.80621163E+02</pdfrwt>
<totfact> 0.90038719E+04</totfact>
</mgrwt>
</event>
<event>
 8    1  0.1241100E-020  0.8053966E+02  0.7818608E-02  0.1327527E+00
         -2   -1    0    0    0  501 -0.00000000000E+00  0.00000000000E+00  0.11361318129E+03  0.11361318131E+03  0.25500000000E-02 0.  1.
          1   -1    0    0  501    0  0.00000000000E+00 -0.00000000000E+00 -0.14273510715E+02  0.14273511605E+02  0.50400000000E-02 0. -1.
        -24    2    1    2    0    0  0.00000000000E+00 -0.35527136788E-14  0.99339670571E+02  0.12788669292E+03  0.80539655306E+02 0.  0.
         66    2    3    3    0    0  0.27486508627E+02 -0.27567711611E+02  0.33494184512E+02  0.51394039166E+02  0.19999964236E+01 0.  0.
         13    1    3    3    0    0 -0.27486508627E+02  0.27567711611E+02  0.65845486059E+02  0.76492653754E+02  0.10566000000E+00 0. -1.
         13    1    4    4    0    0  0.48687380519E+01 -0.52957202672E+01  0.56882958545E+01  0.91715395181E+01  0.10566000000E+00 0. -1.
        -13    1    4    4    0    0  0.17847394541E+02 -0.17541897960E+02  0.21147510210E+02  0.32763944025E+02  0.10566000000E+00 0.  1.
         14    1    4    4    0    0  0.47703760342E+01 -0.47300933835E+01  0.66583784470E+01  0.94585556227E+01  0.00000000000E+00 0. -1.
<mgrwt>
<rscale>  0 0.80539655E+02</rscale>
<asrwt>0</asrwt>
<pdfrwt beam="1">  1        1 0.21959249E-02 0.80539655E+02</pdfrwt>
<pdfrwt beam="2">  1       -2 0.17478951E-01 0.80539655E+02</pdfrwt>
<totfact> 0.10092262E+05</totfact>
</mgrwt>
</event>
<event>
 8    1  0.1241100E-020  0.8091572E+02  0.7818608E-02  0.1326473E+00
         -2   -1    0    0    0  501 -0.00000000000E+00  0.00000000000E+00  0.80009815649E+01  0.80009819712E+01  0.25500000000E-02 0.  1.
          1   -1    0    0  501    0  0.00000000000E+00 -0.00000000000E+00 -0.20457968739E+03  0.20457968745E+03  0.50400000000E-02 0. -1.
        -24    2    1    2    0    0  0.00000000000E+00  0.71054273576E-14 -0.19657870583E+03  0.21258066943E+03  0.80915718057E+02 0.  0.
         66    2    3    3    0    0  0.28804125378E+02  0.22471028821E+02 -0.52829214353E+02  0.64261580168E+02  0.20000053548E+01 0.  0.
         13    1    3    3    0    0 -0.28804125378E+02 -0.22471028821E+02 -0.14374949147E+03  0.14831908926E+03  0.10566000000E+00 0. -1.
         13    1    4    4    0    0  0.33807304836E+00  0.47076510025E+00 -0.86501423109E+00  0.10465786264E+01  0.10566000000E+00 0. -1.
        -13    1    4    4    0    0  0.64916552192E+01  0.55625858580E+01 -0.12852559026E+02  0.15436430496E+02  0.10566000000E+00 0.  1.
        -14    1    4    4    0    0  0.21974397110E+02  0.16437677863E+02 -0.39111641096E+02  0.47778571045E+02  0.00000000000E+00 0.  1.
<mgrwt>
<rscale>  0 0.80915718E+02</rscale>
<asrwt>0</asrwt>
<pdfrwt beam="1">  1        1 0.31473794E-01 0.80915718E+02</pdfrwt>
<pdfrwt beam="2">  1       -2 0.12309204E-02 0.80915718E+02</pdfrwt>
<totfact> 0.16248820E+05</totfact>
</mgrwt>
</event>
<event>
 8    1  0.1296155E-020  0.7688060E+02  0.7818608E-02  0.1338144E+00
         -2   -1    0    0    0  501 -0.00000000000E+00  0.00000000000E+00  0.14424526641E+03  0.14424526644E+03  0.25500000000E-02 0.  1.
          1   -1    0    0  501    0  0.00000000000E+00 -0.00000000000E+00 -0.10244057139E+02  0.10244058378E+02  0.50400000000E-02 0. -1.
        -24    2    1    2    0    0  0.00000000000E+00  0.17763568394E-14  0.13400120927E+03  0.15448932481E+03  0.76880604800E+02 0.  0.
         66    2    3    3    0    0  0.12495439269E+02  0.12822068826E+02  0.13534153420E+03  0.13653524209E+03  0.20000004478E+01 0.  0.
         13    1    3    3    0    0 -0.12495439269E+02 -0.12822068826E+02 -0.13403249249E+01  0.17954082723E+02  0.10566000000E+00 0. -1.
         13    1    4    4    0    0  0.82673487802E+01  0.89119946445E+01  0.91852631010E+02  0.92653600534E+02  0.10566000000E+00 0. -1.
        -13    1    4    4    0    0  0.39584146626E+01  0.38043421785E+01  0.42429296873E+02  0.42783156302E+02  0.10566000000E+00 0.  1.
         14    1    4    4    0    0  0.26967582562E+00  0.10573200319E+00  0.10596063168E+01  0.10984852543E+01  0.00000000000E+00 0. -1.
<mgrwt>
<rscale>  0 0.76880605E+02</rscale>
<asrwt>0</asrwt>
<pdfrwt beam="1">  1        1 0.15760089E-02 0.76880605E+02</pdfrwt>
<pdfrwt beam="2">  1       -2 0.22191579E-01 0.76880605E+02</pdfrwt>
<totfact> 0.10601651E+05</totfact>
</mgrwt>
</event>
<event>
 8    1  0.1241100E-020  0.8409585E+02  0.7818608E-02  0.1317814E+00
         -2   -1    0    0    0  501 -0.00000000000E+00  0.00000000000E+00  0.10212327070E+03  0.10212327074E+03  0.25500000000E-02 0.  1.
          1   -1    0    0  501    0  0.00000000000E+00 -0.00000000000E+00 -0.17312682395E+02  0.17312683128E+02  0.50400000000E-02 0. -1.
        -24    2    1    2    0    0  0.17763568394E-14  0.17763568394E-14  0.84810588310E+02  0.11943595386E+03  0.84095845237E+02 0.  0.
         66    2    3    3    0    0  0.15001686471E+02  0.11641332007E+02  0.95672943354E+02  0.97559639526E+02  0.19999916651E+01 0.  0.
         13    1    3    3    0    0 -0.15001686471E+02 -0.11641332007E+02 -0.10862355044E+02  0.21876314338E+02  0.10566000000E+00 0. -1.
         13    1    4    4    0    0  0.34284514454E+01  0.21870917473E+01  0.18993415894E+02  0.19424177228E+02  0.10566000000E+00 0. -1.
        -13    1    4    4    0    0  0.11040538090E+02  0.91044200193E+01  0.71601405117E+02  0.73017506969E+02  0.10566000000E+00 0.  1.
         14    1    4    4    0    0  0.53269693624E+00  0.34982024091E+00  0.50781223433E+01  0.51179553301E+01  0.00000000000E+00 0. -1.
<mgrwt>
<rscale>  0 0.84095845E+02</rscale>
<asrwt>0</asrwt>
<pdfrwt beam="1">  1        1 0.26634896E-02 0.84095845E+02</pdfrwt>
<pdfrwt beam="2">  1       -2 0.15711273E-01 0.84095845E+02</pdfrwt>
<totfact> 0.92890986E+04</totfact>
</mgrwt>
</event>
<event>
 8    1  0.1241100E-020  0.7907811E+02  0.7818608E-02  0.1331688E+00
          1   -1    0    0  501    0  0.00000000000E+00  0.00000000000E+00  0.79012101216E+01  0.79012117291E+01  0.50400000000E-02 0. -1.
         -2   -1    0    0    0  501 -0.00000000000E+00 -0.00000000000E+00 -0.19786041274E+03  0.19786041276E+03  0.25500000000E-02 0.  1.
        -24    2    1    2    0    0  0.35527136788E-14  0.35527136788E-14 -0.18995920262E+03  0.20576162449E+03  0.79078109813E+02 0.  0.
         66    2    3    3    0    0 -0.31829584600E+02  0.19085396747E+02 -0.59748990707E+02  0.70365593249E+02  0.19999994755E+01 0.  0.
         13    1    3    3    0    0  0.31829584600E+02 -0.19085396747E+02 -0.13021021191E+03  0.13539603124E+03  0.10566000000E+00 0. -1.
         13    1    4    4    0    0 -0.10620640039E+02  0.73845183891E+01 -0.20116801435E+02  0.23917064425E+02  0.10566000000E+00 0. -1.
        -13    1    4    4    0    0 -0.10846242981E+02  0.59505294490E+01 -0.20257391101E+02  0.23736529775E+02  0.10566000000E+00 0.  1.
         14    1    4    4    0    0 -0.10362701580E+02  0.57503489087E+01 -0.19374798172E+02  0.22711999049E+02  0.00000000000E+00 0. -1.
<mgrwt>
<rscale>  0 0.79078110E+02</rscale>
<asrwt>0</asrwt>
<pdfrwt beam="1">  1        1 0.12155711E-02 0.79078110E+02</pdfrwt>
<pdfrwt beam="2">  1       -2 0.30440060E-01 0.79078110E+02</pdfrwt>
<totfact> 0.88038792E+04</totfact>
</mgrwt>
</event>
<event>
 8    1  0.1241100E-020  0.7635065E+02  0.7818608E-02  0.1339739E+00
         -2   -1    0    0    0  501 -0.00000000000E+00  0.00000000000E+00  0.19270420861E+02  0.19270421029E+02  0.25500000000E-02 0.  1.
          1   -1    0    0  501    0  0.00000000000E+00 -0.00000000000E+00 -0.75626542474E+02  0.75626542642E+02  0.50400000000E-02 0. -1.
        -24    2    1    2    0    0  0.00000000000E+00  0.00000000000E+00 -0.56356121613E+02  0.94896963671E+02  0.76350646825E+02 0.  0.
         66    2    3    3    0    0  0.29737163101E+02  0.42077364077E+00  0.14994760964E+01  0.29845005436E+02  0.20000002900E+01 0.  0.
         13    1    3    3    0    0 -0.29737163101E+02 -0.42077364077E+00 -0.57855597710E+02  0.65051958234E+02  0.10566000000E+00 0. -1.
         13    1    4    4    0    0  0.40418300796E+01  0.34458376938E+00  0.49535585115E+00  0.40879909273E+01  0.10566000000E+00 0.  1.
        -13    1    4    4    0    0  0.12676528119E+02  0.71935828432E-01 -0.23519501778E+00  0.12679354110E+02  0.10566000000E+00 0.  1.
         14    1    4    4    0    0  0.13018804903E+02  0.42540429618E-02  0.12393152631E+01  0.13077660399E+02  0.00000000000E+00 0. -1.
<mgrwt>
<rscale>  0 0.76350647E+02</rscale>
<asrwt>0</asrwt>
<pdfrwt beam="1">  1        1 0.11634853E-01 0.76350647E+02</pdfrwt>
<pdfrwt beam="2">  1       -2 0.29646802E-02 0.76350647E+02</pdfrwt>
<totfact> 0.15944046E+05</totfact>
</mgrwt>
</event>
<event>
 8    1  0.1241100E-020  0.7909683E+02  0.7818608E-02  0.1331634E+00
          1   -1    0    0  501    0  0.00000000000E+00  0.00000000000E+00  0.37857828131E+03  0.37857828134E+03  0.50400000000E-02 0. -1.
         -2   -1    0    0    0  501 -0.00000000000E+00 -0.00000000000E+00 -0.41314497183E+01  0.41314505052E+01  0.25500000000E-02 0.  1.
        -24    2    1    2    0    0  0.00000000000E+00  0.71054273576E-14  0.37444683159E+03  0.38270973185E+03  0.79096834087E+02 0.  0.
         66    2    3    3    0    0 -0.33322789019E+02 -0.21251230719E+02  0.18626877985E+03  0.19042605237E+03  0.19999992131E+01 0.  0.
         13    1    3    3    0    0  0.33322789019E+02  0.21251230719E+02  0.18817805174E+03  0.19228367948E+03  0.10566000000E+00 0. -1.
         13    1    4    4    0    0 -0.33150146236E+01 -0.21259830591E+01  0.19508770979E+02  0.19902573579E+02  0.10566000000E+00 0. -1.
        -13    1    4    4    0    0 -0.13051386571E+01 -0.12479594599E+01  0.90747747301E+01  0.92532961784E+01  0.10566000000E+00 0.  1.
        -14    1    4    4    0    0 -0.28702635738E+02 -0.17877288200E+02  0.15768523414E+03  0.16127018261E+03  0.00000000000E+00 0.  1.
<mgrwt>
<rscale>  0 0.79096834E+02</rscale>
<asrwt>0</asrwt>
<pdfrwt beam="1">  1        1 0.58242817E-01 0.79096834E+02</pdfrwt>
<pdfrwt beam="2">  1       -2 0.63560766E-03 0.79096834E+02</pdfrwt>
<totfact> 0.19388907E+05</totfact>
</mgrwt>
</event>
<event>
 8    1  0.1241100E-020  0.8049822E+02  0.7818608E-02  0.1327643E+00
          1   -1    0    0  501    0  0.00000000000E+00  0.00000000000E+00  0.38444619297E+02  0.38444619627E+02  0.50400000000E-02 0. -1.
         -2   -1    0    0    0  501 -0.00000000000E+00 -0.00000000000E+00 -0.42138297049E+02  0.42138297126E+02  0.25500000000E-02 0.  1.
        -24    2    1    2    0    0  0.00000000000E+00 -0.44408920985E-15 -0.36936777518E+01  0.80582916753E+02  0.80498218720E+02 0.  0.
         66    2    3    3    0    0 -0.37426196204E+02 -0.38357482618E+01 -0.16095052554E+02  0.40969303083E+02  0.19999878474E+01 0.  0.
         13    1    3    3    0    0  0.37426196204E+02  0.38357482618E+01  0.12401374803E+02  0.39613613670E+02  0.10566000000E+00 0. -1.
         13    1    4    4    0    0 -0.13398470404E+01 -0.51387473994E-01 -0.51481822280E+00  0.14401502012E+01  0.10566000000E+00 0.  1.
        -13    1    4    4    0    0 -0.87386648041E+01 -0.40118340904E+00 -0.43811855267E+01  0.97842302376E+01  0.10566000000E+00 0. -1.
        -14    1    4    4    0    0 -0.27347684359E+02 -0.33831773788E+01 -0.11199048805E+02  0.29744922644E+02  0.00000000000E+00 0.  1.
<mgrwt>
<rscale>  0 0.80498219E+02</rscale>
<asrwt>0</asrwt>
<pdfrwt beam="1">  1        1 0.59145569E-02 0.80498219E+02</pdfrwt>
<pdfrwt beam="2">  1       -2 0.64828149E-02 0.80498219E+02</pdfrwt>
<totfact> 0.12396148E+05</totfact>
</mgrwt>
</event>
<event>
 8    1  0.1241100E-020  0.8010839E+02  0.7818608E-02  0.1328744E+00
          1   -1    0    0  501    0  0.00000000000E+00  0.00000000000E+00  0.30595424477E+02  0.30595424893E+02  0.50400000000E-02 0. -1.
         -2   -1    0    0    0  501 -0.00000000000E+00 -0.00000000000E+00 -0.52437204902E+02  0.52437204964E+02  0.25500000000E-02 0.  1.
        -24    2    1    2    0    0  0.35527136788E-14 -0.17763568394E-14 -0.21841780425E+02  0.83032629857E+02  0.80108390627E+02 0.  0.
         66    2    3    3    0    0 -0.22207221866E+02  0.99558894041E+01 -0.43869142806E+02  0.50207391177E+02  0.20000003650E+01 0.  0.
         13    1    3    3    0    0  0.22207221866E+02 -0.99558894041E+01  0.22027362382E+02  0.32825238679E+02  0.10566000000E+00 0. -1.
         13    1    4    4    0    0 -0.91334783278E+01  0.38558736963E+01 -0.18598640928E+02  0.21076261450E+02  0.10566000000E+00 0.  1.
        -13    1    4    4    0    0 -0.81630767568E+01  0.35499795958E+01 -0.14308878560E+02  0.16852102153E+02  0.10566000000E+00 0.  1.
        -14    1    4    4    0    0 -0.49106667813E+01  0.25500361120E+01 -0.10961623318E+02  0.12279027575E+02  0.00000000000E+00 0.  1.
<mgrwt>
<rscale>  0 0.80108391E+02</rscale>
<asrwt>0</asrwt>
<pdfrwt beam="1">  1        1 0.47069885E-02 0.80108391E+02</pdfrwt>
<pdfrwt beam="2">  1       -2 0.80672623E-02 0.80108391E+02</pdfrwt>
<totfact> 0.12089744E+05</totfact>
</mgrwt>
</event>
<event>
 8    1  0.1241100E-020  0.7622095E+02  0.7818608E-02  0.1340131E+00
          1   -1    0    0  501    0  0.00000000000E+00  0.00000000000E+00  0.12505589881E+03  0.12505589891E+03  0.50400000000E-02 0. -1.
         -2   -1    0    0    0  501 -0.00000000000E+00 -0.00000000000E+00 -0.11614071221E+02  0.11614071500E+02  0.25500000000E-02 0.  1.
        -24    2    1    2    0    0 -0.35527136788E-14  0.71054273576E-14  0.11344182759E+03  0.13666997041E+03  0.76220945715E+02 0.  0.
         66    2    3    3    0    0  0.28083345066E+02 -0.25265150827E+02  0.65433812225E+02  0.75581650582E+02  0.20000015106E+01 0.  0.
         13    1    3    3    0    0 -0.28083345066E+02  0.25265150827E+02  0.48008015366E+02  0.61088319831E+02  0.10566000000E+00 0. -1.
         13    1    4    4    0    0  0.23715350447E+01 -0.16268261312E+01  0.52022813500E+01  0.59452196771E+01  0.10566000000E+00 0. -1.
        -13    1    4    4    0    0  0.21499125651E+02 -0.19151429006E+02  0.49376269438E+02  0.57157823475E+02  0.10566000000E+00 0.  1.
         14    1    4    4    0    0  0.42126843704E+01 -0.44868956896E+01  0.10855261437E+02  0.12478607431E+02  0.00000000000E+00 0. -1.
<mgrwt>
<rscale>  0 0.76220946E+02</rscale>
<asrwt>0</asrwt>
<pdfrwt beam="1">  1        1 0.19239370E-01 0.76220946E+02</pdfrwt>
<pdfrwt beam="2">  1       -2 0.17867802E-02 0.76220946E+02</pdfrwt>
<totfact> 0.17389737E+05</totfact>
</mgrwt>
</event>
<event>
 8    1  0.1241100E-020  0.7984767E+02  0.7818608E-02  0.1329484E+00
          1   -1    0    0  501    0  0.00000000000E+00  0.00000000000E+00  0.44367229618E+02  0.44367229904E+02  0.50400000000E-02 0. -1.
         -2   -1    0    0    0  501 -0.00000000000E+00 -0.00000000000E+00 -0.35925444794E+02  0.35925444884E+02  0.25500000000E-02 0.  1.
        -24    2    1    2    0    0  0.00000000000E+00  0.00000000000E+00  0.84417848243E+01  0.80292674789E+02  0.79847666802E+02 0.  0.
         66    2    3    3    0    0 -0.26921648940E+01 -0.39788844813E+02  0.54582172110E+01  0.40301266173E+02  0.19999991759E+01 0.  0.
         13    1    3    3    0    0  0.26921648940E+01  0.39788844813E+02  0.29835676133E+01  0.39991408616E+02  0.10566000000E+00 0. -1.
         13    1    4    4    0    0 -0.25528139868E+00 -0.16374527762E+01 -0.29487838421E-01  0.16608593423E+01  0.10566000000E+00 0. -1.
        -13    1    4    4    0    0 -0.58637932673E+00 -0.18669241562E+02  0.26248405961E+01  0.18862273813E+02  0.10566000000E+00 0.  1.
        -14    1    4    4    0    0 -0.18505041686E+01 -0.19482150474E+02  0.28628644532E+01  0.19778133017E+02  0.00000000000E+00 0.  1.
<mgrwt>
<rscale>  0 0.79847667E+02</rscale>
<asrwt>0</asrwt>
<pdfrwt beam="1">  1        1 0.68257277E-02 0.79847667E+02</pdfrwt>
<pdfrwt beam="2">  1       -2 0.55269915E-02 0.79847667E+02</pdfrwt>
<totfact> 0.12979816E+05</totfact>
</mgrwt>
</event>
<event>
 8    1  0.1241100E-020  0.8989541E+02  0.7818608E-02  0.1303105E+00
          1   -1    0    0  501    0  0.00000000000E+00  0.00000000000E+00  0.85084979810E+02  0.85084979959E+02  0.50400000000E-02 0. -1.
         -2   -1    0    0    0  501 -0.00000000000E+00 -0.00000000000E+00 -0.23744451716E+02  0.23744451853E+02  0.25500000000E-02 0.  1.
        -24    2    1    2    0    0  0.00000000000E+00  0.00000000000E+00  0.61340528094E+02  0.10882943181E+03  0.89895410570E+02 0.  0.
         66    2    3    3    0    0 -0.99728950259E+01  0.40793006709E+02  0.11362289591E+02  0.43550311724E+02  0.19999987251E+01 0.  0.
         13    1    3    3    0    0  0.99728950259E+01 -0.40793006709E+02  0.49978238502E+02  0.65279120088E+02  0.10566000000E+00 0. -1.
         13    1    4    4    0    0 -0.12475541279E+01  0.79872677587E+01  0.20678212013E+01  0.83450515940E+01  0.10566000000E+00 0. -1.
        -13    1    4    4    0    0 -0.52193832284E+01  0.21038793867E+02  0.60784745497E+01  0.22512925744E+02  0.10566000000E+00 0.  1.
        -14    1    4    4    0    0 -0.35059576696E+01  0.11766945084E+02  0.32159938403E+01  0.12692334386E+02  0.00000000000E+00 0.  1.
<mgrwt>
<rscale>  0 0.89895411E+02</rscale>
<asrwt>0</asrwt>
<pdfrwt beam="1">  1        1 0.13089997E-01 0.89895411E+02</pdfrwt>
<pdfrwt beam="2">  1       -2 0.36529926E-02 0.89895411E+02</pdfrwt>
<totfact> 0.10396614E+05</totfact>
</mgrwt>
</event>
<event>
 8    1  0.1241100E-020  0.7976029E+02  0.7818608E-02  0.1329733E+00
          1   -1    0    0  501    0  0.00000000000E+00  0.00000000000E+00  0.22217829719E+02  0.22217830291E+02  0.50400000000E-02 0. -1.
         -2   -1    0    0    0  501 -0.00000000000E+00 -0.00000000000E+00 -0.71583313887E+02  0.71583313932E+02  0.25500000000E-02 0.  1.
        -24    2    1    2    0    0  0.00000000000E+00  0.00000000000E+00 -0.49365484168E+02  0.93801144223E+02  0.79760288555E+02 0.  0.
         66    2    3    3    0    0 -0.34108647951E+02  0.15319693556E+02 -0.84736595382E+01  0.38391349409E+02  0.19999819377E+01 0.  0.
         13    1    3    3    0    0  0.34108647951E+02 -0.15319693556E+02 -0.40891824630E+02  0.55409794814E+02  0.10566000000E+00 0. -1.
         13    1    4    4    0    0 -0.39518036689E+01  0.20322256481E+01 -0.54163802240E+00  0.44778598800E+01  0.10566000000E+00 0.  1.
        -13    1    4    4    0    0 -0.14993258720E+02  0.60823937517E+01 -0.36239545015E+01  0.16581240335E+02  0.10566000000E+00 0.  1.
        -14    1    4    4    0    0 -0.15163585562E+02  0.72050741567E+01 -0.43080670143E+01  0.17332249194E+02  0.00000000000E+00 0.  1.
<mgrwt>
<rscale>  0 0.79760289E+02</rscale>
<asrwt>0</asrwt>
<pdfrwt beam="1">  1        1 0.34181277E-02 0.79760289E+02</pdfrwt>
<pdfrwt beam="2">  1       -2 0.11012817E-01 0.79760289E+02</pdfrwt>
<totfact> 0.11526890E+05</totfact>
</mgrwt>
</event>
<event>
 8    1  0.1568219E-020  0.7410842E+02  0.7818608E-02  0.1346654E+00
         -2   -1    0    0    0  501 -0.00000000000E+00  0.00000000000E+00  0.84036689587E+01  0.84036693456E+01  0.25500000000E-02 0.  1.
          1   -1    0    0  501    0  0.00000000000E+00 -0.00000000000E+00 -0.16338272482E+03  0.16338272490E+03  0.50400000000E-02 0. -1.
        -24    2    1    2    0    0  0.00000000000E+00  0.35527136788E-14 -0.15497905586E+03  0.17178639424E+03  0.74108417143E+02 0.  0.
         66    2    3    3    0    0 -0.24128211876E+02 -0.21914820581E+02 -0.36826084789E+02  0.49219817613E+02  0.19999889020E+01 0.  0.
         13    1    3    3    0    0  0.24128211876E+02  0.21914820581E+02 -0.11815297107E+03  0.12256657663E+03  0.10566000000E+00 0. -1.
         13    1    4    4    0    0 -0.49590918857E+01 -0.50539463552E+01 -0.84609966971E+01  0.11033340167E+02  0.10566000000E+00 0. -1.
        -13    1    4    4    0    0 -0.17107692835E+02 -0.15273484511E+02 -0.26013190729E+02  0.34679240753E+02  0.10566000000E+00 0.  1.
         14    1    4    4    0    0 -0.20614271551E+01 -0.15873897155E+01 -0.23518973621E+01  0.35072366938E+01  0.00000000000E+00 0. -1.
<mgrwt>
<rscale>  0 0.74108417E+02</rscale>
<asrwt>0</asrwt>
<pdfrwt beam="1">  1        1 0.25135802E-01 0.74108417E+02</pdfrwt>
<pdfrwt beam="2">  1       -2 0.12928723E-02 0.74108417E+02</pdfrwt>
<totfact> 0.19652143E+05</totfact>
</mgrwt>
</event>
<event>
 8    1  0.1241100E-020  0.8268997E+02  0.7818608E-02  0.1321586E+00
         -2   -1    0    0    0  501 -0.00000000000E+00  0.00000000000E+00  0.19090089854E+03  0.19090089856E+03  0.25500000000E-02 0.  1.
          1   -1    0    0  501    0  0.00000000000E+00 -0.00000000000E+00 -0.89544232268E+01  0.89544246452E+01  0.50400000000E-02 0. -1.
        -24    2    1    2    0    0  0.00000000000E+00 -0.35527136788E-14  0.18194647531E+03  0.19985532320E+03  0.82689965131E+02 0.  0.
         66    2    3    3    0    0 -0.11665477662E+02  0.28843198292E+02  0.15674659365E+03  0.15981710825E+03  0.20000027158E+01 0.  0.
         13    1    3    3    0    0  0.11665477662E+02 -0.28843198292E+02  0.25199881658E+02  0.40038214950E+02  0.10566000000E+00 0. -1.
         13    1    4    4    0    0 -0.96048164919E+00  0.26244975412E+01  0.12054198085E+02  0.12374383535E+02  0.10566000000E+00 0. -1.
        -13    1    4    4    0    0 -0.87465876040E+01  0.21250038245E+02  0.11491066473E+03  0.11718591619E+03  0.10566000000E+00 0.  1.
         14    1    4    4    0    0 -0.19584084089E+01  0.49686625057E+01  0.29781730834E+02  0.30256808524E+02  0.00000000000E+00 0. -1.
<mgrwt>
<rscale>  0 0.82689965E+02</rscale>
<asrwt>0</asrwt>
<pdfrwt beam="1">  1        1 0.13776035E-02 0.82689965E+02</pdfrwt>
<pdfrwt beam="2">  1       -2 0.29369372E-01 0.82689965E+02</pdfrwt>
<totfact> 0.79579180E+04</totfact>
</mgrwt>
</event>
<event>
 8    1  0.1241100E-020  0.7889815E+02  0.7818608E-02  0.1332208E+00
         -2   -1    0    0    0  501 -0.00000000000E+00  0.00000000000E+00  0.26435861222E+02  0.26435861345E+02  0.25500000000E-02 0.  1.
          1   -1    0    0  501    0  0.00000000000E+00 -0.00000000000E+00 -0.58868120663E+02  0.58868120879E+02  0.50400000000E-02 0. -1.
        -24    2    1    2    0    0  0.00000000000E+00  0.17763568394E-14 -0.32432259442E+02  0.85303982224E+02  0.78898149096E+02 0.  0.
         66    2    3    3    0    0  0.35367183779E+02  0.14235600033E+02 -0.53749719438E+01  0.38553602893E+02  0.19999939671E+01 0.  0.
         13    1    3    3    0    0 -0.35367183779E+02 -0.14235600033E+02 -0.27057287498E+02  0.46750379331E+02  0.10566000000E+00 0. -1.
         13    1    4    4    0    0  0.11630331812E+02  0.43309910584E+01 -0.19126595881E+01  0.12557528910E+02  0.10566000000E+00 0. -1.
        -13    1    4    4    0    0  0.13100414021E+02  0.48879831542E+01 -0.13532448610E+01  0.14048333087E+02  0.10566000000E+00 0.  1.
         14    1    4    4    0    0  0.10636437947E+02  0.50166258206E+01 -0.21090674947E+01  0.11947740896E+02  0.00000000000E+00 0. -1.
<mgrwt>
<rscale>  0 0.78898149E+02</rscale>
<asrwt>0</asrwt>
<pdfrwt beam="1">  1        1 0.90566340E-02 0.78898149E+02</pdfrwt>
<pdfrwt beam="2">  1       -2 0.40670556E-02 0.78898149E+02</pdfrwt>
<totfact> 0.14024049E+05</totfact>
</mgrwt>
</event>
<event>
 8    1  0.1241100E-020  0.7953899E+02  0.7818608E-02  0.1330365E+00
          1   -1    0    0  501    0  0.00000000000E+00  0.00000000000E+00  0.14172098537E+03  0.14172098546E+03  0.50400000000E-02 0. -1.
         -2   -1    0    0    0  501 -0.00000000000E+00 -0.00000000000E+00 -0.11160045822E+02  0.11160046113E+02  0.25500000000E-02 0.  1.
        -24    2    1    2    0    0  0.00000000000E+00  0.00000000000E+00  0.13056093955E+03  0.15288103158E+03  0.79538989680E+02 0.  0.
         66    2    3    3    0    0 -0.11689365627E+02 -0.36226886531E+02  0.43357676003E+02  0.57731418261E+02  0.20000023950E+01 0.  0.
         13    1    3    3    0    0  0.11689365627E+02  0.36226886531E+02  0.87203263550E+02  0.95149613317E+02  0.10566000000E+00 0. -1.
         13    1    4    4    0    0 -0.66345772038E+01 -0.23111008664E+02  0.27875124362E+02  0.36812634494E+02  0.10566000000E+00 0. -1.
        -13    1    4    4    0    0 -0.44854672884E+01 -0.12060617783E+02  0.14153998346E+02  0.19129159713E+02  0.10566000000E+00 0.  1.
         14    1    4    4    0    0 -0.56932113474E+00 -0.10552600842E+01  0.13285532947E+01  0.17896240546E+01  0.00000000000E+00 0. -1.
<mgrwt>
<rscale>  0 0.79538990E+02</rscale>
<asrwt>0</asrwt>
<pdfrwt beam="1">  1        1 0.21803229E-01 0.79538990E+02</pdfrwt>
<pdfrwt beam="2">  1       -2 0.17169301E-02 0.79538990E+02</pdfrwt>
<totfact> 0.15868278E+05</totfact>
</mgrwt>
</event>
<event>
 8    1  0.1241100E-020  0.7897307E+02  0.7818608E-02  0.1331991E+00
         -2   -1    0    0    0  501 -0.00000000000E+00  0.00000000000E+00  0.56112376973E+01  0.56112382767E+01  0.25500000000E-02 0.  1.
          1   -1    0    0  501    0  0.00000000000E+00 -0.00000000000E+00 -0.27786855534E+03  0.27786855538E+03  0.50400000000E-02 0. -1.
        -24    2    1    2    0    0  0.00000000000E+00  0.00000000000E+00 -0.27225731764E+03  0.28347979366E+03  0.78973073923E+02 0.  0.
         66    2    3    3    0    0 -0.24800238099E+02 -0.24230528032E+02 -0.68581861399E+02  0.76874196113E+02  0.20000041665E+01 0.  0.
         13    1    3    3    0    0  0.24800238099E+02  0.24230528032E+02 -0.20367545624E+03  0.20660559755E+03  0.10566000000E+00 0. -1.
         13    1    4    4    0    0 -0.17182045482E+02 -0.16800055246E+02 -0.46443269268E+02  0.52291997165E+02  0.10566000000E+00 0.  1.
        -13    1    4    4    0    0 -0.54753590929E+01 -0.51760398426E+01 -0.16593901402E+02  0.18224699542E+02  0.10566000000E+00 0. -1.
         14    1    4    4    0    0 -0.21428335234E+01 -0.22544329440E+01 -0.55446907297E+01  0.63574994059E+01  0.00000000000E+00 0. -1.
<mgrwt>
<rscale>  0 0.78973074E+02</rscale>
<asrwt>0</asrwt>
<pdfrwt beam="1">  1        1 0.42748998E-01 0.78973074E+02</pdfrwt>
<pdfrwt beam="2">  1       -2 0.86326760E-03 0.78973074E+02</pdfrwt>
<totfact> 0.18394018E+05</totfact>
</mgrwt>
</event>
<event>
 8    1  0.1241100E-020  0.7980601E+02  0.7818608E-02  0.1329603E+00
         -2   -1    0    0    0  501 -0.00000000000E+00  0.00000000000E+00  0.66471768075E+03  0.66471768075E+03  0.25500000000E-02 0.  1.
          1   -1    0    0  501    0  0.00000000000E+00 -0.00000000000E+00 -0.23953748466E+01  0.23953801488E+01  0.50400000000E-02 0. -1.
        -24    2    1    2    0    0  0.00000000000E+00  0.00000000000E+00  0.66232230590E+03  0.66711306090E+03  0.79806009367E+02 0.  0.
         66    2    3    3    0    0 -0.33981322626E+02 -0.22262667719E+00  0.50580630073E+03  0.50695048447E+03  0.19999992964E+01 0.  0.
         13    1    3    3    0    0  0.33981322626E+02  0.22262667719E+00  0.15651600517E+03  0.16016257643E+03  0.10566000000E+00 0. -1.
         13    1    4    4    0    0 -0.41164456861E+01 -0.43349823104E+00  0.61450356377E+02  0.61589694825E+02  0.10566000000E+00 0. -1.
        -13    1    4    4    0    0 -0.19866430312E+02 -0.28177084939E+00  0.30325830911E+03  0.30390848566E+03  0.10566000000E+00 0.  1.
         14    1    4    4    0    0 -0.99984466281E+01  0.49264240324E+00  0.14109763524E+03  0.14145230398E+03  0.00000000000E+00 0. -1.
<mgrwt>
<rscale>  0 0.79806009E+02</rscale>
<asrwt>0</asrwt>
<pdfrwt beam="1">  1        1 0.36851914E-03 0.79806009E+02</pdfrwt>
<pdfrwt beam="2">  1       -2 0.10226439E+00 0.79806009E+02</pdfrwt>
<totfact> 0.39953622E+04</totfact>
</mgrwt>
</event>
<event>
 8    1  0.1241100E-020  0.7955011E+02  0.7818608E-02  0.1330333E+00
          1   -1    0    0  501    0  0.00000000000E+00  0.00000000000E+00  0.70107323228E+02  0.70107323409E+02  0.50400000000E-02 0. -1.
         -2   -1    0    0    0  501 -0.00000000000E+00 -0.00000000000E+00 -0.22566189288E+02  0.22566189432E+02  0.25500000000E-02 0.  1.
        -24    2    1    2    0    0 -0.88817841970E-15  0.71054273576E-14  0.47541133940E+02  0.92673512841E+02  0.79550113551E+02 0.  0.
         66    2    3    3    0    0 -0.75919425750E+01  0.38807597274E+02  0.19070227049E+02  0.43947022084E+02  0.19999980397E+01 0.  0.
         13    1    3    3    0    0  0.75919425750E+01 -0.38807597274E+02  0.28470906891E+02  0.48726490757E+02  0.10566000000E+00 0. -1.
         13    1    4    4    0    0 -0.56862685509E-01  0.15863741146E+01  0.62976592084E+00  0.17110188038E+01  0.10566000000E+00 0. -1.
        -13    1    4    4    0    0 -0.30585659121E+01  0.12384816029E+02  0.64749147215E+01  0.14306438347E+02  0.10566000000E+00 0.  1.
         14    1    4    4    0    0 -0.44765139773E+01  0.24836407130E+02  0.11965546407E+02  0.27929564933E+02  0.00000000000E+00 0. -1.
<mgrwt>
<rscale>  0 0.79550114E+02</rscale>
<asrwt>0</asrwt>
<pdfrwt beam="1">  1        1 0.10785742E-01 0.79550114E+02</pdfrwt>
<pdfrwt beam="2">  1       -2 0.34717215E-02 0.79550114E+02</pdfrwt>
<totfact> 0.14089785E+05</totfact>
</mgrwt>
</event>
<event>
 8    1  0.1241100E-020  0.7991530E+02  0.7818608E-02  0.1329292E+00
         -2   -1    0    0    0  501 -0.00000000000E+00  0.00000000000E+00  0.18265113031E+03  0.18265113033E+03  0.25500000000E-02 0.  1.
          1   -1    0    0  501    0  0.00000000000E+00 -0.00000000000E+00 -0.87413296604E+01  0.87413311134E+01  0.50400000000E-02 0. -1.
        -24    2    1    2    0    0  0.00000000000E+00  0.00000000000E+00  0.17390980065E+03  0.19139246145E+03  0.79915302256E+02 0.  0.
         66    2    3    3    0    0  0.17713678368E+02 -0.16089398600E+02  0.16357117298E+03  0.16532444398E+03  0.19999992650E+01 0.  0.
         13    1    3    3    0    0 -0.17713678368E+02  0.16089398600E+02  0.10338627674E+02  0.26068017471E+02  0.10566000000E+00 0. -1.
         13    1    4    4    0    0  0.60548231456E+01 -0.60712833633E+01  0.62582350093E+02  0.63167104352E+02  0.10566000000E+00 0. -1.
        -13    1    4    4    0    0  0.29552107333E+01 -0.30442874428E+01  0.26210614060E+02  0.26551994462E+02  0.10566000000E+00 0.  1.
        -14    1    4    4    0    0  0.87036444890E+01 -0.69738277936E+01  0.74778208828E+02  0.75605345161E+02  0.00000000000E+00 0.  1.
<mgrwt>
<rscale>  0 0.79915302E+02</rscale>
<asrwt>0</asrwt>
<pdfrwt beam="1">  1        1 0.13448201E-02 0.79915302E+02</pdfrwt>
<pdfrwt beam="2">  1       -2 0.28100173E-01 0.79915302E+02</pdfrwt>
<totfact> 0.88402348E+04</totfact>
</mgrwt>
</event>
<event>
 8    1  0.1241100E-020  0.8235892E+02  0.7818608E-02  0.1322487E+00
          1   -1    0    0  501    0  0.00000000000E+00  0.00000000000E+00  0.22615939323E+02  0.22615939884E+02  0.50400000000E-02 0. -1.
         -2   -1    0    0    0  501 -0.00000000000E+00 -0.00000000000E+00 -0.74980213887E+02  0.74980213930E+02  0.25500000000E-02 0.  1.
        -24    2    1    2    0    0  0.00000000000E+00  0.00000000000E+00 -0.52364274564E+02  0.97596153815E+02  0.82358921731E+02 0.  0.
         66    2    3    3    0    0  0.25243488513E+02  0.92076110140E+01 -0.63137345530E+02  0.68646472729E+02  0.20000011757E+01 0.  0.
         13    1    3    3    0    0 -0.25243488513E+02 -0.92076110140E+01  0.10773070965E+02  0.28949681086E+02  0.10566000000E+00 0. -1.
         13    1    4    4    0    0  0.12345521992E+02  0.45359482461E+01 -0.29422377768E+02  0.32228469050E+02  0.10566000000E+00 0. -1.
        -13    1    4    4    0    0  0.95254939140E+01  0.34827149434E+01 -0.23507941119E+02  0.25602710742E+02  0.10566000000E+00 0.  1.
         14    1    4    4    0    0  0.33724726070E+01  0.11889478245E+01 -0.10207026643E+02  0.10815292936E+02  0.00000000000E+00 0. -1.
<mgrwt>
<rscale>  0 0.82358922E+02</rscale>
<asrwt>0</asrwt>
<pdfrwt beam="1">  1        1 0.34793754E-02 0.82358922E+02</pdfrwt>
<pdfrwt beam="2">  1       -2 0.11535417E-01 0.82358922E+02</pdfrwt>
<totfact> 0.10522817E+05</totfact>
</mgrwt>
</event>
<event>
 8    1  0.1248421E-020  0.7969053E+02  0.7818608E-02  0.1329932E+00
         -2   -1    0    0    0  501 -0.00000000000E+00  0.00000000000E+00  0.82654997151E+01  0.82655001084E+01  0.25500000000E-02 0.  1.
          1   -1    0    0  501    0  0.00000000000E+00 -0.00000000000E+00 -0.19208098052E+03  0.19208098058E+03  0.50400000000E-02 0. -1.
        -24    2    1    2    0    0  0.00000000000E+00  0.71054273576E-14 -0.18381548080E+03  0.20034648069E+03  0.79690534840E+02 0.  0.
         66    2    3    3    0    0  0.13264869095E+02 -0.31633783841E+02 -0.41122616239E+02  0.53588456061E+02  0.20000061165E+01 0.  0.
         13    1    3    3    0    0 -0.13264869095E+02  0.31633783841E+02 -0.14269286456E+03  0.14675802463E+03  0.10566000000E+00 0. -1.
         13    1    4    4    0    0  0.44483778352E+00 -0.20441618709E+01 -0.25958309172E+01  0.33355630102E+01  0.10566000000E+00 0. -1.
        -13    1    4    4    0    0  0.79140637422E+01 -0.19365262819E+02 -0.24584050506E+02  0.32280528377E+02  0.10566000000E+00 0.  1.
         14    1    4    4    0    0  0.49059675688E+01 -0.10224359151E+02 -0.13942734816E+02  0.17972364674E+02  0.00000000000E+00 0. -1.
<mgrwt>
<rscale>  0 0.79690535E+02</rscale>
<asrwt>0</asrwt>
<pdfrwt beam="1">  1        1 0.29550917E-01 0.79690535E+02</pdfrwt>
<pdfrwt beam="2">  1       -2 0.12716155E-02 0.79690535E+02</pdfrwt>
<totfact> 0.16715187E+05</totfact>
</mgrwt>
</event>
<event>
 8    1  0.1241100E-020  0.7866092E+02  0.7818608E-02  0.1332895E+00
          1   -1    0    0  501    0  0.00000000000E+00  0.00000000000E+00  0.14225624957E+02  0.14225625849E+02  0.50400000000E-02 0. -1.
         -2   -1    0    0    0  501 -0.00000000000E+00 -0.00000000000E+00 -0.10873932522E+03  0.10873932525E+03  0.25500000000E-02 0.  1.
        -24    2    1    2    0    0  0.35527136788E-14  0.00000000000E+00 -0.94513700265E+02  0.12296495110E+03  0.78660915717E+02 0.  0.
         66    2    3    3    0    0  0.23982670340E+02  0.28507201933E+02 -0.27696944023E+02  0.46464499354E+02  0.19999883467E+01 0.  0.
         13    1    3    3    0    0 -0.23982670340E+02 -0.28507201933E+02 -0.66816756243E+02  0.76500451747E+02  0.10566000000E+00 0. -1.
         13    1    4    4    0    0  0.26431434099E+01  0.36082957070E+01 -0.36762539735E+01  0.57906832332E+01  0.10566000000E+00 0.  1.
        -13    1    4    4    0    0  0.57374033442E+01  0.64239885487E+01 -0.70571511301E+01  0.11135527474E+02  0.10566000000E+00 0. -1.
         14    1    4    4    0    0  0.15602123586E+02  0.18474917677E+02 -0.16963538919E+02  0.29538288647E+02  0.00000000000E+00 0. -1.
<mgrwt>
<rscale>  0 0.78660916E+02</rscale>
<asrwt>0</asrwt>
<pdfrwt beam="1">  1        1 0.21885578E-02 0.78660916E+02</pdfrwt>
<pdfrwt beam="2">  1       -2 0.16729126E-01 0.78660916E+02</pdfrwt>
<totfact> 0.10847460E+05</totfact>
</mgrwt>
</event>
<event>
 8    1  0.1241100E-020  0.7939949E+02  0.7818608E-02  0.1330764E+00
          1   -1    0    0  501    0  0.00000000000E+00  0.00000000000E+00  0.67162627986E+01  0.67162646897E+01  0.50400000000E-02 0. -1.
         -2   -1    0    0    0  501 -0.00000000000E+00 -0.00000000000E+00 -0.23466466450E+03  0.23466466451E+03  0.25500000000E-02 0.  1.
        -24    2    1    2    0    0  0.00000000000E+00  0.88817841970E-15 -0.22794840170E+03  0.24138092920E+03  0.79399490836E+02 0.  0.
         66    2    3    3    0    0  0.10262353931E+02  0.48533172282E+01 -0.22961717515E+03  0.22990632397E+03  0.20000202015E+01 0.  0.
         13    1    3    3    0    0 -0.10262353931E+02 -0.48533172282E+01  0.16687734530E+01  0.11474605230E+02  0.10566000000E+00 0. -1.
         13    1    4    4    0    0  0.81413001033E+00  0.28624757029E-01 -0.10408270664E+02  0.10440636441E+02  0.10566000000E+00 0. -1.
        -13    1    4    4    0    0  0.87510911787E+01  0.45117428131E+01 -0.20471763286E+03  0.20495428219E+03  0.10566000000E+00 0.  1.
         14    1    4    4    0    0  0.69713274151E+00  0.31294965809E+00 -0.14491271629E+02  0.14511405341E+02  0.00000000000E+00 0. -1.
<mgrwt>
<rscale>  0 0.79399491E+02</rscale>
<asrwt>0</asrwt>
<pdfrwt beam="1">  1        1 0.10332715E-02 0.79399491E+02</pdfrwt>
<pdfrwt beam="2">  1       -2 0.36102250E-01 0.79399491E+02</pdfrwt>
<totfact> 0.80983823E+04</totfact>
</mgrwt>
</event>
<event>
 8    1  0.1241100E-020  0.8046023E+02  0.7818608E-02  0.1327750E+00
          1   -1    0    0  501    0  0.00000000000E+00  0.00000000000E+00  0.69909216863E+02  0.69909217044E+02  0.50400000000E-02 0. -1.
         -2   -1    0    0    0  501 -0.00000000000E+00 -0.00000000000E+00 -0.23150913327E+02  0.23150913467E+02  0.25500000000E-02 0.  1.
        -24    2    1    2    0    0  0.00000000000E+00  0.00000000000E+00  0.46758303536E+02  0.93060130511E+02  0.80460232048E+02 0.  0.
         66    2    3    3    0    0  0.25222385518E+02  0.24821043197E+02  0.13208834675E+01  0.35468262829E+02  0.20000045866E+01 0.  0.
         13    1    3    3    0    0 -0.25222385518E+02 -0.24821043197E+02  0.45437420069E+02  0.57591867682E+02  0.10566000000E+00 0. -1.
         13    1    4    4    0    0  0.48844760075E+01  0.44316124655E+01  0.90071351306E+00  0.66573075474E+01  0.10566000000E+00 0. -1.
        -13    1    4    4    0    0  0.14912403678E+02  0.15328070150E+02  0.47997800344E+00  0.21390910708E+02  0.10566000000E+00 0.  1.
         14    1    4    4    0    0  0.54255058323E+01  0.50613605819E+01 -0.59808048995E-01  0.74200445739E+01  0.00000000000E+00 0. -1.
<mgrwt>
<rscale>  0 0.80460232E+02</rscale>
<asrwt>0</asrwt>
<pdfrwt beam="1">  1        1 0.10755264E-01 0.80460232E+02</pdfrwt>
<pdfrwt beam="2">  1       -2 0.35616790E-02 0.80460232E+02</pdfrwt>
<totfact> 0.13651564E+05</totfact>
</mgrwt>
</event>
<event>
 8    1  0.1319580E-020  0.7189709E+02  0.7818608E-02  0.1353758E+00
         -2   -1    0    0    0  501 -0.00000000000E+00  0.00000000000E+00  0.71370270565E+02  0.71370270611E+02  0.25500000000E-02 0.  1.
          1   -1    0    0  501    0  0.00000000000E+00 -0.00000000000E+00 -0.18106948096E+02  0.18106948798E+02  0.50400000000E-02 0. -1.
        -24    2    1    2    0    0 -0.35527136788E-14  0.17763568394E-14  0.53263322469E+02  0.89477219409E+02  0.71897088068E+02 0.  0.
         66    2    3    3    0    0  0.21022293482E+02 -0.11597492289E+02  0.59903309242E+02  0.64566594386E+02  0.20000004267E+01 0.  0.
         13    1    3    3    0    0 -0.21022293482E+02  0.11597492289E+02 -0.66399867737E+01  0.24910625023E+02  0.10566000000E+00 0. -1.
         13    1    4    4    0    0  0.12200428865E+02 -0.70507501949E+01  0.34064865192E+02  0.36864478124E+02  0.10566000000E+00 0. -1.
        -13    1    4    4    0    0  0.86172575419E+01 -0.45949985483E+01  0.25061426133E+02  0.26897163104E+02  0.10566000000E+00 0.  1.
         14    1    4    4    0    0  0.20460707574E+00  0.48256454462E-01  0.77701791790E+00  0.80495315739E+00  0.00000000000E+00 0. -1.
<mgrwt>
<rscale>  0 0.71897088E+02</rscale>
<asrwt>0</asrwt>
<pdfrwt beam="1">  1        1 0.27856843E-02 0.71897088E+02</pdfrwt>
<pdfrwt beam="2">  1       -2 0.10980042E-01 0.71897088E+02</pdfrwt>
<totfact> 0.15004565E+05</totfact>
</mgrwt>
</event>
<event>
 8    1  0.1241100E-020  0.8056233E+02  0.7818608E-02  0.1327463E+00
          1   -1    0    0  501    0  0.00000000000E+00  0.00000000000E+00  0.10035530876E+03  0.10035530889E+03  0.50400000000E-02 0. -1.
         -2   -1    0    0    0  501 -0.00000000000E+00 -0.00000000000E+00 -0.16168276671E+02  0.16168276872E+02  0.25500000000E-02 0.  1.
        -24    2    1    2    0    0 -0.17763568394E-14  0.35527136788E-14  0.84187032089E+02  0.11652358576E+03  0.80562334041E+02 0.  0.
         66    2    3    3    0    0  0.87763272939E+01  0.26719030352E+02  0.45875527827E+00  0.28198243951E+02  0.20000004414E+01 0.  0.
         13    1    3    3    0    0 -0.87763272939E+01 -0.26719030352E+02  0.83728276811E+02  0.88325341808E+02  0.10566000000E+00 0. -1.
         13    1    4    4    0    0  0.19765536122E+01  0.49265447407E+01 -0.42400420656E+00  0.53262135582E+01  0.10566000000E+00 0. -1.
        -13    1    4    4    0    0  0.17893160260E+01  0.66667846446E+01  0.67788187760E+00  0.69367396674E+01  0.10566000000E+00 0.  1.
         14    1    4    4    0    0  0.50104576557E+01  0.15125700967E+02  0.20487760723E+00  0.15935290725E+02  0.00000000000E+00 0. -1.
<mgrwt>
<rscale>  0 0.80562334E+02</rscale>
<asrwt>0</asrwt>
<pdfrwt beam="1">  1        1 0.15439278E-01 0.80562334E+02</pdfrwt>
<pdfrwt beam="2">  1       -2 0.24874273E-02 0.80562334E+02</pdfrwt>
<totfact> 0.14431986E+05</totfact>
</mgrwt>
</event>
<event>
 8    1  0.1241100E-020  0.8824240E+02  0.7818608E-02  0.1307165E+00
          1   -1    0    0  501    0  0.00000000000E+00  0.00000000000E+00  0.10974781270E+03  0.10974781281E+03  0.50400000000E-02 0. -1.
         -2   -1    0    0    0  501 -0.00000000000E+00 -0.00000000000E+00 -0.17737757736E+02  0.17737757919E+02  0.25500000000E-02 0.  1.
        -24    2    1    2    0    0  0.17763568394E-14  0.00000000000E+00  0.92010054964E+02  0.12748557073E+03  0.88242396448E+02 0.  0.
         66    2    3    3    0    0 -0.15002116281E+02  0.41452896039E+02  0.47656059412E+02  0.64950027493E+02  0.19999974590E+01 0.  0.
         13    1    3    3    0    0  0.15002116281E+02 -0.41452896039E+02  0.44353995552E+02  0.62535543240E+02  0.10566000000E+00 0. -1.
         13    1    4    4    0    0 -0.24810285423E+01  0.75559595534E+01  0.80885593637E+01  0.11343896333E+02  0.10566000000E+00 0. -1.
        -13    1    4    4    0    0 -0.11821159144E+02  0.30790009878E+02  0.36005709668E+02  0.48828135378E+02  0.10566000000E+00 0.  1.
        -14    1    4    4    0    0 -0.69992859436E+00  0.31069266076E+01  0.35617903802E+01  0.47779957822E+01  0.00000000000E+00 0.  1.
<mgrwt>
<rscale>  0 0.88242396E+02</rscale>
<asrwt>0</asrwt>
<pdfrwt beam="1">  1        1 0.16884279E-01 0.88242396E+02</pdfrwt>
<pdfrwt beam="2">  1       -2 0.27288858E-02 0.88242396E+02</pdfrwt>
<totfact> 0.11445940E+05</totfact>
</mgrwt>
</event>
<event>
 8    1  0.1241100E-020  0.7953932E+02  0.7818608E-02  0.1330364E+00
         -2   -1    0    0    0  501 -0.00000000000E+00  0.00000000000E+00  0.39375413668E+02  0.39375413751E+02  0.25500000000E-02 0.  1.
          1   -1    0    0  501    0  0.00000000000E+00 -0.00000000000E+00 -0.40167855666E+02  0.40167855982E+02  0.50400000000E-02 0. -1.
        -24    2    1    2    0    0  0.00000000000E+00  0.00000000000E+00 -0.79244199789E+00  0.79543269733E+02  0.79539322322E+02 0.  0.
         66    2    3    3    0    0 -0.19518946385E+02 -0.15831247637E+02  0.30394719668E+02  0.39489956680E+02  0.20000062874E+01 0.  0.
         13    1    3    3    0    0  0.19518946385E+02  0.15831247637E+02 -0.31187161666E+02  0.40053313053E+02  0.10566000000E+00 0. -1.
         13    1    4    4    0    0 -0.69117010173E+01 -0.48384588437E+01  0.10364713984E+02  0.13364907592E+02  0.10566000000E+00 0. -1.
        -13    1    4    4    0    0 -0.21852422983E+01 -0.21494387863E+01  0.43725281114E+01  0.53409303608E+01  0.10566000000E+00 0.  1.
         14    1    4    4    0    0 -0.10422003069E+02 -0.88433500066E+01  0.15657477573E+02  0.20784118727E+02  0.00000000000E+00 0. -1.
<mgrwt>
<rscale>  0 0.79539322E+02</rscale>
<asrwt>0</asrwt>
<pdfrwt beam="1">  1        1 0.61796702E-02 0.79539322E+02</pdfrwt>
<pdfrwt beam="2">  1       -2 0.60577559E-02 0.79539322E+02</pdfrwt>
<totfact> 0.12914456E+05</totfact>
</mgrwt>
</event>
<event>
 8    1  0.1241100E-020  0.7992948E+02  0.7818608E-02  0.1329252E+00
         -2   -1    0    0    0  501 -0.00000000000E+00  0.00000000000E+00  0.38463749289E+02  0.38463749373E+02  0.25500000000E-02 0.  1.
          1   -1    0    0  501    0  0.00000000000E+00 -0.00000000000E+00 -0.41524307071E+02  0.41524307377E+02  0.50400000000E-02 0. -1.
        -24    2    1    2    0    0  0.00000000000E+00 -0.35527136788E-14 -0.30605577824E+01  0.79988056750E+02  0.79929482726E+02 0.  0.
         66    2    3    3    0    0  0.18910541555E+02 -0.17047009801E+02  0.29264136938E+02  0.38840685293E+02  0.19999995538E+01 0.  0.
         13    1    3    3    0    0 -0.18910541555E+02  0.17047009801E+02 -0.32324694720E+02  0.41147371458E+02  0.10566000000E+00 0. -1.
         13    1    4    4    0    0  0.15248814280E+02 -0.14181146600E+02  0.23269328408E+02  0.31226656313E+02  0.10566000000E+00 0. -1.
        -13    1    4    4    0    0  0.34700663232E+01 -0.28650865662E+01  0.57840782848E+01  0.73291750531E+01  0.10566000000E+00 0.  1.
         14    1    4    4    0    0  0.19166095209E+00 -0.77663447964E-03  0.21073024480E+00  0.28485392712E+00  0.00000000000E+00 0. -1.
<mgrwt>
<rscale>  0 0.79929483E+02</rscale>
<asrwt>0</asrwt>
<pdfrwt beam="1">  1        1 0.63883550E-02 0.79929483E+02</pdfrwt>
<pdfrwt beam="2">  1       -2 0.59174999E-02 0.79929483E+02</pdfrwt>
<totfact> 0.12806273E+05</totfact>
</mgrwt>
</event>
<event>
 8    1  0.1241100E-020  0.8585810E+02  0.7818608E-02  0.1313204E+00
         -2   -1    0    0    0  501 -0.00000000000E+00  0.00000000000E+00  0.29212970210E+02  0.29212970322E+02  0.25500000000E-02 0.  1.
          1   -1    0    0  501    0  0.00000000000E+00 -0.00000000000E+00 -0.63085100305E+02  0.63085100507E+02  0.50400000000E-02 0. -1.
        -24    2    1    2    0    0  0.00000000000E+00  0.00000000000E+00 -0.33872130095E+02  0.92298070828E+02  0.85858096190E+02 0.  0.
         66    2    3    3    0    0  0.13916095560E+01 -0.19313581753E+02  0.24214311514E+02  0.31069018246E+02  0.19999988537E+01 0.  0.
         13    1    3    3    0    0 -0.13916095560E+01  0.19313581753E+02 -0.58086441609E+02  0.61229052582E+02  0.10566000000E+00 0. -1.
         13    1    4    4    0    0  0.16885733896E+00 -0.40071003395E+00  0.77984505757E+00  0.89911271910E+00  0.10566000000E+00 0. -1.
        -13    1    4    4    0    0  0.96173537093E+00 -0.18399634721E+02  0.22688728686E+02  0.29227744801E+02  0.10566000000E+00 0.  1.
        -14    1    4    4    0    0  0.26101684607E+00 -0.51323699815E+00  0.74573777085E+00  0.94216072572E+00  0.00000000000E+00 0.  1.
<mgrwt>
<rscale>  0 0.85858096E+02</rscale>
<asrwt>0</asrwt>
<pdfrwt beam="1">  1        1 0.97054001E-02 0.85858096E+02</pdfrwt>
<pdfrwt beam="2">  1       -2 0.44943031E-02 0.85858096E+02</pdfrwt>
<totfact> 0.11222643E+05</totfact>
</mgrwt>
</event>
<event>
 8    1  0.1241100E-020  0.8041059E+02  0.7818608E-02  0.1327890E+00
         -2   -1    0    0    0  501 -0.00000000000E+00  0.00000000000E+00  0.19651576234E+02  0.19651576400E+02  0.25500000000E-02 0.  1.
          1   -1    0    0  501    0  0.00000000000E+00 -0.00000000000E+00 -0.82256287490E+02  0.82256287644E+02  0.50400000000E-02 0. -1.
        -24    2    1    2    0    0  0.00000000000E+00  0.00000000000E+00 -0.62604711255E+02  0.10190786404E+03  0.80410589368E+02 0.  0.
         66    2    3    3    0    0 -0.22086622090E+02  0.10040723200E+02  0.92694741385E+01  0.26049148738E+02  0.20000003623E+01 0.  0.
         13    1    3    3    0    0  0.22086622090E+02 -0.10040723200E+02 -0.71874185394E+02  0.75858715306E+02  0.10566000000E+00 0. -1.
         13    1    4    4    0    0 -0.59917415035E+01  0.36314669120E+01  0.29779225819E+01  0.76136525477E+01  0.10566000000E+00 0. -1.
        -13    1    4    4    0    0 -0.50370375149E+01  0.21014417027E+01  0.18358444723E+01  0.57592788714E+01  0.10566000000E+00 0.  1.
         14    1    4    4    0    0 -0.11057843072E+02  0.43078145854E+01  0.44557070843E+01  0.12676217319E+02  0.00000000000E+00 0. -1.
<mgrwt>
<rscale>  0 0.80410589E+02</rscale>
<asrwt>0</asrwt>
<pdfrwt beam="1">  1        1 0.12654813E-01 0.80410589E+02</pdfrwt>
<pdfrwt beam="2">  1       -2 0.30233195E-02 0.80410589E+02</pdfrwt>
<totfact> 0.14036222E+05</totfact>
</mgrwt>
</event>
<event>
 8    1  0.1241100E-020  0.7934325E+02  0.7818608E-02  0.1330926E+00
         -2   -1    0    0    0  501 -0.00000000000E+00  0.00000000000E+00  0.12978533301E+02  0.12978533552E+02  0.25500000000E-02 0.  1.
          1   -1    0    0  501    0  0.00000000000E+00 -0.00000000000E+00 -0.12126468380E+03  0.12126468390E+03  0.50400000000E-02 0. -1.
        -24    2    1    2    0    0  0.35527136788E-14  0.35527136788E-14 -0.10828615049E+03  0.13424321745E+03  0.79343248251E+02 0.  0.
         66    2    3    3    0    0 -0.17767156611E+02 -0.17491298188E+02 -0.20226851941E+01  0.25093995797E+02  0.20000008297E+01 0.  0.
         13    1    3    3    0    0  0.17767156611E+02  0.17491298188E+02 -0.10626346530E+03  0.10914922165E+03  0.10566000000E+00 0. -1.
         13    1    4    4    0    0 -0.16379403157E+01 -0.11545579703E+01  0.11567658606E+00  0.20100740515E+01  0.10566000000E+00 0. -1.
        -13    1    4    4    0    0 -0.25132982743E+01 -0.24044983093E+01 -0.70441579104E+00  0.35504430677E+01  0.10566000000E+00 0.  1.
         14    1    4    4    0    0 -0.13615918021E+02 -0.13932241908E+02 -0.14339459891E+01  0.19533478677E+02  0.00000000000E+00 0. -1.
<mgrwt>
<rscale>  0 0.79343248E+02</rscale>
<asrwt>0</asrwt>
<pdfrwt beam="1">  1        1 0.18656105E-01 0.79343248E+02</pdfrwt>
<pdfrwt beam="2">  1       -2 0.19966975E-02 0.79343248E+02</pdfrwt>
<totfact> 0.15534455E+05</totfact>
</mgrwt>
</event>
<event>
 8    1  0.1241100E-020  0.7777114E+02  0.7818608E-02  0.1335498E+00
          1   -1    0    0  501    0  0.00000000000E+00  0.00000000000E+00  0.12392549813E+02  0.12392550838E+02  0.50400000000E-02 0. -1.
         -2   -1    0    0    0  501 -0.00000000000E+00 -0.00000000000E+00 -0.12201584505E+03  0.12201584507E+03  0.25500000000E-02 0.  1.
        -24    2    1    2    0    0  0.00000000000E+00  0.00000000000E+00 -0.10962329523E+03  0.13440839591E+03  0.77771138822E+02 0.  0.
         66    2    3    3    0    0 -0.16649349408E+02 -0.29155949560E+02 -0.88662135140E+02  0.94827445608E+02  0.20000006220E+01 0.  0.
         13    1    3    3    0    0  0.16649349408E+02  0.29155949560E+02 -0.20961160094E+02  0.39580950304E+02  0.10566000000E+00 0. -1.
         13    1    4    4    0    0 -0.91048927076E+01 -0.14081180954E+02 -0.45043277968E+02  0.48063362164E+02  0.10566000000E+00 0. -1.
        -13    1    4    4    0    0 -0.10543239777E+01 -0.20019961851E+01 -0.59291736537E+01  0.63471136769E+01  0.10566000000E+00 0.  1.
         14    1    4    4    0    0 -0.64901327229E+01 -0.13072772420E+02 -0.37689683518E+02  0.40416969768E+02  0.00000000000E+00 0. -1.
<mgrwt>
<rscale>  0 0.77771139E+02</rscale>
<asrwt>0</asrwt>
<pdfrwt beam="1">  1        1 0.19065463E-02 0.77771139E+02</pdfrwt>
<pdfrwt beam="2">  1       -2 0.18771668E-01 0.77771139E+02</pdfrwt>
<totfact> 0.10824028E+05</totfact>
</mgrwt>
</event>
<event>
 8    1  0.1241100E-020  0.7884269E+02  0.7818608E-02  0.1332368E+00
         -2   -1    0    0    0  501 -0.00000000000E+00  0.00000000000E+00  0.28425504888E+03  0.28425504889E+03  0.25500000000E-02 0.  1.
          1   -1    0    0  501    0  0.00000000000E+00 -0.00000000000E+00 -0.54670698951E+01  0.54670722182E+01  0.50400000000E-02 0. -1.
        -24    2    1    2    0    0  0.00000000000E+00  0.00000000000E+00  0.27878797899E+03  0.28972212111E+03  0.78842692964E+02 0.  0.
         66    2    3    3    0    0  0.21640144680E+02  0.76673795662E+01  0.25712808923E+03  0.25815874741E+03  0.20000052854E+01 0.  0.
         13    1    3    3    0    0 -0.21640144680E+02 -0.76673795662E+01  0.21659889754E+02  0.31563373701E+02  0.10566000000E+00 0. -1.
         13    1    4    4    0    0  0.15276277937E+01  0.33842937458E+00  0.16213505029E+02  0.16289170957E+02  0.10566000000E+00 0. -1.
        -13    1    4    4    0    0  0.16778400659E+02  0.55463864490E+01  0.20227113355E+03  0.20304162076E+03  0.10566000000E+00 0.  1.
        -14    1    4    4    0    0  0.33341162272E+01  0.17825637426E+01  0.38643450656E+02  0.38827955690E+02  0.00000000000E+00 0.  1.
<mgrwt>
<rscale>  0 0.78842693E+02</rscale>
<asrwt>0</asrwt>
<pdfrwt beam="1">  1        1 0.84108791E-03 0.78842693E+02</pdfrwt>
<pdfrwt beam="2">  1       -2 0.43731543E-01 0.78842693E+02</pdfrwt>
<totfact> 0.75093268E+04</totfact>
</mgrwt>
</event>
<event>
 8    1  0.1241100E-020  0.8069131E+02  0.7818608E-02  0.1327101E+00
         -2   -1    0    0    0  501 -0.00000000000E+00  0.00000000000E+00  0.13214042131E+02  0.13214042377E+02  0.25500000000E-02 0.  1.
          1   -1    0    0  501    0  0.00000000000E+00 -0.00000000000E+00 -0.12318500331E+03  0.12318500341E+03  0.50400000000E-02 0. -1.
        -24    2    1    2    0    0  0.00000000000E+00  0.17763568394E-14 -0.10997096118E+03  0.13639904579E+03  0.80691309259E+02 0.  0.
         66    2    3    3    0    0  0.18714187816E+02  0.15051192073E+02 -0.27045453587E+00  0.24100463741E+02  0.19999996097E+01 0.  0.
         13    1    3    3    0    0 -0.18714187816E+02 -0.15051192073E+02 -0.10970050664E+03  0.11229858205E+03  0.10566000000E+00 0. -1.
         13    1    4    4    0    0  0.13606437074E+02  0.11724636557E+02 -0.14432807165E+00  0.17962021792E+02  0.10566000000E+00 0.  1.
        -13    1    4    4    0    0  0.97510730868E+00  0.90623583987E+00  0.13440126654E+00  0.13421346419E+01  0.10566000000E+00 0. -1.
         14    1    4    4    0    0  0.41326434338E+01  0.24203196770E+01 -0.26052773076E+00  0.47963073075E+01  0.00000000000E+00 0. -1.
<mgrwt>
<rscale>  0 0.80691309E+02</rscale>
<asrwt>0</asrwt>
<pdfrwt beam="1">  1        1 0.18951538E-01 0.80691309E+02</pdfrwt>
<pdfrwt beam="2">  1       -2 0.20329297E-02 0.80691309E+02</pdfrwt>
<totfact> 0.14888222E+05</totfact>
</mgrwt>
</event>
<event>
 8    1  0.1241100E-020  0.8221567E+02  0.7818608E-02  0.1322879E+00
         -2   -1    0    0    0  501 -0.00000000000E+00  0.00000000000E+00  0.85356243703E+02  0.85356243741E+02  0.25500000000E-02 0.  1.
          1   -1    0    0  501    0  0.00000000000E+00 -0.00000000000E+00 -0.19797660633E+02  0.19797661274E+02  0.50400000000E-02 0. -1.
        -24    2    1    2    0    0  0.35527136788E-14  0.00000000000E+00  0.65558583070E+02  0.10515390502E+03  0.82215667155E+02 0.  0.
         66    2    3    3    0    0 -0.27215580003E+02 -0.27904308597E+02  0.49401561120E+02  0.62959133355E+02  0.19999996336E+01 0.  0.
         13    1    3    3    0    0  0.27215580003E+02  0.27904308597E+02  0.16157021950E+02  0.42194771661E+02  0.10566000000E+00 0. -1.
         13    1    4    4    0    0 -0.44251937086E+01 -0.39603823544E+01  0.78028044332E+01  0.98062168449E+01  0.10566000000E+00 0. -1.
        -13    1    4    4    0    0 -0.98698863067E+01 -0.11358136484E+02  0.18596050292E+02  0.23921667388E+02  0.10566000000E+00 0.  1.
        -14    1    4    4    0    0 -0.12920499988E+02 -0.12585789758E+02  0.23002706395E+02  0.29231249122E+02  0.00000000000E+00 0.  1.
<mgrwt>
<rscale>  0 0.82215667E+02</rscale>
<asrwt>0</asrwt>
<pdfrwt beam="1">  1        1 0.30457940E-02 0.82215667E+02</pdfrwt>
<pdfrwt beam="2">  1       -2 0.13131730E-01 0.82215667E+02</pdfrwt>
<totfact> 0.10275329E+05</totfact>
</mgrwt>
</event>
<event>
 8    1  0.1241100E-020  0.8004937E+02  0.7818608E-02  0.1328911E+00
         -2   -1    0    0    0  501 -0.00000000000E+00  0.00000000000E+00  0.27977474462E+02  0.27977474578E+02  0.25500000000E-02 0.  1.
          1   -1    0    0  501    0  0.00000000000E+00 -0.00000000000E+00 -0.57259466832E+02  0.57259467054E+02  0.50400000000E-02 0. -1.
        -24    2    1    2    0    0  0.88817841970E-15  0.00000000000E+00 -0.29281992370E+02  0.85236941632E+02  0.80049366903E+02 0.  0.
         66    2    3    3    0    0 -0.54122558367E+01 -0.20073184449E+02  0.21736699879E+02  0.30144806349E+02  0.19999952588E+01 0.  0.
         13    1    3    3    0    0  0.54122558367E+01  0.20073184449E+02 -0.51018692249E+02  0.55092135283E+02  0.10566000000E+00 0. -1.
         13    1    4    4    0    0 -0.35852821518E+00 -0.12559747316E+01  0.15316245688E+01  0.20157015808E+01  0.10566000000E+00 0.  1.
        -13    1    4    4    0    0 -0.44527416882E+01 -0.14349259478E+02  0.14785824412E+02  0.21079846387E+02  0.10566000000E+00 0.  1.
        -14    1    4    4    0    0 -0.60098593329E+00 -0.44679502393E+01  0.54192508984E+01  0.70492583818E+01  0.00000000000E+00 0.  1.
<mgrwt>
<rscale>  0 0.80049367E+02</rscale>
<asrwt>0</asrwt>
<pdfrwt beam="1">  1        1 0.88091488E-02 0.80049367E+02</pdfrwt>
<pdfrwt beam="2">  1       -2 0.43042268E-02 0.80049367E+02</pdfrwt>
<totfact> 0.13416870E+05</totfact>
</mgrwt>
</event>
<event>
 8    1  0.1241100E-020  0.7703387E+02  0.7818608E-02  0.1337686E+00
          1   -1    0    0  501    0  0.00000000000E+00  0.00000000000E+00  0.17321742507E+03  0.17321742514E+03  0.50400000000E-02 0. -1.
         -2   -1    0    0    0  501 -0.00000000000E+00 -0.00000000000E+00 -0.85646945738E+01  0.85646949534E+01  0.25500000000E-02 0.  1.
        -24    2    1    2    0    0  0.00000000000E+00  0.00000000000E+00  0.16465273049E+03  0.18178212009E+03  0.77033872595E+02 0.  0.
         66    2    3    3    0    0 -0.20152577748E+02 -0.16933417019E+02  0.16111160703E+02  0.30926307737E+02  0.20000023067E+01 0.  0.
         13    1    3    3    0    0  0.20152577748E+02  0.16933417019E+02  0.14854156979E+03  0.15085581236E+03  0.10566000000E+00 0. -1.
         13    1    4    4    0    0 -0.56205952857E+00 -0.72230555890E+00  0.63935368522E+00  0.11214158036E+01  0.10566000000E+00 0. -1.
        -13    1    4    4    0    0 -0.63621594890E+01 -0.59685442138E+01  0.58696902576E+01  0.10514990307E+02  0.10566000000E+00 0.  1.
        -14    1    4    4    0    0 -0.13228358731E+02 -0.10242567246E+02  0.96021167600E+01  0.19289901627E+02  0.00000000000E+00 0.  1.
<mgrwt>
<rscale>  0 0.77033873E+02</rscale>
<asrwt>0</asrwt>
<pdfrwt beam="1">  1        1 0.26648836E-01 0.77033873E+02</pdfrwt>
<pdfrwt beam="2">  1       -2 0.13176453E-02 0.77033873E+02</pdfrwt>
<totfact> 0.17932179E+05</totfact>
</mgrwt>
</event>
<event>
 8    1  0.1241100E-020  0.8011633E+02  0.7818608E-02  0.1328722E+00
         -2   -1    0    0    0  501 -0.00000000000E+00  0.00000000000E+00  0.72950462693E+02  0.72950462737E+02  0.25500000000E-02 0.  1.
          1   -1    0    0  501    0  0.00000000000E+00 -0.00000000000E+00 -0.21996522660E+02  0.21996523237E+02  0.50400000000E-02 0. -1.
        -24    2    1    2    0    0  0.00000000000E+00 -0.71054273576E-14  0.50953940033E+02  0.94946985974E+02  0.80116328802E+02 0.  0.
         66    2    3    3    0    0 -0.22586771491E+02 -0.32977278293E+02  0.22845871609E+02  0.46082501893E+02  0.20000002966E+01 0.  0.
         13    1    3    3    0    0  0.22586771491E+02  0.32977278293E+02  0.28108068424E+02  0.48864484081E+02  0.10566000000E+00 0. -1.
         13    1    4    4    0    0 -0.65464258183E+01 -0.91249689272E+01  0.60038964424E+01  0.12734939554E+02  0.10566000000E+00 0. -1.
        -13    1    4    4    0    0 -0.62030146919E+01 -0.10496103542E+02  0.73087683754E+01  0.14215303023E+02  0.10566000000E+00 0.  1.
        -14    1    4    4    0    0 -0.98373309807E+01 -0.13356205824E+02  0.95332067914E+01  0.19132259317E+02  0.00000000000E+00 0.  1.
<mgrwt>
<rscale>  0 0.80116329E+02</rscale>
<asrwt>0</asrwt>
<pdfrwt beam="1">  1        1 0.33840805E-02 0.80116329E+02</pdfrwt>
<pdfrwt beam="2">  1       -2 0.11223148E-01 0.80116329E+02</pdfrwt>
<totfact> 0.11353167E+05</totfact>
</mgrwt>
</event>
<event>
 8    1  0.1241100E-020  0.7868725E+02  0.7818608E-02  0.1332819E+00
          1   -1    0    0  501    0  0.00000000000E+00  0.00000000000E+00  0.78694318087E+01  0.78694334226E+01  0.50400000000E-02 0. -1.
         -2   -1    0    0    0  501 -0.00000000000E+00 -0.00000000000E+00 -0.19670045819E+03  0.19670045821E+03  0.25500000000E-02 0.  1.
        -24    2    1    2    0    0  0.00000000000E+00  0.35527136788E-14 -0.18883102638E+03  0.20456989163E+03  0.78687254603E+02 0.  0.
         66    2    3    3    0    0  0.27219486963E+02 -0.27984920953E+02 -0.10663149158E+03  0.11357082044E+03  0.19999969991E+01 0.  0.
         13    1    3    3    0    0 -0.27219486963E+02  0.27984920953E+02 -0.82199534799E+02  0.90999071185E+02  0.10566000000E+00 0. -1.
         13    1    4    4    0    0  0.39488668400E+01 -0.32291296770E+01 -0.13274707472E+02  0.14221457389E+02  0.10566000000E+00 0. -1.
        -13    1    4    4    0    0  0.10406634507E+02 -0.11306399254E+02 -0.41418039486E+02  0.44176892883E+02  0.10566000000E+00 0.  1.
         14    1    4    4    0    0  0.12863985617E+02 -0.13449392022E+02 -0.51938744624E+02  0.55172470171E+02  0.00000000000E+00 0. -1.
<mgrwt>
<rscale>  0 0.78687255E+02</rscale>
<asrwt>0</asrwt>
<pdfrwt beam="1">  1        1 0.12106821E-02 0.78687255E+02</pdfrwt>
<pdfrwt beam="2">  1       -2 0.30261605E-01 0.78687255E+02</pdfrwt>
<totfact> 0.89380866E+04</totfact>
</mgrwt>
</event>
<event>
 8    1  0.1241100E-020  0.7903317E+02  0.7818608E-02  0.1331818E+00
         -2   -1    0    0    0  501 -0.00000000000E+00  0.00000000000E+00  0.63225150080E+02  0.63225150132E+02  0.25500000000E-02 0.  1.
          1   -1    0    0  501    0  0.00000000000E+00 -0.00000000000E+00 -0.24698408360E+02  0.24698408874E+02  0.50400000000E-02 0. -1.
        -24    2    1    2    0    0 -0.71054273576E-14  0.00000000000E+00  0.38526741720E+02  0.87923559006E+02  0.79033172787E+02 0.  0.
         66    2    3    3    0    0  0.34761616386E+02 -0.17030463651E+02  0.27975096061E+02  0.47801806102E+02  0.20000002560E+01 0.  0.
         13    1    3    3    0    0 -0.34761616386E+02  0.17030463651E+02  0.10551645659E+02  0.40121752904E+02  0.10566000000E+00 0. -1.
         13    1    4    4    0    0  0.77814315552E+00 -0.20301500437E+00  0.44404470314E+00  0.92469540740E+00  0.10566000000E+00 0. -1.
        -13    1    4    4    0    0  0.18384574306E+02 -0.86268002323E+01  0.14219877120E+02  0.24791739028E+02  0.10566000000E+00 0.  1.
         14    1    4    4    0    0  0.15598898924E+02 -0.82006484143E+01  0.13311174238E+02  0.22085371667E+02  0.00000000000E+00 0. -1.
<mgrwt>
<rscale>  0 0.79033173E+02</rscale>
<asrwt>0</asrwt>
<pdfrwt beam="1">  1        1 0.37997552E-02 0.79033173E+02</pdfrwt>
<pdfrwt beam="2">  1       -2 0.97269461E-02 0.79033173E+02</pdfrwt>
<totfact> 0.12089143E+05</totfact>
</mgrwt>
</event>
<event>
 8    1  0.1241100E-020  0.7705264E+02  0.7818608E-02  0.1337630E+00
         -2   -1    0    0    0  501 -0.00000000000E+00  0.00000000000E+00  0.10616312541E+02  0.10616312847E+02  0.25500000000E-02 0.  1.
          1   -1    0    0  501    0  0.00000000000E+00 -0.00000000000E+00 -0.13981098838E+03  0.13981098847E+03  0.50400000000E-02 0. -1.
        -24    2    1    2    0    0  0.00000000000E+00  0.00000000000E+00 -0.12919467584E+03  0.15042730132E+03  0.77052636015E+02 0.  0.
         66    2    3    3    0    0  0.23583130134E+02 -0.15652810802E+02 -0.13690772979E+02  0.31505742075E+02  0.20000014965E+01 0.  0.
         13    1    3    3    0    0 -0.23583130134E+02  0.15652810802E+02 -0.11550390286E+03  0.11892155925E+03  0.10566000000E+00 0. -1.
         13    1    4    4    0    0  0.74902899295E+01 -0.42567008593E+01 -0.35530542805E+01  0.93198339142E+01  0.10566000000E+00 0. -1.
        -13    1    4    4    0    0  0.13085480973E+02 -0.90566615748E+01 -0.84530022166E+01  0.18019915141E+02  0.10566000000E+00 0.  1.
        -14    1    4    4    0    0  0.30073592321E+01 -0.23394483683E+01 -0.16847164817E+01  0.41659930199E+01  0.00000000000E+00 0.  1.
<mgrwt>
<rscale>  0 0.77052636E+02</rscale>
<asrwt>0</asrwt>
<pdfrwt beam="1">  1        1 0.21509382E-01 0.77052636E+02</pdfrwt>
<pdfrwt beam="2">  1       -2 0.16332790E-02 0.77052636E+02</pdfrwt>
<totfact> 0.17229869E+05</totfact>
</mgrwt>
</event>
<event>
 8    1  0.1241100E-020  0.8103734E+02  0.7818608E-02  0.1326133E+00
         -2   -1    0    0    0  501 -0.00000000000E+00  0.00000000000E+00  0.54757360908E+02  0.54757360968E+02  0.25500000000E-02 0.  1.
          1   -1    0    0  501    0  0.00000000000E+00 -0.00000000000E+00 -0.29982502849E+02  0.29982503273E+02  0.50400000000E-02 0. -1.
        -24    2    1    2    0    0 -0.35527136788E-14  0.00000000000E+00  0.24774858059E+02  0.84739864240E+02  0.81037343241E+02 0.  0.
         66    2    3    3    0    0  0.25359463160E+02 -0.17961877732E+02  0.39543151121E+02  0.50332814564E+02  0.19999994959E+01 0.  0.
         13    1    3    3    0    0 -0.25359463160E+02  0.17961877732E+02 -0.14768293062E+02  0.34407049676E+02  0.10566000000E+00 0. -1.
         13    1    4    4    0    0  0.48787629271E+00 -0.30619150952E+00  0.74892615699E+00  0.95070023757E+00  0.10566000000E+00 0.  1.
        -13    1    4    4    0    0  0.23996451276E+02 -0.16763594455E+02  0.37625058133E+02  0.47670787035E+02  0.10566000000E+00 0.  1.
        -14    1    4    4    0    0  0.87513559081E+00 -0.89209176728E+00  0.11691668305E+01  0.17113272922E+01  0.00000000000E+00 0.  1.
<mgrwt>
<rscale>  0 0.81037343E+02</rscale>
<asrwt>0</asrwt>
<pdfrwt beam="1">  1        1 0.46126928E-02 0.81037343E+02</pdfrwt>
<pdfrwt beam="2">  1       -2 0.84242093E-02 0.81037343E+02</pdfrwt>
<totfact> 0.11653311E+05</totfact>
</mgrwt>
</event>
<event>
 8    1  0.1241100E-020  0.6942225E+02  0.7818608E-02  0.1362069E+00
          1   -1    0    0  501    0  0.00000000000E+00  0.00000000000E+00  0.57185336827E+02  0.57185337049E+02  0.50400000000E-02 0. -1.
         -2   -1    0    0    0  501 -0.00000000000E+00 -0.00000000000E+00 -0.21069426056E+02  0.21069426210E+02  0.25500000000E-02 0.  1.
        -24    2    1    2    0    0  0.00000000000E+00 -0.35527136788E-14  0.36115910772E+02  0.78254763259E+02  0.69422251202E+02 0.  0.
         66    2    3    3    0    0 -0.19430481220E+02 -0.28450086489E+02  0.22568617126E+02  0.41234615356E+02  0.20000007203E+01 0.  0.
         13    1    3    3    0    0  0.19430481220E+02  0.28450086489E+02  0.13547293645E+02  0.37020147904E+02  0.10566000000E+00 0. -1.
         13    1    4    4    0    0 -0.63894206660E+01 -0.78611381673E+01  0.70011983522E+01  0.12314630816E+02  0.10566000000E+00 0. -1.
        -13    1    4    4    0    0 -0.59402073533E+01 -0.95151521857E+01  0.71844031221E+01  0.13321073409E+02  0.10566000000E+00 0.  1.
         14    1    4    4    0    0 -0.71008532003E+01 -0.11073796136E+02  0.83830156520E+01  0.15598911131E+02  0.00000000000E+00 0. -1.
<mgrwt>
<rscale>  0 0.69422251E+02</rscale>
<asrwt>0</asrwt>
<pdfrwt beam="1">  1        1 0.87977441E-02 0.69422251E+02</pdfrwt>
<pdfrwt beam="2">  1       -2 0.32414502E-02 0.69422251E+02</pdfrwt>
<totfact> 0.19785561E+05</totfact>
</mgrwt>
</event>
<event>
 8    1  0.1373029E-020  0.7925480E+02  0.7818608E-02  0.1331180E+00
         -2   -1    0    0    0  501 -0.00000000000E+00  0.00000000000E+00  0.33393208536E+02  0.33393208634E+02  0.25500000000E-02 0.  1.
          1   -1    0    0  501    0  0.00000000000E+00 -0.00000000000E+00 -0.47025453426E+02  0.47025453696E+02  0.50400000000E-02 0. -1.
        -24    2    1    2    0    0  0.17763568394E-14  0.45102810375E-16 -0.13632244889E+02  0.80418662330E+02  0.79254798909E+02 0.  0.
         66    2    3    3    0    0  0.11696530957E+02 -0.18684268986E-01  0.31570553914E+02  0.33726978174E+02  0.19999991975E+01 0.  0.
         13    1    3    3    0    0 -0.11696530957E+02  0.18684268986E-01 -0.45202798804E+02  0.46691684155E+02  0.10566000000E+00 0. -1.
         13    1    4    4    0    0  0.22419210643E+01 -0.39207424850E+00  0.47538902965E+01  0.52716761340E+01  0.10566000000E+00 0. -1.
        -13    1    4    4    0    0  0.57575293426E+01 -0.25992846600E+00  0.15991809085E+02  0.16998994934E+02  0.10566000000E+00 0.  1.
         14    1    4    4    0    0  0.36970805505E+01  0.63331844552E+00  0.10824854533E+02  0.11456307106E+02  0.00000000000E+00 0. -1.
<mgrwt>
<rscale>  0 0.79254799E+02</rscale>
<asrwt>0</asrwt>
<pdfrwt beam="1">  1        1 0.72346852E-02 0.79254799E+02</pdfrwt>
<pdfrwt beam="2">  1       -2 0.51374167E-02 0.79254799E+02</pdfrwt>
<totfact> 0.13375024E+05</totfact>
</mgrwt>
</event>
<event>
 8    1  0.1241100E-020  0.7989453E+02  0.7818608E-02  0.1329351E+00
         -2   -1    0    0    0  501 -0.00000000000E+00  0.00000000000E+00  0.55637052660E+02  0.55637052718E+02  0.25500000000E-02 0.  1.
          1   -1    0    0  501    0  0.00000000000E+00 -0.00000000000E+00 -0.28682039093E+02  0.28682039536E+02  0.50400000000E-02 0. -1.
        -24    2    1    2    0    0  0.00000000000E+00  0.71054273576E-14  0.26955013566E+02  0.84319092254E+02  0.79894533995E+02 0.  0.
         66    2    3    3    0    0 -0.10624633485E+01  0.19683310758E+02  0.50124758594E+02  0.53898543287E+02  0.19999984173E+01 0.  0.
         13    1    3    3    0    0  0.10624633485E+01 -0.19683310758E+02 -0.23169745027E+02  0.30420548967E+02  0.10566000000E+00 0. -1.
         13    1    4    4    0    0  0.38321725718E+00  0.25776451644E+01  0.74647316553E+01  0.79072430582E+01  0.10566000000E+00 0. -1.
        -13    1    4    4    0    0 -0.91470632282E+00  0.68888493759E+01  0.16759629566E+02  0.18143574086E+02  0.10566000000E+00 0.  1.
         14    1    4    4    0    0 -0.53097428287E+00  0.10216816218E+02  0.25900397372E+02  0.27847726143E+02  0.00000000000E+00 0. -1.
<mgrwt>
<rscale>  0 0.79894534E+02</rscale>
<asrwt>0</asrwt>
<pdfrwt beam="1">  1        1 0.44126215E-02 0.79894534E+02</pdfrwt>
<pdfrwt beam="2">  1       -2 0.85595465E-02 0.79894534E+02</pdfrwt>
<totfact> 0.12043854E+05</totfact>
</mgrwt>
</event>
<event>
 8    1  0.1241100E-020  0.8128411E+02  0.7818608E-02  0.1325446E+00
         -2   -1    0    0    0  501 -0.00000000000E+00  0.00000000000E+00  0.24853051730E+03  0.24853051732E+03  0.25500000000E-02 0.  1.
          1   -1    0    0  501    0  0.00000000000E+00 -0.00000000000E+00 -0.66461709819E+01  0.66461728929E+01  0.50400000000E-02 0. -1.
        -24    2    1    2    0    0  0.00000000000E+00  0.00000000000E+00  0.24188434632E+03  0.25517669021E+03  0.81284108108E+02 0.  0.
         66    2    3    3    0    0  0.36350189140E+02  0.14389764339E+02  0.15560044849E+03  0.16044906089E+03  0.20000001418E+01 0.  0.
         13    1    3    3    0    0 -0.36350189140E+02 -0.14389764339E+02  0.86283897829E+02  0.94727629322E+02  0.10566000000E+00 0. -1.
         13    1    4    4    0    0  0.17203195440E+02  0.65321331820E+01  0.74114454922E+02  0.76364797451E+02  0.10566000000E+00 0. -1.
        -13    1    4    4    0    0  0.18739101575E+02  0.77414540499E+01  0.78889009202E+02  0.81452875797E+02  0.10566000000E+00 0.  1.
         14    1    4    4    0    0  0.40789212436E+00  0.11617710759E+00  0.25969843673E+01  0.26313876395E+01  0.00000000000E+00 0. -1.
<mgrwt>
<rscale>  0 0.81284108E+02</rscale>
<asrwt>0</asrwt>
<pdfrwt beam="1">  1        1 0.10224882E-02 0.81284108E+02</pdfrwt>
<pdfrwt beam="2">  1       -2 0.38235458E-01 0.81284108E+02</pdfrwt>
<totfact> 0.74214546E+04</totfact>
</mgrwt>
</event>
<event>
 8    1  0.1241100E-020  0.8790190E+02  0.7818608E-02  0.1308014E+00
          1   -1    0    0  501    0  0.00000000000E+00  0.00000000000E+00  0.34063568117E+03  0.34063568121E+03  0.50400000000E-02 0. -1.
         -2   -1    0    0    0  501 -0.00000000000E+00 -0.00000000000E+00 -0.56708264141E+01  0.56708269874E+01  0.25500000000E-02 0.  1.
        -24    2    1    2    0    0  0.00000000000E+00  0.00000000000E+00  0.33496485476E+03  0.34630650820E+03  0.87901898139E+02 0.  0.
         66    2    3    3    0    0  0.10935578967E+02 -0.38635648849E+02  0.97382549237E+02  0.10535492943E+03  0.20000025212E+01 0.  0.
         13    1    3    3    0    0 -0.10935578967E+02  0.38635648849E+02  0.23758230552E+03  0.24095157877E+03  0.10566000000E+00 0. -1.
         13    1    4    4    0    0  0.13453664930E+01 -0.55592417893E+01  0.12761447183E+02  0.13985023364E+02  0.10566000000E+00 0. -1.
        -13    1    4    4    0    0  0.25848517914E+01 -0.70493053044E+01  0.18732248569E+02  0.20181240412E+02  0.10566000000E+00 0.  1.
         14    1    4    4    0    0  0.70053606826E+01 -0.26027101755E+02  0.65888853485E+02  0.71188665654E+02  0.00000000000E+00 0. -1.
<mgrwt>
<rscale>  0 0.87901898E+02</rscale>
<asrwt>0</asrwt>
<pdfrwt beam="1">  1        1 0.52405500E-01 0.87901898E+02</pdfrwt>
<pdfrwt beam="2">  1       -2 0.87243471E-03 0.87901898E+02</pdfrwt>
<totfact> 0.14399836E+05</totfact>
</mgrwt>
</event>
<event>
 8    1  0.1241100E-020  0.8116822E+02  0.7818608E-02  0.1325769E+00
         -2   -1    0    0    0  501 -0.00000000000E+00  0.00000000000E+00  0.21570322954E+03  0.21570322956E+03  0.25500000000E-02 0.  1.
          1   -1    0    0  501    0  0.00000000000E+00 -0.00000000000E+00 -0.76358142061E+01  0.76358158694E+01  0.50400000000E-02 0. -1.
        -24    2    1    2    0    0  0.35527136788E-14  0.00000000000E+00  0.20806741534E+03  0.22333904543E+03  0.81168219689E+02 0.  0.
         66    2    3    3    0    0  0.31548203238E+02  0.17351978845E+02  0.15547680977E+03  0.15960394320E+03  0.20000033134E+01 0.  0.
         13    1    3    3    0    0 -0.31548203238E+02 -0.17351978845E+02  0.52590605573E+02  0.63735102228E+02  0.10566000000E+00 0. -1.
         13    1    4    4    0    0  0.30979414438E+01  0.12198698307E+01  0.14955064940E+02  0.15321568294E+02  0.10566000000E+00 0. -1.
        -13    1    4    4    0    0  0.48642513511E+01  0.28166571407E+01  0.26105160950E+02  0.26703653138E+02  0.10566000000E+00 0.  1.
        -14    1    4    4    0    0  0.23586010443E+02  0.13315451873E+02  0.11441658388E+03  0.11757872177E+03  0.00000000000E+00 0.  1.
<mgrwt>
<rscale>  0 0.81168220E+02</rscale>
<asrwt>0</asrwt>
<pdfrwt beam="1">  1        1 0.11747409E-02 0.81168220E+02</pdfrwt>
<pdfrwt beam="2">  1       -2 0.33185109E-01 0.81168220E+02</pdfrwt>
<totfact> 0.79407956E+04</totfact>
</mgrwt>
</event>
<event>
 8    1  0.1241100E-020  0.8175918E+02  0.7818608E-02  0.1324132E+00
          1   -1    0    0  501    0  0.00000000000E+00  0.00000000000E+00  0.96365309927E+01  0.96365323106E+01  0.50400000000E-02 0. -1.
         -2   -1    0    0    0  501 -0.00000000000E+00 -0.00000000000E+00 -0.17341724063E+03  0.17341724065E+03  0.25500000000E-02 0.  1.
        -24    2    1    2    0    0  0.00000000000E+00  0.00000000000E+00 -0.16378070964E+03  0.18305377296E+03  0.81759176521E+02 0.  0.
         66    2    3    3    0    0  0.43574980481E+01 -0.34736251325E+02 -0.12909218139E+03  0.13376990033E+03  0.19999982240E+01 0.  0.
         13    1    3    3    0    0 -0.43574980481E+01  0.34736251325E+02 -0.34688528246E+02  0.49283872628E+02  0.10566000000E+00 0. -1.
         13    1    4    4    0    0  0.66349245061E+00 -0.91441232810E+01 -0.36550681513E+02  0.37683135431E+02  0.10566000000E+00 0. -1.
        -13    1    4    4    0    0  0.17535403250E+01 -0.13183627890E+02 -0.47891407798E+02  0.49703933978E+02  0.10566000000E+00 0.  1.
         14    1    4    4    0    0  0.19404652725E+01 -0.12408500153E+02 -0.44650092081E+02  0.46382830922E+02  0.00000000000E+00 0. -1.
<mgrwt>
<rscale>  0 0.81759177E+02</rscale>
<asrwt>0</asrwt>
<pdfrwt beam="1">  1        1 0.14825435E-02 0.81759177E+02</pdfrwt>
<pdfrwt beam="2">  1       -2 0.26679573E-01 0.81759177E+02</pdfrwt>
<totfact> 0.84977812E+04</totfact>
</mgrwt>
</event>
<event>
 8    1  0.1241100E-020  0.7905047E+02  0.7818608E-02  0.1331768E+00
          1   -1    0    0  501    0  0.00000000000E+00  0.00000000000E+00  0.68899395035E+02  0.68899395219E+02  0.50400000000E-02 0. -1.
         -2   -1    0    0    0  501 -0.00000000000E+00 -0.00000000000E+00 -0.22674279032E+02  0.22674279175E+02  0.25500000000E-02 0.  1.
        -24    2    1    2    0    0  0.00000000000E+00  0.17763568394E-14  0.46225116003E+02  0.91573674394E+02  0.79050468010E+02 0.  0.
         66    2    3    3    0    0 -0.61514086192E+01  0.14169748566E+02 -0.18985972079E+02  0.24557864503E+02  0.19999926820E+01 0.  0.
         13    1    3    3    0    0  0.61514086192E+01 -0.14169748566E+02  0.65211088083E+02  0.67015809891E+02  0.10566000000E+00 0. -1.
         13    1    4    4    0    0 -0.43908672754E+01  0.86020313976E+01 -0.12020878657E+02  0.15420354967E+02  0.10566000000E+00 0. -1.
        -13    1    4    4    0    0 -0.14208057950E+01  0.30431754171E+01 -0.37397528888E+01  0.50275760989E+01  0.10566000000E+00 0.  1.
         14    1    4    4    0    0 -0.33973554879E+00  0.25245417511E+01 -0.32253405337E+01  0.41099334368E+01  0.00000000000E+00 0. -1.
<mgrwt>
<rscale>  0 0.79050468E+02</rscale>
<asrwt>0</asrwt>
<pdfrwt beam="1">  1        1 0.10599907E-01 0.79050468E+02</pdfrwt>
<pdfrwt beam="2">  1       -2 0.34883507E-02 0.79050468E+02</pdfrwt>
<totfact> 0.14295616E+05</totfact>
</mgrwt>
</event>
<event>
 8    1  0.1241100E-020  0.7611182E+02  0.7818608E-02  0.1340462E+00
         -2   -1    0    0    0  501 -0.00000000000E+00  0.00000000000E+00  0.11458033126E+02  0.11458033410E+02  0.25500000000E-02 0.  1.
          1   -1    0    0  501    0  0.00000000000E+00 -0.00000000000E+00 -0.12639625149E+03  0.12639625159E+03  0.50400000000E-02 0. -1.
        -24    2    1    2    0    0  0.00000000000E+00  0.00000000000E+00 -0.11493821836E+03  0.13785428500E+03  0.76111824655E+02 0.  0.
         66    2    3    3    0    0  0.18505125556E+02  0.23105112368E+02 -0.14268154644E+02  0.32922122234E+02  0.20000015277E+01 0.  0.
         13    1    3    3    0    0 -0.18505125556E+02 -0.23105112368E+02 -0.10067006372E+03  0.10493216277E+03  0.10566000000E+00 0. -1.
         13    1    4    4    0    0  0.64798944793E+01  0.74337964558E+01 -0.51645879355E+01  0.11132587066E+02  0.10566000000E+00 0. -1.
        -13    1    4    4    0    0  0.10745579491E+02  0.14595544940E+02 -0.83559395573E+01  0.19958213864E+02  0.10566000000E+00 0.  1.
         14    1    4    4    0    0  0.12796515853E+01  0.10757709718E+01 -0.74762715084E+00  0.18313213045E+01  0.00000000000E+00 0. -1.
<mgrwt>
<rscale>  0 0.76111825E+02</rscale>
<asrwt>0</asrwt>
<pdfrwt beam="1">  1        1 0.19445576E-01 0.76111825E+02</pdfrwt>
<pdfrwt beam="2">  1       -2 0.17627744E-02 0.76111825E+02</pdfrwt>
<totfact> 0.17488765E+05</totfact>
</mgrwt>
</event>
<event>
 8    1  0.1241100E-020  0.7918618E+02  0.7818608E-02  0.1331377E+00
          1   -1    0    0  501    0  0.00000000000E+00  0.00000000000E+00  0.64127035139E+02  0.64127035337E+02  0.50400000000E-02 0. -1.
         -2   -1    0    0    0  501 -0.00000000000E+00 -0.00000000000E+00 -0.24445427719E+02  0.24445427852E+02  0.25500000000E-02 0.  1.
        -24    2    1    2    0    0 -0.35527136788E-14  0.71054273576E-14  0.39681607420E+02  0.88572463189E+02  0.79186181041E+02 0.  0.
         66    2    3    3    0    0 -0.17296010137E+02  0.34811200037E+02  0.11585628240E+02  0.40610323696E+02  0.19999985712E+01 0.  0.
         13    1    3    3    0    0  0.17296010137E+02 -0.34811200037E+02  0.28095979180E+02  0.47962139493E+02  0.10566000000E+00 0. -1.
         13    1    4    4    0    0 -0.25288799540E+01  0.47671377436E+01  0.18039323197E+01  0.56908849872E+01  0.10566000000E+00 0. -1.
        -13    1    4    4    0    0 -0.12580134321E+02  0.26724901179E+02  0.88748741964E+01  0.30842416873E+02  0.10566000000E+00 0.  1.
        -14    1    4    4    0    0 -0.21869958628E+01  0.33191611142E+01  0.90682172413E+00  0.40770218353E+01  0.00000000000E+00 0.  1.
<mgrwt>
<rscale>  0 0.79186181E+02</rscale>
<asrwt>0</asrwt>
<pdfrwt beam="1">  1        1 0.98656976E-02 0.79186181E+02</pdfrwt>
<pdfrwt beam="2">  1       -2 0.37608351E-02 0.79186181E+02</pdfrwt>
<totfact> 0.14069942E+05</totfact>
</mgrwt>
</event>
<event>
 8    1  0.1241100E-020  0.8000276E+02  0.7818608E-02  0.1329044E+00
         -2   -1    0    0    0  501 -0.00000000000E+00  0.00000000000E+00  0.17173039725E+03  0.17173039726E+03  0.25500000000E-02 0.  1.
          1   -1    0    0  501    0  0.00000000000E+00 -0.00000000000E+00 -0.93175720884E+01  0.93175734515E+01  0.50400000000E-02 0. -1.
        -24    2    1    2    0    0  0.00000000000E+00 -0.35527136788E-14  0.16241282516E+03  0.18104797072E+03  0.80002761983E+02 0.  0.
         66    2    3    3    0    0 -0.25019906042E+02  0.25218193621E+02  0.12274830579E+03  0.12780101541E+03  0.19999949846E+01 0.  0.
         13    1    3    3    0    0  0.25019906042E+02 -0.25218193621E+02  0.39664519372E+02  0.53246955302E+02  0.10566000000E+00 0. -1.
         13    1    4    4    0    0 -0.12162974147E+02  0.13379050849E+02  0.60385366953E+02  0.63034440172E+02  0.10566000000E+00 0. -1.
        -13    1    4    4    0    0 -0.99310220287E+01  0.92198204956E+01  0.48771321153E+02  0.50619000578E+02  0.10566000000E+00 0.  1.
         14    1    4    4    0    0 -0.29259098667E+01  0.26193222760E+01  0.13591617679E+02  0.14147574664E+02  0.00000000000E+00 0. -1.
<mgrwt>
<rscale>  0 0.80002762E+02</rscale>
<asrwt>0</asrwt>
<pdfrwt beam="1">  1        1 0.14334728E-02 0.80002762E+02</pdfrwt>
<pdfrwt beam="2">  1       -2 0.26420060E-01 0.80002762E+02</pdfrwt>
<totfact> 0.90192240E+04</totfact>
</mgrwt>
</event>
<event>
 8    1  0.1241100E-020  0.7941439E+02  0.7818608E-02  0.1330722E+00
         -2   -1    0    0    0  501 -0.00000000000E+00  0.00000000000E+00  0.12263205532E+02  0.12263205797E+02  0.25500000000E-02 0.  1.
          1   -1    0    0  501    0  0.00000000000E+00 -0.00000000000E+00 -0.12856846040E+03  0.12856846049E+03  0.50400000000E-02 0. -1.
        -24    2    1    2    0    0  0.00000000000E+00  0.00000000000E+00 -0.11630525486E+03  0.14083166629E+03  0.79414393668E+02 0.  0.
         66    2    3    3    0    0  0.30567115546E+02 -0.22786432099E+02 -0.38675289640E+02  0.54344715223E+02  0.20000008106E+01 0.  0.
         13    1    3    3    0    0 -0.30567115546E+02  0.22786432099E+02 -0.77629965223E+02  0.86486951069E+02  0.10566000000E+00 0. -1.
         13    1    4    4    0    0  0.71631199822E+00 -0.87909354463E+00 -0.13725179297E+01  0.17835015677E+01  0.10566000000E+00 0. -1.
        -13    1    4    4    0    0  0.93326320994E+01 -0.70682411547E+01 -0.11758786552E+02  0.16593320347E+02  0.10566000000E+00 0.  1.
         14    1    4    4    0    0  0.20518171449E+02 -0.14839097400E+02 -0.25543985159E+02  0.35967893308E+02  0.00000000000E+00 0. -1.
<mgrwt>
<rscale>  0 0.79414394E+02</rscale>
<asrwt>0</asrwt>
<pdfrwt beam="1">  1        1 0.19779762E-01 0.79414394E+02</pdfrwt>
<pdfrwt beam="2">  1       -2 0.18866471E-02 0.79414394E+02</pdfrwt>
<totfact> 0.15658111E+05</totfact>
</mgrwt>
</event>
<event>
 8    1  0.1241100E-020  0.7893657E+02  0.7818608E-02  0.1332097E+00
          1   -1    0    0  501    0  0.00000000000E+00  0.00000000000E+00  0.92581174729E+02  0.92581174867E+02  0.50400000000E-02 0. -1.
         -2   -1    0    0    0  501 -0.00000000000E+00 -0.00000000000E+00 -0.16825725579E+02  0.16825725773E+02  0.25500000000E-02 0.  1.
        -24    2    1    2    0    0 -0.44408920985E-15  0.00000000000E+00  0.75755449150E+02  0.10940690064E+03  0.78936568405E+02 0.  0.
         66    2    3    3    0    0  0.31049065434E+01 -0.33086729498E+02  0.84555834290E+01  0.34349221461E+02  0.20000025924E+01 0.  0.
         13    1    3    3    0    0 -0.31049065434E+01  0.33086729498E+02  0.67299865721E+02  0.75057679178E+02  0.10566000000E+00 0. -1.
         13    1    4    4    0    0  0.48383896701E+00 -0.25283091790E+01  0.27831762053E+00  0.25913456319E+01  0.10566000000E+00 0. -1.
        -13    1    4    4    0    0  0.20218261062E+01 -0.27013132015E+02  0.70860920700E+01  0.28000374050E+02  0.10566000000E+00 0.  1.
        -14    1    4    4    0    0  0.59924147025E+00 -0.35452883035E+01  0.10911737385E+01  0.37575017794E+01  0.00000000000E+00 0.  1.
<mgrwt>
<rscale>  0 0.78936568E+02</rscale>
<asrwt>0</asrwt>
<pdfrwt beam="1">  1        1 0.14243258E-01 0.78936568E+02</pdfrwt>
<pdfrwt beam="2">  1       -2 0.25885732E-02 0.78936568E+02</pdfrwt>
<totfact> 0.15046600E+05</totfact>
</mgrwt>
</event>
<event>
 8    1  0.1241100E-020  0.8082006E+02  0.7818608E-02  0.1326740E+00
         -2   -1    0    0    0  501 -0.00000000000E+00  0.00000000000E+00  0.22858209294E+02  0.22858209436E+02  0.25500000000E-02 0.  1.
          1   -1    0    0  501    0  0.00000000000E+00 -0.00000000000E+00 -0.71439128590E+02  0.71439128768E+02  0.50400000000E-02 0. -1.
        -24    2    1    2    0    0  0.00000000000E+00  0.00000000000E+00 -0.48580919296E+02  0.94297338205E+02  0.80820061079E+02 0.  0.
         66    2    3    3    0    0  0.26597977725E+02 -0.15163764099E+02  0.64221543899E+01  0.31347028915E+02  0.19999985070E+01 0.  0.
         13    1    3    3    0    0 -0.26597977725E+02  0.15163764099E+02 -0.55003073686E+02  0.62950309290E+02  0.10566000000E+00 0. -1.
         13    1    4    4    0    0  0.40030651863E+01 -0.21178290538E+01  0.11323616284E+01  0.46693830085E+01  0.10566000000E+00 0. -1.
        -13    1    4    4    0    0  0.18257457711E+02 -0.10104861241E+02  0.48133756136E+01  0.21415478786E+02  0.10566000000E+00 0.  1.
         14    1    4    4    0    0  0.43374548276E+01 -0.29410738046E+01  0.47641714794E+00  0.52621671205E+01  0.00000000000E+00 0. -1.
<mgrwt>
<rscale>  0 0.80820061E+02</rscale>
<asrwt>0</asrwt>
<pdfrwt beam="1">  1        1 0.10990635E-01 0.80820061E+02</pdfrwt>
<pdfrwt beam="2">  1       -2 0.35166476E-02 0.80820061E+02</pdfrwt>
<totfact> 0.13532246E+05</totfact>
</mgrwt>
</event>
<event>
 8    1  0.1241100E-020  0.7640709E+02  0.7818608E-02  0.1339568E+00
         -2   -1    0    0    0  501 -0.00000000000E+00  0.00000000000E+00  0.52415815111E+01  0.52415821314E+01  0.25500000000E-02 0.  1.
          1   -1    0    0  501    0  0.00000000000E+00 -0.00000000000E+00 -0.27844855760E+03  0.27844855765E+03  0.50400000000E-02 0. -1.
        -24    2    1    2    0    0  0.35527136788E-14 -0.71054273576E-14 -0.27320697609E+03  0.28369013978E+03  0.76407091445E+02 0.  0.
         66    2    3    3    0    0 -0.14230086659E+02  0.33719841480E+02 -0.96367566831E+02  0.10310301148E+03  0.19999909003E+01 0.  0.
         13    1    3    3    0    0  0.14230086659E+02 -0.33719841480E+02 -0.17683940926E+03  0.18058712830E+03  0.10566000000E+00 0. -1.
         13    1    4    4    0    0 -0.11846736410E-01  0.11949367936E+00 -0.33578284216E+00  0.37193176425E+00  0.10566000000E+00 0.  1.
        -13    1    4    4    0    0 -0.11111926742E+01  0.30041365914E+01 -0.85752716920E+01  0.91545635858E+01  0.10566000000E+00 0. -1.
        -14    1    4    4    0    0 -0.13107047249E+02  0.30596211209E+02 -0.87456512297E+02  0.93576516130E+02  0.00000000000E+00 0.  1.
<mgrwt>
<rscale>  0 0.76407091E+02</rscale>
<asrwt>0</asrwt>
<pdfrwt beam="1">  1        1 0.42838228E-01 0.76407091E+02</pdfrwt>
<pdfrwt beam="2">  1       -2 0.80639742E-03 0.76407091E+02</pdfrwt>
<totfact> 0.20072249E+05</totfact>
</mgrwt>
</event>
<event>
 8    1  0.1241100E-020  0.7816369E+02  0.7818608E-02  0.1334345E+00
          1   -1    0    0  501    0  0.00000000000E+00  0.00000000000E+00  0.24939491758E+02  0.24939492267E+02  0.50400000000E-02 0. -1.
         -2   -1    0    0    0  501 -0.00000000000E+00 -0.00000000000E+00 -0.61243850602E+02  0.61243850655E+02  0.25500000000E-02 0.  1.
        -24    2    1    2    0    0  0.00000000000E+00  0.00000000000E+00 -0.36304358844E+02  0.86183342922E+02  0.78163688028E+02 0.  0.
         66    2    3    3    0    0  0.14750017932E+02 -0.15698962514E+02 -0.54085219773E+02  0.58251450175E+02  0.19999991649E+01 0.  0.
         13    1    3    3    0    0 -0.14750017932E+02  0.15698962514E+02  0.17780860928E+02  0.27931892747E+02  0.10566000000E+00 0. -1.
         13    1    4    4    0    0  0.38868605315E+01 -0.40195746704E+01 -0.12011975083E+02  0.13250033009E+02  0.10566000000E+00 0. -1.
        -13    1    4    4    0    0  0.45927116150E+01 -0.46982549506E+01 -0.16438958668E+02  0.17703590757E+02  0.10566000000E+00 0.  1.
         14    1    4    4    0    0  0.62704457859E+01 -0.69811328930E+01 -0.25634286022E+02  0.27297826409E+02  0.00000000000E+00 0. -1.
<mgrwt>
<rscale>  0 0.78163688E+02</rscale>
<asrwt>0</asrwt>
<pdfrwt beam="1">  1        1 0.38368450E-02 0.78163688E+02</pdfrwt>
<pdfrwt beam="2">  1       -2 0.94221308E-02 0.78163688E+02</pdfrwt>
<totfact> 0.12507212E+05</totfact>
</mgrwt>
</event>
<event>
 8    1  0.1241100E-020  0.7921273E+02  0.7818608E-02  0.1331301E+00
         -2   -1    0    0    0  501 -0.00000000000E+00  0.00000000000E+00  0.99001840039E+02  0.99001840072E+02  0.25500000000E-02 0.  1.
          1   -1    0    0  501    0  0.00000000000E+00 -0.00000000000E+00 -0.15844797666E+02  0.15844798467E+02  0.50400000000E-02 0. -1.
        -24    2    1    2    0    0  0.00000000000E+00  0.00000000000E+00  0.83157042373E+02  0.11484663854E+03  0.79212730589E+02 0.  0.
         66    2    3    3    0    0  0.25618596671E+02 -0.25102970990E+02  0.17336184237E+02  0.39887528501E+02  0.19999995249E+01 0.  0.
         13    1    3    3    0    0 -0.25618596671E+02  0.25102970990E+02  0.65820858136E+02  0.74959110038E+02  0.10566000000E+00 0. -1.
         13    1    4    4    0    0  0.11567228017E+02 -0.10730925698E+02  0.70668285398E+01  0.17288862310E+02  0.10566000000E+00 0. -1.
        -13    1    4    4    0    0  0.78387547866E+01 -0.72970977424E+01  0.52122718334E+01  0.11911030760E+02  0.10566000000E+00 0.  1.
         14    1    4    4    0    0  0.62126138675E+01 -0.70749475488E+01  0.50570838642E+01  0.10687635430E+02  0.00000000000E+00 0. -1.
<mgrwt>
<rscale>  0 0.79212731E+02</rscale>
<asrwt>0</asrwt>
<pdfrwt beam="1">  1        1 0.24376613E-02 0.79212731E+02</pdfrwt>
<pdfrwt beam="2">  1       -2 0.15231052E-01 0.79212731E+02</pdfrwt>
<totfact> 0.10911802E+05</totfact>
</mgrwt>
</event>
<event>
 8    1  0.1241100E-020  0.7957386E+02  0.7818608E-02  0.1330265E+00
         -2   -1    0    0    0  501 -0.00000000000E+00  0.00000000000E+00  0.54266804073E+03  0.54266804074E+03  0.25500000000E-02 0.  1.
          1   -1    0    0  501    0  0.00000000000E+00 -0.00000000000E+00 -0.29170661446E+01  0.29170704986E+01  0.50400000000E-02 0. -1.
        -24    2    1    2    0    0  0.00000000000E+00 -0.71054273576E-14  0.53975097459E+03  0.54558511124E+03  0.79573858992E+02 0.  0.
         66    2    3    3    0    0 -0.13830259368E+02  0.35614747419E+02  0.34556127223E+03  0.34767266096E+03  0.20000018813E+01 0.  0.
         13    1    3    3    0    0  0.13830259368E+02 -0.35614747419E+02  0.19418970236E+03  0.19791245028E+03  0.10566000000E+00 0. -1.
         13    1    4    4    0    0 -0.29816117016E+01  0.97686154346E+01  0.96244702801E+02  0.96785173643E+02  0.10566000000E+00 0. -1.
        -13    1    4    4    0    0 -0.91699561272E+01  0.22048273332E+02  0.21222626226E+03  0.21356547476E+03  0.10566000000E+00 0.  1.
         14    1    4    4    0    0 -0.16786915388E+01  0.37978586526E+01  0.37090307162E+02  0.37322012553E+02  0.00000000000E+00 0. -1.
<mgrwt>
<rscale>  0 0.79573859E+02</rscale>
<asrwt>0</asrwt>
<pdfrwt beam="1">  1        1 0.44877990E-03 0.79573859E+02</pdfrwt>
<pdfrwt beam="2">  1       -2 0.83487362E-01 0.79573859E+02</pdfrwt>
<totfact> 0.47900123E+04</totfact>
</mgrwt>
</event>
<event>
 8    1  0.1241100E-020  0.8044811E+02  0.7818608E-02  0.1327785E+00
         -2   -1    0    0    0  501 -0.00000000000E+00  0.00000000000E+00  0.14366251443E+03  0.14366251446E+03  0.25500000000E-02 0.  1.
          1   -1    0    0  501    0  0.00000000000E+00 -0.00000000000E+00 -0.11262328110E+02  0.11262329237E+02  0.50400000000E-02 0. -1.
        -24    2    1    2    0    0  0.00000000000E+00  0.17763568394E-14  0.13240018632E+03  0.15492484369E+03  0.80448106596E+02 0.  0.
         66    2    3    3    0    0 -0.12909512769E+02 -0.14929476342E+02  0.13368215600E+03  0.13514608251E+03  0.19999999683E+01 0.  0.
         13    1    3    3    0    0  0.12909512769E+02  0.14929476342E+02 -0.12819696782E+01  0.19778761187E+02  0.10566000000E+00 0. -1.
         13    1    4    4    0    0 -0.18303335036E+01 -0.14598529599E+01  0.14535991247E+02  0.14723705273E+02  0.10566000000E+00 0. -1.
        -13    1    4    4    0    0 -0.62584560052E+01 -0.74096396281E+01  0.70379176150E+02  0.71044427161E+02  0.10566000000E+00 0.  1.
        -14    1    4    4    0    0 -0.48207232596E+01 -0.60599837545E+01  0.48766988605E+02  0.49377950073E+02  0.00000000000E+00 0.  1.
<mgrwt>
<rscale>  0 0.80448107E+02</rscale>
<asrwt>0</asrwt>
<pdfrwt beam="1">  1        1 0.17326660E-02 0.80448107E+02</pdfrwt>
<pdfrwt beam="2">  1       -2 0.22101925E-01 0.80448107E+02</pdfrwt>
<totfact> 0.94472434E+04</totfact>
</mgrwt>
</event>
<event>
 8    1  0.1241100E-020  0.8044081E+02  0.7818608E-02  0.1327805E+00
         -2   -1    0    0    0  501 -0.00000000000E+00  0.00000000000E+00  0.13590986227E+02  0.13590986466E+02  0.25500000000E-02 0.  1.
          1   -1    0    0  501    0  0.00000000000E+00 -0.00000000000E+00 -0.11902601184E+03  0.11902601195E+03  0.50400000000E-02 0. -1.
        -24    2    1    2    0    0 -0.35527136788E-14  0.71054273576E-14 -0.10543502561E+03  0.13261699841E+03  0.80440808311E+02 0.  0.
         66    2    3    3    0    0 -0.21257807736E+02  0.22462351526E+02 -0.10420876728E+02  0.32696273444E+02  0.19999998895E+01 0.  0.
         13    1    3    3    0    0  0.21257807736E+02 -0.22462351526E+02 -0.95014148884E+02  0.99920724967E+02  0.10566000000E+00 0. -1.
         13    1    4    4    0    0 -0.70567151231E+01  0.80491635933E+01 -0.31431285574E+01  0.11156911940E+02  0.10566000000E+00 0. -1.
        -13    1    4    4    0    0 -0.11499608108E+02  0.12318248593E+02 -0.59376043438E+01  0.17867471685E+02  0.10566000000E+00 0.  1.
         14    1    4    4    0    0 -0.27014845046E+01  0.20949393396E+01 -0.13401438271E+01  0.36718898190E+01  0.00000000000E+00 0. -1.
<mgrwt>
<rscale>  0 0.80440808E+02</rscale>
<asrwt>0</asrwt>
<pdfrwt beam="1">  1        1 0.18311693E-01 0.80440808E+02</pdfrwt>
<pdfrwt beam="2">  1       -2 0.20909211E-02 0.80440808E+02</pdfrwt>
<totfact> 0.14922605E+05</totfact>
</mgrwt>
</event>
<event>
 8    1  0.1241100E-020  0.8307996E+02  0.7818608E-02  0.1320531E+00
         -2   -1    0    0    0  501 -0.00000000000E+00  0.00000000000E+00  0.29245589376E+03  0.29245589377E+03  0.25500000000E-02 0.  1.
          1   -1    0    0  501    0  0.00000000000E+00 -0.00000000000E+00 -0.59002723519E+01  0.59002745044E+01  0.50400000000E-02 0. -1.
        -24    2    1    2    0    0  0.00000000000E+00  0.71054273576E-14  0.28655562141E+03  0.29835616827E+03  0.83079955389E+02 0.  0.
         66    2    3    3    0    0  0.12380970899E+01  0.41305382499E+02  0.15767917617E+03  0.16301653325E+03  0.20000017788E+01 0.  0.
         13    1    3    3    0    0 -0.12380970899E+01 -0.41305382499E+02  0.12887644523E+03  0.13533963502E+03  0.10566000000E+00 0. -1.
         13    1    4    4    0    0  0.71959351329E+00  0.71948473702E+01  0.28971028545E+02  0.29859928039E+02  0.10566000000E+00 0. -1.
        -13    1    4    4    0    0  0.41521297770E+00  0.31729337098E+02  0.12067135341E+03  0.12477383513E+03  0.10566000000E+00 0.  1.
        -14    1    4    4    0    0  0.10329059891E+00  0.23811980304E+01  0.80367942154E+01  0.83827700833E+01  0.00000000000E+00 0.  1.
<mgrwt>
<rscale>  0 0.83079955E+02</rscale>
<asrwt>0</asrwt>
<pdfrwt beam="1">  1        1 0.90773465E-03 0.83079955E+02</pdfrwt>
<pdfrwt beam="2">  1       -2 0.44993201E-01 0.83079955E+02</pdfrwt>
<totfact> 0.64608277E+04</totfact>
</mgrwt>
</event>
<event>
 8    1  0.1241100E-020  0.7976869E+02  0.7818608E-02  0.1329709E+00
          1   -1    0    0  501    0  0.00000000000E+00  0.00000000000E+00  0.10642884853E+03  0.10642884865E+03  0.50400000000E-02 0. -1.
         -2   -1    0    0    0  501 -0.00000000000E+00 -0.00000000000E+00 -0.14946706560E+02  0.14946706777E+02  0.25500000000E-02 0.  1.
        -24    2    1    2    0    0  0.00000000000E+00  0.00000000000E+00  0.91482141966E+02  0.12137555542E+03  0.79768685306E+02 0.  0.
         66    2    3    3    0    0 -0.23311543549E+02 -0.61327900583E+01 -0.25325775320E+01  0.24319809468E+02  0.20000017696E+01 0.  0.
         13    1    3    3    0    0  0.23311543549E+02  0.61327900583E+01  0.94014719498E+02  0.97055745955E+02  0.10566000000E+00 0. -1.
         13    1    4    4    0    0 -0.40946975956E+01 -0.13453222399E+01 -0.69462167933E+00  0.43669329788E+01  0.10566000000E+00 0. -1.
        -13    1    4    4    0    0 -0.99615485573E+01 -0.21846975376E+01 -0.16866668903E+01  0.10337376951E+02  0.10566000000E+00 0.  1.
        -14    1    4    4    0    0 -0.92552973958E+01 -0.26027702807E+01 -0.15128896240E+00  0.96154995382E+01  0.00000000000E+00 0.  1.
<mgrwt>
<rscale>  0 0.79768685E+02</rscale>
<asrwt>0</asrwt>
<pdfrwt beam="1">  1        1 0.16373669E-01 0.79768685E+02</pdfrwt>
<pdfrwt beam="2">  1       -2 0.22994934E-02 0.79768685E+02</pdfrwt>
<totfact> 0.14971490E+05</totfact>
</mgrwt>
</event>
<event>
 8    1  0.1241100E-020  0.7953940E+02  0.7818608E-02  0.1330364E+00
          1   -1    0    0  501    0  0.00000000000E+00  0.00000000000E+00  0.18807227708E+02  0.18807228383E+02  0.50400000000E-02 0. -1.
         -2   -1    0    0    0  501 -0.00000000000E+00 -0.00000000000E+00 -0.84096867316E+02  0.84096867355E+02  0.25500000000E-02 0.  1.
        -24    2    1    2    0    0  0.00000000000E+00  0.00000000000E+00 -0.65289639608E+02  0.10290409574E+03  0.79539398284E+02 0.  0.
         66    2    3    3    0    0  0.17174542829E+02 -0.10493662640E+01 -0.79016294164E+02  0.80892773645E+02  0.19999984076E+01 0.  0.
         13    1    3    3    0    0 -0.17174542829E+02  0.10493662640E+01  0.13726654556E+02  0.22011322093E+02  0.10566000000E+00 0. -1.
         13    1    4    4    0    0  0.48085558338E+01 -0.21439390533E+00 -0.20617682731E+02  0.21172344678E+02  0.10566000000E+00 0. -1.
        -13    1    4    4    0    0  0.62829653975E+01  0.34205623509E+00 -0.30372079852E+02  0.31017205793E+02  0.10566000000E+00 0.  1.
         14    1    4    4    0    0  0.60830215978E+01 -0.11770285938E+01 -0.28026531581E+02  0.28703223174E+02  0.00000000000E+00 0. -1.
<mgrwt>
<rscale>  0 0.79539398E+02</rscale>
<asrwt>0</asrwt>
<pdfrwt beam="1">  1        1 0.28934198E-02 0.79539398E+02</pdfrwt>
<pdfrwt beam="2">  1       -2 0.12937979E-01 0.79539398E+02</pdfrwt>
<totfact> 0.11218348E+05</totfact>
</mgrwt>
</event>
<event>
 8    1  0.1241100E-020  0.7995743E+02  0.7818608E-02  0.1329172E+00
          1   -1    0    0  501    0  0.00000000000E+00  0.00000000000E+00  0.32987038488E+02  0.32987038873E+02  0.50400000000E-02 0. -1.
         -2   -1    0    0    0  501 -0.00000000000E+00 -0.00000000000E+00 -0.48452293722E+02  0.48452293789E+02  0.25500000000E-02 0.  1.
        -24    2    1    2    0    0 -0.35527136788E-14  0.00000000000E+00 -0.15465255234E+02  0.81439332661E+02  0.79957431080E+02 0.  0.
         66    2    3    3    0    0  0.21787640823E+02 -0.33080370571E+02 -0.24175729075E+01  0.39734831851E+02  0.19999984184E+01 0.  0.
         13    1    3    3    0    0 -0.21787640823E+02  0.33080370571E+02 -0.13047682326E+02  0.41704500811E+02  0.10566000000E+00 0. -1.
         13    1    4    4    0    0  0.18382674032E+02 -0.28825798587E+02 -0.18717132723E+01  0.34239799114E+02  0.10566000000E+00 0.  1.
        -13    1    4    4    0    0  0.22369337178E+01 -0.24610882395E+01 -0.31654502940E+00  0.33424829950E+01  0.10566000000E+00 0. -1.
        -14    1    4    4    0    0  0.11680330738E+01 -0.17934837443E+01 -0.22931460586E+00  0.21525497419E+01  0.00000000000E+00 0.  1.
<mgrwt>
<rscale>  0 0.79957431E+02</rscale>
<asrwt>0</asrwt>
<pdfrwt beam="1">  1        1 0.50749290E-02 0.79957431E+02</pdfrwt>
<pdfrwt beam="2">  1       -2 0.74541991E-02 0.79957431E+02</pdfrwt>
<totfact> 0.12315000E+05</totfact>
</mgrwt>
</event>
<event>
 8    1  0.1241100E-020  0.7915614E+02  0.7818608E-02  0.1331463E+00
         -2   -1    0    0    0  501 -0.00000000000E+00  0.00000000000E+00  0.27206825672E+03  0.27206825673E+03  0.25500000000E-02 0.  1.
          1   -1    0    0  501    0  0.00000000000E+00 -0.00000000000E+00 -0.57574647694E+01  0.57574669754E+01  0.50400000000E-02 0. -1.
        -24    2    1    2    0    0  0.35527136788E-14  0.35527136788E-14  0.26631079195E+03  0.27782572371E+03  0.79156142175E+02 0.  0.
         66    2    3    3    0    0 -0.17781012075E+02  0.29216976591E+02  0.20296361019E+03  0.20583494157E+03  0.19999996804E+01 0.  0.
         13    1    3    3    0    0  0.17781012075E+02 -0.29216976591E+02  0.63347181763E+02  0.71990782138E+02  0.10566000000E+00 0. -1.
         13    1    4    4    0    0 -0.15216940819E+01  0.18733618760E+01  0.12873678654E+02  0.13098389356E+02  0.10566000000E+00 0. -1.
        -13    1    4    4    0    0 -0.70121608101E+01  0.11406368313E+02  0.82961770135E+02  0.84035362231E+02  0.10566000000E+00 0.  1.
         14    1    4    4    0    0 -0.92471571834E+01  0.15937246402E+02  0.10712816140E+03  0.10870118998E+03  0.00000000000E+00 0. -1.
<mgrwt>
<rscale>  0 0.79156142E+02</rscale>
<asrwt>0</asrwt>
<pdfrwt beam="1">  1        1 0.88576418E-03 0.79156142E+02</pdfrwt>
<pdfrwt beam="2">  1       -2 0.41856645E-01 0.79156142E+02</pdfrwt>
<totfact> 0.76025258E+04</totfact>
</mgrwt>
</event>
<event>
 8    1  0.1241100E-020  0.7873768E+02  0.7818608E-02  0.1332672E+00
          1   -1    0    0  501    0  0.00000000000E+00  0.00000000000E+00  0.38383967189E+02  0.38383967520E+02  0.50400000000E-02 0. -1.
         -2   -1    0    0    0  501 -0.00000000000E+00 -0.00000000000E+00 -0.40378978951E+02  0.40378979031E+02  0.25500000000E-02 0.  1.
        -24    2    1    2    0    0  0.88817841970E-15  0.35527136788E-14 -0.19950117617E+01  0.78762946551E+02  0.78737676353E+02 0.  0.
         66    2    3    3    0    0  0.76379314691E+01  0.17169449525E+02 -0.35574722311E+02  0.40282612369E+02  0.19999994160E+01 0.  0.
         13    1    3    3    0    0 -0.76379314691E+01 -0.17169449525E+02  0.33579710549E+02  0.38480334182E+02  0.10566000000E+00 0. -1.
         13    1    4    4    0    0  0.10234167297E+01  0.37579223361E+01 -0.64663486564E+01  0.75494497195E+01  0.10566000000E+00 0. -1.
        -13    1    4    4    0    0  0.29217448341E+01  0.60901360109E+01 -0.12386018145E+02  0.14108542059E+02  0.10566000000E+00 0.  1.
        -14    1    4    4    0    0  0.36927699052E+01  0.73213911781E+01 -0.16722355510E+02  0.18624620591E+02  0.00000000000E+00 0.  1.
<mgrwt>
<rscale>  0 0.78737676E+02</rscale>
<asrwt>0</asrwt>
<pdfrwt beam="1">  1        1 0.59052258E-02 0.78737676E+02</pdfrwt>
<pdfrwt beam="2">  1       -2 0.62121506E-02 0.78737676E+02</pdfrwt>
<totfact> 0.13191052E+05</totfact>
</mgrwt>
</event>
<event>
 8    1  0.1241100E-020  0.7683163E+02  0.7818608E-02  0.1338291E+00
          1   -1    0    0  501    0  0.00000000000E+00  0.00000000000E+00  0.44129679497E+02  0.44129679785E+02  0.50400000000E-02 0. -1.
         -2   -1    0    0    0  501 -0.00000000000E+00 -0.00000000000E+00 -0.33441772566E+02  0.33441772663E+02  0.25500000000E-02 0.  1.
        -24    2    1    2    0    0  0.00000000000E+00  0.00000000000E+00  0.10687906931E+02  0.77571452448E+02  0.76831626823E+02 0.  0.
         66    2    3    3    0    0  0.20675197351E+02 -0.20446503235E+02 -0.19958635989E+02  0.35325209573E+02  0.20000001945E+01 0.  0.
         13    1    3    3    0    0 -0.20675197351E+02  0.20446503235E+02  0.30646542920E+02  0.42246242875E+02  0.10566000000E+00 0. -1.
         13    1    4    4    0    0  0.12125900139E+02 -0.12611978298E+02 -0.12237064945E+02  0.21350793270E+02  0.10566000000E+00 0. -1.
        -13    1    4    4    0    0  0.53116062265E+01 -0.55350803318E+01 -0.49111294974E+01  0.91093705579E+01  0.10566000000E+00 0.  1.
        -14    1    4    4    0    0  0.32376909859E+01 -0.22994446058E+01 -0.28104415462E+01  0.48650457449E+01  0.00000000000E+00 0.  1.
<mgrwt>
<rscale>  0 0.76831627E+02</rscale>
<asrwt>0</asrwt>
<pdfrwt beam="1">  1        1 0.67891815E-02 0.76831627E+02</pdfrwt>
<pdfrwt beam="2">  1       -2 0.51448881E-02 0.76831627E+02</pdfrwt>
<totfact> 0.14439574E+05</totfact>
</mgrwt>
</event>
<event>
 8    1  0.1241100E-020  0.7898862E+02  0.7818608E-02  0.1331946E+00
         -2   -1    0    0    0  501 -0.00000000000E+00  0.00000000000E+00  0.87504347825E+02  0.87504347862E+02  0.25500000000E-02 0.  1.
          1   -1    0    0  501    0  0.00000000000E+00 -0.00000000000E+00 -0.17825407743E+02  0.17825408455E+02  0.50400000000E-02 0. -1.
        -24    2    1    2    0    0  0.00000000000E+00  0.00000000000E+00  0.69678940082E+02  0.10532975632E+03  0.78988624972E+02 0.  0.
         66    2    3    3    0    0  0.24495952408E+02 -0.30946134379E+02  0.35240915419E+02  0.52949381900E+02  0.20000016550E+01 0.  0.
         13    1    3    3    0    0 -0.24495952408E+02  0.30946134379E+02  0.34438024664E+02  0.52380374418E+02  0.10566000000E+00 0. -1.
         13    1    4    4    0    0  0.95685534993E+01 -0.12744057807E+02  0.13301632488E+02  0.20758439641E+02  0.10566000000E+00 0. -1.
        -13    1    4    4    0    0  0.72856055887E+01 -0.87299513771E+01  0.11177359184E+02  0.15944799221E+02  0.10566000000E+00 0.  1.
        -14    1    4    4    0    0  0.76417933200E+01 -0.94721251951E+01  0.10761923747E+02  0.16246143037E+02  0.00000000000E+00 0.  1.
<mgrwt>
<rscale>  0 0.78988625E+02</rscale>
<asrwt>0</asrwt>
<pdfrwt beam="1">  1        1 0.27423704E-02 0.78988625E+02</pdfrwt>
<pdfrwt beam="2">  1       -2 0.13462208E-01 0.78988625E+02</pdfrwt>
<totfact> 0.11317242E+05</totfact>
</mgrwt>
</event>
<event>
 8    1  0.1241100E-020  0.7943862E+02  0.7818608E-02  0.1330652E+00
         -2   -1    0    0    0  501 -0.00000000000E+00  0.00000000000E+00  0.87645397066E+02  0.87645397103E+02  0.25500000000E-02 0.  1.
          1   -1    0    0  501    0  0.00000000000E+00 -0.00000000000E+00 -0.18000072331E+02  0.18000073036E+02  0.50400000000E-02 0. -1.
        -24    2    1    2    0    0 -0.35527136788E-14  0.35527136788E-14  0.69645324735E+02  0.10564547014E+03  0.79438618464E+02 0.  0.
         66    2    3    3    0    0  0.25305487680E+02 -0.30341328102E+02  0.29753623925E+02  0.49499919512E+02  0.19999993309E+01 0.  0.
         13    1    3    3    0    0 -0.25305487680E+02  0.30341328102E+02  0.39891700810E+02  0.56145550627E+02  0.10566000000E+00 0. -1.
         13    1    4    4    0    0  0.71686913584E+01 -0.80839898827E+01  0.74154788589E+01  0.13105018846E+02  0.10566000000E+00 0. -1.
        -13    1    4    4    0    0  0.11223607643E+02 -0.14408354803E+02  0.13749308467E+02  0.22860986505E+02  0.10566000000E+00 0.  1.
        -14    1    4    4    0    0  0.69131886779E+01 -0.78489834170E+01  0.85888365998E+01  0.13533914161E+02  0.00000000000E+00 0.  1.
<mgrwt>
<rscale>  0 0.79438618E+02</rscale>
<asrwt>0</asrwt>
<pdfrwt beam="1">  1        1 0.27692419E-02 0.79438618E+02</pdfrwt>
<pdfrwt beam="2">  1       -2 0.13483907E-01 0.79438618E+02</pdfrwt>
<totfact> 0.11150247E+05</totfact>
</mgrwt>
</event>
<event>
 8    1  0.1241100E-020  0.8021767E+02  0.7818608E-02  0.1328435E+00
          1   -1    0    0  501    0  0.00000000000E+00  0.00000000000E+00  0.47760025623E+02  0.47760025889E+02  0.50400000000E-02 0. -1.
         -2   -1    0    0    0  501 -0.00000000000E+00 -0.00000000000E+00 -0.33683373103E+02  0.33683373199E+02  0.25500000000E-02 0.  1.
        -24    2    1    2    0    0 -0.35527136788E-14 -0.35527136788E-14  0.14076652520E+02  0.81443399088E+02  0.80217673295E+02 0.  0.
         66    2    3    3    0    0 -0.18608476922E+02 -0.17237516902E+02 -0.24468736707E+02  0.35300516679E+02  0.19999998688E+01 0.  0.
         13    1    3    3    0    0  0.18608476922E+02  0.17237516902E+02  0.38545389227E+02  0.46142882409E+02  0.10566000000E+00 0. -1.
         13    1    4    4    0    0 -0.81863050245E+01 -0.76575756164E+01 -0.11047314423E+02  0.15738753898E+02  0.10566000000E+00 0.  1.
        -13    1    4    4    0    0 -0.76451567602E+01 -0.78116701545E+01 -0.10591680098E+02  0.15220560562E+02  0.10566000000E+00 0. -1.
         14    1    4    4    0    0 -0.27770151369E+01 -0.17682711316E+01 -0.28297421867E+01  0.43412022192E+01  0.00000000000E+00 0. -1.
<mgrwt>
<rscale>  0 0.80217673E+02</rscale>
<asrwt>0</asrwt>
<pdfrwt beam="1">  1        1 0.73476963E-02 0.80217673E+02</pdfrwt>
<pdfrwt beam="2">  1       -2 0.51820574E-02 0.80217673E+02</pdfrwt>
<totfact> 0.12963829E+05</totfact>
</mgrwt>
</event>
<event>
 8    1  0.1241100E-020  0.8009742E+02  0.7818608E-02  0.1328775E+00
          1   -1    0    0  501    0  0.00000000000E+00  0.00000000000E+00  0.71227250010E+01  0.71227267841E+01  0.50400000000E-02 0. -1.
         -2   -1    0    0    0  501 -0.00000000000E+00 -0.00000000000E+00 -0.22518051617E+03  0.22518051619E+03  0.25500000000E-02 0.  1.
        -24    2    1    2    0    0  0.35527136788E-14  0.00000000000E+00 -0.21805779117E+03  0.23230324297E+03  0.80097418212E+02 0.  0.
         66    2    3    3    0    0 -0.27394007101E+02 -0.23347069376E+02 -0.15986172402E+03  0.16387583129E+03  0.20000001492E+01 0.  0.
         13    1    3    3    0    0  0.27394007101E+02  0.23347069376E+02 -0.58196067153E+02  0.68427411683E+02  0.10566000000E+00 0. -1.
         13    1    4    4    0    0 -0.42384811844E+01 -0.31329523795E+01 -0.22061181991E+02  0.22682306502E+02  0.10566000000E+00 0. -1.
        -13    1    4    4    0    0 -0.15021547051E+02 -0.12904869366E+02 -0.91613698135E+02  0.93729735832E+02  0.10566000000E+00 0.  1.
        -14    1    4    4    0    0 -0.81339788658E+01 -0.73092476308E+01 -0.46186843893E+02  0.47463788955E+02  0.00000000000E+00 0.  1.
<mgrwt>
<rscale>  0 0.80097418E+02</rscale>
<asrwt>0</asrwt>
<pdfrwt beam="1">  1        1 0.10958042E-02 0.80097418E+02</pdfrwt>
<pdfrwt beam="2">  1       -2 0.34643151E-01 0.80097418E+02</pdfrwt>
<totfact> 0.80654275E+04</totfact>
</mgrwt>
</event>
<event>
 8    1  0.1241100E-020  0.8734026E+02  0.7818608E-02  0.1309424E+00
         -2   -1    0    0    0  501 -0.00000000000E+00  0.00000000000E+00  0.36270028186E+03  0.36270028187E+03  0.25500000000E-02 0.  1.
          1   -1    0    0  501    0  0.00000000000E+00 -0.00000000000E+00 -0.52580044362E+01  0.52580068518E+01  0.50400000000E-02 0. -1.
        -24    2    1    2    0    0  0.00000000000E+00  0.71054273576E-14  0.35744227742E+03  0.36795828872E+03  0.87340257318E+02 0.  0.
         66    2    3    3    0    0  0.33352481649E+02  0.25822398337E+02  0.22608410121E+03  0.22999392408E+03  0.20000016371E+01 0.  0.
         13    1    3    3    0    0 -0.33352481649E+02 -0.25822398337E+02  0.13135817622E+03  0.13796436464E+03  0.10566000000E+00 0. -1.
         13    1    4    4    0    0  0.13773073402E+02  0.10999064157E+02  0.90309443271E+02  0.92013497223E+02  0.10566000000E+00 0. -1.
        -13    1    4    4    0    0  0.14135306181E+02  0.10445675727E+02  0.95278218073E+02  0.96885855652E+02  0.10566000000E+00 0.  1.
         14    1    4    4    0    0  0.54441020661E+01  0.43776584540E+01  0.40496439862E+02  0.41094571203E+02  0.00000000000E+00 0. -1.
<mgrwt>
<rscale>  0 0.87340257E+02</rscale>
<asrwt>0</asrwt>
<pdfrwt beam="1">  1        1 0.80892385E-03 0.87340257E+02</pdfrwt>
<pdfrwt beam="2">  1       -2 0.55800050E-01 0.87340257E+02</pdfrwt>
<totfact> 0.50115419E+04</totfact>
</mgrwt>
</event>
<event>
 8    1  0.1241100E-020  0.8296240E+02  0.7818608E-02  0.1320849E+00
         -2   -1    0    0    0  501 -0.00000000000E+00  0.00000000000E+00  0.27695819183E+02  0.27695819300E+02  0.25500000000E-02 0.  1.
          1   -1    0    0  501    0  0.00000000000E+00 -0.00000000000E+00 -0.62128142009E+02  0.62128142213E+02  0.50400000000E-02 0. -1.
        -24    2    1    2    0    0  0.00000000000E+00  0.35527136788E-14 -0.34432322826E+02  0.89823961513E+02  0.82962396342E+02 0.  0.
         66    2    3    3    0    0  0.14060614464E+02  0.18721676378E+02  0.19815775732E+02  0.30738689181E+02  0.19999997919E+01 0.  0.
         13    1    3    3    0    0 -0.14060614464E+02 -0.18721676378E+02 -0.54248098558E+02  0.59085272333E+02  0.10566000000E+00 0. -1.
         13    1    4    4    0    0  0.95971181208E+00  0.99709473847E+00  0.15750543169E+01  0.20993343746E+01  0.10566000000E+00 0. -1.
        -13    1    4    4    0    0  0.59366781752E+01  0.85803663734E+01  0.93551511993E+01  0.14014166149E+02  0.10566000000E+00 0.  1.
        -14    1    4    4    0    0  0.71642244765E+01  0.91442152664E+01  0.88855702157E+01  0.14625188657E+02  0.00000000000E+00 0.  1.
<mgrwt>
<rscale>  0 0.82962396E+02</rscale>
<asrwt>0</asrwt>
<pdfrwt beam="1">  1        1 0.95581757E-02 0.82962396E+02</pdfrwt>
<pdfrwt beam="2">  1       -2 0.42608953E-02 0.82962396E+02</pdfrwt>
<totfact> 0.12312782E+05</totfact>
</mgrwt>
</event>
<event>
 8    1  0.1241100E-020  0.7821899E+02  0.7818608E-02  0.1334183E+00
          1   -1    0    0  501    0  0.00000000000E+00  0.00000000000E+00  0.23278655524E+03  0.23278655529E+03  0.50400000000E-02 0. -1.
         -2   -1    0    0    0  501 -0.00000000000E+00 -0.00000000000E+00 -0.65706230322E+01  0.65706235270E+01  0.25500000000E-02 0.  1.
        -24    2    1    2    0    0  0.00000000000E+00  0.00000000000E+00  0.22621593220E+03  0.23935717882E+03  0.78218994296E+02 0.  0.
         66    2    3    3    0    0  0.32159371286E+02  0.18091014374E+01  0.45440280166E+02  0.55734343791E+02  0.20000016761E+01 0.  0.
         13    1    3    3    0    0 -0.32159371286E+02 -0.18091014374E+01  0.18077565204E+03  0.18362283503E+03  0.10566000000E+00 0. -1.
         13    1    4    4    0    0  0.13105421982E+02  0.13281485110E+01  0.18135788169E+02  0.22415040494E+02  0.10566000000E+00 0. -1.
        -13    1    4    4    0    0  0.40661194662E+01  0.15367419424E+00  0.50457496584E+01  0.64828772102E+01  0.10566000000E+00 0.  1.
         14    1    4    4    0    0  0.14987829838E+02  0.32727873217E+00  0.22258742338E+02  0.26836426086E+02  0.00000000000E+00 0. -1.
<mgrwt>
<rscale>  0 0.78218994E+02</rscale>
<asrwt>0</asrwt>
<pdfrwt beam="1">  1        1 0.35813310E-01 0.78218994E+02</pdfrwt>
<pdfrwt beam="2">  1       -2 0.10108653E-02 0.78218994E+02</pdfrwt>
<totfact> 0.18228141E+05</totfact>
</mgrwt>
</event>
<event>
 8    1  0.1241100E-020  0.8056779E+02  0.7818608E-02  0.1327448E+00
         -2   -1    0    0    0  501 -0.00000000000E+00  0.00000000000E+00  0.36531116277E+02  0.36531116366E+02  0.25500000000E-02 0.  1.
          1   -1    0    0  501    0  0.00000000000E+00 -0.00000000000E+00 -0.44422192964E+02  0.44422193250E+02  0.50400000000E-02 0. -1.
        -24    2    1    2    0    0  0.00000000000E+00 -0.44408920985E-15 -0.78910766870E+01  0.80953309617E+02  0.80567792862E+02 0.  0.
         66    2    3    3    0    0  0.39198434374E+02  0.29743724389E+01  0.47782456872E+01  0.39650924187E+02  0.20000020659E+01 0.  0.
         13    1    3    3    0    0 -0.39198434374E+02 -0.29743724389E+01 -0.12669322374E+02  0.41302385430E+02  0.10566000000E+00 0. -1.
         13    1    4    4    0    0  0.63551415258E+01  0.12218787350E+00  0.85564471672E+00  0.64145183456E+01  0.10566000000E+00 0. -1.
        -13    1    4    4    0    0  0.34764026086E+01  0.52870747561E+00  0.84030600874E+00  0.36169303167E+01  0.10566000000E+00 0.  1.
        -14    1    4    4    0    0  0.29366890239E+02  0.23234770898E+01  0.30822949618E+01  0.29619475524E+02  0.00000000000E+00 0.  1.
<mgrwt>
<rscale>  0 0.80567793E+02</rscale>
<asrwt>0</asrwt>
<pdfrwt beam="1">  1        1 0.68341836E-02 0.80567793E+02</pdfrwt>
<pdfrwt beam="2">  1       -2 0.56201717E-02 0.80567793E+02</pdfrwt>
<totfact> 0.12659963E+05</totfact>
</mgrwt>
</event>
<event>
 8    1  0.1241100E-020  0.7344299E+02  0.7818608E-02  0.1348761E+00
          1   -1    0    0  501    0  0.00000000000E+00  0.00000000000E+00  0.12494241385E+03  0.12494241395E+03  0.50400000000E-02 0. -1.
         -2   -1    0    0    0  501 -0.00000000000E+00 -0.00000000000E+00 -0.10792718817E+02  0.10792719118E+02  0.25500000000E-02 0.  1.
        -24    2    1    2    0    0  0.88817841970E-15  0.00000000000E+00  0.11414969503E+03  0.13573513307E+03  0.73442994720E+02 0.  0.
         66    2    3    3    0    0 -0.66102988418E+01  0.22952164713E+02  0.56341396253E+01  0.24621970730E+02  0.19999993789E+01 0.  0.
         13    1    3    3    0    0  0.66102988418E+01 -0.22952164713E+02  0.10851555541E+03  0.11111316234E+03  0.10566000000E+00 0. -1.
         13    1    4    4    0    0 -0.23577702624E+01  0.10676840583E+02  0.32171053022E+01  0.11398023338E+02  0.10566000000E+00 0. -1.
        -13    1    4    4    0    0 -0.16857815311E+01  0.56080102442E+01  0.10948790948E+01  0.59583187677E+01  0.10566000000E+00 0.  1.
         14    1    4    4    0    0 -0.25667470482E+01  0.66673138854E+01  0.13221552283E+01  0.72656286241E+01  0.00000000000E+00 0. -1.
<mgrwt>
<rscale>  0 0.73442995E+02</rscale>
<asrwt>0</asrwt>
<pdfrwt beam="1">  1        1 0.19221911E-01 0.73442995E+02</pdfrwt>
<pdfrwt beam="2">  1       -2 0.16604182E-02 0.73442995E+02</pdfrwt>
<totfact> 0.19190966E+05</totfact>
</mgrwt>
</event>
<event>
 8    1  0.1241100E-020  0.7795870E+02  0.7818608E-02  0.1334946E+00
          1   -1    0    0  501    0  0.00000000000E+00  0.00000000000E+00  0.66412744074E+01  0.66412763198E+01  0.50400000000E-02 0. -1.
         -2   -1    0    0    0  501 -0.00000000000E+00 -0.00000000000E+00 -0.22877980571E+03  0.22877980572E+03  0.25500000000E-02 0.  1.
        -24    2    1    2    0    0 -0.88817841970E-15  0.35527136788E-14 -0.22213853130E+03  0.23542108204E+03  0.77958699203E+02 0.  0.
         66    2    3    3    0    0  0.57343442212E+01 -0.24904973875E+02 -0.19991887146E+03  0.20155568857E+03  0.20000005035E+01 0.  0.
         13    1    3    3    0    0 -0.57343442212E+01  0.24904973875E+02 -0.22219659836E+02  0.33865393466E+02  0.10566000000E+00 0. -1.
         13    1    4    4    0    0  0.25286487894E+00 -0.40911048820E+01 -0.31040500704E+02  0.31310140974E+02  0.10566000000E+00 0. -1.
        -13    1    4    4    0    0  0.14599952648E+01 -0.46184000009E+01 -0.38335228875E+02  0.38640162289E+02  0.10566000000E+00 0.  1.
         14    1    4    4    0    0  0.40214840774E+01 -0.16195468993E+02 -0.13054314188E+03  0.13160538531E+03  0.00000000000E+00 0. -1.
<mgrwt>
<rscale>  0 0.77958699E+02</rscale>
<asrwt>0</asrwt>
<pdfrwt beam="1">  1        1 0.10217349E-02 0.77958699E+02</pdfrwt>
<pdfrwt beam="2">  1       -2 0.35196887E-01 0.77958699E+02</pdfrwt>
<totfact> 0.85878306E+04</totfact>
</mgrwt>
</event>
<event>
 8    1  0.1241100E-020  0.8041811E+02  0.7818608E-02  0.1327869E+00
         -2   -1    0    0    0  501 -0.00000000000E+00  0.00000000000E+00  0.30034668132E+03  0.30034668133E+03  0.25500000000E-02 0.  1.
          1   -1    0    0  501    0  0.00000000000E+00 -0.00000000000E+00 -0.53830057781E+01  0.53830081376E+01  0.50400000000E-02 0. -1.
        -24    2    1    2    0    0  0.00000000000E+00  0.00000000000E+00  0.29496367554E+03  0.30572968946E+03  0.80418114459E+02 0.  0.
         66    2    3    3    0    0  0.17971847865E+02  0.13571949508E+02  0.27409622431E+03  0.27502713560E+03  0.20000010611E+01 0.  0.
         13    1    3    3    0    0 -0.17971847865E+02 -0.13571949508E+02  0.20867451223E+02  0.30702553863E+02  0.10566000000E+00 0. -1.
         13    1    4    4    0    0  0.13518437946E+01  0.10496633100E+01  0.24816144727E+02  0.24875318649E+02  0.10566000000E+00 0. -1.
        -13    1    4    4    0    0  0.57753834871E+01  0.34675098773E+01  0.81384192538E+02  0.81662577955E+02  0.10566000000E+00 0.  1.
        -14    1    4    4    0    0  0.10844620584E+02  0.90547763205E+01  0.16789588705E+03  0.16848923900E+03  0.00000000000E+00 0.  1.
<mgrwt>
<rscale>  0 0.80418114E+02</rscale>
<asrwt>0</asrwt>
<pdfrwt beam="1">  1        1 0.82815474E-03 0.80418114E+02</pdfrwt>
<pdfrwt beam="2">  1       -2 0.46207192E-01 0.80418114E+02</pdfrwt>
<totfact> 0.69285933E+04</totfact>
</mgrwt>
</event>
<event>
 8    1  0.1241100E-020  0.7770301E+02  0.7818608E-02  0.1335699E+00
          1   -1    0    0  501    0  0.00000000000E+00  0.00000000000E+00  0.45887193289E+02  0.45887193566E+02  0.50400000000E-02 0. -1.
         -2   -1    0    0    0  501 -0.00000000000E+00 -0.00000000000E+00 -0.32894570477E+02  0.32894570576E+02  0.25500000000E-02 0.  1.
        -24    2    1    2    0    0  0.35527136788E-14  0.00000000000E+00  0.12992622811E+02  0.78781764142E+02  0.77703012257E+02 0.  0.
         66    2    3    3    0    0 -0.22422354665E+02 -0.30330189827E+02 -0.28333009534E+01  0.37877565938E+02  0.20000008493E+01 0.  0.
         13    1    3    3    0    0  0.22422354665E+02  0.30330189827E+02  0.15825923765E+02  0.40904198204E+02  0.10566000000E+00 0. -1.
         13    1    4    4    0    0 -0.29161237050E+01 -0.45748851141E+01 -0.92924348027E+00  0.55052709970E+01  0.10566000000E+00 0. -1.
        -13    1    4    4    0    0 -0.10618836535E+02 -0.14549423041E+02 -0.92216392955E+00  0.18036267645E+02  0.10566000000E+00 0.  1.
         14    1    4    4    0    0 -0.88873944248E+01 -0.11205881672E+02 -0.98189354357E+00  0.14336027296E+02  0.00000000000E+00 0. -1.
<mgrwt>
<rscale>  0 0.77703012E+02</rscale>
<asrwt>0</asrwt>
<pdfrwt beam="1">  1        1 0.70595683E-02 0.77703012E+02</pdfrwt>
<pdfrwt beam="2">  1       -2 0.50607032E-02 0.77703012E+02</pdfrwt>
<totfact> 0.14078035E+05</totfact>
</mgrwt>
</event>
<event>
 8    1  0.1241100E-020  0.8451563E+02  0.7818608E-02  0.1316704E+00
         -2   -1    0    0    0  501 -0.00000000000E+00  0.00000000000E+00  0.94266773101E+02  0.94266773135E+02  0.25500000000E-02 0.  1.
          1   -1    0    0  501    0  0.00000000000E+00 -0.00000000000E+00 -0.18943288649E+02  0.18943289320E+02  0.50400000000E-02 0. -1.
        -24    2    1    2    0    0  0.00000000000E+00 -0.71054273576E-14  0.75323484452E+02  0.11321006245E+03  0.84515625367E+02 0.  0.
         66    2    3    3    0    0 -0.12498447266E+02  0.34062844884E+02  0.66637067395E+02  0.75901168194E+02  0.19999990992E+01 0.  0.
         13    1    3    3    0    0  0.12498447266E+02 -0.34062844884E+02  0.86864170561E+01  0.37308894261E+02  0.10566000000E+00 0. -1.
         13    1    4    4    0    0 -0.70108210796E+00  0.17366163745E+01  0.27209252028E+01  0.33048374467E+01  0.10566000000E+00 0.  1.
        -13    1    4    4    0    0 -0.58507137495E+01  0.16676621560E+02  0.33621623343E+02  0.37983750187E+02  0.10566000000E+00 0.  1.
         14    1    4    4    0    0 -0.59466514090E+01  0.15649606950E+02  0.30294518850E+02  0.34612580560E+02  0.00000000000E+00 0. -1.
<mgrwt>
<rscale>  0 0.84515625E+02</rscale>
<asrwt>0</asrwt>
<pdfrwt beam="1">  1        1 0.29143522E-02 0.84515625E+02</pdfrwt>
<pdfrwt beam="2">  1       -2 0.14502580E-01 0.84515625E+02</pdfrwt>
<totfact> 0.93551472E+04</totfact>
</mgrwt>
</event>
<event>
 8    1  0.1241100E-020  0.7913977E+02  0.7818608E-02  0.1331511E+00
          1   -1    0    0  501    0  0.00000000000E+00  0.00000000000E+00  0.12244971580E+03  0.12244971590E+03  0.50400000000E-02 0. -1.
         -2   -1    0    0    0  501 -0.00000000000E+00 -0.00000000000E+00 -0.12787091108E+02  0.12787091362E+02  0.25500000000E-02 0.  1.
        -24    2    1    2    0    0  0.00000000000E+00  0.00000000000E+00  0.10966262469E+03  0.13523680726E+03  0.79139767406E+02 0.  0.
         66    2    3    3    0    0  0.26015532867E+02  0.27398601660E+02  0.34917501881E+02  0.51485175214E+02  0.20000014771E+01 0.  0.
         13    1    3    3    0    0 -0.26015532867E+02 -0.27398601660E+02  0.74745122809E+02  0.83751632050E+02  0.10566000000E+00 0. -1.
         13    1    4    4    0    0  0.12909747726E+02  0.12340341258E+02  0.17021966792E+02  0.24671929925E+02  0.10566000000E+00 0. -1.
        -13    1    4    4    0    0  0.55495053849E+01  0.63158320083E+01  0.77980631833E+01  0.11467680560E+02  0.10566000000E+00 0.  1.
         14    1    4    4    0    0  0.75562797563E+01  0.87424283937E+01  0.10097471905E+02  0.15345564729E+02  0.00000000000E+00 0. -1.
<mgrwt>
<rscale>  0 0.79139767E+02</rscale>
<asrwt>0</asrwt>
<pdfrwt beam="1">  1        1 0.18838418E-01 0.79139767E+02</pdfrwt>
<pdfrwt beam="2">  1       -2 0.19672447E-02 0.79139767E+02</pdfrwt>
<totfact> 0.15668550E+05</totfact>
</mgrwt>
</event>
<event>
 8    1  0.1241100E-020  0.8131542E+02  0.7818608E-02  0.1325359E+00
         -2   -1    0    0    0  501 -0.00000000000E+00  0.00000000000E+00  0.29106880886E+03  0.29106880887E+03  0.25500000000E-02 0.  1.
          1   -1    0    0  501    0  0.00000000000E+00 -0.00000000000E+00 -0.56792379421E+01  0.56792401784E+01  0.50400000000E-02 0. -1.
        -24    2    1    2    0    0  0.88817841970E-15  0.00000000000E+00  0.28538957092E+03  0.29674804905E+03  0.81315419362E+02 0.  0.
         66    2    3    3    0    0  0.72425683935E+01  0.27981683653E+02  0.24700242378E+03  0.24869585195E+03  0.20000013549E+01 0.  0.
         13    1    3    3    0    0 -0.72425683935E+01 -0.27981683653E+02  0.38387147139E+02  0.48052197103E+02  0.10566000000E+00 0. -1.
         13    1    4    4    0    0  0.30328814899E+01  0.96639044448E+01  0.86134440757E+02  0.86727979729E+02  0.10566000000E+00 0.  1.
        -13    1    4    4    0    0  0.30423138540E+01  0.11023005558E+02  0.94010354437E+02  0.94703327452E+02  0.10566000000E+00 0. -1.
        -14    1    4    4    0    0  0.11673730496E+01  0.72947736500E+01  0.66857628586E+02  0.67264544766E+02  0.00000000000E+00 0.  1.
<mgrwt>
<rscale>  0 0.81315419E+02</rscale>
<asrwt>0</asrwt>
<pdfrwt beam="1">  1        1 0.87372899E-03 0.81315419E+02</pdfrwt>
<pdfrwt beam="2">  1       -2 0.44779822E-01 0.81315419E+02</pdfrwt>
<totfact> 0.68473352E+04</totfact>
</mgrwt>
</event>
<event>
 8    1  0.1241100E-020  0.7747607E+02  0.7818608E-02  0.1336370E+00
          1   -1    0    0  501    0  0.00000000000E+00  0.00000000000E+00  0.15227104209E+02  0.15227105043E+02  0.50400000000E-02 0. -1.
         -2   -1    0    0    0  501 -0.00000000000E+00 -0.00000000000E+00 -0.98550273776E+02  0.98550273809E+02  0.25500000000E-02 0.  1.
        -24    2    1    2    0    0  0.00000000000E+00 -0.44408920985E-15 -0.83323169568E+02  0.11377737885E+03  0.77476069542E+02 0.  0.
         66    2    3    3    0    0  0.16102786285E+02 -0.24704279936E+01 -0.93260795223E+02  0.94694132055E+02  0.19999948307E+01 0.  0.
         13    1    3    3    0    0 -0.16102786285E+02  0.24704279936E+01  0.99376256557E+01  0.19083246797E+02  0.10566000000E+00 0. -1.
         13    1    4    4    0    0  0.49817541139E+01 -0.71535793013E+00 -0.25027740022E+02  0.25528974630E+02  0.10566000000E+00 0. -1.
        -13    1    4    4    0    0  0.44889168200E+01 -0.43212207646E+00 -0.30308156717E+02  0.30642007625E+02  0.10566000000E+00 0.  1.
        -14    1    4    4    0    0  0.66321153516E+01 -0.13229479870E+01 -0.37924898485E+02  0.38523149800E+02  0.00000000000E+00 0.  1.
<mgrwt>
<rscale>  0 0.77476070E+02</rscale>
<asrwt>0</asrwt>
<pdfrwt beam="1">  1        1 0.23426316E-02 0.77476070E+02</pdfrwt>
<pdfrwt beam="2">  1       -2 0.15161580E-01 0.77476070E+02</pdfrwt>
<totfact> 0.11561102E+05</totfact>
</mgrwt>
</event>
<event>
 8    1  0.1241100E-020  0.7855982E+02  0.7818608E-02  0.1333189E+00
          1   -1    0    0  501    0  0.00000000000E+00  0.00000000000E+00  0.46845048494E+02  0.46845048765E+02  0.50400000000E-02 0. -1.
         -2   -1    0    0    0  501 -0.00000000000E+00 -0.00000000000E+00 -0.32936483954E+02  0.32936484053E+02  0.25500000000E-02 0.  1.
        -24    2    1    2    0    0  0.00000000000E+00  0.35527136788E-14  0.13908564540E+02  0.79781532818E+02  0.78559816772E+02 0.  0.
         66    2    3    3    0    0 -0.16109698519E+02  0.21679573386E+02 -0.21968933470E+02  0.34873489930E+02  0.19999933895E+01 0.  0.
         13    1    3    3    0    0  0.16109698519E+02 -0.21679573386E+02  0.35877498010E+02  0.44908042888E+02  0.10566000000E+00 0. -1.
         13    1    4    4    0    0 -0.10376834631E+02  0.12673749055E+02 -0.13516604091E+02  0.21237051638E+02  0.10566000000E+00 0. -1.
        -13    1    4    4    0    0 -0.42783954850E+01  0.71718545228E+01 -0.63731006588E+01  0.10505605231E+02  0.10566000000E+00 0.  1.
        -14    1    4    4    0    0 -0.14544684031E+01  0.18339698077E+01 -0.20792287199E+01  0.31308330618E+01  0.00000000000E+00 0.  1.
<mgrwt>
<rscale>  0 0.78559817E+02</rscale>
<asrwt>0</asrwt>
<pdfrwt beam="1">  1        1 0.72069306E-02 0.78559817E+02</pdfrwt>
<pdfrwt beam="2">  1       -2 0.50671514E-02 0.78559817E+02</pdfrwt>
<totfact> 0.13698858E+05</totfact>
</mgrwt>
</event>
<event>
 8    1  0.1241100E-020  0.7884067E+02  0.7818608E-02  0.1332374E+00
         -2   -1    0    0    0  501 -0.00000000000E+00  0.00000000000E+00  0.21241538119E+01  0.21241553425E+01  0.25500000000E-02 0.  1.
          1   -1    0    0  501    0  0.00000000000E+00 -0.00000000000E+00 -0.73156764789E+03  0.73156764791E+03  0.50400000000E-02 0. -1.
        -24    2    1    2    0    0  0.00000000000E+00  0.88817841970E-15 -0.72944349408E+03  0.73369180325E+03  0.78840669095E+02 0.  0.
         66    2    3    3    0    0 -0.29938246291E+02  0.79681650884E+01 -0.59141276095E+03  0.59222702072E+03  0.20000010645E+01 0.  0.
         13    1    3    3    0    0  0.29938246291E+02 -0.79681650884E+01 -0.13803073313E+03  0.14146478253E+03  0.10566000000E+00 0. -1.
         13    1    4    4    0    0 -0.14978926429E+02  0.37845280648E+01 -0.31004312346E+03  0.31042783454E+03  0.10566000000E+00 0. -1.
        -13    1    4    4    0    0 -0.31345802617E+01  0.11963847152E+01 -0.59929057937E+02  0.60022996252E+02  0.10566000000E+00 0.  1.
         14    1    4    4    0    0 -0.11824739600E+02  0.29872523084E+01 -0.22144057955E+03  0.22177618992E+03  0.00000000000E+00 0. -1.
<mgrwt>
<rscale>  0 0.78840669E+02</rscale>
<asrwt>0</asrwt>
<pdfrwt beam="1">  1        1 0.11254867E+00 0.78840669E+02</pdfrwt>
<pdfrwt beam="2">  1       -2 0.32679360E-03 0.78840669E+02</pdfrwt>
<totfact> 0.20779214E+05</totfact>
</mgrwt>
</event>
<event>
 8    1  0.1241100E-020  0.7992350E+02  0.7818608E-02  0.1329269E+00
          1   -1    0    0  501    0  0.00000000000E+00  0.00000000000E+00  0.35744687284E+01  0.35744722816E+01  0.50400000000E-02 0. -1.
         -2   -1    0    0    0  501 -0.00000000000E+00 -0.00000000000E+00 -0.44676310793E+03  0.44676310794E+03  0.25500000000E-02 0.  1.
        -24    2    1    2    0    0  0.35527136788E-14  0.00000000000E+00 -0.44318863921E+03  0.45033758022E+03  0.79923502426E+02 0.  0.
         66    2    3    3    0    0 -0.24524379061E+02 -0.22866828265E+02 -0.34396597178E+03  0.34560226670E+03  0.20000009361E+01 0.  0.
         13    1    3    3    0    0  0.24524379061E+02  0.22866828265E+02 -0.99222667425E+02  0.10473531352E+03  0.10566000000E+00 0. -1.
         13    1    4    4    0    0 -0.18529677222E+01 -0.12741554366E+01 -0.23136171700E+02  0.23245441842E+02  0.10566000000E+00 0. -1.
        -13    1    4    4    0    0 -0.21799064911E+02 -0.21038451161E+02 -0.30866882785E+03  0.31015201452E+03  0.10566000000E+00 0.  1.
        -14    1    4    4    0    0 -0.87234642731E+00 -0.55422166707E+00 -0.12160972230E+02  0.12204810344E+02  0.00000000000E+00 0.  1.
<mgrwt>
<rscale>  0 0.79923502E+02</rscale>
<asrwt>0</asrwt>
<pdfrwt beam="1">  1        1 0.54991889E-03 0.79923502E+02</pdfrwt>
<pdfrwt beam="2">  1       -2 0.68732742E-01 0.79923502E+02</pdfrwt>
<totfact> 0.54901434E+04</totfact>
</mgrwt>
</event>
<event>
 8    1  0.1241100E-020  0.7820764E+02  0.7818608E-02  0.1334216E+00
         -2   -1    0    0    0  501 -0.00000000000E+00  0.00000000000E+00  0.39193586941E+02  0.39193587024E+02  0.25500000000E-02 0.  1.
          1   -1    0    0  501    0  0.00000000000E+00 -0.00000000000E+00 -0.39014260717E+02  0.39014261042E+02  0.50400000000E-02 0. -1.
        -24    2    1    2    0    0 -0.71054273576E-14  0.35527136788E-14  0.17932622393E+00  0.78207848066E+02  0.78207642473E+02 0.  0.
         66    2    3    3    0    0  0.34580713552E+02 -0.15319513309E+02  0.99178026135E+01  0.39151960876E+02  0.19999984838E+01 0.  0.
         13    1    3    3    0    0 -0.34580713552E+02  0.15319513309E+02 -0.97384763895E+01  0.39055887190E+02  0.10566000000E+00 0. -1.
         13    1    4    4    0    0  0.28309094104E+01 -0.12889968887E+01  0.13314360430E+01  0.33851805034E+01  0.10566000000E+00 0. -1.
        -13    1    4    4    0    0  0.21890814406E+02 -0.10058604686E+02  0.60425773615E+01  0.24837616407E+02  0.10566000000E+00 0.  1.
         14    1    4    4    0    0  0.98589897361E+01 -0.39719117340E+01  0.25437892090E+01  0.10929163965E+02  0.00000000000E+00 0. -1.
<mgrwt>
<rscale>  0 0.78207642E+02</rscale>
<asrwt>0</asrwt>
<pdfrwt beam="1">  1        1 0.60021940E-02 0.78207642E+02</pdfrwt>
<pdfrwt beam="2">  1       -2 0.60297826E-02 0.78207642E+02</pdfrwt>
<totfact> 0.13479196E+05</totfact>
</mgrwt>
</event>
<event>
 8    1  0.1241100E-020  0.8008463E+02  0.7818608E-02  0.1328811E+00
          1   -1    0    0  501    0  0.00000000000E+00  0.00000000000E+00  0.75723134738E+01  0.75723151510E+01  0.50400000000E-02 0. -1.
         -2   -1    0    0    0  501 -0.00000000000E+00 -0.00000000000E+00 -0.21174331904E+03  0.21174331906E+03  0.25500000000E-02 0.  1.
        -24    2    1    2    0    0  0.00000000000E+00 -0.17763568394E-14 -0.20417100557E+03  0.21931563421E+03  0.80084629571E+02 0.  0.
         66    2    3    3    0    0  0.33207308734E+02 -0.10295638160E+02 -0.15641486909E+03  0.16024461547E+03  0.19999997403E+01 0.  0.
         13    1    3    3    0    0 -0.33207308734E+02  0.10295638160E+02 -0.47756136481E+02  0.59071018733E+02  0.10566000000E+00 0. -1.
         13    1    4    4    0    0  0.16132045308E+01 -0.80064231442E+00 -0.85228084657E+01  0.87116522630E+01  0.10566000000E+00 0. -1.
        -13    1    4    4    0    0  0.10471051921E+02 -0.36556193791E+01 -0.51574994219E+02  0.52754124712E+02  0.10566000000E+00 0.  1.
         14    1    4    4    0    0  0.21123052282E+02 -0.58393764666E+01 -0.96317066401E+02  0.98778838500E+02  0.00000000000E+00 0. -1.
<mgrwt>
<rscale>  0 0.80084630E+02</rscale>
<asrwt>0</asrwt>
<pdfrwt beam="1">  1        1 0.11649716E-02 0.80084630E+02</pdfrwt>
<pdfrwt beam="2">  1       -2 0.32575891E-01 0.80084630E+02</pdfrwt>
<totfact> 0.82862849E+04</totfact>
</mgrwt>
</event>
<event>
 8    1  0.1241100E-020  0.8710025E+02  0.7818608E-02  0.1310030E+00
          1   -1    0    0  501    0  0.00000000000E+00  0.00000000000E+00  0.22476442798E+03  0.22476442803E+03  0.50400000000E-02 0. -1.
         -2   -1    0    0    0  501 -0.00000000000E+00 -0.00000000000E+00 -0.84382282604E+01  0.84382286457E+01  0.25500000000E-02 0.  1.
        -24    2    1    2    0    0  0.00000000000E+00  0.00000000000E+00  0.21632619972E+03  0.23320265668E+03  0.87100254870E+02 0.  0.
         66    2    3    3    0    0 -0.24693266922E+02 -0.26315384899E+02  0.43056551698E+02  0.56214976311E+02  0.20000009656E+01 0.  0.
         13    1    3    3    0    0  0.24693266922E+02  0.26315384899E+02  0.17326964802E+03  0.17698768037E+03  0.10566000000E+00 0. -1.
         13    1    4    4    0    0 -0.97005359161E+00 -0.70009864774E+00  0.13916858971E+01  0.18382316935E+01  0.10566000000E+00 0. -1.
        -13    1    4    4    0    0 -0.17684668322E+02 -0.19505934954E+02  0.30581298699E+02  0.40354132207E+02  0.10566000000E+00 0.  1.
         14    1    4    4    0    0 -0.60385450089E+01 -0.61093512969E+01  0.11083567102E+02  0.14022612410E+02  0.00000000000E+00 0. -1.
<mgrwt>
<rscale>  0 0.87100255E+02</rscale>
<asrwt>0</asrwt>
<pdfrwt beam="1">  1        1 0.34579144E-01 0.87100255E+02</pdfrwt>
<pdfrwt beam="2">  1       -2 0.12981889E-02 0.87100255E+02</pdfrwt>
<totfact> 0.13602762E+05</totfact>
</mgrwt>
</event>
<event>
 8    1  0.1241100E-020  0.8167319E+02  0.7818608E-02  0.1324369E+00
         -2   -1    0    0    0  501 -0.00000000000E+00  0.00000000000E+00  0.23370925960E+03  0.23370925961E+03  0.25500000000E-02 0.  1.
          1   -1    0    0  501    0  0.00000000000E+00 -0.00000000000E+00 -0.71354777865E+01  0.71354795665E+01  0.50400000000E-02 0. -1.
        -24    2    1    2    0    0  0.00000000000E+00  0.00000000000E+00  0.22657378181E+03  0.24084473918E+03  0.81673188902E+02 0.  0.
         66    2    3    3    0    0 -0.28011050559E+02 -0.28957844610E+02  0.13256695464E+03  0.13856829792E+03  0.20000019156E+01 0.  0.
         13    1    3    3    0    0  0.28011050559E+02  0.28957844610E+02  0.94006827170E+02  0.10227644126E+03  0.10566000000E+00 0. -1.
         13    1    4    4    0    0 -0.79153905868E+01 -0.84690232717E+01  0.35469463333E+02  0.37315837878E+02  0.10566000000E+00 0. -1.
        -13    1    4    4    0    0 -0.31525696042E+01 -0.34678843424E+01  0.16465262516E+02  0.17119607199E+02  0.10566000000E+00 0.  1.
         14    1    4    4    0    0 -0.16943090368E+02 -0.17020936996E+02  0.80632228790E+02  0.84132852840E+02  0.00000000000E+00 0. -1.
<mgrwt>
<rscale>  0 0.81673189E+02</rscale>
<asrwt>0</asrwt>
<pdfrwt beam="1">  1        1 0.10977660E-02 0.81673189E+02</pdfrwt>
<pdfrwt beam="2">  1       -2 0.35955270E-01 0.81673189E+02</pdfrwt>
<totfact> 0.75428110E+04</totfact>
</mgrwt>
</event>
<event>
 8    1  0.1241100E-020  0.8093449E+02  0.7818608E-02  0.1326420E+00
          1   -1    0    0  501    0  0.00000000000E+00  0.00000000000E+00  0.20781367543E+03  0.20781367549E+03  0.50400000000E-02 0. -1.
         -2   -1    0    0    0  501 -0.00000000000E+00 -0.00000000000E+00 -0.78801263603E+01  0.78801267729E+01  0.25500000000E-02 0.  1.
        -24    2    1    2    0    0  0.35527136788E-14  0.00000000000E+00  0.19993354907E+03  0.21569380227E+03  0.80934493831E+02 0.  0.
         66    2    3    3    0    0  0.27629271202E+02 -0.26337122630E+02  0.64414429839E+02  0.74901531536E+02  0.19999998532E+01 0.  0.
         13    1    3    3    0    0 -0.27629271202E+02  0.26337122630E+02  0.13551911923E+03  0.14079227073E+03  0.10566000000E+00 0. -1.
         13    1    4    4    0    0  0.31209870601E+01 -0.35517313257E+01  0.72840824276E+01  0.86847208641E+01  0.10566000000E+00 0.  1.
        -13    1    4    4    0    0  0.10408007539E+02 -0.91144182970E+01  0.24084064654E+02  0.27775035123E+02  0.10566000000E+00 0. -1.
        -14    1    4    4    0    0  0.14100276603E+02 -0.13670973008E+02  0.33046282758E+02  0.38441775549E+02  0.00000000000E+00 0.  1.
<mgrwt>
<rscale>  0 0.80934494E+02</rscale>
<asrwt>0</asrwt>
<pdfrwt beam="1">  1        1 0.31971331E-01 0.80934494E+02</pdfrwt>
<pdfrwt beam="2">  1       -2 0.12123273E-02 0.80934494E+02</pdfrwt>
<totfact> 0.16288582E+05</totfact>
</mgrwt>
</event>
<event>
 8    1  0.1241100E-020  0.8025714E+02  0.7818608E-02  0.1328323E+00
          1   -1    0    0  501    0  0.00000000000E+00  0.00000000000E+00  0.58817392057E+02  0.58817392273E+02  0.50400000000E-02 0. -1.
         -2   -1    0    0    0  501 -0.00000000000E+00 -0.00000000000E+00 -0.27377995002E+02  0.27377995121E+02  0.25500000000E-02 0.  1.
        -24    2    1    2    0    0  0.00000000000E+00  0.00000000000E+00  0.31439397055E+02  0.86195387394E+02  0.80257143737E+02 0.  0.
         66    2    3    3    0    0  0.21138359450E+02 -0.32933993239E+02  0.63162802580E+01  0.39690975641E+02  0.20000000326E+01 0.  0.
         13    1    3    3    0    0 -0.21138359450E+02  0.32933993239E+02  0.25123116797E+02  0.46504411753E+02  0.10566000000E+00 0. -1.
         13    1    4    4    0    0  0.11870062478E+02 -0.19075610428E+02  0.41805375057E+01  0.22853125701E+02  0.10566000000E+00 0.  1.
        -13    1    4    4    0    0  0.31724867982E+01 -0.49547205927E+01  0.12127531051E+01  0.60079832528E+01  0.10566000000E+00 0. -1.
         14    1    4    4    0    0  0.60958101745E+01 -0.89036622175E+01  0.92298964718E+00  0.10829866687E+02  0.00000000000E+00 0. -1.
<mgrwt>
<rscale>  0 0.80257144E+02</rscale>
<asrwt>0</asrwt>
<pdfrwt beam="1">  1        1 0.90488295E-02 0.80257144E+02</pdfrwt>
<pdfrwt beam="2">  1       -2 0.42119993E-02 0.80257144E+02</pdfrwt>
<totfact> 0.13377356E+05</totfact>
</mgrwt>
</event>
<event>
 8    1  0.1241100E-020  0.8294117E+02  0.7818608E-02  0.1320906E+00
          1   -1    0    0  501    0  0.00000000000E+00  0.00000000000E+00  0.11820788770E+02  0.11820789845E+02  0.50400000000E-02 0. -1.
         -2   -1    0    0    0  501 -0.00000000000E+00 -0.00000000000E+00 -0.14549024321E+03  0.14549024323E+03  0.25500000000E-02 0.  1.
        -24    2    1    2    0    0  0.00000000000E+00 -0.35527136788E-14 -0.13366945444E+03  0.15731103308E+03  0.82941172392E+02 0.  0.
         66    2    3    3    0    0 -0.96180712489E+01  0.28977157486E+02 -0.12003479488E+03  0.12387305982E+03  0.20000039714E+01 0.  0.
         13    1    3    3    0    0  0.96180712489E+01 -0.28977157486E+02 -0.13634659561E+02  0.33437973262E+02  0.10566000000E+00 0. -1.
         13    1    4    4    0    0 -0.51491031997E+01  0.14340191984E+02 -0.58647186428E+02  0.60594207725E+02  0.10566000000E+00 0.  1.
        -13    1    4    4    0    0 -0.65805110024E+00  0.10512431569E+01 -0.49022689754E+01  0.50578205354E+01  0.10566000000E+00 0.  1.
        -14    1    4    4    0    0 -0.38109169490E+01  0.13585722346E+02 -0.56485339476E+02  0.58221031555E+02  0.00000000000E+00 0.  1.
<mgrwt>
<rscale>  0 0.82941172E+02</rscale>
<asrwt>0</asrwt>
<pdfrwt beam="1">  1        1 0.18185831E-02 0.82941172E+02</pdfrwt>
<pdfrwt beam="2">  1       -2 0.22383113E-01 0.82941172E+02</pdfrwt>
<totfact> 0.86978045E+04</totfact>
</mgrwt>
</event>
<event>
 8    1  0.1241100E-020  0.8013422E+02  0.7818608E-02  0.1328671E+00
         -2   -1    0    0    0  501 -0.00000000000E+00  0.00000000000E+00  0.42962182690E+01  0.42962190258E+01  0.25500000000E-02 0.  1.
          1   -1    0    0  501    0  0.00000000000E+00 -0.00000000000E+00 -0.37367123764E+03  0.37367123768E+03  0.50400000000E-02 0. -1.
        -24    2    1    2    0    0 -0.71054273576E-14 -0.88817841970E-15 -0.36937501937E+03  0.37796745670E+03  0.80134221085E+02 0.  0.
         66    2    3    3    0    0 -0.39503717115E+02 -0.64466530326E+01 -0.17949647006E+03  0.18391597473E+03  0.19999991641E+01 0.  0.
         13    1    3    3    0    0  0.39503717115E+02  0.64466530326E+01 -0.18987854932E+03  0.19405148197E+03  0.10566000000E+00 0. -1.
         13    1    4    4    0    0 -0.11963065899E+01 -0.31569800965E+00 -0.44995281107E+01  0.46677330627E+01  0.10566000000E+00 0. -1.
        -13    1    4    4    0    0 -0.14805670942E+02 -0.23577685127E+01 -0.69805639430E+02  0.71397516937E+02  0.10566000000E+00 0.  1.
        -14    1    4    4    0    0 -0.23501739583E+02 -0.37731865102E+01 -0.10519130252E+03  0.10785072473E+03  0.00000000000E+00 0.  1.
<mgrwt>
<rscale>  0 0.80134221E+02</rscale>
<asrwt>0</asrwt>
<pdfrwt beam="1">  1        1 0.57487857E-01 0.80134221E+02</pdfrwt>
<pdfrwt beam="2">  1       -2 0.66095701E-03 0.80134221E+02</pdfrwt>
<totfact> 0.18694523E+05</totfact>
</mgrwt>
</event>
<event>
 8    1  0.1241100E-020  0.8053657E+02  0.7818608E-02  0.1327536E+00
         -2   -1    0    0    0  501 -0.00000000000E+00  0.00000000000E+00  0.38583836728E+03  0.38583836728E+03  0.25500000000E-02 0.  1.
          1   -1    0    0  501    0  0.00000000000E+00 -0.00000000000E+00 -0.42026260765E+01  0.42026290986E+01  0.50400000000E-02 0. -1.
        -24    2    1    2    0    0  0.00000000000E+00  0.00000000000E+00  0.38163574120E+03  0.39004099638E+03  0.80536574912E+02 0.  0.
         66    2    3    3    0    0  0.24196606067E+01 -0.39986800740E+02  0.17234718325E+03  0.17695296142E+03  0.19999977382E+01 0.  0.
         13    1    3    3    0    0 -0.24196606067E+01  0.39986800740E+02  0.20928855795E+03  0.21308803497E+03  0.10566000000E+00 0. -1.
         13    1    4    4    0    0  0.15192445913E+01 -0.17436448785E+02  0.74592936978E+02  0.76618896243E+02  0.10566000000E+00 0. -1.
        -13    1    4    4    0    0  0.10502546093E+01 -0.20147773511E+02  0.88664223768E+02  0.90930696427E+02  0.10566000000E+00 0.  1.
         14    1    4    4    0    0 -0.14983859394E+00 -0.24025784440E+01  0.90900224986E+01  0.94033687479E+01  0.00000000000E+00 0. -1.
<mgrwt>
<rscale>  0 0.80536575E+02</rscale>
<asrwt>0</asrwt>
<pdfrwt beam="1">  1        1 0.64655797E-03 0.80536575E+02</pdfrwt>
<pdfrwt beam="2">  1       -2 0.59359760E-01 0.80536575E+02</pdfrwt>
<totfact> 0.59468351E+04</totfact>
</mgrwt>
</event>
<event>
 8    1  0.1241100E-020  0.7892810E+02  0.7818608E-02  0.1332121E+00
         -2   -1    0    0    0  501 -0.00000000000E+00  0.00000000000E+00  0.47213328256E+02  0.47213328325E+02  0.25500000000E-02 0.  1.
          1   -1    0    0  501    0  0.00000000000E+00 -0.00000000000E+00 -0.32986686556E+02  0.32986686941E+02  0.50400000000E-02 0. -1.
        -24    2    1    2    0    0  0.00000000000E+00  0.00000000000E+00  0.14226641700E+02  0.80200015267E+02  0.78928100919E+02 0.  0.
         66    2    3    3    0    0 -0.24906195423E+01  0.15913266092E+02  0.43697602231E+02  0.46614543674E+02  0.20000044557E+01 0.  0.
         13    1    3    3    0    0  0.24906195423E+01 -0.15913266092E+02 -0.29470960531E+02  0.33585471592E+02  0.10566000000E+00 0. -1.
         13    1    4    4    0    0 -0.13036670112E+01  0.54486970091E+01  0.16420007776E+02  0.17349803059E+02  0.10566000000E+00 0. -1.
        -13    1    4    4    0    0 -0.14065844442E+01  0.97599541932E+01  0.25305344447E+02  0.27158917638E+02  0.10566000000E+00 0.  1.
        -14    1    4    4    0    0  0.21963191301E+00  0.70461488963E+00  0.19722500081E+01  0.21058229779E+01  0.00000000000E+00 0.  1.
<mgrwt>
<rscale>  0 0.78928101E+02</rscale>
<asrwt>0</asrwt>
<pdfrwt beam="1">  1        1 0.50748749E-02 0.78928101E+02</pdfrwt>
<pdfrwt beam="2">  1       -2 0.72635890E-02 0.78928101E+02</pdfrwt>
<totfact> 0.12778236E+05</totfact>
</mgrwt>
</event>
<event>
 8    1  0.1241100E-020  0.7885465E+02  0.7818608E-02  0.1332334E+00
         -2   -1    0    0    0  501 -0.00000000000E+00  0.00000000000E+00  0.65212112267E+01  0.65212117252E+01  0.25500000000E-02 0.  1.
          1   -1    0    0  501    0  0.00000000000E+00 -0.00000000000E+00 -0.23837812110E+03  0.23837812116E+03  0.50400000000E-02 0. -1.
        -24    2    1    2    0    0  0.71054273576E-14  0.00000000000E+00 -0.23185690988E+03  0.24489933288E+03  0.78854654830E+02 0.  0.
         66    2    3    3    0    0 -0.31829516951E+02  0.11002386890E+02 -0.52480815962E+02  0.62389155361E+02  0.19999989908E+01 0.  0.
         13    1    3    3    0    0  0.31829516951E+02 -0.11002386890E+02 -0.17937609391E+03  0.18251017752E+03  0.10566000000E+00 0. -1.
         13    1    4    4    0    0 -0.12018220429E+02  0.34651488483E+01 -0.18491921934E+02  0.22325035715E+02  0.10566000000E+00 0. -1.
        -13    1    4    4    0    0 -0.16954603306E+02  0.67228837161E+01 -0.29097817957E+02  0.34341664384E+02  0.10566000000E+00 0.  1.
         14    1    4    4    0    0 -0.28566932157E+01  0.81435432537E+00 -0.48910760706E+01  0.57224552619E+01  0.00000000000E+00 0. -1.
<mgrwt>
<rscale>  0 0.78854655E+02</rscale>
<asrwt>0</asrwt>
<pdfrwt beam="1">  1        1 0.36673551E-01 0.78854655E+02</pdfrwt>
<pdfrwt beam="2">  1       -2 0.10032635E-02 0.78854655E+02</pdfrwt>
<totfact> 0.17925045E+05</totfact>
</mgrwt>
</event>
<event>
 8    1  0.1241100E-020  0.7977906E+02  0.7818608E-02  0.1329680E+00
         -2   -1    0    0    0  501 -0.00000000000E+00  0.00000000000E+00  0.94772667209E+01  0.94772670639E+01  0.25500000000E-02 0.  1.
          1   -1    0    0  501    0  0.00000000000E+00 -0.00000000000E+00 -0.16789384638E+03  0.16789384645E+03  0.50400000000E-02 0. -1.
        -24    2    1    2    0    0  0.11102230246E-15 -0.35527136788E-14 -0.15841657966E+03  0.17737111352E+03  0.79779064924E+02 0.  0.
         66    2    3    3    0    0 -0.99790319887E+00  0.27310604332E+02 -0.14732840289E+02  0.31111436769E+02  0.19999987655E+01 0.  0.
         13    1    3    3    0    0  0.99790319887E+00 -0.27310604332E+02 -0.14368373937E+03  0.14625967675E+03  0.10566000000E+00 0. -1.
         13    1    4    4    0    0 -0.17925809513E+00  0.15900310314E+01 -0.74477219551E+00  0.17681011861E+01  0.10566000000E+00 0. -1.
        -13    1    4    4    0    0 -0.27695091334E+00  0.39268546668E+01 -0.28596433203E+01  0.48667867570E+01  0.10566000000E+00 0.  1.
        -14    1    4    4    0    0 -0.54169419039E+00  0.21793718634E+02 -0.11128424773E+02  0.24476548826E+02  0.00000000000E+00 0.  1.
<mgrwt>
<rscale>  0 0.79779065E+02</rscale>
<asrwt>0</asrwt>
<pdfrwt beam="1">  1        1 0.25829820E-01 0.79779065E+02</pdfrwt>
<pdfrwt beam="2">  1       -2 0.14580412E-02 0.79779065E+02</pdfrwt>
<totfact> 0.16243125E+05</totfact>
</mgrwt>
</event>
<event>
 8    1  0.1241100E-020  0.8079035E+02  0.7818608E-02  0.1326823E+00
          1   -1    0    0  501    0  0.00000000000E+00  0.00000000000E+00  0.96784215871E+02  0.96784216002E+02  0.50400000000E-02 0. -1.
         -2   -1    0    0    0  501 -0.00000000000E+00 -0.00000000000E+00 -0.16859878002E+02  0.16859878194E+02  0.25500000000E-02 0.  1.
        -24    2    1    2    0    0  0.00000000000E+00  0.00000000000E+00  0.79924337869E+02  0.11364409420E+03  0.80790348198E+02 0.  0.
         66    2    3    3    0    0  0.39468381916E+02  0.48616373914E+01  0.30202864708E+02  0.49976011561E+02  0.20000014462E+01 0.  0.
         13    1    3    3    0    0 -0.39468381916E+02 -0.48616373914E+01  0.49721473161E+02  0.63668082636E+02  0.10566000000E+00 0. -1.
         13    1    4    4    0    0  0.11615460341E+02  0.93486834389E+00  0.94164903549E+01  0.14982468168E+02  0.10566000000E+00 0. -1.
        -13    1    4    4    0    0  0.19986058374E+02  0.24399669843E+01  0.15291760975E+02  0.25283296580E+02  0.10566000000E+00 0.  1.
         14    1    4    4    0    0  0.78668632002E+01  0.14868020632E+01  0.54946133787E+01  0.97102468129E+01  0.00000000000E+00 0. -1.
<mgrwt>
<rscale>  0 0.80790348E+02</rscale>
<asrwt>0</asrwt>
<pdfrwt beam="1">  1        1 0.14889879E-01 0.80790348E+02</pdfrwt>
<pdfrwt beam="2">  1       -2 0.25938274E-02 0.80790348E+02</pdfrwt>
<totfact> 0.14234872E+05</totfact>
</mgrwt>
</event>
<event>
 8    1  0.1241100E-020  0.8068710E+02  0.7818608E-02  0.1327113E+00
         -2   -1    0    0    0  501 -0.00000000000E+00  0.00000000000E+00  0.48647319296E+01  0.48647325979E+01  0.25500000000E-02 0.  1.
          1   -1    0    0  501    0  0.00000000000E+00 -0.00000000000E+00 -0.33457175399E+03  0.33457175403E+03  0.50400000000E-02 0. -1.
        -24    2    1    2    0    0  0.00000000000E+00 -0.88817841970E-15 -0.32970702206E+03  0.33943648663E+03  0.80687099694E+02 0.  0.
         66    2    3    3    0    0 -0.39710672294E+02 -0.65498026994E+01 -0.17505057287E+03  0.17962889654E+03  0.19999999852E+01 0.  0.
         13    1    3    3    0    0  0.39710672294E+02  0.65498026994E+01 -0.15465644919E+03  0.15980759009E+03  0.10566000000E+00 0. -1.
         13    1    4    4    0    0 -0.84789186018E+01 -0.17723314077E+01 -0.40742766996E+02  0.41653540615E+02  0.10566000000E+00 0. -1.
        -13    1    4    4    0    0 -0.11335208662E+02 -0.18066128491E+01 -0.47625946977E+02  0.48989721319E+02  0.10566000000E+00 0.  1.
         14    1    4    4    0    0 -0.19896545030E+02 -0.29708584425E+01 -0.86681858900E+02  0.88985634607E+02  0.00000000000E+00 0. -1.
<mgrwt>
<rscale>  0 0.80687100E+02</rscale>
<asrwt>0</asrwt>
<pdfrwt beam="1">  1        1 0.51472560E-01 0.80687100E+02</pdfrwt>
<pdfrwt beam="2">  1       -2 0.74842061E-03 0.80687100E+02</pdfrwt>
<totfact> 0.18002824E+05</totfact>
</mgrwt>
</event>
<event>
 8    1  0.1241100E-020  0.8054578E+02  0.7818608E-02  0.1327510E+00
          1   -1    0    0  501    0  0.00000000000E+00  0.00000000000E+00  0.69366368791E+02  0.69366368974E+02  0.50400000000E-02 0. -1.
         -2   -1    0    0    0  501 -0.00000000000E+00 -0.00000000000E+00 -0.23381731745E+02  0.23381731884E+02  0.25500000000E-02 0.  1.
        -24    2    1    2    0    0  0.35527136788E-14 -0.35527136788E-14  0.45984637046E+02  0.92748100858E+02  0.80545784300E+02 0.  0.
         66    2    3    3    0    0  0.26984848618E+02 -0.26020803662E+02  0.61364933271E+01  0.38038412502E+02  0.19999992943E+01 0.  0.
         13    1    3    3    0    0 -0.26984848618E+02  0.26020803662E+02  0.39848143718E+02  0.54709688356E+02  0.10566000000E+00 0. -1.
         13    1    4    4    0    0  0.60119844738E+01 -0.61155781072E+01  0.15990785155E+01  0.87242460438E+01  0.10566000000E+00 0. -1.
        -13    1    4    4    0    0  0.99304269612E+01 -0.10528341615E+02  0.24002248058E+01  0.14670773666E+02  0.10566000000E+00 0.  1.
        -14    1    4    4    0    0  0.11042437183E+02 -0.93768839396E+01  0.21371900058E+01  0.14643392792E+02  0.00000000000E+00 0.  1.
<mgrwt>
<rscale>  0 0.80545784E+02</rscale>
<asrwt>0</asrwt>
<pdfrwt beam="1">  1        1 0.10671749E-01 0.80545784E+02</pdfrwt>
<pdfrwt beam="2">  1       -2 0.35971895E-02 0.80545784E+02</pdfrwt>
<totfact> 0.13595005E+05</totfact>
</mgrwt>
</event>
<event>
 8    1  0.1241100E-020  0.7952009E+02  0.7818608E-02  0.1330419E+00
         -2   -1    0    0    0  501 -0.00000000000E+00  0.00000000000E+00  0.76596599269E+02  0.76596599311E+02  0.25500000000E-02 0.  1.
          1   -1    0    0  501    0  0.00000000000E+00 -0.00000000000E+00 -0.20638790418E+02  0.20638791033E+02  0.50400000000E-02 0. -1.
        -24    2    1    2    0    0  0.35527136788E-14  0.00000000000E+00  0.55957808851E+02  0.97235390344E+02  0.79520090317E+02 0.  0.
         66    2    3    3    0    0 -0.23187875395E+02 -0.35484511586E+01  0.67212982846E+02  0.71216951178E+02  0.20000002688E+01 0.  0.
         13    1    3    3    0    0  0.23187875395E+02  0.35484511586E+01 -0.11255173995E+02  0.26018439166E+02  0.10566000000E+00 0. -1.
         13    1    4    4    0    0 -0.57204699014E+01 -0.20776086182E+00  0.16561048282E+02  0.17522740217E+02  0.10566000000E+00 0. -1.
        -13    1    4    4    0    0 -0.49612948453E+01 -0.66257601985E+00  0.15448301208E+02  0.16239292711E+02  0.10566000000E+00 0.  1.
        -14    1    4    4    0    0 -0.12506110648E+02 -0.26781142769E+01  0.35203633357E+02  0.37454918250E+02  0.00000000000E+00 0.  1.
<mgrwt>
<rscale>  0 0.79520090E+02</rscale>
<asrwt>0</asrwt>
<pdfrwt beam="1">  1        1 0.31751986E-02 0.79520090E+02</pdfrwt>
<pdfrwt beam="2">  1       -2 0.11784092E-01 0.79520090E+02</pdfrwt>
<totfact> 0.11454278E+05</totfact>
</mgrwt>
</event>
<event>
 8    1  0.1241100E-020  0.7879984E+02  0.7818608E-02  0.1332492E+00
         -2   -1    0    0    0  501 -0.00000000000E+00  0.00000000000E+00  0.17374503501E+02  0.17374503688E+02  0.25500000000E-02 0.  1.
          1   -1    0    0  501    0  0.00000000000E+00 -0.00000000000E+00 -0.89346656199E+02  0.89346656341E+02  0.50400000000E-02 0. -1.
        -24    2    1    2    0    0  0.00000000000E+00 -0.35527136788E-14 -0.71972152698E+02  0.10672116003E+03  0.78799842856E+02 0.  0.
         66    2    3    3    0    0 -0.85383441131E+01  0.22379129770E+02  0.63149342994E+01  0.24851703430E+02  0.19999996768E+01 0.  0.
         13    1    3    3    0    0  0.85383441131E+01 -0.22379129770E+02 -0.78287086997E+02  0.81869456600E+02  0.10566000000E+00 0. -1.
         13    1    4    4    0    0 -0.49976055349E+01  0.14687835377E+02  0.39263430232E+01  0.16004246396E+02  0.10566000000E+00 0.  1.
        -13    1    4    4    0    0 -0.31139272179E+00  0.13317483111E+01  0.19678744390E+00  0.13857879798E+01  0.10566000000E+00 0. -1.
        -14    1    4    4    0    0 -0.32293458564E+01  0.63595460816E+01  0.21918038323E+01  0.74616690535E+01  0.00000000000E+00 0.  1.
<mgrwt>
<rscale>  0 0.78799843E+02</rscale>
<asrwt>0</asrwt>
<pdfrwt beam="1">  1        1 0.13745639E-01 0.78799843E+02</pdfrwt>
<pdfrwt beam="2">  1       -2 0.26730006E-02 0.78799843E+02</pdfrwt>
<totfact> 0.15029631E+05</totfact>
</mgrwt>
</event>
<event>
 8    1  0.1241100E-020  0.7537848E+02  0.7818608E-02  0.1342703E+00
         -2   -1    0    0    0  501 -0.00000000000E+00  0.00000000000E+00  0.40256893820E+02  0.40256893901E+02  0.25500000000E-02 0.  1.
          1   -1    0    0  501    0  0.00000000000E+00 -0.00000000000E+00 -0.35285353317E+02  0.35285353677E+02  0.50400000000E-02 0. -1.
        -24    2    1    2    0    0  0.00000000000E+00  0.00000000000E+00  0.49715405026E+01  0.75542247578E+02  0.75378478057E+02 0.  0.
         66    2    3    3    0    0 -0.24269897967E+02 -0.28533628366E+02  0.64047104809E+01  0.38055436093E+02  0.20000012065E+01 0.  0.
         13    1    3    3    0    0  0.24269897967E+02  0.28533628366E+02 -0.14331699783E+01  0.37486811485E+02  0.10566000000E+00 0. -1.
         13    1    4    4    0    0 -0.10899397100E+02 -0.11557955522E+02  0.26220866529E+01  0.16101853789E+02  0.10566000000E+00 0. -1.
        -13    1    4    4    0    0 -0.93410236766E+01 -0.12351141804E+02  0.29318876532E+01  0.15761108985E+02  0.10566000000E+00 0.  1.
        -14    1    4    4    0    0 -0.40294771908E+01 -0.46245310398E+01  0.85073617475E+00  0.61924733191E+01  0.00000000000E+00 0.  1.
<mgrwt>
<rscale>  0 0.75378478E+02</rscale>
<asrwt>0</asrwt>
<pdfrwt beam="1">  1        1 0.54285160E-02 0.75378478E+02</pdfrwt>
<pdfrwt beam="2">  1       -2 0.61933682E-02 0.75378478E+02</pdfrwt>
<totfact> 0.14713350E+05</totfact>
</mgrwt>
</event>
<event>
 8    1  0.1241100E-020  0.7971074E+02  0.7818608E-02  0.1329874E+00
          1   -1    0    0  501    0  0.00000000000E+00  0.00000000000E+00  0.52813860883E+01  0.52813884931E+01  0.50400000000E-02 0. -1.
         -2   -1    0    0    0  501 -0.00000000000E+00 -0.00000000000E+00 -0.30076384409E+03  0.30076384410E+03  0.25500000000E-02 0.  1.
        -24    2    1    2    0    0 -0.35527136788E-14  0.00000000000E+00 -0.29548245800E+03  0.30604523259E+03  0.79710735830E+02 0.  0.
         66    2    3    3    0    0  0.25497705631E+02  0.13996209871E+02 -0.25230778947E+03  0.25398670735E+03  0.20000005289E+01 0.  0.
         13    1    3    3    0    0 -0.25497705631E+02 -0.13996209871E+02 -0.43174668527E+02  0.52058525235E+02  0.10566000000E+00 0. -1.
         13    1    4    4    0    0  0.64705720403E+01  0.31674550030E+01 -0.68180181229E+02  0.68559823148E+02  0.10566000000E+00 0. -1.
        -13    1    4    4    0    0  0.30226022899E+01  0.13970742701E+01 -0.26757166197E+02  0.26963772882E+02  0.10566000000E+00 0.  1.
         14    1    4    4    0    0  0.16004531301E+02  0.94316805977E+01 -0.15737044205E+03  0.15846311132E+03  0.00000000000E+00 0. -1.
<mgrwt>
<rscale>  0 0.79710736E+02</rscale>
<asrwt>0</asrwt>
<pdfrwt beam="1">  1        1 0.81252136E-03 0.79710736E+02</pdfrwt>
<pdfrwt beam="2">  1       -2 0.46271347E-01 0.79710736E+02</pdfrwt>
<totfact> 0.70832270E+04</totfact>
</mgrwt>
</event>
<event>
 8    1  0.1241100E-020  0.8026394E+02  0.7818608E-02  0.1328304E+00
          1   -1    0    0  501    0  0.00000000000E+00  0.00000000000E+00  0.49600841871E+03  0.49600841873E+03  0.50400000000E-02 0. -1.
         -2   -1    0    0    0  501 -0.00000000000E+00 -0.00000000000E+00 -0.32470710546E+01  0.32470720558E+01  0.25500000000E-02 0.  1.
        -24    2    1    2    0    0  0.00000000000E+00  0.00000000000E+00  0.49276134765E+03  0.49925549079E+03  0.80263935501E+02 0.  0.
         66    2    3    3    0    0  0.22159839570E+02  0.31006613013E+02  0.32424837323E+03  0.32648656345E+03  0.20000079999E+01 0.  0.
         13    1    3    3    0    0 -0.22159839570E+02 -0.31006613013E+02  0.16851297442E+03  0.17276892734E+03  0.10566000000E+00 0. -1.
         13    1    4    4    0    0  0.62163263859E+01  0.73573809837E+01  0.80504232691E+02  0.81078458384E+02  0.10566000000E+00 0. -1.
        -13    1    4    4    0    0  0.12938829527E+02  0.18881222243E+02  0.19726193886E+03  0.19858549179E+03  0.10566000000E+00 0.  1.
         14    1    4    4    0    0  0.30046836567E+01  0.47680097868E+01  0.46482201677E+02  0.46822613275E+02  0.00000000000E+00 0. -1.
<mgrwt>
<rscale>  0 0.80263936E+02</rscale>
<asrwt>0</asrwt>
<pdfrwt beam="1">  1        1 0.76308907E-01 0.80263936E+02</pdfrwt>
<pdfrwt beam="2">  1       -2 0.49955000E-03 0.80263936E+02</pdfrwt>
<totfact> 0.19421405E+05</totfact>
</mgrwt>
</event>
<event>
 8    1  0.1241100E-020  0.7774470E+02  0.7818608E-02  0.1335576E+00
          1   -1    0    0  501    0  0.00000000000E+00  0.00000000000E+00  0.19484683010E+03  0.19484683017E+03  0.50400000000E-02 0. -1.
         -2   -1    0    0    0  501 -0.00000000000E+00 -0.00000000000E+00 -0.77551154713E+01  0.77551158905E+01  0.25500000000E-02 0.  1.
        -24    2    1    2    0    0  0.00000000000E+00  0.00000000000E+00  0.18709171463E+03  0.20260194606E+03  0.77744703118E+02 0.  0.
         66    2    3    3    0    0 -0.30907670000E+02  0.17755679267E+02  0.53361567707E+02  0.64202843563E+02  0.20000005904E+01 0.  0.
         13    1    3    3    0    0  0.30907670000E+02 -0.17755679267E+02  0.13373014693E+03  0.13839910250E+03  0.10566000000E+00 0. -1.
         13    1    4    4    0    0 -0.53833360285E+01  0.34486415794E+01  0.94852365438E+01  0.11439156956E+02  0.10566000000E+00 0. -1.
        -13    1    4    4    0    0 -0.88145644044E+01  0.48132650743E+01  0.13701000894E+02  0.16988015065E+02  0.10566000000E+00 0.  1.
        -14    1    4    4    0    0 -0.16709769567E+02  0.94937726131E+01  0.30175330269E+02  0.35775671542E+02  0.00000000000E+00 0.  1.
<mgrwt>
<rscale>  0 0.77744703E+02</rscale>
<asrwt>0</asrwt>
<pdfrwt beam="1">  1        1 0.29976436E-01 0.77744703E+02</pdfrwt>
<pdfrwt beam="2">  1       -2 0.11930947E-02 0.77744703E+02</pdfrwt>
<totfact> 0.17896915E+05</totfact>
</mgrwt>
</event>
<event>
 8    1  0.1241100E-020  0.8072567E+02  0.7818608E-02  0.1327005E+00
          1   -1    0    0  501    0  0.00000000000E+00  0.00000000000E+00  0.33200926726E+03  0.33200926730E+03  0.50400000000E-02 0. -1.
         -2   -1    0    0    0  501 -0.00000000000E+00 -0.00000000000E+00 -0.49069660063E+01  0.49069666688E+01  0.25500000000E-02 0.  1.
        -24    2    1    2    0    0 -0.17763568394E-14  0.71054273576E-14  0.32710230126E+03  0.33691623397E+03  0.80725666458E+02 0.  0.
         66    2    3    3    0    0  0.10942106534E+02 -0.37389536463E+02  0.11998855436E+03  0.12617036224E+03  0.19999997155E+01 0.  0.
         13    1    3    3    0    0 -0.10942106534E+02  0.37389536463E+02  0.20711374690E+03  0.21074587173E+03  0.10566000000E+00 0. -1.
         13    1    4    4    0    0  0.17623058407E+00 -0.36444236839E+00  0.97749402577E+00  0.10632657545E+01  0.10566000000E+00 0. -1.
        -13    1    4    4    0    0  0.68093970237E+01 -0.24900725387E+02  0.80831906726E+02  0.84854123775E+02  0.10566000000E+00 0.  1.
        -14    1    4    4    0    0  0.39564789261E+01 -0.12124368707E+02  0.38179153604E+02  0.40252972710E+02  0.00000000000E+00 0.  1.
<mgrwt>
<rscale>  0 0.80725666E+02</rscale>
<asrwt>0</asrwt>
<pdfrwt beam="1">  1        1 0.51078349E-01 0.80725666E+02</pdfrwt>
<pdfrwt beam="2">  1       -2 0.75491790E-03 0.80725666E+02</pdfrwt>
<totfact> 0.17954859E+05</totfact>
</mgrwt>
</event>
<event>
 8    1  0.1241100E-020  0.7979549E+02  0.7818608E-02  0.1329633E+00
          1   -1    0    0  501    0  0.00000000000E+00  0.00000000000E+00  0.21822999405E+02  0.21822999987E+02  0.50400000000E-02 0. -1.
         -2   -1    0    0    0  501 -0.00000000000E+00 -0.00000000000E+00 -0.72942763706E+02  0.72942763750E+02  0.25500000000E-02 0.  1.
        -24    2    1    2    0    0  0.00000000000E+00  0.00000000000E+00 -0.51119764301E+02  0.94765763738E+02  0.79795486555E+02 0.  0.
         66    2    3    3    0    0  0.20977490351E+02  0.11921599632E+02 -0.63274647356E+02  0.67748510263E+02  0.20000013960E+01 0.  0.
         13    1    3    3    0    0 -0.20977490351E+02 -0.11921599632E+02  0.12154883055E+02  0.27017253475E+02  0.10566000000E+00 0. -1.
         13    1    4    4    0    0  0.61090857649E+01  0.34867939487E+01 -0.17237538880E+02  0.18617802545E+02  0.10566000000E+00 0. -1.
        -13    1    4    4    0    0  0.12433534155E+02  0.72261863010E+01 -0.40101288182E+02  0.42602054151E+02  0.10566000000E+00 0.  1.
        -14    1    4    4    0    0  0.24348704305E+01  0.12086193827E+01 -0.59358202947E+01  0.65286535669E+01  0.00000000000E+00 0.  1.
<mgrwt>
<rscale>  0 0.79795487E+02</rscale>
<asrwt>0</asrwt>
<pdfrwt beam="1">  1        1 0.33573846E-02 0.79795487E+02</pdfrwt>
<pdfrwt beam="2">  1       -2 0.11221964E-01 0.79795487E+02</pdfrwt>
<totfact> 0.11469850E+05</totfact>
</mgrwt>
</event>
<event>
 8    1  0.1241100E-020  0.7482232E+02  0.7818608E-02  0.1344422E+00
         -2   -1    0    0    0  501 -0.00000000000E+00  0.00000000000E+00  0.54660643568E+02  0.54660643628E+02  0.25500000000E-02 0.  1.
          1   -1    0    0  501    0  0.00000000000E+00 -0.00000000000E+00 -0.25605164160E+02  0.25605164656E+02  0.50400000000E-02 0. -1.
        -24    2    1    2    0    0  0.00000000000E+00  0.00000000000E+00  0.29055479408E+02  0.80265808284E+02  0.74822316830E+02 0.  0.
         66    2    3    3    0    0 -0.28149989601E+02 -0.14941304016E+02  0.35502794209E+02  0.47750527070E+02  0.19999896497E+01 0.  0.
         13    1    3    3    0    0  0.28149989601E+02  0.14941304016E+02 -0.64473148010E+01  0.32515281214E+02  0.10566000000E+00 0. -1.
         13    1    4    4    0    0 -0.34697978653E+01 -0.25037273077E+01  0.52035969176E+01  0.67377097424E+01  0.10566000000E+00 0. -1.
        -13    1    4    4    0    0 -0.71569128743E+01 -0.36420718751E+01  0.85350557439E+01  0.11719403996E+02  0.10566000000E+00 0.  1.
         14    1    4    4    0    0 -0.17523278861E+02 -0.87955048335E+01  0.21764141547E+02  0.29293413332E+02  0.00000000000E+00 0. -1.
<mgrwt>
<rscale>  0 0.74822317E+02</rscale>
<asrwt>0</asrwt>
<pdfrwt beam="1">  1        1 0.39392562E-02 0.74822317E+02</pdfrwt>
<pdfrwt beam="2">  1       -2 0.84093296E-02 0.74822317E+02</pdfrwt>
<totfact> 0.14253816E+05</totfact>
</mgrwt>
</event>
<event>
 8    1  0.1241100E-020  0.8041313E+02  0.7818608E-02  0.1327883E+00
         -2   -1    0    0    0  501 -0.00000000000E+00  0.00000000000E+00  0.51978882753E+02  0.51978882816E+02  0.25500000000E-02 0.  1.
          1   -1    0    0  501    0  0.00000000000E+00 -0.00000000000E+00 -0.31100475282E+02  0.31100475690E+02  0.50400000000E-02 0. -1.
        -24    2    1    2    0    0  0.00000000000E+00  0.00000000000E+00  0.20878407471E+02  0.83079358506E+02  0.80413132703E+02 0.  0.
         66    2    3    3    0    0  0.33531766316E+02  0.63760668533E+01  0.32350742222E+02  0.47070203983E+02  0.19999999682E+01 0.  0.
         13    1    3    3    0    0 -0.33531766316E+02 -0.63760668533E+01 -0.11472334751E+02  0.36009154523E+02  0.10566000000E+00 0. -1.
         13    1    4    4    0    0  0.16253198823E+01  0.56939540399E+00  0.18520061648E+01  0.25311986718E+01  0.10566000000E+00 0. -1.
        -13    1    4    4    0    0  0.12734987378E+02  0.21678650702E+01  0.13027405720E+02  0.18346771005E+02  0.10566000000E+00 0.  1.
        -14    1    4    4    0    0  0.19171459055E+02  0.36388063792E+01  0.17471330338E+02  0.26192234306E+02  0.00000000000E+00 0.  1.
<mgrwt>
<rscale>  0 0.80413133E+02</rscale>
<asrwt>0</asrwt>
<pdfrwt beam="1">  1        1 0.47846886E-02 0.80413133E+02</pdfrwt>
<pdfrwt beam="2">  1       -2 0.79967512E-02 0.80413133E+02</pdfrwt>
<totfact> 0.11993213E+05</totfact>
</mgrwt>
</event>
<event>
 8    1  0.1241100E-020  0.8043300E+02  0.7818608E-02  0.1327827E+00
          1   -1    0    0  501    0  0.00000000000E+00  0.00000000000E+00  0.84149461836E+01  0.84149476929E+01  0.50400000000E-02 0. -1.
         -2   -1    0    0    0  501 -0.00000000000E+00 -0.00000000000E+00 -0.19220164940E+03  0.19220164941E+03  0.25500000000E-02 0.  1.
        -24    2    1    2    0    0  0.17763568394E-14  0.71054273576E-14 -0.18378670321E+03  0.20061659711E+03  0.80432995448E+02 0.  0.
         66    2    3    3    0    0 -0.94124904495E+01  0.34560278049E+02 -0.13742085550E+03  0.14202640344E+03  0.19999883655E+01 0.  0.
         13    1    3    3    0    0  0.94124904495E+01 -0.34560278049E+02 -0.46365847715E+02  0.58590193665E+02  0.10566000000E+00 0. -1.
         13    1    4    4    0    0 -0.14694313547E+01  0.56945045638E+01 -0.23565435104E+02  0.24288423301E+02  0.10566000000E+00 0. -1.
        -13    1    4    4    0    0 -0.22136185122E+00  0.22891831910E+01 -0.80306812416E+01  0.83541825447E+01  0.10566000000E+00 0.  1.
        -14    1    4    4    0    0 -0.77216972437E+01  0.26576590295E+02 -0.10582473915E+03  0.10938379760E+03  0.00000000000E+00 0.  1.
<mgrwt>
<rscale>  0 0.80432995E+02</rscale>
<asrwt>0</asrwt>
<pdfrwt beam="1">  1        1 0.12946074E-02 0.80432995E+02</pdfrwt>
<pdfrwt beam="2">  1       -2 0.29569481E-01 0.80432995E+02</pdfrwt>
<totfact> 0.85244779E+04</totfact>
</mgrwt>
</event>
<event>
 8    1  0.1241100E-020  0.7999989E+02  0.7818608E-02  0.1329052E+00
         -2   -1    0    0    0  501 -0.00000000000E+00  0.00000000000E+00  0.86485354840E+02  0.86485354878E+02  0.25500000000E-02 0.  1.
          1   -1    0    0  501    0  0.00000000000E+00 -0.00000000000E+00 -0.18500189592E+02  0.18500190279E+02  0.50400000000E-02 0. -1.
        -24    2    1    2    0    0  0.00000000000E+00  0.00000000000E+00  0.67985165248E+02  0.10498554516E+03  0.79999887488E+02 0.  0.
         66    2    3    3    0    0  0.74243621474E+01  0.38636385182E+02  0.43302474463E+02  0.58540547562E+02  0.20000002489E+01 0.  0.
         13    1    3    3    0    0 -0.74243621474E+01 -0.38636385182E+02  0.24682690785E+02  0.46444997595E+02  0.10566000000E+00 0. -1.
         13    1    4    4    0    0  0.29390985567E+01  0.13202632102E+02  0.13952334944E+02  0.19432617147E+02  0.10566000000E+00 0. -1.
        -13    1    4    4    0    0  0.12288537608E+00  0.55444223347E+00  0.51153037483E+00  0.77157913780E+00  0.10566000000E+00 0.  1.
        -14    1    4    4    0    0  0.43623782146E+01  0.24879310846E+02  0.28838609144E+02  0.38336351277E+02  0.00000000000E+00 0.  1.
<mgrwt>
<rscale>  0 0.79999887E+02</rscale>
<asrwt>0</asrwt>
<pdfrwt beam="1">  1        1 0.28461831E-02 0.79999887E+02</pdfrwt>
<pdfrwt beam="2">  1       -2 0.13305439E-01 0.79999887E+02</pdfrwt>
<totfact> 0.10984931E+05</totfact>
</mgrwt>
</event>
<event>
 8    1  0.1241100E-020  0.8331407E+02  0.7818608E-02  0.1319901E+00
         -2   -1    0    0    0  501 -0.00000000000E+00  0.00000000000E+00  0.83113499156E+01  0.83113503068E+01  0.25500000000E-02 0.  1.
          1   -1    0    0  501    0  0.00000000000E+00 -0.00000000000E+00 -0.20878781983E+03  0.20878781989E+03  0.50400000000E-02 0. -1.
        -24    2    1    2    0    0 -0.35527136788E-14  0.17763568394E-14 -0.20047646991E+03  0.21709917020E+03  0.83314072708E+02 0.  0.
         66    2    3    3    0    0  0.30740448228E+02 -0.15222359829E+02 -0.38818560211E+02  0.51841836534E+02  0.20000005837E+01 0.  0.
         13    1    3    3    0    0 -0.30740448228E+02  0.15222359829E+02 -0.16165790970E+03  0.16525733366E+03  0.10566000000E+00 0. -1.
         13    1    4    4    0    0  0.97846810786E+01 -0.54380101234E+01 -0.12321564791E+02  0.16647644303E+02  0.10566000000E+00 0.  1.
        -13    1    4    4    0    0  0.44853034672E+01 -0.22535721734E+01 -0.65367836199E+01  0.82424049198E+01  0.10566000000E+00 0. -1.
        -14    1    4    4    0    0  0.16470463682E+02 -0.75307775318E+01 -0.19960211800E+02  0.26951787310E+02  0.00000000000E+00 0.  1.
<mgrwt>
<rscale>  0 0.83314073E+02</rscale>
<asrwt>0</asrwt>
<pdfrwt beam="1">  1        1 0.32121199E-01 0.83314073E+02</pdfrwt>
<pdfrwt beam="2">  1       -2 0.12786694E-02 0.83314073E+02</pdfrwt>
<totfact> 0.15093809E+05</totfact>
</mgrwt>
</event>
<event>
 8    1  0.1241100E-020  0.8039518E+02  0.7818608E-02  0.1327934E+00
          1   -1    0    0  501    0  0.00000000000E+00  0.00000000000E+00  0.26743855841E+03  0.26743855845E+03  0.50400000000E-02 0. -1.
         -2   -1    0    0    0  501 -0.00000000000E+00 -0.00000000000E+00 -0.60419347725E+01  0.60419353106E+01  0.25500000000E-02 0.  1.
        -24    2    1    2    0    0  0.00000000000E+00  0.00000000000E+00  0.26139662363E+03  0.27348049376E+03  0.80395184075E+02 0.  0.
         66    2    3    3    0    0 -0.39040650864E+02 -0.65591072003E+01  0.15401215898E+03  0.15903125296E+03  0.19999994774E+01 0.  0.
         13    1    3    3    0    0  0.39040650864E+02  0.65591072003E+01  0.10738446465E+03  0.11444924080E+03  0.10566000000E+00 0. -1.
         13    1    4    4    0    0 -0.14006676743E+02 -0.20458865425E+01  0.52566616487E+02  0.54439259529E+02  0.10566000000E+00 0. -1.
        -13    1    4    4    0    0 -0.67373770011E+01 -0.13259059966E+01  0.25498695730E+02  0.26407289212E+02  0.10566000000E+00 0.  1.
        -14    1    4    4    0    0 -0.18296597120E+02 -0.31873146612E+01  0.75946846761E+02  0.78184704219E+02  0.00000000000E+00 0.  1.
<mgrwt>
<rscale>  0 0.80395184E+02</rscale>
<asrwt>0</asrwt>
<pdfrwt beam="1">  1        1 0.41144387E-01 0.80395184E+02</pdfrwt>
<pdfrwt beam="2">  1       -2 0.92952862E-03 0.80395184E+02</pdfrwt>
<totfact> 0.17417758E+05</totfact>
</mgrwt>
</event>
<event>
 8    1  0.1241100E-020  0.7952869E+02  0.7818608E-02  0.1330394E+00
         -2   -1    0    0    0  501 -0.00000000000E+00  0.00000000000E+00  0.18442434033E+03  0.18442434034E+03  0.25500000000E-02 0.  1.
          1   -1    0    0  501    0  0.00000000000E+00 -0.00000000000E+00 -0.85737223383E+01  0.85737238197E+01  0.50400000000E-02 0. -1.
        -24    2    1    2    0    0  0.00000000000E+00  0.00000000000E+00  0.17585061799E+03  0.19299806416E+03  0.79528692458E+02 0.  0.
         66    2    3    3    0    0 -0.36483597435E+02  0.14891917020E+02  0.10044412372E+03  0.10791591200E+03  0.19999998728E+01 0.  0.
         13    1    3    3    0    0  0.36483597435E+02 -0.14891917020E+02  0.75406494270E+02  0.85082152161E+02  0.10566000000E+00 0. -1.
         13    1    4    4    0    0 -0.28256484012E+01  0.15774620544E+01  0.91786493070E+01  0.97330078885E+01  0.10566000000E+00 0. -1.
        -13    1    4    4    0    0 -0.23758390886E+02  0.91087775255E+01  0.64175170611E+02  0.69035459385E+02  0.10566000000E+00 0.  1.
        -14    1    4    4    0    0 -0.98995581473E+01  0.42056774399E+01  0.27090303799E+02  0.29147444728E+02  0.00000000000E+00 0.  1.
<mgrwt>
<rscale>  0 0.79528692E+02</rscale>
<asrwt>0</asrwt>
<pdfrwt beam="1">  1        1 0.13190344E-02 0.79528692E+02</pdfrwt>
<pdfrwt beam="2">  1       -2 0.28372974E-01 0.79528692E+02</pdfrwt>
<totfact> 0.89185315E+04</totfact>
</mgrwt>
</event>
<event>
 8    1  0.1241100E-020  0.7982037E+02  0.7818608E-02  0.1329562E+00
          1   -1    0    0  501    0  0.00000000000E+00  0.00000000000E+00  0.56042756022E+02  0.56042756249E+02  0.50400000000E-02 0. -1.
         -2   -1    0    0    0  501 -0.00000000000E+00 -0.00000000000E+00 -0.28421563394E+02  0.28421563509E+02  0.25500000000E-02 0.  1.
        -24    2    1    2    0    0  0.00000000000E+00  0.00000000000E+00  0.27621192628E+02  0.84464319758E+02  0.79820367262E+02 0.  0.
         66    2    3    3    0    0  0.34439262546E+02  0.10349056314E+02 -0.44371091277E+01  0.36288478853E+02  0.19999971920E+01 0.  0.
         13    1    3    3    0    0 -0.34439262546E+02 -0.10349056314E+02  0.32058301756E+02  0.48175840904E+02  0.10566000000E+00 0. -1.
         13    1    4    4    0    0  0.10565089588E+01  0.31491575891E+00 -0.13511732458E-01  0.11075783123E+01  0.10566000000E+00 0. -1.
        -13    1    4    4    0    0  0.26147966303E+02  0.71094676422E+01 -0.35241693316E+01  0.27325658371E+02  0.10566000000E+00 0.  1.
        -14    1    4    4    0    0  0.72347872846E+01  0.29246729132E+01 -0.89942806369E+00  0.78552421697E+01  0.00000000000E+00 0.  1.
<mgrwt>
<rscale>  0 0.79820367E+02</rscale>
<asrwt>0</asrwt>
<pdfrwt beam="1">  1        1 0.86219625E-02 0.79820367E+02</pdfrwt>
<pdfrwt beam="2">  1       -2 0.43725482E-02 0.79820367E+02</pdfrwt>
<totfact> 0.13478158E+05</totfact>
</mgrwt>
</event>
<event>
 8    1  0.1241100E-020  0.7959623E+02  0.7818608E-02  0.1330201E+00
         -2   -1    0    0    0  501 -0.00000000000E+00  0.00000000000E+00  0.50358366251E+02  0.50358366315E+02  0.25500000000E-02 0.  1.
          1   -1    0    0  501    0  0.00000000000E+00 -0.00000000000E+00 -0.31452369363E+02  0.31452369766E+02  0.50400000000E-02 0. -1.
        -24    2    1    2    0    0  0.17763568394E-14  0.00000000000E+00  0.18905996888E+02  0.81810736082E+02  0.79596229935E+02 0.  0.
         66    2    3    3    0    0  0.93811283694E+01  0.38415315215E+02  0.13836915595E+02  0.41942844718E+02  0.19999943222E+01 0.  0.
         13    1    3    3    0    0 -0.93811283694E+01 -0.38415315215E+02  0.50690812932E+01  0.39867891363E+02  0.10566000000E+00 0. -1.
         13    1    4    4    0    0  0.34478741370E+01  0.16322578018E+02  0.51456714606E+01  0.17458622169E+02  0.10566000000E+00 0. -1.
        -13    1    4    4    0    0  0.46914265442E+01  0.18596846693E+02  0.73023919397E+01  0.20522872168E+02  0.10566000000E+00 0.  1.
         14    1    4    4    0    0  0.12418276882E+01  0.34958905039E+01  0.13888521946E+01  0.39613503810E+01  0.00000000000E+00 0. -1.
<mgrwt>
<rscale>  0 0.79596230E+02</rscale>
<asrwt>0</asrwt>
<pdfrwt beam="1">  1        1 0.48388261E-02 0.79596230E+02</pdfrwt>
<pdfrwt beam="2">  1       -2 0.77474410E-02 0.79596230E+02</pdfrwt>
<totfact> 0.12373522E+05</totfact>
</mgrwt>
</event>
<event>
 8    1  0.1241100E-020  0.7946608E+02  0.7818608E-02  0.1330573E+00
         -2   -1    0    0    0  501 -0.00000000000E+00  0.00000000000E+00  0.40870487245E+02  0.40870487325E+02  0.25500000000E-02 0.  1.
          1   -1    0    0  501    0  0.00000000000E+00 -0.00000000000E+00 -0.38627244981E+02  0.38627245310E+02  0.50400000000E-02 0. -1.
        -24    2    1    2    0    0 -0.17763568394E-14  0.71054273576E-14  0.22432422640E+01  0.79497732634E+02  0.79466076776E+02 0.  0.
         66    2    3    3    0    0  0.13665913087E+02 -0.37163109259E+02  0.40993379696E+01  0.39857978276E+02  0.19999975346E+01 0.  0.
         13    1    3    3    0    0 -0.13665913087E+02  0.37163109259E+02 -0.18560957056E+01  0.39639754359E+02  0.10566000000E+00 0. -1.
         13    1    4    4    0    0  0.10191310964E+01 -0.35056146154E+01  0.18192125578E+00  0.36568048078E+01  0.10566000000E+00 0. -1.
        -13    1    4    4    0    0  0.90555783543E+01 -0.23953380343E+02  0.20855165115E+01  0.25692965425E+02  0.10566000000E+00 0.  1.
        -14    1    4    4    0    0  0.35912036365E+01 -0.97041143006E+01  0.18319002024E+01  0.10508208043E+02  0.00000000000E+00 0.  1.
<mgrwt>
<rscale>  0 0.79466077E+02</rscale>
<asrwt>0</asrwt>
<pdfrwt beam="1">  1        1 0.59426531E-02 0.79466077E+02</pdfrwt>
<pdfrwt beam="2">  1       -2 0.62877673E-02 0.79466077E+02</pdfrwt>
<totfact> 0.12866270E+05</totfact>
</mgrwt>
</event>
<event>
 8    1  0.1241100E-020  0.7945039E+02  0.7818608E-02  0.1330618E+00
          1   -1    0    0  501    0  0.00000000000E+00  0.00000000000E+00  0.83911360609E+02  0.83911360761E+02  0.50400000000E-02 0. -1.
         -2   -1    0    0    0  501 -0.00000000000E+00 -0.00000000000E+00 -0.18806645042E+02  0.18806645215E+02  0.25500000000E-02 0.  1.
        -24    2    1    2    0    0  0.00000000000E+00  0.00000000000E+00  0.65104715567E+02  0.10271800598E+03  0.79450391833E+02 0.  0.
         66    2    3    3    0    0  0.25595890228E+02  0.11902356176E+02 -0.35177195487E+01  0.28516486824E+02  0.19999977104E+01 0.  0.
         13    1    3    3    0    0 -0.25595890228E+02 -0.11902356176E+02  0.68622435116E+02  0.74201519152E+02  0.10566000000E+00 0. -1.
         13    1    4    4    0    0  0.18483959891E+02  0.89644144399E+01 -0.29661108829E+01  0.20756359925E+02  0.10566000000E+00 0. -1.
        -13    1    4    4    0    0  0.60050671220E+01  0.23545790147E+01 -0.74560276080E+00  0.64939942246E+01  0.10566000000E+00 0.  1.
         14    1    4    4    0    0  0.11068632146E+01  0.58336272155E+00  0.19399409501E+00  0.12661326746E+01  0.00000000000E+00 0. -1.
<mgrwt>
<rscale>  0 0.79450392E+02</rscale>
<asrwt>0</asrwt>
<pdfrwt beam="1">  1        1 0.12909440E-01 0.79450392E+02</pdfrwt>
<pdfrwt beam="2">  1       -2 0.28933301E-02 0.79450392E+02</pdfrwt>
<totfact> 0.14549261E+05</totfact>
</mgrwt>
</event>
<event>
 8    1  0.1241100E-020  0.7677529E+02  0.7818608E-02  0.1338460E+00
         -2   -1    0    0    0  501 -0.00000000000E+00  0.00000000000E+00  0.66550929096E+01  0.66550933981E+01  0.25500000000E-02 0.  1.
          1   -1    0    0  501    0  0.00000000000E+00 -0.00000000000E+00 -0.22142606764E+03  0.22142606769E+03  0.50400000000E-02 0. -1.
        -24    2    1    2    0    0  0.35527136788E-14  0.71054273576E-14 -0.21477097473E+03  0.22808116109E+03  0.76775285476E+02 0.  0.
         66    2    3    3    0    0 -0.18192613643E+02 -0.32301354515E+02 -0.13675558766E+03  0.14170546730E+03  0.20000030177E+01 0.  0.
         13    1    3    3    0    0  0.18192613643E+02  0.32301354515E+02 -0.78015387070E+02  0.86375693794E+02  0.10566000000E+00 0. -1.
         13    1    4    4    0    0 -0.69128068679E+01 -0.12662277372E+02 -0.56339457779E+02  0.58157250915E+02  0.10566000000E+00 0.  1.
        -13    1    4    4    0    0 -0.53958051658E+01 -0.10157042286E+02 -0.41101935947E+02  0.42680915220E+02  0.10566000000E+00 0. -1.
        -14    1    4    4    0    0 -0.58840016091E+01 -0.94820348574E+01 -0.39314193931E+02  0.40867301164E+02  0.00000000000E+00 0.  1.
<mgrwt>
<rscale>  0 0.76775285E+02</rscale>
<asrwt>0</asrwt>
<pdfrwt beam="1">  1        1 0.34065543E-01 0.76775285E+02</pdfrwt>
<pdfrwt beam="2">  1       -2 0.10238607E-02 0.76775285E+02</pdfrwt>
<totfact> 0.18962173E+05</totfact>
</mgrwt>
</event>
<event>
 8    1  0.1241100E-020  0.7897669E+02  0.7818608E-02  0.1331981E+00
         -2   -1    0    0    0  501 -0.00000000000E+00  0.00000000000E+00  0.78279500344E+02  0.78279500385E+02  0.25500000000E-02 0.  1.
          1   -1    0    0  501    0  0.00000000000E+00 -0.00000000000E+00 -0.19920021519E+02  0.19920022156E+02  0.50400000000E-02 0. -1.
        -24    2    1    2    0    0  0.17763568394E-14 -0.17763568394E-14  0.58359478825E+02  0.98199522541E+02  0.78976689337E+02 0.  0.
         66    2    3    3    0    0 -0.15328491770E+02 -0.51500379266E+01  0.73957975088E+02  0.75731549773E+02  0.20000003238E+01 0.  0.
         13    1    3    3    0    0  0.15328491770E+02  0.51500379266E+01 -0.15598496263E+02  0.22467972768E+02  0.10566000000E+00 0. -1.
         13    1    4    4    0    0 -0.10530274304E+01 -0.38644976360E+00  0.34152838651E+01  0.35963228587E+01  0.10566000000E+00 0. -1.
        -13    1    4    4    0    0 -0.23187627217E+01 -0.47604296826E+00  0.10655552323E+02  0.10915825064E+02  0.10566000000E+00 0.  1.
        -14    1    4    4    0    0 -0.11956701618E+02 -0.42875451947E+01  0.59887138900E+02  0.61219401851E+02  0.00000000000E+00 0.  1.
<mgrwt>
<rscale>  0 0.78976689E+02</rscale>
<asrwt>0</asrwt>
<pdfrwt beam="1">  1        1 0.30646187E-02 0.78976689E+02</pdfrwt>
<pdfrwt beam="2">  1       -2 0.12043000E-01 0.78976689E+02</pdfrwt>
<totfact> 0.11602522E+05</totfact>
</mgrwt>
</event>
<event>
 8    1  0.1241100E-020  0.8094402E+02  0.7818608E-02  0.1326394E+00
          1   -1    0    0  501    0  0.00000000000E+00  0.00000000000E+00  0.16494397281E+02  0.16494398051E+02  0.50400000000E-02 0. -1.
         -2   -1    0    0    0  501 -0.00000000000E+00 -0.00000000000E+00 -0.99305440274E+02  0.99305440307E+02  0.25500000000E-02 0.  1.
        -24    2    1    2    0    0  0.17763568394E-14 -0.35527136788E-14 -0.82811042993E+02  0.11579983836E+03  0.80944015975E+02 0.  0.
         66    2    3    3    0    0 -0.11726532998E+02  0.24721116322E+02 -0.84046131599E+02  0.88410391918E+02  0.19999985036E+01 0.  0.
         13    1    3    3    0    0  0.11726532998E+02 -0.24721116322E+02  0.12350886058E+01  0.27389446440E+02  0.10566000000E+00 0. -1.
         13    1    4    4    0    0 -0.31054669601E+00  0.13436875416E+01 -0.34658455863E+01  0.37316464360E+01  0.10566000000E+00 0. -1.
        -13    1    4    4    0    0 -0.74633763150E+01  0.14794497842E+02 -0.50511905957E+02  0.53160539499E+02  0.10566000000E+00 0.  1.
        -14    1    4    4    0    0 -0.39526099873E+01  0.85829309387E+01 -0.30068380056E+02  0.31518205983E+02  0.00000000000E+00 0.  1.
<mgrwt>
<rscale>  0 0.80944016E+02</rscale>
<asrwt>0</asrwt>
<pdfrwt beam="1">  1        1 0.25375997E-02 0.80944016E+02</pdfrwt>
<pdfrwt beam="2">  1       -2 0.15277760E-01 0.80944016E+02</pdfrwt>
<totfact> 0.10316629E+05</totfact>
</mgrwt>
</event>
<event>
 8    1  0.1241100E-020  0.8310270E+02  0.7818608E-02  0.1320470E+00
         -2   -1    0    0    0  501 -0.00000000000E+00  0.00000000000E+00  0.34495130154E+02  0.34495130249E+02  0.25500000000E-02 0.  1.
          1   -1    0    0  501    0  0.00000000000E+00 -0.00000000000E+00 -0.50050974000E+02  0.50050974254E+02  0.50400000000E-02 0. -1.
        -24    2    1    2    0    0  0.35527136788E-14  0.35527136788E-14 -0.15555843846E+02  0.84546104503E+02  0.83102704582E+02 0.  0.
         66    2    3    3    0    0 -0.28068417504E+02 -0.25199442390E+02  0.98876726460E+01  0.39046306114E+02  0.19999982147E+01 0.  0.
         13    1    3    3    0    0  0.28068417504E+02  0.25199442390E+02 -0.25443516492E+02  0.45499798389E+02  0.10566000000E+00 0. -1.
         13    1    4    4    0    0 -0.42061382838E+01 -0.30156621476E+01  0.13810453938E+01  0.53576364067E+01  0.10566000000E+00 0. -1.
        -13    1    4    4    0    0 -0.93057297520E+01 -0.91145871044E+01  0.30330615876E+01  0.13374712368E+02  0.10566000000E+00 0.  1.
         14    1    4    4    0    0 -0.14556549468E+02 -0.13069193138E+02  0.54735656647E+01  0.20313957339E+02  0.00000000000E+00 0. -1.
<mgrwt>
<rscale>  0 0.83102705E+02</rscale>
<asrwt>0</asrwt>
<pdfrwt beam="1">  1        1 0.77001499E-02 0.83102705E+02</pdfrwt>
<pdfrwt beam="2">  1       -2 0.53069431E-02 0.83102705E+02</pdfrwt>
<totfact> 0.11833531E+05</totfact>
</mgrwt>
</event>
<event>
 8    1  0.1241100E-020  0.8026892E+02  0.7818608E-02  0.1328290E+00
          1   -1    0    0  501    0  0.00000000000E+00  0.00000000000E+00  0.36268218678E+02  0.36268219028E+02  0.50400000000E-02 0. -1.
         -2   -1    0    0    0  501 -0.00000000000E+00 -0.00000000000E+00 -0.44412845098E+02  0.44412845172E+02  0.25500000000E-02 0.  1.
        -24    2    1    2    0    0 -0.17763568394E-14 -0.35527136788E-14 -0.81446264203E+01  0.80681064200E+02  0.80268917901E+02 0.  0.
         66    2    3    3    0    0  0.13814574488E+02  0.24712733570E+02 -0.32632123668E+02  0.43248319788E+02  0.20000001518E+01 0.  0.
         13    1    3    3    0    0 -0.13814574488E+02 -0.24712733570E+02  0.24487497247E+02  0.37432744413E+02  0.10566000000E+00 0. -1.
         13    1    4    4    0    0  0.78196647063E+00  0.16827341984E+01 -0.27185107306E+01  0.32931034863E+01  0.10566000000E+00 0. -1.
        -13    1    4    4    0    0  0.10158155994E+02  0.16969979389E+02 -0.22560883769E+02  0.30002882764E+02  0.10566000000E+00 0.  1.
        -14    1    4    4    0    0  0.28744520230E+01  0.60600199824E+01 -0.73527291676E+01  0.99523335370E+01  0.00000000000E+00 0.  1.
<mgrwt>
<rscale>  0 0.80268918E+02</rscale>
<asrwt>0</asrwt>
<pdfrwt beam="1">  1        1 0.55797260E-02 0.80268918E+02</pdfrwt>
<pdfrwt beam="2">  1       -2 0.68327454E-02 0.80268918E+02</pdfrwt>
<totfact> 0.12376325E+05</totfact>
</mgrwt>
</event>
<event>
 8    1  0.1241100E-020  0.7933555E+02  0.7818608E-02  0.1330948E+00
          1   -1    0    0  501    0  0.00000000000E+00  0.00000000000E+00  0.17922462389E+02  0.17922463098E+02  0.50400000000E-02 0. -1.
         -2   -1    0    0    0  501 -0.00000000000E+00 -0.00000000000E+00 -0.87796667773E+02  0.87796667810E+02  0.25500000000E-02 0.  1.
        -24    2    1    2    0    0  0.00000000000E+00  0.17763568394E-14 -0.69874205383E+02  0.10571913091E+03  0.79335553581E+02 0.  0.
         66    2    3    3    0    0  0.59006246323E+01  0.10162915289E+02 -0.85410648986E+02  0.86238513308E+02  0.19999997830E+01 0.  0.
         13    1    3    3    0    0 -0.59006246323E+01 -0.10162915289E+02  0.15536443603E+02  0.19480617600E+02  0.10566000000E+00 0. -1.
         13    1    4    4    0    0  0.13634879829E+01  0.13476308199E+01 -0.14561817986E+02  0.14687849243E+02  0.10566000000E+00 0. -1.
        -13    1    4    4    0    0  0.16523692382E+01  0.33184726870E+01 -0.31030377221E+02  0.31251208930E+02  0.10566000000E+00 0.  1.
         14    1    4    4    0    0  0.28847674112E+01  0.54968117816E+01 -0.39818453780E+02  0.40299455135E+02  0.00000000000E+00 0. -1.
<mgrwt>
<rscale>  0 0.79335554E+02</rscale>
<asrwt>0</asrwt>
<pdfrwt beam="1">  1        1 0.27573020E-02 0.79335554E+02</pdfrwt>
<pdfrwt beam="2">  1       -2 0.13507179E-01 0.79335554E+02</pdfrwt>
<totfact> 0.11182851E+05</totfact>
</mgrwt>
</event>
<event>
 8    1  0.1241100E-020  0.7391859E+02  0.7818608E-02  0.1347253E+00
         -2   -1    0    0    0  501 -0.00000000000E+00  0.00000000000E+00  0.28997355533E+02  0.28997355645E+02  0.25500000000E-02 0.  1.
          1   -1    0    0  501    0  0.00000000000E+00 -0.00000000000E+00 -0.47107382613E+02  0.47107382883E+02  0.50400000000E-02 0. -1.
        -24    2    1    2    0    0  0.71054273576E-14 -0.88817841970E-15 -0.18110027080E+02  0.76104738528E+02  0.73918591340E+02 0.  0.
         66    2    3    3    0    0  0.36268681871E+02 -0.67572379292E+01 -0.10817081864E+02  0.38497880603E+02  0.20000004415E+01 0.  0.
         13    1    3    3    0    0 -0.36268681871E+02  0.67572379292E+01 -0.72929452160E+01  0.37606857926E+02  0.10566000000E+00 0. -1.
         13    1    4    4    0    0  0.55537548872E+01 -0.14855563423E+01 -0.17968089888E+01  0.60241810706E+01  0.10566000000E+00 0.  1.
        -13    1    4    4    0    0  0.43338470911E+01 -0.11842769263E+01 -0.10784483906E+01  0.46215752091E+01  0.10566000000E+00 0.  1.
         14    1    4    4    0    0  0.26381079893E+02 -0.40874046606E+01 -0.79418244848E+01  0.27852124323E+02  0.00000000000E+00 0. -1.
<mgrwt>
<rscale>  0 0.73918591E+02</rscale>
<asrwt>0</asrwt>
<pdfrwt beam="1">  1        1 0.72472897E-02 0.73918591E+02</pdfrwt>
<pdfrwt beam="2">  1       -2 0.44611316E-02 0.73918591E+02</pdfrwt>
<totfact> 0.16225165E+05</totfact>
</mgrwt>
</event>
<event>
 8    1  0.1241100E-020  0.7936413E+02  0.7818608E-02  0.1330866E+00
         -2   -1    0    0    0  501 -0.00000000000E+00  0.00000000000E+00  0.64837473097E+01  0.64837478112E+01  0.25500000000E-02 0.  1.
          1   -1    0    0  501    0  0.00000000000E+00 -0.00000000000E+00 -0.24286357359E+03  0.24286357364E+03  0.50400000000E-02 0. -1.
        -24    2    1    2    0    0  0.00000000000E+00  0.00000000000E+00 -0.23637982628E+03  0.24934732145E+03  0.79364125672E+02 0.  0.
         66    2    3    3    0    0 -0.33775094705E+02  0.19807214122E+02 -0.13803034305E+03  0.14349027271E+03  0.20000013319E+01 0.  0.
         13    1    3    3    0    0  0.33775094705E+02 -0.19807214122E+02 -0.98349483227E+02  0.10585704874E+03  0.10566000000E+00 0. -1.
         13    1    4    4    0    0 -0.26820478831E+01  0.12521246627E+01 -0.93894977769E+01  0.98455588747E+01  0.10566000000E+00 0. -1.
        -13    1    4    4    0    0 -0.22573172203E+02  0.12860041175E+02 -0.92179687954E+02  0.95770740822E+02  0.10566000000E+00 0.  1.
        -14    1    4    4    0    0 -0.85198746193E+01  0.56950482837E+01 -0.36461157321E+02  0.37873973012E+02  0.00000000000E+00 0.  1.
<mgrwt>
<rscale>  0 0.79364126E+02</rscale>
<asrwt>0</asrwt>
<pdfrwt beam="1">  1        1 0.37363620E-01 0.79364126E+02</pdfrwt>
<pdfrwt beam="2">  1       -2 0.99749981E-03 0.79364126E+02</pdfrwt>
<totfact> 0.17686588E+05</totfact>
</mgrwt>
</event>
<event>
 8    1  0.1241100E-020  0.7641503E+02  0.7818608E-02  0.1339544E+00
         -2   -1    0    0    0  501 -0.00000000000E+00  0.00000000000E+00  0.13494142757E+02  0.13494142998E+02  0.25500000000E-02 0.  1.
          1   -1    0    0  501    0  0.00000000000E+00 -0.00000000000E+00 -0.10818132201E+03  0.10818132213E+03  0.50400000000E-02 0. -1.
        -24    2    1    2    0    0  0.00000000000E+00  0.00000000000E+00 -0.94687179252E+02  0.12167546512E+03  0.76415030580E+02 0.  0.
         66    2    3    3    0    0 -0.20425658382E+02  0.30500125814E+02 -0.30649670321E+02  0.47863007442E+02  0.19999988801E+01 0.  0.
         13    1    3    3    0    0  0.20425658382E+02 -0.30500125814E+02 -0.64037508930E+02  0.73812457682E+02  0.10566000000E+00 0. -1.
         13    1    4    4    0    0 -0.42379974493E+01  0.56735690102E+01 -0.64048131135E+01  0.95489686746E+01  0.10566000000E+00 0.  1.
        -13    1    4    4    0    0 -0.37707696797E+00  0.46008475532E+00 -0.68977020302E+00  0.91695800908E+00  0.10566000000E+00 0.  1.
        -14    1    4    4    0    0 -0.15810583965E+02  0.24366472049E+02 -0.23555087005E+02  0.37397080758E+02  0.00000000000E+00 0.  1.
<mgrwt>
<rscale>  0 0.76415031E+02</rscale>
<asrwt>0</asrwt>
<pdfrwt beam="1">  1        1 0.16643280E-01 0.76415031E+02</pdfrwt>
<pdfrwt beam="2">  1       -2 0.20760221E-02 0.76415031E+02</pdfrwt>
<totfact> 0.16850365E+05</totfact>
</mgrwt>
</event>
<event>
 8    1  0.1241100E-020  0.8378840E+02  0.7818608E-02  0.1318632E+00
         -2   -1    0    0    0  501 -0.00000000000E+00  0.00000000000E+00  0.51989867513E+03  0.51989867514E+03  0.25500000000E-02 0.  1.
          1   -1    0    0  501    0  0.00000000000E+00 -0.00000000000E+00 -0.33758946072E+01  0.33758983694E+01  0.50400000000E-02 0. -1.
        -24    2    1    2    0    0  0.00000000000E+00  0.17763568394E-14  0.51652278052E+03  0.52327457351E+03  0.83788403007E+02 0.  0.
         66    2    3    3    0    0 -0.21309790111E+02 -0.10828882000E+02  0.47309625122E+03  0.47370395266E+03  0.20000011720E+01 0.  0.
         13    1    3    3    0    0  0.21309790111E+02  0.10828882000E+02  0.43426529303E+02  0.49570620848E+02  0.10566000000E+00 0. -1.
         13    1    4    4    0    0 -0.38771312196E+01 -0.23795182834E+01  0.89530086663E+02  0.89645645939E+02  0.10566000000E+00 0. -1.
        -13    1    4    4    0    0 -0.64391701290E+01 -0.39534508828E+01  0.14611035955E+03  0.14630564247E+03  0.10566000000E+00 0.  1.
        -14    1    4    4    0    0 -0.10993488763E+02 -0.44959128343E+01  0.23745580500E+03  0.23775266425E+03  0.00000000000E+00 0.  1.
<mgrwt>
<rscale>  0 0.83788403E+02</rscale>
<asrwt>0</asrwt>
<pdfrwt beam="1">  1        1 0.51936824E-03 0.83788403E+02</pdfrwt>
<pdfrwt beam="2">  1       -2 0.79984481E-01 0.83788403E+02</pdfrwt>
<totfact> 0.43367223E+04</totfact>
</mgrwt>
</event>
<event>
 8    1  0.1241100E-020  0.8096004E+02  0.7818608E-02  0.1326349E+00
         -2   -1    0    0    0  501 -0.00000000000E+00  0.00000000000E+00  0.10295597180E+02  0.10295597496E+02  0.25500000000E-02 0.  1.
          1   -1    0    0  501    0  0.00000000000E+00 -0.00000000000E+00 -0.15915852555E+03  0.15915852563E+03  0.50400000000E-02 0. -1.
        -24    2    1    2    0    0 -0.17763568394E-14  0.71054273576E-14 -0.14886292837E+03  0.16945412313E+03  0.80960042006E+02 0.  0.
         66    2    3    3    0    0 -0.11584433588E+02  0.38217661846E+02 -0.88015201143E+02  0.96671942262E+02  0.20000025204E+01 0.  0.
         13    1    3    3    0    0  0.11584433588E+02 -0.38217661846E+02 -0.60847727226E+02  0.72782180863E+02  0.10566000000E+00 0. -1.
         13    1    4    4    0    0 -0.81809377797E+01  0.23889469130E+02 -0.56063613986E+02  0.61488002533E+02  0.10566000000E+00 0.  1.
        -13    1    4    4    0    0 -0.10455082133E+01  0.48674493690E+01 -0.11028400018E+02  0.12100492625E+02  0.10566000000E+00 0. -1.
        -14    1    4    4    0    0 -0.23579875946E+01  0.94607433471E+01 -0.20923187139E+02  0.23083447105E+02  0.00000000000E+00 0.  1.
<mgrwt>
<rscale>  0 0.80960042E+02</rscale>
<asrwt>0</asrwt>
<pdfrwt beam="1">  1        1 0.24485925E-01 0.80960042E+02</pdfrwt>
<pdfrwt beam="2">  1       -2 0.15839382E-02 0.80960042E+02</pdfrwt>
<totfact> 0.15462613E+05</totfact>
</mgrwt>
</event>
<event>
 8    1  0.1241100E-020  0.7814568E+02  0.7818608E-02  0.1334398E+00
          1   -1    0    0  501    0  0.00000000000E+00  0.00000000000E+00  0.46125208036E+02  0.46125208311E+02  0.50400000000E-02 0. -1.
         -2   -1    0    0    0  501 -0.00000000000E+00 -0.00000000000E+00 -0.33098753830E+02  0.33098753928E+02  0.25500000000E-02 0.  1.
        -24    2    1    2    0    0 -0.71054273576E-14 -0.17763568394E-14  0.13026454206E+02  0.79223962240E+02  0.78145682439E+02 0.  0.
         66    2    3    3    0    0 -0.27385570020E+02 -0.80534587270E+01 -0.20493240753E+02  0.35196598511E+02  0.19999968441E+01 0.  0.
         13    1    3    3    0    0  0.27385570020E+02  0.80534587270E+01  0.33519694959E+02  0.44027363729E+02  0.10566000000E+00 0. -1.
         13    1    4    4    0    0 -0.22829455608E+01 -0.85917378051E+00 -0.13636143349E+01  0.27965385941E+01  0.10566000000E+00 0. -1.
        -13    1    4    4    0    0 -0.20695937851E+02 -0.60592445965E+01 -0.15148212386E+02  0.26353667508E+02  0.10566000000E+00 0.  1.
         14    1    4    4    0    0 -0.44066866081E+01 -0.11350403500E+01 -0.39814140323E+01  0.60463924083E+01  0.00000000000E+00 0. -1.
<mgrwt>
<rscale>  0 0.78145682E+02</rscale>
<asrwt>0</asrwt>
<pdfrwt beam="1">  1        1 0.70961858E-02 0.78145682E+02</pdfrwt>
<pdfrwt beam="2">  1       -2 0.50921161E-02 0.78145682E+02</pdfrwt>
<totfact> 0.13868439E+05</totfact>
</mgrwt>
</event>
<event>
 8    1  0.1269235E-020  0.7943492E+02  0.7818608E-02  0.1330663E+00
         -2   -1    0    0    0  501 -0.00000000000E+00  0.00000000000E+00  0.13504768839E+03  0.13504768841E+03  0.25500000000E-02 0.  1.
          1   -1    0    0  501    0  0.00000000000E+00 -0.00000000000E+00 -0.11680885556E+02  0.11680886643E+02  0.50400000000E-02 0. -1.
        -24    2    1    2    0    0 -0.35527136788E-14  0.17763568394E-14  0.12336680283E+03  0.14672857505E+03  0.79434921140E+02 0.  0.
         66    2    3    3    0    0  0.14936361689E+02 -0.64330599704E+01  0.12860348526E+03  0.12964310848E+03  0.19999986937E+01 0.  0.
         13    1    3    3    0    0 -0.14936361689E+02  0.64330599704E+01 -0.52366824288E+01  0.17085466572E+02  0.10566000000E+00 0. -1.
         13    1    4    4    0    0  0.81693860528E+01 -0.41307752158E+01  0.67861309895E+02  0.68476059444E+02  0.10566000000E+00 0. -1.
        -13    1    4    4    0    0  0.52054539035E+01 -0.21288937800E+01  0.47082664583E+02  0.47417479976E+02  0.10566000000E+00 0.  1.
         14    1    4    4    0    0  0.15615217327E+01 -0.17339097457E+00  0.13659510782E+02  0.13749569061E+02  0.00000000000E+00 0. -1.
<mgrwt>
<rscale>  0 0.79434921E+02</rscale>
<asrwt>0</asrwt>
<pdfrwt beam="1">  1        1 0.17970594E-02 0.79434921E+02</pdfrwt>
<pdfrwt beam="2">  1       -2 0.20776568E-01 0.79434921E+02</pdfrwt>
<totfact> 0.99502564E+04</totfact>
</mgrwt>
</event>
<event>
 8    1  0.1241100E-020  0.7072408E+02  0.7818608E-02  0.1357648E+00
         -2   -1    0    0    0  501 -0.00000000000E+00  0.00000000000E+00  0.17662753420E+01  0.17662771828E+01  0.25500000000E-02 0.  1.
          1   -1    0    0  501    0  0.00000000000E+00 -0.00000000000E+00 -0.70797187410E+03  0.70797187411E+03  0.50400000000E-02 0. -1.
        -24    2    1    2    0    0  0.00000000000E+00  0.17763568394E-14 -0.70620559875E+03  0.70973815130E+03  0.70724081434E+02 0.  0.
         66    2    3    3    0    0 -0.26863878995E+02 -0.11727371664E+02 -0.55138030865E+03  0.55216251593E+03  0.19999981402E+01 0.  0.
         13    1    3    3    0    0  0.26863878995E+02  0.11727371664E+02 -0.15482529011E+03  0.15757563537E+03  0.10566000000E+00 0. -1.
         13    1    4    4    0    0 -0.51938835779E+01 -0.16537505677E+01 -0.10922123565E+03  0.10935721649E+03  0.10566000000E+00 0. -1.
        -13    1    4    4    0    0 -0.18147703974E+02 -0.85257722277E+01 -0.36484609536E+03  0.36539665080E+03  0.10566000000E+00 0.  1.
        -14    1    4    4    0    0 -0.35222914426E+01 -0.15478488686E+01 -0.77312977628E+02  0.77408648631E+02  0.00000000000E+00 0.  1.
<mgrwt>
<rscale>  0 0.70724081E+02</rscale>
<asrwt>0</asrwt>
<pdfrwt beam="1">  1        1 0.10891852E+00 0.70724081E+02</pdfrwt>
<pdfrwt beam="2">  1       -2 0.27173537E-03 0.70724081E+02</pdfrwt>
<totfact> 0.27567964E+05</totfact>
</mgrwt>
</event>
<event>
 8    1  0.1241100E-020  0.7852940E+02  0.7818608E-02  0.1333277E+00
         -2   -1    0    0    0  501 -0.00000000000E+00  0.00000000000E+00  0.55027240193E+01  0.55027246101E+01  0.25500000000E-02 0.  1.
          1   -1    0    0  501    0  0.00000000000E+00 -0.00000000000E+00 -0.28017330613E+03  0.28017330618E+03  0.50400000000E-02 0. -1.
        -24    2    1    2    0    0 -0.17763568394E-14  0.00000000000E+00 -0.27467058211E+03  0.28567603079E+03  0.78529395059E+02 0.  0.
         66    2    3    3    0    0  0.12972110743E+02  0.34370312591E+02 -0.87264692545E+02  0.94703329457E+02  0.20000001267E+01 0.  0.
         13    1    3    3    0    0 -0.12972110743E+02 -0.34370312591E+02 -0.18740588957E+03  0.19097270133E+03  0.10566000000E+00 0. -1.
         13    1    4    4    0    0  0.20469884481E+01  0.51325527932E+01 -0.14729215741E+02  0.15731949030E+02  0.10566000000E+00 0. -1.
        -13    1    4    4    0    0  0.92750176537E+01  0.25670311352E+02 -0.63192035699E+02  0.68834841303E+02  0.10566000000E+00 0.  1.
        -14    1    4    4    0    0  0.16501046414E+01  0.35674484462E+01 -0.93434411046E+01  0.10136539124E+02  0.00000000000E+00 0.  1.
<mgrwt>
<rscale>  0 0.78529395E+02</rscale>
<asrwt>0</asrwt>
<pdfrwt beam="1">  1        1 0.43103575E-01 0.78529395E+02</pdfrwt>
<pdfrwt beam="2">  1       -2 0.84657319E-03 0.78529395E+02</pdfrwt>
<totfact> 0.18698905E+05</totfact>
</mgrwt>
</event>
<event>
 8    1  0.1241100E-020  0.7532511E+02  0.7818608E-02  0.1342867E+00
          1   -1    0    0  501    0  0.00000000000E+00  0.00000000000E+00  0.86566972982E+02  0.86566973129E+02  0.50400000000E-02 0. -1.
         -2   -1    0    0    0  501 -0.00000000000E+00 -0.00000000000E+00 -0.16385787486E+02  0.16385787685E+02  0.25500000000E-02 0.  1.
        -24    2    1    2    0    0  0.00000000000E+00  0.00000000000E+00  0.70181185496E+02  0.10295276081E+03  0.75325109767E+02 0.  0.
         66    2    3    3    0    0  0.32592506069E+02 -0.18767144082E+02  0.33189124260E+02  0.50199553258E+02  0.20000073361E+01 0.  0.
         13    1    3    3    0    0 -0.32592506069E+02  0.18767144082E+02  0.36992061236E+02  0.52753207555E+02  0.10566000000E+00 0. -1.
         13    1    4    4    0    0  0.99295136829E+01 -0.55010581130E+01  0.11060555367E+02  0.15849414229E+02  0.10566000000E+00 0. -1.
        -13    1    4    4    0    0  0.16677693808E+02 -0.94351748872E+01  0.16424042440E+02  0.25237439054E+02  0.10566000000E+00 0.  1.
         14    1    4    4    0    0  0.59852985781E+01 -0.38309110819E+01  0.57045264533E+01  0.91126999754E+01  0.00000000000E+00 0. -1.
<mgrwt>
<rscale>  0 0.75325110E+02</rscale>
<asrwt>0</asrwt>
<pdfrwt beam="1">  1        1 0.13317996E-01 0.75325110E+02</pdfrwt>
<pdfrwt beam="2">  1       -2 0.25208904E-02 0.75325110E+02</pdfrwt>
<totfact> 0.16889970E+05</totfact>
</mgrwt>
</event>
<event>
 8    1  0.1241100E-020  0.7933815E+02  0.7818608E-02  0.1330940E+00
          1   -1    0    0  501    0  0.00000000000E+00  0.00000000000E+00  0.92809602304E+02  0.92809602441E+02  0.50400000000E-02 0. -1.
         -2   -1    0    0    0  501 -0.00000000000E+00 -0.00000000000E+00 -0.16955526662E+02  0.16955526854E+02  0.25500000000E-02 0.  1.
        -24    2    1    2    0    0  0.35527136788E-14  0.22204460493E-15  0.75854075642E+02  0.10976512929E+03  0.79338154866E+02 0.  0.
         66    2    3    3    0    0  0.15543483380E+02  0.15067996989E+01 -0.12461883343E+02  0.20079065180E+02  0.20000002799E+01 0.  0.
         13    1    3    3    0    0 -0.15543483380E+02 -0.15067996989E+01  0.88315958985E+02  0.89686064115E+02  0.10566000000E+00 0. -1.
         13    1    4    4    0    0  0.83120401871E+00  0.43363625866E+00 -0.46561431313E+00  0.10520937457E+01  0.10566000000E+00 0. -1.
        -13    1    4    4    0    0  0.11090037410E+02  0.54924499548E+00 -0.88142792451E+01  0.14177209967E+02  0.10566000000E+00 0.  1.
         14    1    4    4    0    0  0.36222419516E+01  0.52391844476E+00 -0.31819897848E+01  0.48497614666E+01  0.00000000000E+00 0. -1.
<mgrwt>
<rscale>  0 0.79338155E+02</rscale>
<asrwt>0</asrwt>
<pdfrwt beam="1">  1        1 0.14278401E-01 0.79338155E+02</pdfrwt>
<pdfrwt beam="2">  1       -2 0.26085425E-02 0.79338155E+02</pdfrwt>
<totfact> 0.14847466E+05</totfact>
</mgrwt>
</event>
<event>
 8    1  0.1241100E-020  0.7693456E+02  0.7818608E-02  0.1337983E+00
          1   -1    0    0  501    0  0.00000000000E+00  0.00000000000E+00  0.13574196442E+03  0.13574196452E+03  0.50400000000E-02 0. -1.
         -2   -1    0    0    0  501 -0.00000000000E+00 -0.00000000000E+00 -0.10901063106E+02  0.10901063404E+02  0.25500000000E-02 0.  1.
        -24    2    1    2    0    0  0.00000000000E+00  0.00000000000E+00  0.12484090132E+03  0.14664302792E+03  0.76934563078E+02 0.  0.
         66    2    3    3    0    0  0.23767410821E+02 -0.22909142140E+02  0.24916799734E+02  0.41407312253E+02  0.19999970783E+01 0.  0.
         13    1    3    3    0    0 -0.23767410821E+02  0.22909142140E+02  0.99924101585E+02  0.10523571567E+03  0.10566000000E+00 0. -1.
         13    1    4    4    0    0  0.87625271932E+00 -0.13656734941E+01  0.13420584083E+01  0.21083566415E+01  0.10566000000E+00 0. -1.
        -13    1    4    4    0    0  0.18221033752E+02 -0.16797747427E+02  0.18413222591E+02  0.30874395862E+02  0.10566000000E+00 0.  1.
         14    1    4    4    0    0  0.46701243500E+01 -0.47457212190E+01  0.51615187343E+01  0.84245597498E+01  0.00000000000E+00 0. -1.
<mgrwt>
<rscale>  0 0.76934563E+02</rscale>
<asrwt>0</asrwt>
<pdfrwt beam="1">  1        1 0.20883378E-01 0.76934563E+02</pdfrwt>
<pdfrwt beam="2">  1       -2 0.16770868E-02 0.76934563E+02</pdfrwt>
<totfact> 0.17209369E+05</totfact>
</mgrwt>
</event>
<event>
 8    1  0.1241100E-020  0.7914362E+02  0.7818608E-02  0.1331499E+00
          1   -1    0    0  501    0  0.00000000000E+00  0.00000000000E+00  0.51480041011E+01  0.51480065683E+01  0.50400000000E-02 0. -1.
         -2   -1    0    0    0  501 -0.00000000000E+00 -0.00000000000E+00 -0.30418156204E+03  0.30418156205E+03  0.25500000000E-02 0.  1.
        -24    2    1    2    0    0  0.35527136788E-14  0.17763568394E-14 -0.29903355793E+03  0.30932956861E+03  0.79143624180E+02 0.  0.
         66    2    3    3    0    0  0.31561196468E+02  0.87590336897E+01 -0.23622590017E+03  0.23849424669E+03  0.20000003769E+01 0.  0.
         13    1    3    3    0    0 -0.31561196468E+02 -0.87590336897E+01 -0.62807657768E+02  0.70835321924E+02  0.10566000000E+00 0. -1.
         13    1    4    4    0    0  0.77037524143E+00  0.13763481608E+00 -0.73148336258E+01  0.73573348683E+01  0.10566000000E+00 0.  1.
        -13    1    4    4    0    0  0.92598177661E+01  0.29836709755E+01 -0.66538546245E+02  0.67246084034E+02  0.10566000000E+00 0.  1.
        -14    1    4    4    0    0  0.21531003461E+02  0.56377278982E+01 -0.16237252030E+03  0.16389082779E+03  0.00000000000E+00 0.  1.
<mgrwt>
<rscale>  0 0.79143624E+02</rscale>
<asrwt>0</asrwt>
<pdfrwt beam="1">  1        1 0.79200106E-03 0.79143624E+02</pdfrwt>
<pdfrwt beam="2">  1       -2 0.46797149E-01 0.79143624E+02</pdfrwt>
<totfact> 0.71705841E+04</totfact>
</mgrwt>
</event>
<event>
 8    1  0.1241100E-020  0.8573474E+02  0.7818608E-02  0.1313522E+00
          1   -1    0    0  501    0  0.00000000000E+00  0.00000000000E+00  0.37104093889E+02  0.37104094231E+02  0.50400000000E-02 0. -1.
         -2   -1    0    0    0  501 -0.00000000000E+00 -0.00000000000E+00 -0.49525840270E+02  0.49525840336E+02  0.25500000000E-02 0.  1.
        -24    2    1    2    0    0  0.00000000000E+00  0.88817841970E-15 -0.12421746381E+02  0.86629934567E+02  0.85734740800E+02 0.  0.
         66    2    3    3    0    0  0.27705623642E+02  0.52336198216E+01 -0.38809619175E+02  0.48012278600E+02  0.19999994931E+01 0.  0.
         13    1    3    3    0    0 -0.27705623642E+02 -0.52336198216E+01  0.26387872794E+02  0.38617655968E+02  0.10566000000E+00 0. -1.
         13    1    4    4    0    0  0.11846533726E+02  0.20432957944E+01 -0.17689064395E+02  0.21387603471E+02  0.10566000000E+00 0. -1.
        -13    1    4    4    0    0  0.13855075756E+02  0.27888548804E+01 -0.18991499108E+02  0.23673382482E+02  0.10566000000E+00 0.  1.
         14    1    4    4    0    0  0.20040141600E+01  0.40146914678E+00 -0.21290556727E+01  0.29512926468E+01  0.00000000000E+00 0. -1.
<mgrwt>
<rscale>  0 0.85734741E+02</rscale>
<asrwt>0</asrwt>
<pdfrwt beam="1">  1        1 0.57083222E-02 0.85734741E+02</pdfrwt>
<pdfrwt beam="2">  1       -2 0.76193600E-02 0.85734741E+02</pdfrwt>
<totfact> 0.10295484E+05</totfact>
</mgrwt>
</event>
<event>
 8    1  0.1241100E-020  0.8250474E+02  0.7818608E-02  0.1322090E+00
         -2   -1    0    0    0  501 -0.00000000000E+00  0.00000000000E+00  0.13703871057E+02  0.13703871294E+02  0.25500000000E-02 0.  1.
          1   -1    0    0  501    0  0.00000000000E+00 -0.00000000000E+00 -0.12418082463E+03  0.12418082473E+03  0.50400000000E-02 0. -1.
        -24    2    1    2    0    0  0.35527136788E-14 -0.35527136788E-14 -0.11047695357E+03  0.13788469602E+03  0.82504740030E+02 0.  0.
         66    2    3    3    0    0  0.27119148466E+02 -0.30802241271E+02 -0.48685516539E+02  0.63706403139E+02  0.19999998699E+01 0.  0.
         13    1    3    3    0    0 -0.27119148466E+02  0.30802241271E+02 -0.61791437032E+02  0.74178292885E+02  0.10566000000E+00 0. -1.
         13    1    4    4    0    0  0.70134354305E+01 -0.86606617206E+01 -0.12223133737E+02  0.16541206134E+02  0.10566000000E+00 0. -1.
        -13    1    4    4    0    0  0.12237978498E+02 -0.13082369805E+02 -0.21449784285E+02  0.27946751642E+02  0.10566000000E+00 0.  1.
         14    1    4    4    0    0  0.78677345371E+01 -0.90592097452E+01 -0.15012598516E+02  0.19218445363E+02  0.00000000000E+00 0. -1.
<mgrwt>
<rscale>  0 0.82504740E+02</rscale>
<asrwt>0</asrwt>
<pdfrwt beam="1">  1        1 0.19104742E-01 0.82504740E+02</pdfrwt>
<pdfrwt beam="2">  1       -2 0.21082880E-02 0.82504740E+02</pdfrwt>
<totfact> 0.14043673E+05</totfact>
</mgrwt>
</event>
<event>
 8    1  0.1241100E-020  0.7687537E+02  0.7818608E-02  0.1338160E+00
         -2   -1    0    0    0  501 -0.00000000000E+00  0.00000000000E+00  0.84389656875E+01  0.84389660727E+01  0.25500000000E-02 0.  1.
          1   -1    0    0  501    0  0.00000000000E+00 -0.00000000000E+00 -0.17507541201E+03  0.17507541208E+03  0.50400000000E-02 0. -1.
        -24    2    1    2    0    0  0.00000000000E+00 -0.71054273576E-14 -0.16663644632E+03  0.18351437815E+03  0.76875365018E+02 0.  0.
         66    2    3    3    0    0  0.18799909035E+02 -0.32728918264E+02 -0.66354797912E+02  0.76364768532E+02  0.19999991408E+01 0.  0.
         13    1    3    3    0    0 -0.18799909035E+02  0.32728918264E+02 -0.10028164841E+03  0.10714960962E+03  0.10566000000E+00 0. -1.
         13    1    4    4    0    0  0.65216223376E+01 -0.99112310692E+01 -0.21039612201E+02  0.24154513136E+02  0.10566000000E+00 0. -1.
        -13    1    4    4    0    0  0.71321488875E+01 -0.14291289521E+02 -0.27863261529E+02  0.32116678082E+02  0.10566000000E+00 0.  1.
        -14    1    4    4    0    0  0.51461378094E+01 -0.85263976733E+01 -0.17451924182E+02  0.20093577314E+02  0.00000000000E+00 0.  1.
<mgrwt>
<rscale>  0 0.76875365E+02</rscale>
<asrwt>0</asrwt>
<pdfrwt beam="1">  1        1 0.26934676E-01 0.76875365E+02</pdfrwt>
<pdfrwt beam="2">  1       -2 0.12983026E-02 0.76875365E+02</pdfrwt>
<totfact> 0.18066424E+05</totfact>
</mgrwt>
</event>
<event>
 8    1  0.1241100E-020  0.7952224E+02  0.7818608E-02  0.1330413E+00
          1   -1    0    0  501    0  0.00000000000E+00  0.00000000000E+00  0.19591587625E+02  0.19591588273E+02  0.50400000000E-02 0. -1.
         -2   -1    0    0    0  501 -0.00000000000E+00 -0.00000000000E+00 -0.80695178827E+02  0.80695178867E+02  0.25500000000E-02 0.  1.
        -24    2    1    2    0    0 -0.17763568394E-14 -0.71054273576E-14 -0.61103591202E+02  0.10028676714E+03  0.79522240949E+02 0.  0.
         66    2    3    3    0    0  0.10823932248E+02  0.37726603949E+02 -0.38394825358E+02  0.54941939816E+02  0.19999954300E+01 0.  0.
         13    1    3    3    0    0 -0.10823932248E+02 -0.37726603949E+02 -0.22708765845E+02  0.45344827324E+02  0.10566000000E+00 0. -1.
         13    1    4    4    0    0  0.87051084847E+00  0.22746720028E+01 -0.22922905353E+01  0.33462937395E+01  0.10566000000E+00 0. -1.
        -13    1    4    4    0    0  0.90718439751E+01  0.31474886343E+02 -0.32748805958E+02  0.46319135129E+02  0.10566000000E+00 0.  1.
        -14    1    4    4    0    0  0.88157742404E+00  0.39770456031E+01 -0.33537288645E+01  0.52765109476E+01  0.00000000000E+00 0.  1.
<mgrwt>
<rscale>  0 0.79522241E+02</rscale>
<asrwt>0</asrwt>
<pdfrwt beam="1">  1        1 0.30140905E-02 0.79522241E+02</pdfrwt>
<pdfrwt beam="2">  1       -2 0.12414643E-01 0.79522241E+02</pdfrwt>
<totfact> 0.11326693E+05</totfact>
</mgrwt>
</event>
<event>
 8    1  0.1241100E-020  0.7588159E+02  0.7818608E-02  0.1341163E+00
         -2   -1    0    0    0  501 -0.00000000000E+00  0.00000000000E+00  0.97288612475E+01  0.97288615817E+01  0.25500000000E-02 0.  1.
          1   -1    0    0  501    0  0.00000000000E+00 -0.00000000000E+00 -0.14796223738E+03  0.14796223747E+03  0.50400000000E-02 0. -1.
        -24    2    1    2    0    0 -0.71054273576E-14  0.00000000000E+00 -0.13823337614E+03  0.15769109905E+03  0.75881594883E+02 0.  0.
         66    2    3    3    0    0 -0.37381516192E+02  0.88234197089E+00 -0.56129775743E+02  0.67473757915E+02  0.20000005061E+01 0.  0.
         13    1    3    3    0    0  0.37381516192E+02 -0.88234197089E+00 -0.82103600392E+02  0.90217341135E+02  0.10566000000E+00 0. -1.
         13    1    4    4    0    0 -0.44864864093E+01 -0.15916970334E+00 -0.59771002467E+01  0.74760140910E+01  0.10566000000E+00 0. -1.
        -13    1    4    4    0    0 -0.12788593668E+02  0.27538286549E+00 -0.18537174274E+02  0.22522476725E+02  0.10566000000E+00 0.  1.
        -14    1    4    4    0    0 -0.20106436115E+02  0.76612880874E+00 -0.31615501223E+02  0.37475267099E+02  0.00000000000E+00 0.  1.
<mgrwt>
<rscale>  0 0.75881595E+02</rscale>
<asrwt>0</asrwt>
<pdfrwt beam="1">  1        1 0.22763420E-01 0.75881595E+02</pdfrwt>
<pdfrwt beam="2">  1       -2 0.14967480E-02 0.75881595E+02</pdfrwt>
<totfact> 0.18130405E+05</totfact>
</mgrwt>
</event>
<event>
 8    1  0.1241100E-020  0.7979741E+02  0.7818608E-02  0.1329627E+00
          1   -1    0    0  501    0  0.00000000000E+00  0.00000000000E+00  0.33167303885E+01  0.33167342178E+01  0.50400000000E-02 0. -1.
         -2   -1    0    0    0  501 -0.00000000000E+00 -0.00000000000E+00 -0.47996230494E+03  0.47996230494E+03  0.25500000000E-02 0.  1.
        -24    2    1    2    0    0  0.00000000000E+00  0.00000000000E+00 -0.47664557455E+03  0.48327903916E+03  0.79797405699E+02 0.  0.
         66    2    3    3    0    0  0.32190478617E+02  0.18735263998E+02 -0.32469009476E+03  0.32682548045E+03  0.20000018982E+01 0.  0.
         13    1    3    3    0    0 -0.32190478617E+02 -0.18735263998E+02 -0.15195547979E+03  0.15645355871E+03  0.10566000000E+00 0. -1.
         13    1    4    4    0    0  0.65182071398E+01  0.43759623985E+01 -0.67970815875E+02  0.68422796245E+02  0.10566000000E+00 0. -1.
        -13    1    4    4    0    0  0.17634065525E+02  0.10146373570E+02 -0.17230805299E+03  0.17350500124E+03  0.10566000000E+00 0.  1.
         14    1    4    4    0    0  0.80382059520E+01  0.42129280298E+01 -0.84411225893E+02  0.84897682974E+02  0.00000000000E+00 0. -1.
<mgrwt>
<rscale>  0 0.79797406E+02</rscale>
<asrwt>0</asrwt>
<pdfrwt beam="1">  1        1 0.51026689E-03 0.79797406E+02</pdfrwt>
<pdfrwt beam="2">  1       -2 0.73840300E-01 0.79797406E+02</pdfrwt>
<totfact> 0.52314382E+04</totfact>
</mgrwt>
</event>
<event>
 8    1  0.1241100E-020  0.8051172E+02  0.7818608E-02  0.1327605E+00
          1   -1    0    0  501    0  0.00000000000E+00  0.00000000000E+00  0.38824829516E+02  0.38824829843E+02  0.50400000000E-02 0. -1.
         -2   -1    0    0    0  501 -0.00000000000E+00 -0.00000000000E+00 -0.41739633919E+02  0.41739633997E+02  0.25500000000E-02 0.  1.
        -24    2    1    2    0    0  0.00000000000E+00 -0.35527136788E-14 -0.29148044030E+01  0.80564463841E+02  0.80511718086E+02 0.  0.
         66    2    3    3    0    0 -0.21889857528E+02 -0.28512551913E+02 -0.19536615981E+02  0.40961089447E+02  0.20000013768E+01 0.  0.
         13    1    3    3    0    0  0.21889857528E+02  0.28512551913E+02  0.16621811578E+02  0.39603374394E+02  0.10566000000E+00 0. -1.
         13    1    4    4    0    0 -0.89760589376E+00 -0.69322088208E+00 -0.75148635000E+00  0.13646051816E+01  0.10566000000E+00 0. -1.
        -13    1    4    4    0    0 -0.92178141720E+01 -0.12673806362E+02 -0.86040602900E+01  0.17878324399E+02  0.10566000000E+00 0.  1.
         14    1    4    4    0    0 -0.11774437462E+02 -0.15145524669E+02 -0.10181069341E+02  0.21718159866E+02  0.00000000000E+00 0. -1.
<mgrwt>
<rscale>  0 0.80511718E+02</rscale>
<asrwt>0</asrwt>
<pdfrwt beam="1">  1        1 0.59730508E-02 0.80511718E+02</pdfrwt>
<pdfrwt beam="2">  1       -2 0.64214821E-02 0.80511718E+02</pdfrwt>
<totfact> 0.12410408E+05</totfact>
</mgrwt>
</event>
<event>
 8    1  0.1241100E-020  0.7929370E+02  0.7818608E-02  0.1331068E+00
          1   -1    0    0  501    0  0.00000000000E+00  0.00000000000E+00  0.19651487394E+03  0.19651487400E+03  0.50400000000E-02 0. -1.
         -2   -1    0    0    0  501 -0.00000000000E+00 -0.00000000000E+00 -0.79987474595E+01  0.79987478659E+01  0.25500000000E-02 0.  1.
        -24    2    1    2    0    0 -0.17763568394E-14 -0.35527136788E-14  0.18851612648E+03  0.20451362187E+03  0.79293704588E+02 0.  0.
         66    2    3    3    0    0  0.12381035574E+02  0.25511349119E+02  0.22946046189E+02  0.36532725256E+02  0.20000007842E+01 0.  0.
         13    1    3    3    0    0 -0.12381035574E+02 -0.25511349119E+02  0.16557008029E+03  0.16798089661E+03  0.10566000000E+00 0. -1.
         13    1    4    4    0    0  0.29721629818E+01  0.48267709977E+01  0.43689944438E+01  0.71575657552E+01  0.10566000000E+00 0.  1.
        -13    1    4    4    0    0  0.28925079311E+01  0.76854131704E+01  0.65350972568E+01  0.10495276934E+02  0.10566000000E+00 0.  1.
         14    1    4    4    0    0  0.65163646616E+01  0.12999164951E+02  0.12041954488E+02  0.18879882566E+02  0.00000000000E+00 0. -1.
<mgrwt>
<rscale>  0 0.79293705E+02</rscale>
<asrwt>0</asrwt>
<pdfrwt beam="1">  1        1 0.30233056E-01 0.79293705E+02</pdfrwt>
<pdfrwt beam="2">  1       -2 0.12305766E-02 0.79293705E+02</pdfrwt>
<totfact> 0.17013009E+05</totfact>
</mgrwt>
</event>
<event>
 8    1  0.1241100E-020  0.8007378E+02  0.7818608E-02  0.1328842E+00
         -2   -1    0    0    0  501 -0.00000000000E+00  0.00000000000E+00  0.12250039266E+02  0.12250039531E+02  0.25500000000E-02 0.  1.
          1   -1    0    0  501    0  0.00000000000E+00 -0.00000000000E+00 -0.13085285464E+03  0.13085285474E+03  0.50400000000E-02 0. -1.
        -24    2    1    2    0    0 -0.35527136788E-14  0.35527136788E-14 -0.11860281537E+03  0.14310289427E+03  0.80073781810E+02 0.  0.
         66    2    3    3    0    0  0.31520382427E+02 -0.23424043096E+02 -0.73033814861E+02  0.82946720229E+02  0.19999950394E+01 0.  0.
         13    1    3    3    0    0 -0.31520382427E+02  0.23424043096E+02 -0.45569000512E+02  0.60156174040E+02  0.10566000000E+00 0. -1.
         13    1    4    4    0    0  0.88652587178E+01 -0.60921232719E+01 -0.21556003398E+02  0.24091061093E+02  0.10566000000E+00 0. -1.
        -13    1    4    4    0    0  0.16859850755E+02 -0.13188088994E+02 -0.38375738374E+02  0.43941878870E+02  0.10566000000E+00 0.  1.
        -14    1    4    4    0    0  0.57952729542E+01 -0.41438308306E+01 -0.13102073090E+02  0.14913780266E+02  0.00000000000E+00 0.  1.
<mgrwt>
<rscale>  0 0.80073782E+02</rscale>
<asrwt>0</asrwt>
<pdfrwt beam="1">  1        1 0.20131208E-01 0.80073782E+02</pdfrwt>
<pdfrwt beam="2">  1       -2 0.18846215E-02 0.80073782E+02</pdfrwt>
<totfact> 0.15363078E+05</totfact>
</mgrwt>
</event>
<event>
 8    1  0.1241100E-020  0.8000736E+02  0.7818608E-02  0.1329031E+00
          1   -1    0    0  501    0  0.00000000000E+00  0.00000000000E+00  0.91150352554E+02  0.91150352693E+02  0.50400000000E-02 0. -1.
         -2   -1    0    0    0  501 -0.00000000000E+00 -0.00000000000E+00 -0.17556645393E+02  0.17556645579E+02  0.25500000000E-02 0.  1.
        -24    2    1    2    0    0  0.00000000000E+00  0.00000000000E+00  0.73593707161E+02  0.10870699827E+03  0.80007360534E+02 0.  0.
         66    2    3    3    0    0  0.19535141181E+01  0.25090398589E+02 -0.53866716949E+01  0.25813960404E+02  0.20000002629E+01 0.  0.
         13    1    3    3    0    0 -0.19535141181E+01 -0.25090398589E+02  0.78980378855E+02  0.82893037868E+02  0.10566000000E+00 0. -1.
         13    1    4    4    0    0 -0.35625926399E+00  0.32974143638E+01 -0.56714317501E+00  0.33664042488E+01  0.10566000000E+00 0.  1.
        -13    1    4    4    0    0  0.22141680036E+01  0.21423354059E+02 -0.47945969574E+01  0.22064948745E+02  0.10566000000E+00 0. -1.
         14    1    4    4    0    0  0.95605378496E-01  0.36963016586E+00 -0.24931562490E-01  0.38260741070E+00  0.00000000000E+00 0. -1.
<mgrwt>
<rscale>  0 0.80007361E+02</rscale>
<asrwt>0</asrwt>
<pdfrwt beam="1">  1        1 0.14023131E-01 0.80007361E+02</pdfrwt>
<pdfrwt beam="2">  1       -2 0.27010224E-02 0.80007361E+02</pdfrwt>
<totfact> 0.14470383E+05</totfact>
</mgrwt>
</event>
<event>
 8    1  0.1241100E-020  0.7899733E+02  0.7818608E-02  0.1331921E+00
          1   -1    0    0  501    0  0.00000000000E+00  0.00000000000E+00  0.25623354146E+03  0.25623354151E+03  0.50400000000E-02 0. -1.
         -2   -1    0    0    0  501 -0.00000000000E+00 -0.00000000000E+00 -0.60887602552E+01  0.60887607892E+01  0.25500000000E-02 0.  1.
        -24    2    1    2    0    0  0.00000000000E+00  0.00000000000E+00  0.25014478121E+03  0.26232230230E+03  0.78997333622E+02 0.  0.
         66    2    3    3    0    0  0.41292810699E+01 -0.38857428370E+02  0.10660746473E+03  0.11356100664E+03  0.19999977525E+01 0.  0.
         13    1    3    3    0    0 -0.41292810699E+01  0.38857428370E+02  0.14353731648E+03  0.14876129566E+03  0.10566000000E+00 0. -1.
         13    1    4    4    0    0  0.71238418466E+00 -0.63670304875E+01  0.15495265869E+02  0.16767856059E+02  0.10566000000E+00 0.  1.
        -13    1    4    4    0    0  0.24492814797E+01 -0.24434206223E+02  0.68101184328E+02  0.72393451944E+02  0.10566000000E+00 0.  1.
        -14    1    4    4    0    0  0.96761540550E+00 -0.80561916588E+01  0.23011014537E+02  0.24399698638E+02  0.00000000000E+00 0.  1.
<mgrwt>
<rscale>  0 0.78997334E+02</rscale>
<asrwt>0</asrwt>
<pdfrwt beam="1">  1        1 0.39420548E-01 0.78997334E+02</pdfrwt>
<pdfrwt beam="2">  1       -2 0.93673231E-03 0.78997334E+02</pdfrwt>
<totfact> 0.18091636E+05</totfact>
</mgrwt>
</event>
<event>
 8    1  0.1241100E-020  0.7981705E+02  0.7818608E-02  0.1329571E+00
         -2   -1    0    0    0  501 -0.00000000000E+00  0.00000000000E+00  0.42474100359E+01  0.42474108014E+01  0.25500000000E-02 0.  1.
          1   -1    0    0  501    0  0.00000000000E+00 -0.00000000000E+00 -0.37497919829E+03  0.37497919833E+03  0.50400000000E-02 0. -1.
        -24    2    1    2    0    0  0.00000000000E+00  0.00000000000E+00 -0.37073178826E+03  0.37922660913E+03  0.79817054861E+02 0.  0.
         66    2    3    3    0    0  0.30487119702E+02 -0.25676378877E+02 -0.19210761183E+03  0.19620926441E+03  0.20000041818E+01 0.  0.
         13    1    3    3    0    0 -0.30487119702E+02  0.25676378877E+02 -0.17862417643E+03  0.18301734472E+03  0.10566000000E+00 0. -1.
         13    1    4    4    0    0  0.10172738830E+02 -0.94155620286E+01 -0.66082030387E+02  0.67520243836E+02  0.10566000000E+00 0. -1.
        -13    1    4    4    0    0  0.77717408346E+01 -0.69142585881E+01 -0.51019671941E+02  0.52069424967E+02  0.10566000000E+00 0.  1.
        -14    1    4    4    0    0  0.12542640037E+02 -0.93465582604E+01 -0.75005909500E+02  0.76619595603E+02  0.00000000000E+00 0.  1.
<mgrwt>
<rscale>  0 0.79817055E+02</rscale>
<asrwt>0</asrwt>
<pdfrwt beam="1">  1        1 0.57689081E-01 0.79817055E+02</pdfrwt>
<pdfrwt beam="2">  1       -2 0.65344806E-03 0.79817055E+02</pdfrwt>
<totfact> 0.18901796E+05</totfact>
</mgrwt>
</event>
<event>
 8    1  0.1241100E-020  0.8063117E+02  0.7818608E-02  0.1327270E+00
          1   -1    0    0  501    0  0.00000000000E+00  0.00000000000E+00  0.73621075086E+01  0.73621092338E+01  0.50400000000E-02 0. -1.
         -2   -1    0    0    0  501 -0.00000000000E+00 -0.00000000000E+00 -0.22077188173E+03  0.22077188175E+03  0.25500000000E-02 0.  1.
        -24    2    1    2    0    0  0.00000000000E+00  0.00000000000E+00 -0.21340977423E+03  0.22813399098E+03  0.80631173293E+02 0.  0.
         66    2    3    3    0    0 -0.67268503298E+01  0.29053292088E+02 -0.18342425140E+03  0.18584348331E+03  0.19999971108E+01 0.  0.
         13    1    3    3    0    0  0.67268503298E+01 -0.29053292088E+02 -0.29985522824E+02  0.42290507677E+02  0.10566000000E+00 0. -1.
         13    1    4    4    0    0 -0.82731205719E+00  0.27019222082E+01 -0.18599006360E+02  0.18812735858E+02  0.10566000000E+00 0. -1.
        -13    1    4    4    0    0 -0.11391733187E+01  0.83198761736E+01 -0.52869276711E+02  0.53532136511E+02  0.10566000000E+00 0.  1.
        -14    1    4    4    0    0 -0.47603649540E+01  0.18031493706E+02 -0.11195596833E+03  0.11349861094E+03  0.00000000000E+00 0.  1.
<mgrwt>
<rscale>  0 0.80631173E+02</rscale>
<asrwt>0</asrwt>
<pdfrwt beam="1">  1        1 0.11326322E-02 0.80631173E+02</pdfrwt>
<pdfrwt beam="2">  1       -2 0.33964900E-01 0.80631173E+02</pdfrwt>
<totfact> 0.79974115E+04</totfact>
</mgrwt>
</event>
<event>
 8    1  0.1241100E-020  0.7863780E+02  0.7818608E-02  0.1332962E+00
         -2   -1    0    0    0  501 -0.00000000000E+00  0.00000000000E+00  0.30003448610E+02  0.30003448718E+02  0.25500000000E-02 0.  1.
          1   -1    0    0  501    0  0.00000000000E+00 -0.00000000000E+00 -0.51526602740E+02  0.51526602986E+02  0.50400000000E-02 0. -1.
        -24    2    1    2    0    0  0.00000000000E+00  0.00000000000E+00 -0.21523154130E+02  0.81530051705E+02  0.78637797319E+02 0.  0.
         66    2    3    3    0    0  0.12210379911E+02 -0.23745180141E+02  0.19119584908E+02  0.32901147151E+02  0.19999998225E+01 0.  0.
         13    1    3    3    0    0 -0.12210379911E+02  0.23745180141E+02 -0.40642739038E+02  0.48628904553E+02  0.10566000000E+00 0. -1.
         13    1    4    4    0    0  0.48387424673E+01 -0.84412548235E+01  0.77365401689E+01  0.12431147553E+02  0.10566000000E+00 0. -1.
        -13    1    4    4    0    0  0.30444901208E+01 -0.54368082893E+01  0.44518196545E+01  0.76588293324E+01  0.10566000000E+00 0.  1.
        -14    1    4    4    0    0  0.43271473228E+01 -0.98671170285E+01  0.69312250846E+01  0.12811170266E+02  0.00000000000E+00 0.  1.
<mgrwt>
<rscale>  0 0.78637797E+02</rscale>
<asrwt>0</asrwt>
<pdfrwt beam="1">  1        1 0.79271697E-02 0.78637797E+02</pdfrwt>
<pdfrwt beam="2">  1       -2 0.46159152E-02 0.78637797E+02</pdfrwt>
<totfact> 0.13864286E+05</totfact>
</mgrwt>
</event>
<event>
 8    1  0.1241100E-020  0.8225905E+02  0.7818608E-02  0.1322760E+00
         -2   -1    0    0    0  501 -0.00000000000E+00  0.00000000000E+00  0.31063744200E+02  0.31063744304E+02  0.25500000000E-02 0.  1.
          1   -1    0    0  501    0  0.00000000000E+00 -0.00000000000E+00 -0.54456983218E+02  0.54456983451E+02  0.50400000000E-02 0. -1.
        -24    2    1    2    0    0 -0.71054273576E-14  0.35527136788E-14 -0.23393239018E+02  0.85520727756E+02  0.82259049618E+02 0.  0.
         66    2    3    3    0    0  0.23194904372E+02 -0.23764498822E+02  0.13482621737E+02  0.35896184800E+02  0.20000002957E+01 0.  0.
         13    1    3    3    0    0 -0.23194904372E+02  0.23764498822E+02 -0.36875860755E+02  0.49624542956E+02  0.10566000000E+00 0. -1.
         13    1    4    4    0    0  0.25665903792E+01 -0.26362939103E+01  0.18122979845E+01  0.41028063293E+01  0.10566000000E+00 0. -1.
        -13    1    4    4    0    0  0.69935641847E+01 -0.79193389098E+01  0.47955859912E+01  0.11603218425E+02  0.10566000000E+00 0.  1.
        -14    1    4    4    0    0  0.13634749808E+02 -0.13208866002E+02  0.68747377612E+01  0.20190160046E+02  0.00000000000E+00 0.  1.
<mgrwt>
<rscale>  0 0.82259050E+02</rscale>
<asrwt>0</asrwt>
<pdfrwt beam="1">  1        1 0.83779975E-02 0.82259050E+02</pdfrwt>
<pdfrwt beam="2">  1       -2 0.47790376E-02 0.82259050E+02</pdfrwt>
<totfact> 0.12342591E+05</totfact>
</mgrwt>
</event>
<event>
 8    1  0.1241100E-020  0.8265988E+02  0.7818608E-02  0.1321668E+00
          1   -1    0    0  501    0  0.00000000000E+00  0.00000000000E+00  0.61594892195E+02  0.61594892401E+02  0.50400000000E-02 0. -1.
         -2   -1    0    0    0  501 -0.00000000000E+00 -0.00000000000E+00 -0.27732234099E+02  0.27732234216E+02  0.25500000000E-02 0.  1.
        -24    2    1    2    0    0  0.00000000000E+00  0.00000000000E+00  0.33862658096E+02  0.89327126617E+02  0.82659881056E+02 0.  0.
         66    2    3    3    0    0 -0.26369928308E+02 -0.30118329514E+02  0.59380004911E+01  0.40518474124E+02  0.20000009572E+01 0.  0.
         13    1    3    3    0    0  0.26369928308E+02  0.30118329514E+02  0.27924657605E+02  0.48808652492E+02  0.10566000000E+00 0. -1.
         13    1    4    4    0    0 -0.17035140292E+01 -0.24685537816E+01  0.70179472184E+00  0.30821092920E+01  0.10566000000E+00 0. -1.
        -13    1    4    4    0    0 -0.17963026090E+02 -0.20813895832E+02  0.39742647507E+01  0.27779390028E+02  0.10566000000E+00 0.  1.
        -14    1    4    4    0    0 -0.67033881892E+01 -0.68358799011E+01  0.12619410186E+01  0.96569748043E+01  0.00000000000E+00 0.  1.
<mgrwt>
<rscale>  0 0.82659881E+02</rscale>
<asrwt>0</asrwt>
<pdfrwt beam="1">  1        1 0.94761373E-02 0.82659881E+02</pdfrwt>
<pdfrwt beam="2">  1       -2 0.42664976E-02 0.82659881E+02</pdfrwt>
<totfact> 0.12420640E+05</totfact>
</mgrwt>
</event>
<event>
 8    1  0.1241100E-020  0.7911192E+02  0.7818608E-02  0.1331591E+00
         -2   -1    0    0    0  501 -0.00000000000E+00  0.00000000000E+00  0.24118414421E+02  0.24118414555E+02  0.25500000000E-02 0.  1.
          1   -1    0    0  501    0  0.00000000000E+00 -0.00000000000E+00 -0.64874653397E+02  0.64874653593E+02  0.50400000000E-02 0. -1.
        -24    2    1    2    0    0  0.17763568394E-14  0.00000000000E+00 -0.40756238976E+02  0.88993068148E+02  0.79111915430E+02 0.  0.
         66    2    3    3    0    0  0.10196374615E+02 -0.37706163829E+02 -0.13553412621E+02  0.41393427690E+02  0.20000040615E+01 0.  0.
         13    1    3    3    0    0 -0.10196374615E+02  0.37706163829E+02 -0.27202826355E+02  0.47599640458E+02  0.10566000000E+00 0. -1.
         13    1    4    4    0    0  0.11678069649E+01 -0.33100175912E+01 -0.13745244675E+01  0.37710039921E+01  0.10566000000E+00 0. -1.
        -13    1    4    4    0    0  0.40881627363E+01 -0.15684256637E+02 -0.63816697411E+01  0.17419697286E+02  0.10566000000E+00 0.  1.
         14    1    4    4    0    0  0.49404049141E+01 -0.18711889601E+02 -0.57972184121E+01  0.20202726412E+02  0.00000000000E+00 0. -1.
<mgrwt>
<rscale>  0 0.79111915E+02</rscale>
<asrwt>0</asrwt>
<pdfrwt beam="1">  1        1 0.99807159E-02 0.79111915E+02</pdfrwt>
<pdfrwt beam="2">  1       -2 0.37105253E-02 0.79111915E+02</pdfrwt>
<totfact> 0.14131706E+05</totfact>
</mgrwt>
</event>
<event>
 8    1  0.1241100E-020  0.8099452E+02  0.7818608E-02  0.1326253E+00
          1   -1    0    0  501    0  0.00000000000E+00  0.00000000000E+00  0.15659368661E+02  0.15659369472E+02  0.50400000000E-02 0. -1.
         -2   -1    0    0    0  501 -0.00000000000E+00 -0.00000000000E+00 -0.10473143874E+03  0.10473143877E+03  0.25500000000E-02 0.  1.
        -24    2    1    2    0    0  0.00000000000E+00  0.00000000000E+00 -0.89072070079E+02  0.12039080824E+03  0.80994524760E+02 0.  0.
         66    2    3    3    0    0 -0.20598687094E+02  0.34486107764E+02 -0.51909296494E+02  0.65667134724E+02  0.19999954151E+01 0.  0.
         13    1    3    3    0    0  0.20598687094E+02 -0.34486107764E+02 -0.37162773585E+02  0.54723673518E+02  0.10566000000E+00 0. -1.
         13    1    4    4    0    0 -0.83805067259E+00  0.12620901232E+01 -0.24667549259E+01  0.28967644552E+01  0.10566000000E+00 0. -1.
        -13    1    4    4    0    0 -0.16090206495E+02  0.27254939325E+02 -0.41139146695E+02  0.51905365980E+02  0.10566000000E+00 0.  1.
        -14    1    4    4    0    0 -0.36704299258E+01  0.59690783160E+01 -0.83033948736E+01  0.10865004289E+02  0.00000000000E+00 0.  1.
<mgrwt>
<rscale>  0 0.80994525E+02</rscale>
<asrwt>0</asrwt>
<pdfrwt beam="1">  1        1 0.24091338E-02 0.80994525E+02</pdfrwt>
<pdfrwt beam="2">  1       -2 0.16112529E-01 0.80994525E+02</pdfrwt>
<totfact> 0.10162981E+05</totfact>
</mgrwt>
</event>
<event>
 8    1  0.1241100E-020  0.8023322E+02  0.7818608E-02  0.1328391E+00
          1   -1    0    0  501    0  0.00000000000E+00  0.00000000000E+00  0.17608156854E+03  0.17608156861E+03  0.50400000000E-02 0. -1.
         -2   -1    0    0    0  501 -0.00000000000E+00 -0.00000000000E+00 -0.91397556069E+01  0.91397559626E+01  0.25500000000E-02 0.  1.
        -24    2    1    2    0    0  0.00000000000E+00  0.00000000000E+00  0.16694181293E+03  0.18522132457E+03  0.80233223616E+02 0.  0.
         66    2    3    3    0    0 -0.17859040944E+02  0.34581393348E+02  0.10572775770E+03  0.11268175033E+03  0.20000000302E+01 0.  0.
         13    1    3    3    0    0  0.17859040944E+02 -0.34581393348E+02  0.61214055233E+02  0.72539574244E+02  0.10566000000E+00 0. -1.
         13    1    4    4    0    0 -0.93260782889E+01  0.18857275547E+02  0.57432744376E+02  0.61164563825E+02  0.10566000000E+00 0.  1.
        -13    1    4    4    0    0 -0.62384503309E+01  0.11249951319E+02  0.33108685968E+02  0.35520077671E+02  0.10566000000E+00 0. -1.
         14    1    4    4    0    0 -0.22945123240E+01  0.44741664813E+01  0.15186327356E+02  0.15997108834E+02  0.00000000000E+00 0. -1.
<mgrwt>
<rscale>  0 0.80233224E+02</rscale>
<asrwt>0</asrwt>
<pdfrwt beam="1">  1        1 0.27089471E-01 0.80233224E+02</pdfrwt>
<pdfrwt beam="2">  1       -2 0.14061163E-02 0.80233224E+02</pdfrwt>
<totfact> 0.16144179E+05</totfact>
</mgrwt>
</event>
<event>
 8    1  0.1241100E-020  0.7981839E+02  0.7818608E-02  0.1329568E+00
         -2   -1    0    0    0  501 -0.00000000000E+00  0.00000000000E+00  0.16390007290E+02  0.16390007488E+02  0.25500000000E-02 0.  1.
          1   -1    0    0  501    0  0.00000000000E+00 -0.00000000000E+00 -0.97177732231E+02  0.97177732361E+02  0.50400000000E-02 0. -1.
        -24    2    1    2    0    0  0.00000000000E+00  0.00000000000E+00 -0.80787724941E+02  0.11356773985E+03  0.79818387816E+02 0.  0.
         66    2    3    3    0    0  0.34463704309E+01  0.38959902374E+02 -0.29307671115E+02  0.48915140767E+02  0.19999869928E+01 0.  0.
         13    1    3    3    0    0 -0.34463704309E+01 -0.38959902374E+02 -0.51480053826E+02  0.64652599082E+02  0.10566000000E+00 0. -1.
         13    1    4    4    0    0  0.50632906553E+00  0.25262179355E+01 -0.16428288360E+01  0.30574821014E+01  0.10566000000E+00 0. -1.
        -13    1    4    4    0    0  0.24126949210E+01  0.24336441069E+02 -0.18042758829E+02  0.30391376587E+02  0.10566000000E+00 0.  1.
         14    1    4    4    0    0  0.52734644433E+00  0.12097243370E+02 -0.96220834501E+01  0.15466282079E+02  0.00000000000E+00 0. -1.
<mgrwt>
<rscale>  0 0.79818388E+02</rscale>
<asrwt>0</asrwt>
<pdfrwt beam="1">  1        1 0.14950420E-01 0.79818388E+02</pdfrwt>
<pdfrwt beam="2">  1       -2 0.25215397E-02 0.79818388E+02</pdfrwt>
<totfact> 0.14718927E+05</totfact>
</mgrwt>
</event>
<event>
 8    1  0.1241100E-020  0.8062818E+02  0.7818608E-02  0.1327278E+00
         -2   -1    0    0    0  501 -0.00000000000E+00  0.00000000000E+00  0.42956499533E+03  0.42956499534E+03  0.25500000000E-02 0.  1.
          1   -1    0    0  501    0  0.00000000000E+00 -0.00000000000E+00 -0.37834211908E+01  0.37834245478E+01  0.50400000000E-02 0. -1.
        -24    2    1    2    0    0  0.00000000000E+00  0.16653345369E-15  0.42578157414E+03  0.43334841989E+03  0.80628184531E+02 0.  0.
         66    2    3    3    0    0 -0.35949568747E+02  0.26506266202E+00  0.31077202987E+03  0.31285091706E+03  0.20000003244E+01 0.  0.
         13    1    3    3    0    0  0.35949568747E+02 -0.26506266202E+00  0.11500954427E+03  0.12049750283E+03  0.10566000000E+00 0. -1.
         13    1    4    4    0    0 -0.74219204061E+01 -0.48671933446E+00  0.68259131364E+02  0.68663250555E+02  0.10566000000E+00 0. -1.
        -13    1    4    4    0    0 -0.71832559318E+01 -0.58377095264E-01  0.63256182441E+02  0.63662849094E+02  0.10566000000E+00 0.  1.
         14    1    4    4    0    0 -0.21344392409E+02  0.81015909175E+00  0.17925671607E+03  0.18052481741E+03  0.00000000000E+00 0. -1.
<mgrwt>
<rscale>  0 0.80628185E+02</rscale>
<asrwt>0</asrwt>
<pdfrwt beam="1">  1        1 0.58206509E-03 0.80628185E+02</pdfrwt>
<pdfrwt beam="2">  1       -2 0.66086919E-01 0.80628185E+02</pdfrwt>
<totfact> 0.55174187E+04</totfact>
</mgrwt>
</event>
<event>
 8    1  0.1241100E-020  0.8074303E+02  0.7818608E-02  0.1326956E+00
          1   -1    0    0  501    0  0.00000000000E+00  0.00000000000E+00  0.78125845929E+01  0.78125862186E+01  0.50400000000E-02 0. -1.
         -2   -1    0    0    0  501 -0.00000000000E+00 -0.00000000000E+00 -0.20861969938E+03  0.20861969939E+03  0.25500000000E-02 0.  1.
        -24    2    1    2    0    0  0.00000000000E+00  0.00000000000E+00 -0.20080711478E+03  0.21643228561E+03  0.80743030083E+02 0.  0.
         66    2    3    3    0    0  0.41813799063E+01 -0.33225122192E+02 -0.16078900473E+03  0.16425132185E+03  0.20000013075E+01 0.  0.
         13    1    3    3    0    0 -0.41813799063E+01  0.33225122192E+02 -0.40018110055E+02  0.52180963761E+02  0.10566000000E+00 0. -1.
         13    1    4    4    0    0  0.23690859872E+01 -0.16475525510E+02 -0.78980458426E+02  0.80715422854E+02  0.10566000000E+00 0. -1.
        -13    1    4    4    0    0  0.19755164310E+01 -0.13464971546E+02 -0.66356469475E+02  0.67737731945E+02  0.10566000000E+00 0.  1.
        -14    1    4    4    0    0 -0.16322251179E+00 -0.32846251357E+01 -0.15452076827E+02  0.15798167050E+02  0.00000000000E+00 0.  1.
<mgrwt>
<rscale>  0 0.80743030E+02</rscale>
<asrwt>0</asrwt>
<pdfrwt beam="1">  1        1 0.12019364E-02 0.80743030E+02</pdfrwt>
<pdfrwt beam="2">  1       -2 0.32095334E-01 0.80743030E+02</pdfrwt>
<totfact> 0.81638754E+04</totfact>
</mgrwt>
</event>
<event>
 8    1  0.1241100E-020  0.8062364E+02  0.7818608E-02  0.1327291E+00
          1   -1    0    0  501    0  0.00000000000E+00  0.00000000000E+00  0.33252648689E+02  0.33252649071E+02  0.50400000000E-02 0. -1.
         -2   -1    0    0    0  501 -0.00000000000E+00 -0.00000000000E+00 -0.48869572773E+02  0.48869572839E+02  0.25500000000E-02 0.  1.
        -24    2    1    2    0    0 -0.44408920985E-15  0.35527136788E-14 -0.15616924083E+02  0.82122221911E+02  0.80623638058E+02 0.  0.
         66    2    3    3    0    0  0.38042480427E+01  0.18482166542E+02 -0.44069456953E+02  0.47981036020E+02  0.19999995406E+01 0.  0.
         13    1    3    3    0    0 -0.38042480427E+01 -0.18482166542E+02  0.28452532870E+02  0.34141185890E+02  0.10566000000E+00 0. -1.
         13    1    4    4    0    0  0.11249826644E+01  0.72109627467E+01 -0.18401790185E+02  0.19796479884E+02  0.10566000000E+00 0. -1.
        -13    1    4    4    0    0  0.21534662539E+01  0.92683381855E+01 -0.19943965612E+02  0.22097792604E+02  0.10566000000E+00 0.  1.
        -14    1    4    4    0    0  0.52579912435E+00  0.20028656103E+01 -0.57237011561E+01  0.60867635322E+01  0.00000000000E+00 0.  1.
<mgrwt>
<rscale>  0 0.80623638E+02</rscale>
<asrwt>0</asrwt>
<pdfrwt beam="1">  1        1 0.51157922E-02 0.80623638E+02</pdfrwt>
<pdfrwt beam="2">  1       -2 0.75183958E-02 0.80623638E+02</pdfrwt>
<totfact> 0.12043228E+05</totfact>
</mgrwt>
</event>
<event>
 8    1  0.1241100E-020  0.8112106E+02  0.7818608E-02  0.1325900E+00
          1   -1    0    0  501    0  0.00000000000E+00  0.00000000000E+00  0.11314159567E+03  0.11314159578E+03  0.50400000000E-02 0. -1.
         -2   -1    0    0    0  501 -0.00000000000E+00 -0.00000000000E+00 -0.14540688670E+02  0.14540688894E+02  0.25500000000E-02 0.  1.
        -24    2    1    2    0    0  0.00000000000E+00  0.00000000000E+00  0.98600907002E+02  0.12768228468E+03  0.81121063597E+02 0.  0.
         66    2    3    3    0    0  0.16317324960E+02  0.36868996427E+02  0.42732081165E+02  0.58784426541E+02  0.20000129376E+01 0.  0.
         13    1    3    3    0    0 -0.16317324960E+02 -0.36868996427E+02  0.55868825837E+02  0.68897858137E+02  0.10566000000E+00 0. -1.
         13    1    4    4    0    0  0.32741932793E+01  0.75734241828E+01  0.97915041321E+01  0.12804757424E+02  0.10566000000E+00 0. -1.
        -13    1    4    4    0    0  0.47694020872E+01  0.99693655387E+01  0.11005788364E+02  0.15597242932E+02  0.10566000000E+00 0.  1.
        -14    1    4    4    0    0  0.82737295940E+01  0.19326206705E+02  0.21934788668E+02  0.30382426186E+02  0.00000000000E+00 0.  1.
<mgrwt>
<rscale>  0 0.81121064E+02</rscale>
<asrwt>0</asrwt>
<pdfrwt beam="1">  1        1 0.17406399E-01 0.81121064E+02</pdfrwt>
<pdfrwt beam="2">  1       -2 0.22370291E-02 0.81121064E+02</pdfrwt>
<totfact> 0.14459294E+05</totfact>
</mgrwt>
</event>
<event>
 8    1  0.1241100E-020  0.8104664E+02  0.7818608E-02  0.1326107E+00
         -2   -1    0    0    0  501 -0.00000000000E+00  0.00000000000E+00  0.80514284245E+02  0.80514284285E+02  0.25500000000E-02 0.  1.
          1   -1    0    0  501    0  0.00000000000E+00 -0.00000000000E+00 -0.20395628430E+02  0.20395629053E+02  0.50400000000E-02 0. -1.
        -24    2    1    2    0    0 -0.35527136788E-14 -0.88817841970E-15  0.60118655815E+02  0.10090991334E+03  0.81046639862E+02 0.  0.
         66    2    3    3    0    0  0.20898543612E+02  0.42864273101E+01  0.72938372125E+02  0.76020580793E+02  0.19999979378E+01 0.  0.
         13    1    3    3    0    0 -0.20898543612E+02 -0.42864273101E+01 -0.12819716310E+02  0.24889332544E+02  0.10566000000E+00 0. -1.
         13    1    4    4    0    0  0.51722418091E+01  0.11124109576E+01  0.16349430901E+02  0.17184428949E+02  0.10566000000E+00 0.  1.
        -13    1    4    4    0    0  0.30175028534E+01  0.11380063575E+01  0.10623120500E+02  0.11102352685E+02  0.10566000000E+00 0. -1.
         14    1    4    4    0    0  0.12708798950E+02  0.20360099949E+01  0.45965820724E+02  0.47733799160E+02  0.00000000000E+00 0. -1.
<mgrwt>
<rscale>  0 0.81046640E+02</rscale>
<asrwt>0</asrwt>
<pdfrwt beam="1">  1        1 0.31377891E-02 0.81046640E+02</pdfrwt>
<pdfrwt beam="2">  1       -2 0.12386813E-01 0.81046640E+02</pdfrwt>
<totfact> 0.10796782E+05</totfact>
</mgrwt>
</event>
<event>
 8    1  0.1241100E-020  0.7786347E+02  0.7818608E-02  0.1335226E+00
          1   -1    0    0  501    0  0.00000000000E+00  0.00000000000E+00  0.84961141975E+02  0.84961142124E+02  0.50400000000E-02 0. -1.
         -2   -1    0    0    0  501 -0.00000000000E+00 -0.00000000000E+00 -0.17839684245E+02  0.17839684427E+02  0.25500000000E-02 0.  1.
        -24    2    1    2    0    0  0.88817841970E-15 -0.35527136788E-14  0.67121457730E+02  0.10280082655E+03  0.77863469302E+02 0.  0.
         66    2    3    3    0    0  0.60426159137E+01  0.19932829773E+02 -0.98025692243E+01  0.23106736452E+02  0.19999990484E+01 0.  0.
         13    1    3    3    0    0 -0.60426159137E+01 -0.19932829773E+02  0.76924026955E+02  0.79694090099E+02  0.10566000000E+00 0. -1.
         13    1    4    4    0    0  0.15526228809E+01  0.31538322322E+01 -0.17954063653E+01  0.39486635222E+01  0.10566000000E+00 0. -1.
        -13    1    4    4    0    0  0.43723181943E+01  0.16405577941E+02 -0.79939845938E+01  0.18766329095E+02  0.10566000000E+00 0.  1.
        -14    1    4    4    0    0  0.11767483859E+00  0.37341959961E+00 -0.13178265185E-01  0.39174383426E+00  0.00000000000E+00 0.  1.
<mgrwt>
<rscale>  0 0.77863469E+02</rscale>
<asrwt>0</asrwt>
<pdfrwt beam="1">  1        1 0.13070945E-01 0.77863469E+02</pdfrwt>
<pdfrwt beam="2">  1       -2 0.27445668E-02 0.77863469E+02</pdfrwt>
<totfact> 0.15398225E+05</totfact>
</mgrwt>
</event>
<event>
 8    1  0.1241100E-020  0.7775200E+02  0.7818608E-02  0.1335555E+00
         -2   -1    0    0    0  501 -0.00000000000E+00  0.00000000000E+00  0.20477502316E+03  0.20477502318E+03  0.25500000000E-02 0.  1.
          1   -1    0    0  501    0  0.00000000000E+00 -0.00000000000E+00 -0.73805049861E+01  0.73805067070E+01  0.50400000000E-02 0. -1.
        -24    2    1    2    0    0 -0.88817841970E-15  0.00000000000E+00  0.19739451818E+03  0.21215552989E+03  0.77751997112E+02 0.  0.
         66    2    3    3    0    0  0.42041149226E+01  0.38467715585E+02  0.89350183254E+02  0.97390425444E+02  0.19999990065E+01 0.  0.
         13    1    3    3    0    0 -0.42041149226E+01 -0.38467715585E+02  0.10804433492E+03  0.11476510444E+03  0.10566000000E+00 0. -1.
         13    1    4    4    0    0  0.32750092239E+01  0.24003919919E+02  0.56771686462E+02  0.61724787603E+02  0.10566000000E+00 0. -1.
        -13    1    4    4    0    0  0.55466840286E+00  0.67041712946E+01  0.14231443821E+02  0.15741624028E+02  0.10566000000E+00 0.  1.
         14    1    4    4    0    0  0.37443729580E+00  0.77596243715E+01  0.18347052971E+02  0.19924013812E+02  0.00000000000E+00 0. -1.
<mgrwt>
<rscale>  0 0.77751997E+02</rscale>
<asrwt>0</asrwt>
<pdfrwt beam="1">  1        1 0.11354625E-02 0.77751997E+02</pdfrwt>
<pdfrwt beam="2">  1       -2 0.31503848E-01 0.77751997E+02</pdfrwt>
<totfact> 0.90682113E+04</totfact>
</mgrwt>
</event>
<event>
 8    1  0.1241100E-020  0.7401099E+02  0.7818608E-02  0.1346961E+00
          1   -1    0    0  501    0  0.00000000000E+00  0.00000000000E+00  0.47707249379E+02  0.47707249645E+02  0.50400000000E-02 0. -1.
         -2   -1    0    0    0  501 -0.00000000000E+00 -0.00000000000E+00 -0.28704373605E+02  0.28704373718E+02  0.25500000000E-02 0.  1.
        -24    2    1    2    0    0 -0.35527136788E-14  0.00000000000E+00  0.19002875774E+02  0.76411623364E+02  0.74010991734E+02 0.  0.
         66    2    3    3    0    0  0.29552415357E+02  0.20415023563E+02  0.43210821906E+00  0.35976452879E+02  0.20000009277E+01 0.  0.
         13    1    3    3    0    0 -0.29552415357E+02 -0.20415023563E+02  0.18570767555E+02  0.40435170485E+02  0.10566000000E+00 0. -1.
         13    1    4    4    0    0  0.18391392771E+02  0.12610652142E+02 -0.49263506983E+00  0.22305284774E+02  0.10566000000E+00 0. -1.
        -13    1    4    4    0    0  0.10789664978E+02  0.76151702110E+01  0.77931344685E+00  0.13229746073E+02  0.10566000000E+00 0.  1.
         14    1    4    4    0    0  0.37135760817E+00  0.18920121057E+00  0.14542984203E+00  0.44142203182E+00  0.00000000000E+00 0. -1.
<mgrwt>
<rscale>  0 0.74010992E+02</rscale>
<asrwt>0</asrwt>
<pdfrwt beam="1">  1        1 0.73395768E-02 0.74010992E+02</pdfrwt>
<pdfrwt beam="2">  1       -2 0.44160575E-02 0.74010992E+02</pdfrwt>
<totfact> 0.16199662E+05</totfact>
</mgrwt>
</event>
<event>
 8    1  0.1241100E-020  0.7877991E+02  0.7818608E-02  0.1332550E+00
          1   -1    0    0  501    0  0.00000000000E+00  0.00000000000E+00  0.20562003013E+02  0.20562003631E+02  0.50400000000E-02 0. -1.
         -2   -1    0    0    0  501 -0.00000000000E+00 -0.00000000000E+00 -0.75458037729E+02  0.75458037772E+02  0.25500000000E-02 0.  1.
        -24    2    1    2    0    0  0.00000000000E+00  0.00000000000E+00 -0.54896034716E+02  0.96020041403E+02  0.78779906852E+02 0.  0.
         66    2    3    3    0    0 -0.89853510615E+01 -0.20701172763E+02 -0.66777492350E+02  0.70516016484E+02  0.20000021876E+01 0.  0.
         13    1    3    3    0    0  0.89853510615E+01  0.20701172763E+02  0.11881457635E+02  0.25504024919E+02  0.10566000000E+00 0. -1.
         13    1    4    4    0    0 -0.51217742528E+00 -0.61856911317E+00 -0.24007842183E+01  0.25337486776E+01  0.10566000000E+00 0. -1.
        -13    1    4    4    0    0 -0.42927134964E+01 -0.11869271392E+02 -0.38079271906E+02  0.40116693601E+02  0.10566000000E+00 0.  1.
         14    1    4    4    0    0 -0.41804601398E+01 -0.82133322578E+01 -0.26297436226E+02  0.27865574206E+02  0.00000000000E+00 0. -1.
<mgrwt>
<rscale>  0 0.78779907E+02</rscale>
<asrwt>0</asrwt>
<pdfrwt beam="1">  1        1 0.31633852E-02 0.78779907E+02</pdfrwt>
<pdfrwt beam="2">  1       -2 0.11608929E-01 0.78779907E+02</pdfrwt>
<totfact> 0.11766943E+05</totfact>
</mgrwt>
</event>
<event>
 8    1  0.1241100E-020  0.7973299E+02  0.7818608E-02  0.1329811E+00
         -2   -1    0    0    0  501 -0.00000000000E+00  0.00000000000E+00  0.52477551155E+01  0.52477557351E+01  0.25500000000E-02 0.  1.
          1   -1    0    0  501    0  0.00000000000E+00 -0.00000000000E+00 -0.30286039786E+03  0.30286039790E+03  0.50400000000E-02 0. -1.
        -24    2    1    2    0    0  0.00000000000E+00  0.00000000000E+00 -0.29761264274E+03  0.30810815364E+03  0.79732987002E+02 0.  0.
         66    2    3    3    0    0  0.32323385552E+02 -0.20867773948E+02 -0.10891504647E+03  0.11552814625E+03  0.19999960740E+01 0.  0.
         13    1    3    3    0    0 -0.32323385552E+02  0.20867773948E+02 -0.18869759627E+03  0.19258000739E+03  0.10566000000E+00 0. -1.
         13    1    4    4    0    0  0.95413161463E+00 -0.47730994198E+00 -0.27195241639E+01  0.29232118692E+01  0.10566000000E+00 0.  1.
        -13    1    4    4    0    0  0.24288141255E+01 -0.16646671390E+01 -0.96868251523E+01  0.10125018534E+02  0.10566000000E+00 0.  1.
         14    1    4    4    0    0  0.28940439812E+02 -0.18725796867E+02 -0.96508697155E+02  0.10247991584E+03  0.00000000000E+00 0. -1.
<mgrwt>
<rscale>  0 0.79732987E+02</rscale>
<asrwt>0</asrwt>
<pdfrwt beam="1">  1        1 0.46593894E-01 0.79732987E+02</pdfrwt>
<pdfrwt beam="2">  1       -2 0.80734723E-03 0.79732987E+02</pdfrwt>
<totfact> 0.18234143E+05</totfact>
</mgrwt>
</event>
<event>
 8    1  0.1241100E-020  0.7888714E+02  0.7818608E-02  0.1332240E+00
         -2   -1    0    0    0  501 -0.00000000000E+00  0.00000000000E+00  0.60586409007E+02  0.60586409060E+02  0.25500000000E-02 0.  1.
          1   -1    0    0  501    0  0.00000000000E+00 -0.00000000000E+00 -0.25678945713E+02  0.25678946207E+02  0.50400000000E-02 0. -1.
        -24    2    1    2    0    0  0.00000000000E+00  0.44408920985E-15  0.34907463294E+02  0.86265355267E+02  0.78887137898E+02 0.  0.
         66    2    3    3    0    0 -0.37923567129E+02 -0.14584783346E+01  0.29113237362E+02  0.47873841608E+02  0.20000044559E+01 0.  0.
         13    1    3    3    0    0  0.37923567129E+02  0.14584783346E+01  0.57942259323E+01  0.38391513659E+02  0.10566000000E+00 0. -1.
         13    1    4    4    0    0 -0.45489264023E+01  0.19010272155E+00  0.35512536670E+01  0.57750703113E+01  0.10566000000E+00 0. -1.
        -13    1    4    4    0    0 -0.73594270465E+01  0.25292373187E+00  0.57405616717E+01  0.93375772666E+01  0.10566000000E+00 0.  1.
         14    1    4    4    0    0 -0.26015213680E+02 -0.19015047881E+01  0.19821422023E+02  0.32761194030E+02  0.00000000000E+00 0. -1.
<mgrwt>
<rscale>  0 0.78887138E+02</rscale>
<asrwt>0</asrwt>
<pdfrwt beam="1">  1        1 0.39506072E-02 0.78887138E+02</pdfrwt>
<pdfrwt beam="2">  1       -2 0.93209858E-02 0.78887138E+02</pdfrwt>
<totfact> 0.12243714E+05</totfact>
</mgrwt>
</event>
<event>
 8    1  0.1740339E-020  0.7826575E+02  0.7818608E-02  0.1334046E+00
          1   -1    0    0  501    0  0.00000000000E+00  0.00000000000E+00  0.10231766026E+02  0.10231767267E+02  0.50400000000E-02 0. -1.
         -2   -1    0    0    0  501 -0.00000000000E+00 -0.00000000000E+00 -0.14966935166E+03  0.14966935168E+03  0.25500000000E-02 0.  1.
        -24    2    1    2    0    0  0.00000000000E+00  0.17763568394E-14 -0.13943758563E+03  0.15990111895E+03  0.78265749555E+02 0.  0.
         66    2    3    3    0    0  0.10691592722E+02  0.92588183387E+01 -0.14425419130E+03  0.14495967570E+03  0.19999998150E+01 0.  0.
         13    1    3    3    0    0 -0.10691592722E+02 -0.92588183387E+01  0.48166056715E+01  0.14941443243E+02  0.10566000000E+00 0. -1.
         13    1    4    4    0    0  0.28515827729E+01  0.21850316654E+01 -0.36497224534E+02  0.36673756972E+02  0.10566000000E+00 0. -1.
        -13    1    4    4    0    0  0.78729715223E+01  0.69918214423E+01 -0.10481065293E+03  0.10533828069E+03  0.10566000000E+00 0.  1.
         14    1    4    4    0    0 -0.32961573022E-01  0.81965230946E-01 -0.29463138398E+01  0.29476380387E+01  0.00000000000E+00 0. -1.
<mgrwt>
<rscale>  0 0.78265750E+02</rscale>
<asrwt>0</asrwt>
<pdfrwt beam="1">  1        1 0.15741181E-02 0.78265750E+02</pdfrwt>
<pdfrwt beam="2">  1       -2 0.23026052E-01 0.78265750E+02</pdfrwt>
<totfact> 0.10006327E+05</totfact>
</mgrwt>
</event>
<event>
 8    1  0.1241100E-020  0.7984954E+02  0.7818608E-02  0.1329479E+00
          1   -1    0    0  501    0  0.00000000000E+00  0.00000000000E+00  0.16826537424E+03  0.16826537432E+03  0.50400000000E-02 0. -1.
         -2   -1    0    0    0  501 -0.00000000000E+00 -0.00000000000E+00 -0.94730548882E+01  0.94730552314E+01  0.25500000000E-02 0.  1.
        -24    2    1    2    0    0  0.00000000000E+00  0.00000000000E+00  0.15879231935E+03  0.17773842955E+03  0.79849537586E+02 0.  0.
         66    2    3    3    0    0 -0.34944531496E+02  0.22351359546E+01  0.36869324914E+02  0.50886768734E+02  0.19999996080E+01 0.  0.
         13    1    3    3    0    0  0.34944531496E+02 -0.22351359546E+01  0.12192299444E+03  0.12685166081E+03  0.10566000000E+00 0. -1.
         13    1    4    4    0    0 -0.74816153962E+01  0.48214954067E-01  0.87084140193E+01  0.11481486506E+02  0.10566000000E+00 0. -1.
        -13    1    4    4    0    0 -0.16173268812E+02  0.97534902233E+00  0.16155418986E+02  0.22880879713E+02  0.10566000000E+00 0. -1.
        -14    1    4    4    0    0 -0.11289647287E+02  0.12115719782E+01  0.12005491908E+02  0.16524402515E+02  0.00000000000E+00 0.  1.
<mgrwt>
<rscale>  0 0.79849538E+02</rscale>
<asrwt>0</asrwt>
<pdfrwt beam="1">  1        1 0.25886978E-01 0.79849538E+02</pdfrwt>
<pdfrwt beam="2">  1       -2 0.14573932E-02 0.79849538E+02</pdfrwt>
<totfact> 0.16211707E+05</totfact>
</mgrwt>
</event>
<event>
 8    1  0.1241100E-020  0.7931056E+02  0.7818608E-02  0.1331019E+00
         -2   -1    0    0    0  501 -0.00000000000E+00  0.00000000000E+00  0.52785302132E+02  0.52785302193E+02  0.25500000000E-02 0.  1.
          1   -1    0    0  501    0  0.00000000000E+00 -0.00000000000E+00 -0.29791268100E+02  0.29791268526E+02  0.50400000000E-02 0. -1.
        -24    2    1    2    0    0  0.44408920985E-15 -0.35527136788E-14  0.22994034032E+02  0.82576570719E+02  0.79310556868E+02 0.  0.
         66    2    3    3    0    0 -0.17860285687E+01  0.30396594644E+02  0.37914046715E+02  0.48668447703E+02  0.19999998889E+01 0.  0.
         13    1    3    3    0    0  0.17860285687E+01 -0.30396594644E+02 -0.14920012683E+02  0.33908123016E+02  0.10566000000E+00 0. -1.
         13    1    4    4    0    0  0.25540130710E+00  0.18873992410E+01  0.22425732291E+01  0.29441135247E+01  0.10566000000E+00 0. -1.
        -13    1    4    4    0    0 -0.11958901673E+01  0.20885148541E+02  0.26744860193E+02  0.33954650545E+02  0.10566000000E+00 0.  1.
         14    1    4    4    0    0 -0.84553970853E+00  0.76240468616E+01  0.89266132929E+01  0.11769683633E+02  0.00000000000E+00 0. -1.
<mgrwt>
<rscale>  0 0.79310557E+02</rscale>
<asrwt>0</asrwt>
<pdfrwt beam="1">  1        1 0.45832721E-02 0.79310557E+02</pdfrwt>
<pdfrwt beam="2">  1       -2 0.81208156E-02 0.79310557E+02</pdfrwt>
<totfact> 0.12383993E+05</totfact>
</mgrwt>
</event>
<event>
 8    1  0.1241100E-020  0.7274527E+02  0.7818608E-02  0.1350999E+00
         -2   -1    0    0    0  501 -0.00000000000E+00  0.00000000000E+00  0.11591944804E+02  0.11591945084E+02  0.25500000000E-02 0.  1.
          1   -1    0    0  501    0  0.00000000000E+00 -0.00000000000E+00 -0.11412827315E+03  0.11412827326E+03  0.50400000000E-02 0. -1.
        -24    2    1    2    0    0  0.00000000000E+00  0.00000000000E+00 -0.10253632835E+03  0.12572021835E+03  0.72745272494E+02 0.  0.
         66    2    3    3    0    0 -0.18349805723E+02 -0.31368634402E+02 -0.50430261223E+02  0.62192586646E+02  0.19999980951E+01 0.  0.
         13    1    3    3    0    0  0.18349805723E+02  0.31368634402E+02 -0.52106067125E+02  0.63527631701E+02  0.10566000000E+00 0. -1.
         13    1    4    4    0    0 -0.87218264109E+00 -0.19729061498E+01 -0.33901094062E+01  0.40195854335E+01  0.10566000000E+00 0. -1.
        -13    1    4    4    0    0 -0.38656151329E+01 -0.55760937090E+01 -0.89717506859E+01  0.11248967767E+02  0.10566000000E+00 0.  1.
        -14    1    4    4    0    0 -0.13612007949E+02 -0.23819634544E+02 -0.38068401131E+02  0.46924033446E+02  0.00000000000E+00 0.  1.
<mgrwt>
<rscale>  0 0.72745272E+02</rscale>
<asrwt>0</asrwt>
<pdfrwt beam="1">  1        1 0.17558195E-01 0.72745272E+02</pdfrwt>
<pdfrwt beam="2">  1       -2 0.17833762E-02 0.72745272E+02</pdfrwt>
<totfact> 0.19384893E+05</totfact>
</mgrwt>
</event>
<event>
 8    1  0.1241100E-020  0.8341120E+02  0.7818608E-02  0.1319640E+00
          1   -1    0    0  501    0  0.00000000000E+00  0.00000000000E+00  0.23508915459E+03  0.23508915465E+03  0.50400000000E-02 0. -1.
         -2   -1    0    0    0  501 -0.00000000000E+00 -0.00000000000E+00 -0.73987123070E+01  0.73987127464E+01  0.25500000000E-02 0.  1.
        -24    2    1    2    0    0  0.17763568394E-14  0.00000000000E+00  0.22769044229E+03  0.24248786739E+03  0.83411200235E+02 0.  0.
         66    2    3    3    0    0  0.13362162553E+02 -0.34209690608E+02  0.56609499909E+02  0.67509153465E+02  0.20000004984E+01 0.  0.
         13    1    3    3    0    0 -0.13362162553E+02  0.34209690608E+02  0.17108094238E+03  0.17497871393E+03  0.10566000000E+00 0. -1.
         13    1    4    4    0    0  0.19285913748E+01 -0.43271153540E+01  0.69000953800E+01  0.83705359605E+01  0.10566000000E+00 0. -1.
        -13    1    4    4    0    0  0.23980696731E+01 -0.75032782277E+01  0.13245300297E+02  0.15411004715E+02  0.10566000000E+00 0.  1.
        -14    1    4    4    0    0  0.90355015048E+01 -0.22379297026E+02  0.36464104232E+02  0.43727612790E+02  0.00000000000E+00 0.  1.
<mgrwt>
<rscale>  0 0.83411200E+02</rscale>
<asrwt>0</asrwt>
<pdfrwt beam="1">  1        1 0.36167566E-01 0.83411200E+02</pdfrwt>
<pdfrwt beam="2">  1       -2 0.11382633E-02 0.83411200E+02</pdfrwt>
<totfact> 0.15403231E+05</totfact>
</mgrwt>
</event>
<event>
 8    1  0.1241100E-020  0.8193045E+02  0.7818608E-02  0.1323661E+00
          1   -1    0    0  501    0  0.00000000000E+00  0.00000000000E+00  0.51355257033E+02  0.51355257280E+02  0.50400000000E-02 0. -1.
         -2   -1    0    0    0  501 -0.00000000000E+00 -0.00000000000E+00 -0.32677271886E+02  0.32677271985E+02  0.25500000000E-02 0.  1.
        -24    2    1    2    0    0  0.00000000000E+00  0.00000000000E+00  0.18677985147E+02  0.84032529265E+02  0.81930451272E+02 0.  0.
         66    2    3    3    0    0 -0.14494453392E+02  0.29545640652E+02 -0.15634164685E+02  0.36489192710E+02  0.20000046226E+01 0.  0.
         13    1    3    3    0    0  0.14494453392E+02 -0.29545640652E+02  0.34312149832E+02  0.47543336556E+02  0.10566000000E+00 0. -1.
         13    1    4    4    0    0 -0.71809167792E+01  0.14339857086E+02 -0.68811674802E+01  0.17451610154E+02  0.10566000000E+00 0. -1.
        -13    1    4    4    0    0 -0.91444880987E+00  0.18951150642E+01 -0.14815404285E+01  0.25756171706E+01  0.10566000000E+00 0.  1.
        -14    1    4    4    0    0 -0.63990878033E+01  0.13310668503E+02 -0.72714567766E+01  0.16461965386E+02  0.00000000000E+00 0.  1.
<mgrwt>
<rscale>  0 0.81930451E+02</rscale>
<asrwt>0</asrwt>
<pdfrwt beam="1">  1        1 0.79008088E-02 0.81930451E+02</pdfrwt>
<pdfrwt beam="2">  1       -2 0.50272726E-02 0.81930451E+02</pdfrwt>
<totfact> 0.12364090E+05</totfact>
</mgrwt>
</event>
<event>
 8    1  0.1241100E-020  0.8377949E+02  0.7818608E-02  0.1318655E+00
         -2   -1    0    0    0  501 -0.00000000000E+00  0.00000000000E+00  0.14300222881E+03  0.14300222884E+03  0.25500000000E-02 0.  1.
          1   -1    0    0  501    0  0.00000000000E+00 -0.00000000000E+00 -0.12270793274E+02  0.12270794309E+02  0.50400000000E-02 0. -1.
        -24    2    1    2    0    0  0.00000000000E+00  0.00000000000E+00  0.13073143554E+03  0.15527302314E+03  0.83779493184E+02 0.  0.
         66    2    3    3    0    0 -0.38587762183E+02  0.15748184492E+02  0.58053400431E+02  0.71492782895E+02  0.19999998162E+01 0.  0.
         13    1    3    3    0    0  0.38587762183E+02 -0.15748184492E+02  0.72678035108E+02  0.83780240250E+02  0.10566000000E+00 0. -1.
         13    1    4    4    0    0 -0.18017668521E+02  0.77397530937E+01  0.26927786372E+02  0.33311514523E+02  0.10566000000E+00 0. -1.
        -13    1    4    4    0    0 -0.52029010430E+01  0.25057078244E+01  0.87623545883E+01  0.10494702136E+02  0.10566000000E+00 0.  1.
         14    1    4    4    0    0 -0.15367192619E+02  0.55027235742E+01  0.22363259471E+02  0.27686566235E+02  0.00000000000E+00 0. -1.
<mgrwt>
<rscale>  0 0.83779493E+02</rscale>
<asrwt>0</asrwt>
<pdfrwt beam="1">  1        1 0.18878144E-02 0.83779493E+02</pdfrwt>
<pdfrwt beam="2">  1       -2 0.22000343E-01 0.83779493E+02</pdfrwt>
<totfact> 0.85222513E+04</totfact>
</mgrwt>
</event>
<event>
 8    1  0.1241100E-020  0.7987708E+02  0.7818608E-02  0.1329401E+00
          1   -1    0    0  501    0  0.00000000000E+00  0.00000000000E+00  0.65284875443E+02  0.65284875638E+02  0.50400000000E-02 0. -1.
         -2   -1    0    0    0  501 -0.00000000000E+00 -0.00000000000E+00 -0.24432718416E+02  0.24432718549E+02  0.25500000000E-02 0.  1.
        -24    2    1    2    0    0  0.00000000000E+00 -0.71054273576E-14  0.40852157027E+02  0.89717594187E+02  0.79877080398E+02 0.  0.
         66    2    3    3    0    0 -0.88805676195E+01 -0.33647155453E+02 -0.15162948765E+01  0.34889750603E+02  0.19999989198E+01 0.  0.
         13    1    3    3    0    0  0.88805676195E+01  0.33647155453E+02  0.42368451904E+02  0.54827843584E+02  0.10566000000E+00 0. -1.
         13    1    4    4    0    0 -0.31328956873E+01 -0.14307940579E+02 -0.40635465443E+00  0.14652934421E+02  0.10566000000E+00 0. -1.
        -13    1    4    4    0    0 -0.47080080168E+01 -0.17108110995E+02 -0.10212748355E+01  0.17773771902E+02  0.10566000000E+00 0.  1.
        -14    1    4    4    0    0 -0.10396639154E+01 -0.22311038788E+01 -0.88665386541E-01  0.24630442801E+01  0.00000000000E+00 0.  1.
<mgrwt>
<rscale>  0 0.79877080E+02</rscale>
<asrwt>0</asrwt>
<pdfrwt beam="1">  1        1 0.10043827E-01 0.79877080E+02</pdfrwt>
<pdfrwt beam="2">  1       -2 0.37588798E-02 0.79877080E+02</pdfrwt>
<totfact> 0.13776951E+05</totfact>
</mgrwt>
</event>
<event>
 8    1  0.1241100E-020  0.8111158E+02  0.7818608E-02  0.1325926E+00
          1   -1    0    0  501    0  0.00000000000E+00  0.00000000000E+00  0.69544646482E+01  0.69544664745E+01  0.50400000000E-02 0. -1.
         -2   -1    0    0    0  501 -0.00000000000E+00 -0.00000000000E+00 -0.23650586759E+03  0.23650586761E+03  0.25500000000E-02 0.  1.
        -24    2    1    2    0    0  0.00000000000E+00  0.00000000000E+00 -0.22955140295E+03  0.24346033408E+03  0.81111575482E+02 0.  0.
         66    2    3    3    0    0 -0.32703129485E+02  0.20592211820E+02 -0.15151250360E+03  0.15637638125E+03  0.19999999932E+01 0.  0.
         13    1    3    3    0    0  0.32703129485E+02 -0.20592211820E+02 -0.78038899347E+02  0.87083952833E+02  0.10566000000E+00 0. -1.
         13    1    4    4    0    0 -0.73038268129E+01  0.41749667635E+01 -0.35761201100E+02  0.36737595209E+02  0.10566000000E+00 0. -1.
        -13    1    4    4    0    0 -0.23195138917E+02  0.14897127181E+02 -0.10483841204E+03  0.10840222632E+03  0.10566000000E+00 0.  1.
        -14    1    4    4    0    0 -0.22041637549E+01  0.15201178760E+01 -0.10912890461E+02  0.11236559724E+02  0.00000000000E+00 0.  1.
<mgrwt>
<rscale>  0 0.81111575E+02</rscale>
<asrwt>0</asrwt>
<pdfrwt beam="1">  1        1 0.10699180E-02 0.81111575E+02</pdfrwt>
<pdfrwt beam="2">  1       -2 0.36385512E-01 0.81111575E+02</pdfrwt>
<totfact> 0.76369814E+04</totfact>
</mgrwt>
</event>
<event>
 8    1  0.1241100E-020  0.7961682E+02  0.7818608E-02  0.1330142E+00
         -2   -1    0    0    0  501 -0.00000000000E+00  0.00000000000E+00  0.68445508892E+03  0.68445508892E+03  0.25500000000E-02 0.  1.
          1   -1    0    0  501    0  0.00000000000E+00 -0.00000000000E+00 -0.23152837593E+01  0.23152892449E+01  0.50400000000E-02 0. -1.
        -24    2    1    2    0    0  0.00000000000E+00  0.00000000000E+00  0.68213980516E+03  0.68677037817E+03  0.79616823263E+02 0.  0.
         66    2    3    3    0    0 -0.30338296697E+02 -0.40008980644E+01  0.56057452960E+03  0.56141270262E+03  0.20000001627E+01 0.  0.
         13    1    3    3    0    0  0.30338296697E+02  0.40008980644E+01  0.12156527556E+03  0.12535767555E+03  0.10566000000E+00 0. -1.
         13    1    4    4    0    0 -0.11658298715E+02 -0.18484274457E+01  0.23059108041E+03  0.23089302749E+03  0.10566000000E+00 0. -1.
        -13    1    4    4    0    0 -0.47245818810E+01 -0.86394845532E+00  0.85557168965E+02  0.85691938981E+02  0.10566000000E+00 0.  1.
         14    1    4    4    0    0 -0.13955416101E+02 -0.12885221634E+01  0.24442628022E+03  0.24482773615E+03  0.00000000000E+00 0. -1.
<mgrwt>
<rscale>  0 0.79616823E+02</rscale>
<asrwt>0</asrwt>
<pdfrwt beam="1">  1        1 0.35619792E-03 0.79616823E+02</pdfrwt>
<pdfrwt beam="2">  1       -2 0.10530078E+00 0.79616823E+02</pdfrwt>
<totfact> 0.39127637E+04</totfact>
</mgrwt>
</event>
<event>
 8    1  0.1241100E-020  0.8045732E+02  0.7818608E-02  0.1327759E+00
          1   -1    0    0  501    0  0.00000000000E+00  0.00000000000E+00  0.47974528484E+01  0.47974554958E+01  0.50400000000E-02 0. -1.
         -2   -1    0    0    0  501 -0.00000000000E+00 -0.00000000000E+00 -0.33733417907E+03  0.33733417908E+03  0.25500000000E-02 0.  1.
        -24    2    1    2    0    0  0.00000000000E+00  0.00000000000E+00 -0.33253672622E+03  0.34213163457E+03  0.80457324657E+02 0.  0.
         66    2    3    3    0    0 -0.23447612306E+02 -0.11676085872E+02 -0.29606491059E+03  0.29722811574E+03  0.20000000612E+01 0.  0.
         13    1    3    3    0    0  0.23447612306E+02  0.11676085872E+02 -0.36471815630E+02  0.44903518832E+02  0.10566000000E+00 0. -1.
         13    1    4    4    0    0 -0.91738313444E+01 -0.45789691862E+01 -0.11115517268E+03  0.11162710118E+03  0.10566000000E+00 0. -1.
        -13    1    4    4    0    0 -0.79312918127E+01 -0.39752186458E+01 -0.94698871138E+02  0.95113590574E+02  0.10566000000E+00 0.  1.
         14    1    4    4    0    0 -0.63424891493E+01 -0.31218980401E+01 -0.90210866766E+02  0.90487423981E+02  0.00000000000E+00 0. -1.
<mgrwt>
<rscale>  0 0.80457325E+02</rscale>
<asrwt>0</asrwt>
<pdfrwt beam="1">  1        1 0.73807014E-03 0.80457325E+02</pdfrwt>
<pdfrwt beam="2">  1       -2 0.51897547E-01 0.80457325E+02</pdfrwt>
<totfact> 0.64786935E+04</totfact>
</mgrwt>
</event>
<event>
 8    1  0.1241100E-020  0.7945349E+02  0.7818608E-02  0.1330610E+00
          1   -1    0    0  501    0  0.00000000000E+00  0.00000000000E+00  0.15793652853E+03  0.15793652861E+03  0.50400000000E-02 0. -1.
         -2   -1    0    0    0  501 -0.00000000000E+00 -0.00000000000E+00 -0.99927125981E+01  0.99927129235E+01  0.25500000000E-02 0.  1.
        -24    2    1    2    0    0  0.00000000000E+00  0.00000000000E+00  0.14794381593E+03  0.16792924154E+03  0.79453492622E+02 0.  0.
         66    2    3    3    0    0  0.16164192500E+02  0.25750137935E+02  0.20056395954E+02  0.36477523875E+02  0.20000016413E+01 0.  0.
         13    1    3    3    0    0 -0.16164192500E+02 -0.25750137935E+02  0.12788741998E+03  0.13145171766E+03  0.10566000000E+00 0. -1.
         13    1    4    4    0    0  0.93297571599E+01  0.14354456457E+02  0.12052127363E+02  0.20937041979E+02  0.10566000000E+00 0. -1.
        -13    1    4    4    0    0  0.39450182322E+01  0.63998522541E+01  0.50475104730E+01  0.90559264428E+01  0.10566000000E+00 0.  1.
         14    1    4    4    0    0  0.28894171076E+01  0.49958292235E+01  0.29567581186E+01  0.64845554531E+01  0.00000000000E+00 0. -1.
<mgrwt>
<rscale>  0 0.79453493E+02</rscale>
<asrwt>0</asrwt>
<pdfrwt beam="1">  1        1 0.24297929E-01 0.79453493E+02</pdfrwt>
<pdfrwt beam="2">  1       -2 0.15373404E-02 0.79453493E+02</pdfrwt>
<totfact> 0.16234316E+05</totfact>
</mgrwt>
</event>
<event>
 8    1  0.1241100E-020  0.7997428E+02  0.7818608E-02  0.1329124E+00
          1   -1    0    0  501    0  0.00000000000E+00  0.00000000000E+00  0.41088057044E+01  0.41088087955E+01  0.50400000000E-02 0. -1.
         -2   -1    0    0    0  501 -0.00000000000E+00 -0.00000000000E+00 -0.38915702267E+03  0.38915702268E+03  0.25500000000E-02 0.  1.
        -24    2    1    2    0    0  0.00000000000E+00  0.88817841970E-15 -0.38504821697E+03  0.39326583148E+03  0.79974275967E+02 0.  0.
         66    2    3    3    0    0 -0.27050856692E+02 -0.56922697874E+01 -0.33455329100E+03  0.33569935255E+03  0.20000006387E+01 0.  0.
         13    1    3    3    0    0  0.27050856692E+02  0.56922697874E+01 -0.50494925970E+02  0.57566478925E+02  0.10566000000E+00 0. -1.
         13    1    4    4    0    0 -0.10567281743E+02 -0.18006895197E+01 -0.11933384146E+03  0.11981438481E+03  0.10566000000E+00 0. -1.
        -13    1    4    4    0    0 -0.10862193226E+02 -0.26203464394E+01 -0.14294056432E+03  0.14337667017E+03  0.10566000000E+00 0.  1.
         14    1    4    4    0    0 -0.56213817223E+01 -0.12712338284E+01 -0.72278885219E+02  0.72508297569E+02  0.00000000000E+00 0. -1.
<mgrwt>
<rscale>  0 0.79974276E+02</rscale>
<asrwt>0</asrwt>
<pdfrwt beam="1">  1        1 0.63212451E-03 0.79974276E+02</pdfrwt>
<pdfrwt beam="2">  1       -2 0.59870282E-01 0.79974276E+02</pdfrwt>
<totfact> 0.60219632E+04</totfact>
</mgrwt>
</event>
<event>
 8    1  0.1241100E-020  0.7968539E+02  0.7818608E-02  0.1329947E+00
         -2   -1    0    0    0  501 -0.00000000000E+00  0.00000000000E+00  0.16541130697E+02  0.16541130893E+02  0.25500000000E-02 0.  1.
          1   -1    0    0  501    0  0.00000000000E+00 -0.00000000000E+00 -0.95969281090E+02  0.95969281223E+02  0.50400000000E-02 0. -1.
        -24    2    1    2    0    0  0.00000000000E+00  0.00000000000E+00 -0.79428150394E+02  0.11251041212E+03  0.79685392385E+02 0.  0.
         66    2    3    3    0    0  0.24029858510E+02 -0.28477910073E+01  0.49077867722E+01  0.24771563962E+02  0.19999991186E+01 0.  0.
         13    1    3    3    0    0 -0.24029858510E+02  0.28477910073E+01 -0.84335937166E+02  0.87738848154E+02  0.10566000000E+00 0. -1.
         13    1    4    4    0    0  0.13372340125E+02 -0.11788448475E+01  0.23667265586E+01  0.13631643857E+02  0.10566000000E+00 0. -1.
        -13    1    4    4    0    0  0.86618098083E+01 -0.12053391074E+01  0.16249484584E+01  0.88955839070E+01  0.10566000000E+00 0.  1.
         14    1    4    4    0    0  0.19957085768E+01 -0.46360705238E+00  0.91611175514E+00  0.22443361982E+01  0.00000000000E+00 0. -1.
<mgrwt>
<rscale>  0 0.79685392E+02</rscale>
<asrwt>0</asrwt>
<pdfrwt beam="1">  1        1 0.14764505E-01 0.79685392E+02</pdfrwt>
<pdfrwt beam="2">  1       -2 0.25447894E-02 0.79685392E+02</pdfrwt>
<totfact> 0.14754655E+05</totfact>
</mgrwt>
</event>
<event>
 8    1  0.1241100E-020  0.8016818E+02  0.7818608E-02  0.1328575E+00
          1   -1    0    0  501    0  0.00000000000E+00  0.00000000000E+00  0.13510204941E+03  0.13510204951E+03  0.50400000000E-02 0. -1.
         -2   -1    0    0    0  501 -0.00000000000E+00 -0.00000000000E+00 -0.11892743878E+02  0.11892744151E+02  0.25500000000E-02 0.  1.
        -24    2    1    2    0    0  0.35527136788E-14  0.35527136788E-14  0.12320930553E+03  0.14699479366E+03  0.80168175682E+02 0.  0.
         66    2    3    3    0    0 -0.24570863788E+02 -0.15924036635E+02  0.11514434986E+02  0.31525933956E+02  0.20000021739E+01 0.  0.
         13    1    3    3    0    0  0.24570863788E+02  0.15924036635E+02  0.11169487055E+03  0.11546885970E+03  0.10566000000E+00 0. -1.
         13    1    4    4    0    0 -0.56275153510E+01 -0.43137562914E+01  0.21362854238E+01  0.74062339833E+01  0.10566000000E+00 0. -1.
        -13    1    4    4    0    0 -0.14536645552E+02 -0.90673973693E+01  0.73262761773E+01  0.18633766276E+02  0.10566000000E+00 0.  1.
         14    1    4    4    0    0 -0.44067028853E+01 -0.25428829746E+01  0.20518733853E+01  0.54859336973E+01  0.00000000000E+00 0. -1.
<mgrwt>
<rscale>  0 0.80168176E+02</rscale>
<asrwt>0</asrwt>
<pdfrwt beam="1">  1        1 0.20784931E-01 0.80168176E+02</pdfrwt>
<pdfrwt beam="2">  1       -2 0.18296529E-02 0.80168176E+02</pdfrwt>
<totfact> 0.15402953E+05</totfact>
</mgrwt>
</event>
<event>
 8    1  0.1241100E-020  0.8230475E+02  0.7818608E-02  0.1322635E+00
          1   -1    0    0  501    0  0.00000000000E+00  0.00000000000E+00  0.64936489277E+01  0.64936508836E+01  0.50400000000E-02 0. -1.
         -2   -1    0    0    0  501 -0.00000000000E+00 -0.00000000000E+00 -0.26079602656E+03  0.26079602658E+03  0.25500000000E-02 0.  1.
        -24    2    1    2    0    0  0.00000000000E+00  0.83266726847E-16 -0.25430237764E+03  0.26728967746E+03  0.82304753236E+02 0.  0.
         66    2    3    3    0    0  0.40580210417E+02  0.17875958207E+00 -0.10550677756E+03  0.11305956627E+03  0.19999952289E+01 0.  0.
         13    1    3    3    0    0 -0.40580210417E+02 -0.17875958207E+00 -0.14879560007E+03  0.15423011119E+03  0.10566000000E+00 0. -1.
         13    1    4    4    0    0  0.27438597860E+01 -0.19664343491E+00 -0.74142777863E+01  0.79088630216E+01  0.10566000000E+00 0. -1.
        -13    1    4    4    0    0  0.19702019461E+02 -0.40718112557E+00 -0.52655824546E+02  0.56222614578E+02  0.10566000000E+00 0.  1.
         14    1    4    4    0    0  0.18134331170E+02  0.78258414256E+00 -0.45436675232E+02  0.48928088672E+02  0.00000000000E+00 0. -1.
<mgrwt>
<rscale>  0 0.82304753E+02</rscale>
<asrwt>0</asrwt>
<pdfrwt beam="1">  1        1 0.99902327E-03 0.82304753E+02</pdfrwt>
<pdfrwt beam="2">  1       -2 0.40122457E-01 0.82304753E+02</pdfrwt>
<totfact> 0.70203337E+04</totfact>
</mgrwt>
</event>
<event>
 8    1  0.1241100E-020  0.8333739E+02  0.7818608E-02  0.1319839E+00
         -2   -1    0    0    0  501 -0.00000000000E+00  0.00000000000E+00  0.19135672127E+03  0.19135672128E+03  0.25500000000E-02 0.  1.
          1   -1    0    0  501    0  0.00000000000E+00 -0.00000000000E+00 -0.90735250651E+01  0.90735264648E+01  0.50400000000E-02 0. -1.
        -24    2    1    2    0    0  0.00000000000E+00  0.88817841970E-15  0.18228319620E+03  0.20043024775E+03  0.83337390138E+02 0.  0.
         66    2    3    3    0    0  0.23972265894E+02  0.51931860248E+01  0.17213495602E+03  0.17388525470E+03  0.20000009145E+01 0.  0.
         13    1    3    3    0    0 -0.23972265894E+02 -0.51931860248E+01  0.10148240178E+02  0.26544993048E+02  0.10566000000E+00 0. -1.
         13    1    4    4    0    0  0.56421792897E+01  0.84009324060E+00  0.39721423156E+02  0.40129073816E+02  0.10566000000E+00 0. -1.
        -13    1    4    4    0    0  0.13138677582E+02  0.24551150404E+01  0.95654376749E+02  0.96583763613E+02  0.10566000000E+00 0.  1.
         14    1    4    4    0    0  0.51914090225E+01  0.18979777438E+01  0.36759156118E+02  0.37172417270E+02  0.00000000000E+00 0. -1.
<mgrwt>
<rscale>  0 0.83337390E+02</rscale>
<asrwt>0</asrwt>
<pdfrwt beam="1">  1        1 0.13959271E-02 0.83337390E+02</pdfrwt>
<pdfrwt beam="2">  1       -2 0.29439495E-01 0.83337390E+02</pdfrwt>
<totfact> 0.77918072E+04</totfact>
</mgrwt>
</event>
<event>
 8    1  0.1241100E-020  0.7942227E+02  0.7818608E-02  0.1330699E+00
          1   -1    0    0  501    0  0.00000000000E+00  0.00000000000E+00  0.20731883120E+03  0.20731883126E+03  0.50400000000E-02 0. -1.
         -2   -1    0    0    0  501 -0.00000000000E+00 -0.00000000000E+00 -0.76065170593E+01  0.76065174867E+01  0.25500000000E-02 0.  1.
        -24    2    1    2    0    0  0.00000000000E+00  0.00000000000E+00  0.19971231414E+03  0.21492534875E+03  0.79422270901E+02 0.  0.
         66    2    3    3    0    0  0.38112099845E+02  0.11064703645E+02  0.10018311676E+03  0.10777577051E+03  0.20000010030E+01 0.  0.
         13    1    3    3    0    0 -0.38112099845E+02 -0.11064703645E+02  0.99529197384E+02  0.10714957824E+03  0.10566000000E+00 0. -1.
         13    1    4    4    0    0  0.38695579193E+01  0.13041207067E+01  0.10272536797E+02  0.11054880623E+02  0.10566000000E+00 0. -1.
        -13    1    4    4    0    0  0.24381660208E+02  0.77815626200E+01  0.64721909229E+02  0.69598525628E+02  0.10566000000E+00 0.  1.
        -14    1    4    4    0    0  0.98608817169E+01  0.19790203179E+01  0.25188670734E+02  0.27122364259E+02  0.00000000000E+00 0.  1.
<mgrwt>
<rscale>  0 0.79422271E+02</rscale>
<asrwt>0</asrwt>
<pdfrwt beam="1">  1        1 0.31895201E-01 0.79422271E+02</pdfrwt>
<pdfrwt beam="2">  1       -2 0.11702336E-02 0.79422271E+02</pdfrwt>
<totfact> 0.17116672E+05</totfact>
</mgrwt>
</event>
<event>
 8    1  0.1241100E-020  0.7797017E+02  0.7818608E-02  0.1334913E+00
         -2   -1    0    0    0  501 -0.00000000000E+00  0.00000000000E+00  0.17887548441E+03  0.17887548443E+03  0.25500000000E-02 0.  1.
          1   -1    0    0  501    0  0.00000000000E+00 -0.00000000000E+00 -0.84966185908E+01  0.84966200856E+01  0.50400000000E-02 0. -1.
        -24    2    1    2    0    0  0.00000000000E+00  0.00000000000E+00  0.17037886582E+03  0.18737210451E+03  0.77970171426E+02 0.  0.
         66    2    3    3    0    0 -0.19300045757E+02  0.19100609385E+02  0.15238277599E+03  0.15479610939E+03  0.20000047495E+01 0.  0.
         13    1    3    3    0    0  0.19300045757E+02 -0.19100609385E+02  0.17996089830E+02  0.32575995124E+02  0.10566000000E+00 0. -1.
         13    1    4    4    0    0 -0.12364529857E+02  0.11803667112E+02  0.10016702443E+03  0.10161521591E+03  0.10566000000E+00 0. -1.
        -13    1    4    4    0    0 -0.46131194585E+01  0.49223234936E+01  0.36424958070E+02  0.37044552557E+02  0.10566000000E+00 0.  1.
         14    1    4    4    0    0 -0.23223964416E+01  0.23746187793E+01  0.15790793487E+02  0.16136340927E+02  0.00000000000E+00 0. -1.
<mgrwt>
<rscale>  0 0.77970171E+02</rscale>
<asrwt>0</asrwt>
<pdfrwt beam="1">  1        1 0.13071721E-02 0.77970171E+02</pdfrwt>
<pdfrwt beam="2">  1       -2 0.27519307E-01 0.77970171E+02</pdfrwt>
<totfact> 0.94938663E+04</totfact>
</mgrwt>
</event>
<event>
 8    1  0.1241100E-020  0.8472786E+02  0.7818608E-02  0.1316146E+00
         -2   -1    0    0    0  501 -0.00000000000E+00  0.00000000000E+00  0.74971808754E+01  0.74971813091E+01  0.25500000000E-02 0.  1.
          1   -1    0    0  501    0  0.00000000000E+00 -0.00000000000E+00 -0.23938366491E+03  0.23938366496E+03  0.50400000000E-02 0. -1.
        -24    2    1    2    0    0  0.71054273576E-14  0.00000000000E+00 -0.23188648404E+03  0.24688084627E+03  0.84727863056E+02 0.  0.
         66    2    3    3    0    0  0.32774477859E+02 -0.73153665376E+01 -0.40866588103E+02  0.52931644695E+02  0.20000001223E+01 0.  0.
         13    1    3    3    0    0 -0.32774477859E+02  0.73153665376E+01 -0.19101989593E+03  0.19394920158E+03  0.10566000000E+00 0. -1.
         13    1    4    4    0    0  0.23004047168E+02 -0.48887426704E+01 -0.27556436751E+02  0.36227811988E+02  0.10566000000E+00 0. -1.
        -13    1    4    4    0    0  0.85546882708E+01 -0.18803813635E+01 -0.11577261974E+02  0.14517668006E+02  0.10566000000E+00 0.  1.
         14    1    4    4    0    0  0.12157424203E+01 -0.54624250377E+00 -0.17328893777E+01  0.21861647012E+01  0.00000000000E+00 0. -1.
<mgrwt>
<rscale>  0 0.84727863E+02</rscale>
<asrwt>0</asrwt>
<pdfrwt beam="1">  1        1 0.36828250E-01 0.84727863E+02</pdfrwt>
<pdfrwt beam="2">  1       -2 0.11534127E-02 0.84727863E+02</pdfrwt>
<totfact> 0.14827445E+05</totfact>
</mgrwt>
</event>
<event>
 8    1  0.1241100E-020  0.8085316E+02  0.7818608E-02  0.1326648E+00
          1   -1    0    0  501    0  0.00000000000E+00  0.00000000000E+00  0.96118433535E+02  0.96118433667E+02  0.50400000000E-02 0. -1.
         -2   -1    0    0    0  501 -0.00000000000E+00 -0.00000000000E+00 -0.17003068546E+02  0.17003068737E+02  0.25500000000E-02 0.  1.
        -24    2    1    2    0    0  0.00000000000E+00 -0.44408920985E-15  0.79115364989E+02  0.11312150240E+03  0.80853159052E+02 0.  0.
         66    2    3    3    0    0 -0.37475086473E+02  0.33022236816E+01  0.18971030203E+02  0.42180407414E+02  0.19999988009E+01 0.  0.
         13    1    3    3    0    0  0.37475086473E+02 -0.33022236816E+01  0.60144334786E+02  0.70941094990E+02  0.10566000000E+00 0. -1.
         13    1    4    4    0    0 -0.12238927232E+02  0.58867114424E+00  0.56159733459E+01  0.13479176316E+02  0.10566000000E+00 0. -1.
        -13    1    4    4    0    0 -0.18381298994E+02  0.24567596342E+01  0.97775982600E+01  0.20964742125E+02  0.10566000000E+00 0.  1.
        -14    1    4    4    0    0 -0.68548602471E+01  0.25679290316E+00  0.35774585972E+01  0.77364889722E+01  0.00000000000E+00 0.  1.
<mgrwt>
<rscale>  0 0.80853159E+02</rscale>
<asrwt>0</asrwt>
<pdfrwt beam="1">  1        1 0.14787451E-01 0.80853159E+02</pdfrwt>
<pdfrwt beam="2">  1       -2 0.26158568E-02 0.80853159E+02</pdfrwt>
<totfact> 0.14188484E+05</totfact>
</mgrwt>
</event>
<event>
 8    1  0.1287557E-020  0.7887128E+02  0.7818608E-02  0.1332285E+00
          1   -1    0    0  501    0  0.00000000000E+00  0.00000000000E+00  0.13237793301E+03  0.13237793310E+03  0.50400000000E-02 0. -1.
         -2   -1    0    0    0  501 -0.00000000000E+00 -0.00000000000E+00 -0.11747951932E+02  0.11747952209E+02  0.25500000000E-02 0.  1.
        -24    2    1    2    0    0 -0.88817841970E-15 -0.35527136788E-14  0.12062998108E+03  0.14412588531E+03  0.78871277934E+02 0.  0.
         66    2    3    3    0    0  0.64547866651E+01  0.30018833605E+02  0.15207620560E+02  0.34322971406E+02  0.20000002802E+01 0.  0.
         13    1    3    3    0    0 -0.64547866651E+01 -0.30018833605E+02  0.10542236052E+03  0.10980291391E+03  0.10566000000E+00 0. -1.
         13    1    4    4    0    0  0.28153548731E+01  0.14063536370E+02  0.65518985344E+01  0.15768570535E+02  0.10566000000E+00 0. -1.
        -13    1    4    4    0    0  0.29904513725E+01  0.14586365961E+02  0.77010433645E+01  0.16763713917E+02  0.10566000000E+00 0.  1.
         14    1    4    4    0    0  0.64898041950E+00  0.13689312745E+01  0.95467866137E+00  0.17906869535E+01  0.00000000000E+00 0. -1.
<mgrwt>
<rscale>  0 0.78871278E+02</rscale>
<asrwt>0</asrwt>
<pdfrwt beam="1">  1        1 0.20365837E-01 0.78871278E+02</pdfrwt>
<pdfrwt beam="2">  1       -2 0.18073771E-02 0.78871278E+02</pdfrwt>
<totfact> 0.16031781E+05</totfact>
</mgrwt>
</event>
<event>
 8    1  0.1241100E-020  0.8882559E+02  0.7818608E-02  0.1305721E+00
          1   -1    0    0  501    0  0.00000000000E+00  0.00000000000E+00  0.27803928981E+03  0.27803928986E+03  0.50400000000E-02 0. -1.
         -2   -1    0    0    0  501 -0.00000000000E+00 -0.00000000000E+00 -0.70943070224E+01  0.70943074807E+01  0.25500000000E-02 0.  1.
        -24    2    1    2    0    0  0.00000000000E+00  0.00000000000E+00  0.27094498279E+03  0.28513359734E+03  0.88825585460E+02 0.  0.
         66    2    3    3    0    0  0.41407918576E+02 -0.42019240803E+01  0.85996111646E+02  0.95559421913E+02  0.20000028454E+01 0.  0.
         13    1    3    3    0    0 -0.41407918576E+02  0.42019240803E+01  0.18494887114E+03  0.18957417543E+03  0.10566000000E+00 0. -1.
         13    1    4    4    0    0  0.29867661144E+01 -0.34252393954E+00  0.51357757976E+01  0.59519283892E+01  0.10566000000E+00 0. -1.
        -13    1    4    4    0    0  0.20149574183E+02 -0.19851716336E+01  0.42447297353E+02  0.47029038506E+02  0.10566000000E+00 0.  1.
         14    1    4    4    0    0  0.18271578278E+02 -0.18742285072E+01  0.38413038496E+02  0.42578455019E+02  0.00000000000E+00 0. -1.
<mgrwt>
<rscale>  0 0.88825585E+02</rscale>
<asrwt>0</asrwt>
<pdfrwt beam="1">  1        1 0.42775286E-01 0.88825585E+02</pdfrwt>
<pdfrwt beam="2">  1       -2 0.10914316E-02 0.88825585E+02</pdfrwt>
<totfact> 0.13467930E+05</totfact>
</mgrwt>
</event>
<event>
 8    1  0.1241100E-020  0.8007685E+02  0.7818608E-02  0.1328833E+00
          1   -1    0    0  501    0  0.00000000000E+00  0.00000000000E+00  0.64165800778E+01  0.64165820572E+01  0.50400000000E-02 0. -1.
         -2   -1    0    0    0  501 -0.00000000000E+00 -0.00000000000E+00 -0.24983329934E+03  0.24983329936E+03  0.25500000000E-02 0.  1.
        -24    2    1    2    0    0  0.00000000000E+00  0.35527136788E-14 -0.24341671926E+03  0.25624988141E+03  0.80076853750E+02 0.  0.
         66    2    3    3    0    0  0.25690509452E+02 -0.27397559814E+02 -0.77623144677E+02  0.86255325328E+02  0.19999995829E+01 0.  0.
         13    1    3    3    0    0 -0.25690509452E+02  0.27397559814E+02 -0.16579357459E+03  0.16999455608E+03  0.10566000000E+00 0. -1.
         13    1    4    4    0    0  0.34285653283E+01 -0.35454254186E+01 -0.90128353945E+01  0.10274603033E+02  0.10566000000E+00 0. -1.
        -13    1    4    4    0    0  0.10156591946E+02 -0.10150598828E+02 -0.30615933814E+02  0.33816232550E+02  0.10566000000E+00 0.  1.
        -14    1    4    4    0    0  0.12105352177E+02 -0.13701535567E+02 -0.37994375468E+02  0.42164489745E+02  0.00000000000E+00 0.  1.
<mgrwt>
<rscale>  0 0.80076854E+02</rscale>
<asrwt>0</asrwt>
<pdfrwt beam="1">  1        1 0.98716651E-03 0.80076854E+02</pdfrwt>
<pdfrwt beam="2">  1       -2 0.38435885E-01 0.80076854E+02</pdfrwt>
<totfact> 0.76948632E+04</totfact>
</mgrwt>
</event>
<event>
 8    1  0.1241100E-020  0.8098726E+02  0.7818608E-02  0.1326273E+00
         -2   -1    0    0    0  501 -0.00000000000E+00  0.00000000000E+00  0.98433602577E+02  0.98433602610E+02  0.25500000000E-02 0.  1.
          1   -1    0    0  501    0  0.00000000000E+00 -0.00000000000E+00 -0.16658275871E+02  0.16658276633E+02  0.50400000000E-02 0. -1.
        -24    2    1    2    0    0  0.00000000000E+00  0.00000000000E+00  0.81775326706E+02  0.11509187924E+03  0.80987262022E+02 0.  0.
         66    2    3    3    0    0 -0.30475122809E+02  0.21526534692E+02  0.63183851797E+02  0.73405203802E+02  0.20000028242E+01 0.  0.
         13    1    3    3    0    0  0.30475122809E+02 -0.21526534692E+02  0.18591474910E+02  0.41686675442E+02  0.10566000000E+00 0. -1.
         13    1    4    4    0    0 -0.23614865461E+01  0.15360386549E+01  0.40257578473E+01  0.49146641531E+01  0.10566000000E+00 0. -1.
        -13    1    4    4    0    0 -0.48954771344E+01  0.40034732579E+01  0.10791546101E+02  0.12508482153E+02  0.10566000000E+00 0.  1.
        -14    1    4    4    0    0 -0.23218159128E+02  0.15987022779E+02  0.48366547849E+02  0.55982057496E+02  0.00000000000E+00 0.  1.
<mgrwt>
<rscale>  0 0.80987262E+02</rscale>
<asrwt>0</asrwt>
<pdfrwt beam="1">  1        1 0.25628117E-02 0.80987262E+02</pdfrwt>
<pdfrwt beam="2">  1       -2 0.15143631E-01 0.80987262E+02</pdfrwt>
<totfact> 0.10325002E+05</totfact>
</mgrwt>
</event>
<event>
 8    1  0.1241100E-020  0.8982544E+02  0.7818608E-02  0.1303275E+00
         -2   -1    0    0    0  501 -0.00000000000E+00  0.00000000000E+00  0.81297060410E+01  0.81297064409E+01  0.25500000000E-02 0.  1.
          1   -1    0    0  501    0  0.00000000000E+00 -0.00000000000E+00 -0.24812118188E+03  0.24812118193E+03  0.50400000000E-02 0. -1.
        -24    2    1    2    0    0  0.00000000000E+00  0.00000000000E+00 -0.23999147584E+03  0.25625088838E+03  0.89825438024E+02 0.  0.
         66    2    3    3    0    0  0.20190951342E+01 -0.37068075958E+02 -0.48052923930E+02  0.60755267261E+02  0.20000003557E+01 0.  0.
         13    1    3    3    0    0 -0.20190951342E+01  0.37068075958E+02 -0.19193855191E+03  0.19549562111E+03  0.10566000000E+00 0. -1.
         13    1    4    4    0    0  0.92449224350E+00 -0.21364305804E+02 -0.28058818522E+02  0.35278842233E+02  0.10566000000E+00 0. -1.
        -13    1    4    4    0    0  0.11720901628E+01 -0.81739291987E+01 -0.10533376880E+02  0.13384696725E+02  0.10566000000E+00 0.  1.
         14    1    4    4    0    0 -0.77487272120E-01 -0.75298409553E+01 -0.94607285282E+01  0.12091728304E+02  0.00000000000E+00 0. -1.
<mgrwt>
<rscale>  0 0.89825438E+02</rscale>
<asrwt>0</asrwt>
<pdfrwt beam="1">  1        1 0.38172484E-01 0.89825438E+02</pdfrwt>
<pdfrwt beam="2">  1       -2 0.12507242E-02 0.89825438E+02</pdfrwt>
<totfact> 0.12776626E+05</totfact>
</mgrwt>
</event>
<event>
 8    1  0.1241100E-020  0.7952239E+02  0.7818608E-02  0.1330412E+00
          1   -1    0    0  501    0  0.00000000000E+00  0.00000000000E+00  0.63797554808E+01  0.63797574716E+01  0.50400000000E-02 0. -1.
         -2   -1    0    0    0  501 -0.00000000000E+00 -0.00000000000E+00 -0.24780765677E+03  0.24780765679E+03  0.25500000000E-02 0.  1.
        -24    2    1    2    0    0  0.35527136788E-14  0.00000000000E+00 -0.24142790129E+03  0.25418741426E+03  0.79522387066E+02 0.  0.
         66    2    3    3    0    0  0.27074743708E+02  0.49269427238E+01 -0.21241278647E+03  0.21419735844E+03  0.19999997779E+01 0.  0.
         13    1    3    3    0    0 -0.27074743708E+02 -0.49269427238E+01 -0.29015114825E+02  0.39990055812E+02  0.10566000000E+00 0. -1.
         13    1    4    4    0    0  0.35727494962E+01  0.55425463528E+00 -0.25339452820E+02  0.25596303843E+02  0.10566000000E+00 0. -1.
        -13    1    4    4    0    0  0.48657898593E+00 -0.12441260148E-01 -0.27648718475E+01  0.28093761342E+01  0.10566000000E+00 0. -1.
        -14    1    4    4    0    0  0.23015415226E+02  0.43851293487E+01 -0.18430846180E+03  0.18579167847E+03  0.00000000000E+00 0.  1.
<mgrwt>
<rscale>  0 0.79522387E+02</rscale>
<asrwt>0</asrwt>
<pdfrwt beam="1">  1        1 0.98150119E-03 0.79522387E+02</pdfrwt>
<pdfrwt beam="2">  1       -2 0.38124248E-01 0.79522387E+02</pdfrwt>
<totfact> 0.78645190E+04</totfact>
</mgrwt>
</event>
<event>
 8    1  0.1241100E-020  0.8162761E+02  0.7818608E-02  0.1324495E+00
          1   -1    0    0  501    0  0.00000000000E+00  0.00000000000E+00  0.95300871300E+02  0.95300871433E+02  0.50400000000E-02 0. -1.
         -2   -1    0    0    0  501 -0.00000000000E+00 -0.00000000000E+00 -0.17479030464E+02  0.17479030650E+02  0.25500000000E-02 0.  1.
        -24    2    1    2    0    0  0.00000000000E+00  0.88817841970E-15  0.77821840836E+02  0.11277990208E+03  0.81627614217E+02 0.  0.
         66    2    3    3    0    0 -0.18929010276E+02 -0.41813387110E+01 -0.10650478230E+02  0.22208640480E+02  0.20000004952E+01 0.  0.
         13    1    3    3    0    0  0.18929010276E+02  0.41813387110E+01  0.88472319066E+02  0.90571261603E+02  0.10566000000E+00 0. -1.
         13    1    4    4    0    0 -0.49703129607E+01 -0.10513295446E+01 -0.20786793941E+01  0.54901162827E+01  0.10566000000E+00 0. -1.
        -13    1    4    4    0    0 -0.22398131236E+01 -0.76586298167E-01 -0.13629022422E+01  0.26251275868E+01  0.10566000000E+00 0.  1.
        -14    1    4    4    0    0 -0.11718884192E+02 -0.30534228682E+01 -0.72088965936E+01  0.14093396610E+02  0.00000000000E+00 0.  1.
<mgrwt>
<rscale>  0 0.81627614E+02</rscale>
<asrwt>0</asrwt>
<pdfrwt beam="1">  1        1 0.14661672E-01 0.81627614E+02</pdfrwt>
<pdfrwt beam="2">  1       -2 0.26890817E-02 0.81627614E+02</pdfrwt>
<totfact> 0.13806531E+05</totfact>
</mgrwt>
</event>
<event>
 8    1  0.1241100E-020  0.8000702E+02  0.7818608E-02  0.1329032E+00
          1   -1    0    0  501    0  0.00000000000E+00  0.00000000000E+00  0.23531583377E+03  0.23531583382E+03  0.50400000000E-02 0. -1.
         -2   -1    0    0    0  501 -0.00000000000E+00 -0.00000000000E+00 -0.68005662371E+01  0.68005667152E+01  0.25500000000E-02 0.  1.
        -24    2    1    2    0    0  0.00000000000E+00  0.00000000000E+00  0.22851526753E+03  0.24211640053E+03  0.80007024156E+02 0.  0.
         66    2    3    3    0    0 -0.65794240587E+01 -0.39305431822E+02  0.10472563734E+03  0.11206991077E+03  0.19999984938E+01 0.  0.
         13    1    3    3    0    0  0.65794240587E+01  0.39305431822E+02  0.12378963019E+03  0.13004648976E+03  0.10566000000E+00 0. -1.
         13    1    4    4    0    0 -0.96018203802E+00 -0.55274006461E+01  0.13436150079E+02  0.14560748622E+02  0.10566000000E+00 0. -1.
        -13    1    4    4    0    0 -0.54726189910E+01 -0.33257392555E+02  0.90229561095E+02  0.96319201500E+02  0.10566000000E+00 0.  1.
        -14    1    4    4    0    0 -0.14662302967E+00 -0.52063862067E+00  0.10599261618E+01  0.11899606525E+01  0.00000000000E+00 0.  1.
<mgrwt>
<rscale>  0 0.80007024E+02</rscale>
<asrwt>0</asrwt>
<pdfrwt beam="1">  1        1 0.36202431E-01 0.80007024E+02</pdfrwt>
<pdfrwt beam="2">  1       -2 0.10462411E-02 0.80007024E+02</pdfrwt>
<totfact> 0.17206916E+05</totfact>
</mgrwt>
</event>
<event>
 8    1  0.1241100E-020  0.8022142E+02  0.7818608E-02  0.1328424E+00
         -2   -1    0    0    0  501 -0.00000000000E+00  0.00000000000E+00  0.10260946999E+02  0.10260947316E+02  0.25500000000E-02 0.  1.
          1   -1    0    0  501    0  0.00000000000E+00 -0.00000000000E+00 -0.15679537645E+03  0.15679537654E+03  0.50400000000E-02 0. -1.
        -24    2    1    2    0    0  0.00000000000E+00  0.00000000000E+00 -0.14653442946E+03  0.16705632385E+03  0.80221420598E+02 0.  0.
         66    2    3    3    0    0  0.10979339646E+02  0.38497689679E+02 -0.69021533694E+02  0.79815976631E+02  0.20000005831E+01 0.  0.
         13    1    3    3    0    0 -0.10979339646E+02 -0.38497689679E+02 -0.77512895762E+02  0.87240347220E+02  0.10566000000E+00 0. -1.
         13    1    4    4    0    0  0.41242935533E+01  0.14028215125E+02 -0.23412743542E+02  0.27603774038E+02  0.10566000000E+00 0.  1.
        -13    1    4    4    0    0  0.17742972159E+01  0.66174919896E+01 -0.12633687408E+02  0.14372214596E+02  0.10566000000E+00 0.  1.
         14    1    4    4    0    0  0.50807488771E+01  0.17851982565E+02 -0.32975102744E+02  0.37839987997E+02  0.00000000000E+00 0. -1.
<mgrwt>
<rscale>  0 0.80221421E+02</rscale>
<asrwt>0</asrwt>
<pdfrwt beam="1">  1        1 0.24122364E-01 0.80221421E+02</pdfrwt>
<pdfrwt beam="2">  1       -2 0.15786074E-02 0.80221421E+02</pdfrwt>
<totfact> 0.15801594E+05</totfact>
</mgrwt>
</event>
<event>
 8    1  0.1241100E-020  0.7783841E+02  0.7818608E-02  0.1335300E+00
         -2   -1    0    0    0  501 -0.00000000000E+00  0.00000000000E+00  0.34337496581E+02  0.34337496675E+02  0.25500000000E-02 0.  1.
          1   -1    0    0  501    0  0.00000000000E+00 -0.00000000000E+00 -0.44112253422E+02  0.44112253710E+02  0.50400000000E-02 0. -1.
        -24    2    1    2    0    0  0.17763568394E-14  0.00000000000E+00 -0.97747568416E+01  0.78449750386E+02  0.77838406100E+02 0.  0.
         66    2    3    3    0    0  0.12660260994E+02 -0.25412125273E+02  0.21900907417E+02  0.35912505652E+02  0.19999993012E+01 0.  0.
         13    1    3    3    0    0 -0.12660260994E+02  0.25412125273E+02 -0.31675664258E+02  0.42537244734E+02  0.10566000000E+00 0. -1.
         13    1    4    4    0    0  0.44184072609E+01 -0.10280910716E+02  0.82645831234E+01  0.13911647858E+02  0.10566000000E+00 0. -1.
        -13    1    4    4    0    0  0.15615822773E+01 -0.21322626458E+01  0.22866516560E+01  0.34964300408E+01  0.10566000000E+00 0.  1.
        -14    1    4    4    0    0  0.66802714556E+01 -0.12998951911E+02  0.11349672638E+02  0.18504427753E+02  0.00000000000E+00 0.  1.
<mgrwt>
<rscale>  0 0.77838406E+02</rscale>
<asrwt>0</asrwt>
<pdfrwt beam="1">  1        1 0.67865006E-02 0.77838406E+02</pdfrwt>
<pdfrwt beam="2">  1       -2 0.52826918E-02 0.77838406E+02</pdfrwt>
<totfact> 0.13924788E+05</totfact>
</mgrwt>
</event>
<event>
 8    1  0.1241100E-020  0.8026863E+02  0.7818608E-02  0.1328291E+00
          1   -1    0    0  501    0  0.00000000000E+00  0.00000000000E+00  0.47393162863E+01  0.47393189662E+01  0.50400000000E-02 0. -1.
         -2   -1    0    0    0  501 -0.00000000000E+00 -0.00000000000E+00 -0.33987236415E+03  0.33987236416E+03  0.25500000000E-02 0.  1.
        -24    2    1    2    0    0  0.00000000000E+00  0.00000000000E+00 -0.33513304786E+03  0.34461168312E+03  0.80268626351E+02 0.  0.
         66    2    3    3    0    0 -0.32231841367E+02 -0.21412756737E+02 -0.21297561565E+03  0.21647173168E+03  0.20000008322E+01 0.  0.
         13    1    3    3    0    0  0.32231841367E+02  0.21412756737E+02 -0.12215743221E+03  0.12813995145E+03  0.10566000000E+00 0. -1.
         13    1    4    4    0    0 -0.17146829876E+01 -0.13218025875E+01 -0.13294777915E+02  0.13470322330E+02  0.10566000000E+00 0. -1.
        -13    1    4    4    0    0 -0.28890308507E+02 -0.18632470135E+02 -0.18699870767E+03  0.19013244516E+03  0.10566000000E+00 0.  1.
        -14    1    4    4    0    0 -0.16268498733E+01 -0.14584840143E+01 -0.12682130072E+02  0.12868964188E+02  0.00000000000E+00 0.  1.
<mgrwt>
<rscale>  0 0.80268626E+02</rscale>
<asrwt>0</asrwt>
<pdfrwt beam="1">  1        1 0.72912605E-03 0.80268626E+02</pdfrwt>
<pdfrwt beam="2">  1       -2 0.52288037E-01 0.80268626E+02</pdfrwt>
<totfact> 0.64892661E+04</totfact>
</mgrwt>
</event>
<event>
 8    1  0.1241100E-020  0.7322180E+02  0.7818608E-02  0.1349468E+00
          1   -1    0    0  501    0  0.00000000000E+00  0.00000000000E+00  0.50918049457E+01  0.50918074400E+01  0.50400000000E-02 0. -1.
         -2   -1    0    0    0  501 -0.00000000000E+00 -0.00000000000E+00 -0.26323821652E+03  0.26323821653E+03  0.25500000000E-02 0.  1.
        -24    2    1    2    0    0  0.00000000000E+00  0.00000000000E+00 -0.25814641157E+03  0.26833002397E+03  0.73221799734E+02 0.  0.
         66    2    3    3    0    0 -0.15417811684E+02 -0.91203216784E+01 -0.24606220329E+03  0.24672149699E+03  0.20000004229E+01 0.  0.
         13    1    3    3    0    0  0.15417811684E+02  0.91203216784E+01 -0.12084208281E+02  0.21608526985E+02  0.10566000000E+00 0. -1.
         13    1    4    4    0    0 -0.53832893886E+00 -0.61601782232E+00 -0.81739891600E+01  0.82155059995E+01  0.10566000000E+00 0.  1.
        -13    1    4    4    0    0 -0.94645420764E+01 -0.57920225187E+01 -0.15197535304E+03  0.15237993364E+03  0.10566000000E+00 0.  1.
         14    1    4    4    0    0 -0.54149406686E+01 -0.27122813373E+01 -0.85912861097E+02  0.86126057348E+02  0.00000000000E+00 0. -1.
<mgrwt>
<rscale>  0 0.73221800E+02</rscale>
<asrwt>0</asrwt>
<pdfrwt beam="1">  1        1 0.78335501E-03 0.73221800E+02</pdfrwt>
<pdfrwt beam="2">  1       -2 0.40498177E-01 0.73221800E+02</pdfrwt>
<totfact> 0.94447358E+04</totfact>
</mgrwt>
</event>
<event>
 8    1  0.1241100E-020  0.8279841E+02  0.7818608E-02  0.1321292E+00
          1   -1    0    0  501    0  0.00000000000E+00  0.00000000000E+00  0.91042424785E+01  0.91042438735E+01  0.50400000000E-02 0. -1.
         -2   -1    0    0    0  501 -0.00000000000E+00 -0.00000000000E+00 -0.18825224396E+03  0.18825224398E+03  0.25500000000E-02 0.  1.
        -24    2    1    2    0    0 -0.35527136788E-14  0.88817841970E-15 -0.17914800148E+03  0.19735648785E+03  0.82798410987E+02 0.  0.
         66    2    3    3    0    0 -0.20683266490E+02  0.75828193031E+01 -0.17310556607E+03  0.17451313321E+03  0.19999997237E+01 0.  0.
         13    1    3    3    0    0  0.20683266490E+02 -0.75828193031E+01 -0.60424354123E+01  0.22843354636E+02  0.10566000000E+00 0. -1.
         13    1    4    4    0    0 -0.12035860516E+01  0.39841505976E+00 -0.13032769322E+02  0.13094716270E+02  0.10566000000E+00 0. -1.
        -13    1    4    4    0    0 -0.96553140921E+01  0.37258092889E+01 -0.84397724876E+02  0.85029958681E+02  0.10566000000E+00 0.  1.
        -14    1    4    4    0    0 -0.98243663466E+01  0.34585949545E+01 -0.75675071869E+02  0.76388458262E+02  0.00000000000E+00 0.  1.
<mgrwt>
<rscale>  0 0.82798411E+02</rscale>
<asrwt>0</asrwt>
<pdfrwt beam="1">  1        1 0.14006529E-02 0.82798411E+02</pdfrwt>
<pdfrwt beam="2">  1       -2 0.28961881E-01 0.82798411E+02</pdfrwt>
<totfact> 0.79744305E+04</totfact>
</mgrwt>
</event>
<event>
 8    1  0.1241100E-020  0.8169486E+02  0.7818608E-02  0.1324309E+00
         -2   -1    0    0    0  501 -0.00000000000E+00  0.00000000000E+00  0.97747127007E+02  0.97747127041E+02  0.25500000000E-02 0.  1.
          1   -1    0    0  501    0  0.00000000000E+00 -0.00000000000E+00 -0.17069682070E+02  0.17069682814E+02  0.50400000000E-02 0. -1.
        -24    2    1    2    0    0 -0.17763568394E-14  0.00000000000E+00  0.80677444938E+02  0.11481680985E+03  0.81694857265E+02 0.  0.
         66    2    3    3    0    0 -0.97711172248E+01  0.24594251878E+02  0.84048025525E+02  0.88138655218E+02  0.19999979154E+01 0.  0.
         13    1    3    3    0    0  0.97711172248E+01 -0.24594251878E+02 -0.33705805875E+01  0.26678154637E+02  0.10566000000E+00 0. -1.
         13    1    4    4    0    0 -0.26830515843E+01  0.61008576744E+01  0.18897236410E+02  0.20038361663E+02  0.10566000000E+00 0. -1.
        -13    1    4    4    0    0 -0.23373048077E+01  0.56389319150E+01  0.21342895009E+02  0.22198893628E+02  0.10566000000E+00 0.  1.
         14    1    4    4    0    0 -0.47507608328E+01  0.12854462289E+02  0.43807894107E+02  0.45901399927E+02  0.00000000000E+00 0. -1.
<mgrwt>
<rscale>  0 0.81694857E+02</rscale>
<asrwt>0</asrwt>
<pdfrwt beam="1">  1        1 0.26261050E-02 0.81694857E+02</pdfrwt>
<pdfrwt beam="2">  1       -2 0.15038019E-01 0.81694857E+02</pdfrwt>
<totfact> 0.10114995E+05</totfact>
</mgrwt>
</event>
<event>
 8    1  0.1241100E-020  0.8008271E+02  0.7818608E-02  0.1328817E+00
         -2   -1    0    0    0  501 -0.00000000000E+00  0.00000000000E+00  0.14395097800E+02  0.14395098026E+02  0.25500000000E-02 0.  1.
          1   -1    0    0  501    0  0.00000000000E+00 -0.00000000000E+00 -0.11137889521E+03  0.11137889532E+03  0.50400000000E-02 0. -1.
        -24    2    1    2    0    0  0.00000000000E+00  0.00000000000E+00 -0.96983797407E+02  0.12577399335E+03  0.80082710013E+02 0.  0.
         66    2    3    3    0    0 -0.38089009499E+02  0.10612948159E+02 -0.38853554228E+02  0.55470766897E+02  0.19999976896E+01 0.  0.
         13    1    3    3    0    0  0.38089009499E+02 -0.10612948159E+02 -0.58130243178E+02  0.70303226450E+02  0.10566000000E+00 0. -1.
         13    1    4    4    0    0 -0.18018131778E+02  0.56631579732E+01 -0.18891681602E+02  0.26713877082E+02  0.10566000000E+00 0. -1.
        -13    1    4    4    0    0 -0.14460488779E+02  0.39050187274E+01 -0.13973842382E+02  0.20484978447E+02  0.10566000000E+00 0.  1.
         14    1    4    4    0    0 -0.56103889423E+01  0.10447714585E+01 -0.59880302441E+01  0.82719113685E+01  0.00000000000E+00 0. -1.
<mgrwt>
<rscale>  0 0.80082710E+02</rscale>
<asrwt>0</asrwt>
<pdfrwt beam="1">  1        1 0.17135214E-01 0.80082710E+02</pdfrwt>
<pdfrwt beam="2">  1       -2 0.22146305E-02 0.80082710E+02</pdfrwt>
<totfact> 0.14929601E+05</totfact>
</mgrwt>
</event>
<event>
 8    1  0.1241100E-020  0.7876083E+02  0.7818608E-02  0.1332605E+00
          1   -1    0    0  501    0  0.00000000000E+00  0.00000000000E+00  0.18469552948E+02  0.18469553635E+02  0.50400000000E-02 0. -1.
         -2   -1    0    0    0  501 -0.00000000000E+00 -0.00000000000E+00 -0.83966144932E+02  0.83966144971E+02  0.25500000000E-02 0.  1.
        -24    2    1    2    0    0  0.00000000000E+00  0.00000000000E+00 -0.65496591984E+02  0.10243569861E+03  0.78760832826E+02 0.  0.
         66    2    3    3    0    0 -0.47343200615E+01  0.35220901478E+02 -0.54759995992E+02  0.65311429658E+02  0.19999988830E+01 0.  0.
         13    1    3    3    0    0  0.47343200615E+01 -0.35220901478E+02 -0.10736595992E+02  0.37124268948E+02  0.10566000000E+00 0. -1.
         13    1    4    4    0    0 -0.62692163751E+00  0.26798124076E+01 -0.36334991103E+01  0.45593755164E+01  0.10566000000E+00 0. -1.
        -13    1    4    4    0    0 -0.27462801104E+01  0.24897629894E+02 -0.39403440812E+02  0.46691287631E+02  0.10566000000E+00 0.  1.
        -14    1    4    4    0    0 -0.13611183136E+01  0.76434591769E+01 -0.11723056070E+02  0.14060766510E+02  0.00000000000E+00 0.  1.
<mgrwt>
<rscale>  0 0.78760833E+02</rscale>
<asrwt>0</asrwt>
<pdfrwt beam="1">  1        1 0.28414698E-02 0.78760833E+02</pdfrwt>
<pdfrwt beam="2">  1       -2 0.12917868E-01 0.78760833E+02</pdfrwt>
<totfact> 0.11507277E+05</totfact>
</mgrwt>
</event>
<event>
 8    1  0.1241100E-020  0.7808595E+02  0.7818608E-02  0.1334573E+00
         -2   -1    0    0    0  501 -0.00000000000E+00  0.00000000000E+00  0.17939875474E+02  0.17939875655E+02  0.25500000000E-02 0.  1.
          1   -1    0    0  501    0  0.00000000000E+00 -0.00000000000E+00 -0.84970144890E+02  0.84970145039E+02  0.50400000000E-02 0. -1.
        -24    2    1    2    0    0 -0.17763568394E-14  0.00000000000E+00 -0.67030269416E+02  0.10291002069E+03  0.78085948425E+02 0.  0.
         66    2    3    3    0    0  0.14418290169E+02 -0.92262482118E+01  0.12671289882E+02  0.21390940314E+02  0.19999981975E+01 0.  0.
         13    1    3    3    0    0 -0.14418290169E+02  0.92262482118E+01 -0.79701559298E+02  0.81519080380E+02  0.10566000000E+00 0. -1.
         13    1    4    4    0    0  0.24592663742E+01 -0.16141274412E+01  0.14347930048E+01  0.32746287573E+01  0.10566000000E+00 0. -1.
        -13    1    4    4    0    0  0.56049674343E+01 -0.41170334371E+01  0.56994206096E+01  0.89922290664E+01  0.10566000000E+00 0.  1.
         14    1    4    4    0    0  0.63540563607E+01 -0.34950873336E+01  0.55370762678E+01  0.91240824909E+01  0.00000000000E+00 0. -1.
<mgrwt>
<rscale>  0 0.78085948E+02</rscale>
<asrwt>0</asrwt>
<pdfrwt beam="1">  1        1 0.13072330E-01 0.78085948E+02</pdfrwt>
<pdfrwt beam="2">  1       -2 0.27599809E-02 0.78085948E+02</pdfrwt>
<totfact> 0.15279976E+05</totfact>
</mgrwt>
</event>
<event>
 8    1  0.1241100E-020  0.8094872E+02  0.7818608E-02  0.1326380E+00
         -2   -1    0    0    0  501 -0.00000000000E+00  0.00000000000E+00  0.32350701480E+01  0.32350711530E+01  0.25500000000E-02 0.  1.
          1   -1    0    0  501    0  0.00000000000E+00 -0.00000000000E+00 -0.50637955398E+03  0.50637955400E+03  0.50400000000E-02 0. -1.
        -24    2    1    2    0    0  0.00000000000E+00 -0.35527136788E-14 -0.50314448383E+03  0.50961462516E+03  0.80948715644E+02 0.  0.
         66    2    3    3    0    0  0.86043733735E+01  0.29666518797E+02 -0.41613756886E+03  0.41728720780E+03  0.19999998903E+01 0.  0.
         13    1    3    3    0    0 -0.86043733735E+01 -0.29666518797E+02 -0.87006914969E+02  0.92327417354E+02  0.10566000000E+00 0. -1.
         13    1    4    4    0    0  0.18077698307E+01  0.51715961400E+01 -0.81725693911E+02  0.81909179264E+02  0.10566000000E+00 0. -1.
        -13    1    4    4    0    0  0.40360298503E+01  0.16193754094E+02 -0.22076453237E+03  0.22139448305E+03  0.10566000000E+00 0.  1.
         14    1    4    4    0    0  0.27605736924E+01  0.83011685628E+01 -0.11364734258E+03  0.11398354549E+03  0.00000000000E+00 0. -1.
<mgrwt>
<rscale>  0 0.80948716E+02</rscale>
<asrwt>0</asrwt>
<pdfrwt beam="1">  1        1 0.77904484E-01 0.80948716E+02</pdfrwt>
<pdfrwt beam="2">  1       -2 0.49770358E-03 0.80948716E+02</pdfrwt>
<totfact> 0.19039786E+05</totfact>
</mgrwt>
</event>
<event>
 8    1  0.1241100E-020  0.7801014E+02  0.7818608E-02  0.1334795E+00
         -2   -1    0    0    0  501 -0.00000000000E+00  0.00000000000E+00  0.45726639865E+01  0.45726646976E+01  0.25500000000E-02 0.  1.
          1   -1    0    0  501    0  0.00000000000E+00 -0.00000000000E+00 -0.33271534759E+03  0.33271534763E+03  0.50400000000E-02 0. -1.
        -24    2    1    2    0    0 -0.71054273576E-14  0.22204460493E-15 -0.32814268361E+03  0.33728801233E+03  0.78010143291E+02 0.  0.
         66    2    3    3    0    0 -0.38821841646E+02  0.18569251821E+01 -0.17701007210E+03  0.18123782494E+03  0.20000008500E+01 0.  0.
         13    1    3    3    0    0  0.38821841646E+02 -0.18569251821E+01 -0.15113261151E+03  0.15605018739E+03  0.10566000000E+00 0. -1.
         13    1    4    4    0    0 -0.29051864670E+02  0.13517431182E+01 -0.13345158881E+03  0.13658395136E+03  0.10566000000E+00 0. -1.
        -13    1    4    4    0    0 -0.92549262510E+01  0.55421874097E+00 -0.40176853149E+02  0.41232893560E+02  0.10566000000E+00 0.  1.
         14    1    4    4    0    0 -0.51505072550E+00 -0.49036677040E-01 -0.33816301429E+01  0.34209800158E+01  0.00000000000E+00 0. -1.
<mgrwt>
<rscale>  0 0.78010143E+02</rscale>
<asrwt>0</asrwt>
<pdfrwt beam="1">  1        1 0.51186958E-01 0.78010143E+02</pdfrwt>
<pdfrwt beam="2">  1       -2 0.70348708E-03 0.78010143E+02</pdfrwt>
<totfact> 0.19653458E+05</totfact>
</mgrwt>
</event>
<event>
 8    1  0.1241100E-020  0.7969032E+02  0.7818608E-02  0.1329933E+00
          1   -1    0    0  501    0  0.00000000000E+00  0.00000000000E+00  0.21040908697E+03  0.21040908703E+03  0.50400000000E-02 0. -1.
         -2   -1    0    0    0  501 -0.00000000000E+00 -0.00000000000E+00 -0.75454751258E+01  0.75454755567E+01  0.25500000000E-02 0.  1.
        -24    2    1    2    0    0  0.00000000000E+00  0.00000000000E+00  0.20286361184E+03  0.21795456259E+03  0.79690315233E+02 0.  0.
         66    2    3    3    0    0 -0.25494706288E+01  0.38578511774E+02  0.75429436139E+02  0.84784439538E+02  0.19999950898E+01 0.  0.
         13    1    3    3    0    0  0.25494706288E+01 -0.38578511774E+02  0.12743417570E+03  0.13317012305E+03  0.10566000000E+00 0. -1.
         13    1    4    4    0    0 -0.10989252767E-01  0.47681843154E+01  0.96379294787E+01  0.10753443686E+02  0.10566000000E+00 0. -1.
        -13    1    4    4    0    0 -0.27131019774E+01  0.31691440770E+02  0.61253469902E+02  0.69019613731E+02  0.10566000000E+00 0.  1.
         14    1    4    4    0    0  0.17462060140E+00  0.21188866886E+01  0.45380367579E+01  0.50113821217E+01  0.00000000000E+00 0. -1.
<mgrwt>
<rscale>  0 0.79690315E+02</rscale>
<asrwt>0</asrwt>
<pdfrwt beam="1">  1        1 0.32370625E-01 0.79690315E+02</pdfrwt>
<pdfrwt beam="2">  1       -2 0.11608425E-02 0.79690315E+02</pdfrwt>
<totfact> 0.17013331E+05</totfact>
</mgrwt>
</event>
<event>
 8    1  0.1241100E-020  0.7413284E+02  0.7818608E-02  0.1346578E+00
         -2   -1    0    0    0  501 -0.00000000000E+00  0.00000000000E+00  0.59011935813E+02  0.59011935868E+02  0.25500000000E-02 0.  1.
          1   -1    0    0  501    0  0.00000000000E+00 -0.00000000000E+00 -0.23282060741E+02  0.23282061286E+02  0.50400000000E-02 0. -1.
        -24    2    1    2    0    0 -0.71054273576E-14  0.88817841970E-15  0.35729875072E+02  0.82293997154E+02  0.74132840192E+02 0.  0.
         66    2    3    3    0    0  0.35074204417E+02 -0.41455791096E+01  0.30265663743E+02  0.46555300884E+02  0.19999992335E+01 0.  0.
         13    1    3    3    0    0 -0.35074204417E+02  0.41455791096E+01  0.54642113285E+01  0.35738696270E+02  0.10566000000E+00 0. -1.
         13    1    4    4    0    0  0.21896402829E+02 -0.20535842515E+01  0.18510863225E+02  0.28746006444E+02  0.10566000000E+00 0. -1.
        -13    1    4    4    0    0  0.12185331582E+02 -0.21268118381E+01  0.10641389892E+02  0.16317352029E+02  0.10566000000E+00 0.  1.
         14    1    4    4    0    0  0.99247000599E+00  0.34816979943E-01  0.11134106262E+01  0.14919424109E+01  0.00000000000E+00 0. -1.
<mgrwt>
<rscale>  0 0.74132840E+02</rscale>
<asrwt>0</asrwt>
<pdfrwt beam="1">  1        1 0.35818556E-02 0.74132840E+02</pdfrwt>
<pdfrwt beam="2">  1       -2 0.90787594E-02 0.74132840E+02</pdfrwt>
<totfact> 0.14393769E+05</totfact>
</mgrwt>
</event>
<event>
 8    1  0.1241100E-020  0.7961347E+02  0.7818608E-02  0.1330152E+00
          1   -1    0    0  501    0  0.00000000000E+00  0.00000000000E+00  0.27785386359E+02  0.27785386816E+02  0.50400000000E-02 0. -1.
         -2   -1    0    0    0  501 -0.00000000000E+00 -0.00000000000E+00 -0.57029126698E+02  0.57029126755E+02  0.25500000000E-02 0.  1.
        -24    2    1    2    0    0  0.00000000000E+00  0.00000000000E+00 -0.29243740339E+02  0.84814513571E+02  0.79613474759E+02 0.  0.
         66    2    3    3    0    0 -0.15961415173E+02  0.28412067802E+02 -0.38937356534E+02  0.50814664599E+02  0.20000083209E+01 0.  0.
         13    1    3    3    0    0  0.15961415173E+02 -0.28412067802E+02  0.96936161955E+01  0.33999848972E+02  0.10566000000E+00 0. -1.
         13    1    4    4    0    0 -0.31810984126E+01  0.55901965123E+01 -0.70381033757E+01  0.95349749512E+01  0.10566000000E+00 0. -1.
        -13    1    4    4    0    0 -0.69304519796E+01  0.13610453301E+02 -0.17926448457E+02  0.23550887924E+02  0.10566000000E+00 0.  1.
        -14    1    4    4    0    0 -0.58498647812E+01  0.92114179893E+01 -0.13972804701E+02  0.17728801724E+02  0.00000000000E+00 0.  1.
<mgrwt>
<rscale>  0 0.79613475E+02</rscale>
<asrwt>0</asrwt>
<pdfrwt beam="1">  1        1 0.42746749E-02 0.79613475E+02</pdfrwt>
<pdfrwt beam="2">  1       -2 0.87737118E-02 0.79613475E+02</pdfrwt>
<totfact> 0.12097323E+05</totfact>
</mgrwt>
</event>
<event>
 8    1  0.1241100E-020  0.7942753E+02  0.7818608E-02  0.1330684E+00
         -2   -1    0    0    0  501 -0.00000000000E+00  0.00000000000E+00  0.74329170883E+03  0.74329170884E+03  0.25500000000E-02 0.  1.
          1   -1    0    0  501    0  0.00000000000E+00 -0.00000000000E+00 -0.21218868624E+01  0.21218928480E+01  0.50400000000E-02 0. -1.
        -24    2    1    2    0    0 -0.11102230246E-15  0.00000000000E+00  0.74116982197E+03  0.74541360168E+03  0.79427530350E+02 0.  0.
         66    2    3    3    0    0 -0.85013173840E+00 -0.29642752988E+02  0.61836573481E+03  0.61907963746E+03  0.20000014252E+01 0.  0.
         13    1    3    3    0    0  0.85013173840E+00  0.29642752988E+02  0.12280408716E+03  0.12633396422E+03  0.10566000000E+00 0. -1.
         13    1    4    4    0    0  0.11167911320E+00 -0.48112488922E+00  0.81882519413E+01  0.82038154095E+01  0.10566000000E+00 0.  1.
        -13    1    4    4    0    0 -0.28736892422E+00 -0.20652214374E+02  0.43914205143E+03  0.43962751170E+03  0.10566000000E+00 0.  1.
        -14    1    4    4    0    0 -0.67444192738E+00 -0.85094137244E+01  0.17103543144E+03  0.17124831036E+03  0.00000000000E+00 0.  1.
<mgrwt>
<rscale>  0 0.79427530E+02</rscale>
<asrwt>0</asrwt>
<pdfrwt beam="1">  1        1 0.32644453E-03 0.79427530E+02</pdfrwt>
<pdfrwt beam="2">  1       -2 0.11435259E+00 0.79427530E+02</pdfrwt>
<totfact> 0.36408286E+04</totfact>
</mgrwt>
</event>
<event>
 8    1  0.1241100E-020  0.8050152E+02  0.7818608E-02  0.1327634E+00
         -2   -1    0    0    0  501 -0.00000000000E+00  0.00000000000E+00  0.49896456612E+01  0.49896463128E+01  0.25500000000E-02 0.  1.
          1   -1    0    0  501    0  0.00000000000E+00 -0.00000000000E+00 -0.32469708936E+03  0.32469708940E+03  0.50400000000E-02 0. -1.
        -24    2    1    2    0    0  0.00000000000E+00  0.00000000000E+00 -0.31970744370E+03  0.32968673571E+03  0.80501516433E+02 0.  0.
         66    2    3    3    0    0 -0.24842883730E+02  0.41152749683E+01 -0.28842104141E+03  0.28952513101E+03  0.19999993527E+01 0.  0.
         13    1    3    3    0    0  0.24842883730E+02 -0.41152749683E+01 -0.31286402286E+02  0.40161604701E+02  0.10566000000E+00 0. -1.
         13    1    4    4    0    0 -0.16334466219E+02  0.30800130177E+01 -0.19303421476E+03  0.19374860128E+03  0.10566000000E+00 0. -1.
        -13    1    4    4    0    0 -0.82784176029E+01  0.11124476223E+01 -0.90855490112E+02  0.91238703329E+02  0.10566000000E+00 0.  1.
         14    1    4    4    0    0 -0.22999990867E+00 -0.77185671691E-01 -0.45313365402E+01  0.45378263989E+01  0.00000000000E+00 0. -1.
<mgrwt>
<rscale>  0 0.80501516E+02</rscale>
<asrwt>0</asrwt>
<pdfrwt beam="1">  1        1 0.49953382E-01 0.80501516E+02</pdfrwt>
<pdfrwt beam="2">  1       -2 0.76763809E-03 0.80501516E+02</pdfrwt>
<totfact> 0.18012753E+05</totfact>
</mgrwt>
</event>
<event>
 8    1  0.1241100E-020  0.7881223E+02  0.7818608E-02  0.1332456E+00
         -2   -1    0    0    0  501 -0.00000000000E+00  0.00000000000E+00  0.23632944439E+02  0.23632944576E+02  0.25500000000E-02 0.  1.
          1   -1    0    0  501    0  0.00000000000E+00 -0.00000000000E+00 -0.65706659911E+02  0.65706660105E+02  0.50400000000E-02 0. -1.
        -24    2    1    2    0    0 -0.11102230246E-15  0.00000000000E+00 -0.42073715472E+02  0.89339604681E+02  0.78812228943E+02 0.  0.
         66    2    3    3    0    0 -0.60411588315E+00  0.11917291998E+02  0.21491950847E+02  0.24663551127E+02  0.19999996024E+01 0.  0.
         13    1    3    3    0    0  0.60411588315E+00 -0.11917291998E+02 -0.63565666320E+02  0.64676053554E+02  0.10566000000E+00 0. -1.
         13    1    4    4    0    0 -0.26338293044E+00  0.39938512141E+00  0.13788952332E+01  0.14633506562E+01  0.10566000000E+00 0. -1.
        -13    1    4    4    0    0 -0.16061136664E-01  0.26296592029E+01  0.54125075558E+01  0.60184522562E+01  0.10566000000E+00 0.  1.
        -14    1    4    4    0    0 -0.32467181605E+00  0.88882476736E+01  0.14700548058E+02  0.17181748215E+02  0.00000000000E+00 0.  1.
<mgrwt>
<rscale>  0 0.78812229E+02</rscale>
<asrwt>0</asrwt>
<pdfrwt beam="1">  1        1 0.10108717E-01 0.78812229E+02</pdfrwt>
<pdfrwt beam="2">  1       -2 0.36358376E-02 0.78812229E+02</pdfrwt>
<totfact> 0.14307829E+05</totfact>
</mgrwt>
</event>
<event>
 8    1  0.1241100E-020  0.7975131E+02  0.7818608E-02  0.1329759E+00
         -2   -1    0    0    0  501 -0.00000000000E+00  0.00000000000E+00  0.19961255436E+03  0.19961255437E+03  0.25500000000E-02 0.  1.
          1   -1    0    0  501    0  0.00000000000E+00 -0.00000000000E+00 -0.79657701790E+01  0.79657717734E+01  0.50400000000E-02 0. -1.
        -24    2    1    2    0    0  0.00000000000E+00  0.00000000000E+00  0.19164678418E+03  0.20757832615E+03  0.79751310962E+02 0.  0.
         66    2    3    3    0    0  0.22164918005E+02  0.10225139677E+01  0.18204170557E+03  0.18339986830E+03  0.19999996864E+01 0.  0.
         13    1    3    3    0    0 -0.22164918005E+02 -0.10225139677E+01  0.96050786071E+01  0.24178457851E+02  0.10566000000E+00 0. -1.
         13    1    4    4    0    0  0.54836481511E+01  0.49151742079E+00  0.39760852262E+02  0.40140360276E+02  0.10566000000E+00 0. -1.
        -13    1    4    4    0    0  0.41096607283E+01  0.52682079610E+00  0.35692783224E+02  0.35932614569E+02  0.10566000000E+00 0.  1.
         14    1    4    4    0    0  0.12571609125E+02  0.41757508255E-02  0.10658807008E+03  0.10732689345E+03  0.00000000000E+00 0. -1.
<mgrwt>
<rscale>  0 0.79751311E+02</rscale>
<asrwt>0</asrwt>
<pdfrwt beam="1">  1        1 0.12255033E-02 0.79751311E+02</pdfrwt>
<pdfrwt beam="2">  1       -2 0.30709622E-01 0.79751311E+02</pdfrwt>
<totfact> 0.85829494E+04</totfact>
</mgrwt>
</event>
<event>
 8    1  0.1290971E-020  0.7138252E+02  0.7818608E-02  0.1355454E+00
          1   -1    0    0  501    0  0.00000000000E+00  0.00000000000E+00  0.14921914953E+02  0.14921915804E+02  0.50400000000E-02 0. -1.
         -2   -1    0    0    0  501 -0.00000000000E+00 -0.00000000000E+00 -0.85368807571E+02  0.85368807609E+02  0.25500000000E-02 0.  1.
        -24    2    1    2    0    0  0.00000000000E+00  0.00000000000E+00 -0.70446892618E+02  0.10029072341E+03  0.71382522533E+02 0.  0.
         66    2    3    3    0    0 -0.11419229992E+02  0.17981344746E+02 -0.75437598236E+02  0.78412746380E+02  0.19999987069E+01 0.  0.
         13    1    3    3    0    0  0.11419229992E+02 -0.17981344746E+02  0.49907056178E+01  0.21877977033E+02  0.10566000000E+00 0. -1.
         13    1    4    4    0    0 -0.71957141919E+00  0.57391051504E+00 -0.34385687537E+01  0.35611901685E+01  0.10566000000E+00 0. -1.
        -13    1    4    4    0    0 -0.80496752516E+01  0.12352360367E+02 -0.53178236536E+02  0.55184364484E+02  0.10566000000E+00 0.  1.
         14    1    4    4    0    0 -0.26499833209E+01  0.50550738633E+01 -0.18820792946E+02  0.19667191728E+02  0.00000000000E+00 0. -1.
<mgrwt>
<rscale>  0 0.71382523E+02</rscale>
<asrwt>0</asrwt>
<pdfrwt beam="1">  1        1 0.22956794E-02 0.71382523E+02</pdfrwt>
<pdfrwt beam="2">  1       -2 0.13133662E-01 0.71382523E+02</pdfrwt>
<totfact> 0.14722080E+05</totfact>
</mgrwt>
</event>
<event>
 8    1  0.1241100E-020  0.7955118E+02  0.7818608E-02  0.1330330E+00
         -2   -1    0    0    0  501 -0.00000000000E+00  0.00000000000E+00  0.48760906397E+03  0.48760906398E+03  0.25500000000E-02 0.  1.
          1   -1    0    0  501    0  0.00000000000E+00 -0.00000000000E+00 -0.32446007612E+01  0.32446046756E+01  0.50400000000E-02 0. -1.
        -24    2    1    2    0    0  0.00000000000E+00  0.00000000000E+00  0.48436446321E+03  0.49085366866E+03  0.79551183586E+02 0.  0.
         66    2    3    3    0    0  0.29735958511E+00  0.33234052018E+02  0.37688423641E+03  0.37835210887E+03  0.19999993831E+01 0.  0.
         13    1    3    3    0    0 -0.29735958511E+00 -0.33234052018E+02  0.10748022681E+03  0.11250155979E+03  0.10566000000E+00 0. -1.
         13    1    4    4    0    0  0.60152222400E-01  0.12555662082E+01  0.18041455083E+02  0.18085500556E+02  0.10566000000E+00 0. -1.
        -13    1    4    4    0    0  0.38701388051E+00  0.15265910640E+02  0.17662565985E+03  0.17728460929E+03  0.10566000000E+00 0.  1.
         14    1    4    4    0    0 -0.14980651781E+00  0.16712575169E+02  0.18221712147E+03  0.18298199903E+03  0.00000000000E+00 0. -1.
<mgrwt>
<rscale>  0 0.79551184E+02</rscale>
<asrwt>0</asrwt>
<pdfrwt beam="1">  1        1 0.49916961E-03 0.79551184E+02</pdfrwt>
<pdfrwt beam="2">  1       -2 0.75016785E-01 0.79551184E+02</pdfrwt>
<totfact> 0.52111154E+04</totfact>
</mgrwt>
</event>
<event>
 8    1  0.1241100E-020  0.7939629E+02  0.7818608E-02  0.1330773E+00
         -2   -1    0    0    0  501 -0.00000000000E+00  0.00000000000E+00  0.15675189490E+02  0.15675189698E+02  0.25500000000E-02 0.  1.
          1   -1    0    0  501    0  0.00000000000E+00 -0.00000000000E+00 -0.10053738726E+03  0.10053738738E+03  0.50400000000E-02 0. -1.
        -24    2    1    2    0    0  0.00000000000E+00  0.22204460493E-15 -0.84862197767E+02  0.11621257708E+03  0.79396287458E+02 0.  0.
         66    2    3    3    0    0 -0.22953262438E+02 -0.10205770009E+01  0.48820108601E+01  0.23573881170E+02  0.20000023598E+01 0.  0.
         13    1    3    3    0    0  0.22953262438E+02  0.10205770009E+01 -0.89744208627E+02  0.92638695911E+02  0.10566000000E+00 0. -1.
         13    1    4    4    0    0 -0.20100153480E+02 -0.10195045245E+01  0.43903574895E+01  0.20599562188E+02  0.10566000000E+00 0. -1.
        -13    1    4    4    0    0 -0.25556169778E+01 -0.19264540291E+00  0.33310647337E+00  0.25865835279E+01  0.10566000000E+00 0.  1.
         14    1    4    4    0    0 -0.29749197994E+00  0.19157292658E+00  0.15854689725E+00  0.38773545486E+00  0.00000000000E+00 0. -1.
<mgrwt>
<rscale>  0 0.79396287E+02</rscale>
<asrwt>0</asrwt>
<pdfrwt beam="1">  1        1 0.15467290E-01 0.79396287E+02</pdfrwt>
<pdfrwt beam="2">  1       -2 0.24115677E-02 0.79396287E+02</pdfrwt>
<totfact> 0.15016480E+05</totfact>
</mgrwt>
</event>
<event>
 8    1  0.1241100E-020  0.8069185E+02  0.7818608E-02  0.1327099E+00
         -2   -1    0    0    0  501 -0.00000000000E+00  0.00000000000E+00  0.10020866864E+02  0.10020867188E+02  0.25500000000E-02 0.  1.
          1   -1    0    0  501    0  0.00000000000E+00 -0.00000000000E+00 -0.16244038688E+03  0.16244038695E+03  0.50400000000E-02 0. -1.
        -24    2    1    2    0    0  0.35527136788E-14  0.35527136788E-14 -0.15241952001E+03  0.17246125414E+03  0.80691846549E+02 0.  0.
         66    2    3    3    0    0  0.18292281292E+02  0.24358840251E+02 -0.19797074464E+02  0.36385228038E+02  0.20000021919E+01 0.  0.
         13    1    3    3    0    0 -0.18292281292E+02 -0.24358840251E+02 -0.13262244555E+03  0.13607602610E+03  0.10566000000E+00 0. -1.
         13    1    4    4    0    0  0.68215400804E+01  0.10338069365E+02 -0.83473087264E+01  0.14936459228E+02  0.10566000000E+00 0. -1.
        -13    1    4    4    0    0  0.10429444108E+02  0.13086875064E+02 -0.10678670328E+02  0.19851568385E+02  0.10566000000E+00 0.  1.
         14    1    4    4    0    0  0.10412971042E+01  0.93389582260E+00 -0.77109541039E+00  0.15972004253E+01  0.00000000000E+00 0. -1.
<mgrwt>
<rscale>  0 0.80691847E+02</rscale>
<asrwt>0</asrwt>
<pdfrwt beam="1">  1        1 0.24990827E-01 0.80691847E+02</pdfrwt>
<pdfrwt beam="2">  1       -2 0.15416720E-02 0.80691847E+02</pdfrwt>
<totfact> 0.15660124E+05</totfact>
</mgrwt>
</event>
<event>
 8    1  0.1241100E-020  0.8260495E+02  0.7818608E-02  0.1321817E+00
          1   -1    0    0  501    0  0.00000000000E+00  0.00000000000E+00  0.10112389780E+02  0.10112391036E+02  0.50400000000E-02 0. -1.
         -2   -1    0    0    0  501 -0.00000000000E+00 -0.00000000000E+00 -0.16869349405E+03  0.16869349407E+03  0.25500000000E-02 0.  1.
        -24    2    1    2    0    0  0.00000000000E+00  0.88817841970E-15 -0.15858110427E+03  0.17880588510E+03  0.82604950922E+02 0.  0.
         66    2    3    3    0    0  0.16540118100E+02 -0.55973542258E+01 -0.16029905466E+03  0.16125970607E+03  0.19999991014E+01 0.  0.
         13    1    3    3    0    0 -0.16540118100E+02  0.55973542258E+01  0.17179503908E+01  0.17546179033E+02  0.10566000000E+00 0. -1.
         13    1    4    4    0    0  0.69468446520E+01 -0.31347612810E+01 -0.68057884300E+02  0.68483371401E+02  0.10566000000E+00 0. -1.
        -13    1    4    4    0    0  0.65541703604E+01 -0.19116094770E+01 -0.59848214545E+02  0.60236461949E+02  0.10566000000E+00 0.  1.
         14    1    4    4    0    0  0.30391030875E+01 -0.55098346781E+00 -0.32392955812E+02  0.32539872719E+02  0.00000000000E+00 0. -1.
<mgrwt>
<rscale>  0 0.82604951E+02</rscale>
<asrwt>0</asrwt>
<pdfrwt beam="1">  1        1 0.15557525E-02 0.82604951E+02</pdfrwt>
<pdfrwt beam="2">  1       -2 0.25952843E-01 0.82604951E+02</pdfrwt>
<totfact> 0.83581109E+04</totfact>
</mgrwt>
</event>
<event>
 8    1  0.1241100E-020  0.8509418E+02  0.7818608E-02  0.1315186E+00
         -2   -1    0    0    0  501 -0.00000000000E+00  0.00000000000E+00  0.51930871174E+01  0.51930877435E+01  0.25500000000E-02 0.  1.
          1   -1    0    0  501    0  0.00000000000E+00 -0.00000000000E+00 -0.34858935258E+03  0.34858935261E+03  0.50400000000E-02 0. -1.
        -24    2    1    2    0    0  0.00000000000E+00  0.00000000000E+00 -0.34339626546E+03  0.35378244036E+03  0.85094182958E+02 0.  0.
         66    2    3    3    0    0 -0.39628218690E+02 -0.26738079960E+01 -0.10864394698E+03  0.11569378636E+03  0.20000053778E+01 0.  0.
         13    1    3    3    0    0  0.39628218690E+02  0.26738079960E+01 -0.23475231848E+03  0.23808865400E+03  0.10566000000E+00 0. -1.
         13    1    4    4    0    0 -0.87075874413E+01 -0.60213992378E-01 -0.22402604755E+02  0.24035672835E+02  0.10566000000E+00 0. -1.
        -13    1    4    4    0    0 -0.12585255603E+02 -0.11205357591E+01 -0.36321094026E+02  0.38456173682E+02  0.10566000000E+00 0.  1.
        -14    1    4    4    0    0 -0.18335375646E+02 -0.14930582445E+01 -0.49920248194E+02  0.53201939840E+02  0.00000000000E+00 0.  1.
<mgrwt>
<rscale>  0 0.85094183E+02</rscale>
<asrwt>0</asrwt>
<pdfrwt beam="1">  1        1 0.53629113E-01 0.85094183E+02</pdfrwt>
<pdfrwt beam="2">  1       -2 0.79893680E-03 0.85094183E+02</pdfrwt>
<totfact> 0.15761025E+05</totfact>
</mgrwt>
</event>
<event>
 8    1  0.1241100E-020  0.7860278E+02  0.7818608E-02  0.1333064E+00
         -2   -1    0    0    0  501 -0.00000000000E+00  0.00000000000E+00  0.32143695957E+03  0.32143695958E+03  0.25500000000E-02 0.  1.
          1   -1    0    0  501    0  0.00000000000E+00 -0.00000000000E+00 -0.48052926510E+01  0.48052952941E+01  0.50400000000E-02 0. -1.
        -24    2    1    2    0    0  0.35527136788E-14  0.00000000000E+00  0.31663166692E+03  0.32624225487E+03  0.78602775838E+02 0.  0.
         66    2    3    3    0    0 -0.30028902326E+02 -0.23593853983E+02  0.19650099747E+03  0.20018752935E+03  0.19999949343E+01 0.  0.
         13    1    3    3    0    0  0.30028902326E+02  0.23593853983E+02  0.12013066945E+03  0.12605472552E+03  0.10566000000E+00 0. -1.
         13    1    4    4    0    0 -0.93250906351E+01 -0.74240049055E+01  0.59075436447E+02  0.60266006336E+02  0.10566000000E+00 0. -1.
        -13    1    4    4    0    0 -0.18214604586E+02 -0.14741010980E+02  0.12132124777E+03  0.12356344746E+03  0.10566000000E+00 0.  1.
        -14    1    4    4    0    0 -0.24892071052E+01 -0.14288380971E+01  0.16104313256E+02  0.16358075553E+02  0.00000000000E+00 0.  1.
<mgrwt>
<rscale>  0 0.78602776E+02</rscale>
<asrwt>0</asrwt>
<pdfrwt beam="1">  1        1 0.73927584E-03 0.78602776E+02</pdfrwt>
<pdfrwt beam="2">  1       -2 0.49451851E-01 0.78602776E+02</pdfrwt>
<totfact> 0.70765551E+04</totfact>
</mgrwt>
</event>
<event>
 8    1  0.1241100E-020  0.7830234E+02  0.7818608E-02  0.1333939E+00
         -2   -1    0    0    0  501 -0.00000000000E+00  0.00000000000E+00  0.65701020858E+02  0.65701020907E+02  0.25500000000E-02 0.  1.
          1   -1    0    0  501    0  0.00000000000E+00 -0.00000000000E+00 -0.23330143864E+02  0.23330144408E+02  0.50400000000E-02 0. -1.
        -24    2    1    2    0    0  0.44408920985E-15  0.35527136788E-14  0.42370876994E+02  0.89031165315E+02  0.78302344666E+02 0.  0.
         66    2    3    3    0    0  0.23770997968E+01  0.31697793367E+02  0.47137403985E+02  0.56888799948E+02  0.19999993414E+01 0.  0.
         13    1    3    3    0    0 -0.23770997968E+01 -0.31697793367E+02 -0.47665269906E+01  0.32142365367E+02  0.10566000000E+00 0. -1.
         13    1    4    4    0    0  0.31360481281E+00  0.11790167977E+02  0.18591635981E+02  0.22017413595E+02  0.10566000000E+00 0. -1.
        -13    1    4    4    0    0  0.18119296893E+01  0.15509471028E+02  0.22670037448E+02  0.27527596021E+02  0.10566000000E+00 0.  1.
        -14    1    4    4    0    0  0.25156529476E+00  0.43981543618E+01  0.58757305550E+01  0.73437903322E+01  0.00000000000E+00 0.  1.
<mgrwt>
<rscale>  0 0.78302345E+02</rscale>
<asrwt>0</asrwt>
<pdfrwt beam="1">  1        1 0.35892530E-02 0.78302345E+02</pdfrwt>
<pdfrwt beam="2">  1       -2 0.10107849E-01 0.78302345E+02</pdfrwt>
<totfact> 0.12286297E+05</totfact>
</mgrwt>
</event>
<event>
 8    1  0.1241100E-020  0.8099562E+02  0.7818608E-02  0.1326250E+00
         -2   -1    0    0    0  501 -0.00000000000E+00  0.00000000000E+00  0.14352955671E+03  0.14352955673E+03  0.25500000000E-02 0.  1.
          1   -1    0    0  501    0  0.00000000000E+00 -0.00000000000E+00 -0.11426722961E+02  0.11426724072E+02  0.50400000000E-02 0. -1.
        -24    2    1    2    0    0  0.00000000000E+00 -0.27755575616E-16  0.13210283374E+03  0.15495628080E+03  0.80995618869E+02 0.  0.
         66    2    3    3    0    0 -0.16118870464E+02  0.15527571046E+00  0.13711601437E+03  0.13807477496E+03  0.19999968096E+01 0.  0.
         13    1    3    3    0    0  0.16118870464E+02 -0.15527571046E+00 -0.50131806238E+01  0.16881505844E+02  0.10566000000E+00 0. -1.
         13    1    4    4    0    0 -0.41047331311E+01  0.69913843162E+00  0.32565585940E+02  0.32830872365E+02  0.10566000000E+00 0. -1.
        -13    1    4    4    0    0 -0.20722426999E+01  0.14074750466E+00  0.20237864728E+02  0.20344442299E+02  0.10566000000E+00 0.  1.
         14    1    4    4    0    0 -0.99418946325E+01 -0.68461022582E+00  0.84312563701E+02  0.84899460292E+02  0.00000000000E+00 0. -1.
<mgrwt>
<rscale>  0 0.80995619E+02</rscale>
<asrwt>0</asrwt>
<pdfrwt beam="1">  1        1 0.17579576E-02 0.80995619E+02</pdfrwt>
<pdfrwt beam="2">  1       -2 0.22081469E-01 0.80995619E+02</pdfrwt>
<totfact> 0.92865057E+04</totfact>
</mgrwt>
</event>
<event>
 8    1  0.1241100E-020  0.8078017E+02  0.7818608E-02  0.1326852E+00
          1   -1    0    0  501    0  0.00000000000E+00  0.00000000000E+00  0.39545125950E+01  0.39545158067E+01  0.50400000000E-02 0. -1.
         -2   -1    0    0    0  501 -0.00000000000E+00 -0.00000000000E+00 -0.41253081030E+03  0.41253081030E+03  0.25500000000E-02 0.  1.
        -24    2    1    2    0    0  0.00000000000E+00  0.00000000000E+00 -0.40857629770E+03  0.41648532611E+03  0.80780169735E+02 0.  0.
         66    2    3    3    0    0 -0.35139245985E+02  0.10480505394E+02 -0.29141398578E+03  0.29371877488E+03  0.20000021638E+01 0.  0.
         13    1    3    3    0    0  0.35139245985E+02 -0.10480505394E+02 -0.11716231192E+03  0.12276655123E+03  0.10566000000E+00 0. -1.
         13    1    4    4    0    0 -0.26868749852E+01  0.46621678499E+00 -0.23356514123E+02  0.23515411357E+02  0.10566000000E+00 0. -1.
        -13    1    4    4    0    0 -0.56349661503E+01  0.21965700923E+01 -0.46254385090E+02  0.46648226845E+02  0.10566000000E+00 0.  1.
         14    1    4    4    0    0 -0.26817404850E+02  0.78177185166E+01 -0.22180308656E+03  0.22355513668E+03  0.00000000000E+00 0. -1.
<mgrwt>
<rscale>  0 0.80780170E+02</rscale>
<asrwt>0</asrwt>
<pdfrwt beam="1">  1        1 0.60838713E-03 0.80780170E+02</pdfrwt>
<pdfrwt beam="2">  1       -2 0.63466245E-01 0.80780170E+02</pdfrwt>
<totfact> 0.56451205E+04</totfact>
</mgrwt>
</event>
<event>
 8    1  0.1241100E-020  0.7983053E+02  0.7818608E-02  0.1329533E+00
          1   -1    0    0  501    0  0.00000000000E+00  0.00000000000E+00  0.42953755964E+01  0.42953785532E+01  0.50400000000E-02 0. -1.
         -2   -1    0    0    0  501 -0.00000000000E+00 -0.00000000000E+00 -0.37091696337E+03  0.37091696338E+03  0.25500000000E-02 0.  1.
        -24    2    1    2    0    0 -0.88817841970E-15  0.00000000000E+00 -0.36662158777E+03  0.37521234193E+03  0.79830526219E+02 0.  0.
         66    2    3    3    0    0  0.48528872584E+01  0.39148297448E+02 -0.15558612257E+03  0.16052159121E+03  0.20000000866E+01 0.  0.
         13    1    3    3    0    0 -0.48528872584E+01 -0.39148297448E+02 -0.21103546520E+03  0.21469075072E+03  0.10566000000E+00 0. -1.
         13    1    4    4    0    0  0.67762916863E+00  0.11532738402E+02 -0.44517184994E+02  0.45991892331E+02  0.10566000000E+00 0. -1.
        -13    1    4    4    0    0  0.65727711819E+00  0.53586811026E+01 -0.20362987368E+02  0.21066796030E+02  0.10566000000E+00 0.  1.
        -14    1    4    4    0    0  0.35179809716E+01  0.22256877944E+02 -0.90705950208E+02  0.93462902849E+02  0.00000000000E+00 0.  1.
<mgrwt>
<rscale>  0 0.79830526E+02</rscale>
<asrwt>0</asrwt>
<pdfrwt beam="1">  1        1 0.66082754E-03 0.79830526E+02</pdfrwt>
<pdfrwt beam="2">  1       -2 0.57064123E-01 0.79830526E+02</pdfrwt>
<totfact> 0.62388310E+04</totfact>
</mgrwt>
</event>
<event>
 8    1  0.1241100E-020  0.7654342E+02  0.7818608E-02  0.1339157E+00
         -2   -1    0    0    0  501 -0.00000000000E+00  0.00000000000E+00  0.83425316466E+01  0.83425320363E+01  0.25500000000E-02 0.  1.
          1   -1    0    0  501    0  0.00000000000E+00 -0.00000000000E+00 -0.17557304059E+03  0.17557304067E+03  0.50400000000E-02 0. -1.
        -24    2    1    2    0    0 -0.17763568394E-14 -0.14210854715E-13 -0.16723050895E+03  0.18391557270E+03  0.76543417481E+02 0.  0.
         66    2    3    3    0    0  0.15237542343E+02  0.34048046400E+02 -0.63388174086E+02  0.73576577629E+02  0.20000003361E+01 0.  0.
         13    1    3    3    0    0 -0.15237542343E+02 -0.34048046400E+02 -0.10384233486E+03  0.11033899507E+03  0.10566000000E+00 0. -1.
         13    1    4    4    0    0  0.44145568085E+00  0.14595759874E+01 -0.26510127485E+01  0.30601107512E+01  0.10566000000E+00 0. -1.
        -13    1    4    4    0    0  0.52806470130E+01  0.12469268046E+02 -0.24370119438E+02  0.27879773384E+02  0.10566000000E+00 0.  1.
         14    1    4    4    0    0  0.95154396487E+01  0.20119202367E+02 -0.36367041899E+02  0.42636693494E+02  0.00000000000E+00 0. -1.
<mgrwt>
<rscale>  0 0.76543417E+02</rscale>
<asrwt>0</asrwt>
<pdfrwt beam="1">  1        1 0.27011234E-01 0.76543417E+02</pdfrwt>
<pdfrwt beam="2">  1       -2 0.12834666E-02 0.76543417E+02</pdfrwt>
<totfact> 0.18284478E+05</totfact>
</mgrwt>
</event>
<event>
 8    1  0.1241100E-020  0.8033384E+02  0.7818608E-02  0.1328107E+00
         -2   -1    0    0    0  501 -0.00000000000E+00  0.00000000000E+00  0.16791289146E+02  0.16791289340E+02  0.25500000000E-02 0.  1.
          1   -1    0    0  501    0  0.00000000000E+00 -0.00000000000E+00 -0.96084429242E+02  0.96084429374E+02  0.50400000000E-02 0. -1.
        -24    2    1    2    0    0 -0.35527136788E-14  0.00000000000E+00 -0.79293140096E+02  0.11287571871E+03  0.80333839749E+02 0.  0.
         66    2    3    3    0    0 -0.22246597816E+02  0.21912131526E+02 -0.42272071993E+01  0.31574070095E+02  0.19999998183E+01 0.  0.
         13    1    3    3    0    0  0.22246597816E+02 -0.21912131526E+02 -0.75065932896E+02  0.81301648618E+02  0.10566000000E+00 0. -1.
         13    1    4    4    0    0 -0.51900056175E+01  0.53315595314E+01 -0.17975881942E+01  0.76553362237E+01  0.10566000000E+00 0. -1.
        -13    1    4    4    0    0 -0.73437340272E+01  0.68078108869E+01 -0.86378976723E+00  0.10051567805E+02  0.10566000000E+00 0.  1.
         14    1    4    4    0    0 -0.97128581718E+01  0.97727611074E+01 -0.15658292378E+01  0.13867166067E+02  0.00000000000E+00 0. -1.
<mgrwt>
<rscale>  0 0.80333840E+02</rscale>
<asrwt>0</asrwt>
<pdfrwt beam="1">  1        1 0.14782220E-01 0.80333840E+02</pdfrwt>
<pdfrwt beam="2">  1       -2 0.25832753E-02 0.80333840E+02</pdfrwt>
<totfact> 0.14437455E+05</totfact>
</mgrwt>
</event>
<event>
 8    1  0.1364149E-020  0.8259721E+02  0.7818608E-02  0.1321838E+00
          1   -1    0    0  501    0  0.00000000000E+00  0.00000000000E+00  0.42105161589E+03  0.42105161592E+03  0.50400000000E-02 0. -1.
         -2   -1    0    0    0  501 -0.00000000000E+00 -0.00000000000E+00 -0.40507492034E+01  0.40507500060E+01  0.25500000000E-02 0.  1.
        -24    2    1    2    0    0  0.00000000000E+00  0.00000000000E+00  0.41700086668E+03  0.42510236592E+03  0.82597207572E+02 0.  0.
         66    2    3    3    0    0  0.33902601646E+02  0.23480712098E+02  0.19994984292E+03  0.20416823927E+03  0.20000009922E+01 0.  0.
         13    1    3    3    0    0 -0.33902601646E+02 -0.23480712098E+02  0.21705102377E+03  0.22093412666E+03  0.10566000000E+00 0. -1.
         13    1    4    4    0    0  0.51403485908E+01  0.32580305181E+01  0.27809269888E+02  0.28467606191E+02  0.10566000000E+00 0. -1.
        -13    1    4    4    0    0  0.14123244650E+02  0.10267946174E+02  0.82146468415E+02  0.83981844438E+02  0.10566000000E+00 0.  1.
         14    1    4    4    0    0  0.14639008406E+02  0.99547354057E+01  0.89994104613E+02  0.91718788638E+02  0.00000000000E+00 0. -1.
<mgrwt>
<rscale>  0 0.82597208E+02</rscale>
<asrwt>0</asrwt>
<pdfrwt beam="1">  1        1 0.64777136E-01 0.82597208E+02</pdfrwt>
<pdfrwt beam="2">  1       -2 0.62319260E-03 0.82597208E+02</pdfrwt>
<totfact> 0.17606665E+05</totfact>
</mgrwt>
</event>
<event>
 8    1  0.1241100E-020  0.7916181E+02  0.7818608E-02  0.1331447E+00
          1   -1    0    0  501    0  0.00000000000E+00  0.00000000000E+00  0.18975729215E+03  0.18975729221E+03  0.50400000000E-02 0. -1.
         -2   -1    0    0    0  501 -0.00000000000E+00 -0.00000000000E+00 -0.82560628181E+01  0.82560632119E+01  0.25500000000E-02 0.  1.
        -24    2    1    2    0    0  0.35527136788E-14  0.71054273576E-14  0.18150122933E+03  0.19801335543E+03  0.79161813263E+02 0.  0.
         66    2    3    3    0    0 -0.22766589334E+02 -0.32343699967E+02  0.91956579020E+02  0.10012215010E+03  0.19999994533E+01 0.  0.
         13    1    3    3    0    0  0.22766589334E+02  0.32343699967E+02  0.89544650308E+02  0.97891205327E+02  0.10566000000E+00 0. -1.
         13    1    4    4    0    0 -0.45108553641E+01 -0.74058940128E+01  0.20229483605E+02  0.22009958047E+02  0.10566000000E+00 0. -1.
        -13    1    4    4    0    0 -0.49536608860E+01 -0.76406877521E+01  0.21701457328E+02  0.23534724976E+02  0.10566000000E+00 0.  1.
        -14    1    4    4    0    0 -0.13302073084E+02 -0.17297118202E+02  0.50025638087E+02  0.54577467076E+02  0.00000000000E+00 0.  1.
<mgrwt>
<rscale>  0 0.79161813E+02</rscale>
<asrwt>0</asrwt>
<pdfrwt beam="1">  1        1 0.29193427E-01 0.79161813E+02</pdfrwt>
<pdfrwt beam="2">  1       -2 0.12701637E-02 0.79161813E+02</pdfrwt>
<totfact> 0.16973409E+05</totfact>
</mgrwt>
</event>
<event>
 8    1  0.1241100E-020  0.7852535E+02  0.7818608E-02  0.1333289E+00
          1   -1    0    0  501    0  0.00000000000E+00  0.00000000000E+00  0.81929769912E+01  0.81929785414E+01  0.50400000000E-02 0. -1.
         -2   -1    0    0    0  501 -0.00000000000E+00 -0.00000000000E+00 -0.18815598886E+03  0.18815598888E+03  0.25500000000E-02 0.  1.
        -24    2    1    2    0    0  0.00000000000E+00  0.00000000000E+00 -0.17996301187E+03  0.19634896742E+03  0.78525354921E+02 0.  0.
         66    2    3    3    0    0 -0.21244615778E+01  0.34322410619E+02 -0.13728515785E+03  0.14154065057E+03  0.19999978639E+01 0.  0.
         13    1    3    3    0    0  0.21244615778E+01 -0.34322410619E+02 -0.42677854020E+02  0.54808316846E+02  0.10566000000E+00 0. -1.
         13    1    4    4    0    0 -0.21021582030E+00  0.30441847513E+01 -0.12332844976E+02  0.12705175352E+02  0.10566000000E+00 0.  1.
        -13    1    4    4    0    0 -0.15758017747E+01  0.20320659016E+02 -0.84587383350E+02  0.87008326728E+02  0.10566000000E+00 0.  1.
        -14    1    4    4    0    0 -0.33844398278E+00  0.10957566851E+02 -0.40364929523E+02  0.41827148493E+02  0.00000000000E+00 0.  1.
<mgrwt>
<rscale>  0 0.78525355E+02</rscale>
<asrwt>0</asrwt>
<pdfrwt beam="1">  1        1 0.12604583E-02 0.78525355E+02</pdfrwt>
<pdfrwt beam="2">  1       -2 0.28947072E-01 0.78525355E+02</pdfrwt>
<totfact> 0.91442801E+04</totfact>
</mgrwt>
</event>
<event>
 8    1  0.1241100E-020  0.7966457E+02  0.7818608E-02  0.1330006E+00
         -2   -1    0    0    0  501 -0.00000000000E+00  0.00000000000E+00  0.32336457376E+02  0.32336457477E+02  0.25500000000E-02 0.  1.
          1   -1    0    0  501    0  0.00000000000E+00 -0.00000000000E+00 -0.49065700622E+02  0.49065700880E+02  0.50400000000E-02 0. -1.
        -24    2    1    2    0    0  0.00000000000E+00 -0.35527136788E-14 -0.16729243245E+02  0.81402158357E+02  0.79664570580E+02 0.  0.
         66    2    3    3    0    0 -0.19059585321E+02  0.18187874113E+02  0.22122919268E+02  0.34459978461E+02  0.20000003174E+01 0.  0.
         13    1    3    3    0    0  0.19059585321E+02 -0.18187874113E+02 -0.38852162514E+02  0.46942179896E+02  0.10566000000E+00 0. -1.
         13    1    4    4    0    0 -0.17724156930E+01  0.16399719067E+01  0.19739244751E+01  0.31206581217E+01  0.10566000000E+00 0. -1.
        -13    1    4    4    0    0 -0.10593062261E+02  0.11338960362E+02  0.13299205178E+02  0.20436854272E+02  0.10566000000E+00 0.  1.
         14    1    4    4    0    0 -0.66941073670E+01  0.52089418443E+01  0.68497896151E+01  0.10902466067E+02  0.00000000000E+00 0. -1.
<mgrwt>
<rscale>  0 0.79664571E+02</rscale>
<asrwt>0</asrwt>
<pdfrwt beam="1">  1        1 0.75485693E-02 0.79664571E+02</pdfrwt>
<pdfrwt beam="2">  1       -2 0.49748396E-02 0.79664571E+02</pdfrwt>
<totfact> 0.13272430E+05</totfact>
</mgrwt>
</event>
<event>
 8    1  0.1241100E-020  0.8124361E+02  0.7818608E-02  0.1325559E+00
          1   -1    0    0  501    0  0.00000000000E+00  0.00000000000E+00  0.21821832641E+02  0.21821833223E+02  0.50400000000E-02 0. -1.
         -2   -1    0    0    0  501 -0.00000000000E+00 -0.00000000000E+00 -0.75618345876E+02  0.75618345919E+02  0.25500000000E-02 0.  1.
        -24    2    1    2    0    0  0.35527136788E-14  0.00000000000E+00 -0.53796513234E+02  0.97440179142E+02  0.81243606980E+02 0.  0.
         66    2    3    3    0    0  0.21931109783E+02  0.32726441263E+02 -0.15155150287E+02  0.42257214121E+02  0.20000077351E+01 0.  0.
         13    1    3    3    0    0 -0.21931109783E+02 -0.32726441263E+02 -0.38641362947E+02  0.55182965021E+02  0.10566000000E+00 0. -1.
         13    1    4    4    0    0  0.68569172580E+01  0.10470024242E+02 -0.39663445969E+01  0.13129424032E+02  0.10566000000E+00 0. -1.
        -13    1    4    4    0    0  0.18724475083E+01  0.23471636143E+01 -0.12772345083E+01  0.32646177001E+01  0.10566000000E+00 0. -1.
        -14    1    4    4    0    0  0.13201745017E+02  0.19909253408E+02 -0.99115711817E+01  0.25863172389E+02  0.00000000000E+00 0.  1.
<mgrwt>
<rscale>  0 0.81243607E+02</rscale>
<asrwt>0</asrwt>
<pdfrwt beam="1">  1        1 0.33572051E-02 0.81243607E+02</pdfrwt>
<pdfrwt beam="2">  1       -2 0.11633592E-01 0.81243607E+02</pdfrwt>
<totfact> 0.10875151E+05</totfact>
</mgrwt>
</event>
<event>
 8    1  0.1241100E-020  0.8064917E+02  0.7818608E-02  0.1327219E+00
         -2   -1    0    0    0  501 -0.00000000000E+00  0.00000000000E+00  0.47127810485E+02  0.47127810554E+02  0.25500000000E-02 0.  1.
          1   -1    0    0  501    0  0.00000000000E+00 -0.00000000000E+00 -0.34503450345E+02  0.34503450713E+02  0.50400000000E-02 0. -1.
        -24    2    1    2    0    0  0.00000000000E+00 -0.88817841970E-15  0.12624360140E+02  0.81631261267E+02  0.80649168297E+02 0.  0.
         66    2    3    3    0    0 -0.15967195334E+02  0.23594096013E+01  0.43691979076E+02  0.46620887791E+02  0.20000005973E+01 0.  0.
         13    1    3    3    0    0  0.15967195334E+02 -0.23594096013E+01 -0.31067618936E+02  0.35010373475E+02  0.10566000000E+00 0. -1.
         13    1    4    4    0    0 -0.19604675615E+01 -0.19708321179E+00  0.59521478009E+01  0.62706859538E+01  0.10566000000E+00 0. -1.
        -13    1    4    4    0    0 -0.61212427080E+01  0.15944118109E+01  0.17363642313E+02  0.18480232675E+02  0.10566000000E+00 0.  1.
         14    1    4    4    0    0 -0.78854850644E+01  0.96208100223E+00  0.20376188962E+02  0.21869969163E+02  0.00000000000E+00 0. -1.
<mgrwt>
<rscale>  0 0.80649168E+02</rscale>
<asrwt>0</asrwt>
<pdfrwt beam="1">  1        1 0.53082232E-02 0.80649168E+02</pdfrwt>
<pdfrwt beam="2">  1       -2 0.72504324E-02 0.80649168E+02</pdfrwt>
<totfact> 0.12108749E+05</totfact>
</mgrwt>
</event>
<event>
 8    1  0.1241100E-020  0.7893054E+02  0.7818608E-02  0.1332114E+00
         -2   -1    0    0    0  501 -0.00000000000E+00  0.00000000000E+00  0.47057597974E+01  0.47057604883E+01  0.25500000000E-02 0.  1.
          1   -1    0    0  501    0  0.00000000000E+00 -0.00000000000E+00 -0.33097898606E+03  0.33097898610E+03  0.50400000000E-02 0. -1.
        -24    2    1    2    0    0 -0.35527136788E-14  0.00000000000E+00 -0.32627322626E+03  0.33568474659E+03  0.78930544881E+02 0.  0.
         66    2    3    3    0    0 -0.18097917571E+02  0.34905840237E+02 -0.15009792302E+03  0.15517518745E+03  0.20000005643E+01 0.  0.
         13    1    3    3    0    0  0.18097917571E+02 -0.34905840237E+02 -0.17617530324E+03  0.18050955914E+03  0.10566000000E+00 0. -1.
         13    1    4    4    0    0 -0.10087449650E+02  0.17413097122E+02 -0.75845154270E+02  0.78469555766E+02  0.10566000000E+00 0. -1.
        -13    1    4    4    0    0 -0.49262367127E+01  0.11120762371E+02 -0.46984184263E+02  0.48533121667E+02  0.10566000000E+00 0.  1.
        -14    1    4    4    0    0 -0.30842312087E+01  0.63719807439E+01 -0.27268584491E+02  0.28172510021E+02  0.00000000000E+00 0.  1.
<mgrwt>
<rscale>  0 0.78930545E+02</rscale>
<asrwt>0</asrwt>
<pdfrwt beam="1">  1        1 0.50919826E-01 0.78930545E+02</pdfrwt>
<pdfrwt beam="2">  1       -2 0.72396336E-03 0.78930545E+02</pdfrwt>
<totfact> 0.19038837E+05</totfact>
</mgrwt>
</event>
<event>
 8    1  0.1241100E-020  0.8114514E+02  0.7818608E-02  0.1325833E+00
          1   -1    0    0  501    0  0.00000000000E+00  0.00000000000E+00  0.13771031050E+03  0.13771031059E+03  0.50400000000E-02 0. -1.
         -2   -1    0    0    0  501 -0.00000000000E+00 -0.00000000000E+00 -0.11953596033E+02  0.11953596305E+02  0.25500000000E-02 0.  1.
        -24    2    1    2    0    0 -0.35527136788E-14  0.00000000000E+00  0.12575671446E+03  0.14966390689E+03  0.81145140297E+02 0.  0.
         66    2    3    3    0    0 -0.13158358476E+02 -0.38241982633E+02  0.57527511886E+02  0.70349173823E+02  0.20000001019E+01 0.  0.
         13    1    3    3    0    0  0.13158358476E+02  0.38241982633E+02  0.68229202578E+02  0.79314733070E+02  0.10566000000E+00 0. -1.
         13    1    4    4    0    0 -0.28895113040E+01 -0.82038562703E+01  0.12490161749E+02  0.15220638549E+02  0.10566000000E+00 0. -1.
        -13    1    4    4    0    0 -0.60364077156E+01 -0.17438786026E+02  0.24684852119E+02  0.30820489359E+02  0.10566000000E+00 0.  1.
         14    1    4    4    0    0 -0.42324394562E+01 -0.12599340336E+02  0.20352498018E+02  0.24308045915E+02  0.00000000000E+00 0. -1.
<mgrwt>
<rscale>  0 0.81145140E+02</rscale>
<asrwt>0</asrwt>
<pdfrwt beam="1">  1        1 0.21186202E-01 0.81145140E+02</pdfrwt>
<pdfrwt beam="2">  1       -2 0.18390147E-02 0.81145140E+02</pdfrwt>
<totfact> 0.14962597E+05</totfact>
</mgrwt>
</event>
<event>
 8    1  0.1241100E-020  0.8031743E+02  0.7818608E-02  0.1328153E+00
          1   -1    0    0  501    0  0.00000000000E+00  0.00000000000E+00  0.71872697918E+01  0.71872715589E+01  0.50400000000E-02 0. -1.
         -2   -1    0    0    0  501 -0.00000000000E+00 -0.00000000000E+00 -0.22438590041E+03  0.22438590043E+03  0.25500000000E-02 0.  1.
        -24    2    1    2    0    0  0.00000000000E+00  0.00000000000E+00 -0.21719863062E+03  0.23157317199E+03  0.80317425507E+02 0.  0.
         66    2    3    3    0    0  0.35925046248E+01  0.24683507901E+02 -0.19931788827E+03  0.20088255839E+03  0.20000075797E+01 0.  0.
         13    1    3    3    0    0 -0.35925046248E+01 -0.24683507901E+02 -0.17880742356E+02  0.30690613598E+02  0.10566000000E+00 0. -1.
         13    1    4    4    0    0  0.10067401157E+01  0.56864853089E+01 -0.51394883143E+02  0.51718418558E+02  0.10566000000E+00 0. -1.
        -13    1    4    4    0    0  0.18480190492E+01  0.10237250850E+02 -0.78000192916E+02  0.78690899972E+02  0.10566000000E+00 0.  1.
        -14    1    4    4    0    0  0.73774545989E+00  0.87597717425E+01 -0.69922812207E+02  0.70473239859E+02  0.00000000000E+00 0.  1.
<mgrwt>
<rscale>  0 0.80317426E+02</rscale>
<asrwt>0</asrwt>
<pdfrwt beam="1">  1        1 0.11057341E-02 0.80317426E+02</pdfrwt>
<pdfrwt beam="2">  1       -2 0.34520902E-01 0.80317426E+02</pdfrwt>
<totfact> 0.80210230E+04</totfact>
</mgrwt>
</event>
<event>
 8    1  0.1241100E-020  0.8354231E+02  0.7818608E-02  0.1319289E+00
          1   -1    0    0  501    0  0.00000000000E+00  0.00000000000E+00  0.10321988003E+02  0.10321989234E+02  0.50400000000E-02 0. -1.
         -2   -1    0    0    0  501 -0.00000000000E+00 -0.00000000000E+00 -0.16904003754E+03  0.16904003756E+03  0.25500000000E-02 0.  1.
        -24    2    1    2    0    0  0.00000000000E+00  0.00000000000E+00 -0.15871804954E+03  0.17936202680E+03  0.83542309081E+02 0.  0.
         66    2    3    3    0    0 -0.40392575915E+02 -0.69552797436E+01 -0.96430227183E+02  0.10479849628E+03  0.20000005251E+01 0.  0.
         13    1    3    3    0    0  0.40392575915E+02  0.69552797436E+01 -0.62287822357E+02  0.74563530518E+02  0.10566000000E+00 0. -1.
         13    1    4    4    0    0 -0.77439792938E+00 -0.80562871311E-01 -0.19995448294E+01  0.21483775482E+01  0.10566000000E+00 0.  1.
        -13    1    4    4    0    0 -0.15898280276E+02 -0.33917109797E+01 -0.39640024194E+02  0.42843922570E+02  0.10566000000E+00 0.  1.
        -14    1    4    4    0    0 -0.23719897710E+02 -0.34830058926E+01 -0.54790658160E+02  0.59806196159E+02  0.00000000000E+00 0.  1.
<mgrwt>
<rscale>  0 0.83542309E+02</rscale>
<asrwt>0</asrwt>
<pdfrwt beam="1">  1        1 0.15879984E-02 0.83542309E+02</pdfrwt>
<pdfrwt beam="2">  1       -2 0.26006158E-01 0.83542309E+02</pdfrwt>
<totfact> 0.81121511E+04</totfact>
</mgrwt>
</event>
<event>
 8    1  0.1241100E-020  0.7978841E+02  0.7818608E-02  0.1329653E+00
         -2   -1    0    0    0  501 -0.00000000000E+00  0.00000000000E+00  0.66251916675E+03  0.66251916675E+03  0.25500000000E-02 0.  1.
          1   -1    0    0  501    0  0.00000000000E+00 -0.00000000000E+00 -0.24022640843E+01  0.24022693713E+01  0.50400000000E-02 0. -1.
        -24    2    1    2    0    0  0.00000000000E+00  0.00000000000E+00  0.66011690266E+03  0.66492143612E+03  0.79788414167E+02 0.  0.
         66    2    3    3    0    0  0.35817276019E+02 -0.85203892734E+01  0.45776284969E+03  0.45924536018E+03  0.20000001189E+01 0.  0.
         13    1    3    3    0    0 -0.35817276019E+02  0.85203892734E+01  0.20235405298E+03  0.20567607594E+03  0.10566000000E+00 0. -1.
         13    1    4    4    0    0  0.74009511341E+01 -0.20629582548E+01  0.96888879356E+02  0.97193086078E+02  0.10566000000E+00 0. -1.
        -13    1    4    4    0    0  0.18324588399E+02 -0.36418648478E+01  0.23840658816E+03  0.23913754653E+03  0.10566000000E+00 0.  1.
        -14    1    4    4    0    0  0.10091736486E+02 -0.28155661708E+01  0.12246738217E+03  0.12291472757E+03  0.00000000000E+00 0.  1.
<mgrwt>
<rscale>  0 0.79788414E+02</rscale>
<asrwt>0</asrwt>
<pdfrwt beam="1">  1        1 0.36957924E-03 0.79788414E+02</pdfrwt>
<pdfrwt beam="2">  1       -2 0.10192610E+00 0.79788414E+02</pdfrwt>
<totfact> 0.40097829E+04</totfact>
</mgrwt>
</event>
<event>
 8    1  0.1241100E-020  0.8021611E+02  0.7818608E-02  0.1328439E+00
          1   -1    0    0  501    0  0.00000000000E+00  0.00000000000E+00  0.13359310703E+02  0.13359311654E+02  0.50400000000E-02 0. -1.
         -2   -1    0    0    0  501 -0.00000000000E+00 -0.00000000000E+00 -0.12041459590E+03  0.12041459593E+03  0.25500000000E-02 0.  1.
        -24    2    1    2    0    0 -0.88817841970E-15  0.00000000000E+00 -0.10705528520E+03  0.13377390758E+03  0.80216109734E+02 0.  0.
         66    2    3    3    0    0 -0.65986525090E+01  0.36391053388E+02 -0.79331576273E+02  0.87551984404E+02  0.19999993955E+01 0.  0.
         13    1    3    3    0    0  0.65986525090E+01 -0.36391053388E+02 -0.27723708925E+02  0.46221923177E+02  0.10566000000E+00 0. -1.
         13    1    4    4    0    0 -0.14994628147E+01  0.12767928127E+02 -0.27058779048E+02  0.29957587770E+02  0.10566000000E+00 0. -1.
        -13    1    4    4    0    0 -0.13435244462E+01  0.64109243839E+01 -0.13383763410E+02  0.14901050179E+02  0.10566000000E+00 0.  1.
        -14    1    4    4    0    0 -0.37556652481E+01  0.17212200877E+02 -0.38889033815E+02  0.42693346456E+02  0.00000000000E+00 0.  1.
<mgrwt>
<rscale>  0 0.80216110E+02</rscale>
<asrwt>0</asrwt>
<pdfrwt beam="1">  1        1 0.20552787E-02 0.80216110E+02</pdfrwt>
<pdfrwt beam="2">  1       -2 0.18525322E-01 0.80216110E+02</pdfrwt>
<totfact> 0.10035016E+05</totfact>
</mgrwt>
</event>
<event>
 8    1  0.1241100E-020  0.7963299E+02  0.7818608E-02  0.1330096E+00
         -2   -1    0    0    0  501 -0.00000000000E+00  0.00000000000E+00  0.10721080273E+03  0.10721080276E+03  0.25500000000E-02 0.  1.
          1   -1    0    0  501    0  0.00000000000E+00 -0.00000000000E+00 -0.14787252412E+02  0.14787253271E+02  0.50400000000E-02 0. -1.
        -24    2    1    2    0    0  0.00000000000E+00  0.00000000000E+00  0.92423550317E+02  0.12199805603E+03  0.79632989533E+02 0.  0.
         66    2    3    3    0    0  0.33498192300E+02 -0.84090764263E+01  0.76515150515E+02  0.83972672377E+02  0.19999984991E+01 0.  0.
         13    1    3    3    0    0 -0.33498192300E+02  0.84090764263E+01  0.15908399801E+02  0.38025383653E+02  0.10566000000E+00 0. -1.
         13    1    4    4    0    0  0.16400268404E+02 -0.35617485244E+01  0.38560918605E+02  0.42054850660E+02  0.10566000000E+00 0. -1.
        -13    1    4    4    0    0  0.10949091109E+02 -0.32507834003E+01  0.23474756482E+02  0.26106044219E+02  0.10566000000E+00 0.  1.
        -14    1    4    4    0    0  0.61488327862E+01 -0.15965445016E+01  0.14479475429E+02  0.15811777499E+02  0.00000000000E+00 0.  1.
<mgrwt>
<rscale>  0 0.79632990E+02</rscale>
<asrwt>0</asrwt>
<pdfrwt beam="1">  1        1 0.22749620E-02 0.79632990E+02</pdfrwt>
<pdfrwt beam="2">  1       -2 0.16493969E-01 0.79632990E+02</pdfrwt>
<totfact> 0.10550331E+05</totfact>
</mgrwt>
</event>
<event>
 8    1  0.1241100E-020  0.7448928E+02  0.7818608E-02  0.1345460E+00
          1   -1    0    0  501    0  0.00000000000E+00  0.00000000000E+00  0.13492246435E+03  0.13492246445E+03  0.50400000000E-02 0. -1.
         -2   -1    0    0    0  501 -0.00000000000E+00 -0.00000000000E+00 -0.10281186994E+02  0.10281187310E+02  0.25500000000E-02 0.  1.
        -24    2    1    2    0    0  0.00000000000E+00  0.35527136788E-14  0.12464127736E+03  0.14520365176E+03  0.74489277496E+02 0.  0.
         66    2    3    3    0    0  0.17762682063E+02 -0.18690540489E+02  0.10048393399E+02  0.27745619268E+02  0.20000002123E+01 0.  0.
         13    1    3    3    0    0 -0.17762682063E+02  0.18690540489E+02  0.11459288396E+03  0.11745803249E+03  0.10566000000E+00 0. -1.
         13    1    4    4    0    0  0.67737524963E+01 -0.63025075367E+01  0.42643851717E+01  0.10188300597E+02  0.10566000000E+00 0. -1.
        -13    1    4    4    0    0  0.94188286184E+01 -0.10508732576E+02  0.51987456488E+01  0.15039478490E+02  0.10566000000E+00 0.  1.
         14    1    4    4    0    0  0.15701009484E+01 -0.18793003759E+01  0.58526257819E+00  0.25178401809E+01  0.00000000000E+00 0. -1.
<mgrwt>
<rscale>  0 0.74489277E+02</rscale>
<asrwt>0</asrwt>
<pdfrwt beam="1">  1        1 0.20757302E-01 0.74489277E+02</pdfrwt>
<pdfrwt beam="2">  1       -2 0.15817211E-02 0.74489277E+02</pdfrwt>
<totfact> 0.18732795E+05</totfact>
</mgrwt>
</event>
<event>
 8    1  0.1241100E-020  0.8183068E+02  0.7818608E-02  0.1323935E+00
          1   -1    0    0  501    0  0.00000000000E+00  0.00000000000E+00  0.83625384362E+01  0.83625399550E+01  0.50400000000E-02 0. -1.
         -2   -1    0    0    0  501 -0.00000000000E+00 -0.00000000000E+00 -0.20018620671E+03  0.20018620673E+03  0.25500000000E-02 0.  1.
        -24    2    1    2    0    0  0.71054273576E-14  0.00000000000E+00 -0.19182366828E+03  0.20854874669E+03  0.81830679042E+02 0.  0.
         66    2    3    3    0    0 -0.35457456148E+02  0.13445347316E+02 -0.56979516706E+02  0.68473891918E+02  0.19999973510E+01 0.  0.
         13    1    3    3    0    0  0.35457456148E+02 -0.13445347316E+02 -0.13484415157E+03  0.14007485477E+03  0.10566000000E+00 0. -1.
         13    1    4    4    0    0 -0.15690347919E+02  0.55283848664E+01 -0.26075951739E+02  0.30930833810E+02  0.10566000000E+00 0. -1.
        -13    1    4    4    0    0 -0.16257904465E+02  0.63771073194E+01 -0.24675138449E+02  0.30230126974E+02  0.10566000000E+00 0.  1.
        -14    1    4    4    0    0 -0.35092037646E+01  0.15398551298E+01 -0.62284265176E+01  0.73129311338E+01  0.00000000000E+00 0.  1.
<mgrwt>
<rscale>  0 0.81830679E+02</rscale>
<asrwt>0</asrwt>
<pdfrwt beam="1">  1        1 0.12865446E-02 0.81830679E+02</pdfrwt>
<pdfrwt beam="2">  1       -2 0.30797874E-01 0.81830679E+02</pdfrwt>
<totfact> 0.80219353E+04</totfact>
</mgrwt>
</event>
<event>
 8    1  0.1241100E-020  0.8014923E+02  0.7818608E-02  0.1328628E+00
         -2   -1    0    0    0  501 -0.00000000000E+00  0.00000000000E+00  0.14169145669E+02  0.14169145899E+02  0.25500000000E-02 0.  1.
          1   -1    0    0  501    0  0.00000000000E+00 -0.00000000000E+00 -0.11334308899E+03  0.11334308910E+03  0.50400000000E-02 0. -1.
        -24    2    1    2    0    0  0.00000000000E+00  0.00000000000E+00 -0.99173943320E+02  0.12751223500E+03  0.80149229822E+02 0.  0.
         66    2    3    3    0    0  0.25134546830E+02 -0.19077653092E+02 -0.10380398950E+02  0.33278446061E+02  0.19999995049E+01 0.  0.
         13    1    3    3    0    0 -0.25134546830E+02  0.19077653092E+02 -0.88793544370E+02  0.94233788939E+02  0.10566000000E+00 0. -1.
         13    1    4    4    0    0  0.21985496676E+01 -0.13726366151E+01 -0.11261973061E+01  0.28279385294E+01  0.10566000000E+00 0.  1.
        -13    1    4    4    0    0  0.21148702873E+01 -0.17145830399E+01 -0.13014993904E+01  0.30195257958E+01  0.10566000000E+00 0.  1.
        -14    1    4    4    0    0  0.20821126875E+02 -0.15990433437E+02 -0.79527022533E+01  0.27430981736E+02  0.00000000000E+00 0.  1.
<mgrwt>
<rscale>  0 0.80149230E+02</rscale>
<asrwt>0</asrwt>
<pdfrwt beam="1">  1        1 0.17437398E-01 0.80149230E+02</pdfrwt>
<pdfrwt beam="2">  1       -2 0.21798687E-02 0.80149230E+02</pdfrwt>
<totfact> 0.14941295E+05</totfact>
</mgrwt>
</event>
<event>
 8    1  0.1241100E-020  0.7864050E+02  0.7818608E-02  0.1332954E+00
         -2   -1    0    0    0  501 -0.00000000000E+00  0.00000000000E+00  0.17069207197E+03  0.17069207199E+03  0.25500000000E-02 0.  1.
          1   -1    0    0  501    0  0.00000000000E+00 -0.00000000000E+00 -0.90577252000E+01  0.90577266022E+01  0.50400000000E-02 0. -1.
        -24    2    1    2    0    0  0.00000000000E+00  0.00000000000E+00  0.16163434677E+03  0.17974979859E+03  0.78640498712E+02 0.  0.
         66    2    3    3    0    0  0.29000036255E+02 -0.12492351783E+02  0.27410132662E+02  0.41861395261E+02  0.20000211938E+01 0.  0.
         13    1    3    3    0    0 -0.29000036255E+02  0.12492351783E+02  0.13422421410E+03  0.13788840333E+03  0.10566000000E+00 0. -1.
         13    1    4    4    0    0  0.12798641804E+02 -0.46517370373E+01  0.11482008681E+02  0.17812680227E+02  0.10566000000E+00 0. -1.
        -13    1    4    4    0    0  0.60552722887E+01 -0.32580317238E+01  0.57420349078E+01  0.89589743900E+01  0.10566000000E+00 0.  1.
         14    1    4    4    0    0  0.10146122163E+02 -0.45825830224E+01  0.10186089072E+02  0.15089740644E+02  0.00000000000E+00 0. -1.
<mgrwt>
<rscale>  0 0.78640499E+02</rscale>
<asrwt>0</asrwt>
<pdfrwt beam="1">  1        1 0.13934963E-02 0.78640499E+02</pdfrwt>
<pdfrwt beam="2">  1       -2 0.26260318E-01 0.78640499E+02</pdfrwt>
<totfact> 0.94477932E+04</totfact>
</mgrwt>
</event>
<event>
 8    1  0.1241100E-020  0.8012375E+02  0.7818608E-02  0.1328701E+00
          1   -1    0    0  501    0  0.00000000000E+00  0.00000000000E+00  0.68275849597E+02  0.68275849783E+02  0.50400000000E-02 0. -1.
         -2   -1    0    0    0  501 -0.00000000000E+00 -0.00000000000E+00 -0.23506904349E+02  0.23506904488E+02  0.25500000000E-02 0.  1.
        -24    2    1    2    0    0  0.00000000000E+00  0.35527136788E-14  0.44768945247E+02  0.91782754270E+02  0.80123751303E+02 0.  0.
         66    2    3    3    0    0 -0.17380933121E+02 -0.31244695938E+02  0.17594041260E+01  0.35852801187E+02  0.19999974240E+01 0.  0.
         13    1    3    3    0    0  0.17380933121E+02  0.31244695938E+02  0.43009541121E+02  0.55929953083E+02  0.10566000000E+00 0. -1.
         13    1    4    4    0    0 -0.67486196719E+00 -0.84935542792E+00  0.32314188316E+00  0.11368500473E+01  0.10566000000E+00 0. -1.
        -13    1    4    4    0    0 -0.59977383220E+01 -0.10695839216E+02  0.64788617606E+00  0.12280259039E+02  0.10566000000E+00 0.  1.
         14    1    4    4    0    0 -0.10708332831E+02 -0.19699501294E+02  0.78837606681E+00  0.22435692101E+02  0.00000000000E+00 0. -1.
<mgrwt>
<rscale>  0 0.80123751E+02</rscale>
<asrwt>0</asrwt>
<pdfrwt beam="1">  1        1 0.10503977E-01 0.80123751E+02</pdfrwt>
<pdfrwt beam="2">  1       -2 0.36164470E-02 0.80123751E+02</pdfrwt>
<totfact> 0.13757649E+05</totfact>
</mgrwt>
</event>
<event>
 8    1  0.1241100E-020  0.7730732E+02  0.7818608E-02  0.1336871E+00
         -2   -1    0    0    0  501 -0.00000000000E+00  0.00000000000E+00  0.24658879683E+03  0.24658879685E+03  0.25500000000E-02 0.  1.
          1   -1    0    0  501    0  0.00000000000E+00 -0.00000000000E+00 -0.60590959873E+01  0.60590980834E+01  0.50400000000E-02 0. -1.
        -24    2    1    2    0    0 -0.17763568394E-14 -0.35527136788E-14  0.24052970084E+03  0.25264789493E+03  0.77307320633E+02 0.  0.
         66    2    3    3    0    0 -0.82891359287E+01 -0.20932056003E+02  0.22292590771E+03  0.22406878648E+03  0.20000009050E+01 0.  0.
         13    1    3    3    0    0  0.82891359287E+01  0.20932056003E+02  0.17603793136E+02  0.28579108449E+02  0.10566000000E+00 0. -1.
         13    1    4    4    0    0 -0.32826185785E+01 -0.70257931020E+01  0.73190387549E+02  0.73600145021E+02  0.10566000000E+00 0. -1.
        -13    1    4    4    0    0 -0.30380843746E+01 -0.88724286467E+01  0.10088777033E+03  0.10132276799E+03  0.10566000000E+00 0.  1.
        -14    1    4    4    0    0 -0.19684329757E+01 -0.50338342539E+01  0.48847749825E+02  0.49145873465E+02  0.00000000000E+00 0.  1.
<mgrwt>
<rscale>  0 0.77307321E+02</rscale>
<asrwt>0</asrwt>
<pdfrwt beam="1">  1        1 0.93216869E-03 0.77307321E+02</pdfrwt>
<pdfrwt beam="2">  1       -2 0.37936741E-01 0.77307321E+02</pdfrwt>
<totfact> 0.84785674E+04</totfact>
</mgrwt>
</event>
<event>
 8    1  0.1241100E-020  0.8030035E+02  0.7818608E-02  0.1328201E+00
         -2   -1    0    0    0  501 -0.00000000000E+00  0.00000000000E+00  0.14301899746E+02  0.14301899973E+02  0.25500000000E-02 0.  1.
          1   -1    0    0  501    0  0.00000000000E+00 -0.00000000000E+00 -0.11271485287E+03  0.11271485299E+03  0.50400000000E-02 0. -1.
        -24    2    1    2    0    0  0.35527136788E-14 -0.35527136788E-14 -0.98412953127E+02  0.12701675296E+03  0.80300349868E+02 0.  0.
         66    2    3    3    0    0 -0.29288125152E+02  0.22363680268E+02 -0.24121945148E+02  0.44088509876E+02  0.19999988366E+01 0.  0.
         13    1    3    3    0    0  0.29288125152E+02 -0.22363680268E+02 -0.74291007980E+02  0.82928243082E+02  0.10566000000E+00 0. -1.
         13    1    4    4    0    0 -0.87813148451E+01  0.66013943598E+01 -0.64167052775E+01  0.12723017274E+02  0.10566000000E+00 0. -1.
        -13    1    4    4    0    0 -0.89907503601E+01  0.69019510149E+01 -0.70721346869E+01  0.13360268445E+02  0.10566000000E+00 0.  1.
         14    1    4    4    0    0 -0.11516059947E+02  0.88603348931E+01 -0.10633105183E+02  0.18005224157E+02  0.00000000000E+00 0. -1.
<mgrwt>
<rscale>  0 0.80300350E+02</rscale>
<asrwt>0</asrwt>
<pdfrwt beam="1">  1        1 0.17340746E-01 0.80300350E+02</pdfrwt>
<pdfrwt beam="2">  1       -2 0.22002924E-02 0.80300350E+02</pdfrwt>
<totfact> 0.14851385E+05</totfact>
</mgrwt>
</event>
<event>
 8    1  0.1241100E-020  0.8545282E+02  0.7818608E-02  0.1314253E+00
         -2   -1    0    0    0  501 -0.00000000000E+00  0.00000000000E+00  0.10457850528E+02  0.10457850838E+02  0.25500000000E-02 0.  1.
          1   -1    0    0  501    0  0.00000000000E+00 -0.00000000000E+00 -0.17456226088E+03  0.17456226096E+03  0.50400000000E-02 0. -1.
        -24    2    1    2    0    0  0.00000000000E+00  0.00000000000E+00 -0.16410441036E+03  0.18502011180E+03  0.85452818972E+02 0.  0.
         66    2    3    3    0    0  0.20260672543E+02 -0.17846671543E+02 -0.10464732555E+02  0.29026008394E+02  0.19999996974E+01 0.  0.
         13    1    3    3    0    0 -0.20260672543E+02  0.17846671543E+02 -0.15363967780E+03  0.15599410340E+03  0.10566000000E+00 0. -1.
         13    1    4    4    0    0  0.99444863035E+01 -0.95406422120E+01 -0.44996954149E+01  0.14497416477E+02  0.10566000000E+00 0.  1.
        -13    1    4    4    0    0  0.39619465149E+01 -0.32041878326E+01 -0.24205157032E+01  0.56421538581E+01  0.10566000000E+00 0. -1.
        -14    1    4    4    0    0  0.63542397241E+01 -0.51018414983E+01 -0.35445214368E+01  0.88864380582E+01  0.00000000000E+00 0.  1.
<mgrwt>
<rscale>  0 0.85452819E+02</rscale>
<asrwt>0</asrwt>
<pdfrwt beam="1">  1        1 0.26855730E-01 0.85452819E+02</pdfrwt>
<pdfrwt beam="2">  1       -2 0.16089002E-02 0.85452819E+02</pdfrwt>
<totfact> 0.13618379E+05</totfact>
</mgrwt>
</event>
<event>
 8    1  0.1241100E-020  0.7908928E+02  0.7818608E-02  0.1331656E+00
         -2   -1    0    0    0  501 -0.00000000000E+00  0.00000000000E+00  0.53219708600E+02  0.53219708661E+02  0.25500000000E-02 0.  1.
          1   -1    0    0  501    0  0.00000000000E+00 -0.00000000000E+00 -0.29383445954E+02  0.29383446386E+02  0.50400000000E-02 0. -1.
        -24    2    1    2    0    0  0.00000000000E+00  0.17763568394E-14  0.23836262646E+02  0.82603155047E+02  0.79089277445E+02 0.  0.
         66    2    3    3    0    0  0.36645765472E+02  0.11733611824E+02  0.25152131009E+01  0.38612382250E+02  0.19999981576E+01 0.  0.
         13    1    3    3    0    0 -0.36645765472E+02 -0.11733611824E+02  0.21321049545E+02  0.43990772796E+02  0.10566000000E+00 0. -1.
         13    1    4    4    0    0  0.14597680413E+02  0.49947598161E+01  0.49917676786E+00  0.15436976406E+02  0.10566000000E+00 0. -1.
        -13    1    4    4    0    0  0.44607438420E+01  0.18736095878E+01  0.46810153736E+00  0.48619884406E+01  0.10566000000E+00 0.  1.
         14    1    4    4    0    0  0.17587341217E+02  0.48652424197E+01  0.15479347957E+01  0.18313417404E+02  0.00000000000E+00 0. -1.
<mgrwt>
<rscale>  0 0.79089277E+02</rscale>
<asrwt>0</asrwt>
<pdfrwt beam="1">  1        1 0.45205302E-02 0.79089277E+02</pdfrwt>
<pdfrwt beam="2">  1       -2 0.81876475E-02 0.79089277E+02</pdfrwt>
<totfact> 0.12453507E+05</totfact>
</mgrwt>
</event>
<event>
 8    1  0.1241100E-020  0.7978162E+02  0.7818608E-02  0.1329672E+00
         -2   -1    0    0    0  501 -0.00000000000E+00  0.00000000000E+00  0.37524725165E+02  0.37524725252E+02  0.25500000000E-02 0.  1.
          1   -1    0    0  501    0  0.00000000000E+00 -0.00000000000E+00 -0.42406090784E+02  0.42406091084E+02  0.50400000000E-02 0. -1.
        -24    2    1    2    0    0 -0.17763568394E-14  0.44408920985E-15 -0.48813656193E+01  0.79930816336E+02  0.79781624888E+02 0.  0.
         66    2    3    3    0    0  0.15660655170E+02  0.36976315869E+01  0.34099866079E+02  0.37758832882E+02  0.19999985859E+01 0.  0.
         13    1    3    3    0    0 -0.15660655170E+02 -0.36976315869E+01 -0.38981231698E+02  0.42171983454E+02  0.10566000000E+00 0. -1.
         13    1    4    4    0    0  0.10989609387E+02  0.32919860116E+01  0.23318038439E+02  0.25987511752E+02  0.10566000000E+00 0. -1.
        -13    1    4    4    0    0  0.40499818746E+01  0.15563841424E+00  0.92870994341E+01  0.10133506621E+02  0.10566000000E+00 0.  1.
        -14    1    4    4    0    0  0.62106390803E+00  0.25000716109E+00  0.14947282054E+01  0.16378145092E+01  0.00000000000E+00 0.  1.
<mgrwt>
<rscale>  0 0.79781625E+02</rscale>
<asrwt>0</asrwt>
<pdfrwt beam="1">  1        1 0.65240141E-02 0.79781625E+02</pdfrwt>
<pdfrwt beam="2">  1       -2 0.57730346E-02 0.79781625E+02</pdfrwt>
<totfact> 0.12916498E+05</totfact>
</mgrwt>
</event>
<event>
 8    1  0.1241100E-020  0.7917808E+02  0.7818608E-02  0.1331400E+00
          1   -1    0    0  501    0  0.00000000000E+00  0.00000000000E+00  0.86883960880E+02  0.86883961026E+02  0.50400000000E-02 0. -1.
         -2   -1    0    0    0  501 -0.00000000000E+00 -0.00000000000E+00 -0.18038911248E+02  0.18038911428E+02  0.25500000000E-02 0.  1.
        -24    2    1    2    0    0  0.00000000000E+00 -0.35527136788E-14  0.68845049632E+02  0.10492287245E+03  0.79178079701E+02 0.  0.
         66    2    3    3    0    0 -0.69146235065E+01 -0.20848664595E+02 -0.91610455859E+01  0.23883123634E+02  0.20000011670E+01 0.  0.
         13    1    3    3    0    0  0.69146235065E+01  0.20848664595E+02  0.78006095218E+02  0.81039748820E+02  0.10566000000E+00 0. -1.
         13    1    4    4    0    0 -0.32388451633E+01 -0.82916510519E+01 -0.40206258290E+01  0.97682235463E+01  0.10566000000E+00 0. -1.
        -13    1    4    4    0    0 -0.68295190849E+00 -0.10597201508E+01 -0.49072514086E+00  0.13569839007E+01  0.10566000000E+00 0.  1.
         14    1    4    4    0    0 -0.29928264347E+01 -0.11497293392E+02 -0.46496946161E+01  0.12757916187E+02  0.00000000000E+00 0. -1.
<mgrwt>
<rscale>  0 0.79178080E+02</rscale>
<asrwt>0</asrwt>
<pdfrwt beam="1">  1        1 0.13366763E-01 0.79178080E+02</pdfrwt>
<pdfrwt beam="2">  1       -2 0.27752171E-02 0.79178080E+02</pdfrwt>
<totfact> 0.14768580E+05</totfact>
</mgrwt>
</event>
<event>
 8    1  0.1241100E-020  0.8469514E+02  0.7818608E-02  0.1316232E+00
         -2   -1    0    0    0  501 -0.00000000000E+00  0.00000000000E+00  0.11545654871E+03  0.11545654874E+03  0.25500000000E-02 0.  1.
          1   -1    0    0  501    0  0.00000000000E+00 -0.00000000000E+00 -0.15532394391E+02  0.15532395208E+02  0.50400000000E-02 0. -1.
        -24    2    1    2    0    0  0.71054273576E-14  0.00000000000E+00  0.99924154323E+02  0.13098894395E+03  0.84695140474E+02 0.  0.
         66    2    3    3    0    0 -0.36673894613E+02 -0.13494099404E+02  0.75130751504E+02  0.84709474936E+02  0.20000143962E+01 0.  0.
         13    1    3    3    0    0  0.36673894613E+02  0.13494099404E+02  0.24793402819E+02  0.46279469014E+02  0.10566000000E+00 0. -1.
         13    1    4    4    0    0 -0.60327512417E+01 -0.25704786925E+01  0.11900046370E+02  0.13587630990E+02  0.10566000000E+00 0. -1.
        -13    1    4    4    0    0 -0.26424279130E+02 -0.99089941930E+01  0.54529009448E+02  0.61399142738E+02  0.10566000000E+00 0.  1.
        -14    1    4    4    0    0 -0.42168642415E+01 -0.10146265184E+01  0.87016956850E+01  0.97227012089E+01  0.00000000000E+00 0.  1.
<mgrwt>
<rscale>  0 0.84695140E+02</rscale>
<asrwt>0</asrwt>
<pdfrwt beam="1">  1        1 0.23895992E-02 0.84695140E+02</pdfrwt>
<pdfrwt beam="2">  1       -2 0.17762546E-01 0.84695140E+02</pdfrwt>
<totfact> 0.88300012E+04</totfact>
</mgrwt>
</event>
<event>
 8    1  0.1299311E-020  0.7851701E+02  0.7818608E-02  0.1333313E+00
         -2   -1    0    0    0  501 -0.00000000000E+00  0.00000000000E+00  0.12463683688E+02  0.12463683949E+02  0.25500000000E-02 0.  1.
          1   -1    0    0  501    0  0.00000000000E+00 -0.00000000000E+00 -0.12365768579E+03  0.12365768589E+03  0.50400000000E-02 0. -1.
        -24    2    1    2    0    0  0.00000000000E+00  0.35527136788E-14 -0.11119400210E+03  0.13612136984E+03  0.78517012323E+02 0.  0.
         66    2    3    3    0    0  0.19948906373E+02 -0.29628864403E+02 -0.27496615888E+02  0.45120863830E+02  0.19999990528E+01 0.  0.
         13    1    3    3    0    0 -0.19948906373E+02  0.29628864403E+02 -0.83697386213E+02  0.91000506010E+02  0.10566000000E+00 0. -1.
         13    1    4    4    0    0  0.46799012042E+01 -0.66160514488E+01 -0.59698217998E+01  0.10065959885E+02  0.10566000000E+00 0. -1.
        -13    1    4    4    0    0  0.14173907121E+02 -0.21091196696E+02 -0.19240876547E+02  0.31874138662E+02  0.10566000000E+00 0.  1.
         14    1    4    4    0    0  0.10950980480E+01 -0.19216162579E+01 -0.22859175407E+01  0.31807652822E+01  0.00000000000E+00 0. -1.
<mgrwt>
<rscale>  0 0.78517012E+02</rscale>
<asrwt>0</asrwt>
<pdfrwt beam="1">  1        1 0.19024259E-01 0.78517012E+02</pdfrwt>
<pdfrwt beam="2">  1       -2 0.19174899E-02 0.78517012E+02</pdfrwt>
<totfact> 0.16031542E+05</totfact>
</mgrwt>
</event>
<event>
 8    1  0.1241100E-020  0.7900663E+02  0.7818608E-02  0.1331894E+00
         -2   -1    0    0    0  501 -0.00000000000E+00  0.00000000000E+00  0.16626004525E+02  0.16626004721E+02  0.25500000000E-02 0.  1.
          1   -1    0    0  501    0  0.00000000000E+00 -0.00000000000E+00 -0.93859713524E+02  0.93859713659E+02  0.50400000000E-02 0. -1.
        -24    2    1    2    0    0  0.00000000000E+00  0.00000000000E+00 -0.77233708999E+02  0.11048571838E+03  0.79006633646E+02 0.  0.
         66    2    3    3    0    0  0.13204988458E+02 -0.25724992843E+02 -0.10561067545E+01  0.29004522851E+02  0.20000018473E+01 0.  0.
         13    1    3    3    0    0 -0.13204988458E+02  0.25724992843E+02 -0.76177602244E+02  0.81481195528E+02  0.10566000000E+00 0. -1.
         13    1    4    4    0    0  0.12687778361E+01 -0.33027819178E+01  0.30492125721E+00  0.35527885671E+01  0.10566000000E+00 0. -1.
        -13    1    4    4    0    0  0.71398188484E+01 -0.13494179274E+02 -0.41199458026E+00  0.15272550247E+02  0.10566000000E+00 0.  1.
         14    1    4    4    0    0  0.47963917737E+01 -0.89280316514E+01 -0.94903343149E+00  0.10179184037E+02  0.00000000000E+00 0. -1.
<mgrwt>
<rscale>  0 0.79006634E+02</rscale>
<asrwt>0</asrwt>
<pdfrwt beam="1">  1        1 0.14439956E-01 0.79006634E+02</pdfrwt>
<pdfrwt beam="2">  1       -2 0.25578469E-02 0.79006634E+02</pdfrwt>
<totfact> 0.15044467E+05</totfact>
</mgrwt>
</event>
<event>
 8    1  0.1241100E-020  0.8211640E+02  0.7818608E-02  0.1323150E+00
          1   -1    0    0  501    0  0.00000000000E+00  0.00000000000E+00  0.21936957406E+02  0.21936957984E+02  0.50400000000E-02 0. -1.
         -2   -1    0    0    0  501 -0.00000000000E+00 -0.00000000000E+00 -0.76846381813E+02  0.76846381856E+02  0.25500000000E-02 0.  1.
        -24    2    1    2    0    0 -0.17763568394E-14  0.00000000000E+00 -0.54909424408E+02  0.98783339840E+02  0.82116401170E+02 0.  0.
         66    2    3    3    0    0 -0.97154342509E+01 -0.24845131943E+02 -0.64977700207E+02  0.70269280404E+02  0.20000000866E+01 0.  0.
         13    1    3    3    0    0  0.97154342509E+01  0.24845131943E+02  0.10068275799E+02  0.28514059436E+02  0.10566000000E+00 0. -1.
         13    1    4    4    0    0 -0.13929981161E+01 -0.24103608028E+01 -0.72457041504E+01  0.77628394046E+01  0.10566000000E+00 0. -1.
        -13    1    4    4    0    0 -0.15933906525E+01 -0.30944150360E+01 -0.84533836341E+01  0.91424918424E+01  0.10566000000E+00 0.  1.
        -14    1    4    4    0    0 -0.67290454823E+01 -0.19340356104E+02 -0.49278612422E+02  0.53363949157E+02  0.00000000000E+00 0.  1.
<mgrwt>
<rscale>  0 0.82116401E+02</rscale>
<asrwt>0</asrwt>
<pdfrwt beam="1">  1        1 0.33749166E-02 0.82116401E+02</pdfrwt>
<pdfrwt beam="2">  1       -2 0.11822520E-01 0.82116401E+02</pdfrwt>
<totfact> 0.10547176E+05</totfact>
</mgrwt>
</event>
<event>
 8    1  0.1241100E-020  0.7912395E+02  0.7818608E-02  0.1331556E+00
         -2   -1    0    0    0  501 -0.00000000000E+00  0.00000000000E+00  0.43885293054E+02  0.43885293128E+02  0.25500000000E-02 0.  1.
          1   -1    0    0  501    0  0.00000000000E+00 -0.00000000000E+00 -0.35664566872E+02  0.35664567228E+02  0.50400000000E-02 0. -1.
        -24    2    1    2    0    0  0.00000000000E+00  0.55511151231E-16  0.82207261820E+01  0.79549860355E+02  0.79123953033E+02 0.  0.
         66    2    3    3    0    0 -0.39259630531E+02  0.37697856865E+00 -0.56872777312E+00  0.39316461702E+02  0.20000018030E+01 0.  0.
         13    1    3    3    0    0  0.39259630531E+02 -0.37697856865E+00  0.87894539551E+01  0.40233398653E+02  0.10566000000E+00 0. -1.
         13    1    4    4    0    0 -0.54402132378E+01 -0.50879009353E+00 -0.27640464892E-02  0.54649756731E+01  0.10566000000E+00 0. -1.
        -13    1    4    4    0    0 -0.20101767466E+02  0.37385650400E+00  0.14235791215E+00  0.20106025310E+02  0.10566000000E+00 0.  1.
        -14    1    4    4    0    0 -0.13717649827E+02  0.51191215818E+00 -0.70832163879E+00  0.13745460719E+02  0.00000000000E+00 0.  1.
<mgrwt>
<rscale>  0 0.79123953E+02</rscale>
<asrwt>0</asrwt>
<pdfrwt beam="1">  1        1 0.54868565E-02 0.79123953E+02</pdfrwt>
<pdfrwt beam="2">  1       -2 0.67515835E-02 0.79123953E+02</pdfrwt>
<totfact> 0.12854918E+05</totfact>
</mgrwt>
</event>
<event>
 8    1  0.1241100E-020  0.7953718E+02  0.7818608E-02  0.1330370E+00
          1   -1    0    0  501    0  0.00000000000E+00  0.00000000000E+00  0.17476095378E+01  0.17476168053E+01  0.50400000000E-02 0. -1.
         -2   -1    0    0    0  501 -0.00000000000E+00 -0.00000000000E+00 -0.90497186413E+03  0.90497186413E+03  0.25500000000E-02 0.  1.
        -24    2    1    2    0    0 -0.35527136788E-14  0.00000000000E+00 -0.90322425459E+03  0.90671948094E+03  0.79537180177E+02 0.  0.
         66    2    3    3    0    0 -0.27579400837E+02  0.13009944746E+02 -0.74246218060E+03  0.74309082327E+03  0.19999977307E+01 0.  0.
         13    1    3    3    0    0  0.27579400837E+02 -0.13009944746E+02 -0.16076207399E+03  0.16362865767E+03  0.10566000000E+00 0. -1.
         13    1    4    4    0    0 -0.45299191036E+01  0.21090185270E+01 -0.12689210184E+03  0.12699049098E+03  0.10566000000E+00 0. -1.
        -13    1    4    4    0    0 -0.71169616972E+01  0.25221963099E+01 -0.18626812129E+03  0.18642112753E+03  0.10566000000E+00 0.  1.
        -14    1    4    4    0    0 -0.15932520037E+02  0.83787299094E+01 -0.42930195747E+03  0.42967920476E+03  0.00000000000E+00 0.  1.
<mgrwt>
<rscale>  0 0.79537180E+02</rscale>
<asrwt>0</asrwt>
<pdfrwt beam="1">  1        1 0.26886429E-03 0.79537180E+02</pdfrwt>
<pdfrwt beam="2">  1       -2 0.13922607E+00 0.79537180E+02</pdfrwt>
<totfact> 0.29628276E+04</totfact>
</mgrwt>
</event>
<event>
 8    1  0.1241100E-020  0.7857109E+02  0.7818608E-02  0.1333156E+00
         -2   -1    0    0    0  501 -0.00000000000E+00  0.00000000000E+00  0.10696152906E+03  0.10696152909E+03  0.25500000000E-02 0.  1.
          1   -1    0    0  501    0  0.00000000000E+00 -0.00000000000E+00 -0.14429057685E+02  0.14429058565E+02  0.50400000000E-02 0. -1.
        -24    2    1    2    0    0  0.71054273576E-14  0.44408920985E-15  0.92532471372E+02  0.12139058765E+03  0.78571092090E+02 0.  0.
         66    2    3    3    0    0 -0.38241335421E+02 -0.31783751791E+01  0.33476779682E+02  0.50962697661E+02  0.19999928589E+01 0.  0.
         13    1    3    3    0    0  0.38241335421E+02  0.31783751791E+01  0.59055691690E+02  0.70427889991E+02  0.10566000000E+00 0. -1.
         13    1    4    4    0    0 -0.56281116536E+01 -0.81151613008E+00  0.42321040049E+01  0.70891513991E+01  0.10566000000E+00 0. -1.
        -13    1    4    4    0    0 -0.21739374270E+02 -0.14014315182E+01  0.19801457194E+02  0.29439315125E+02  0.10566000000E+00 0.  1.
        -14    1    4    4    0    0 -0.10873849497E+02 -0.96542753081E+00  0.94432184823E+01  0.14434231137E+02  0.00000000000E+00 0.  1.
<mgrwt>
<rscale>  0 0.78571092E+02</rscale>
<asrwt>0</asrwt>
<pdfrwt beam="1">  1        1 0.22198552E-02 0.78571092E+02</pdfrwt>
<pdfrwt beam="2">  1       -2 0.16455620E-01 0.78571092E+02</pdfrwt>
<totfact> 0.10925987E+05</totfact>
</mgrwt>
</event>
<event>
 8    1  0.1241100E-020  0.7872624E+02  0.7818608E-02  0.1332706E+00
          1   -1    0    0  501    0  0.00000000000E+00  0.00000000000E+00  0.16726359811E+03  0.16726359819E+03  0.50400000000E-02 0. -1.
         -2   -1    0    0    0  501 -0.00000000000E+00 -0.00000000000E+00 -0.92635519388E+01  0.92635522898E+01  0.25500000000E-02 0.  1.
        -24    2    1    2    0    0  0.00000000000E+00  0.00000000000E+00  0.15800004617E+03  0.17652715048E+03  0.78726236192E+02 0.  0.
         66    2    3    3    0    0  0.29880633933E+02  0.71933041358E+01  0.23995688192E+02  0.39043424057E+02  0.20000004169E+01 0.  0.
         13    1    3    3    0    0 -0.29880633933E+02 -0.71933041358E+01  0.13400435798E+03  0.13748372642E+03  0.10566000000E+00 0. -1.
         13    1    4    4    0    0  0.87607163485E+01  0.26404686551E+01  0.68905393342E+01  0.11454820907E+02  0.10566000000E+00 0. -1.
        -13    1    4    4    0    0  0.11231701014E+02  0.21399109079E+01  0.82843021854E+01  0.14119885024E+02  0.10566000000E+00 0.  1.
        -14    1    4    4    0    0  0.98882165700E+01  0.24129245728E+01  0.88208466728E+01  0.13468718126E+02  0.00000000000E+00 0.  1.
<mgrwt>
<rscale>  0 0.78726236E+02</rscale>
<asrwt>0</asrwt>
<pdfrwt beam="1">  1        1 0.25732861E-01 0.78726236E+02</pdfrwt>
<pdfrwt beam="2">  1       -2 0.14251619E-02 0.78726236E+02</pdfrwt>
<totfact> 0.16816006E+05</totfact>
</mgrwt>
</event>
<event>
 8    1  0.1241100E-020  0.7522041E+02  0.7818608E-02  0.1343190E+00
          1   -1    0    0  501    0  0.00000000000E+00  0.00000000000E+00  0.62533051389E+00  0.62535082410E+00  0.50400000000E-02 0. -1.
         -2   -1    0    0    0  501 -0.00000000000E+00 -0.00000000000E+00 -0.22620111105E+04  0.22620111105E+04  0.25500000000E-02 0.  1.
        -24    2    1    2    0    0  0.00000000000E+00  0.00000000000E+00 -0.22613857800E+04  0.22626364613E+04  0.75220410770E+02 0.  0.
         66    2    3    3    0    0 -0.47569310522E+01  0.96120556949E+01 -0.22150007146E+04  0.22150275812E+04  0.19999969406E+01 0.  0.
         13    1    3    3    0    0  0.47569310522E+01 -0.96120556949E+01 -0.46385065410E+02  0.47608880105E+02  0.10566000000E+00 0. -1.
         13    1    4    4    0    0 -0.13293426664E+01  0.18510812508E+01 -0.51202221602E+03  0.51202729860E+03  0.10566000000E+00 0. -1.
        -13    1    4    4    0    0 -0.26672103427E+01  0.58241644621E+01 -0.11472423706E+04  0.11472602594E+04  0.10566000000E+00 0.  1.
        -14    1    4    4    0    0 -0.76037804311E+00  0.19368099820E+01 -0.55573612799E+03  0.55574002318E+03  0.00000000000E+00 0.  1.
<mgrwt>
<rscale>  0 0.75220411E+02</rscale>
<asrwt>0</asrwt>
<pdfrwt beam="1">  1        1 0.96208068E-04 0.75220411E+02</pdfrwt>
<pdfrwt beam="2">  1       -2 0.34799516E+00 0.75220411E+02</pdfrwt>
<totfact> 0.66267429E+03</totfact>
</mgrwt>
</event>
<event>
 8    1  0.1241100E-020  0.8028204E+02  0.7818608E-02  0.1328253E+00
          1   -1    0    0  501    0  0.00000000000E+00  0.00000000000E+00  0.10323087497E+03  0.10323087509E+03  0.50400000000E-02 0. -1.
         -2   -1    0    0    0  501 -0.00000000000E+00 -0.00000000000E+00 -0.15608715337E+02  0.15608715546E+02  0.25500000000E-02 0.  1.
        -24    2    1    2    0    0  0.00000000000E+00 -0.35527136788E-14  0.87622159630E+02  0.11883959064E+03  0.80282036872E+02 0.  0.
         66    2    3    3    0    0 -0.29757371813E+02  0.26861090879E+02  0.41604495662E+02  0.57809631259E+02  0.20000066556E+01 0.  0.
         13    1    3    3    0    0  0.29757371813E+02 -0.26861090879E+02  0.46017663967E+02  0.61029959376E+02  0.10566000000E+00 0. -1.
         13    1    4    4    0    0 -0.15505074413E+01  0.14900512339E+01  0.19937880211E+01  0.29343961413E+01  0.10566000000E+00 0. -1.
        -13    1    4    4    0    0 -0.53144626122E+01  0.57064801763E+01  0.81076161697E+01  0.11249534784E+02  0.10566000000E+00 0.  1.
        -14    1    4    4    0    0 -0.22892401759E+02  0.19664559469E+02  0.31503091471E+02  0.43625700334E+02  0.00000000000E+00 0.  1.
<mgrwt>
<rscale>  0 0.80282037E+02</rscale>
<asrwt>0</asrwt>
<pdfrwt beam="1">  1        1 0.15881673E-01 0.80282037E+02</pdfrwt>
<pdfrwt beam="2">  1       -2 0.24013408E-02 0.80282037E+02</pdfrwt>
<totfact> 0.14638430E+05</totfact>
</mgrwt>
</event>
<event>
 8    1  0.1241100E-020  0.7579681E+02  0.7818608E-02  0.1341421E+00
          1   -1    0    0  501    0  0.00000000000E+00  0.00000000000E+00  0.26785565132E+03  0.26785565137E+03  0.50400000000E-02 0. -1.
         -2   -1    0    0    0  501 -0.00000000000E+00 -0.00000000000E+00 -0.53621760513E+01  0.53621766576E+01  0.25500000000E-02 0.  1.
        -24    2    1    2    0    0 -0.35527136788E-14  0.00000000000E+00  0.26249347527E+03  0.27321782803E+03  0.75796813866E+02 0.  0.
         66    2    3    3    0    0  0.20020056711E+02 -0.22841241052E+02  0.21288167120E+03  0.21504681093E+03  0.19999981904E+01 0.  0.
         13    1    3    3    0    0 -0.20020056711E+02  0.22841241052E+02  0.49611804071E+02  0.58171017103E+02  0.10566000000E+00 0. -1.
         13    1    4    4    0    0  0.17773221601E+01 -0.14585681649E+01  0.16659839468E+02  0.16818076891E+02  0.10566000000E+00 0. -1.
        -13    1    4    4    0    0  0.12381858968E+02 -0.15341173146E+02  0.13601024888E+03  0.13743165934E+03  0.10566000000E+00 0.  1.
        -14    1    4    4    0    0  0.58608755827E+01 -0.60414997405E+01  0.60211582852E+02  0.60797074693E+02  0.00000000000E+00 0.  1.
<mgrwt>
<rscale>  0 0.75796814E+02</rscale>
<asrwt>0</asrwt>
<pdfrwt beam="1">  1        1 0.41208561E-01 0.75796814E+02</pdfrwt>
<pdfrwt beam="2">  1       -2 0.82495023E-03 0.75796814E+02</pdfrwt>
<totfact> 0.20347050E+05</totfact>
</mgrwt>
</event>
<event>
 8    1  0.1241100E-020  0.7814852E+02  0.7818608E-02  0.1334389E+00
         -2   -1    0    0    0  501 -0.00000000000E+00  0.00000000000E+00  0.11241574104E+02  0.11241574394E+02  0.25500000000E-02 0.  1.
          1   -1    0    0  501    0  0.00000000000E+00 -0.00000000000E+00 -0.13581707662E+03  0.13581707672E+03  0.50400000000E-02 0. -1.
        -24    2    1    2    0    0  0.00000000000E+00  0.35527136788E-14 -0.12457550252E+03  0.14705865111E+03  0.78148519107E+02 0.  0.
         66    2    3    3    0    0 -0.18681413979E+02 -0.21455199896E+02 -0.11993888871E+02  0.30938232034E+02  0.20000000766E+01 0.  0.
         13    1    3    3    0    0  0.18681413979E+02  0.21455199896E+02 -0.11258161365E+03  0.11612041908E+03  0.10566000000E+00 0. -1.
         13    1    4    4    0    0 -0.38321382138E+01 -0.46732175865E+01 -0.31836657877E+01  0.68316277550E+01  0.10566000000E+00 0. -1.
        -13    1    4    4    0    0 -0.14415366517E+02 -0.15980842785E+02 -0.83421661026E+01  0.23082309834E+02  0.10566000000E+00 0.  1.
        -14    1    4    4    0    0 -0.43390924820E+00 -0.80113952456E+00 -0.46805698054E+00  0.10242944452E+01  0.00000000000E+00 0.  1.
<mgrwt>
<rscale>  0 0.78148519E+02</rscale>
<asrwt>0</asrwt>
<pdfrwt beam="1">  1        1 0.20894934E-01 0.78148519E+02</pdfrwt>
<pdfrwt beam="2">  1       -2 0.17294731E-02 0.78148519E+02</pdfrwt>
<totfact> 0.16506810E+05</totfact>
</mgrwt>
</event>
<event>
 8    1  0.1241100E-020  0.7636442E+02  0.7818608E-02  0.1339697E+00
         -2   -1    0    0    0  501 -0.00000000000E+00  0.00000000000E+00  0.41309786022E+01  0.41309793893E+01  0.25500000000E-02 0.  1.
          1   -1    0    0  501    0  0.00000000000E+00 -0.00000000000E+00 -0.35291422663E+03  0.35291422667E+03  0.50400000000E-02 0. -1.
        -24    2    1    2    0    0  0.00000000000E+00  0.35527136788E-14 -0.34878324803E+03  0.35704520606E+03  0.76364422752E+02 0.  0.
         66    2    3    3    0    0  0.30987940047E+02  0.20864889724E+02 -0.13820980124E+03  0.14318360663E+03  0.19999994869E+01 0.  0.
         13    1    3    3    0    0 -0.30987940047E+02 -0.20864889724E+02 -0.21057344679E+03  0.21386159942E+03  0.10566000000E+00 0. -1.
         13    1    4    4    0    0  0.24427809399E+02  0.17222450381E+02 -0.10892996113E+03  0.11295608998E+03  0.10566000000E+00 0. -1.
        -13    1    4    4    0    0  0.46259763004E+01  0.25090814307E+01 -0.20987554380E+02  0.21637554142E+02  0.10566000000E+00 0.  1.
         14    1    4    4    0    0  0.19341543472E+01  0.11333579126E+01 -0.82922857351E+01  0.85899625092E+01  0.00000000000E+00 0. -1.
<mgrwt>
<rscale>  0 0.76364423E+02</rscale>
<asrwt>0</asrwt>
<pdfrwt beam="1">  1        1 0.54294473E-01 0.76364423E+02</pdfrwt>
<pdfrwt beam="2">  1       -2 0.63553551E-03 0.76364423E+02</pdfrwt>
<totfact> 0.21003900E+05</totfact>
</mgrwt>
</event>
<event>
 8    1  0.1241100E-020  0.8105844E+02  0.7818608E-02  0.1326074E+00
          1   -1    0    0  501    0  0.00000000000E+00  0.00000000000E+00  0.36973089029E+02  0.36973089373E+02  0.50400000000E-02 0. -1.
         -2   -1    0    0    0  501 -0.00000000000E+00 -0.00000000000E+00 -0.44427385639E+02  0.44427385712E+02  0.25500000000E-02 0.  1.
        -24    2    1    2    0    0  0.00000000000E+00  0.00000000000E+00 -0.74542966091E+01  0.81400475085E+02  0.81058440684E+02 0.  0.
         66    2    3    3    0    0 -0.36486316815E+02  0.20689904381E+01 -0.21269671606E+02  0.42331206004E+02  0.20000088348E+01 0.  0.
         13    1    3    3    0    0  0.36486316815E+02 -0.20689904381E+01  0.13815374997E+02  0.39069269081E+02  0.10566000000E+00 0. -1.
         13    1    4    4    0    0 -0.78402693002E+01  0.11960737017E+01 -0.48633423616E+01  0.93039603375E+01  0.10566000000E+00 0.  1.
        -13    1    4    4    0    0 -0.15221622666E+02  0.21334515756E+00 -0.87000158030E+01  0.17534102536E+02  0.10566000000E+00 0. -1.
         14    1    4    4    0    0 -0.13424424849E+02  0.65957157885E+00 -0.77063134412E+01  0.15493143130E+02  0.00000000000E+00 0. -1.
<mgrwt>
<rscale>  0 0.81058441E+02</rscale>
<asrwt>0</asrwt>
<pdfrwt beam="1">  1        1 0.56881676E-02 0.81058441E+02</pdfrwt>
<pdfrwt beam="2">  1       -2 0.68349824E-02 0.81058441E+02</pdfrwt>
<totfact> 0.12076117E+05</totfact>
</mgrwt>
</event>
<event>
 8    1  0.1241100E-020  0.8007952E+02  0.7818608E-02  0.1328826E+00
         -2   -1    0    0    0  501 -0.00000000000E+00  0.00000000000E+00  0.40612652280E+01  0.40612660285E+01  0.25500000000E-02 0.  1.
          1   -1    0    0  501    0  0.00000000000E+00 -0.00000000000E+00 -0.39474949434E+03  0.39474949437E+03  0.50400000000E-02 0. -1.
        -24    2    1    2    0    0  0.44408920985E-15  0.00000000000E+00 -0.39068822911E+03  0.39881076040E+03  0.80079524503E+02 0.  0.
         66    2    3    3    0    0  0.31468920501E+01  0.38055099241E+02 -0.25503746813E+03  0.25788796726E+03  0.19999997668E+01 0.  0.
         13    1    3    3    0    0 -0.31468920501E+01 -0.38055099241E+02 -0.13565076098E+03  0.14092279314E+03  0.10566000000E+00 0. -1.
         13    1    4    4    0    0 -0.80292861283E-01  0.57426114088E+00 -0.35765482761E+01  0.36247874984E+01  0.10566000000E+00 0.  1.
        -13    1    4    4    0    0  0.18136315702E+01  0.27339382336E+02 -0.18507950767E+03  0.18709667664E+03  0.10566000000E+00 0.  1.
        -14    1    4    4    0    0  0.14135533412E+01  0.10141455764E+02 -0.66381412184E+02  0.67166503121E+02  0.00000000000E+00 0.  1.
<mgrwt>
<rscale>  0 0.80079525E+02</rscale>
<asrwt>0</asrwt>
<pdfrwt beam="1">  1        1 0.60730662E-01 0.80079525E+02</pdfrwt>
<pdfrwt beam="2">  1       -2 0.62481041E-03 0.80079525E+02</pdfrwt>
<totfact> 0.18902861E+05</totfact>
</mgrwt>
</event>
<event>
 8    1  0.1241100E-020  0.7928617E+02  0.7818608E-02  0.1331089E+00
         -2   -1    0    0    0  501 -0.00000000000E+00  0.00000000000E+00  0.49201902647E+02  0.49201902713E+02  0.25500000000E-02 0.  1.
          1   -1    0    0  501    0  0.00000000000E+00 -0.00000000000E+00 -0.31941326561E+02  0.31941326959E+02  0.50400000000E-02 0. -1.
        -24    2    1    2    0    0  0.00000000000E+00  0.88817841970E-15  0.17260576086E+02  0.81143229672E+02  0.79286166730E+02 0.  0.
         66    2    3    3    0    0  0.36875284414E+02 -0.48301488640E+01  0.22610338612E+02  0.43569993695E+02  0.19999999304E+01 0.  0.
         13    1    3    3    0    0 -0.36875284414E+02  0.48301488640E+01 -0.53497625261E+01  0.37573235977E+02  0.10566000000E+00 0. -1.
         13    1    4    4    0    0  0.16561758968E+02 -0.20243335569E+01  0.94836911166E+01  0.19192221020E+02  0.10566000000E+00 0. -1.
        -13    1    4    4    0    0  0.19552663673E+01 -0.61986533334E+00  0.13114201035E+01  0.24368599308E+01  0.10566000000E+00 0.  1.
        -14    1    4    4    0    0  0.18358259079E+02 -0.21859499738E+01  0.11815227392E+02  0.21940912744E+02  0.00000000000E+00 0.  1.
<mgrwt>
<rscale>  0 0.79286167E+02</rscale>
<asrwt>0</asrwt>
<pdfrwt beam="1">  1        1 0.49140503E-02 0.79286167E+02</pdfrwt>
<pdfrwt beam="2">  1       -2 0.75695234E-02 0.79286167E+02</pdfrwt>
<totfact> 0.12545590E+05</totfact>
</mgrwt>
</event>
<event>
 8    1  0.1241100E-020  0.8113416E+02  0.7818608E-02  0.1325863E+00
          1   -1    0    0  501    0  0.00000000000E+00  0.00000000000E+00  0.21277996692E+02  0.21277997289E+02  0.50400000000E-02 0. -1.
         -2   -1    0    0    0  501 -0.00000000000E+00 -0.00000000000E+00 -0.77342249721E+02  0.77342249763E+02  0.25500000000E-02 0.  1.
        -24    2    1    2    0    0  0.00000000000E+00  0.00000000000E+00 -0.56064253029E+02  0.98620247053E+02  0.81134164573E+02 0.  0.
         66    2    3    3    0    0 -0.91729053348E+01  0.36233117009E+02 -0.47140999608E+02  0.60193478048E+02  0.19999987584E+01 0.  0.
         13    1    3    3    0    0  0.91729053348E+01 -0.36233117009E+02 -0.89232534214E+01  0.38426769005E+02  0.10566000000E+00 0. -1.
         13    1    4    4    0    0  0.82599109388E-03  0.29698862113E+00 -0.63052815069E+00  0.70493454147E+00  0.10566000000E+00 0.  1.
        -13    1    4    4    0    0 -0.14417977532E+01  0.55493754311E+01 -0.72802147732E+01  0.92675260785E+01  0.10566000000E+00 0.  1.
         14    1    4    4    0    0 -0.77319335727E+01  0.30386752957E+02 -0.39230256684E+02  0.50221017428E+02  0.00000000000E+00 0. -1.
<mgrwt>
<rscale>  0 0.81134165E+02</rscale>
<asrwt>0</asrwt>
<pdfrwt beam="1">  1        1 0.32735381E-02 0.81134165E+02</pdfrwt>
<pdfrwt beam="2">  1       -2 0.11898807E-01 0.81134165E+02</pdfrwt>
<totfact> 0.10860642E+05</totfact>
</mgrwt>
</event>
<event>
 8    1  0.1241100E-020  0.8233608E+02  0.7818608E-02  0.1322550E+00
         -2   -1    0    0    0  501 -0.00000000000E+00  0.00000000000E+00  0.97736795256E+01  0.97736798583E+01  0.25500000000E-02 0.  1.
          1   -1    0    0  501    0  0.00000000000E+00 -0.00000000000E+00 -0.17340528040E+03  0.17340528048E+03  0.50400000000E-02 0. -1.
        -24    2    1    2    0    0 -0.44408920985E-15 -0.71054273576E-14 -0.16363160088E+03  0.18317896033E+03  0.82336083848E+02 0.  0.
         66    2    3    3    0    0  0.31380737325E+01  0.40442558445E+02 -0.66554241735E+02  0.77967397935E+02  0.20000018841E+01 0.  0.
         13    1    3    3    0    0 -0.31380737325E+01 -0.40442558445E+02 -0.97077359142E+02  0.10521156240E+03  0.10566000000E+00 0. -1.
         13    1    4    4    0    0  0.51243649535E+00  0.68128872088E+01 -0.12172580766E+02  0.13959258928E+02  0.10566000000E+00 0. -1.
        -13    1    4    4    0    0  0.27240956449E+01  0.30040246596E+02 -0.48917743351E+02  0.57469939022E+02  0.10566000000E+00 0.  1.
        -14    1    4    4    0    0 -0.98458407750E-01  0.35894246401E+01 -0.54639176186E+01  0.65381999853E+01  0.00000000000E+00 0.  1.
<mgrwt>
<rscale>  0 0.82336084E+02</rscale>
<asrwt>0</asrwt>
<pdfrwt beam="1">  1        1 0.26677733E-01 0.82336084E+02</pdfrwt>
<pdfrwt beam="2">  1       -2 0.15036432E-02 0.82336084E+02</pdfrwt>
<totfact> 0.15023627E+05</totfact>
</mgrwt>
</event>
<event>
 8    1  0.1241100E-020  0.8044518E+02  0.7818608E-02  0.1327793E+00
         -2   -1    0    0    0  501 -0.00000000000E+00  0.00000000000E+00  0.82090952284E+02  0.82090952324E+02  0.25500000000E-02 0.  1.
          1   -1    0    0  501    0  0.00000000000E+00 -0.00000000000E+00 -0.19708098903E+02  0.19708099548E+02  0.50400000000E-02 0. -1.
        -24    2    1    2    0    0 -0.35527136788E-14  0.00000000000E+00  0.62382853381E+02  0.10179905187E+03  0.80445177394E+02 0.  0.
         66    2    3    3    0    0 -0.30916575303E+02  0.10150937605E+02  0.61075600777E+02  0.69232255343E+02  0.20000017363E+01 0.  0.
         13    1    3    3    0    0  0.30916575303E+02 -0.10150937605E+02  0.13072526044E+01  0.32566796528E+02  0.10566000000E+00 0. -1.
         13    1    4    4    0    0 -0.79978269037E+01  0.21238260892E+01  0.14257561553E+02  0.16485299448E+02  0.10566000000E+00 0. -1.
        -13    1    4    4    0    0 -0.10596937232E+02  0.33644389911E+01  0.21850764513E+02  0.24516965600E+02  0.10566000000E+00 0.  1.
        -14    1    4    4    0    0 -0.12321811167E+02  0.46626725246E+01  0.24967274711E+02  0.28229990294E+02  0.00000000000E+00 0.  1.
<mgrwt>
<rscale>  0 0.80445177E+02</rscale>
<asrwt>0</asrwt>
<pdfrwt beam="1">  1        1 0.30320153E-02 0.80445177E+02</pdfrwt>
<pdfrwt beam="2">  1       -2 0.12629377E-01 0.80445177E+02</pdfrwt>
<totfact> 0.10957276E+05</totfact>
</mgrwt>
</event>
<event>
 8    1  0.1241100E-020  0.7935253E+02  0.7818608E-02  0.1330899E+00
         -2   -1    0    0    0  501 -0.00000000000E+00  0.00000000000E+00  0.17034206008E+02  0.17034206199E+02  0.25500000000E-02 0.  1.
          1   -1    0    0  501    0  0.00000000000E+00 -0.00000000000E+00 -0.92414399216E+02  0.92414399353E+02  0.50400000000E-02 0. -1.
        -24    2    1    2    0    0  0.00000000000E+00  0.00000000000E+00 -0.75380193208E+02  0.10944860555E+03  0.79352528184E+02 0.  0.
         66    2    3    3    0    0 -0.88350048811E+01 -0.37433701527E+02 -0.24422664905E+02  0.45604888742E+02  0.19999987135E+01 0.  0.
         13    1    3    3    0    0  0.88350048811E+01  0.37433701527E+02 -0.50957528303E+02  0.63843716810E+02  0.10566000000E+00 0. -1.
         13    1    4    4    0    0 -0.23015750175E+01 -0.83412304862E+01 -0.54656505475E+01  0.10235129385E+02  0.10566000000E+00 0. -1.
        -13    1    4    4    0    0 -0.35993757357E+01 -0.19172899257E+02 -0.11996557396E+02  0.22901618392E+02  0.10566000000E+00 0.  1.
        -14    1    4    4    0    0 -0.29340541279E+01 -0.99195717843E+01 -0.69604569611E+01  0.12468140965E+02  0.00000000000E+00 0.  1.
<mgrwt>
<rscale>  0 0.79352528E+02</rscale>
<asrwt>0</asrwt>
<pdfrwt beam="1">  1        1 0.14217600E-01 0.79352528E+02</pdfrwt>
<pdfrwt beam="2">  1       -2 0.26206472E-02 0.79352528E+02</pdfrwt>
<totfact> 0.14829757E+05</totfact>
</mgrwt>
</event>
<event>
 8    1  0.1241100E-020  0.7901312E+02  0.7818608E-02  0.1331876E+00
         -2   -1    0    0    0  501 -0.00000000000E+00  0.00000000000E+00  0.46662474896E+02  0.46662474966E+02  0.25500000000E-02 0.  1.
          1   -1    0    0  501    0  0.00000000000E+00 -0.00000000000E+00 -0.33448040922E+02  0.33448041301E+02  0.50400000000E-02 0. -1.
        -24    2    1    2    0    0  0.00000000000E+00  0.00000000000E+00  0.13214433974E+02  0.80110516267E+02  0.79013122653E+02 0.  0.
         66    2    3    3    0    0  0.11285259666E+02 -0.20822846057E+02  0.38638376226E+02  0.45363775308E+02  0.19999973012E+01 0.  0.
         13    1    3    3    0    0 -0.11285259666E+02  0.20822846057E+02 -0.25423942252E+02  0.34746740959E+02  0.10566000000E+00 0. -1.
         13    1    4    4    0    0  0.59858226916E+00 -0.76696259505E+00  0.11695273796E+01  0.15249559608E+01  0.10566000000E+00 0. -1.
        -13    1    4    4    0    0  0.68922255344E+01 -0.12095852346E+02  0.23777468866E+02  0.27553431847E+02  0.10566000000E+00 0.  1.
         14    1    4    4    0    0  0.37944518621E+01 -0.79600311154E+01  0.13691379980E+02  0.16285387501E+02  0.00000000000E+00 0. -1.
<mgrwt>
<rscale>  0 0.79013123E+02</rscale>
<asrwt>0</asrwt>
<pdfrwt beam="1">  1        1 0.51458525E-02 0.79013123E+02</pdfrwt>
<pdfrwt beam="2">  1       -2 0.71788423E-02 0.79013123E+02</pdfrwt>
<totfact> 0.12768964E+05</totfact>
</mgrwt>
</event>
<event>
 8    1  0.1241100E-020  0.7752587E+02  0.7818608E-02  0.1336223E+00
         -2   -1    0    0    0  501 -0.00000000000E+00  0.00000000000E+00  0.38484164713E+01  0.38484173161E+01  0.25500000000E-02 0.  1.
          1   -1    0    0  501    0  0.00000000000E+00 -0.00000000000E+00 -0.39043715410E+03  0.39043715413E+03  0.50400000000E-02 0. -1.
        -24    2    1    2    0    0  0.00000000000E+00  0.22204460493E-15 -0.38658873763E+03  0.39428557145E+03  0.77525865304E+02 0.  0.
         66    2    3    3    0    0 -0.33582861239E+02  0.10441274392E+01 -0.29147046490E+03  0.29340744824E+03  0.20000006975E+01 0.  0.
         13    1    3    3    0    0  0.33582861239E+02 -0.10441274392E+01 -0.95118272734E+02  0.10087812321E+03  0.10566000000E+00 0. -1.
         13    1    4    4    0    0 -0.14617665465E+02  0.90797527088E+00 -0.12178692169E+03  0.12266444481E+03  0.10566000000E+00 0. -1.
        -13    1    4    4    0    0 -0.13224312043E+02 -0.30077333519E+00 -0.11629523255E+03  0.11704514160E+03  0.10566000000E+00 0.  1.
         14    1    4    4    0    0 -0.57408837316E+01  0.43692550355E+00 -0.53388310658E+02  0.53697861827E+02  0.00000000000E+00 0. -1.
<mgrwt>
<rscale>  0 0.77525865E+02</rscale>
<asrwt>0</asrwt>
<pdfrwt beam="1">  1        1 0.60067223E-01 0.77525865E+02</pdfrwt>
<pdfrwt beam="2">  1       -2 0.59206445E-03 0.77525865E+02</pdfrwt>
<totfact> 0.20542415E+05</totfact>
</mgrwt>
</event>
<event>
 8    1  0.1241100E-020  0.7932536E+02  0.7818608E-02  0.1330977E+00
          1   -1    0    0  501    0  0.00000000000E+00  0.00000000000E+00  0.17038124762E+03  0.17038124770E+03  0.50400000000E-02 0. -1.
         -2   -1    0    0    0  501 -0.00000000000E+00 -0.00000000000E+00 -0.92329887749E+01  0.92329891270E+01  0.25500000000E-02 0.  1.
        -24    2    1    2    0    0  0.00000000000E+00  0.35527136788E-14  0.16114825885E+03  0.17961423682E+03  0.79325360007E+02 0.  0.
         66    2    3    3    0    0  0.33257253029E+02  0.20771188417E+02  0.93757222061E+02  0.10164597308E+03  0.20000021160E+01 0.  0.
         13    1    3    3    0    0 -0.33257253029E+02 -0.20771188417E+02  0.67391036786E+02  0.77968263738E+02  0.10566000000E+00 0. -1.
         13    1    4    4    0    0  0.13093622999E+02  0.77616099566E+01  0.36227603416E+02  0.39295495488E+02  0.10566000000E+00 0.  1.
        -13    1    4    4    0    0  0.67239541473E+01  0.48165757002E+01  0.18403735510E+02  0.20177205099E+02  0.10566000000E+00 0. -1.
        -14    1    4    4    0    0  0.13439675883E+02  0.81930027605E+01  0.39125883135E+02  0.42173272497E+02  0.00000000000E+00 0.  1.
<mgrwt>
<rscale>  0 0.79325360E+02</rscale>
<asrwt>0</asrwt>
<pdfrwt beam="1">  1        1 0.26212499E-01 0.79325360E+02</pdfrwt>
<pdfrwt beam="2">  1       -2 0.14204599E-02 0.79325360E+02</pdfrwt>
<totfact> 0.16537450E+05</totfact>
</mgrwt>
</event>
<event>
 8    1  0.1241100E-020  0.7956559E+02  0.7818608E-02  0.1330289E+00
          1   -1    0    0  501    0  0.00000000000E+00  0.00000000000E+00  0.20696118696E+02  0.20696119309E+02  0.50400000000E-02 0. -1.
         -2   -1    0    0    0  501 -0.00000000000E+00 -0.00000000000E+00 -0.76471861129E+02  0.76471861172E+02  0.25500000000E-02 0.  1.
        -24    2    1    2    0    0  0.35527136788E-14  0.00000000000E+00 -0.55775742434E+02  0.97167980481E+02  0.79565589213E+02 0.  0.
         66    2    3    3    0    0 -0.30229327186E+02  0.68806869467E+01 -0.58301829135E+02  0.66062541197E+02  0.19999984924E+01 0.  0.
         13    1    3    3    0    0  0.30229327186E+02 -0.68806869467E+01  0.25260867007E+01  0.31105439284E+02  0.10566000000E+00 0. -1.
         13    1    4    4    0    0 -0.11688800254E+02  0.20974642910E+01 -0.23119158769E+02  0.25991038341E+02  0.10566000000E+00 0.  1.
        -13    1    4    4    0    0 -0.16315428286E+01  0.12549695241E+00 -0.28373513699E+01  0.32771036478E+01  0.10566000000E+00 0. -1.
        -14    1    4    4    0    0 -0.16908984104E+02  0.46577257033E+01 -0.32345318996E+02  0.36794399208E+02  0.00000000000E+00 0.  1.
<mgrwt>
<rscale>  0 0.79565589E+02</rscale>
<asrwt>0</asrwt>
<pdfrwt beam="1">  1        1 0.31840184E-02 0.79565589E+02</pdfrwt>
<pdfrwt beam="2">  1       -2 0.11764902E-01 0.79565589E+02</pdfrwt>
<totfact> 0.11441536E+05</totfact>
</mgrwt>
</event>
<event>
 8    1  0.1241100E-020  0.7900759E+02  0.7818608E-02  0.1331892E+00
         -2   -1    0    0    0  501 -0.00000000000E+00  0.00000000000E+00  0.12239823886E+02  0.12239824152E+02  0.25500000000E-02 0.  1.
          1   -1    0    0  501    0  0.00000000000E+00 -0.00000000000E+00 -0.12749772191E+03  0.12749772201E+03  0.50400000000E-02 0. -1.
        -24    2    1    2    0    0  0.00000000000E+00  0.00000000000E+00 -0.11525789802E+03  0.13973754616E+03  0.79007586663E+02 0.  0.
         66    2    3    3    0    0  0.34141635526E+02  0.47619218435E+01 -0.91696627165E+02  0.97982644358E+02  0.19999964921E+01 0.  0.
         13    1    3    3    0    0 -0.34141635526E+02 -0.47619218435E+01 -0.23561270860E+02  0.41754901803E+02  0.10566000000E+00 0. -1.
         13    1    4    4    0    0  0.52419784237E+01  0.16137720543E+00 -0.14210749062E+02  0.15147967960E+02  0.10566000000E+00 0.  1.
        -13    1    4    4    0    0  0.16498526646E+02  0.26661989000E+01 -0.42749866665E+02  0.45900678230E+02  0.10566000000E+00 0. -1.
         14    1    4    4    0    0  0.12401130457E+02  0.19343457381E+01 -0.34736011438E+02  0.36933998168E+02  0.00000000000E+00 0. -1.
<mgrwt>
<rscale>  0 0.79007587E+02</rscale>
<asrwt>0</asrwt>
<pdfrwt beam="1">  1        1 0.19615033E-01 0.79007587E+02</pdfrwt>
<pdfrwt beam="2">  1       -2 0.18830499E-02 0.79007587E+02</pdfrwt>
<totfact> 0.15851519E+05</totfact>
</mgrwt>
</event>
<event>
 8    1  0.1241100E-020  0.7860165E+02  0.7818608E-02  0.1333067E+00
          1   -1    0    0  501    0  0.00000000000E+00  0.00000000000E+00  0.39977241284E+03  0.39977241287E+03  0.50400000000E-02 0. -1.
         -2   -1    0    0    0  501 -0.00000000000E+00 -0.00000000000E+00 -0.38635850566E+01  0.38635858981E+01  0.25500000000E-02 0.  1.
        -24    2    1    2    0    0  0.00000000000E+00  0.00000000000E+00  0.39590882778E+03  0.40363599877E+03  0.78601651294E+02 0.  0.
         66    2    3    3    0    0 -0.25658153067E+02 -0.29460749423E+02  0.21879780237E+03  0.22226730505E+03  0.19999989966E+01 0.  0.
         13    1    3    3    0    0  0.25658153067E+02  0.29460749423E+02  0.17711102541E+03  0.18136869372E+03  0.10566000000E+00 0. -1.
         13    1    4    4    0    0 -0.18875647309E+01 -0.17067560404E+01  0.14408786000E+02  0.14632163027E+02  0.10566000000E+00 0. -1.
        -13    1    4    4    0    0 -0.56264313978E+01 -0.57009012431E+01  0.45932398226E+02  0.46625672929E+02  0.10566000000E+00 0.  1.
        -14    1    4    4    0    0 -0.18144156938E+02 -0.22053092139E+02  0.15845661815E+03  0.16100946910E+03  0.00000000000E+00 0.  1.
<mgrwt>
<rscale>  0 0.78601651E+02</rscale>
<asrwt>0</asrwt>
<pdfrwt beam="1">  1        1 0.61503402E-01 0.78601651E+02</pdfrwt>
<pdfrwt beam="2">  1       -2 0.59439821E-03 0.78601651E+02</pdfrwt>
<totfact> 0.19891124E+05</totfact>
</mgrwt>
</event>
<event>
 8    1  0.1241100E-020  0.8166039E+02  0.7818608E-02  0.1324404E+00
         -2   -1    0    0    0  501 -0.00000000000E+00  0.00000000000E+00  0.21920255493E+02  0.21920255642E+02  0.25500000000E-02 0.  1.
          1   -1    0    0  501    0  0.00000000000E+00 -0.00000000000E+00 -0.76053174064E+02  0.76053174231E+02  0.50400000000E-02 0. -1.
        -24    2    1    2    0    0  0.00000000000E+00  0.00000000000E+00 -0.54132918571E+02  0.97973429872E+02  0.81660394856E+02 0.  0.
         66    2    3    3    0    0 -0.36770850309E+01 -0.22142166279E+02  0.13802888023E+02  0.26425673349E+02  0.20000030862E+01 0.  0.
         13    1    3    3    0    0  0.36770850309E+01  0.22142166279E+02 -0.67935806594E+02  0.71547756523E+02  0.10566000000E+00 0. -1.
         13    1    4    4    0    0 -0.53211847478E+00 -0.41016207060E+01  0.21663708084E+01  0.46702001030E+01  0.10566000000E+00 0. -1.
        -13    1    4    4    0    0 -0.12981510727E+01 -0.86353903514E+01  0.46435294221E+01  0.98908388046E+01  0.10566000000E+00 0.  1.
         14    1    4    4    0    0 -0.18468154834E+01 -0.94051552214E+01  0.69929877929E+01  0.11864634442E+02  0.00000000000E+00 0. -1.
<mgrwt>
<rscale>  0 0.81660395E+02</rscale>
<asrwt>0</asrwt>
<pdfrwt beam="1">  1        1 0.11700488E-01 0.81660395E+02</pdfrwt>
<pdfrwt beam="2">  1       -2 0.33723470E-02 0.81660395E+02</pdfrwt>
<totfact> 0.13287428E+05</totfact>
</mgrwt>
</event>
<event>
 8    1  0.1241100E-020  0.7540942E+02  0.7818608E-02  0.1342608E+00
          1   -1    0    0  501    0  0.00000000000E+00  0.00000000000E+00  0.36619351013E+01  0.36619385696E+01  0.50400000000E-02 0. -1.
         -2   -1    0    0    0  501 -0.00000000000E+00 -0.00000000000E+00 -0.38822222376E+03  0.38822222377E+03  0.25500000000E-02 0.  1.
        -24    2    1    2    0    0  0.00000000000E+00  0.00000000000E+00 -0.38456028866E+03  0.39188416234E+03  0.75409423006E+02 0.  0.
         66    2    3    3    0    0 -0.35053869772E+02  0.72680546226E+01 -0.25347233181E+03  0.25599574488E+03  0.20000001039E+01 0.  0.
         13    1    3    3    0    0  0.35053869772E+02 -0.72680546226E+01 -0.13108795685E+03  0.13588841746E+03  0.10566000000E+00 0. -1.
         13    1    4    4    0    0 -0.19760225265E+02  0.42516172753E+01 -0.14345603025E+03  0.14487300139E+03  0.10566000000E+00 0. -1.
        -13    1    4    4    0    0 -0.10901683614E+02  0.22637919053E+01 -0.82489024702E+02  0.83237142069E+02  0.10566000000E+00 0.  1.
         14    1    4    4    0    0 -0.43919608928E+01  0.75264544201E+00 -0.27527276855E+02  0.27885601423E+02  0.00000000000E+00 0. -1.
<mgrwt>
<rscale>  0 0.75409423E+02</rscale>
<asrwt>0</asrwt>
<pdfrwt beam="1">  1        1 0.56337521E-03 0.75409423E+02</pdfrwt>
<pdfrwt beam="2">  1       -2 0.59726463E-01 0.75409423E+02</pdfrwt>
<totfact> 0.70181393E+04</totfact>
</mgrwt>
</event>
<event>
 8    1  0.1241100E-020  0.8043551E+02  0.7818608E-02  0.1327820E+00
          1   -1    0    0  501    0  0.00000000000E+00  0.00000000000E+00  0.21313683518E+03  0.21313683524E+03  0.50400000000E-02 0. -1.
         -2   -1    0    0    0  501 -0.00000000000E+00 -0.00000000000E+00 -0.75888708576E+01  0.75888712860E+01  0.25500000000E-02 0.  1.
        -24    2    1    2    0    0 -0.35527136788E-14 -0.35527136788E-14  0.20554796432E+03  0.22072570652E+03  0.80435513823E+02 0.  0.
         66    2    3    3    0    0 -0.18949046569E+02 -0.31244645896E+02  0.14876929826E+03  0.15320443324E+03  0.19999986332E+01 0.  0.
         13    1    3    3    0    0  0.18949046569E+02  0.31244645896E+02  0.56778666057E+02  0.67521273287E+02  0.10566000000E+00 0. -1.
         13    1    4    4    0    0 -0.26901944516E+01 -0.55185377414E+01  0.25614354060E+02  0.26340039919E+02  0.10566000000E+00 0. -1.
        -13    1    4    4    0    0 -0.75894526814E+01 -0.12918154181E+02  0.61710119456E+02  0.63502980298E+02  0.10566000000E+00 0.  1.
         14    1    4    4    0    0 -0.86693994357E+01 -0.12807953974E+02  0.61444824746E+02  0.63361413018E+02  0.00000000000E+00 0. -1.
<mgrwt>
<rscale>  0 0.80435514E+02</rscale>
<asrwt>0</asrwt>
<pdfrwt beam="1">  1        1 0.32790283E-01 0.80435514E+02</pdfrwt>
<pdfrwt beam="2">  1       -2 0.11675186E-02 0.80435514E+02</pdfrwt>
<totfact> 0.16640188E+05</totfact>
</mgrwt>
</event>
<event>
 8    1  0.1241100E-020  0.8133719E+02  0.7818608E-02  0.1325299E+00
          1   -1    0    0  501    0  0.00000000000E+00  0.00000000000E+00  0.49960586473E+02  0.49960586727E+02  0.50400000000E-02 0. -1.
         -2   -1    0    0    0  501 -0.00000000000E+00 -0.00000000000E+00 -0.33104784505E+02  0.33104784603E+02  0.25500000000E-02 0.  1.
        -24    2    1    2    0    0  0.00000000000E+00  0.00000000000E+00  0.16855801968E+02  0.83065371330E+02  0.81337186171E+02 0.  0.
         66    2    3    3    0    0 -0.32693615459E+02 -0.31763341567E+01 -0.16012353391E+02  0.36597227498E+02  0.20000022500E+01 0.  0.
         13    1    3    3    0    0  0.32693615459E+02  0.31763341567E+01  0.32868155359E+02  0.46468143832E+02  0.10566000000E+00 0. -1.
         13    1    4    4    0    0 -0.10047288535E+02 -0.35435075348E+00 -0.55396208070E+01  0.11479204419E+02  0.10566000000E+00 0.  1.
        -13    1    4    4    0    0 -0.10591778340E+02 -0.10438769804E+01 -0.47164675882E+01  0.11641807338E+02  0.10566000000E+00 0. -1.
        -14    1    4    4    0    0 -0.12054548584E+02 -0.17781064228E+01 -0.57562649955E+01  0.13476215742E+02  0.00000000000E+00 0.  1.
<mgrwt>
<rscale>  0 0.81337186E+02</rscale>
<asrwt>0</asrwt>
<pdfrwt beam="1">  1        1 0.76862441E-02 0.81337186E+02</pdfrwt>
<pdfrwt beam="2">  1       -2 0.50930438E-02 0.81337186E+02</pdfrwt>
<totfact> 0.12561803E+05</totfact>
</mgrwt>
</event>
<event>
 8    1  0.1241100E-020  0.7909977E+02  0.7818608E-02  0.1331626E+00
          1   -1    0    0  501    0  0.00000000000E+00  0.00000000000E+00  0.17884968981E+03  0.17884968988E+03  0.50400000000E-02 0. -1.
         -2   -1    0    0    0  501 -0.00000000000E+00 -0.00000000000E+00 -0.87458540461E+01  0.87458544179E+01  0.25500000000E-02 0.  1.
        -24    2    1    2    0    0 -0.35527136788E-14  0.00000000000E+00  0.17010383576E+03  0.18759554430E+03  0.79099768010E+02 0.  0.
         66    2    3    3    0    0  0.29312115778E+02 -0.11441560705E+02  0.28381035667E+02  0.42421604923E+02  0.19999839891E+01 0.  0.
         13    1    3    3    0    0 -0.29312115778E+02  0.11441560705E+02  0.14172280010E+03  0.14517393937E+03  0.10566000000E+00 0. -1.
         13    1    4    4    0    0  0.11700177091E+01 -0.56496370037E+00  0.17185672062E+01  0.21570263559E+01  0.10566000000E+00 0. -1.
        -13    1    4    4    0    0  0.10184242574E+02 -0.40205472985E+01  0.97504549446E+01  0.14661723400E+02  0.10566000000E+00 0.  1.
         14    1    4    4    0    0  0.17957855494E+02 -0.68560497061E+01  0.16912013517E+02  0.25602855167E+02  0.00000000000E+00 0. -1.
<mgrwt>
<rscale>  0 0.79099768E+02</rscale>
<asrwt>0</asrwt>
<pdfrwt beam="1">  1        1 0.27515338E-01 0.79099768E+02</pdfrwt>
<pdfrwt beam="2">  1       -2 0.13455160E-02 0.79099768E+02</pdfrwt>
<totfact> 0.16816931E+05</totfact>
</mgrwt>
</event>
<event>
 8    1  0.1241100E-020  0.7480230E+02  0.7818608E-02  0.1344484E+00
         -2   -1    0    0    0  501 -0.00000000000E+00  0.00000000000E+00  0.15497859178E+02  0.15497859388E+02  0.25500000000E-02 0.  1.
          1   -1    0    0  501    0  0.00000000000E+00 -0.00000000000E+00 -0.90260592775E+02  0.90260592915E+02  0.50400000000E-02 0. -1.
        -24    2    1    2    0    0  0.17763568394E-14  0.00000000000E+00 -0.74762733597E+02  0.10575845230E+03  0.74802298753E+02 0.  0.
         66    2    3    3    0    0  0.10670635963E+02 -0.16091244113E+02  0.78359673728E+01  0.20933060027E+02  0.20000021177E+01 0.  0.
         13    1    3    3    0    0 -0.10670635963E+02  0.16091244113E+02 -0.82598700969E+02  0.84825392276E+02  0.10566000000E+00 0. -1.
         13    1    4    4    0    0  0.96002822690E+00 -0.13346681085E+01  0.25275750975E+00  0.16667463966E+01  0.10566000000E+00 0. -1.
        -13    1    4    4    0    0  0.33004552072E+01 -0.55852313326E+01  0.33568862411E+01  0.73053174390E+01  0.10566000000E+00 0.  1.
        -14    1    4    4    0    0  0.64101525289E+01 -0.91713446718E+01  0.42263236219E+01  0.11960996191E+02  0.00000000000E+00 0.  1.
<mgrwt>
<rscale>  0 0.74802299E+02</rscale>
<asrwt>0</asrwt>
<pdfrwt beam="1">  1        1 0.13886245E-01 0.74802299E+02</pdfrwt>
<pdfrwt beam="2">  1       -2 0.23842861E-02 0.74802299E+02</pdfrwt>
<totfact> 0.17322971E+05</totfact>
</mgrwt>
</event>
<event>
 8    1  0.1241100E-020  0.7319768E+02  0.7818608E-02  0.1349545E+00
          1   -1    0    0  501    0  0.00000000000E+00  0.00000000000E+00  0.43337227024E+03  0.43337227027E+03  0.50400000000E-02 0. -1.
         -2   -1    0    0    0  501 -0.00000000000E+00 -0.00000000000E+00 -0.30908180644E+01  0.30908191163E+01  0.25500000000E-02 0.  1.
        -24    2    1    2    0    0  0.00000000000E+00 -0.17763568394E-14  0.43028145218E+03  0.43646308939E+03  0.73197679674E+02 0.  0.
         66    2    3    3    0    0  0.32919347926E+02 -0.12664612919E+02  0.27292583836E+03  0.27520281451E+03  0.19999959237E+01 0.  0.
         13    1    3    3    0    0 -0.32919347926E+02  0.12664612919E+02  0.15735561382E+03  0.16126027487E+03  0.10566000000E+00 0. -1.
         13    1    4    4    0    0  0.51855676779E+01 -0.24449215181E+01  0.42558396542E+02  0.42942939276E+02  0.10566000000E+00 0. -1.
        -13    1    4    4    0    0  0.23334247391E+02 -0.89965594520E+01  0.19726960564E+03  0.19884851938E+03  0.10566000000E+00 0.  1.
         14    1    4    4    0    0  0.43995328577E+01 -0.12231319493E+01  0.33097836174E+02  0.33411355862E+02  0.00000000000E+00 0. -1.
<mgrwt>
<rscale>  0 0.73197680E+02</rscale>
<asrwt>0</asrwt>
<pdfrwt beam="1">  1        1 0.66672638E-01 0.73197680E+02</pdfrwt>
<pdfrwt beam="2">  1       -2 0.47551069E-03 0.73197680E+02</pdfrwt>
<totfact> 0.24257417E+05</totfact>
</mgrwt>
</event>
<event>
 8    1  0.1241100E-020  0.7744960E+02  0.7818608E-02  0.1336449E+00
         -2   -1    0    0    0  501 -0.00000000000E+00  0.00000000000E+00  0.37915986027E+01  0.37915994602E+01  0.25500000000E-02 0.  1.
          1   -1    0    0  501    0  0.00000000000E+00 -0.00000000000E+00 -0.39550860636E+03  0.39550860639E+03  0.50400000000E-02 0. -1.
        -24    2    1    2    0    0 -0.88817841970E-15  0.71054273576E-14 -0.39171700776E+03  0.39930020585E+03  0.77449597981E+02 0.  0.
         66    2    3    3    0    0 -0.43376026347E+01  0.38048822529E+02 -0.22472982256E+03  0.22797811482E+03  0.19999988498E+01 0.  0.
         13    1    3    3    0    0  0.43376026347E+01 -0.38048822529E+02 -0.16698718519E+03  0.17132209103E+03  0.10566000000E+00 0. -1.
         13    1    4    4    0    0 -0.14049099505E+01  0.16612686227E+02 -0.94868957151E+02  0.96322818224E+02  0.10566000000E+00 0. -1.
        -13    1    4    4    0    0 -0.26123907905E+01  0.20552656214E+02 -0.12475794739E+03  0.12646656817E+03  0.10566000000E+00 0.  1.
         14    1    4    4    0    0 -0.32030189374E+00  0.88348008822E+00 -0.51029180233E+01  0.51887284302E+01  0.00000000000E+00 0. -1.
<mgrwt>
<rscale>  0 0.77449598E+02</rscale>
<asrwt>0</asrwt>
<pdfrwt beam="1">  1        1 0.60847446E-01 0.77449598E+02</pdfrwt>
<pdfrwt beam="2">  1       -2 0.58332324E-03 0.77449598E+02</pdfrwt>
<totfact> 0.20639361E+05</totfact>
</mgrwt>
</event>
<event>
 8    1  0.1241100E-020  0.8021200E+02  0.7818608E-02  0.1328451E+00
          1   -1    0    0  501    0  0.00000000000E+00  0.00000000000E+00  0.14808493334E+02  0.14808494191E+02  0.50400000000E-02 0. -1.
         -2   -1    0    0    0  501 -0.00000000000E+00 -0.00000000000E+00 -0.10861950731E+03  0.10861950734E+03  0.25500000000E-02 0.  1.
        -24    2    1    2    0    0  0.00000000000E+00  0.00000000000E+00 -0.93811013978E+02  0.12342800153E+03  0.80212001713E+02 0.  0.
         66    2    3    3    0    0  0.92479934223E+01  0.38367000864E+02 -0.36170415697E+02  0.53570991349E+02  0.20000011998E+01 0.  0.
         13    1    3    3    0    0 -0.92479934223E+01 -0.38367000864E+02 -0.57640598281E+02  0.69857010184E+02  0.10566000000E+00 0. -1.
         13    1    4    4    0    0  0.25010326293E+01  0.89934785753E+01 -0.76686573666E+01  0.12081278531E+02  0.10566000000E+00 0.  1.
        -13    1    4    4    0    0  0.33497905126E+00  0.15220858874E+01 -0.12679760879E+01  0.20119353391E+01  0.10566000000E+00 0.  1.
        -14    1    4    4    0    0  0.64119817418E+01  0.27851436401E+02 -0.27233782243E+02  0.39477777479E+02  0.00000000000E+00 0.  1.
<mgrwt>
<rscale>  0 0.80212002E+02</rscale>
<asrwt>0</asrwt>
<pdfrwt beam="1">  1        1 0.22782299E-02 0.80212002E+02</pdfrwt>
<pdfrwt beam="2">  1       -2 0.16710693E-01 0.80212002E+02</pdfrwt>
<totfact> 0.10321057E+05</totfact>
</mgrwt>
</event>
<event>
 8    1  0.1241100E-020  0.7630765E+02  0.7818608E-02  0.1339869E+00
         -2   -1    0    0    0  501 -0.00000000000E+00  0.00000000000E+00  0.38160681227E+03  0.38160681228E+03  0.25500000000E-02 0.  1.
          1   -1    0    0  501    0  0.00000000000E+00 -0.00000000000E+00 -0.38146954862E+01  0.38146988157E+01  0.50400000000E-02 0. -1.
        -24    2    1    2    0    0  0.44408920985E-15 -0.17763568394E-14  0.37779211678E+03  0.38542151109E+03  0.76307651714E+02 0.  0.
         66    2    3    3    0    0 -0.31648962231E+01  0.15869362945E+02  0.36339868528E+03  0.36376428868E+03  0.20000006531E+01 0.  0.
         13    1    3    3    0    0  0.31648962231E+01 -0.15869362945E+02  0.14393431498E+02  0.21657222415E+02  0.10566000000E+00 0. -1.
         13    1    4    4    0    0 -0.25075432467E+00  0.11641588311E+01  0.33097607196E+02  0.33119192467E+02  0.10566000000E+00 0. -1.
        -13    1    4    4    0    0 -0.12558196513E+01  0.96746493535E+01  0.22314615359E+03  0.22335933593E+03  0.10566000000E+00 0.  1.
         14    1    4    4    0    0 -0.16583222471E+01  0.50305547609E+01  0.10715492450E+03  0.10728576028E+03  0.00000000000E+00 0. -1.
<mgrwt>
<rscale>  0 0.76307652E+02</rscale>
<asrwt>0</asrwt>
<pdfrwt beam="1">  1        1 0.58687653E-03 0.76307652E+02</pdfrwt>
<pdfrwt beam="2">  1       -2 0.58708736E-01 0.76307652E+02</pdfrwt>
<totfact> 0.68835073E+04</totfact>
</mgrwt>
</event>
<event>
 8    1  0.1241100E-020  0.7922397E+02  0.7818608E-02  0.1331268E+00
         -2   -1    0    0    0  501 -0.00000000000E+00  0.00000000000E+00  0.74420645786E+03  0.74420645787E+03  0.25500000000E-02 0.  1.
          1   -1    0    0  501    0  0.00000000000E+00 -0.00000000000E+00 -0.21084299098E+01  0.21084359336E+01  0.50400000000E-02 0. -1.
        -24    2    1    2    0    0 -0.88817841970E-15 -0.35527136788E-14  0.74209802795E+03  0.74631489380E+03  0.79223971228E+02 0.  0.
         66    2    3    3    0    0  0.50840979085E+01  0.20422176863E+02  0.68713823591E+03  0.68746335801E+03  0.19999997148E+01 0.  0.
         13    1    3    3    0    0 -0.50840979085E+01 -0.20422176863E+02  0.54959792042E+02  0.58851535789E+02  0.10566000000E+00 0. -1.
         13    1    4    4    0    0  0.41268066670E+01  0.15388859352E+02  0.53706411718E+03  0.53730040448E+03  0.10566000000E+00 0. -1.
        -13    1    4    4    0    0  0.94907711590E+00  0.35084794800E+01  0.10318073065E+03  0.10324477961E+03  0.10566000000E+00 0.  1.
         14    1    4    4    0    0  0.82141256248E-02  0.15248380306E+01  0.46893388082E+02  0.46918173924E+02  0.00000000000E+00 0. -1.
<mgrwt>
<rscale>  0 0.79223971E+02</rscale>
<asrwt>0</asrwt>
<pdfrwt beam="1">  1        1 0.32437414E-03 0.79223971E+02</pdfrwt>
<pdfrwt beam="2">  1       -2 0.11449336E+00 0.79223971E+02</pdfrwt>
<totfact> 0.36606518E+04</totfact>
</mgrwt>
</event>
<event>
 8    1  0.1241100E-020  0.7868933E+02  0.7818608E-02  0.1332813E+00
         -2   -1    0    0    0  501 -0.00000000000E+00  0.00000000000E+00  0.53511161121E+01  0.53511167197E+01  0.25500000000E-02 0.  1.
          1   -1    0    0  501    0  0.00000000000E+00 -0.00000000000E+00 -0.28928593223E+03  0.28928593227E+03  0.50400000000E-02 0. -1.
        -24    2    1    2    0    0  0.17763568394E-14  0.71054273576E-14 -0.28393481612E+03  0.29463704899E+03  0.78689331143E+02 0.  0.
         66    2    3    3    0    0 -0.13219700919E+02 -0.34560479221E+02 -0.92270757152E+02  0.99433796255E+02  0.19999989850E+01 0.  0.
         13    1    3    3    0    0  0.13219700919E+02  0.34560479221E+02 -0.19166405897E+03  0.19520325274E+03  0.10566000000E+00 0. -1.
         13    1    4    4    0    0 -0.45570471859E+00 -0.20787972997E+01 -0.54906820902E+01  0.58896365639E+01  0.10566000000E+00 0. -1.
        -13    1    4    4    0    0 -0.26689092511E+01 -0.82193801187E+01 -0.22046939580E+02  0.23680371513E+02  0.10566000000E+00 0.  1.
         14    1    4    4    0    0 -0.10095086950E+02 -0.24262301802E+02 -0.64733135482E+02  0.69863788178E+02  0.00000000000E+00 0. -1.
<mgrwt>
<rscale>  0 0.78689331E+02</rscale>
<asrwt>0</asrwt>
<pdfrwt beam="1">  1        1 0.44505516E-01 0.78689331E+02</pdfrwt>
<pdfrwt beam="2">  1       -2 0.82324891E-03 0.78689331E+02</pdfrwt>
<totfact> 0.18713757E+05</totfact>
</mgrwt>
</event>
<event>
 8    1  0.1241100E-020  0.8044485E+02  0.7818608E-02  0.1327794E+00
          1   -1    0    0  501    0  0.00000000000E+00  0.00000000000E+00  0.96347612538E+02  0.96347612670E+02  0.50400000000E-02 0. -1.
         -2   -1    0    0    0  501 -0.00000000000E+00 -0.00000000000E+00 -0.16791733072E+02  0.16791733266E+02  0.25500000000E-02 0.  1.
        -24    2    1    2    0    0 -0.35527136788E-14  0.88817841970E-15  0.79555879466E+02  0.11313934594E+03  0.80444848445E+02 0.  0.
         66    2    3    3    0    0  0.27871817951E+02 -0.42904674428E+01 -0.48585565046E+00  0.28275119838E+02  0.19999998510E+01 0.  0.
         13    1    3    3    0    0 -0.27871817951E+02  0.42904674428E+01  0.80041735116E+02  0.84864226098E+02  0.10566000000E+00 0. -1.
         13    1    4    4    0    0  0.10644058863E+02 -0.17149691082E+01  0.20206630726E+00  0.10783742530E+02  0.10566000000E+00 0.  1.
        -13    1    4    4    0    0  0.94918097186E+01 -0.21327931707E+01 -0.34267938681E+00  0.97350835456E+01  0.10566000000E+00 0. -1.
         14    1    4    4    0    0  0.77359493686E+01 -0.44270516401E+00 -0.34524257091E+00  0.77562937624E+01  0.00000000000E+00 0. -1.
<mgrwt>
<rscale>  0 0.80444848E+02</rscale>
<asrwt>0</asrwt>
<pdfrwt beam="1">  1        1 0.14822710E-01 0.80444848E+02</pdfrwt>
<pdfrwt beam="2">  1       -2 0.25833435E-02 0.80444848E+02</pdfrwt>
<totfact> 0.14390155E+05</totfact>
</mgrwt>
</event>
<event>
 8    1  0.1241100E-020  0.7867718E+02  0.7818608E-02  0.1332848E+00
          1   -1    0    0  501    0  0.00000000000E+00  0.00000000000E+00  0.29238065623E+01  0.29238109062E+01  0.50400000000E-02 0. -1.
         -2   -1    0    0    0  501 -0.00000000000E+00 -0.00000000000E+00 -0.52928381362E+03  0.52928381363E+03  0.25500000000E-02 0.  1.
        -24    2    1    2    0    0  0.35527136788E-14 -0.71054273576E-14 -0.52636000706E+03  0.53220762453E+03  0.78677179541E+02 0.  0.
         66    2    3    3    0    0 -0.10852141391E+02  0.34960461313E+02 -0.36032376118E+03  0.36218395284E+03  0.19999981882E+01 0.  0.
         13    1    3    3    0    0  0.10852141391E+02 -0.34960461313E+02 -0.16603624588E+03  0.17002367170E+03  0.10566000000E+00 0. -1.
         13    1    4    4    0    0 -0.93324910573E+00  0.29238435702E+01 -0.28168374167E+02  0.28335283347E+02  0.10566000000E+00 0.  1.
        -13    1    4    4    0    0 -0.63689887121E+01  0.17712748514E+02 -0.18476618952E+03  0.18572253884E+03  0.10566000000E+00 0.  1.
         14    1    4    4    0    0 -0.35499035737E+01  0.14323869229E+02 -0.14738919749E+03  0.14812613065E+03  0.00000000000E+00 0. -1.
<mgrwt>
<rscale>  0 0.78677180E+02</rscale>
<asrwt>0</asrwt>
<pdfrwt beam="1">  1        1 0.44981715E-03 0.78677180E+02</pdfrwt>
<pdfrwt beam="2">  1       -2 0.81428203E-01 0.78677180E+02</pdfrwt>
<totfact> 0.50317239E+04</totfact>
</mgrwt>
</event>
<event>
 8    1  0.1241100E-020  0.8122846E+02  0.7818608E-02  0.1325601E+00
          1   -1    0    0  501    0  0.00000000000E+00  0.00000000000E+00  0.17216109703E+03  0.17216109710E+03  0.50400000000E-02 0. -1.
         -2   -1    0    0    0  501 -0.00000000000E+00 -0.00000000000E+00 -0.95812322871E+01  0.95812326264E+01  0.25500000000E-02 0.  1.
        -24    2    1    2    0    0  0.00000000000E+00  0.00000000000E+00  0.16257986474E+03  0.18174232973E+03  0.81228455579E+02 0.  0.
         66    2    3    3    0    0  0.33012976263E+02  0.46161142256E+01  0.13315582685E+03  0.13727942067E+03  0.20000005852E+01 0.  0.
         13    1    3    3    0    0 -0.33012976263E+02 -0.46161142256E+01  0.29424037890E+02  0.44462909060E+02  0.10566000000E+00 0. -1.
         13    1    4    4    0    0  0.15480555431E+02  0.23402837564E+01  0.60169665434E+02  0.62173340967E+02  0.10566000000E+00 0. -1.
        -13    1    4    4    0    0  0.13518027834E+02  0.12585654717E+01  0.56102409981E+02  0.57721855768E+02  0.10566000000E+00 0.  1.
        -14    1    4    4    0    0  0.40143929980E+01  0.10172649975E+01  0.16883751434E+02  0.17384223932E+02  0.00000000000E+00 0.  1.
<mgrwt>
<rscale>  0 0.81228456E+02</rscale>
<asrwt>0</asrwt>
<pdfrwt beam="1">  1        1 0.26486326E-01 0.81228456E+02</pdfrwt>
<pdfrwt beam="2">  1       -2 0.14740356E-02 0.81228456E+02</pdfrwt>
<totfact> 0.15555510E+05</totfact>
</mgrwt>
</event>
<event>
 8    1  0.1241100E-020  0.7966701E+02  0.7818608E-02  0.1329999E+00
         -2   -1    0    0    0  501 -0.00000000000E+00  0.00000000000E+00  0.30053426382E+02  0.30053426490E+02  0.25500000000E-02 0.  1.
          1   -1    0    0  501    0  0.00000000000E+00 -0.00000000000E+00 -0.52796248853E+02  0.52796249094E+02  0.50400000000E-02 0. -1.
        -24    2    1    2    0    0 -0.35527136788E-14  0.00000000000E+00 -0.22742822471E+02  0.82849675584E+02  0.79667011808E+02 0.  0.
         66    2    3    3    0    0  0.31183957930E+02 -0.15691038332E+02  0.85183526232E+01  0.35989029532E+02  0.19999997728E+01 0.  0.
         13    1    3    3    0    0 -0.31183957930E+02  0.15691038332E+02 -0.31261175094E+02  0.46860646052E+02  0.10566000000E+00 0. -1.
         13    1    4    4    0    0  0.45553492218E+01 -0.24395434485E+01  0.85244024598E+00  0.52383582522E+01  0.10566000000E+00 0. -1.
        -13    1    4    4    0    0  0.19075920163E+02 -0.95725532433E+01  0.61725322756E+01  0.22217916743E+02  0.10566000000E+00 0.  1.
        -14    1    4    4    0    0  0.75526885455E+01 -0.36789416402E+01  0.14933801016E+01  0.85327545368E+01  0.00000000000E+00 0.  1.
<mgrwt>
<rscale>  0 0.79667012E+02</rscale>
<asrwt>0</asrwt>
<pdfrwt beam="1">  1        1 0.81224999E-02 0.79667012E+02</pdfrwt>
<pdfrwt beam="2">  1       -2 0.46236041E-02 0.79667012E+02</pdfrwt>
<totfact> 0.13424372E+05</totfact>
</mgrwt>
</event>
<event>
 8    1  0.1241100E-020  0.8017643E+02  0.7818608E-02  0.1328552E+00
         -2   -1    0    0    0  501 -0.00000000000E+00  0.00000000000E+00  0.11014239314E+02  0.11014239609E+02  0.25500000000E-02 0.  1.
          1   -1    0    0  501    0  0.00000000000E+00 -0.00000000000E+00 -0.14590793398E+03  0.14590793407E+03  0.50400000000E-02 0. -1.
        -24    2    1    2    0    0  0.35527136788E-14  0.00000000000E+00 -0.13489369467E+03  0.15692217368E+03  0.80176428771E+02 0.  0.
         66    2    3    3    0    0  0.31997859073E+02  0.19543240847E+02 -0.95116497523E+02  0.10225922622E+03  0.19999994412E+01 0.  0.
         13    1    3    3    0    0 -0.31997859073E+02 -0.19543240847E+02 -0.39777197143E+02  0.54662947457E+02  0.10566000000E+00 0. -1.
         13    1    4    4    0    0  0.14916757617E+02  0.85968567443E+01 -0.42016224611E+02  0.45406936676E+02  0.10566000000E+00 0. -1.
        -13    1    4    4    0    0  0.11246969775E+02  0.68026970693E+01 -0.33497389100E+02  0.35984125071E+02  0.10566000000E+00 0.  1.
         14    1    4    4    0    0  0.58341316807E+01  0.41436870332E+01 -0.19602883813E+02  0.20868164473E+02  0.00000000000E+00 0. -1.
<mgrwt>
<rscale>  0 0.80176429E+02</rscale>
<asrwt>0</asrwt>
<pdfrwt beam="1">  1        1 0.22447373E-01 0.80176429E+02</pdfrwt>
<pdfrwt beam="2">  1       -2 0.16944985E-02 0.80176429E+02</pdfrwt>
<totfact> 0.15616029E+05</totfact>
</mgrwt>
</event>
<event>
 8    1  0.1241100E-020  0.8079875E+02  0.7818608E-02  0.1326800E+00
         -2   -1    0    0    0  501 -0.00000000000E+00  0.00000000000E+00  0.35320171740E+02  0.35320171832E+02  0.25500000000E-02 0.  1.
          1   -1    0    0  501    0  0.00000000000E+00 -0.00000000000E+00 -0.46208989810E+02  0.46208990084E+02  0.50400000000E-02 0. -1.
        -24    2    1    2    0    0  0.00000000000E+00  0.00000000000E+00 -0.10888818069E+02  0.81529161917E+02  0.80798749272E+02 0.  0.
         66    2    3    3    0    0 -0.11693049005E+02  0.91616744770E+00  0.33534882321E+02  0.35583073092E+02  0.20000001415E+01 0.  0.
         13    1    3    3    0    0  0.11693049005E+02 -0.91616744770E+00 -0.44423700391E+02  0.45946088824E+02  0.10566000000E+00 0. -1.
         13    1    4    4    0    0 -0.20988036207E+00 -0.15968213336E+00  0.72456010566E+00  0.77826700586E+00  0.10566000000E+00 0. -1.
        -13    1    4    4    0    0 -0.32473079777E+01 -0.49825049027E-01  0.78184579120E+01  0.84668140286E+01  0.10566000000E+00 0.  1.
        -14    1    4    4    0    0 -0.82358606655E+01  0.11256746301E+01  0.24991864303E+02  0.26337992058E+02  0.00000000000E+00 0.  1.
<mgrwt>
<rscale>  0 0.80798749E+02</rscale>
<asrwt>0</asrwt>
<pdfrwt beam="1">  1        1 0.71090754E-02 0.80798749E+02</pdfrwt>
<pdfrwt beam="2">  1       -2 0.54338726E-02 0.80798749E+02</pdfrwt>
<totfact> 0.12638448E+05</totfact>
</mgrwt>
</event>
<event>
 8    1  0.1241100E-020  0.7784164E+02  0.7818608E-02  0.1335291E+00
         -2   -1    0    0    0  501 -0.00000000000E+00  0.00000000000E+00  0.27341474439E+02  0.27341474557E+02  0.25500000000E-02 0.  1.
          1   -1    0    0  501    0  0.00000000000E+00 -0.00000000000E+00 -0.55404122229E+02  0.55404122459E+02  0.50400000000E-02 0. -1.
        -24    2    1    2    0    0 -0.71054273576E-14  0.00000000000E+00 -0.28062647791E+02  0.82745597016E+02  0.77841644539E+02 0.  0.
         66    2    3    3    0    0  0.35058864972E+02 -0.16775681713E+02 -0.15644940480E+02  0.41944149383E+02  0.19999987023E+01 0.  0.
         13    1    3    3    0    0 -0.35058864972E+02  0.16775681713E+02 -0.12417707311E+02  0.40801447633E+02  0.10566000000E+00 0. -1.
         13    1    4    4    0    0  0.74536184405E+01 -0.37228367849E+01 -0.27401387664E+01  0.87712864552E+01  0.10566000000E+00 0. -1.
        -13    1    4    4    0    0  0.20067064355E+02 -0.92275842406E+01 -0.88004612169E+01  0.23775926152E+02  0.10566000000E+00 0.  1.
         14    1    4    4    0    0  0.75381821766E+01 -0.38252606877E+01 -0.41043404964E+01  0.93969367757E+01  0.00000000000E+00 0. -1.
<mgrwt>
<rscale>  0 0.77841645E+02</rscale>
<asrwt>0</asrwt>
<pdfrwt beam="1">  1        1 0.85237111E-02 0.77841645E+02</pdfrwt>
<pdfrwt beam="2">  1       -2 0.42063807E-02 0.77841645E+02</pdfrwt>
<totfact> 0.14419394E+05</totfact>
</mgrwt>
</event>
<event>
 8    1  0.1241100E-020  0.8035503E+02  0.7818608E-02  0.1328047E+00
          1   -1    0    0  501    0  0.00000000000E+00  0.00000000000E+00  0.14263910785E+03  0.14263910794E+03  0.50400000000E-02 0. -1.
         -2   -1    0    0    0  501 -0.00000000000E+00 -0.00000000000E+00 -0.11316900821E+02  0.11316901108E+02  0.25500000000E-02 0.  1.
        -24    2    1    2    0    0  0.35527136788E-14 -0.35527136788E-14  0.13132220703E+03  0.15395600905E+03  0.80355028858E+02 0.  0.
         66    2    3    3    0    0  0.29094630699E+02 -0.24742793695E+02  0.41962133236E+02  0.56776086595E+02  0.20000019967E+01 0.  0.
         13    1    3    3    0    0 -0.29094630699E+02  0.24742793695E+02  0.89360073798E+02  0.97179922457E+02  0.10566000000E+00 0. -1.
         13    1    4    4    0    0  0.16731220588E+01 -0.10749467500E+01  0.19110840910E+01  0.27601185441E+01  0.10566000000E+00 0. -1.
        -13    1    4    4    0    0  0.24894107122E+02 -0.21892886251E+02  0.36404946255E+02  0.49237651383E+02  0.10566000000E+00 0.  1.
        -14    1    4    4    0    0  0.25274015184E+01 -0.17749606939E+01  0.36461028893E+01  0.47783166680E+01  0.00000000000E+00 0.  1.
<mgrwt>
<rscale>  0 0.80355029E+02</rscale>
<asrwt>0</asrwt>
<pdfrwt beam="1">  1        1 0.21944478E-01 0.80355029E+02</pdfrwt>
<pdfrwt beam="2">  1       -2 0.17410617E-02 0.80355029E+02</pdfrwt>
<totfact> 0.15459007E+05</totfact>
</mgrwt>
</event>
<event>
 8    1  0.1241100E-020  0.7925673E+02  0.7818608E-02  0.1331174E+00
         -2   -1    0    0    0  501 -0.00000000000E+00  0.00000000000E+00  0.36681151308E+02  0.36681151396E+02  0.25500000000E-02 0.  1.
          1   -1    0    0  501    0  0.00000000000E+00 -0.00000000000E+00 -0.42812376222E+02  0.42812376519E+02  0.50400000000E-02 0. -1.
        -24    2    1    2    0    0  0.00000000000E+00  0.00000000000E+00 -0.61312249141E+01  0.79493527915E+02  0.79256728808E+02 0.  0.
         66    2    3    3    0    0  0.19739519476E+02 -0.67307413629E+01  0.30699789856E+02  0.37167574630E+02  0.19999995445E+01 0.  0.
         13    1    3    3    0    0 -0.19739519476E+02  0.67307413629E+01 -0.36831014770E+02  0.42325953285E+02  0.10566000000E+00 0. -1.
         13    1    4    4    0    0  0.83817975428E+01 -0.32493031512E+01  0.11893316255E+02  0.14908877777E+02  0.10566000000E+00 0. -1.
        -13    1    4    4    0    0  0.44919666300E+01 -0.15275815944E+01  0.81859886862E+01  0.94621796928E+01  0.10566000000E+00 0.  1.
        -14    1    4    4    0    0  0.68657553035E+01 -0.19538566174E+01  0.10620484916E+02  0.12796517159E+02  0.00000000000E+00 0.  1.
<mgrwt>
<rscale>  0 0.79256729E+02</rscale>
<asrwt>0</asrwt>
<pdfrwt beam="1">  1        1 0.65865195E-02 0.79256729E+02</pdfrwt>
<pdfrwt beam="2">  1       -2 0.56432540E-02 0.79256729E+02</pdfrwt>
<totfact> 0.13177736E+05</totfact>
</mgrwt>
</event>
<event>
 8    1  0.1241100E-020  0.8110332E+02  0.7818608E-02  0.1325949E+00
         -2   -1    0    0    0  501 -0.00000000000E+00  0.00000000000E+00  0.17571972698E+02  0.17571972883E+02  0.25500000000E-02 0.  1.
          1   -1    0    0  501    0  0.00000000000E+00 -0.00000000000E+00 -0.93582950609E+02  0.93582950745E+02  0.50400000000E-02 0. -1.
        -24    2    1    2    0    0  0.17763568394E-14  0.35527136788E-14 -0.76010977912E+02  0.11115492363E+03  0.81103318573E+02 0.  0.
         66    2    3    3    0    0 -0.97070888463E+01 -0.27918626145E+02 -0.28499313657E-01  0.29625631483E+02  0.19999922096E+01 0.  0.
         13    1    3    3    0    0  0.97070888463E+01  0.27918626145E+02 -0.75982478598E+02  0.81529292145E+02  0.10566000000E+00 0. -1.
         13    1    4    4    0    0 -0.27708593089E+01 -0.10186702125E+02  0.56563979036E+00  0.10572496106E+02  0.10566000000E+00 0. -1.
        -13    1    4    4    0    0 -0.30955659439E+01 -0.79874627319E+01 -0.10313912201E+00  0.85676070825E+01  0.10566000000E+00 0.  1.
         14    1    4    4    0    0 -0.38406635934E+01 -0.97444612881E+01 -0.49099998200E+00  0.10485528294E+02  0.00000000000E+00 0. -1.
<mgrwt>
<rscale>  0 0.81103319E+02</rscale>
<asrwt>0</asrwt>
<pdfrwt beam="1">  1        1 0.14397377E-01 0.81103319E+02</pdfrwt>
<pdfrwt beam="2">  1       -2 0.27033805E-02 0.81103319E+02</pdfrwt>
<totfact> 0.14007291E+05</totfact>
</mgrwt>
</event>
<event>
 8    1  0.1241100E-020  0.7851208E+02  0.7818608E-02  0.1333328E+00
         -2   -1    0    0    0  501 -0.00000000000E+00  0.00000000000E+00  0.67648564583E+01  0.67648569389E+01  0.25500000000E-02 0.  1.
          1   -1    0    0  501    0  0.00000000000E+00 -0.00000000000E+00 -0.22780032700E+03  0.22780032706E+03  0.50400000000E-02 0. -1.
        -24    2    1    2    0    0  0.00000000000E+00 -0.35527136788E-14 -0.22103547055E+03  0.23456518400E+03  0.78512077447E+02 0.  0.
         66    2    3    3    0    0 -0.16227368608E+02 -0.29398150699E+02 -0.49987226689E+02  0.60251984135E+02  0.20000009138E+01 0.  0.
         13    1    3    3    0    0  0.16227368608E+02  0.29398150699E+02 -0.17104824386E+03  0.17431319986E+03  0.10566000000E+00 0. -1.
         13    1    4    4    0    0 -0.22775795051E+01 -0.41015725987E+01 -0.69272711073E+01  0.83671091312E+01  0.10566000000E+00 0. -1.
        -13    1    4    4    0    0 -0.59799855850E+00 -0.15292184268E+01 -0.18696701920E+01  0.24905706044E+01  0.10566000000E+00 0. -1.
        -14    1    4    4    0    0 -0.13351790544E+02 -0.23767359673E+02 -0.41190285390E+02  0.49394304399E+02  0.00000000000E+00 0.  1.
<mgrwt>
<rscale>  0 0.78512077E+02</rscale>
<asrwt>0</asrwt>
<pdfrwt beam="1">  1        1 0.35046198E-01 0.78512077E+02</pdfrwt>
<pdfrwt beam="2">  1       -2 0.10407474E-02 0.78512077E+02</pdfrwt>
<totfact> 0.17973143E+05</totfact>
</mgrwt>
</event>
<event>
 8    1  0.1241100E-020  0.7953193E+02  0.7818608E-02  0.1330385E+00
          1   -1    0    0  501    0  0.00000000000E+00  0.00000000000E+00  0.35606422625E+03  0.35606422629E+03  0.50400000000E-02 0. -1.
         -2   -1    0    0    0  501 -0.00000000000E+00 -0.00000000000E+00 -0.44411417207E+01  0.44411424528E+01  0.25500000000E-02 0.  1.
        -24    2    1    2    0    0 -0.71054273576E-14  0.22204460493E-15  0.35162308453E+03  0.36050536874E+03  0.79531926391E+02 0.  0.
         66    2    3    3    0    0  0.39571426501E+02  0.15484106269E+01  0.16086717386E+03  0.16568205393E+03  0.20000001149E+01 0.  0.
         13    1    3    3    0    0 -0.39571426501E+02 -0.15484106269E+01  0.19075591067E+03  0.19482331481E+03  0.10566000000E+00 0. -1.
         13    1    4    4    0    0  0.85270397973E+00  0.20848082028E-01  0.41395202066E+01  0.42278044297E+01  0.10566000000E+00 0. -1.
        -13    1    4    4    0    0  0.38664267687E+02  0.15803194075E+01  0.15624231147E+03  0.16096302079E+03  0.10566000000E+00 0.  1.
        -14    1    4    4    0    0  0.54454834373E-01 -0.52756862625E-01  0.48534218261E+00  0.49122871431E+00  0.00000000000E+00 0.  1.
<mgrwt>
<rscale>  0 0.79531926E+02</rscale>
<asrwt>0</asrwt>
<pdfrwt beam="1">  1        1 0.54779108E-01 0.79531926E+02</pdfrwt>
<pdfrwt beam="2">  1       -2 0.68325268E-03 0.79531926E+02</pdfrwt>
<totfact> 0.18909539E+05</totfact>
</mgrwt>
</event>
<event>
 8    1  0.1241100E-020  0.7783163E+02  0.7818608E-02  0.1335320E+00
         -2   -1    0    0    0  501 -0.00000000000E+00  0.00000000000E+00  0.22334485270E+02  0.22334485416E+02  0.25500000000E-02 0.  1.
          1   -1    0    0  501    0  0.00000000000E+00 -0.00000000000E+00 -0.67807283879E+02  0.67807284066E+02  0.50400000000E-02 0. -1.
        -24    2    1    2    0    0  0.00000000000E+00  0.88817841970E-15 -0.45472798609E+02  0.90141769482E+02  0.77831633621E+02 0.  0.
         66    2    3    3    0    0  0.30558464773E+02  0.54362251773E+01  0.43868422380E+01  0.31410455323E+02  0.20000013324E+01 0.  0.
         13    1    3    3    0    0 -0.30558464773E+02 -0.54362251773E+01 -0.49859640847E+02  0.58731314159E+02  0.10566000000E+00 0. -1.
         13    1    4    4    0    0  0.18393133989E+01  0.47617746166E+00  0.55655081114E+00  0.19826072721E+01  0.10566000000E+00 0. -1.
        -13    1    4    4    0    0  0.37508878825E+01  0.10113219509E+01  0.21688497575E+00  0.38923174490E+01  0.10566000000E+00 0.  1.
        -14    1    4    4    0    0  0.24968263492E+02  0.39487257647E+01  0.36134064511E+01  0.25535530602E+02  0.00000000000E+00 0.  1.
<mgrwt>
<rscale>  0 0.77831634E+02</rscale>
<asrwt>0</asrwt>
<pdfrwt beam="1">  1        1 0.10431890E-01 0.77831634E+02</pdfrwt>
<pdfrwt beam="2">  1       -2 0.34360747E-02 0.77831634E+02</pdfrwt>
<totfact> 0.14878654E+05</totfact>
</mgrwt>
</event>
<event>
 8    1  0.1241100E-020  0.7270947E+02  0.7818608E-02  0.1351114E+00
         -2   -1    0    0    0  501 -0.00000000000E+00  0.00000000000E+00  0.19425585112E+03  0.19425585113E+03  0.25500000000E-02 0.  1.
          1   -1    0    0  501    0  0.00000000000E+00 -0.00000000000E+00 -0.68037412624E+01  0.68037431291E+01  0.50400000000E-02 0. -1.
        -24    2    1    2    0    0  0.00000000000E+00  0.00000000000E+00  0.18745210985E+03  0.20105959426E+03  0.72709469508E+02 0.  0.
         66    2    3    3    0    0 -0.84392408407E+01  0.26606905997E+02  0.15808584593E+03  0.16054371030E+03  0.19999998520E+01 0.  0.
         13    1    3    3    0    0  0.84392408407E+01 -0.26606905997E+02  0.29366263923E+02  0.40515883966E+02  0.10566000000E+00 0. -1.
         13    1    4    4    0    0 -0.23171556534E+01  0.10381134345E+02  0.59669939476E+02  0.60610642644E+02  0.10566000000E+00 0. -1.
        -13    1    4    4    0    0 -0.34149529116E+01  0.90765963290E+01  0.56145462839E+02  0.56976930996E+02  0.10566000000E+00 0.  1.
         14    1    4    4    0    0 -0.27071322756E+01  0.71491753228E+01  0.42270443615E+02  0.42956136656E+02  0.00000000000E+00 0. -1.
<mgrwt>
<rscale>  0 0.72709470E+02</rscale>
<asrwt>0</asrwt>
<pdfrwt beam="1">  1        1 0.10467294E-02 0.72709470E+02</pdfrwt>
<pdfrwt beam="2">  1       -2 0.29885520E-01 0.72709470E+02</pdfrwt>
<totfact> 0.11003033E+05</totfact>
</mgrwt>
</event>
<event>
 8    1  0.1241100E-020  0.7943027E+02  0.7818608E-02  0.1330676E+00
         -2   -1    0    0    0  501 -0.00000000000E+00  0.00000000000E+00  0.19179250324E+03  0.19179250326E+03  0.25500000000E-02 0.  1.
          1   -1    0    0  501    0  0.00000000000E+00 -0.00000000000E+00 -0.82239481273E+01  0.82239496716E+01  0.50400000000E-02 0. -1.
        -24    2    1    2    0    0  0.00000000000E+00  0.17763568394E-14  0.18356855512E+03  0.20001645293E+03  0.79430265114E+02 0.  0.
         66    2    3    3    0    0  0.36642238528E+02  0.11562943337E+02  0.11688880406E+03  0.12305831062E+03  0.19999988714E+01 0.  0.
         13    1    3    3    0    0 -0.36642238528E+02 -0.11562943337E+02  0.66679751057E+02  0.76958142311E+02  0.10566000000E+00 0. -1.
         13    1    4    4    0    0  0.90493078919E+01  0.32846986118E+01  0.28908211389E+02  0.30469247907E+02  0.10566000000E+00 0.  1.
        -13    1    4    4    0    0  0.10435655215E+02  0.37193726198E+01  0.32355635789E+02  0.34199926371E+02  0.10566000000E+00 0.  1.
        -14    1    4    4    0    0  0.17157275421E+02  0.45588721049E+01  0.55624956881E+02  0.58389136342E+02  0.00000000000E+00 0.  1.
<mgrwt>
<rscale>  0 0.79430265E+02</rscale>
<asrwt>0</asrwt>
<pdfrwt beam="1">  1        1 0.12652231E-02 0.79430265E+02</pdfrwt>
<pdfrwt beam="2">  1       -2 0.29506535E-01 0.79430265E+02</pdfrwt>
<totfact> 0.88121404E+04</totfact>
</mgrwt>
</event>
<event>
 8    1  0.1241100E-020  0.8393435E+02  0.7818608E-02  0.1318243E+00
          1   -1    0    0  501    0  0.00000000000E+00  0.00000000000E+00  0.31508168177E+02  0.31508168580E+02  0.50400000000E-02 0. -1.
         -2   -1    0    0    0  501 -0.00000000000E+00 -0.00000000000E+00 -0.55898004519E+02  0.55898004577E+02  0.25500000000E-02 0.  1.
        -24    2    1    2    0    0  0.00000000000E+00 -0.35527136788E-14 -0.24389836342E+02  0.87406173157E+02  0.83934349281E+02 0.  0.
         66    2    3    3    0    0 -0.80865572172E+01  0.23292288441E+02 -0.47536373894E+02  0.53587591384E+02  0.19999997302E+01 0.  0.
         13    1    3    3    0    0  0.80865572172E+01 -0.23292288441E+02  0.23146537552E+02  0.33818581773E+02  0.10566000000E+00 0. -1.
         13    1    4    4    0    0 -0.31169970909E+01  0.63675278940E+01 -0.13667403444E+02  0.15397082947E+02  0.10566000000E+00 0. -1.
        -13    1    4    4    0    0 -0.33205054989E+01  0.10460579896E+02 -0.21007457421E+02  0.23701770395E+02  0.10566000000E+00 0.  1.
         14    1    4    4    0    0 -0.16490546274E+01  0.64641806513E+01 -0.12861513029E+02  0.14488738042E+02  0.00000000000E+00 0. -1.
<mgrwt>
<rscale>  0 0.83934349E+02</rscale>
<asrwt>0</asrwt>
<pdfrwt beam="1">  1        1 0.48474106E-02 0.83934349E+02</pdfrwt>
<pdfrwt beam="2">  1       -2 0.85996929E-02 0.83934349E+02</pdfrwt>
<totfact> 0.10624831E+05</totfact>
</mgrwt>
</event>
<event>
 8    1  0.1241100E-020  0.8027145E+02  0.7818608E-02  0.1328283E+00
          1   -1    0    0  501    0  0.00000000000E+00  0.00000000000E+00  0.12263885330E+02  0.12263886366E+02  0.50400000000E-02 0. -1.
         -2   -1    0    0    0  501 -0.00000000000E+00 -0.00000000000E+00 -0.13135123836E+03  0.13135123838E+03  0.25500000000E-02 0.  1.
        -24    2    1    2    0    0 -0.88817841970E-15  0.00000000000E+00 -0.11908735303E+03  0.14361512475E+03  0.80271454487E+02 0.  0.
         66    2    3    3    0    0 -0.68732869396E+01  0.36322151264E+02 -0.87431706485E+02  0.94946532537E+02  0.19999990141E+01 0.  0.
         13    1    3    3    0    0  0.68732869396E+01 -0.36322151264E+02 -0.31655646544E+02  0.48668592213E+02  0.10566000000E+00 0. -1.
         13    1    4    4    0    0 -0.13906846620E+01  0.64827888138E+01 -0.13962251490E+02  0.15456913837E+02  0.10566000000E+00 0. -1.
        -13    1    4    4    0    0 -0.41824983666E+01  0.21944980089E+02 -0.53497574395E+02  0.57974796886E+02  0.10566000000E+00 0.  1.
        -14    1    4    4    0    0 -0.13001039111E+01  0.78943823614E+01 -0.19971880600E+02  0.21514821815E+02  0.00000000000E+00 0.  1.
<mgrwt>
<rscale>  0 0.80271454E+02</rscale>
<asrwt>0</asrwt>
<pdfrwt beam="1">  1        1 0.18867518E-02 0.80271454E+02</pdfrwt>
<pdfrwt beam="2">  1       -2 0.20207882E-01 0.80271454E+02</pdfrwt>
<totfact> 0.97675184E+04</totfact>
</mgrwt>
</event>
<event>
 8    1  0.1241100E-020  0.8532723E+02  0.7818608E-02  0.1314579E+00
         -2   -1    0    0    0  501 -0.00000000000E+00  0.00000000000E+00  0.45441107341E+02  0.45441107413E+02  0.25500000000E-02 0.  1.
          1   -1    0    0  501    0  0.00000000000E+00 -0.00000000000E+00 -0.40055887689E+02  0.40055888006E+02  0.50400000000E-02 0. -1.
        -24    2    1    2    0    0  0.00000000000E+00  0.00000000000E+00  0.53852196526E+01  0.85496995418E+02  0.85327226809E+02 0.  0.
         66    2    3    3    0    0  0.11685332944E+02 -0.38013665672E+02 -0.12718101249E+02  0.41801146925E+02  0.20000002509E+01 0.  0.
         13    1    3    3    0    0 -0.11685332944E+02  0.38013665672E+02  0.18103320902E+02  0.43695848493E+02  0.10566000000E+00 0. -1.
         13    1    4    4    0    0  0.20477863645E+01 -0.67761119881E+01 -0.29837562547E+01  0.76826485077E+01  0.10566000000E+00 0. -1.
        -13    1    4    4    0    0  0.47230359436E+01 -0.14728652830E+02 -0.49764730889E+01  0.16248591666E+02  0.10566000000E+00 0.  1.
         14    1    4    4    0    0  0.49145106362E+01 -0.16508900855E+02 -0.47578719053E+01  0.17869906751E+02  0.00000000000E+00 0. -1.
<mgrwt>
<rscale>  0 0.85327227E+02</rscale>
<asrwt>0</asrwt>
<pdfrwt beam="1">  1        1 0.61624443E-02 0.85327227E+02</pdfrwt>
<pdfrwt beam="2">  1       -2 0.69909396E-02 0.85327227E+02</pdfrwt>
<totfact> 0.10578927E+05</totfact>
</mgrwt>
</event>
<event>
 8    1  0.1241100E-020  0.7709936E+02  0.7818608E-02  0.1337491E+00
         -2   -1    0    0    0  501 -0.00000000000E+00  0.00000000000E+00  0.33127151862E+02  0.33127151960E+02  0.25500000000E-02 0.  1.
          1   -1    0    0  501    0  0.00000000000E+00 -0.00000000000E+00 -0.44859810214E+02  0.44859810497E+02  0.50400000000E-02 0. -1.
        -24    2    1    2    0    0  0.35527136788E-14  0.00000000000E+00 -0.11732658352E+02  0.77986962457E+02  0.77099358242E+02 0.  0.
         66    2    3    3    0    0  0.29725906329E+02  0.46333836604E+01  0.18468647897E+02  0.35358007340E+02  0.19999941676E+01 0.  0.
         13    1    3    3    0    0 -0.29725906329E+02 -0.46333836604E+01 -0.30201306249E+02  0.42628955118E+02  0.10566000000E+00 0. -1.
         13    1    4    4    0    0  0.13665106313E+02  0.29460570609E+01  0.81282557399E+01  0.16170778836E+02  0.10566000000E+00 0. -1.
        -13    1    4    4    0    0  0.23909870332E+01  0.34189595600E+00  0.13230387706E+01  0.27559585377E+01  0.10566000000E+00 0. -1.
        -14    1    4    4    0    0  0.13669812983E+02  0.13454306435E+01  0.90173533870E+01  0.16431269967E+02  0.00000000000E+00 0.  1.
<mgrwt>
<rscale>  0 0.77099358E+02</rscale>
<asrwt>0</asrwt>
<pdfrwt beam="1">  1        1 0.69015093E-02 0.77099358E+02</pdfrwt>
<pdfrwt beam="2">  1       -2 0.50964849E-02 0.77099358E+02</pdfrwt>
<totfact> 0.14336605E+05</totfact>
</mgrwt>
</event>
<event>
 8    1  0.1241100E-020  0.7919495E+02  0.7818608E-02  0.1331352E+00
         -2   -1    0    0    0  501 -0.00000000000E+00  0.00000000000E+00  0.10234542216E+03  0.10234542219E+03  0.25500000000E-02 0.  1.
          1   -1    0    0  501    0  0.00000000000E+00 -0.00000000000E+00 -0.15320273106E+02  0.15320273935E+02  0.50400000000E-02 0. -1.
        -24    2    1    2    0    0  0.71054273576E-14  0.35527136788E-14  0.87025149051E+02  0.11766569612E+03  0.79194946032E+02 0.  0.
         66    2    3    3    0    0  0.29064798480E+02  0.25491585755E+02  0.56092299481E+02  0.68153719780E+02  0.20000009466E+01 0.  0.
         13    1    3    3    0    0 -0.29064798480E+02 -0.25491585755E+02  0.30932849571E+02  0.49511976345E+02  0.10566000000E+00 0. -1.
         13    1    4    4    0    0  0.24111094390E+01  0.27482141355E+01  0.54204882020E+01  0.65390355593E+01  0.10566000000E+00 0. -1.
        -13    1    4    4    0    0  0.45487984709E+01  0.35155674102E+01  0.78955014874E+01  0.97673378931E+01  0.10566000000E+00 0.  1.
        -14    1    4    4    0    0  0.22104890570E+02  0.19227804209E+02  0.42776309791E+02  0.51847346327E+02  0.00000000000E+00 0.  1.
<mgrwt>
<rscale>  0 0.79194946E+02</rscale>
<asrwt>0</asrwt>
<pdfrwt beam="1">  1        1 0.23569651E-02 0.79194946E+02</pdfrwt>
<pdfrwt beam="2">  1       -2 0.15745450E-01 0.79194946E+02</pdfrwt>
<totfact> 0.10828174E+05</totfact>
</mgrwt>
</event>
<event>
 8    1  0.1241100E-020  0.7933430E+02  0.7818608E-02  0.1330951E+00
         -2   -1    0    0    0  501 -0.00000000000E+00  0.00000000000E+00  0.50811027767E+02  0.50811027831E+02  0.25500000000E-02 0.  1.
          1   -1    0    0  501    0  0.00000000000E+00 -0.00000000000E+00 -0.30967345719E+02  0.30967346129E+02  0.50400000000E-02 0. -1.
        -24    2    1    2    0    0  0.00000000000E+00 -0.11102230246E-15  0.19843682048E+02  0.81778373961E+02  0.79334297315E+02 0.  0.
         66    2    3    3    0    0 -0.20231027174E+02  0.56397067933E+00  0.45064375586E+02  0.49440979662E+02  0.19999998652E+01 0.  0.
         13    1    3    3    0    0  0.20231027174E+02 -0.56397067933E+00 -0.25220693538E+02  0.32337394299E+02  0.10566000000E+00 0. -1.
         13    1    4    4    0    0 -0.49024039835E+01 -0.31750107179E+00  0.12296339408E+02  0.13241808737E+02  0.10566000000E+00 0. -1.
        -13    1    4    4    0    0 -0.22227920540E+01 -0.17279427377E+00  0.45161531209E+01  0.50376051278E+01  0.10566000000E+00 0.  1.
        -14    1    4    4    0    0 -0.13105831137E+02  0.10542660249E+01  0.28251883058E+02  0.31161565797E+02  0.00000000000E+00 0.  1.
<mgrwt>
<rscale>  0 0.79334297E+02</rscale>
<asrwt>0</asrwt>
<pdfrwt beam="1">  1        1 0.47642071E-02 0.79334297E+02</pdfrwt>
<pdfrwt beam="2">  1       -2 0.78170811E-02 0.79334297E+02</pdfrwt>
<totfact> 0.12457225E+05</totfact>
</mgrwt>
</event>
<event>
 8    1  0.1241100E-020  0.8039072E+02  0.7818608E-02  0.1327946E+00
          1   -1    0    0  501    0  0.00000000000E+00  0.00000000000E+00  0.96385319185E+02  0.96385319317E+02  0.50400000000E-02 0. -1.
         -2   -1    0    0    0  501 -0.00000000000E+00 -0.00000000000E+00 -0.16762584305E+02  0.16762584499E+02  0.25500000000E-02 0.  1.
        -24    2    1    2    0    0  0.17763568394E-14  0.00000000000E+00  0.79622734880E+02  0.11314790382E+03  0.80390722277E+02 0.  0.
         66    2    3    3    0    0  0.10031996795E+02  0.12508600363E+02 -0.12003399146E+02  0.20129273190E+02  0.20000013401E+01 0.  0.
         13    1    3    3    0    0 -0.10031996795E+02 -0.12508600363E+02  0.91626134027E+02  0.93018630626E+02  0.10566000000E+00 0. -1.
         13    1    4    4    0    0  0.51536349148E+01  0.53490878558E+01 -0.48012224931E+01  0.88450887608E+01  0.10566000000E+00 0. -1.
        -13    1    4    4    0    0  0.51337176409E+00  0.86891366607E+00 -0.63602442833E+00  0.11976028709E+01  0.10566000000E+00 0.  1.
         14    1    4    4    0    0  0.43649901165E+01  0.62905988413E+01 -0.65661522250E+01  0.10086581559E+02  0.00000000000E+00 0. -1.
<mgrwt>
<rscale>  0 0.80390722E+02</rscale>
<asrwt>0</asrwt>
<pdfrwt beam="1">  1        1 0.14828511E-01 0.80390722E+02</pdfrwt>
<pdfrwt beam="2">  1       -2 0.25788591E-02 0.80390722E+02</pdfrwt>
<totfact> 0.14417348E+05</totfact>
</mgrwt>
</event>
<event>
 8    1  0.1241100E-020  0.7986521E+02  0.7818608E-02  0.1329434E+00
         -2   -1    0    0    0  501 -0.00000000000E+00  0.00000000000E+00  0.22582535600E+02  0.22582535744E+02  0.25500000000E-02 0.  1.
          1   -1    0    0  501    0  0.00000000000E+00 -0.00000000000E+00 -0.70612667830E+02  0.70612668010E+02  0.50400000000E-02 0. -1.
        -24    2    1    2    0    0  0.00000000000E+00  0.00000000000E+00 -0.48030132231E+02  0.93195203754E+02  0.79865213959E+02 0.  0.
         66    2    3    3    0    0  0.12979940244E+02  0.31700974285E+02 -0.47921115422E+02  0.58939493747E+02  0.20000001383E+01 0.  0.
         13    1    3    3    0    0 -0.12979940244E+02 -0.31700974285E+02 -0.10901680902E+00  0.34255710007E+02  0.10566000000E+00 0. -1.
         13    1    4    4    0    0  0.17231154850E+01  0.33273167597E+01 -0.53751814571E+01  0.65531598124E+01  0.10566000000E+00 0.  1.
        -13    1    4    4    0    0  0.21893050118E+01  0.67269493380E+01 -0.10670843134E+02  0.12803240256E+02  0.10566000000E+00 0. -1.
        -14    1    4    4    0    0  0.90675197472E+01  0.21646708188E+02 -0.31875090831E+02  0.39583093679E+02  0.00000000000E+00 0.  1.
<mgrwt>
<rscale>  0 0.79865214E+02</rscale>
<asrwt>0</asrwt>
<pdfrwt beam="1">  1        1 0.10863487E-01 0.79865214E+02</pdfrwt>
<pdfrwt beam="2">  1       -2 0.34742363E-02 0.79865214E+02</pdfrwt>
<totfact> 0.13954031E+05</totfact>
</mgrwt>
</event>
<event>
 8    1  0.1241100E-020  0.7939857E+02  0.7818608E-02  0.1330767E+00
          1   -1    0    0  501    0  0.00000000000E+00  0.00000000000E+00  0.20334439033E+02  0.20334439658E+02  0.50400000000E-02 0. -1.
         -2   -1    0    0    0  501 -0.00000000000E+00 -0.00000000000E+00 -0.77505606112E+02  0.77505606154E+02  0.25500000000E-02 0.  1.
        -24    2    1    2    0    0  0.00000000000E+00 -0.44408920985E-15 -0.57171167079E+02  0.97840045812E+02  0.79398565600E+02 0.  0.
         66    2    3    3    0    0  0.25248339285E+02 -0.29165927030E+01 -0.66143131359E+02  0.70886521799E+02  0.19999992925E+01 0.  0.
         13    1    3    3    0    0 -0.25248339285E+02  0.29165927030E+01  0.89719642795E+01  0.26953524013E+02  0.10566000000E+00 0. -1.
         13    1    4    4    0    0  0.12957971789E+02 -0.15701984275E+01 -0.31921815935E+02  0.34487505747E+02  0.10566000000E+00 0. -1.
        -13    1    4    4    0    0  0.10275777809E+02 -0.97955187263E+00 -0.29451710470E+02  0.31208421060E+02  0.10566000000E+00 0.  1.
        -14    1    4    4    0    0  0.20145896876E+01 -0.36684240282E+00 -0.47696049534E+01  0.51905949919E+01  0.00000000000E+00 0.  1.
<mgrwt>
<rscale>  0 0.79398566E+02</rscale>
<asrwt>0</asrwt>
<pdfrwt beam="1">  1        1 0.31283753E-02 0.79398566E+02</pdfrwt>
<pdfrwt beam="2">  1       -2 0.11923939E-01 0.79398566E+02</pdfrwt>
<totfact> 0.11470360E+05</totfact>
</mgrwt>
</event>
<event>
 8    1  0.1241100E-020  0.8019299E+02  0.7818608E-02  0.1328505E+00
          1   -1    0    0  501    0  0.00000000000E+00  0.00000000000E+00  0.89300441290E+02  0.89300441433E+02  0.50400000000E-02 0. -1.
         -2   -1    0    0    0  501 -0.00000000000E+00 -0.00000000000E+00 -0.18003594818E+02  0.18003594998E+02  0.25500000000E-02 0.  1.
        -24    2    1    2    0    0  0.00000000000E+00  0.00000000000E+00  0.71296846473E+02  0.10730403643E+03  0.80192991697E+02 0.  0.
         66    2    3    3    0    0  0.32588538989E+02 -0.74892473801E+01  0.61229876530E+01  0.34052792501E+02  0.19999998846E+01 0.  0.
         13    1    3    3    0    0 -0.32588538989E+02  0.74892473801E+01  0.65173858820E+02  0.73251243930E+02  0.10566000000E+00 0. -1.
         13    1    4    4    0    0  0.28697921839E+01 -0.10334690259E+01  0.89363953894E+00  0.31801762635E+01  0.10566000000E+00 0. -1.
        -13    1    4    4    0    0  0.18590461542E+02 -0.38228977965E+01  0.36693629925E+01  0.19331197498E+02  0.10566000000E+00 0.  1.
        -14    1    4    4    0    0  0.11128285263E+02 -0.26328805577E+01  0.15599851216E+01  0.11541418739E+02  0.00000000000E+00 0.  1.
<mgrwt>
<rscale>  0 0.80192992E+02</rscale>
<asrwt>0</asrwt>
<pdfrwt beam="1">  1        1 0.13738529E-01 0.80192992E+02</pdfrwt>
<pdfrwt beam="2">  1       -2 0.27697838E-02 0.80192992E+02</pdfrwt>
<totfact> 0.14331210E+05</totfact>
</mgrwt>
</event>
<event>
 8    1  0.1241100E-020  0.7961882E+02  0.7818608E-02  0.1330137E+00
         -2   -1    0    0    0  501 -0.00000000000E+00  0.00000000000E+00  0.36598976313E+02  0.36598976402E+02  0.25500000000E-02 0.  1.
          1   -1    0    0  501    0  0.00000000000E+00 -0.00000000000E+00 -0.43301462015E+02  0.43301462309E+02  0.50400000000E-02 0. -1.
        -24    2    1    2    0    0  0.00000000000E+00  0.00000000000E+00 -0.67024857022E+01  0.79900438711E+02  0.79618821842E+02 0.  0.
         66    2    3    3    0    0  0.32790668249E+02  0.16296765612E+02  0.12257109759E+02  0.38665866835E+02  0.20000062107E+01 0.  0.
         13    1    3    3    0    0 -0.32790668249E+02 -0.16296765612E+02 -0.18959595461E+02  0.41234571875E+02  0.10566000000E+00 0. -1.
         13    1    4    4    0    0  0.51140527008E+00  0.10104947431E+00  0.70368012574E-01  0.53652776193E+00  0.10566000000E+00 0. -1.
        -13    1    4    4    0    0  0.43021664212E+01  0.19579541626E+01  0.18976378028E+01  0.50945474466E+01  0.10566000000E+00 0.  1.
        -14    1    4    4    0    0  0.27977096558E+02  0.14237761975E+02  0.10289103944E+02  0.33034791627E+02  0.00000000000E+00 0.  1.
<mgrwt>
<rscale>  0 0.79618822E+02</rscale>
<asrwt>0</asrwt>
<pdfrwt beam="1">  1        1 0.66617635E-02 0.79618822E+02</pdfrwt>
<pdfrwt beam="2">  1       -2 0.56306117E-02 0.79618822E+02</pdfrwt>
<totfact> 0.13034054E+05</totfact>
</mgrwt>
</event>
<event>
 8    1  0.1241100E-020  0.7847534E+02  0.7818608E-02  0.1333435E+00
         -2   -1    0    0    0  501 -0.00000000000E+00  0.00000000000E+00  0.19913182112E+02  0.19913182275E+02  0.25500000000E-02 0.  1.
          1   -1    0    0  501    0  0.00000000000E+00 -0.00000000000E+00 -0.77315358093E+02  0.77315358257E+02  0.50400000000E-02 0. -1.
        -24    2    1    2    0    0  0.00000000000E+00  0.35527136788E-14 -0.57402175981E+02  0.97228540532E+02  0.78475341902E+02 0.  0.
         66    2    3    3    0    0  0.17014575493E+02  0.26656879865E+02  0.47739970791E-02  0.31687300895E+02  0.19999979631E+01 0.  0.
         13    1    3    3    0    0 -0.17014575493E+02 -0.26656879865E+02 -0.57406949978E+02  0.65541239637E+02  0.10566000000E+00 0. -1.
         13    1    4    4    0    0  0.25722194714E+01  0.52174842480E+01 -0.38619493960E-01  0.58181707080E+01  0.10566000000E+00 0. -1.
        -13    1    4    4    0    0  0.72406788914E+01  0.98743617804E+01  0.21226850346E-01  0.12245083340E+02  0.10566000000E+00 0.  1.
         14    1    4    4    0    0  0.72016771305E+01  0.11565033836E+02  0.22166640693E-01  0.13624046847E+02  0.00000000000E+00 0. -1.
<mgrwt>
<rscale>  0 0.78475342E+02</rscale>
<asrwt>0</asrwt>
<pdfrwt beam="1">  1        1 0.11894670E-01 0.78475342E+02</pdfrwt>
<pdfrwt beam="2">  1       -2 0.30635665E-02 0.78475342E+02</pdfrwt>
<totfact> 0.14850107E+05</totfact>
</mgrwt>
</event>
<event>
 8    1  0.1241100E-020  0.7963989E+02  0.7818608E-02  0.1330076E+00
          1   -1    0    0  501    0  0.00000000000E+00  0.00000000000E+00  0.77115992156E+02  0.77115992320E+02  0.50400000000E-02 0. -1.
         -2   -1    0    0    0  501 -0.00000000000E+00 -0.00000000000E+00 -0.20561595826E+02  0.20561595984E+02  0.25500000000E-02 0.  1.
        -24    2    1    2    0    0  0.00000000000E+00  0.00000000000E+00  0.56554396330E+02  0.97677588305E+02  0.79639886444E+02 0.  0.
         66    2    3    3    0    0  0.26775900069E+02 -0.28927221840E+02  0.35000414161E+02  0.52751890767E+02  0.20000000521E+01 0.  0.
         13    1    3    3    0    0 -0.26775900069E+02  0.28927221840E+02  0.21553982169E+02  0.44925697537E+02  0.10566000000E+00 0. -1.
         13    1    4    4    0    0  0.58051636618E+01 -0.66290186486E+01  0.68373161996E+01  0.11153648293E+02  0.10566000000E+00 0. -1.
        -13    1    4    4    0    0  0.12105183269E+02 -0.13229233288E+02  0.16545255727E+02  0.24398867319E+02  0.10566000000E+00 0.  1.
         14    1    4    4    0    0  0.88655531380E+01 -0.90689699037E+01  0.11617842234E+02  0.17199375155E+02  0.00000000000E+00 0. -1.
<mgrwt>
<rscale>  0 0.79639886E+02</rscale>
<asrwt>0</asrwt>
<pdfrwt beam="1">  1        1 0.11863999E-01 0.79639886E+02</pdfrwt>
<pdfrwt beam="2">  1       -2 0.31633224E-02 0.79639886E+02</pdfrwt>
<totfact> 0.14260415E+05</totfact>
</mgrwt>
</event>
<event>
 8    1  0.1417576E-020  0.7548288E+02  0.7818608E-02  0.1342382E+00
          1   -1    0    0  501    0  0.00000000000E+00  0.00000000000E+00  0.57522156229E+02  0.57522156450E+02  0.50400000000E-02 0. -1.
         -2   -1    0    0    0  501 -0.00000000000E+00 -0.00000000000E+00 -0.24762914464E+02  0.24762914595E+02  0.25500000000E-02 0.  1.
        -24    2    1    2    0    0  0.17763568394E-14  0.00000000000E+00  0.32759241765E+02  0.82285071045E+02  0.75482878826E+02 0.  0.
         66    2    3    3    0    0 -0.95013421546E+01 -0.60231360665E+01 -0.22850922374E+02  0.25548352860E+02  0.20000024243E+01 0.  0.
         13    1    3    3    0    0  0.95013421546E+01  0.60231360665E+01  0.55610164139E+02  0.56736718185E+02  0.10566000000E+00 0. -1.
         13    1    4    4    0    0 -0.16876356936E+01 -0.44696440581E+00 -0.37239198635E+01  0.41141991444E+01  0.10566000000E+00 0. -1.
        -13    1    4    4    0    0 -0.49907032681E+01 -0.29780315325E+01 -0.12257278978E+02  0.13565686230E+02  0.10566000000E+00 0.  1.
         14    1    4    4    0    0 -0.28230031928E+01 -0.25981401281E+01 -0.68697235325E+01  0.78684674852E+01  0.00000000000E+00 0. -1.
<mgrwt>
<rscale>  0 0.75482879E+02</rscale>
<asrwt>0</asrwt>
<pdfrwt beam="1">  1        1 0.88495625E-02 0.75482879E+02</pdfrwt>
<pdfrwt beam="2">  1       -2 0.38096792E-02 0.75482879E+02</pdfrwt>
<totfact> 0.15779507E+05</totfact>
</mgrwt>
</event>
<event>
 8    1  0.1241100E-020  0.8134880E+02  0.7818608E-02  0.1325267E+00
          1   -1    0    0  501    0  0.00000000000E+00  0.00000000000E+00  0.17862259375E+02  0.17862260086E+02  0.50400000000E-02 0. -1.
         -2   -1    0    0    0  501 -0.00000000000E+00 -0.00000000000E+00 -0.92620247221E+02  0.92620247256E+02  0.25500000000E-02 0.  1.
        -24    2    1    2    0    0  0.00000000000E+00 -0.35527136788E-14 -0.74757987846E+02  0.11048250734E+03  0.81348802583E+02 0.  0.
         66    2    3    3    0    0 -0.70550120647E+01 -0.26646976158E+02 -0.77976929939E+02  0.82729898711E+02  0.20000011027E+01 0.  0.
         13    1    3    3    0    0  0.70550120647E+01  0.26646976158E+02  0.32189420929E+01  0.27752608631E+02  0.10566000000E+00 0. -1.
         13    1    4    4    0    0 -0.80204815329E+00 -0.34126871457E+01 -0.11725330855E+02  0.12238638098E+02  0.10566000000E+00 0.  1.
        -13    1    4    4    0    0 -0.17047156795E+01 -0.49505393566E+01 -0.14414248058E+02  0.15336088373E+02  0.10566000000E+00 0. -1.
        -14    1    4    4    0    0 -0.45482482319E+01 -0.18283749656E+02 -0.51837351026E+02  0.55155172241E+02  0.00000000000E+00 0.  1.
<mgrwt>
<rscale>  0 0.81348803E+02</rscale>
<asrwt>0</asrwt>
<pdfrwt beam="1">  1        1 0.27480400E-02 0.81348803E+02</pdfrwt>
<pdfrwt beam="2">  1       -2 0.14249269E-01 0.81348803E+02</pdfrwt>
<totfact> 0.10359414E+05</totfact>
</mgrwt>
</event>
<event>
 8    1  0.1241100E-020  0.7968775E+02  0.7818608E-02  0.1329940E+00
          1   -1    0    0  501    0  0.00000000000E+00  0.00000000000E+00  0.26514785646E+02  0.26514786125E+02  0.50400000000E-02 0. -1.
         -2   -1    0    0    0  501 -0.00000000000E+00 -0.00000000000E+00 -0.59873557379E+02  0.59873557433E+02  0.25500000000E-02 0.  1.
        -24    2    1    2    0    0  0.00000000000E+00  0.00000000000E+00 -0.33358771733E+02  0.86388343558E+02  0.79687754713E+02 0.  0.
         66    2    3    3    0    0  0.98838222058E+01  0.14390367273E+02 -0.55486754111E+02  0.58202684442E+02  0.19999957274E+01 0.  0.
         13    1    3    3    0    0 -0.98838222058E+01 -0.14390367273E+02  0.22127982378E+02  0.28185659116E+02  0.10566000000E+00 0. -1.
         13    1    4    4    0    0  0.32570581909E+01  0.58536545925E+01 -0.20332417446E+02  0.21407757084E+02  0.10566000000E+00 0. -1.
        -13    1    4    4    0    0  0.32969620200E+01  0.48654942745E+01 -0.20424955353E+02  0.21254010406E+02  0.10566000000E+00 0.  1.
        -14    1    4    4    0    0  0.33298019949E+01  0.36712184056E+01 -0.14729381312E+02  0.15540916953E+02  0.00000000000E+00 0.  1.
<mgrwt>
<rscale>  0 0.79687755E+02</rscale>
<asrwt>0</asrwt>
<pdfrwt beam="1">  1        1 0.40791979E-02 0.79687755E+02</pdfrwt>
<pdfrwt beam="2">  1       -2 0.92113165E-02 0.79687755E+02</pdfrwt>
<totfact> 0.11961315E+05</totfact>
</mgrwt>
</event>
<event>
 8    1  0.1241100E-020  0.8128555E+02  0.7818608E-02  0.1325442E+00
         -2   -1    0    0    0  501 -0.00000000000E+00  0.00000000000E+00  0.10634634818E+02  0.10634635124E+02  0.25500000000E-02 0.  1.
          1   -1    0    0  501    0  0.00000000000E+00 -0.00000000000E+00 -0.15532600274E+03  0.15532600282E+03  0.50400000000E-02 0. -1.
        -24    2    1    2    0    0  0.35527136788E-14  0.88817841970E-15 -0.14469136792E+03  0.16596063794E+03  0.81285554657E+02 0.  0.
         66    2    3    3    0    0  0.28099307134E+02  0.42850057665E+01 -0.13148483325E+02  0.31381761490E+02  0.20000011584E+01 0.  0.
         13    1    3    3    0    0 -0.28099307134E+02 -0.42850057665E+01 -0.13154288460E+03  0.13457887645E+03  0.10566000000E+00 0. -1.
         13    1    4    4    0    0  0.14337024422E+02  0.22539190678E+01 -0.76247113921E+01  0.16394444433E+02  0.10566000000E+00 0. -1.
        -13    1    4    4    0    0  0.67788908599E+01  0.12373936494E+01 -0.24214287932E+01  0.73047235246E+01  0.10566000000E+00 0.  1.
         14    1    4    4    0    0  0.69833918521E+01  0.79369304928E+00 -0.31023431395E+01  0.76825935316E+01  0.00000000000E+00 0. -1.
<mgrwt>
<rscale>  0 0.81285555E+02</rscale>
<asrwt>0</asrwt>
<pdfrwt beam="1">  1        1 0.23896307E-01 0.81285555E+02</pdfrwt>
<pdfrwt beam="2">  1       -2 0.16360978E-02 0.81285555E+02</pdfrwt>
<totfact> 0.15228016E+05</totfact>
</mgrwt>
</event>
<event>
 8    1  0.1241100E-020  0.8018481E+02  0.7818608E-02  0.1328528E+00
         -2   -1    0    0    0  501 -0.00000000000E+00  0.00000000000E+00  0.93308076248E+02  0.93308076283E+02  0.25500000000E-02 0.  1.
          1   -1    0    0  501    0  0.00000000000E+00 -0.00000000000E+00 -0.17226816377E+02  0.17226817115E+02  0.50400000000E-02 0. -1.
        -24    2    1    2    0    0  0.00000000000E+00  0.17763568394E-14  0.76081259871E+02  0.11053489340E+03  0.80184814989E+02 0.  0.
         66    2    3    3    0    0 -0.25953638752E+02  0.84082132008E+01  0.78515835500E+02  0.83144607962E+02  0.19999988102E+01 0.  0.
         13    1    3    3    0    0  0.25953638752E+02 -0.84082132008E+01 -0.24345756294E+01  0.27390285435E+02  0.10566000000E+00 0. -1.
         13    1    4    4    0    0 -0.21520297731E+02  0.68656381805E+01  0.67105839846E+02  0.70805826790E+02  0.10566000000E+00 0. -1.
        -13    1    4    4    0    0 -0.25469889472E+01  0.90375467223E+00  0.66417338930E+01  0.71713121774E+01  0.10566000000E+00 0.  1.
         14    1    4    4    0    0 -0.18863520739E+01  0.63882034809E+00  0.47682617615E+01  0.51674689946E+01  0.00000000000E+00 0. -1.
<mgrwt>
<rscale>  0 0.80184815E+02</rscale>
<asrwt>0</asrwt>
<pdfrwt beam="1">  1        1 0.26502794E-02 0.80184815E+02</pdfrwt>
<pdfrwt beam="2">  1       -2 0.14355089E-01 0.80184815E+02</pdfrwt>
<totfact> 0.10729397E+05</totfact>
</mgrwt>
</event>
<event>
 8    1  0.1241100E-020  0.7655904E+02  0.7818608E-02  0.1339110E+00
         -2   -1    0    0    0  501 -0.00000000000E+00  0.00000000000E+00  0.96213795001E+01  0.96213798380E+01  0.25500000000E-02 0.  1.
          1   -1    0    0  501    0  0.00000000000E+00 -0.00000000000E+00 -0.15229847539E+03  0.15229847547E+03  0.50400000000E-02 0. -1.
        -24    2    1    2    0    0  0.00000000000E+00  0.00000000000E+00 -0.14267709589E+03  0.16191985531E+03  0.76559035081E+02 0.  0.
         66    2    3    3    0    0  0.19543377494E+02 -0.16066159640E+02 -0.10703695244E+02  0.27543314459E+02  0.19999975122E+01 0.  0.
         13    1    3    3    0    0 -0.19543377494E+02  0.16066159640E+02 -0.13197340065E+03  0.13437654085E+03  0.10566000000E+00 0. -1.
         13    1    4    4    0    0  0.10503149973E+02 -0.98579773927E+01 -0.60039236177E+01  0.15606221211E+02  0.10566000000E+00 0. -1.
        -13    1    4    4    0    0  0.41868342674E+01 -0.30808114497E+01 -0.22169954771E+01  0.56521865992E+01  0.10566000000E+00 0.  1.
        -14    1    4    4    0    0  0.48533932536E+01 -0.31273707975E+01 -0.24827761494E+01  0.62849066490E+01  0.00000000000E+00 0.  1.
<mgrwt>
<rscale>  0 0.76559035E+02</rscale>
<asrwt>0</asrwt>
<pdfrwt beam="1">  1        1 0.23430533E-01 0.76559035E+02</pdfrwt>
<pdfrwt beam="2">  1       -2 0.14802124E-02 0.76559035E+02</pdfrwt>
<totfact> 0.17800378E+05</totfact>
</mgrwt>
</event>
<event>
 8    1  0.1530063E-020  0.8136647E+02  0.7818608E-02  0.1325218E+00
          1   -1    0    0  501    0  0.00000000000E+00  0.00000000000E+00  0.39806596117E+02  0.39806596436E+02  0.50400000000E-02 0. -1.
         -2   -1    0    0    0  501 -0.00000000000E+00 -0.00000000000E+00 -0.41579181184E+02  0.41579181263E+02  0.25500000000E-02 0.  1.
        -24    2    1    2    0    0  0.00000000000E+00  0.35527136788E-14 -0.17725850674E+01  0.81385777699E+02  0.81366471927E+02 0.  0.
         66    2    3    3    0    0 -0.90364121525E+01 -0.27619747873E+02 -0.29329703580E+02  0.41336893046E+02  0.19999993545E+01 0.  0.
         13    1    3    3    0    0  0.90364121525E+01  0.27619747873E+02  0.27557118513E+02  0.40048884653E+02  0.10566000000E+00 0. -1.
         13    1    4    4    0    0 -0.34916719758E+01 -0.10762962211E+02 -0.10615835379E+02  0.15515806572E+02  0.10566000000E+00 0.  1.
        -13    1    4    4    0    0 -0.49242391819E+01 -0.13557551477E+02 -0.14845871795E+02  0.20699430112E+02  0.10566000000E+00 0. -1.
         14    1    4    4    0    0 -0.62050099485E+00 -0.32992341846E+01 -0.38679964068E+01  0.51216563622E+01  0.00000000000E+00 0. -1.
<mgrwt>
<rscale>  0 0.81366472E+02</rscale>
<asrwt>0</asrwt>
<pdfrwt beam="1">  1        1 0.61240917E-02 0.81366472E+02</pdfrwt>
<pdfrwt beam="2">  1       -2 0.63967971E-02 0.81366472E+02</pdfrwt>
<totfact> 0.12095182E+05</totfact>
</mgrwt>
</event>
<event>
 8    1  0.1241100E-020  0.7954290E+02  0.7818608E-02  0.1330354E+00
         -2   -1    0    0    0  501 -0.00000000000E+00  0.00000000000E+00  0.64529785180E+01  0.64529790218E+01  0.25500000000E-02 0.  1.
          1   -1    0    0  501    0  0.00000000000E+00 -0.00000000000E+00 -0.24512216559E+03  0.24512216564E+03  0.50400000000E-02 0. -1.
        -24    2    1    2    0    0  0.00000000000E+00  0.00000000000E+00 -0.23866918707E+03  0.25157514466E+03  0.79542897576E+02 0.  0.
         66    2    3    3    0    0  0.19609347525E+01  0.38237265586E+02 -0.15315359870E+03  0.15787956972E+03  0.19999992068E+01 0.  0.
         13    1    3    3    0    0 -0.19609347525E+01 -0.38237265586E+02 -0.85515588373E+02  0.93695574941E+02  0.10566000000E+00 0. -1.
         13    1    4    4    0    0  0.10918762387E+01  0.22968767035E+02 -0.89764183600E+02  0.92662701635E+02  0.10566000000E+00 0. -1.
        -13    1    4    4    0    0 -0.82462352933E-01  0.71898490235E+01 -0.28927614156E+02  0.29808031700E+02  0.10566000000E+00 0.  1.
         14    1    4    4    0    0  0.95152086672E+00  0.80786495279E+01 -0.34461800940E+02  0.35408836386E+02  0.00000000000E+00 0. -1.
<mgrwt>
<rscale>  0 0.79542898E+02</rscale>
<asrwt>0</asrwt>
<pdfrwt beam="1">  1        1 0.37711095E-01 0.79542898E+02</pdfrwt>
<pdfrwt beam="2">  1       -2 0.99276615E-03 0.79542898E+02</pdfrwt>
<totfact> 0.17613418E+05</totfact>
</mgrwt>
</event>
<event>
 8    1  0.1241100E-020  0.7872452E+02  0.7818608E-02  0.1332711E+00
          1   -1    0    0  501    0  0.00000000000E+00  0.00000000000E+00  0.22909618962E+02  0.22909619516E+02  0.50400000000E-02 0. -1.
         -2   -1    0    0    0  501 -0.00000000000E+00 -0.00000000000E+00 -0.67630438578E+02  0.67630438626E+02  0.25500000000E-02 0.  1.
        -24    2    1    2    0    0  0.00000000000E+00  0.00000000000E+00 -0.44720819617E+02  0.90540058143E+02  0.78724522363E+02 0.  0.
         66    2    3    3    0    0 -0.14875214443E+02 -0.19700958207E+01 -0.64194811727E+02  0.65955493574E+02  0.19999994414E+01 0.  0.
         13    1    3    3    0    0  0.14875214443E+02  0.19700958207E+01  0.19473992110E+02  0.24584564568E+02  0.10566000000E+00 0. -1.
         13    1    4    4    0    0 -0.25317745005E+01  0.28606984993E+00 -0.11838692570E+02  0.12110223940E+02  0.10566000000E+00 0. -1.
        -13    1    4    4    0    0 -0.37030384620E+01 -0.36827516541E+00 -0.16439697241E+02  0.16855946424E+02  0.10566000000E+00 0.  1.
         14    1    4    4    0    0 -0.86404014802E+01 -0.18878905052E+01 -0.35916421916E+02  0.36989323210E+02  0.00000000000E+00 0. -1.
<mgrwt>
<rscale>  0 0.78724522E+02</rscale>
<asrwt>0</asrwt>
<pdfrwt beam="1">  1        1 0.35245568E-02 0.78724522E+02</pdfrwt>
<pdfrwt beam="2">  1       -2 0.10404683E-01 0.78724522E+02</pdfrwt>
<totfact> 0.12051790E+05</totfact>
</mgrwt>
</event>
<event>
 8    1  0.1241100E-020  0.7906857E+02  0.7818608E-02  0.1331716E+00
         -2   -1    0    0    0  501 -0.00000000000E+00  0.00000000000E+00  0.10519442575E+02  0.10519442884E+02  0.25500000000E-02 0.  1.
          1   -1    0    0  501    0  0.00000000000E+00 -0.00000000000E+00 -0.14857818585E+03  0.14857818594E+03  0.50400000000E-02 0. -1.
        -24    2    1    2    0    0 -0.71054273576E-14  0.00000000000E+00 -0.13805874328E+03  0.15909762882E+03  0.79068570884E+02 0.  0.
         66    2    3    3    0    0  0.33797031963E+02 -0.18301525494E+02 -0.50657089534E+02  0.63618597375E+02  0.20000017689E+01 0.  0.
         13    1    3    3    0    0 -0.33797031963E+02  0.18301525494E+02 -0.87401653744E+02  0.95479031447E+02  0.10566000000E+00 0. -1.
         13    1    4    4    0    0  0.11549719233E+02 -0.56680326671E+01 -0.15706369610E+02  0.20303295768E+02  0.10566000000E+00 0. -1.
        -13    1    4    4    0    0  0.11780205905E+02 -0.66363580676E+01 -0.18225015137E+02  0.22693101162E+02  0.10566000000E+00 0.  1.
         14    1    4    4    0    0  0.10467106825E+02 -0.59971347598E+01 -0.16725704787E+02  0.20622200446E+02  0.00000000000E+00 0. -1.
<mgrwt>
<rscale>  0 0.79068571E+02</rscale>
<asrwt>0</asrwt>
<pdfrwt beam="1">  1        1 0.22858181E-01 0.79068571E+02</pdfrwt>
<pdfrwt beam="2">  1       -2 0.16183759E-02 0.79068571E+02</pdfrwt>
<totfact> 0.16261515E+05</totfact>
</mgrwt>
</event>
<event>
 8    1  0.1241100E-020  0.7880685E+02  0.7818608E-02  0.1332472E+00
          1   -1    0    0  501    0  0.00000000000E+00  0.00000000000E+00  0.70129939974E+02  0.70129940155E+02  0.50400000000E-02 0. -1.
         -2   -1    0    0    0  501 -0.00000000000E+00 -0.00000000000E+00 -0.22139331393E+02  0.22139331540E+02  0.25500000000E-02 0.  1.
        -24    2    1    2    0    0  0.00000000000E+00  0.00000000000E+00  0.47990608581E+02  0.92269271695E+02  0.78806852412E+02 0.  0.
         66    2    3    3    0    0  0.21883787124E+02  0.31005222910E+02  0.11708601847E+02  0.39765755972E+02  0.20000010391E+01 0.  0.
         13    1    3    3    0    0 -0.21883787124E+02 -0.31005222910E+02  0.36282006734E+02  0.52503515723E+02  0.10566000000E+00 0. -1.
         13    1    4    4    0    0  0.18713563667E+01  0.22116631068E+01  0.10671346495E+01  0.30892343298E+01  0.10566000000E+00 0.  1.
        -13    1    4    4    0    0  0.17832216877E+02  0.26370652791E+02  0.98365467526E+01  0.33319185215E+02  0.10566000000E+00 0.  1.
        -14    1    4    4    0    0  0.21802138802E+01  0.24229070127E+01  0.80492044530E+00  0.33573364262E+01  0.00000000000E+00 0.  1.
<mgrwt>
<rscale>  0 0.78806852E+02</rscale>
<asrwt>0</asrwt>
<pdfrwt beam="1">  1        1 0.10789221E-01 0.78806852E+02</pdfrwt>
<pdfrwt beam="2">  1       -2 0.34060511E-02 0.78806852E+02</pdfrwt>
<totfact> 0.14456764E+05</totfact>
</mgrwt>
</event>
<event>
 8    1  0.1241100E-020  0.8136218E+02  0.7818608E-02  0.1325230E+00
         -2   -1    0    0    0  501 -0.00000000000E+00  0.00000000000E+00  0.93544809629E+02  0.93544809664E+02  0.25500000000E-02 0.  1.
          1   -1    0    0  501    0  0.00000000000E+00 -0.00000000000E+00 -0.17691531549E+02  0.17691532267E+02  0.50400000000E-02 0. -1.
        -24    2    1    2    0    0  0.35527136788E-14  0.00000000000E+00  0.75853278080E+02  0.11123634193E+03  0.81362177765E+02 0.  0.
         66    2    3    3    0    0  0.26641975657E+02 -0.17260049389E+02  0.72677941648E+02  0.79333393834E+02  0.20000007712E+01 0.  0.
         13    1    3    3    0    0 -0.26641975657E+02  0.17260049389E+02  0.31753364317E+01  0.31902948097E+02  0.10566000000E+00 0. -1.
         13    1    4    4    0    0  0.13015658033E+02 -0.80592200834E+01  0.34835365972E+02  0.38050916793E+02  0.10566000000E+00 0. -1.
        -13    1    4    4    0    0  0.12536111087E+02 -0.85733368107E+01  0.33966471803E+02  0.37207372335E+02  0.10566000000E+00 0.  1.
         14    1    4    4    0    0  0.10902065374E+01 -0.62749249436E+00  0.38761038734E+01  0.40751047057E+01  0.00000000000E+00 0. -1.
<mgrwt>
<rscale>  0 0.81362178E+02</rscale>
<asrwt>0</asrwt>
<pdfrwt beam="1">  1        1 0.27217742E-02 0.81362178E+02</pdfrwt>
<pdfrwt beam="2">  1       -2 0.14391509E-01 0.81362178E+02</pdfrwt>
<totfact> 0.10330590E+05</totfact>
</mgrwt>
</event>
<event>
 8    1  0.1241100E-020  0.7746695E+02  0.7818608E-02  0.1336398E+00
         -2   -1    0    0    0  501 -0.00000000000E+00  0.00000000000E+00  0.15359325810E+03  0.15359325812E+03  0.25500000000E-02 0.  1.
          1   -1    0    0  501    0  0.00000000000E+00 -0.00000000000E+00 -0.97678888223E+01  0.97678901225E+01  0.50400000000E-02 0. -1.
        -24    2    1    2    0    0  0.00000000000E+00  0.00000000000E+00  0.14382536927E+03  0.16336114824E+03  0.77466947194E+02 0.  0.
         66    2    3    3    0    0 -0.90836043171E+01  0.29809575477E+02  0.12037786011E+03  0.12436218021E+03  0.20000009384E+01 0.  0.
         13    1    3    3    0    0  0.90836043171E+01 -0.29809575477E+02  0.23447509160E+02  0.38998968029E+02  0.10566000000E+00 0. -1.
         13    1    4    4    0    0 -0.67839558659E+01  0.22694642274E+02  0.93878547268E+02  0.96820770738E+02  0.10566000000E+00 0. -1.
        -13    1    4    4    0    0 -0.54215380887E+00  0.10788495920E+01  0.46886272849E+01  0.48427509792E+01  0.10566000000E+00 0.  1.
        -14    1    4    4    0    0 -0.17574946423E+01  0.60360836107E+01  0.21810685562E+02  0.22698658495E+02  0.00000000000E+00 0.  1.
<mgrwt>
<rscale>  0 0.77466947E+02</rscale>
<asrwt>0</asrwt>
<pdfrwt beam="1">  1        1 0.15027521E-02 0.77466947E+02</pdfrwt>
<pdfrwt beam="2">  1       -2 0.23629734E-01 0.77466947E+02</pdfrwt>
<totfact> 0.10186176E+05</totfact>
</mgrwt>
</event>
<event>
 8    1  0.1241100E-020  0.8710900E+02  0.7818608E-02  0.1310008E+00
          1   -1    0    0  501    0  0.00000000000E+00  0.00000000000E+00  0.19125649647E+02  0.19125650311E+02  0.50400000000E-02 0. -1.
         -2   -1    0    0    0  501 -0.00000000000E+00 -0.00000000000E+00 -0.99185879862E+02  0.99185879895E+02  0.25500000000E-02 0.  1.
        -24    2    1    2    0    0  0.35527136788E-14 -0.35527136788E-14 -0.80060230215E+02  0.11831153021E+03  0.87108999062E+02 0.  0.
         66    2    3    3    0    0 -0.14456745330E+02  0.26182920114E+02 -0.83010834331E+02  0.88257245654E+02  0.20000006889E+01 0.  0.
         13    1    3    3    0    0  0.14456745330E+02 -0.26182920114E+02  0.29506041166E+01  0.30054284552E+02  0.10566000000E+00 0. -1.
         13    1    4    4    0    0 -0.69096156677E+00  0.15414477961E+01 -0.36352072934E+01  0.40099108838E+01  0.10566000000E+00 0. -1.
        -13    1    4    4    0    0 -0.82601156657E+01  0.15309981232E+02 -0.49434403347E+02  0.52406072496E+02  0.10566000000E+00 0.  1.
         14    1    4    4    0    0 -0.55056680978E+01  0.93314910861E+01 -0.29941223691E+02  0.31841262274E+02  0.00000000000E+00 0. -1.
<mgrwt>
<rscale>  0 0.87108999E+02</rscale>
<asrwt>0</asrwt>
<pdfrwt beam="1">  1        1 0.29424077E-02 0.87108999E+02</pdfrwt>
<pdfrwt beam="2">  1       -2 0.15259366E-01 0.87108999E+02</pdfrwt>
<totfact> 0.85496129E+04</totfact>
</mgrwt>
</event>
<event>
 8    1  0.1241100E-020  0.7884479E+02  0.7818608E-02  0.1332362E+00
          1   -1    0    0  501    0  0.00000000000E+00  0.00000000000E+00  0.81585327408E+01  0.81585342975E+01  0.50400000000E-02 0. -1.
         -2   -1    0    0    0  501 -0.00000000000E+00 -0.00000000000E+00 -0.19049076065E+03  0.19049076067E+03  0.25500000000E-02 0.  1.
        -24    2    1    2    0    0  0.00000000000E+00  0.71054273576E-14 -0.18233222791E+03  0.19864929497E+03  0.78844790923E+02 0.  0.
         66    2    3    3    0    0 -0.11352432476E+02 -0.37112513162E+02 -0.10829483134E+03  0.11505645070E+03  0.19999995034E+01 0.  0.
         13    1    3    3    0    0  0.11352432476E+02  0.37112513162E+02 -0.74037396573E+02  0.83592844261E+02  0.10566000000E+00 0. -1.
         13    1    4    4    0    0 -0.11880797308E+01 -0.44704735082E+01 -0.12663870714E+02  0.13482635214E+02  0.10566000000E+00 0. -1.
        -13    1    4    4    0    0 -0.92193219179E+01 -0.30868411096E+02 -0.89469607804E+02  0.95092989147E+02  0.10566000000E+00 0.  1.
         14    1    4    4    0    0 -0.94503082775E+00 -0.17736285577E+01 -0.61613528196E+01  0.64808263434E+01  0.00000000000E+00 0. -1.
<mgrwt>
<rscale>  0 0.78844791E+02</rscale>
<asrwt>0</asrwt>
<pdfrwt beam="1">  1        1 0.12551592E-02 0.78844791E+02</pdfrwt>
<pdfrwt beam="2">  1       -2 0.29306268E-01 0.78844791E+02</pdfrwt>
<totfact> 0.90057889E+04</totfact>
</mgrwt>
</event>
<event>
 8    1  0.1241100E-020  0.8074322E+02  0.7818608E-02  0.1326955E+00
         -2   -1    0    0    0  501 -0.00000000000E+00  0.00000000000E+00  0.50651804318E+01  0.50651810737E+01  0.25500000000E-02 0.  1.
          1   -1    0    0  501    0  0.00000000000E+00 -0.00000000000E+00 -0.32177863104E+03  0.32177863108E+03  0.50400000000E-02 0. -1.
        -24    2    1    2    0    0  0.00000000000E+00  0.00000000000E+00 -0.31671345061E+03  0.32684381216E+03  0.80743221057E+02 0.  0.
         66    2    3    3    0    0 -0.35435042842E+02  0.14619934526E+02 -0.10749499801E+03  0.11414271479E+03  0.19999990707E+01 0.  0.
         13    1    3    3    0    0  0.35435042842E+02 -0.14619934526E+02 -0.20921845260E+03  0.21270109736E+03  0.10566000000E+00 0. -1.
         13    1    4    4    0    0 -0.29356066321E+01  0.15489589622E+01 -0.96869036112E+01  0.10240328402E+02  0.10566000000E+00 0. -1.
        -13    1    4    4    0    0 -0.24346650787E+02  0.98280775807E+01 -0.75170205553E+02  0.79623623884E+02  0.10566000000E+00 0.  1.
        -14    1    4    4    0    0 -0.81527854232E+01  0.32428979834E+01 -0.22637888847E+02  0.24278762508E+02  0.00000000000E+00 0.  1.
<mgrwt>
<rscale>  0 0.80743221E+02</rscale>
<asrwt>0</asrwt>
<pdfrwt beam="1">  1        1 0.49504389E-01 0.80743221E+02</pdfrwt>
<pdfrwt beam="2">  1       -2 0.77925883E-03 0.80743221E+02</pdfrwt>
<totfact> 0.17841044E+05</totfact>
</mgrwt>
</event>
<event>
 8    1  0.1241100E-020  0.8207611E+02  0.7818608E-02  0.1323261E+00
         -2   -1    0    0    0  501 -0.00000000000E+00  0.00000000000E+00  0.13198672051E+03  0.13198672053E+03  0.25500000000E-02 0.  1.
          1   -1    0    0  501    0  0.00000000000E+00 -0.00000000000E+00 -0.12759781307E+02  0.12759782302E+02  0.50400000000E-02 0. -1.
        -24    2    1    2    0    0  0.35527136788E-14  0.00000000000E+00  0.11922693920E+03  0.14474650284E+03  0.82076105243E+02 0.  0.
         66    2    3    3    0    0  0.29534229860E+02  0.40037624034E+01  0.10933673701E+03  0.11334382604E+03  0.19999982335E+01 0.  0.
         13    1    3    3    0    0 -0.29534229860E+02 -0.40037624034E+01  0.98902021885E+01  0.31402676800E+02  0.10566000000E+00 0. -1.
         13    1    4    4    0    0  0.95216684379E+00  0.32524294672E+00  0.45679409606E+01  0.46786379779E+01  0.10566000000E+00 0. -1.
        -13    1    4    4    0    0  0.16488771233E+02  0.23509504936E+01  0.62326898595E+02  0.64514029463E+02  0.10566000000E+00 0.  1.
         14    1    4    4    0    0  0.12093291784E+02  0.13275689631E+01  0.42441897457E+02  0.44151158594E+02  0.00000000000E+00 0. -1.
<mgrwt>
<rscale>  0 0.82076105E+02</rscale>
<asrwt>0</asrwt>
<pdfrwt beam="1">  1        1 0.19630434E-02 0.82076105E+02</pdfrwt>
<pdfrwt beam="2">  1       -2 0.20305649E-01 0.82076105E+02</pdfrwt>
<totfact> 0.92113832E+04</totfact>
</mgrwt>
</event>
<event>
 8    1  0.1241100E-020  0.7767704E+02  0.7818608E-02  0.1335776E+00
         -2   -1    0    0    0  501 -0.00000000000E+00  0.00000000000E+00  0.16897869520E+01  0.16897888760E+01  0.25500000000E-02 0.  1.
          1   -1    0    0  501    0  0.00000000000E+00 -0.00000000000E+00 -0.89267462923E+03  0.89267462925E+03  0.50400000000E-02 0. -1.
        -24    2    1    2    0    0  0.00000000000E+00 -0.35527136788E-14 -0.89098484228E+03  0.89436441812E+03  0.77677044423E+02 0.  0.
         66    2    3    3    0    0 -0.22693772724E+02  0.19142123277E+02 -0.73363347824E+03  0.73423668432E+03  0.19999999084E+01 0.  0.
         13    1    3    3    0    0  0.22693772724E+02 -0.19142123277E+02 -0.15735136404E+03  0.16012773381E+03  0.10566000000E+00 0. -1.
         13    1    4    4    0    0 -0.93433599577E+01  0.74359340736E+01 -0.27910142119E+03  0.27935677183E+03  0.10566000000E+00 0. -1.
        -13    1    4    4    0    0 -0.70403452039E+01  0.67259925931E+01 -0.25657524059E+03  0.25675994759E+03  0.10566000000E+00 0.  1.
        -14    1    4    4    0    0 -0.63100675623E+01  0.49801966108E+01 -0.19795681645E+03  0.19811996490E+03  0.00000000000E+00 0.  1.
<mgrwt>
<rscale>  0 0.77677044E+02</rscale>
<asrwt>0</asrwt>
<pdfrwt beam="1">  1        1 0.13733418E+00 0.77677044E+02</pdfrwt>
<pdfrwt beam="2">  1       -2 0.25996808E-03 0.77677044E+02</pdfrwt>
<totfact> 0.21196389E+05</totfact>
</mgrwt>
</event>
<event>
 8    1  0.1241100E-020  0.8368056E+02  0.7818608E-02  0.1318920E+00
         -2   -1    0    0    0  501 -0.00000000000E+00  0.00000000000E+00  0.59647120080E+02  0.59647120135E+02  0.25500000000E-02 0.  1.
          1   -1    0    0  501    0  0.00000000000E+00 -0.00000000000E+00 -0.29349433072E+02  0.29349433505E+02  0.50400000000E-02 0. -1.
        -24    2    1    2    0    0  0.00000000000E+00  0.00000000000E+00  0.30297687008E+02  0.88996553639E+02  0.83680563583E+02 0.  0.
         66    2    3    3    0    0  0.36233765713E+02 -0.17007963086E+02  0.28027802961E+02  0.48905156511E+02  0.20000021190E+01 0.  0.
         13    1    3    3    0    0 -0.36233765713E+02  0.17007963086E+02  0.22698840472E+01  0.40091397128E+02  0.10566000000E+00 0. -1.
         13    1    4    4    0    0  0.11742804667E+02 -0.51007255727E+01  0.93868416033E+01  0.15875604623E+02  0.10566000000E+00 0. -1.
        -13    1    4    4    0    0  0.94976715773E+01 -0.53334125905E+01  0.76546247371E+01  0.13313733479E+02  0.10566000000E+00 0.  1.
        -14    1    4    4    0    0  0.14993289469E+02 -0.65738249228E+01  0.10986336620E+02  0.19715818409E+02  0.00000000000E+00 0.  1.
<mgrwt>
<rscale>  0 0.83680564E+02</rscale>
<asrwt>0</asrwt>
<pdfrwt beam="1">  1        1 0.45152975E-02 0.83680564E+02</pdfrwt>
<pdfrwt beam="2">  1       -2 0.91764800E-02 0.83680564E+02</pdfrwt>
<totfact> 0.10577334E+05</totfact>
</mgrwt>
</event>
<event>
 8    1  0.1241100E-020  0.7934058E+02  0.7818608E-02  0.1330933E+00
          1   -1    0    0  501    0  0.00000000000E+00  0.00000000000E+00  0.52794823550E+02  0.52794823790E+02  0.50400000000E-02 0. -1.
         -2   -1    0    0    0  501 -0.00000000000E+00 -0.00000000000E+00 -0.29808452045E+02  0.29808452154E+02  0.25500000000E-02 0.  1.
        -24    2    1    2    0    0 -0.17763568394E-14  0.00000000000E+00  0.22986371505E+02  0.82603275944E+02  0.79340581808E+02 0.  0.
         66    2    3    3    0    0 -0.15909960544E+02  0.12940012646E+02 -0.23823462623E+02  0.31498065770E+02  0.20000010220E+01 0.  0.
         13    1    3    3    0    0  0.15909960544E+02 -0.12940012646E+02  0.46809834129E+02  0.51105210174E+02  0.10566000000E+00 0. -1.
         13    1    4    4    0    0 -0.95542160067E+01  0.76568112536E+01 -0.13662118232E+02  0.18345965243E+02  0.10566000000E+00 0. -1.
        -13    1    4    4    0    0 -0.18742202295E+01  0.19152158250E+01 -0.25633640648E+01  0.37098183903E+01  0.10566000000E+00 0.  1.
         14    1    4    4    0    0 -0.44815243077E+01  0.33679855671E+01 -0.75979803264E+01  0.94422821362E+01  0.00000000000E+00 0. -1.
<mgrwt>
<rscale>  0 0.79340582E+02</rscale>
<asrwt>0</asrwt>
<pdfrwt beam="1">  1        1 0.81222805E-02 0.79340582E+02</pdfrwt>
<pdfrwt beam="2">  1       -2 0.45859158E-02 0.79340582E+02</pdfrwt>
<totfact> 0.13577919E+05</totfact>
</mgrwt>
</event>
<event>
 8    1  0.1241100E-020  0.7970575E+02  0.7818608E-02  0.1329889E+00
          1   -1    0    0  501    0  0.00000000000E+00  0.00000000000E+00  0.62829135858E+02  0.62829136060E+02  0.50400000000E-02 0. -1.
         -2   -1    0    0    0  501 -0.00000000000E+00 -0.00000000000E+00 -0.25278901975E+02  0.25278902104E+02  0.25500000000E-02 0.  1.
        -24    2    1    2    0    0 -0.88817841970E-15  0.71054273576E-14  0.37550233882E+02  0.88108038164E+02  0.79705748378E+02 0.  0.
         66    2    3    3    0    0  0.50784946789E+01 -0.24520410302E+02 -0.15448983113E+02  0.29490892245E+02  0.20000041557E+01 0.  0.
         13    1    3    3    0    0 -0.50784946789E+01  0.24520410302E+02  0.52999216995E+02  0.58617145919E+02  0.10566000000E+00 0. -1.
         13    1    4    4    0    0  0.23090094157E+01 -0.76330170704E+01 -0.45487174957E+01  0.91813108525E+01  0.10566000000E+00 0. -1.
        -13    1    4    4    0    0  0.19322632452E+01 -0.93023679642E+01 -0.62628871307E+01  0.11379921363E+02  0.10566000000E+00 0.  1.
         14    1    4    4    0    0  0.83722201798E+00 -0.75850252671E+01 -0.46373784861E+01  0.89296600290E+01  0.00000000000E+00 0. -1.
<mgrwt>
<rscale>  0 0.79705748E+02</rscale>
<asrwt>0</asrwt>
<pdfrwt beam="1">  1        1 0.96660208E-02 0.79705748E+02</pdfrwt>
<pdfrwt beam="2">  1       -2 0.38890619E-02 0.79705748E+02</pdfrwt>
<totfact> 0.13775434E+05</totfact>
</mgrwt>
</event>
<event>
 8    1  0.1241100E-020  0.7963836E+02  0.7818608E-02  0.1330081E+00
          1   -1    0    0  501    0  0.00000000000E+00  0.00000000000E+00  0.53568069889E+02  0.53568070126E+02  0.50400000000E-02 0. -1.
         -2   -1    0    0    0  501 -0.00000000000E+00 -0.00000000000E+00 -0.29599111349E+02  0.29599111459E+02  0.25500000000E-02 0.  1.
        -24    2    1    2    0    0  0.00000000000E+00 -0.22204460493E-15  0.23968958540E+02  0.83167181584E+02  0.79638364619E+02 0.  0.
         66    2    3    3    0    0  0.33318241419E+02  0.14267535034E+01 -0.10682306874E+02  0.35074955647E+02  0.19999991602E+01 0.  0.
         13    1    3    3    0    0 -0.33318241419E+02 -0.14267535034E+01  0.34651265414E+02  0.48092225938E+02  0.10566000000E+00 0. -1.
         13    1    4    4    0    0  0.55871066104E+01  0.49672562517E+00 -0.17552609840E+01  0.58783162368E+01  0.10566000000E+00 0.  1.
        -13    1    4    4    0    0  0.55351915788E+01  0.76618198830E+00 -0.14415765452E+01  0.57718877003E+01  0.10566000000E+00 0. -1.
        -14    1    4    4    0    0  0.22195943230E+02  0.16384588991E+00 -0.74854693446E+01  0.23424751710E+02  0.00000000000E+00 0.  1.
<mgrwt>
<rscale>  0 0.79638365E+02</rscale>
<asrwt>0</asrwt>
<pdfrwt beam="1">  1        1 0.82412415E-02 0.79638365E+02</pdfrwt>
<pdfrwt beam="2">  1       -2 0.45537095E-02 0.79638365E+02</pdfrwt>
<totfact> 0.13468243E+05</totfact>
</mgrwt>
</event>
<event>
 8    1  0.1241100E-020  0.7931336E+02  0.7818608E-02  0.1331011E+00
          1   -1    0    0  501    0  0.00000000000E+00  0.00000000000E+00  0.41883293738E+01  0.41883324062E+01  0.50400000000E-02 0. -1.
         -2   -1    0    0    0  501 -0.00000000000E+00 -0.00000000000E+00 -0.37548420669E+03  0.37548420669E+03  0.25500000000E-02 0.  1.
        -24    2    1    2    0    0  0.17763568394E-14  0.22204460493E-15 -0.37129587731E+03  0.37967253910E+03  0.79313355989E+02 0.  0.
         66    2    3    3    0    0  0.10950769081E+02  0.84477397647E+00 -0.36804983890E+03  0.36821911534E+03  0.19999991341E+01 0.  0.
         13    1    3    3    0    0 -0.10950769081E+02 -0.84477397647E+00 -0.32460384106E+01  0.11453423765E+02  0.10566000000E+00 0. -1.
         13    1    4    4    0    0  0.82888486774E+01  0.77111471102E+00 -0.25856595012E+03  0.25869994464E+03  0.10566000000E+00 0. -1.
        -13    1    4    4    0    0  0.20804490583E+01 -0.21504657958E+00 -0.90364364350E+02  0.90388627724E+02  0.10566000000E+00 0.  1.
        -14    1    4    4    0    0  0.58147134572E+00  0.28870584503E+00 -0.19119524432E+02  0.19130542975E+02  0.00000000000E+00 0.  1.
<mgrwt>
<rscale>  0 0.79313356E+02</rscale>
<asrwt>0</asrwt>
<pdfrwt beam="1">  1        1 0.64435890E-03 0.79313356E+02</pdfrwt>
<pdfrwt beam="2">  1       -2 0.57766775E-01 0.79313356E+02</pdfrwt>
<totfact> 0.62955287E+04</totfact>
</mgrwt>
</event>
<event>
 8    1  0.1241100E-020  0.8324739E+02  0.7818608E-02  0.1320080E+00
          1   -1    0    0  501    0  0.00000000000E+00  0.00000000000E+00  0.90697786192E+02  0.90697786332E+02  0.50400000000E-02 0. -1.
         -2   -1    0    0    0  501 -0.00000000000E+00 -0.00000000000E+00 -0.19102252187E+02  0.19102252358E+02  0.25500000000E-02 0.  1.
        -24    2    1    2    0    0 -0.35527136788E-14  0.00000000000E+00  0.71595534004E+02  0.10980003869E+03  0.83247390390E+02 0.  0.
         66    2    3    3    0    0  0.24459304191E+02  0.27435677236E+02  0.10122218703E+02  0.38176344251E+02  0.20000004950E+01 0.  0.
         13    1    3    3    0    0 -0.24459304191E+02 -0.27435677236E+02  0.61473315301E+02  0.71623694438E+02  0.10566000000E+00 0. -1.
         13    1    4    4    0    0  0.15761220622E+01  0.20490765680E+01  0.52172461704E+00  0.26393628299E+01  0.10566000000E+00 0. -1.
        -13    1    4    4    0    0  0.16120049881E+02  0.18551274797E+02  0.63100465447E+01  0.25373877437E+02  0.10566000000E+00 0.  1.
         14    1    4    4    0    0  0.67631322473E+01  0.68353258715E+01  0.32904475417E+01  0.10163103984E+02  0.00000000000E+00 0. -1.
<mgrwt>
<rscale>  0 0.83247390E+02</rscale>
<asrwt>0</asrwt>
<pdfrwt beam="1">  1        1 0.13953506E-01 0.83247390E+02</pdfrwt>
<pdfrwt beam="2">  1       -2 0.29388080E-02 0.83247390E+02</pdfrwt>
<totfact> 0.12979263E+05</totfact>
</mgrwt>
</event>
<event>
 8    1  0.1241100E-020  0.7813064E+02  0.7818608E-02  0.1334442E+00
         -2   -1    0    0    0  501 -0.00000000000E+00  0.00000000000E+00  0.14304168808E+02  0.14304169035E+02  0.25500000000E-02 0.  1.
          1   -1    0    0  501    0  0.00000000000E+00 -0.00000000000E+00 -0.10668912218E+03  0.10668912230E+03  0.50400000000E-02 0. -1.
        -24    2    1    2    0    0  0.00000000000E+00  0.00000000000E+00 -0.92384953373E+02  0.12099329134E+03  0.78130640202E+02 0.  0.
         66    2    3    3    0    0 -0.38658336535E+02  0.24886966746E+01 -0.38726127809E+02  0.54812166234E+02  0.19999993355E+01 0.  0.
         13    1    3    3    0    0  0.38658336535E+02 -0.24886966746E+01 -0.53658825564E+02  0.66181125102E+02  0.10566000000E+00 0. -1.
         13    1    4    4    0    0 -0.78325776394E+01  0.43154253971E+00 -0.68420291918E+01  0.10409612334E+02  0.10566000000E+00 0. -1.
        -13    1    4    4    0    0 -0.11523789220E+02  0.11098787216E+01 -0.11881998720E+02  0.16589834429E+02  0.10566000000E+00 0.  1.
        -14    1    4    4    0    0 -0.19301969676E+02  0.94727541331E+00 -0.20002099897E+02  0.27812719471E+02  0.00000000000E+00 0.  1.
<mgrwt>
<rscale>  0 0.78130640E+02</rscale>
<asrwt>0</asrwt>
<pdfrwt beam="1">  1        1 0.16413711E-01 0.78130640E+02</pdfrwt>
<pdfrwt beam="2">  1       -2 0.22006414E-02 0.78130640E+02</pdfrwt>
<totfact> 0.15838303E+05</totfact>
</mgrwt>
</event>
<event>
 8    1  0.1241100E-020  0.8143865E+02  0.7818608E-02  0.1325018E+00
          1   -1    0    0  501    0  0.00000000000E+00  0.00000000000E+00  0.37270189704E+02  0.37270190045E+02  0.50400000000E-02 0. -1.
         -2   -1    0    0    0  501 -0.00000000000E+00 -0.00000000000E+00 -0.44487661414E+02  0.44487661488E+02  0.25500000000E-02 0.  1.
        -24    2    1    2    0    0  0.00000000000E+00  0.00000000000E+00 -0.72174717107E+01  0.81757851532E+02  0.81438654147E+02 0.  0.
         66    2    3    3    0    0  0.21154823966E+02 -0.33007748673E+02 -0.14563321066E+02  0.41870375851E+02  0.20000009856E+01 0.  0.
         13    1    3    3    0    0 -0.21154823966E+02  0.33007748673E+02  0.73458493549E+01  0.39887475682E+02  0.10566000000E+00 0. -1.
         13    1    4    4    0    0  0.84970098881E+01 -0.14713610200E+02 -0.67275935432E+01  0.18274604813E+02  0.10566000000E+00 0. -1.
        -13    1    4    4    0    0  0.11990302910E+02 -0.17312863421E+02 -0.72539684986E+01  0.22274061747E+02  0.10566000000E+00 0.  1.
        -14    1    4    4    0    0  0.66751116716E+00 -0.98127505271E+00 -0.58175902372E+00  0.13217092907E+01  0.00000000000E+00 0.  1.
<mgrwt>
<rscale>  0 0.81438654E+02</rscale>
<asrwt>0</asrwt>
<pdfrwt beam="1">  1        1 0.57338754E-02 0.81438654E+02</pdfrwt>
<pdfrwt beam="2">  1       -2 0.68442556E-02 0.81438654E+02</pdfrwt>
<totfact> 0.11932760E+05</totfact>
</mgrwt>
</event>
<event>
 8    1  0.1241100E-020  0.8010106E+02  0.7818608E-02  0.1328765E+00
         -2   -1    0    0    0  501 -0.00000000000E+00  0.00000000000E+00  0.17554250177E+02  0.17554250362E+02  0.25500000000E-02 0.  1.
          1   -1    0    0  501    0  0.00000000000E+00 -0.00000000000E+00 -0.91376445492E+02  0.91376445631E+02  0.50400000000E-02 0. -1.
        -24    2    1    2    0    0  0.00000000000E+00  0.00000000000E+00 -0.73822195314E+02  0.10893069599E+03  0.80101061219E+02 0.  0.
         66    2    3    3    0    0 -0.70283702770E+01 -0.14001315093E+02  0.13154538728E+02  0.20554238484E+02  0.20000043572E+01 0.  0.
         13    1    3    3    0    0  0.70283702770E+01  0.14001315093E+02 -0.86976734043E+02  0.88376457509E+02  0.10566000000E+00 0. -1.
         13    1    4    4    0    0 -0.31053196882E+01 -0.50703724764E+01  0.56487889666E+01  0.82019307629E+01  0.10566000000E+00 0. -1.
        -13    1    4    4    0    0 -0.29490213260E+01 -0.56999281677E+01  0.52630569736E+01  0.83004120766E+01  0.10566000000E+00 0.  1.
        -14    1    4    4    0    0 -0.97402926281E+00 -0.32310144488E+01  0.22426927879E+01  0.40518956445E+01  0.00000000000E+00 0.  1.
<mgrwt>
<rscale>  0 0.80101061E+02</rscale>
<asrwt>0</asrwt>
<pdfrwt beam="1">  1        1 0.14057914E-01 0.80101061E+02</pdfrwt>
<pdfrwt beam="2">  1       -2 0.27006539E-02 0.80101061E+02</pdfrwt>
<totfact> 0.14430441E+05</totfact>
</mgrwt>
</event>
<event>
 8    1  0.1241100E-020  0.8026088E+02  0.7818608E-02  0.1328313E+00
         -2   -1    0    0    0  501 -0.00000000000E+00  0.00000000000E+00  0.16892563139E+02  0.16892563331E+02  0.25500000000E-02 0.  1.
          1   -1    0    0  501    0  0.00000000000E+00 -0.00000000000E+00 -0.95334980076E+02  0.95334980209E+02  0.50400000000E-02 0. -1.
        -24    2    1    2    0    0 -0.35527136788E-14  0.00000000000E+00 -0.78442416937E+02  0.11222754354E+03  0.80260879350E+02 0.  0.
         66    2    3    3    0    0  0.30617255921E+02 -0.10449620631E+02 -0.61018359716E+01  0.32982469561E+02  0.19999911761E+01 0.  0.
         13    1    3    3    0    0 -0.30617255921E+02  0.10449620631E+02 -0.72340580966E+02  0.79245073979E+02  0.10566000000E+00 0. -1.
         13    1    4    4    0    0  0.12565752374E+02 -0.40391227167E+01 -0.18150877537E+01  0.13323601339E+02  0.10566000000E+00 0. -1.
        -13    1    4    4    0    0  0.17760009532E+02 -0.61604351350E+01 -0.42516587275E+01  0.19273211086E+02  0.10566000000E+00 0.  1.
         14    1    4    4    0    0  0.29149401520E+00 -0.25006277909E+00 -0.35089490445E-01  0.38565713623E+00  0.00000000000E+00 0. -1.
<mgrwt>
<rscale>  0 0.80260879E+02</rscale>
<asrwt>0</asrwt>
<pdfrwt beam="1">  1        1 0.14666920E-01 0.80260879E+02</pdfrwt>
<pdfrwt beam="2">  1       -2 0.25988559E-02 0.80260879E+02</pdfrwt>
<totfact> 0.14454109E+05</totfact>
</mgrwt>
</event>
<event>
 8    1  0.1241100E-020  0.7947899E+02  0.7818608E-02  0.1330537E+00
          1   -1    0    0  501    0  0.00000000000E+00  0.00000000000E+00  0.59924070544E+02  0.59924070756E+02  0.50400000000E-02 0. -1.
         -2   -1    0    0    0  501 -0.00000000000E+00 -0.00000000000E+00 -0.26353810763E+02  0.26353810886E+02  0.25500000000E-02 0.  1.
        -24    2    1    2    0    0  0.35527136788E-14  0.00000000000E+00  0.33570259781E+02  0.86277881642E+02  0.79478994199E+02 0.  0.
         66    2    3    3    0    0  0.23126440867E+02  0.15951593576E+02 -0.13675704084E+02  0.31309910328E+02  0.19999994549E+01 0.  0.
         13    1    3    3    0    0 -0.23126440867E+02 -0.15951593576E+02  0.47245963865E+02  0.54967971314E+02  0.10566000000E+00 0. -1.
         13    1    4    4    0    0  0.49871324527E+01  0.31890006866E+01 -0.37424155634E+01  0.70041454700E+01  0.10566000000E+00 0. -1.
        -13    1    4    4    0    0  0.16377578591E+02  0.11615956374E+02 -0.90936562258E+01  0.22042261013E+02  0.10566000000E+00 0.  1.
         14    1    4    4    0    0  0.17617298227E+01  0.11466365155E+01 -0.83963229446E+00  0.22635038451E+01  0.00000000000E+00 0. -1.
<mgrwt>
<rscale>  0 0.79478994E+02</rscale>
<asrwt>0</asrwt>
<pdfrwt beam="1">  1        1 0.92190878E-02 0.79478994E+02</pdfrwt>
<pdfrwt beam="2">  1       -2 0.40544324E-02 0.79478994E+02</pdfrwt>
<totfact> 0.13781652E+05</totfact>
</mgrwt>
</event>
<event>
 8    1  0.1241100E-020  0.7947525E+02  0.7818608E-02  0.1330547E+00
         -2   -1    0    0    0  501 -0.00000000000E+00  0.00000000000E+00  0.68283317063E+01  0.68283321825E+01  0.25500000000E-02 0.  1.
          1   -1    0    0  501    0  0.00000000000E+00 -0.00000000000E+00 -0.23125398757E+03  0.23125398763E+03  0.50400000000E-02 0. -1.
        -24    2    1    2    0    0 -0.11102230246E-15  0.00000000000E+00 -0.22442565587E+03  0.23808231981E+03  0.79475253980E+02 0.  0.
         66    2    3    3    0    0  0.73898941336E+00 -0.36157617962E+02 -0.16143059164E+03  0.16544411552E+03  0.19999999711E+01 0.  0.
         13    1    3    3    0    0 -0.73898941336E+00  0.36157617962E+02 -0.62995064226E+02  0.72638204293E+02  0.10566000000E+00 0. -1.
         13    1    4    4    0    0  0.19282084882E+00 -0.10421630846E+02 -0.47258145561E+02  0.48394122115E+02  0.10566000000E+00 0.  1.
        -13    1    4    4    0    0  0.53158963866E+00 -0.11490387264E+02 -0.54489256877E+02  0.55690231334E+02  0.10566000000E+00 0. -1.
        -14    1    4    4    0    0  0.14578925876E-01 -0.14245599852E+02 -0.59683189204E+02  0.61359762070E+02  0.00000000000E+00 0.  1.
<mgrwt>
<rscale>  0 0.79475254E+02</rscale>
<asrwt>0</asrwt>
<pdfrwt beam="1">  1        1 0.35577531E-01 0.79475254E+02</pdfrwt>
<pdfrwt beam="2">  1       -2 0.10505128E-02 0.79475254E+02</pdfrwt>
<totfact> 0.17453895E+05</totfact>
</mgrwt>
</event>
<event>
 8    1  0.1241100E-020  0.7922818E+02  0.7818608E-02  0.1331256E+00
          1   -1    0    0  501    0  0.00000000000E+00  0.00000000000E+00  0.34447332778E+02  0.34447333147E+02  0.50400000000E-02 0. -1.
         -2   -1    0    0    0  501 -0.00000000000E+00 -0.00000000000E+00 -0.45555804861E+02  0.45555804932E+02  0.25500000000E-02 0.  1.
        -24    2    1    2    0    0  0.88817841970E-15 -0.35527136788E-14 -0.11108472083E+02  0.80003138079E+02  0.79228176494E+02 0.  0.
         66    2    3    3    0    0 -0.75983730050E+01  0.31613463673E+02 -0.28364627189E+02  0.43193731526E+02  0.20000024538E+01 0.  0.
         13    1    3    3    0    0  0.75983730050E+01 -0.31613463673E+02  0.17256155106E+02  0.36809406554E+02  0.10566000000E+00 0. -1.
         13    1    4    4    0    0 -0.26894407907E+01  0.85798001694E+01 -0.78683304565E+01  0.11948550160E+02  0.10566000000E+00 0. -1.
        -13    1    4    4    0    0 -0.16548209387E+01  0.53823633168E+01 -0.47078645026E+01  0.73405326390E+01  0.10566000000E+00 0.  1.
        -14    1    4    4    0    0 -0.32541112756E+01  0.17651300187E+02 -0.15788432230E+02  0.23904648727E+02  0.00000000000E+00 0.  1.
<mgrwt>
<rscale>  0 0.79228176E+02</rscale>
<asrwt>0</asrwt>
<pdfrwt beam="1">  1        1 0.52995897E-02 0.79228176E+02</pdfrwt>
<pdfrwt beam="2">  1       -2 0.70085854E-02 0.79228176E+02</pdfrwt>
<totfact> 0.12733354E+05</totfact>
</mgrwt>
</event>
<event>
 8    1  0.1241100E-020  0.7972857E+02  0.7818608E-02  0.1329823E+00
         -2   -1    0    0    0  501 -0.00000000000E+00  0.00000000000E+00  0.76991564008E+02  0.76991564050E+02  0.25500000000E-02 0.  1.
          1   -1    0    0  501    0  0.00000000000E+00 -0.00000000000E+00 -0.20640716850E+02  0.20640717466E+02  0.50400000000E-02 0. -1.
        -24    2    1    2    0    0  0.35527136788E-14  0.00000000000E+00  0.56350847157E+02  0.97632281516E+02  0.79728567142E+02 0.  0.
         66    2    3    3    0    0 -0.18717721664E+02 -0.10946681566E+02  0.69119250588E+02  0.72468294713E+02  0.19999987874E+01 0.  0.
         13    1    3    3    0    0  0.18717721664E+02  0.10946681566E+02 -0.12768403431E+02  0.25163986803E+02  0.10566000000E+00 0. -1.
         13    1    4    4    0    0 -0.68413666077E+01 -0.44289451214E+01  0.25025302442E+02  0.26319133312E+02  0.10566000000E+00 0. -1.
        -13    1    4    4    0    0 -0.11264123169E+02 -0.65008150001E+01  0.42180755601E+02  0.44140325934E+02  0.10566000000E+00 0.  1.
        -14    1    4    4    0    0 -0.61223188773E+00 -0.16921444018E-01  0.19131925455E+01  0.20088354676E+01  0.00000000000E+00 0.  1.
<mgrwt>
<rscale>  0 0.79728567E+02</rscale>
<asrwt>0</asrwt>
<pdfrwt beam="1">  1        1 0.31754950E-02 0.79728567E+02</pdfrwt>
<pdfrwt beam="2">  1       -2 0.11844856E-01 0.79728567E+02</pdfrwt>
<totfact> 0.11365858E+05</totfact>
</mgrwt>
</event>
<event>
 8    1  0.1241100E-020  0.8969917E+02  0.7818608E-02  0.1303582E+00
          1   -1    0    0  501    0  0.00000000000E+00  0.00000000000E+00  0.24133155701E+02  0.24133156228E+02  0.50400000000E-02 0. -1.
         -2   -1    0    0    0  501 -0.00000000000E+00 -0.00000000000E+00 -0.83349441163E+02  0.83349441202E+02  0.25500000000E-02 0.  1.
        -24    2    1    2    0    0  0.22204460493E-15 -0.35527136788E-14 -0.59216285461E+02  0.10748259743E+03  0.89699165472E+02 0.  0.
         66    2    3    3    0    0 -0.12203249396E+01  0.24432916943E+02 -0.74633633680E+02  0.78566124383E+02  0.20000002604E+01 0.  0.
         13    1    3    3    0    0  0.12203249396E+01 -0.24432916943E+02  0.15417348219E+02  0.28916473046E+02  0.10566000000E+00 0. -1.
         13    1    4    4    0    0 -0.73986380423E-01  0.27521648947E+01 -0.99740734816E+01  0.10347617670E+02  0.10566000000E+00 0. -1.
        -13    1    4    4    0    0 -0.38704268592E+00  0.11223699884E+02 -0.35255752650E+02  0.37001358084E+02  0.10566000000E+00 0.  1.
         14    1    4    4    0    0 -0.75929587323E+00  0.10457052164E+02 -0.29403807548E+02  0.31217148629E+02  0.00000000000E+00 0. -1.
<mgrwt>
<rscale>  0 0.89699165E+02</rscale>
<asrwt>0</asrwt>
<pdfrwt beam="1">  1        1 0.37127933E-02 0.89699165E+02</pdfrwt>
<pdfrwt beam="2">  1       -2 0.12822991E-01 0.89699165E+02</pdfrwt>
<totfact> 0.82686935E+04</totfact>
</mgrwt>
</event>
<event>
 8    1  0.1241100E-020  0.8144510E+02  0.7818608E-02  0.1325000E+00
          1   -1    0    0  501    0  0.00000000000E+00  0.00000000000E+00  0.86215993957E+01  0.86216008688E+01  0.50400000000E-02 0. -1.
         -2   -1    0    0    0  501 -0.00000000000E+00 -0.00000000000E+00 -0.19234549798E+03  0.19234549800E+03  0.25500000000E-02 0.  1.
        -24    2    1    2    0    0  0.00000000000E+00  0.71054273576E-14 -0.18372389859E+03  0.20096709887E+03  0.81445097553E+02 0.  0.
         66    2    3    3    0    0  0.19004298057E+02  0.35956836105E+02 -0.88204754947E+02  0.97150070530E+02  0.20000003341E+01 0.  0.
         13    1    3    3    0    0 -0.19004298057E+02 -0.35956836105E+02 -0.95519143638E+02  0.10381702834E+03  0.10566000000E+00 0. -1.
         13    1    4    4    0    0  0.55025123650E+01  0.90687990168E+01 -0.22060944245E+02  0.24478913026E+02  0.10566000000E+00 0. -1.
        -13    1    4    4    0    0  0.35565485466E+01  0.65901396514E+01 -0.15716585569E+02  0.17409801957E+02  0.10566000000E+00 0.  1.
         14    1    4    4    0    0  0.99452371454E+01  0.20297897437E+02 -0.50427225133E+02  0.55261355547E+02  0.00000000000E+00 0. -1.
<mgrwt>
<rscale>  0 0.81445098E+02</rscale>
<asrwt>0</asrwt>
<pdfrwt beam="1">  1        1 0.13264002E-02 0.81445098E+02</pdfrwt>
<pdfrwt beam="2">  1       -2 0.29591612E-01 0.81445098E+02</pdfrwt>
<totfact> 0.82513481E+04</totfact>
</mgrwt>
</event>
<event>
 8    1  0.1241100E-020  0.7656377E+02  0.7818608E-02  0.1339096E+00
         -2   -1    0    0    0  501 -0.00000000000E+00  0.00000000000E+00  0.71098941731E+01  0.71098946304E+01  0.25500000000E-02 0.  1.
          1   -1    0    0  501    0  0.00000000000E+00 -0.00000000000E+00 -0.20612158754E+03  0.20612158761E+03  0.50400000000E-02 0. -1.
        -24    2    1    2    0    0  0.35527136788E-14  0.00000000000E+00 -0.19901169337E+03  0.21323148224E+03  0.76563770271E+02 0.  0.
         66    2    3    3    0    0  0.19267906512E+02  0.29700246267E+02 -0.59201265818E+02  0.69008309111E+02  0.20000005574E+01 0.  0.
         13    1    3    3    0    0 -0.19267906512E+02 -0.29700246267E+02 -0.13981042755E+03  0.14422317313E+03  0.10566000000E+00 0. -1.
         13    1    4    4    0    0  0.11781166638E+02  0.19003970911E+02 -0.37660743116E+02  0.43798282316E+02  0.10566000000E+00 0. -1.
        -13    1    4    4    0    0  0.62387577115E+01  0.90929824925E+01 -0.17448372739E+02  0.20641252473E+02  0.10566000000E+00 0.  1.
         14    1    4    4    0    0  0.12479821623E+01  0.16032928637E+01 -0.40921499626E+01  0.45687743215E+01  0.00000000000E+00 0. -1.
<mgrwt>
<rscale>  0 0.76563770E+02</rscale>
<asrwt>0</asrwt>
<pdfrwt beam="1">  1        1 0.31711009E-01 0.76563770E+02</pdfrwt>
<pdfrwt beam="2">  1       -2 0.10938301E-02 0.76563770E+02</pdfrwt>
<totfact> 0.18838748E+05</totfact>
</mgrwt>
</event>
<event>
 8    1  0.1241100E-020  0.7925628E+02  0.7818608E-02  0.1331175E+00
         -2   -1    0    0    0  501 -0.00000000000E+00  0.00000000000E+00  0.27181723758E+02  0.27181723878E+02  0.25500000000E-02 0.  1.
          1   -1    0    0  501    0  0.00000000000E+00 -0.00000000000E+00 -0.57773731153E+02  0.57773731373E+02  0.50400000000E-02 0. -1.
        -24    2    1    2    0    0  0.00000000000E+00 -0.17763568394E-14 -0.30592007395E+02  0.84955455250E+02  0.79256283412E+02 0.  0.
         66    2    3    3    0    0 -0.14731534663E+02  0.15647011786E+02  0.20350942507E+02  0.29664928032E+02  0.20000007101E+01 0.  0.
         13    1    3    3    0    0  0.14731534663E+02 -0.15647011786E+02 -0.50942949902E+02  0.55290527219E+02  0.10566000000E+00 0. -1.
         13    1    4    4    0    0 -0.42889535844E+00  0.92630522771E+00  0.82879965917E+00  0.13191154286E+01  0.10566000000E+00 0. -1.
        -13    1    4    4    0    0 -0.10458182786E+02  0.10283626818E+02  0.14395203385E+02  0.20551389546E+02  0.10566000000E+00 0.  1.
        -14    1    4    4    0    0 -0.38444565184E+01  0.44370797403E+01  0.51269394627E+01  0.77944230574E+01  0.00000000000E+00 0.  1.
<mgrwt>
<rscale>  0 0.79256283E+02</rscale>
<asrwt>0</asrwt>
<pdfrwt beam="1">  1        1 0.88882664E-02 0.79256283E+02</pdfrwt>
<pdfrwt beam="2">  1       -2 0.41818037E-02 0.79256283E+02</pdfrwt>
<totfact> 0.13809951E+05</totfact>
</mgrwt>
</event>
<event>
 8    1  0.1241100E-020  0.7954188E+02  0.7818608E-02  0.1330357E+00
          1   -1    0    0  501    0  0.00000000000E+00  0.00000000000E+00  0.20805514074E+02  0.20805514684E+02  0.50400000000E-02 0. -1.
         -2   -1    0    0    0  501 -0.00000000000E+00 -0.00000000000E+00 -0.76024443983E+02  0.76024444026E+02  0.25500000000E-02 0.  1.
        -24    2    1    2    0    0  0.17763568394E-14  0.35527136788E-14 -0.55218929909E+02  0.96829958710E+02  0.79541880060E+02 0.  0.
         66    2    3    3    0    0 -0.11853744300E+02 -0.16804353579E+02 -0.69031391852E+02  0.72057134444E+02  0.20000025421E+01 0.  0.
         13    1    3    3    0    0  0.11853744300E+02  0.16804353579E+02  0.13812461943E+02  0.24772824266E+02  0.10566000000E+00 0. -1.
         13    1    4    4    0    0 -0.46472847467E+01 -0.61231823554E+01 -0.23090647871E+02  0.24336799313E+02  0.10566000000E+00 0. -1.
        -13    1    4    4    0    0 -0.69582272320E+01 -0.10406483347E+02 -0.44086657488E+02  0.45829644929E+02  0.10566000000E+00 0.  1.
         14    1    4    4    0    0 -0.24823232085E+00 -0.27468787653E+00 -0.18540864933E+01  0.18906902018E+01  0.00000000000E+00 0. -1.
<mgrwt>
<rscale>  0 0.79541880E+02</rscale>
<asrwt>0</asrwt>
<pdfrwt beam="1">  1        1 0.32008484E-02 0.79541880E+02</pdfrwt>
<pdfrwt beam="2">  1       -2 0.11696068E-01 0.79541880E+02</pdfrwt>
<totfact> 0.11464331E+05</totfact>
</mgrwt>
</event>
<event>
 8    1  0.1241100E-020  0.8184349E+02  0.7818608E-02  0.1323900E+00
          1   -1    0    0  501    0  0.00000000000E+00  0.00000000000E+00  0.43082890603E+03  0.43082890606E+03  0.50400000000E-02 0. -1.
         -2   -1    0    0    0  501 -0.00000000000E+00 -0.00000000000E+00 -0.38869002560E+01  0.38869010925E+01  0.25500000000E-02 0.  1.
        -24    2    1    2    0    0  0.00000000000E+00  0.00000000000E+00  0.42694200577E+03  0.43471580715E+03  0.81843489011E+02 0.  0.
         66    2    3    3    0    0  0.40407971513E+02  0.48545246174E+01  0.19221056164E+03  0.19648223983E+03  0.19999976162E+01 0.  0.
         13    1    3    3    0    0 -0.40407971513E+02 -0.48545246174E+01  0.23473144413E+03  0.23823356733E+03  0.10566000000E+00 0. -1.
         13    1    4    4    0    0  0.29851831724E+00 -0.82719701418E-01  0.14341955463E+01  0.14710664959E+01  0.10566000000E+00 0.  1.
        -13    1    4    4    0    0  0.30616877301E+01  0.51925856622E+00  0.15195676948E+02  0.15510103905E+02  0.10566000000E+00 0. -1.
        -14    1    4    4    0    0  0.37047765466E+02  0.44179857525E+01  0.17558068915E+03  0.17950106943E+03  0.00000000000E+00 0.  1.
<mgrwt>
<rscale>  0 0.81843489E+02</rscale>
<asrwt>0</asrwt>
<pdfrwt beam="1">  1        1 0.66281336E-01 0.81843489E+02</pdfrwt>
<pdfrwt beam="2">  1       -2 0.59798503E-03 0.81843489E+02</pdfrwt>
<totfact> 0.18100449E+05</totfact>
</mgrwt>
</event>
<event>
 8    1  0.1241100E-020  0.7881933E+02  0.7818608E-02  0.1332436E+00
          1   -1    0    0  501    0  0.00000000000E+00  0.00000000000E+00  0.15033893515E+03  0.15033893524E+03  0.50400000000E-02 0. -1.
         -2   -1    0    0    0  501 -0.00000000000E+00 -0.00000000000E+00 -0.10330801973E+02  0.10330802287E+02  0.25500000000E-02 0.  1.
        -24    2    1    2    0    0  0.00000000000E+00 -0.35527136788E-14  0.14000813318E+03  0.16066973752E+03  0.78819332652E+02 0.  0.
         66    2    3    3    0    0  0.28412335969E+02 -0.23076606182E+02  0.40415846546E+02  0.54564010492E+02  0.20000001947E+01 0.  0.
         13    1    3    3    0    0 -0.28412335969E+02  0.23076606182E+02  0.99592286634E+02  0.10610572703E+03  0.10566000000E+00 0. -1.
         13    1    4    4    0    0  0.33385065660E+01 -0.32968978557E+01  0.54859959791E+01  0.72195898415E+01  0.10566000000E+00 0. -1.
        -13    1    4    4    0    0  0.10288210941E+02 -0.82441030889E+01  0.13561571292E+02  0.18914013325E+02  0.10566000000E+00 0.  1.
        -14    1    4    4    0    0  0.14785618462E+02 -0.11535605238E+02  0.21368279274E+02  0.28430407325E+02  0.00000000000E+00 0.  1.
<mgrwt>
<rscale>  0 0.78819333E+02</rscale>
<asrwt>0</asrwt>
<pdfrwt beam="1">  1        1 0.23129068E-01 0.78819333E+02</pdfrwt>
<pdfrwt beam="2">  1       -2 0.15893541E-02 0.78819333E+02</pdfrwt>
<totfact> 0.16434573E+05</totfact>
</mgrwt>
</event>
<event>
 8    1  0.1241100E-020  0.8036810E+02  0.7818608E-02  0.1328010E+00
         -2   -1    0    0    0  501 -0.00000000000E+00  0.00000000000E+00  0.12535307828E+03  0.12535307830E+03  0.25500000000E-02 0.  1.
          1   -1    0    0  501    0  0.00000000000E+00 -0.00000000000E+00 -0.12881676678E+02  0.12881677664E+02  0.50400000000E-02 0. -1.
        -24    2    1    2    0    0  0.00000000000E+00  0.00000000000E+00  0.11247140160E+03  0.13823475597E+03  0.80368100510E+02 0.  0.
         66    2    3    3    0    0 -0.26773099983E+02 -0.16008292214E+02  0.99773294824E+02  0.10455512738E+03  0.19999995852E+01 0.  0.
         13    1    3    3    0    0  0.26773099983E+02  0.16008292214E+02  0.12698106775E+02  0.33679628591E+02  0.10566000000E+00 0. -1.
         13    1    4    4    0    0 -0.74746855017E+01 -0.47775245993E+01  0.30688953400E+02  0.31945558212E+02  0.10566000000E+00 0. -1.
        -13    1    4    4    0    0 -0.12055487319E+02 -0.65149335358E+01  0.41778844234E+02  0.43968876754E+02  0.10566000000E+00 0.  1.
         14    1    4    4    0    0 -0.72429271624E+01 -0.47158340792E+01  0.27305497190E+02  0.28640692411E+02  0.00000000000E+00 0. -1.
<mgrwt>
<rscale>  0 0.80368101E+02</rscale>
<asrwt>0</asrwt>
<pdfrwt beam="1">  1        1 0.19817964E-02 0.80368101E+02</pdfrwt>
<pdfrwt beam="2">  1       -2 0.19285090E-01 0.80368101E+02</pdfrwt>
<totfact> 0.98723888E+04</totfact>
</mgrwt>
</event>
<event>
 8    1  0.1241100E-020  0.8004249E+02  0.7818608E-02  0.1328931E+00
          1   -1    0    0  501    0  0.00000000000E+00  0.00000000000E+00  0.23672874435E+02  0.23672874971E+02  0.50400000000E-02 0. -1.
         -2   -1    0    0    0  501 -0.00000000000E+00 -0.00000000000E+00 -0.67659723829E+02  0.67659723877E+02  0.25500000000E-02 0.  1.
        -24    2    1    2    0    0  0.35527136788E-14 -0.35527136788E-14 -0.43986849394E+02  0.91332598848E+02  0.80042493044E+02 0.  0.
         66    2    3    3    0    0 -0.23544560032E+02  0.23387509277E+02 -0.47480264569E+02  0.57962896858E+02  0.19999978479E+01 0.  0.
         13    1    3    3    0    0  0.23544560032E+02 -0.23387509277E+02  0.34934151744E+01  0.33369701990E+02  0.10566000000E+00 0. -1.
         13    1    4    4    0    0 -0.25881082758E+01  0.29082740584E+01 -0.54681937336E+01  0.67133202805E+01  0.10566000000E+00 0. -1.
        -13    1    4    4    0    0 -0.57503324969E+01  0.60073028538E+01 -0.13196573117E+02  0.15598548570E+02  0.10566000000E+00 0.  1.
        -14    1    4    4    0    0 -0.15206119259E+02  0.14471932365E+02 -0.28815497718E+02  0.35651028008E+02  0.00000000000E+00 0.  1.
<mgrwt>
<rscale>  0 0.80042493E+02</rscale>
<asrwt>0</asrwt>
<pdfrwt beam="1">  1        1 0.36419808E-02 0.80042493E+02</pdfrwt>
<pdfrwt beam="2">  1       -2 0.10409188E-01 0.80042493E+02</pdfrwt>
<totfact> 0.11553627E+05</totfact>
</mgrwt>
</event>
<event>
 8    1  0.1241100E-020  0.7960323E+02  0.7818608E-02  0.1330181E+00
         -2   -1    0    0    0  501 -0.00000000000E+00  0.00000000000E+00  0.12275970848E+03  0.12275970851E+03  0.25500000000E-02 0.  1.
          1   -1    0    0  501    0  0.00000000000E+00 -0.00000000000E+00 -0.12904628289E+02  0.12904629273E+02  0.50400000000E-02 0. -1.
        -24    2    1    2    0    0  0.00000000000E+00  0.00000000000E+00  0.10985508019E+03  0.13566433778E+03  0.79603227959E+02 0.  0.
         66    2    3    3    0    0  0.22922221872E+02 -0.30277219586E+02  0.75128971841E+02  0.84205110749E+02  0.19999962806E+01 0.  0.
         13    1    3    3    0    0 -0.22922221872E+02  0.30277219586E+02  0.34726108352E+02  0.51459227031E+02  0.10566000000E+00 0. -1.
         13    1    4    4    0    0  0.91068627608E+01 -0.11294132278E+02  0.27401164277E+02  0.31005279244E+02  0.10566000000E+00 0. -1.
        -13    1    4    4    0    0  0.49689989256E+01 -0.62923851890E+01  0.15482071178E+02  0.17435330616E+02  0.10566000000E+00 0.  1.
         14    1    4    4    0    0  0.88463601853E+01 -0.12690702118E+02  0.32245736386E+02  0.35764500889E+02  0.00000000000E+00 0. -1.
<mgrwt>
<rscale>  0 0.79603228E+02</rscale>
<asrwt>0</asrwt>
<pdfrwt beam="1">  1        1 0.19853277E-02 0.79603228E+02</pdfrwt>
<pdfrwt beam="2">  1       -2 0.18886108E-01 0.79603228E+02</pdfrwt>
<totfact> 0.10178828E+05</totfact>
</mgrwt>
</event>
<event>
 8    1  0.1241100E-020  0.8206152E+02  0.7818608E-02  0.1323301E+00
         -2   -1    0    0    0  501 -0.00000000000E+00  0.00000000000E+00  0.87596521971E+01  0.87596525682E+01  0.25500000000E-02 0.  1.
          1   -1    0    0  501    0  0.00000000000E+00 -0.00000000000E+00 -0.19219064335E+03  0.19219064342E+03  0.50400000000E-02 0. -1.
        -24    2    1    2    0    0  0.00000000000E+00  0.00000000000E+00 -0.18343099116E+03  0.20095029599E+03  0.82061519246E+02 0.  0.
         66    2    3    3    0    0  0.52073474141E+01 -0.28005267121E+02 -0.19536867766E+02  0.34599142401E+02  0.19999998031E+01 0.  0.
         13    1    3    3    0    0 -0.52073474141E+01  0.28005267121E+02 -0.16389412339E+03  0.16635115359E+03  0.10566000000E+00 0. -1.
         13    1    4    4    0    0  0.91974808348E+00 -0.65733973720E+01 -0.40395348836E+01  0.77707461455E+01  0.10566000000E+00 0. -1.
        -13    1    4    4    0    0  0.35768429310E+01 -0.19716025351E+02 -0.14328659555E+02  0.24634064010E+02  0.10566000000E+00 0.  1.
        -14    1    4    4    0    0  0.71075639965E+00 -0.17158443977E+01 -0.11686733272E+01  0.21943322452E+01  0.00000000000E+00 0.  1.
<mgrwt>
<rscale>  0 0.82061519E+02</rscale>
<asrwt>0</asrwt>
<pdfrwt beam="1">  1        1 0.29567788E-01 0.82061519E+02</pdfrwt>
<pdfrwt beam="2">  1       -2 0.13476390E-02 0.82061519E+02</pdfrwt>
<totfact> 0.15462702E+05</totfact>
</mgrwt>
</event>
<event>
 8    1  0.1241100E-020  0.8208429E+02  0.7818608E-02  0.1323238E+00
         -2   -1    0    0    0  501 -0.00000000000E+00  0.00000000000E+00  0.35377208144E+02  0.35377208236E+02  0.25500000000E-02 0.  1.
          1   -1    0    0  501    0  0.00000000000E+00 -0.00000000000E+00 -0.47614201522E+02  0.47614201789E+02  0.50400000000E-02 0. -1.
        -24    2    1    2    0    0  0.00000000000E+00  0.00000000000E+00 -0.12236993378E+02  0.82991410025E+02  0.82084286749E+02 0.  0.
         66    2    3    3    0    0  0.37564132621E+02 -0.11402512508E+02  0.58992403357E+01  0.39747734321E+02  0.19999990326E+01 0.  0.
         13    1    3    3    0    0 -0.37564132621E+02  0.11402512508E+02 -0.18136233713E+02  0.43243675704E+02  0.10566000000E+00 0. -1.
         13    1    4    4    0    0  0.21787694096E+02 -0.66688623999E+01  0.32083168689E+01  0.23010471549E+02  0.10566000000E+00 0. -1.
        -13    1    4    4    0    0  0.11175985319E+02 -0.27517042825E+01  0.18971166534E+01  0.11665536419E+02  0.10566000000E+00 0.  1.
         14    1    4    4    0    0  0.46004532056E+01 -0.19819458253E+01  0.79380681340E+00  0.50717263539E+01  0.00000000000E+00 0. -1.
<mgrwt>
<rscale>  0 0.82084287E+02</rscale>
<asrwt>0</asrwt>
<pdfrwt beam="1">  1        1 0.73252619E-02 0.82084287E+02</pdfrwt>
<pdfrwt beam="2">  1       -2 0.54426474E-02 0.82084287E+02</pdfrwt>
<totfact> 0.12150452E+05</totfact>
</mgrwt>
</event>
<event>
 8    1  0.1241100E-020  0.8001032E+02  0.7818608E-02  0.1329022E+00
          1   -1    0    0  501    0  0.00000000000E+00  0.00000000000E+00  0.30830542225E+02  0.30830542637E+02  0.50400000000E-02 0. -1.
         -2   -1    0    0    0  501 -0.00000000000E+00 -0.00000000000E+00 -0.51909981581E+02  0.51909981644E+02  0.25500000000E-02 0.  1.
        -24    2    1    2    0    0  0.00000000000E+00  0.35527136788E-14 -0.21079439357E+02  0.82740524280E+02  0.80010321800E+02 0.  0.
         66    2    3    3    0    0 -0.20333132135E+02 -0.24431442888E+02 -0.35624066506E+02  0.47784995291E+02  0.19999991232E+01 0.  0.
         13    1    3    3    0    0  0.20333132135E+02  0.24431442888E+02  0.14544627150E+02  0.34955528990E+02  0.10566000000E+00 0. -1.
         13    1    4    4    0    0 -0.17781398132E+01 -0.26935947505E+01 -0.33222979999E+01  0.46331481641E+01  0.10566000000E+00 0. -1.
        -13    1    4    4    0    0 -0.13546218883E+02 -0.16339821887E+02 -0.23200978675E+02  0.31444974175E+02  0.10566000000E+00 0.  1.
         14    1    4    4    0    0 -0.50087734383E+01 -0.53980262504E+01 -0.91007898317E+01  0.11706872952E+02  0.00000000000E+00 0. -1.
<mgrwt>
<rscale>  0 0.80010322E+02</rscale>
<asrwt>0</asrwt>
<pdfrwt beam="1">  1        1 0.47431604E-02 0.80010322E+02</pdfrwt>
<pdfrwt beam="2">  1       -2 0.79861510E-02 0.80010322E+02</pdfrwt>
<totfact> 0.12148643E+05</totfact>
</mgrwt>
</event>
<event>
 8    1  0.1241100E-020  0.8039076E+02  0.7818608E-02  0.1327946E+00
          1   -1    0    0  501    0  0.00000000000E+00  0.00000000000E+00  0.31980161388E+01  0.31980201103E+01  0.50400000000E-02 0. -1.
         -2   -1    0    0    0  501 -0.00000000000E+00 -0.00000000000E+00 -0.50520929600E+03  0.50520929601E+03  0.25500000000E-02 0.  1.
        -24    2    1    2    0    0  0.35527136788E-14 -0.17763568394E-14 -0.50201127986E+03  0.50840731612E+03  0.80390758009E+02 0.  0.
         66    2    3    3    0    0 -0.18131268865E+02  0.64758666013E+01 -0.47412643707E+03  0.47452139898E+03  0.20000000499E+01 0.  0.
         13    1    3    3    0    0  0.18131268865E+02 -0.64758666013E+01 -0.27884842795E+02  0.33885917143E+02  0.10566000000E+00 0. -1.
         13    1    4    4    0    0 -0.26280785445E+01  0.41967789718E+00 -0.55472972770E+02  0.55536877824E+02  0.10566000000E+00 0. -1.
        -13    1    4    4    0    0 -0.11106498924E+02  0.40894601061E+01 -0.29710191987E+03  0.29733758585E+03  0.10566000000E+00 0.  1.
         14    1    4    4    0    0 -0.43966913958E+01  0.19667285980E+01 -0.12155154443E+03  0.12164693531E+03  0.00000000000E+00 0. -1.
<mgrwt>
<rscale>  0 0.80390758E+02</rscale>
<asrwt>0</asrwt>
<pdfrwt beam="1">  1        1 0.49200319E-03 0.80390758E+02</pdfrwt>
<pdfrwt beam="2">  1       -2 0.77724444E-01 0.80390758E+02</pdfrwt>
<totfact> 0.49362248E+04</totfact>
</mgrwt>
</event>
<event>
 8    1  0.1241100E-020  0.8059004E+02  0.7818608E-02  0.1327385E+00
          1   -1    0    0  501    0  0.00000000000E+00  0.00000000000E+00  0.76646542315E+02  0.76646542481E+02  0.50400000000E-02 0. -1.
         -2   -1    0    0    0  501 -0.00000000000E+00 -0.00000000000E+00 -0.21184106128E+02  0.21184106282E+02  0.25500000000E-02 0.  1.
        -24    2    1    2    0    0  0.00000000000E+00  0.00000000000E+00  0.55462436186E+02  0.97830648763E+02  0.80590036664E+02 0.  0.
         66    2    3    3    0    0 -0.17358482381E+02 -0.18291002380E+02 -0.10366167017E+02  0.27337430348E+02  0.20000001828E+01 0.  0.
         13    1    3    3    0    0  0.17358482381E+02  0.18291002380E+02  0.65828603204E+02  0.70493218415E+02  0.10566000000E+00 0. -1.
         13    1    4    4    0    0 -0.34205680318E+01 -0.28843103727E+01 -0.13133977871E+01  0.46643016378E+01  0.10566000000E+00 0. -1.
        -13    1    4    4    0    0 -0.91706992912E+01 -0.96479886404E+01 -0.57767715308E+01  0.14510949785E+02  0.10566000000E+00 0.  1.
         14    1    4    4    0    0 -0.47672150585E+01 -0.57587033673E+01 -0.32759976993E+01  0.81621789256E+01  0.00000000000E+00 0. -1.
<mgrwt>
<rscale>  0 0.80590037E+02</rscale>
<asrwt>0</asrwt>
<pdfrwt beam="1">  1        1 0.11791776E-01 0.80590037E+02</pdfrwt>
<pdfrwt beam="2">  1       -2 0.32590933E-02 0.80590037E+02</pdfrwt>
<totfact> 0.13792827E+05</totfact>
</mgrwt>
</event>
<event>
 8    1  0.1241100E-020  0.7876742E+02  0.7818608E-02  0.1332586E+00
          1   -1    0    0  501    0  0.00000000000E+00  0.00000000000E+00  0.24387310001E+03  0.24387310006E+03  0.50400000000E-02 0. -1.
         -2   -1    0    0    0  501 -0.00000000000E+00 -0.00000000000E+00 -0.63601791668E+01  0.63601796780E+01  0.25500000000E-02 0.  1.
        -24    2    1    2    0    0  0.00000000000E+00  0.35527136788E-14  0.23751292084E+03  0.25023327974E+03  0.78767421705E+02 0.  0.
         66    2    3    3    0    0 -0.22334516171E+02  0.29279269607E+02  0.74702369089E+02  0.83309964508E+02  0.19999994142E+01 0.  0.
         13    1    3    3    0    0  0.22334516171E+02 -0.29279269607E+02  0.16281055176E+03  0.16692331523E+03  0.10566000000E+00 0. -1.
         13    1    4    4    0    0 -0.19884864273E+01  0.21656377457E+01  0.58568588580E+01  0.65542371665E+01  0.10566000000E+00 0. -1.
        -13    1    4    4    0    0 -0.98488348033E+01  0.14460235041E+02  0.35699878324E+02  0.39756639959E+02  0.10566000000E+00 0.  1.
        -14    1    4    4    0    0 -0.10497194940E+02  0.12653396820E+02  0.33145631906E+02  0.36999087383E+02  0.00000000000E+00 0.  1.
<mgrwt>
<rscale>  0 0.78767422E+02</rscale>
<asrwt>0</asrwt>
<pdfrwt beam="1">  1        1 0.37518944E-01 0.78767422E+02</pdfrwt>
<pdfrwt beam="2">  1       -2 0.97848899E-03 0.78767422E+02</pdfrwt>
<totfact> 0.18057349E+05</totfact>
</mgrwt>
</event>
<event>
 8    1  0.1241100E-020  0.8066595E+02  0.7818608E-02  0.1327172E+00
          1   -1    0    0  501    0  0.00000000000E+00  0.00000000000E+00  0.26055345856E+02  0.26055346343E+02  0.50400000000E-02 0. -1.
         -2   -1    0    0    0  501 -0.00000000000E+00 -0.00000000000E+00 -0.62434363021E+02  0.62434363073E+02  0.25500000000E-02 0.  1.
        -24    2    1    2    0    0  0.00000000000E+00  0.00000000000E+00 -0.36379017166E+02  0.88489709417E+02  0.80665951818E+02 0.  0.
         66    2    3    3    0    0 -0.21454817155E+02  0.34123751204E+02 -0.18273412027E+02  0.44301886695E+02  0.20000005366E+01 0.  0.
         13    1    3    3    0    0  0.21454817155E+02 -0.34123751204E+02 -0.18105605139E+02  0.44187822722E+02  0.10566000000E+00 0. -1.
         13    1    4    4    0    0 -0.19500264747E+01  0.33337948676E+01 -0.12733590440E+01  0.40680952253E+01  0.10566000000E+00 0. -1.
        -13    1    4    4    0    0 -0.17859103424E+02  0.27830577878E+02 -0.15122661217E+02  0.36361995083E+02  0.10566000000E+00 0.  1.
        -14    1    4    4    0    0 -0.16456872569E+01  0.29593784592E+01 -0.18773917658E+01  0.38717963860E+01  0.00000000000E+00 0.  1.
<mgrwt>
<rscale>  0 0.80665952E+02</rscale>
<asrwt>0</asrwt>
<pdfrwt beam="1">  1        1 0.40085148E-02 0.80665952E+02</pdfrwt>
<pdfrwt beam="2">  1       -2 0.96052866E-02 0.80665952E+02</pdfrwt>
<totfact> 0.11506549E+05</totfact>
</mgrwt>
</event>
<event>
 8    1  0.1241100E-020  0.8069770E+02  0.7818608E-02  0.1327083E+00
          1   -1    0    0  501    0  0.00000000000E+00  0.00000000000E+00  0.78134865529E+02  0.78134865692E+02  0.50400000000E-02 0. -1.
         -2   -1    0    0    0  501 -0.00000000000E+00 -0.00000000000E+00 -0.20836150352E+02  0.20836150508E+02  0.25500000000E-02 0.  1.
        -24    2    1    2    0    0  0.35527136788E-14 -0.88817841970E-15  0.57298715177E+02  0.98971016200E+02  0.80697703107E+02 0.  0.
         66    2    3    3    0    0 -0.28003600581E+02  0.52728071459E+01 -0.63247568960E+01  0.29257592074E+02  0.20000008584E+01 0.  0.
         13    1    3    3    0    0  0.28003600581E+02 -0.52728071459E+01  0.63623472073E+02  0.69713424126E+02  0.10566000000E+00 0. -1.
         13    1    4    4    0    0 -0.89866174249E+01  0.24282275746E+01 -0.19044085910E+01  0.95022901456E+01  0.10566000000E+00 0. -1.
        -13    1    4    4    0    0 -0.79971477613E+01  0.15542913224E+01 -0.22140351785E+01  0.84429443702E+01  0.10566000000E+00 0.  1.
         14    1    4    4    0    0 -0.11019835395E+02  0.12902882489E+01 -0.22063131266E+01  0.11312357558E+02  0.00000000000E+00 0. -1.
<mgrwt>
<rscale>  0 0.80697703E+02</rscale>
<asrwt>0</asrwt>
<pdfrwt beam="1">  1        1 0.12020748E-01 0.80697703E+02</pdfrwt>
<pdfrwt beam="2">  1       -2 0.32055617E-02 0.80697703E+02</pdfrwt>
<totfact> 0.13785295E+05</totfact>
</mgrwt>
</event>
<event>
 8    1  0.1241100E-020  0.8043320E+02  0.7818608E-02  0.1327827E+00
         -2   -1    0    0    0  501 -0.00000000000E+00  0.00000000000E+00  0.28740023653E+02  0.28740023766E+02  0.25500000000E-02 0.  1.
          1   -1    0    0  501    0  0.00000000000E+00 -0.00000000000E+00 -0.56276045051E+02  0.56276045277E+02  0.50400000000E-02 0. -1.
        -24    2    1    2    0    0 -0.71054273576E-14 -0.88817841970E-15 -0.27536021398E+02  0.85016069043E+02  0.80433199122E+02 0.  0.
         66    2    3    3    0    0 -0.32455352381E+02 -0.68204198421E+01  0.10221818636E+02  0.34761380972E+02  0.20000014675E+01 0.  0.
         13    1    3    3    0    0  0.32455352381E+02  0.68204198421E+01 -0.37757840034E+02  0.50254688071E+02  0.10566000000E+00 0. -1.
         13    1    4    4    0    0 -0.10273623168E+02 -0.17846550110E+01  0.38809399604E+01  0.11126777859E+02  0.10566000000E+00 0. -1.
        -13    1    4    4    0    0 -0.10071619015E+02 -0.27785441940E+01  0.30234439256E+01  0.10877048985E+02  0.10566000000E+00 0.  1.
        -14    1    4    4    0    0 -0.12110110198E+02 -0.22572206371E+01  0.33174347496E+01  0.12757554128E+02  0.00000000000E+00 0.  1.
<mgrwt>
<rscale>  0 0.80433199E+02</rscale>
<asrwt>0</asrwt>
<pdfrwt beam="1">  1        1 0.86578531E-02 0.80433199E+02</pdfrwt>
<pdfrwt beam="2">  1       -2 0.44215421E-02 0.80433199E+02</pdfrwt>
<totfact> 0.13204601E+05</totfact>
</mgrwt>
</event>
<event>
 8    1  0.1241100E-020  0.8019816E+02  0.7818608E-02  0.1328490E+00
          1   -1    0    0  501    0  0.00000000000E+00  0.00000000000E+00  0.26535539384E+03  0.26535539388E+03  0.50400000000E-02 0. -1.
         -2   -1    0    0    0  501 -0.00000000000E+00 -0.00000000000E+00 -0.60595567964E+01  0.60595573329E+01  0.25500000000E-02 0.  1.
        -24    2    1    2    0    0  0.00000000000E+00 -0.71054273576E-14  0.25929583704E+03  0.27141495122E+03  0.80198158570E+02 0.  0.
         66    2    3    3    0    0 -0.23774902249E+02 -0.32214132778E+02  0.13552612886E+03  0.14133056263E+03  0.20000003726E+01 0.  0.
         13    1    3    3    0    0  0.23774902249E+02  0.32214132778E+02  0.12376970818E+03  0.13008438859E+03  0.10566000000E+00 0. -1.
         13    1    4    4    0    0 -0.59606572203E+01 -0.73979179976E+01  0.32852110673E+02  0.34198405883E+02  0.10566000000E+00 0. -1.
        -13    1    4    4    0    0 -0.48178499932E+01 -0.68922353709E+01  0.30559853195E+02  0.31695904756E+02  0.10566000000E+00 0.  1.
         14    1    4    4    0    0 -0.12996395035E+02 -0.17923979409E+02  0.72114164990E+02  0.75436251988E+02  0.00000000000E+00 0. -1.
<mgrwt>
<rscale>  0 0.80198159E+02</rscale>
<asrwt>0</asrwt>
<pdfrwt beam="1">  1        1 0.40823903E-01 0.80198159E+02</pdfrwt>
<pdfrwt beam="2">  1       -2 0.93223963E-03 0.80198159E+02</pdfrwt>
<totfact> 0.17504294E+05</totfact>
</mgrwt>
</event>
<event>
 8    1  0.1241100E-020  0.7761009E+02  0.7818608E-02  0.1335974E+00
          1   -1    0    0  501    0  0.00000000000E+00  0.00000000000E+00  0.10136044093E+02  0.10136045346E+02  0.50400000000E-02 0. -1.
         -2   -1    0    0    0  501 -0.00000000000E+00 -0.00000000000E+00 -0.14856204413E+03  0.14856204415E+03  0.25500000000E-02 0.  1.
        -24    2    1    2    0    0  0.00000000000E+00  0.00000000000E+00 -0.13842600003E+03  0.15869808949E+03  0.77610090347E+02 0.  0.
         66    2    3    3    0    0  0.25040229652E+02 -0.29124418629E+02 -0.58326876050E+02  0.69866081251E+02  0.19999945045E+01 0.  0.
         13    1    3    3    0    0 -0.25040229652E+02  0.29124418629E+02 -0.80099123984E+02  0.88832008243E+02  0.10566000000E+00 0. -1.
         13    1    4    4    0    0  0.84081168948E+01 -0.10107483629E+02 -0.20525347748E+02  0.24375371161E+02  0.10566000000E+00 0. -1.
        -13    1    4    4    0    0  0.47829386565E+00 -0.27015808361E+00 -0.90375701540E+00  0.10628693196E+01  0.10566000000E+00 0.  1.
        -14    1    4    4    0    0  0.16153818892E+02 -0.18746776917E+02 -0.36897771287E+02  0.44427840770E+02  0.00000000000E+00 0.  1.
<mgrwt>
<rscale>  0 0.77610090E+02</rscale>
<asrwt>0</asrwt>
<pdfrwt beam="1">  1        1 0.15593916E-02 0.77610090E+02</pdfrwt>
<pdfrwt beam="2">  1       -2 0.22855698E-01 0.77610090E+02</pdfrwt>
<totfact> 0.10249830E+05</totfact>
</mgrwt>
</event>
<event>
 8    1  0.1241100E-020  0.7994040E+02  0.7818608E-02  0.1329221E+00
         -2   -1    0    0    0  501 -0.00000000000E+00  0.00000000000E+00  0.28108721345E+02  0.28108721461E+02  0.25500000000E-02 0.  1.
          1   -1    0    0  501    0  0.00000000000E+00 -0.00000000000E+00 -0.56837058748E+02  0.56837058972E+02  0.50400000000E-02 0. -1.
        -24    2    1    2    0    0 -0.35527136788E-14  0.35527136788E-14 -0.28728337403E+02  0.84945780433E+02  0.79940404324E+02 0.  0.
         66    2    3    3    0    0 -0.29526811554E+02 -0.23088647283E+02  0.30070747765E+00  0.37536763942E+02  0.19999970874E+01 0.  0.
         13    1    3    3    0    0  0.29526811554E+02  0.23088647283E+02 -0.29029044881E+02  0.47409016491E+02  0.10566000000E+00 0. -1.
         13    1    4    4    0    0 -0.14653487655E+02 -0.10967881603E+02 -0.49216305780E+00  0.18310448269E+02  0.10566000000E+00 0.  1.
        -13    1    4    4    0    0 -0.76112642056E+01 -0.59003463103E+01  0.80190093763E+00  0.96643488419E+01  0.10566000000E+00 0.  1.
        -14    1    4    4    0    0 -0.72620596935E+01 -0.62204193694E+01 -0.90304021793E-02  0.95619668307E+01  0.00000000000E+00 0.  1.
<mgrwt>
<rscale>  0 0.79940404E+02</rscale>
<asrwt>0</asrwt>
<pdfrwt beam="1">  1        1 0.87441630E-02 0.79940404E+02</pdfrwt>
<pdfrwt beam="2">  1       -2 0.43244187E-02 0.79940404E+02</pdfrwt>
<totfact> 0.13451862E+05</totfact>
</mgrwt>
</event>
<event>
 8    1  0.1241100E-020  0.8284431E+02  0.7818608E-02  0.1321168E+00
         -2   -1    0    0    0  501 -0.00000000000E+00  0.00000000000E+00  0.28875503097E+03  0.28875503098E+03  0.25500000000E-02 0.  1.
          1   -1    0    0  501    0  0.00000000000E+00 -0.00000000000E+00 -0.59420421320E+01  0.59420442694E+01  0.50400000000E-02 0. -1.
        -24    2    1    2    0    0  0.35527136788E-14  0.00000000000E+00  0.28281298884E+03  0.29469707525E+03  0.82844308832E+02 0.  0.
         66    2    3    3    0    0 -0.31074346408E+02 -0.26829250764E+02  0.16043450391E+03  0.16561598276E+03  0.19999998944E+01 0.  0.
         13    1    3    3    0    0  0.31074346408E+02  0.26829250764E+02  0.12237848492E+03  0.12908109249E+03  0.10566000000E+00 0. -1.
         13    1    4    4    0    0 -0.94242415285E+01 -0.89060278673E+01  0.51673643202E+02  0.53275794002E+02  0.10566000000E+00 0. -1.
        -13    1    4    4    0    0 -0.10278452661E+02 -0.87197968202E+01  0.54429877949E+02  0.56074095831E+02  0.10566000000E+00 0.  1.
         14    1    4    4    0    0 -0.11371652218E+02 -0.92034260759E+01  0.54330982764E+02  0.56266092931E+02  0.00000000000E+00 0. -1.
<mgrwt>
<rscale>  0 0.82844309E+02</rscale>
<asrwt>0</asrwt>
<pdfrwt beam="1">  1        1 0.91416038E-03 0.82844309E+02</pdfrwt>
<pdfrwt beam="2">  1       -2 0.44423857E-01 0.82844309E+02</pdfrwt>
<totfact> 0.65527733E+04</totfact>
</mgrwt>
</event>
<event>
 8    1  0.1241100E-020  0.8006043E+02  0.7818608E-02  0.1328880E+00
          1   -1    0    0  501    0  0.00000000000E+00  0.00000000000E+00  0.18133794502E+02  0.18133795202E+02  0.50400000000E-02 0. -1.
         -2   -1    0    0    0  501 -0.00000000000E+00 -0.00000000000E+00 -0.88366400363E+02  0.88366400399E+02  0.25500000000E-02 0.  1.
        -24    2    1    2    0    0  0.00000000000E+00  0.00000000000E+00 -0.70232605861E+02  0.10650019560E+03  0.80060431782E+02 0.  0.
         66    2    3    3    0    0 -0.41969932964E+01  0.37204439922E+02 -0.53886065961E+02  0.65646730224E+02  0.19999954255E+01 0.  0.
         13    1    3    3    0    0  0.41969932964E+01 -0.37204439922E+02 -0.16346539899E+02  0.40853465377E+02  0.10566000000E+00 0. -1.
         13    1    4    4    0    0 -0.31276032788E+01  0.24214856892E+02 -0.33688875625E+02  0.41606402169E+02  0.10566000000E+00 0. -1.
        -13    1    4    4    0    0 -0.56509501852E+00  0.68109483341E+01 -0.10276520100E+02  0.12342057324E+02  0.10566000000E+00 0.  1.
         14    1    4    4    0    0 -0.50429499907E+00  0.61786346959E+01 -0.99206702360E+01  0.11698270730E+02  0.00000000000E+00 0. -1.
<mgrwt>
<rscale>  0 0.80060432E+02</rscale>
<asrwt>0</asrwt>
<pdfrwt beam="1">  1        1 0.27898146E-02 0.80060432E+02</pdfrwt>
<pdfrwt beam="2">  1       -2 0.13594831E-01 0.80060432E+02</pdfrwt>
<totfact> 0.10909982E+05</totfact>
</mgrwt>
</event>
<event>
 8    1  0.1241100E-020  0.8510455E+02  0.7818608E-02  0.1315159E+00
          1   -1    0    0  501    0  0.00000000000E+00  0.00000000000E+00  0.53357714761E+02  0.53357714999E+02  0.50400000000E-02 0. -1.
         -2   -1    0    0    0  501 -0.00000000000E+00 -0.00000000000E+00 -0.33935037870E+02  0.33935037966E+02  0.25500000000E-02 0.  1.
        -24    2    1    2    0    0  0.00000000000E+00  0.00000000000E+00  0.19422676891E+02  0.87292752965E+02  0.85104549483E+02 0.  0.
         66    2    3    3    0    0  0.28868523090E+02  0.19921525580E+01 -0.22250835997E+02  0.36557625710E+02  0.19999994316E+01 0.  0.
         13    1    3    3    0    0 -0.28868523090E+02 -0.19921525580E+01  0.41673512888E+02  0.50735127256E+02  0.10566000000E+00 0. -1.
         13    1    4    4    0    0  0.58664883544E+01  0.11329782120E+01 -0.48093328741E+01  0.76707347739E+01  0.10566000000E+00 0. -1.
        -13    1    4    4    0    0  0.13319717557E+02  0.78218062588E+00 -0.99511242842E+01  0.16645201137E+02  0.10566000000E+00 0.  1.
         14    1    4    4    0    0  0.96823171789E+01  0.76993720155E-01 -0.74903788390E+01  0.12241689799E+02  0.00000000000E+00 0. -1.
<mgrwt>
<rscale>  0 0.85104549E+02</rscale>
<asrwt>0</asrwt>
<pdfrwt beam="1">  1        1 0.82088793E-02 0.85104549E+02</pdfrwt>
<pdfrwt beam="2">  1       -2 0.52207751E-02 0.85104549E+02</pdfrwt>
<totfact> 0.11187311E+05</totfact>
</mgrwt>
</event>
<event>
 8    1  0.1241100E-020  0.7884027E+02  0.7818608E-02  0.1332375E+00
          1   -1    0    0  501    0  0.00000000000E+00  0.00000000000E+00  0.17170176303E+01  0.17170250273E+01  0.50400000000E-02 0. -1.
         -2   -1    0    0    0  501 -0.00000000000E+00 -0.00000000000E+00 -0.90502488004E+03  0.90502488005E+03  0.25500000000E-02 0.  1.
        -24    2    1    2    0    0  0.00000000000E+00  0.17763568394E-14 -0.90330786241E+03  0.90674190508E+03  0.78840269663E+02 0.  0.
         66    2    3    3    0    0 -0.28207893650E+02  0.15340639143E+02 -0.71443921609E+03  0.71516320793E+03  0.20000022148E+01 0.  0.
         13    1    3    3    0    0  0.28207893650E+02 -0.15340639143E+02 -0.18886864632E+03  0.19157869715E+03  0.10566000000E+00 0. -1.
         13    1    4    4    0    0 -0.64735710084E+01  0.38087862885E+01 -0.15182538204E+03  0.15201109094E+03  0.10566000000E+00 0. -1.
        -13    1    4    4    0    0 -0.19005851593E+02  0.10312465905E+02 -0.49069889255E+03  0.49117510489E+03  0.10566000000E+00 0.  1.
        -14    1    4    4    0    0 -0.27284710481E+01  0.12193869503E+01 -0.71914941503E+02  0.71977012096E+02  0.00000000000E+00 0.  1.
<mgrwt>
<rscale>  0 0.78840270E+02</rscale>
<asrwt>0</asrwt>
<pdfrwt beam="1">  1        1 0.26415785E-03 0.78840270E+02</pdfrwt>
<pdfrwt beam="2">  1       -2 0.13923422E+00 0.78840270E+02</pdfrwt>
<totfact> 0.30306204E+04</totfact>
</mgrwt>
</event>
<event>
 8    1  0.1241100E-020  0.7982835E+02  0.7818608E-02  0.1329539E+00
         -2   -1    0    0    0  501 -0.00000000000E+00  0.00000000000E+00  0.43340185195E+03  0.43340185196E+03  0.25500000000E-02 0.  1.
          1   -1    0    0  501    0  0.00000000000E+00 -0.00000000000E+00 -0.36758971303E+01  0.36759005855E+01  0.50400000000E-02 0. -1.
        -24    2    1    2    0    0  0.00000000000E+00  0.17763568394E-14  0.42972595482E+03  0.43707775254E+03  0.79828350367E+02 0.  0.
         66    2    3    3    0    0  0.25397887383E+02 -0.14848485762E+02  0.36248389074E+03  0.36368131831E+03  0.20000064682E+01 0.  0.
         13    1    3    3    0    0 -0.25397887383E+02  0.14848485762E+02  0.67242064078E+02  0.73396434236E+02  0.10566000000E+00 0. -1.
         13    1    4    4    0    0  0.10290121172E+02 -0.63953437539E+01  0.14340526132E+03  0.14391618100E+03  0.10566000000E+00 0. -1.
        -13    1    4    4    0    0  0.10476956852E+02 -0.54354153186E+01  0.14344274252E+03  0.14392755785E+03  0.10566000000E+00 0.  1.
        -14    1    4    4    0    0  0.46308093585E+01 -0.30177266897E+01  0.75635886901E+02  0.75837579451E+02  0.00000000000E+00 0.  1.
<mgrwt>
<rscale>  0 0.79828350E+02</rscale>
<asrwt>0</asrwt>
<pdfrwt beam="1">  1        1 0.56552333E-03 0.79828350E+02</pdfrwt>
<pdfrwt beam="2">  1       -2 0.66677158E-01 0.79828350E+02</pdfrwt>
<totfact> 0.56264427E+04</totfact>
</mgrwt>
</event>
<event>
 8    1  0.1241100E-020  0.7959279E+02  0.7818608E-02  0.1330211E+00
         -2   -1    0    0    0  501 -0.00000000000E+00  0.00000000000E+00  0.89070162835E+01  0.89070166485E+01  0.25500000000E-02 0.  1.
          1   -1    0    0  501    0  0.00000000000E+00 -0.00000000000E+00 -0.17780961406E+03  0.17780961414E+03  0.50400000000E-02 0. -1.
        -24    2    1    2    0    0  0.00000000000E+00  0.00000000000E+00 -0.16890259778E+03  0.18671663078E+03  0.79592792854E+02 0.  0.
         66    2    3    3    0    0  0.37782566488E+02 -0.97551027192E+01 -0.66475535382E+02  0.77108243171E+02  0.20000002744E+01 0.  0.
         13    1    3    3    0    0 -0.37782566488E+02  0.97551027192E+01 -0.10242706240E+03  0.10960838761E+03  0.10566000000E+00 0. -1.
         13    1    4    4    0    0  0.12320763832E+02 -0.40301911874E+01 -0.21600576115E+02  0.25192056584E+02  0.10566000000E+00 0. -1.
        -13    1    4    4    0    0  0.93015576785E+01 -0.23015740725E+01 -0.16945736273E+02  0.19467546335E+02  0.10566000000E+00 0.  1.
         14    1    4    4    0    0  0.16160244978E+02 -0.34233374594E+01 -0.27929222994E+02  0.32448640251E+02  0.00000000000E+00 0. -1.
<mgrwt>
<rscale>  0 0.79592793E+02</rscale>
<asrwt>0</asrwt>
<pdfrwt beam="1">  1        1 0.27355323E-01 0.79592793E+02</pdfrwt>
<pdfrwt beam="2">  1       -2 0.13703104E-02 0.79592793E+02</pdfrwt>
<totfact> 0.16522981E+05</totfact>
</mgrwt>
</event>
<event>
 8    1  0.1241100E-020  0.7939658E+02  0.7818608E-02  0.1330773E+00
          1   -1    0    0  501    0  0.00000000000E+00  0.00000000000E+00  0.12269261551E+03  0.12269261561E+03  0.50400000000E-02 0. -1.
         -2   -1    0    0    0  501 -0.00000000000E+00 -0.00000000000E+00 -0.12844735180E+02  0.12844735433E+02  0.25500000000E-02 0.  1.
        -24    2    1    2    0    0  0.00000000000E+00  0.00000000000E+00  0.10984788033E+03  0.13553735105E+03  0.79396578741E+02 0.  0.
         66    2    3    3    0    0 -0.21344255939E+01 -0.31837249067E+02  0.14713887055E+02  0.35194667999E+02  0.19999956212E+01 0.  0.
         13    1    3    3    0    0  0.21344255939E+01  0.31837249067E+02  0.95133993273E+02  0.10034268305E+03  0.10566000000E+00 0. -1.
         13    1    4    4    0    0 -0.13347695296E+01 -0.16883110159E+02  0.82730403785E+01  0.18848750077E+02  0.10566000000E+00 0.  1.
        -13    1    4    4    0    0  0.69156183562E-01 -0.66638368464E+01  0.33094629425E+01  0.74414523513E+01  0.10566000000E+00 0. -1.
         14    1    4    4    0    0 -0.86881224780E+00 -0.82903020624E+01  0.31313837342E+01  0.89044655706E+01  0.00000000000E+00 0. -1.
<mgrwt>
<rscale>  0 0.79396579E+02</rscale>
<asrwt>0</asrwt>
<pdfrwt beam="1">  1        1 0.18875787E-01 0.79396579E+02</pdfrwt>
<pdfrwt beam="2">  1       -2 0.19761132E-02 0.79396579E+02</pdfrwt>
<totfact> 0.15538361E+05</totfact>
</mgrwt>
</event>
<event>
 8    1  0.1241100E-020  0.7989956E+02  0.7818608E-02  0.1329337E+00
         -2   -1    0    0    0  501 -0.00000000000E+00  0.00000000000E+00  0.12198521926E+02  0.12198522193E+02  0.25500000000E-02 0.  1.
          1   -1    0    0  501    0  0.00000000000E+00 -0.00000000000E+00 -0.13083428183E+03  0.13083428193E+03  0.50400000000E-02 0. -1.
        -24    2    1    2    0    0  0.00000000000E+00  0.00000000000E+00 -0.11863575991E+03  0.14303280412E+03  0.79899558989E+02 0.  0.
         66    2    3    3    0    0 -0.26915592623E+02  0.29454328267E+02 -0.56840206042E+02  0.69475287707E+02  0.19999997757E+01 0.  0.
         13    1    3    3    0    0  0.26915592623E+02 -0.29454328267E+02 -0.61795553865E+02  0.73557516417E+02  0.10566000000E+00 0. -1.
         13    1    4    4    0    0 -0.12180666678E+02  0.13323858611E+02 -0.24656156296E+02  0.30558649452E+02  0.10566000000E+00 0. -1.
        -13    1    4    4    0    0 -0.12302436038E+02  0.12794327284E+02 -0.26205108011E+02  0.31650649173E+02  0.10566000000E+00 0.  1.
        -14    1    4    4    0    0 -0.24324899079E+01  0.33361423712E+01 -0.59789417347E+01  0.72659890820E+01  0.00000000000E+00 0.  1.
<mgrwt>
<rscale>  0 0.79899559E+02</rscale>
<asrwt>0</asrwt>
<pdfrwt beam="1">  1        1 0.20128350E-01 0.79899559E+02</pdfrwt>
<pdfrwt beam="2">  1       -2 0.18766958E-02 0.79899559E+02</pdfrwt>
<totfact> 0.15452670E+05</totfact>
</mgrwt>
</event>
<event>
 8    1  0.1241100E-020  0.7776895E+02  0.7818608E-02  0.1335505E+00
         -2   -1    0    0    0  501 -0.00000000000E+00  0.00000000000E+00  0.11551808781E+03  0.11551808784E+03  0.25500000000E-02 0.  1.
          1   -1    0    0  501    0  0.00000000000E+00 -0.00000000000E+00 -0.13088878770E+02  0.13088879740E+02  0.50400000000E-02 0. -1.
        -24    2    1    2    0    0  0.00000000000E+00  0.00000000000E+00  0.10242920904E+03  0.12860696758E+03  0.77768947820E+02 0.  0.
         66    2    3    3    0    0  0.23051862444E+02 -0.26995013920E+02  0.77389400050E+02  0.85165946215E+02  0.20000039798E+01 0.  0.
         13    1    3    3    0    0 -0.23051862444E+02  0.26995013920E+02  0.25039808988E+02  0.43441021361E+02  0.10566000000E+00 0. -1.
         13    1    4    4    0    0  0.10045120749E+02 -0.11788905508E+02  0.32245231931E+02  0.35772180395E+02  0.10566000000E+00 0. -1.
        -13    1    4    4    0    0  0.32405337912E+01 -0.31342829537E+01  0.96439032118E+01  0.10646164665E+02  0.10566000000E+00 0.  1.
        -14    1    4    4    0    0  0.97662079045E+01 -0.12071825458E+02  0.35500264908E+02  0.38747601155E+02  0.00000000000E+00 0.  1.
<mgrwt>
<rscale>  0 0.77768948E+02</rscale>
<asrwt>0</asrwt>
<pdfrwt beam="1">  1        1 0.20136737E-02 0.77768948E+02</pdfrwt>
<pdfrwt beam="2">  1       -2 0.17772014E-01 0.77768948E+02</pdfrwt>
<totfact> 0.10990345E+05</totfact>
</mgrwt>
</event>
<event>
 8    1  0.1241100E-020  0.7938771E+02  0.7818608E-02  0.1330798E+00
         -2   -1    0    0    0  501 -0.00000000000E+00  0.00000000000E+00  0.77000944785E+02  0.77000944827E+02  0.25500000000E-02 0.  1.
          1   -1    0    0  501    0  0.00000000000E+00 -0.00000000000E+00 -0.20462111312E+02  0.20462111932E+02  0.50400000000E-02 0. -1.
        -24    2    1    2    0    0  0.00000000000E+00  0.00000000000E+00  0.56538833473E+02  0.97463056759E+02  0.79387705234E+02 0.  0.
         66    2    3    3    0    0  0.20211872316E+02  0.36681520617E+01  0.69949463659E+02  0.72930806800E+02  0.19999980376E+01 0.  0.
         13    1    3    3    0    0 -0.20211872316E+02 -0.36681520617E+01 -0.13410630186E+02  0.24532249960E+02  0.10566000000E+00 0. -1.
         13    1    4    4    0    0  0.26597233591E+00  0.81885570789E-01  0.13611814152E+01  0.13933504264E+01  0.10566000000E+00 0. -1.
        -13    1    4    4    0    0  0.64379045846E+01  0.10360366962E+01  0.24718652626E+02  0.25564485897E+02  0.10566000000E+00 0.  1.
        -14    1    4    4    0    0  0.13507995395E+02  0.25502297947E+01  0.43869629618E+02  0.45972970476E+02  0.00000000000E+00 0.  1.
<mgrwt>
<rscale>  0 0.79387705E+02</rscale>
<asrwt>0</asrwt>
<pdfrwt beam="1">  1        1 0.31480172E-02 0.79387705E+02</pdfrwt>
<pdfrwt beam="2">  1       -2 0.11846299E-01 0.79387705E+02</pdfrwt>
<totfact> 0.11490209E+05</totfact>
</mgrwt>
</event>
<event>
 8    1  0.1241100E-020  0.8561637E+02  0.7818608E-02  0.1313828E+00
          1   -1    0    0  501    0  0.00000000000E+00  0.00000000000E+00  0.37476652256E+02  0.37476652595E+02  0.50400000000E-02 0. -1.
         -2   -1    0    0    0  501 -0.00000000000E+00 -0.00000000000E+00 -0.48898199470E+02  0.48898199536E+02  0.25500000000E-02 0.  1.
        -24    2    1    2    0    0 -0.35527136788E-14  0.44408920985E-15 -0.11421547214E+02  0.86374852131E+02  0.85616373083E+02 0.  0.
         66    2    3    3    0    0  0.26112873754E+02 -0.29420988480E+01 -0.39776848174E+02  0.47715152469E+02  0.20000007998E+01 0.  0.
         13    1    3    3    0    0 -0.26112873754E+02  0.29420988480E+01  0.28355300960E+02  0.38659699661E+02  0.10566000000E+00 0. -1.
         13    1    4    4    0    0  0.52285087877E+00 -0.96610422053E-01 -0.11449569071E+01  0.12668058137E+01  0.10566000000E+00 0. -1.
        -13    1    4    4    0    0  0.18972890697E+02 -0.18741723171E+01 -0.27520602341E+02  0.33479513445E+02  0.10566000000E+00 0.  1.
        -14    1    4    4    0    0  0.66171321778E+01 -0.97131610890E+00 -0.11111288926E+02  0.12968833211E+02  0.00000000000E+00 0.  1.
<mgrwt>
<rscale>  0 0.85616373E+02</rscale>
<asrwt>0</asrwt>
<pdfrwt beam="1">  1        1 0.57656388E-02 0.85616373E+02</pdfrwt>
<pdfrwt beam="2">  1       -2 0.75228000E-02 0.85616373E+02</pdfrwt>
<totfact> 0.10354849E+05</totfact>
</mgrwt>
</event>
<event>
 8    1  0.1241100E-020  0.7983777E+02  0.7818608E-02  0.1329512E+00
          1   -1    0    0  501    0  0.00000000000E+00  0.00000000000E+00  0.96126127740E+02  0.96126127872E+02  0.50400000000E-02 0. -1.
         -2   -1    0    0    0  501 -0.00000000000E+00 -0.00000000000E+00 -0.16577359535E+02  0.16577359732E+02  0.25500000000E-02 0.  1.
        -24    2    1    2    0    0  0.00000000000E+00  0.00000000000E+00  0.79548768204E+02  0.11270348760E+03  0.79837770480E+02 0.  0.
         66    2    3    3    0    0  0.23309033735E+02  0.46084714261E+01 -0.54390418430E+01  0.24456742149E+02  0.19999994623E+01 0.  0.
         13    1    3    3    0    0 -0.23309033735E+02 -0.46084714261E+01  0.84987810047E+02  0.88246745454E+02  0.10566000000E+00 0. -1.
         13    1    4    4    0    0  0.65888256616E+01  0.18647904883E+01 -0.13662025211E+01  0.69833903320E+01  0.10566000000E+00 0. -1.
        -13    1    4    4    0    0  0.48527811411E+01  0.13776027341E+01 -0.12781187687E+01  0.52050000691E+01  0.10566000000E+00 0.  1.
         14    1    4    4    0    0  0.11867426932E+02  0.13660782037E+01 -0.27947205532E+01  0.12268351748E+02  0.00000000000E+00 0. -1.
<mgrwt>
<rscale>  0 0.79837770E+02</rscale>
<asrwt>0</asrwt>
<pdfrwt beam="1">  1        1 0.14788635E-01 0.79837770E+02</pdfrwt>
<pdfrwt beam="2">  1       -2 0.25503630E-02 0.79837770E+02</pdfrwt>
<totfact> 0.14682594E+05</totfact>
</mgrwt>
</event>
<event>
 8    1  0.1241100E-020  0.8134343E+02  0.7818608E-02  0.1325282E+00
         -2   -1    0    0    0  501 -0.00000000000E+00  0.00000000000E+00  0.18142531476E+02  0.18142531655E+02  0.25500000000E-02 0.  1.
          1   -1    0    0  501    0  0.00000000000E+00 -0.00000000000E+00 -0.91177365118E+02  0.91177365257E+02  0.50400000000E-02 0. -1.
        -24    2    1    2    0    0  0.00000000000E+00  0.00000000000E+00 -0.73034833642E+02  0.10931989691E+03  0.81343425891E+02 0.  0.
         66    2    3    3    0    0 -0.12585080780E+02  0.25652882180E+02  0.23122127396E+01  0.28736752367E+02  0.19999966121E+01 0.  0.
         13    1    3    3    0    0  0.12585080780E+02 -0.25652882180E+02 -0.75347046382E+02  0.80583144546E+02  0.10566000000E+00 0. -1.
         13    1    4    4    0    0 -0.52843196724E+01  0.90964173550E+01  0.53889066911E+00  0.10534249394E+02  0.10566000000E+00 0. -1.
        -13    1    4    4    0    0 -0.11949270593E+01  0.30683318196E+01  0.61580582236E+00  0.33515506380E+01  0.10566000000E+00 0.  1.
         14    1    4    4    0    0 -0.61058340483E+01  0.13488133005E+02  0.11575162481E+01  0.14850952335E+02  0.00000000000E+00 0. -1.
<mgrwt>
<rscale>  0 0.81343426E+02</rscale>
<asrwt>0</asrwt>
<pdfrwt beam="1">  1        1 0.14027287E-01 0.81343426E+02</pdfrwt>
<pdfrwt beam="2">  1       -2 0.27911588E-02 0.81343426E+02</pdfrwt>
<totfact> 0.13835072E+05</totfact>
</mgrwt>
</event>
<event>
 8    1  0.1241100E-020  0.7475794E+02  0.7818608E-02  0.1344622E+00
         -2   -1    0    0    0  501 -0.00000000000E+00  0.00000000000E+00  0.64159045966E+02  0.64159046017E+02  0.25500000000E-02 0.  1.
          1   -1    0    0  501    0  0.00000000000E+00 -0.00000000000E+00 -0.21776932677E+02  0.21776933260E+02  0.50400000000E-02 0. -1.
        -24    2    1    2    0    0  0.44408920985E-15 -0.35527136788E-14  0.42382113290E+02  0.85935979277E+02  0.74757936083E+02 0.  0.
         66    2    3    3    0    0 -0.31298743367E+01  0.25318541247E+02  0.52568530109E+02  0.58466015756E+02  0.19999990761E+01 0.  0.
         13    1    3    3    0    0  0.31298743367E+01 -0.25318541247E+02 -0.10186416819E+02  0.27469963522E+02  0.10566000000E+00 0. -1.
         13    1    4    4    0    0 -0.88882819017E+00  0.63140994040E+01  0.14214024310E+02  0.15579073078E+02  0.10566000000E+00 0. -1.
        -13    1    4    4    0    0 -0.12250166106E+01  0.96153942658E+01  0.17855615192E+02  0.20317249580E+02  0.10566000000E+00 0.  1.
        -14    1    4    4    0    0 -0.10160295359E+01  0.93890475771E+01  0.20498890607E+02  0.22569693098E+02  0.00000000000E+00 0.  1.
<mgrwt>
<rscale>  0 0.74757936E+02</rscale>
<asrwt>0</asrwt>
<pdfrwt beam="1">  1        1 0.33502974E-02 0.74757936E+02</pdfrwt>
<pdfrwt beam="2">  1       -2 0.98706224E-02 0.74757936E+02</pdfrwt>
<totfact> 0.13877461E+05</totfact>
</mgrwt>
</event>
<event>
 8    1  0.1241100E-020  0.7913831E+02  0.7818608E-02  0.1331515E+00
         -2   -1    0    0    0  501 -0.00000000000E+00  0.00000000000E+00  0.35475856885E+03  0.35475856886E+03  0.25500000000E-02 0.  1.
          1   -1    0    0  501    0  0.00000000000E+00 -0.00000000000E+00 -0.44134734722E+01  0.44134763500E+01  0.50400000000E-02 0. -1.
        -24    2    1    2    0    0  0.00000000000E+00  0.00000000000E+00  0.35034509538E+03  0.35917204521E+03  0.79138310599E+02 0.  0.
         66    2    3    3    0    0 -0.27126848688E+02 -0.21316603888E+02  0.26299060764E+03  0.26525143399E+03  0.20000005595E+01 0.  0.
         13    1    3    3    0    0  0.27126848688E+02  0.21316603888E+02  0.87354487738E+02  0.93920611226E+02  0.10566000000E+00 0. -1.
         13    1    4    4    0    0 -0.34725686612E+01 -0.23256316729E+01  0.35426956225E+02  0.35672786367E+02  0.10566000000E+00 0. -1.
        -13    1    4    4    0    0 -0.20514113068E+02 -0.16522969481E+02  0.19504936420E+03  0.19681997611E+03  0.10566000000E+00 0.  1.
         14    1    4    4    0    0 -0.31401669593E+01 -0.24680027347E+01  0.32514287215E+02  0.32758671510E+02  0.00000000000E+00 0. -1.
<mgrwt>
<rscale>  0 0.79138311E+02</rscale>
<asrwt>0</asrwt>
<pdfrwt beam="1">  1        1 0.67899592E-03 0.79138311E+02</pdfrwt>
<pdfrwt beam="2">  1       -2 0.54578259E-01 0.79138311E+02</pdfrwt>
<totfact> 0.65597508E+04</totfact>
</mgrwt>
</event>
<event>
 8    1  0.1241100E-020  0.7935325E+02  0.7818608E-02  0.1330897E+00
          1   -1    0    0  501    0  0.00000000000E+00  0.00000000000E+00  0.51092316019E+02  0.51092316268E+02  0.50400000000E-02 0. -1.
         -2   -1    0    0    0  501 -0.00000000000E+00 -0.00000000000E+00 -0.30811570561E+02  0.30811570666E+02  0.25500000000E-02 0.  1.
        -24    2    1    2    0    0  0.00000000000E+00 -0.35527136788E-14  0.20280745458E+02  0.81903886934E+02  0.79353248569E+02 0.  0.
         66    2    3    3    0    0 -0.30110612804E+02  0.15714102262E+02 -0.10971752787E+02  0.35748585787E+02  0.20000033016E+01 0.  0.
         13    1    3    3    0    0  0.30110612804E+02 -0.15714102262E+02  0.31252498246E+02  0.46155301147E+02  0.10566000000E+00 0. -1.
         13    1    4    4    0    0 -0.19465353489E+02  0.96545774177E+01 -0.66750532294E+01  0.22730559852E+02  0.10566000000E+00 0. -1.
        -13    1    4    4    0    0 -0.51827213167E+01  0.28957969752E+01 -0.15708114980E+01  0.61420561025E+01  0.10566000000E+00 0.  1.
         14    1    4    4    0    0 -0.54625379988E+01  0.31637278689E+01 -0.27258880598E+01  0.68759698321E+01  0.00000000000E+00 0. -1.
<mgrwt>
<rscale>  0 0.79353249E+02</rscale>
<asrwt>0</asrwt>
<pdfrwt beam="1">  1        1 0.78603563E-02 0.79353249E+02</pdfrwt>
<pdfrwt beam="2">  1       -2 0.47402417E-02 0.79353249E+02</pdfrwt>
<totfact> 0.13502797E+05</totfact>
</mgrwt>
</event>
<event>
 8    1  0.1241100E-020  0.7814517E+02  0.7818608E-02  0.1334399E+00
         -2   -1    0    0    0  501 -0.00000000000E+00  0.00000000000E+00  0.11694300641E+03  0.11694300644E+03  0.25500000000E-02 0.  1.
          1   -1    0    0  501    0  0.00000000000E+00 -0.00000000000E+00 -0.13054792769E+02  0.13054793742E+02  0.50400000000E-02 0. -1.
        -24    2    1    2    0    0  0.88817841970E-15  0.00000000000E+00  0.10388821364E+03  0.12999780018E+03  0.78145166953E+02 0.  0.
         66    2    3    3    0    0  0.47789558453E+01  0.37730185505E+02  0.66694186890E+02  0.76801821881E+02  0.19999905220E+01 0.  0.
         13    1    3    3    0    0 -0.47789558453E+01 -0.37730185505E+02  0.37194026753E+02  0.53195978300E+02  0.10566000000E+00 0. -1.
         13    1    4    4    0    0  0.18573202006E+01  0.18961508837E+02  0.33209587155E+02  0.38286764015E+02  0.10566000000E+00 0. -1.
        -13    1    4    4    0    0  0.61901145886E+00  0.57135513238E+01  0.11083569883E+02  0.12485372614E+02  0.10566000000E+00 0.  1.
        -14    1    4    4    0    0  0.23026241859E+01  0.13055125344E+02  0.22401029853E+02  0.26029685253E+02  0.00000000000E+00 0.  1.
<mgrwt>
<rscale>  0 0.78145167E+02</rscale>
<asrwt>0</asrwt>
<pdfrwt beam="1">  1        1 0.20084297E-02 0.78145167E+02</pdfrwt>
<pdfrwt beam="2">  1       -2 0.17991232E-01 0.78145167E+02</pdfrwt>
<totfact> 0.10818962E+05</totfact>
</mgrwt>
</event>
<event>
 8    1  0.1241100E-020  0.7973384E+02  0.7818608E-02  0.1329808E+00
         -2   -1    0    0    0  501 -0.00000000000E+00  0.00000000000E+00  0.13898098519E+03  0.13898098522E+03  0.25500000000E-02 0.  1.
          1   -1    0    0  501    0  0.00000000000E+00 -0.00000000000E+00 -0.11435889277E+02  0.11435890388E+02  0.50400000000E-02 0. -1.
        -24    2    1    2    0    0  0.17763568394E-14  0.00000000000E+00  0.12754509592E+03  0.15041687561E+03  0.79733838326E+02 0.  0.
         66    2    3    3    0    0  0.14201573301E+02 -0.45735974081E+01  0.13350451431E+03  0.13435050361E+03  0.20000003546E+01 0.  0.
         13    1    3    3    0    0 -0.14201573301E+02  0.45735974081E+01 -0.59594183929E+01  0.16066371996E+02  0.10566000000E+00 0. -1.
         13    1    4    4    0    0  0.22833522703E+01 -0.37473376089E+00  0.22359335873E+02  0.22478994366E+02  0.10566000000E+00 0. -1.
        -13    1    4    4    0    0  0.11417958533E+02 -0.36632388095E+01  0.10526029664E+03  0.10594116437E+03  0.10566000000E+00 0.  1.
        -14    1    4    4    0    0  0.50026249864E+00 -0.53562483774E+00  0.58848817960E+01  0.59303448709E+01  0.00000000000E+00 0.  1.
<mgrwt>
<rscale>  0 0.79733838E+02</rscale>
<asrwt>0</asrwt>
<pdfrwt beam="1">  1        1 0.17593677E-02 0.79733838E+02</pdfrwt>
<pdfrwt beam="2">  1       -2 0.21381690E-01 0.79733838E+02</pdfrwt>
<totfact> 0.97678771E+04</totfact>
</mgrwt>
</event>
<event>
 8    1  0.1241100E-020  0.7775759E+02  0.7818608E-02  0.1335538E+00
         -2   -1    0    0    0  501 -0.00000000000E+00  0.00000000000E+00  0.36376968544E+02  0.36376968633E+02  0.25500000000E-02 0.  1.
          1   -1    0    0  501    0  0.00000000000E+00 -0.00000000000E+00 -0.41552686716E+02  0.41552687022E+02  0.50400000000E-02 0. -1.
        -24    2    1    2    0    0 -0.17763568394E-14 -0.17763568394E-14 -0.51757181724E+01  0.77929655655E+02  0.77757592374E+02 0.  0.
         66    2    3    3    0    0  0.12526691295E+02 -0.12224165266E+02  0.32174474004E+02  0.36681671088E+02  0.20000012839E+01 0.  0.
         13    1    3    3    0    0 -0.12526691295E+02  0.12224165266E+02 -0.37350192176E+02  0.41247984567E+02  0.10566000000E+00 0. -1.
         13    1    4    4    0    0  0.29453467650E+01 -0.21253373694E+01  0.70174781921E+01  0.79024230911E+01  0.10566000000E+00 0. -1.
        -13    1    4    4    0    0  0.24389690497E+01 -0.33965627935E+01  0.75654640622E+01  0.86448030254E+01  0.10566000000E+00 0.  1.
        -14    1    4    4    0    0  0.71423754803E+01 -0.67022651026E+01  0.17591531749E+02  0.20134444971E+02  0.00000000000E+00 0.  1.
<mgrwt>
<rscale>  0 0.77757592E+02</rscale>
<asrwt>0</asrwt>
<pdfrwt beam="1">  1        1 0.63927211E-02 0.77757592E+02</pdfrwt>
<pdfrwt beam="2">  1       -2 0.55964567E-02 0.77757592E+02</pdfrwt>
<totfact> 0.13835861E+05</totfact>
</mgrwt>
</event>
<event>
 8    1  0.1241100E-020  0.7844169E+02  0.7818608E-02  0.1333533E+00
         -2   -1    0    0    0  501 -0.00000000000E+00  0.00000000000E+00  0.14855119105E+03  0.14855119107E+03  0.25500000000E-02 0.  1.
          1   -1    0    0  501    0  0.00000000000E+00 -0.00000000000E+00 -0.10355180783E+02  0.10355182009E+02  0.50400000000E-02 0. -1.
        -24    2    1    2    0    0  0.35527136788E-14  0.00000000000E+00  0.13819601026E+03  0.15890637308E+03  0.78441686315E+02 0.  0.
         66    2    3    3    0    0 -0.26540763317E+02  0.16866913887E+02  0.11653782741E+03  0.12072269921E+03  0.19999963453E+01 0.  0.
         13    1    3    3    0    0  0.26540763317E+02 -0.16866913887E+02  0.21658182852E+02  0.38183673867E+02  0.10566000000E+00 0. -1.
         13    1    4    4    0    0 -0.12709507138E+02  0.85414391277E+01  0.59694645245E+02  0.61627506757E+02  0.10566000000E+00 0. -1.
        -13    1    4    4    0    0 -0.17720553605E+01  0.13031368780E+01  0.80196652364E+01  0.83165221375E+01  0.10566000000E+00 0.  1.
         14    1    4    4    0    0 -0.12059200818E+02  0.70223378811E+01  0.48823516929E+02  0.50778670316E+02  0.00000000000E+00 0. -1.
<mgrwt>
<rscale>  0 0.78441686E+02</rscale>
<asrwt>0</asrwt>
<pdfrwt beam="1">  1        1 0.15931049E-02 0.78441686E+02</pdfrwt>
<pdfrwt beam="2">  1       -2 0.22854028E-01 0.78441686E+02</pdfrwt>
<totfact> 0.99731388E+04</totfact>
</mgrwt>
</event>
<event>
 8    1  0.1241100E-020  0.7773904E+02  0.7818608E-02  0.1335593E+00
          1   -1    0    0  501    0  0.00000000000E+00  0.00000000000E+00  0.51025645100E+01  0.51025669991E+01  0.50400000000E-02 0. -1.
         -2   -1    0    0    0  501 -0.00000000000E+00 -0.00000000000E+00 -0.29609407108E+03  0.29609407109E+03  0.25500000000E-02 0.  1.
        -24    2    1    2    0    0  0.00000000000E+00  0.00000000000E+00 -0.29099150657E+03  0.30119663809E+03  0.77739037175E+02 0.  0.
         66    2    3    3    0    0  0.19780535084E+01 -0.31149083044E+02 -0.23517948423E+03  0.23725001134E+03  0.20000028721E+01 0.  0.
         13    1    3    3    0    0 -0.19780535084E+01  0.31149083044E+02 -0.55812022346E+02  0.63946626749E+02  0.10566000000E+00 0. -1.
         13    1    4    4    0    0  0.93513934724E+00 -0.18770629722E+02 -0.14753350559E+03  0.14872577941E+03  0.10566000000E+00 0. -1.
        -13    1    4    4    0    0  0.17679874323E+00 -0.50056336369E+01 -0.34050335351E+02  0.34416916298E+02  0.10566000000E+00 0.  1.
         14    1    4    4    0    0  0.86611541796E+00 -0.73728196844E+01 -0.53595643287E+02  0.54107315637E+02  0.00000000000E+00 0. -1.
<mgrwt>
<rscale>  0 0.77739037E+02</rscale>
<asrwt>0</asrwt>
<pdfrwt beam="1">  1        1 0.78501035E-03 0.77739037E+02</pdfrwt>
<pdfrwt beam="2">  1       -2 0.45552921E-01 0.77739037E+02</pdfrwt>
<totfact> 0.76205092E+04</totfact>
</mgrwt>
</event>
<event>
 8    1  0.1241100E-020  0.8084149E+02  0.7818608E-02  0.1326680E+00
         -2   -1    0    0    0  501 -0.00000000000E+00  0.00000000000E+00  0.10606548490E+02  0.10606548796E+02  0.25500000000E-02 0.  1.
          1   -1    0    0  501    0  0.00000000000E+00 -0.00000000000E+00 -0.15404036280E+03  0.15404036289E+03  0.50400000000E-02 0. -1.
        -24    2    1    2    0    0  0.00000000000E+00 -0.35527136788E-14 -0.14343381431E+03  0.16464691168E+03  0.80841489582E+02 0.  0.
         66    2    3    3    0    0 -0.26254878742E+02  0.30586553601E+02 -0.77139824961E+02  0.87059798659E+02  0.20000071339E+01 0.  0.
         13    1    3    3    0    0  0.26254878742E+02 -0.30586553601E+02 -0.66293989353E+02  0.77587113024E+02  0.10566000000E+00 0. -1.
         13    1    4    4    0    0 -0.20064017043E+01  0.25681620483E+01 -0.58099392209E+01  0.66624066141E+01  0.10566000000E+00 0. -1.
        -13    1    4    4    0    0 -0.23719587437E+02  0.27714121193E+02 -0.70273932030E+02  0.79177825360E+02  0.10566000000E+00 0.  1.
         14    1    4    4    0    0 -0.52888960017E+00  0.30427035982E+00 -0.10559537101E+01  0.12195666849E+01  0.00000000000E+00 0. -1.
<mgrwt>
<rscale>  0 0.80841490E+02</rscale>
<asrwt>0</asrwt>
<pdfrwt beam="1">  1        1 0.23698516E-01 0.80841490E+02</pdfrwt>
<pdfrwt beam="2">  1       -2 0.16317768E-02 0.80841490E+02</pdfrwt>
<totfact> 0.15428811E+05</totfact>
</mgrwt>
</event>
<event>
 8    1  0.1241100E-020  0.8133160E+02  0.7818608E-02  0.1325314E+00
         -2   -1    0    0    0  501 -0.00000000000E+00  0.00000000000E+00  0.12283527852E+03  0.12283527854E+03  0.25500000000E-02 0.  1.
          1   -1    0    0  501    0  0.00000000000E+00 -0.00000000000E+00 -0.13462802795E+02  0.13462803738E+02  0.50400000000E-02 0. -1.
        -24    2    1    2    0    0  0.13877787808E-16  0.00000000000E+00  0.10937247572E+03  0.13629808228E+03  0.81331597722E+02 0.  0.
         66    2    3    3    0    0  0.76651879682E-01 -0.37767259783E+02  0.79875143468E+02  0.88376525951E+02  0.20000020307E+01 0.  0.
         13    1    3    3    0    0 -0.76651879682E-01  0.37767259783E+02  0.29497332255E+02  0.47921556331E+02  0.10566000000E+00 0. -1.
         13    1    4    4    0    0 -0.22675662915E+00 -0.15813075225E+02  0.34193864626E+02  0.37674080065E+02  0.10566000000E+00 0. -1.
        -13    1    4    4    0    0  0.45410455524E+00 -0.20906481836E+02  0.43985823636E+02  0.48703706622E+02  0.10566000000E+00 0.  1.
         14    1    4    4    0    0 -0.15069604641E+00 -0.10477027220E+01  0.16954552048E+01  0.19987392635E+01  0.00000000000E+00 0. -1.
<mgrwt>
<rscale>  0 0.81331598E+02</rscale>
<asrwt>0</asrwt>
<pdfrwt beam="1">  1        1 0.20712005E-02 0.81331598E+02</pdfrwt>
<pdfrwt beam="2">  1       -2 0.18897735E-01 0.81331598E+02</pdfrwt>
<totfact> 0.96308059E+04</totfact>
</mgrwt>
</event>
<event>
 8    1  0.1241100E-020  0.7823241E+02  0.7818608E-02  0.1334144E+00
         -2   -1    0    0    0  501 -0.00000000000E+00  0.00000000000E+00  0.89571337357E+03  0.89571337357E+03  0.25500000000E-02 0.  1.
          1   -1    0    0  501    0  0.00000000000E+00 -0.00000000000E+00 -0.17082185685E+01  0.17082260036E+01  0.50400000000E-02 0. -1.
        -24    2    1    2    0    0  0.35527136788E-14  0.00000000000E+00  0.89400515500E+03  0.89742159958E+03  0.78232411560E+02 0.  0.
         66    2    3    3    0    0  0.20334074455E+02  0.11375085294E+02  0.80735252231E+03  0.80769113059E+03  0.19999983877E+01 0.  0.
         13    1    3    3    0    0 -0.20334074455E+02 -0.11375085294E+02  0.86652632687E+02  0.89730468989E+02  0.10566000000E+00 0. -1.
         13    1    4    4    0    0  0.11830051515E+02  0.66827950942E+01  0.45417727896E+03  0.45438048126E+03  0.10566000000E+00 0. -1.
        -13    1    4    4    0    0  0.68646799453E+01  0.38317809058E+01  0.30063564220E+03  0.30073843602E+03  0.10566000000E+00 0.  1.
         14    1    4    4    0    0  0.16393429949E+01  0.86050929410E+00  0.52539601163E+02  0.52572213307E+02  0.00000000000E+00 0. -1.
<mgrwt>
<rscale>  0 0.78232412E+02</rscale>
<asrwt>0</asrwt>
<pdfrwt beam="1">  1        1 0.26280263E-03 0.78232412E+02</pdfrwt>
<pdfrwt beam="2">  1       -2 0.13780247E+00 0.78232412E+02</pdfrwt>
<totfact> 0.31267885E+04</totfact>
</mgrwt>
</event>
<event>
 8    1  0.1241100E-020  0.7973507E+02  0.7818608E-02  0.1329805E+00
         -2   -1    0    0    0  501 -0.00000000000E+00  0.00000000000E+00  0.36627084707E+02  0.36627084796E+02  0.25500000000E-02 0.  1.
          1   -1    0    0  501    0  0.00000000000E+00 -0.00000000000E+00 -0.43394667991E+02  0.43394668284E+02  0.50400000000E-02 0. -1.
        -24    2    1    2    0    0  0.88817841970E-15  0.35527136788E-14 -0.67675832839E+01  0.80021753079E+02  0.79735066203E+02 0.  0.
         66    2    3    3    0    0  0.78914435716E+01  0.22787236011E+02  0.28443765227E+02  0.37344086382E+02  0.20000001814E+01 0.  0.
         13    1    3    3    0    0 -0.78914435716E+01 -0.22787236011E+02 -0.35211348511E+02  0.42677666697E+02  0.10566000000E+00 0. -1.
         13    1    4    4    0    0  0.30115495322E+01  0.69449129838E+01  0.97242765301E+01  0.12323715552E+02  0.10566000000E+00 0.  1.
        -13    1    4    4    0    0  0.24093713649E+01  0.63753255274E+01  0.78161678397E+01  0.10370799858E+02  0.10566000000E+00 0. -1.
        -14    1    4    4    0    0  0.24705226745E+01  0.94669975003E+01  0.10903320858E+02  0.14649570973E+02  0.00000000000E+00 0.  1.
<mgrwt>
<rscale>  0 0.79735066E+02</rscale>
<asrwt>0</asrwt>
<pdfrwt beam="1">  1        1 0.66761029E-02 0.79735066E+02</pdfrwt>
<pdfrwt beam="2">  1       -2 0.56349361E-02 0.79735066E+02</pdfrwt>
<totfact> 0.12985332E+05</totfact>
</mgrwt>
</event>
<event>
 8    1  0.1241100E-020  0.7937120E+02  0.7818608E-02  0.1330845E+00
          1   -1    0    0  501    0  0.00000000000E+00  0.00000000000E+00  0.65107505240E+02  0.65107505436E+02  0.50400000000E-02 0. -1.
         -2   -1    0    0    0  501 -0.00000000000E+00 -0.00000000000E+00 -0.24189942150E+02  0.24189942284E+02  0.25500000000E-02 0.  1.
        -24    2    1    2    0    0  0.00000000000E+00  0.00000000000E+00  0.40917563091E+02  0.89297447720E+02  0.79371198806E+02 0.  0.
         66    2    3    3    0    0  0.19939190050E+02  0.48562511332E+01 -0.17710580184E+02  0.27181227432E+02  0.19999998420E+01 0.  0.
         13    1    3    3    0    0 -0.19939190050E+02 -0.48562511332E+01  0.58628143275E+02  0.62116220287E+02  0.10566000000E+00 0. -1.
         13    1    4    4    0    0  0.45784934989E+01  0.84923630369E+00 -0.33226649028E+01  0.57214570793E+01  0.10566000000E+00 0. -1.
        -13    1    4    4    0    0  0.98826222427E+01  0.31644111788E+01 -0.95429236787E+01  0.14098165727E+02  0.10566000000E+00 0.  1.
        -14    1    4    4    0    0  0.54780743082E+01  0.84260365075E+00 -0.48449916023E+01  0.73616046256E+01  0.00000000000E+00 0.  1.
<mgrwt>
<rscale>  0 0.79371199E+02</rscale>
<asrwt>0</asrwt>
<pdfrwt beam="1">  1        1 0.10016539E-01 0.79371199E+02</pdfrwt>
<pdfrwt beam="2">  1       -2 0.37215296E-02 0.79371199E+02</pdfrwt>
<totfact> 0.14013290E+05</totfact>
</mgrwt>
</event>
<event>
 8    1  0.1241100E-020  0.8055996E+02  0.7818608E-02  0.1327470E+00
         -2   -1    0    0    0  501 -0.00000000000E+00  0.00000000000E+00  0.49397393178E+02  0.49397393244E+02  0.25500000000E-02 0.  1.
          1   -1    0    0  501    0  0.00000000000E+00 -0.00000000000E+00 -0.32845396562E+02  0.32845396948E+02  0.50400000000E-02 0. -1.
        -24    2    1    2    0    0  0.35527136788E-14  0.00000000000E+00  0.16551996616E+02  0.82242790192E+02  0.80559964912E+02 0.  0.
         66    2    3    3    0    0  0.19194567419E+02  0.93078555918E+01  0.43132217674E+02  0.48160728786E+02  0.20000004094E+01 0.  0.
         13    1    3    3    0    0 -0.19194567419E+02 -0.93078555918E+01 -0.26580221058E+02  0.34082061405E+02  0.10566000000E+00 0. -1.
         13    1    4    4    0    0  0.85033931487E+00  0.18937898215E+00  0.13941128638E+01  0.16473178388E+01  0.10566000000E+00 0. -1.
        -13    1    4    4    0    0  0.35615150568E+01  0.15426604846E+01  0.68850396923E+01  0.79043738823E+01  0.10566000000E+00 0. -1.
        -14    1    4    4    0    0  0.14782713047E+02  0.75758161251E+01  0.34853065118E+02  0.38609037065E+02  0.00000000000E+00 0.  1.
<mgrwt>
<rscale>  0 0.80559965E+02</rscale>
<asrwt>0</asrwt>
<pdfrwt beam="1">  1        1 0.50531380E-02 0.80559965E+02</pdfrwt>
<pdfrwt beam="2">  1       -2 0.75995989E-02 0.80559965E+02</pdfrwt>
<totfact> 0.12044801E+05</totfact>
</mgrwt>
</event>
<event>
 8    1  0.1241100E-020  0.7982883E+02  0.7818608E-02  0.1329538E+00
          1   -1    0    0  501    0  0.00000000000E+00  0.00000000000E+00  0.15358961190E+03  0.15358961199E+03  0.50400000000E-02 0. -1.
         -2   -1    0    0    0  501 -0.00000000000E+00 -0.00000000000E+00 -0.10372839032E+02  0.10372839345E+02  0.25500000000E-02 0.  1.
        -24    2    1    2    0    0  0.00000000000E+00 -0.88817841970E-15  0.14321677287E+03  0.16396245133E+03  0.79828825714E+02 0.  0.
         66    2    3    3    0    0 -0.27438836828E+02 -0.76265137895E+01  0.14286447520E+02  0.31924224146E+02  0.20000063738E+01 0.  0.
         13    1    3    3    0    0  0.27438836828E+02  0.76265137895E+01  0.12893032535E+03  0.13203822719E+03  0.10566000000E+00 0. -1.
         13    1    4    4    0    0 -0.16260874643E+02 -0.54868259166E+01  0.87613536377E+01  0.19268985038E+02  0.10566000000E+00 0. -1.
        -13    1    4    4    0    0 -0.56103499209E+01 -0.96747910394E+00  0.26563478767E+01  0.62832626978E+01  0.10566000000E+00 0.  1.
         14    1    4    4    0    0 -0.55676122646E+01 -0.11722087690E+01  0.28687460060E+01  0.63719764104E+01  0.00000000000E+00 0. -1.
<mgrwt>
<rscale>  0 0.79828826E+02</rscale>
<asrwt>0</asrwt>
<pdfrwt beam="1">  1        1 0.23629172E-01 0.79828826E+02</pdfrwt>
<pdfrwt beam="2">  1       -2 0.15958214E-02 0.79828826E+02</pdfrwt>
<totfact> 0.15948614E+05</totfact>
</mgrwt>
</event>
<event>
 8    1  0.1241100E-020  0.8035354E+02  0.7818608E-02  0.1328051E+00
         -2   -1    0    0    0  501 -0.00000000000E+00  0.00000000000E+00  0.11441358843E+02  0.11441359127E+02  0.25500000000E-02 0.  1.
          1   -1    0    0  501    0  0.00000000000E+00 -0.00000000000E+00 -0.14108225440E+03  0.14108225449E+03  0.50400000000E-02 0. -1.
        -24    2    1    2    0    0  0.00000000000E+00  0.55511151231E-16 -0.12964089555E+03  0.15252361361E+03  0.80353537009E+02 0.  0.
         66    2    3    3    0    0  0.40141612766E+02 -0.42340441433E+00 -0.63342659925E+02  0.75018803709E+02  0.19999992173E+01 0.  0.
         13    1    3    3    0    0 -0.40141612766E+02  0.42340441433E+00 -0.66298235630E+02  0.77504809905E+02  0.10566000000E+00 0. -1.
         13    1    4    4    0    0  0.35340166877E+01 -0.45795229733E+00 -0.56747077800E+01  0.67016764081E+01  0.10566000000E+00 0. -1.
        -13    1    4    4    0    0  0.21753910818E+02 -0.54745866982E+00 -0.34632168168E+02  0.40901474093E+02  0.10566000000E+00 0.  1.
        -14    1    4    4    0    0  0.14853685261E+02  0.58200655283E+00 -0.23035783976E+02  0.27415653208E+02  0.00000000000E+00 0.  1.
<mgrwt>
<rscale>  0 0.80353537E+02</rscale>
<asrwt>0</asrwt>
<pdfrwt beam="1">  1        1 0.21704961E-01 0.80353537E+02</pdfrwt>
<pdfrwt beam="2">  1       -2 0.17602092E-02 0.80353537E+02</pdfrwt>
<totfact> 0.15428810E+05</totfact>
</mgrwt>
</event>
<event>
 8    1  0.1241100E-020  0.7968029E+02  0.7818608E-02  0.1329961E+00
          1   -1    0    0  501    0  0.00000000000E+00  0.00000000000E+00  0.26661557502E+03  0.26661557507E+03  0.50400000000E-02 0. -1.
         -2   -1    0    0    0  501 -0.00000000000E+00 -0.00000000000E+00 -0.59532794511E+01  0.59532799972E+01  0.25500000000E-02 0.  1.
        -24    2    1    2    0    0  0.35527136788E-14  0.71054273576E-14  0.26066229557E+03  0.27256885507E+03  0.79680288780E+02 0.  0.
         66    2    3    3    0    0 -0.19312883846E+02 -0.34694620354E+02  0.12042342097E+03  0.12681681468E+03  0.20000007818E+01 0.  0.
         13    1    3    3    0    0  0.19312883846E+02  0.34694620354E+02  0.14023887460E+03  0.14575204039E+03  0.10566000000E+00 0. -1.
         13    1    4    4    0    0 -0.64564584427E+01 -0.11693170727E+02  0.40947391070E+02  0.43071058691E+02  0.10566000000E+00 0. -1.
        -13    1    4    4    0    0 -0.58829178864E+01 -0.12126462430E+02  0.40095969547E+02  0.42300800842E+02  0.10566000000E+00 0.  1.
         14    1    4    4    0    0 -0.69735075165E+01 -0.10874987197E+02  0.39380060351E+02  0.41444955144E+02  0.00000000000E+00 0. -1.
<mgrwt>
<rscale>  0 0.79680289E+02</rscale>
<asrwt>0</asrwt>
<pdfrwt beam="1">  1        1 0.41017785E-01 0.79680289E+02</pdfrwt>
<pdfrwt beam="2">  1       -2 0.91588909E-03 0.79680289E+02</pdfrwt>
<totfact> 0.17822831E+05</totfact>
</mgrwt>
</event>
<event>
 8    1  0.1241100E-020  0.8071013E+02  0.7818608E-02  0.1327048E+00
          1   -1    0    0  501    0  0.00000000000E+00  0.00000000000E+00  0.49505023556E+02  0.49505023813E+02  0.50400000000E-02 0. -1.
         -2   -1    0    0    0  501 -0.00000000000E+00 -0.00000000000E+00 -0.32896285801E+02  0.32896285900E+02  0.25500000000E-02 0.  1.
        -24    2    1    2    0    0  0.00000000000E+00  0.35527136788E-14  0.16608737755E+02  0.82401309713E+02  0.80710133642E+02 0.  0.
         66    2    3    3    0    0  0.16479762103E+02  0.23625116687E+02 -0.20509625032E+02  0.35417134531E+02  0.20000004932E+01 0.  0.
         13    1    3    3    0    0 -0.16479762103E+02 -0.23625116687E+02  0.37118362788E+02  0.46984175182E+02  0.10566000000E+00 0. -1.
         13    1    4    4    0    0  0.27324583234E+01  0.40090729824E+01 -0.28023750450E+01  0.56038794238E+01  0.10566000000E+00 0.  1.
        -13    1    4    4    0    0  0.60434633271E+01  0.93461203310E+01 -0.87747102303E+01  0.14173218332E+02  0.10566000000E+00 0.  1.
         14    1    4    4    0    0  0.77038404526E+01  0.10269923373E+02 -0.89325397572E+01  0.15640036775E+02  0.00000000000E+00 0. -1.
<mgrwt>
<rscale>  0 0.80710134E+02</rscale>
<asrwt>0</asrwt>
<pdfrwt beam="1">  1        1 0.76161575E-02 0.80710134E+02</pdfrwt>
<pdfrwt beam="2">  1       -2 0.50609671E-02 0.80710134E+02</pdfrwt>
<totfact> 0.12817139E+05</totfact>
</mgrwt>
</event>
<event>
 8    1  0.1241100E-020  0.8013887E+02  0.7818608E-02  0.1328658E+00
          1   -1    0    0  501    0  0.00000000000E+00  0.00000000000E+00  0.65473944380E+02  0.65473944574E+02  0.50400000000E-02 0. -1.
         -2   -1    0    0    0  501 -0.00000000000E+00 -0.00000000000E+00 -0.24522115403E+02  0.24522115536E+02  0.25500000000E-02 0.  1.
        -24    2    1    2    0    0  0.00000000000E+00  0.00000000000E+00  0.40951828977E+02  0.89996060110E+02  0.80138870337E+02 0.  0.
         66    2    3    3    0    0 -0.32516092977E+02  0.18066940640E+02  0.38377353886E+01  0.37449150082E+02  0.19999955946E+01 0.  0.
         13    1    3    3    0    0  0.32516092977E+02 -0.18066940640E+02  0.37114093588E+02  0.52546910028E+02  0.10566000000E+00 0. -1.
         13    1    4    4    0    0 -0.92321121001E+01  0.46616593742E+01  0.15411673710E+01  0.10457022657E+02  0.10566000000E+00 0. -1.
        -13    1    4    4    0    0 -0.14897964269E+02  0.80318550082E+01  0.11098468674E+01  0.16961808817E+02  0.10566000000E+00 0.  1.
         14    1    4    4    0    0 -0.83860166083E+01  0.53734262571E+01  0.11867211502E+01  0.10030318608E+02  0.00000000000E+00 0. -1.
<mgrwt>
<rscale>  0 0.80138870E+02</rscale>
<asrwt>0</asrwt>
<pdfrwt beam="1">  1        1 0.10072914E-01 0.80138870E+02</pdfrwt>
<pdfrwt beam="2">  1       -2 0.37726332E-02 0.80138870E+02</pdfrwt>
<totfact> 0.13659933E+05</totfact>
</mgrwt>
</event>
<event>
 8    1  0.1241100E-020  0.7918923E+02  0.7818608E-02  0.1331368E+00
          1   -1    0    0  501    0  0.00000000000E+00  0.00000000000E+00  0.78650253587E+01  0.78650269736E+01  0.50400000000E-02 0. -1.
         -2   -1    0    0    0  501 -0.00000000000E+00 -0.00000000000E+00 -0.19932974751E+03  0.19932974753E+03  0.25500000000E-02 0.  1.
        -24    2    1    2    0    0 -0.17763568394E-14  0.00000000000E+00 -0.19146472216E+03  0.20719477450E+03  0.79189233812E+02 0.  0.
         66    2    3    3    0    0  0.13548209674E+02 -0.37177502707E+02 -0.95558627098E+02  0.10344646885E+03  0.20000029588E+01 0.  0.
         13    1    3    3    0    0 -0.13548209674E+02  0.37177502707E+02 -0.95906095058E+02  0.10374830565E+03  0.10566000000E+00 0. -1.
         13    1    4    4    0    0  0.73748098019E+01 -0.18113696520E+02 -0.46137299878E+02  0.50111430087E+02  0.10566000000E+00 0. -1.
        -13    1    4    4    0    0  0.54399201264E+01 -0.16312380491E+02 -0.41778182338E+02  0.45178691568E+02  0.10566000000E+00 0.  1.
         14    1    4    4    0    0  0.73347974580E+00 -0.27514256953E+01 -0.76431448816E+01  0.81563471956E+01  0.00000000000E+00 0. -1.
<mgrwt>
<rscale>  0 0.79189234E+02</rscale>
<asrwt>0</asrwt>
<pdfrwt beam="1">  1        1 0.12100042E-02 0.79189234E+02</pdfrwt>
<pdfrwt beam="2">  1       -2 0.30666111E-01 0.79189234E+02</pdfrwt>
<totfact> 0.87459274E+04</totfact>
</mgrwt>
</event>
<event>
 8    1  0.1241100E-020  0.7951493E+02  0.7818608E-02  0.1330434E+00
         -2   -1    0    0    0  501 -0.00000000000E+00  0.00000000000E+00  0.14814845924E+03  0.14814845926E+03  0.25500000000E-02 0.  1.
          1   -1    0    0  501    0  0.00000000000E+00 -0.00000000000E+00 -0.10669405061E+02  0.10669406251E+02  0.50400000000E-02 0. -1.
        -24    2    1    2    0    0  0.00000000000E+00  0.00000000000E+00  0.13747905418E+03  0.15881786551E+03  0.79514929845E+02 0.  0.
         66    2    3    3    0    0 -0.22411038714E+02 -0.30041786331E+01  0.13403708910E+03  0.13594565458E+03  0.19999996669E+01 0.  0.
         13    1    3    3    0    0  0.22411038714E+02  0.30041786331E+01  0.34419650813E+01  0.22872210938E+02  0.10566000000E+00 0. -1.
         13    1    4    4    0    0 -0.91613740826E+01 -0.10320625082E+01  0.57412192794E+02  0.58147802826E+02  0.10566000000E+00 0. -1.
        -13    1    4    4    0    0 -0.64702496187E+01 -0.93112333098E+00  0.41126781502E+02  0.41643180012E+02  0.10566000000E+00 0.  1.
        -14    1    4    4    0    0 -0.67794150129E+01 -0.10409927939E+01  0.35498114804E+02  0.36154671739E+02  0.00000000000E+00 0.  1.
<mgrwt>
<rscale>  0 0.79514930E+02</rscale>
<asrwt>0</asrwt>
<pdfrwt beam="1">  1        1 0.16414471E-02 0.79514930E+02</pdfrwt>
<pdfrwt beam="2">  1       -2 0.22792070E-01 0.79514930E+02</pdfrwt>
<totfact> 0.96391638E+04</totfact>
</mgrwt>
</event>
<event>
 8    1  0.1241100E-020  0.8090700E+02  0.7818608E-02  0.1326497E+00
          1   -1    0    0  501    0  0.00000000000E+00  0.00000000000E+00  0.35282536844E+01  0.35282572842E+01  0.50400000000E-02 0. -1.
         -2   -1    0    0    0  501 -0.00000000000E+00 -0.00000000000E+00 -0.46382287294E+03  0.46382287294E+03  0.25500000000E-02 0.  1.
        -24    2    1    2    0    0  0.00000000000E+00  0.35527136788E-14 -0.46029461925E+03  0.46735113023E+03  0.80906998540E+02 0.  0.
         66    2    3    3    0    0 -0.10129995933E+02 -0.17288342647E+02 -0.43311872338E+03  0.43358659129E+03  0.19999988861E+01 0.  0.
         13    1    3    3    0    0  0.10129995933E+02  0.17288342647E+02 -0.27175895867E+02  0.33764538932E+02  0.10566000000E+00 0. -1.
         13    1    4    4    0    0 -0.48219120133E+01 -0.84032220363E+01 -0.22585836820E+03  0.22606609349E+03  0.10566000000E+00 0. -1.
        -13    1    4    4    0    0 -0.21418237870E+01 -0.30504084820E+01 -0.68420273153E+02  0.68521801956E+02  0.10566000000E+00 0.  1.
        -14    1    4    4    0    0 -0.31662601329E+01 -0.58347121287E+01 -0.13884008203E+03  0.13899869585E+03  0.00000000000E+00 0.  1.
<mgrwt>
<rscale>  0 0.80906999E+02</rscale>
<asrwt>0</asrwt>
<pdfrwt beam="1">  1        1 0.54280891E-03 0.80906999E+02</pdfrwt>
<pdfrwt beam="2">  1       -2 0.71357317E-01 0.80906999E+02</pdfrwt>
<totfact> 0.51772725E+04</totfact>
</mgrwt>
</event>
<event>
 8    1  0.1241100E-020  0.7934243E+02  0.7818608E-02  0.1330928E+00
         -2   -1    0    0    0  501 -0.00000000000E+00  0.00000000000E+00  0.12909244771E+02  0.12909245023E+02  0.25500000000E-02 0.  1.
          1   -1    0    0  501    0  0.00000000000E+00 -0.00000000000E+00 -0.12191304248E+03  0.12191304258E+03  0.50400000000E-02 0. -1.
        -24    2    1    2    0    0  0.00000000000E+00 -0.17763568394E-14 -0.10900379771E+03  0.13482228761E+03  0.79342430771E+02 0.  0.
         66    2    3    3    0    0 -0.36843634015E+02  0.11273767702E+02 -0.38664242962E+02  0.54621194524E+02  0.20000004535E+01 0.  0.
         13    1    3    3    0    0  0.36843634015E+02 -0.11273767702E+02 -0.70339554747E+02  0.80201093083E+02  0.10566000000E+00 0. -1.
         13    1    4    4    0    0 -0.15345462856E+02  0.44130657580E+01 -0.17103885825E+02  0.23398984038E+02  0.10566000000E+00 0. -1.
        -13    1    4    4    0    0 -0.19875802537E+02  0.63653654610E+01 -0.19617311928E+02  0.28642896070E+02  0.10566000000E+00 0.  1.
         14    1    4    4    0    0 -0.16223686214E+01  0.49533648276E+00 -0.19430452090E+01  0.25793144165E+01  0.00000000000E+00 0. -1.
<mgrwt>
<rscale>  0 0.79342431E+02</rscale>
<asrwt>0</asrwt>
<pdfrwt beam="1">  1        1 0.18755852E-01 0.79342431E+02</pdfrwt>
<pdfrwt beam="2">  1       -2 0.19860378E-02 0.79342431E+02</pdfrwt>
<totfact> 0.15549396E+05</totfact>
</mgrwt>
</event>
<event>
 8    1  0.1241100E-020  0.8020685E+02  0.7818608E-02  0.1328465E+00
          1   -1    0    0  501    0  0.00000000000E+00  0.00000000000E+00  0.25434296897E+03  0.25434296902E+03  0.50400000000E-02 0. -1.
         -2   -1    0    0    0  501 -0.00000000000E+00 -0.00000000000E+00 -0.63232909830E+01  0.63232914972E+01  0.25500000000E-02 0.  1.
        -24    2    1    2    0    0 -0.71054273576E-14  0.35527136788E-14  0.24801967798E+03  0.26066626051E+03  0.80206849477E+02 0.  0.
         66    2    3    3    0    0 -0.25694196350E+02  0.21620193260E+02  0.52984247593E+02  0.62761094451E+02  0.20000002481E+01 0.  0.
         13    1    3    3    0    0  0.25694196350E+02 -0.21620193260E+02  0.19503543039E+03  0.19790516606E+03  0.10566000000E+00 0. -1.
         13    1    4    4    0    0 -0.33615628707E+01  0.21779940812E+01  0.67844510888E+01  0.78793212756E+01  0.10566000000E+00 0. -1.
        -13    1    4    4    0    0 -0.22567592279E+01  0.19857788070E+01  0.42298188803E+01  0.51902612148E+01  0.10566000000E+00 0.  1.
         14    1    4    4    0    0 -0.20075874252E+02  0.17456420372E+02  0.41969977624E+02  0.49691511961E+02  0.00000000000E+00 0. -1.
<mgrwt>
<rscale>  0 0.80206849E+02</rscale>
<asrwt>0</asrwt>
<pdfrwt beam="1">  1        1 0.39129693E-01 0.80206849E+02</pdfrwt>
<pdfrwt beam="2">  1       -2 0.97281391E-03 0.80206849E+02</pdfrwt>
<totfact> 0.17354849E+05</totfact>
</mgrwt>
</event>
<event>
 8    1  0.1241100E-020  0.7643288E+02  0.7818608E-02  0.1339490E+00
         -2   -1    0    0    0  501 -0.00000000000E+00  0.00000000000E+00  0.52522819140E+02  0.52522819202E+02  0.25500000000E-02 0.  1.
          1   -1    0    0  501    0  0.00000000000E+00 -0.00000000000E+00 -0.27806891249E+02  0.27806891705E+02  0.50400000000E-02 0. -1.
        -24    2    1    2    0    0  0.00000000000E+00  0.00000000000E+00  0.24715927891E+02  0.80329710907E+02  0.76432881425E+02 0.  0.
         66    2    3    3    0    0 -0.18176599538E+02  0.29681777340E+02  0.28887075056E+02  0.45275377230E+02  0.20000002950E+01 0.  0.
         13    1    3    3    0    0  0.18176599538E+02 -0.29681777340E+02 -0.41711471653E+01  0.35054333677E+02  0.10566000000E+00 0. -1.
         13    1    4    4    0    0 -0.85425272053E+01  0.14495002136E+02  0.14749862573E+02  0.22375197607E+02  0.10566000000E+00 0. -1.
        -13    1    4    4    0    0 -0.68847209025E+01  0.11654807033E+02  0.10796694348E+02  0.17315128696E+02  0.10566000000E+00 0.  1.
         14    1    4    4    0    0 -0.27493514306E+01  0.35319681706E+01  0.33405181353E+01  0.55850509272E+01  0.00000000000E+00 0. -1.
<mgrwt>
<rscale>  0 0.76432881E+02</rscale>
<asrwt>0</asrwt>
<pdfrwt beam="1">  1        1 0.42779834E-02 0.76432881E+02</pdfrwt>
<pdfrwt beam="2">  1       -2 0.80804336E-02 0.76432881E+02</pdfrwt>
<totfact> 0.13603712E+05</totfact>
</mgrwt>
</event>
<event>
 8    1  0.1241100E-020  0.7919796E+02  0.7818608E-02  0.1331343E+00
         -2   -1    0    0    0  501 -0.00000000000E+00  0.00000000000E+00  0.14035750561E+03  0.14035750563E+03  0.25500000000E-02 0.  1.
          1   -1    0    0  501    0  0.00000000000E+00 -0.00000000000E+00 -0.11172035148E+02  0.11172036284E+02  0.50400000000E-02 0. -1.
        -24    2    1    2    0    0  0.00000000000E+00  0.00000000000E+00  0.12918547046E+03  0.15152954192E+03  0.79197956382E+02 0.  0.
         66    2    3    3    0    0  0.37846836345E+02  0.96822751424E+01  0.52541408816E+02  0.65503657307E+02  0.20000017602E+01 0.  0.
         13    1    3    3    0    0 -0.37846836345E+02 -0.96822751424E+01  0.76644061646E+02  0.86025884610E+02  0.10566000000E+00 0. -1.
         13    1    4    4    0    0  0.82382802517E+01  0.26002054903E+01  0.10929304331E+02  0.13931661326E+02  0.10566000000E+00 0.  1.
        -13    1    4    4    0    0  0.90487191479E+01  0.18429963249E+01  0.11938327262E+02  0.15093401721E+02  0.10566000000E+00 0. -1.
        -14    1    4    4    0    0  0.20559836945E+02  0.52390733272E+01  0.29673777223E+02  0.36478594260E+02  0.00000000000E+00 0.  1.
<mgrwt>
<rscale>  0 0.79197956E+02</rscale>
<asrwt>0</asrwt>
<pdfrwt beam="1">  1        1 0.17187747E-02 0.79197956E+02</pdfrwt>
<pdfrwt beam="2">  1       -2 0.21593463E-01 0.79197956E+02</pdfrwt>
<totfact> 0.99081468E+04</totfact>
</mgrwt>
</event>
<event>
 8    1  0.1241100E-020  0.7712155E+02  0.7818608E-02  0.1337424E+00
         -2   -1    0    0    0  501 -0.00000000000E+00  0.00000000000E+00  0.50163909539E+03  0.50163909539E+03  0.25500000000E-02 0.  1.
          1   -1    0    0  501    0  0.00000000000E+00 -0.00000000000E+00 -0.29641471565E+01  0.29641514413E+01  0.50400000000E-02 0. -1.
        -24    2    1    2    0    0  0.00000000000E+00  0.00000000000E+00  0.49867494823E+03  0.50460324683E+03  0.77121545132E+02 0.  0.
         66    2    3    3    0    0  0.21458468412E+02  0.10868153501E+02  0.44648428837E+03  0.44713622352E+03  0.20000005864E+01 0.  0.
         13    1    3    3    0    0 -0.21458468412E+02 -0.10868153501E+02  0.52190659864E+02  0.57467023310E+02  0.10566000000E+00 0. -1.
         13    1    4    4    0    0  0.84473254423E+01  0.45216419073E+01  0.17697128384E+03  0.17723049687E+03  0.10566000000E+00 0. -1.
        -13    1    4    4    0    0  0.99523713330E+01  0.55351447733E+01  0.20919073261E+03  0.20950050429E+03  0.10566000000E+00 0.  1.
         14    1    4    4    0    0  0.30587716363E+01  0.81136682002E+00  0.60322271915E+02  0.60405222365E+02  0.00000000000E+00 0. -1.
<mgrwt>
<rscale>  0 0.77121545E+02</rscale>
<asrwt>0</asrwt>
<pdfrwt beam="1">  1        1 0.45602259E-03 0.77121545E+02</pdfrwt>
<pdfrwt beam="2">  1       -2 0.77175310E-01 0.77121545E+02</pdfrwt>
<totfact> 0.55243985E+04</totfact>
</mgrwt>
</event>
<event>
 8    1  0.1241100E-020  0.7869170E+02  0.7818608E-02  0.1332806E+00
          1   -1    0    0  501    0  0.00000000000E+00  0.00000000000E+00  0.10413269335E+02  0.10413270555E+02  0.50400000000E-02 0. -1.
         -2   -1    0    0    0  501 -0.00000000000E+00 -0.00000000000E+00 -0.14866566968E+03  0.14866566970E+03  0.25500000000E-02 0.  1.
        -24    2    1    2    0    0 -0.88817841970E-15  0.00000000000E+00 -0.13825240035E+03  0.15907894026E+03  0.78691696080E+02 0.  0.
         66    2    3    3    0    0  0.59406698311E+01 -0.13123364171E+02 -0.14313217393E+03  0.14386915395E+03  0.20000001321E+01 0.  0.
         13    1    3    3    0    0 -0.59406698311E+01  0.13123364171E+02  0.48797735812E+01  0.15209786305E+02  0.10566000000E+00 0. -1.
         13    1    4    4    0    0  0.27559131527E+00 -0.19238985435E+01 -0.22036544263E+02  0.22122336750E+02  0.10566000000E+00 0. -1.
        -13    1    4    4    0    0  0.41341784862E+01 -0.79449092808E+01 -0.89551154134E+02  0.89997963233E+02  0.10566000000E+00 0.  1.
         14    1    4    4    0    0  0.15309000297E+01 -0.32545563468E+01 -0.31544475530E+02  0.31748853969E+02  0.00000000000E+00 0. -1.
<mgrwt>
<rscale>  0 0.78691696E+02</rscale>
<asrwt>0</asrwt>
<pdfrwt beam="1">  1        1 0.16020416E-02 0.78691696E+02</pdfrwt>
<pdfrwt beam="2">  1       -2 0.22871640E-01 0.78691696E+02</pdfrwt>
<totfact> 0.98894004E+04</totfact>
</mgrwt>
</event>
<event>
 8    1  0.1241100E-020  0.7626155E+02  0.7818608E-02  0.1340008E+00
          1   -1    0    0  501    0  0.00000000000E+00  0.00000000000E+00  0.71349006987E+02  0.71349007165E+02  0.50400000000E-02 0. -1.
         -2   -1    0    0    0  501 -0.00000000000E+00 -0.00000000000E+00 -0.20378084514E+02  0.20378084674E+02  0.25500000000E-02 0.  1.
        -24    2    1    2    0    0  0.35527136788E-14  0.00000000000E+00  0.50970922472E+02  0.91727091839E+02  0.76261552826E+02 0.  0.
         66    2    3    3    0    0  0.31240521570E+02 -0.44530093547E+00 -0.73298081319E+00  0.31316221460E+02  0.19999961883E+01 0.  0.
         13    1    3    3    0    0 -0.31240521570E+02  0.44530093547E+00  0.51703903286E+02  0.60410870379E+02  0.10566000000E+00 0. -1.
         13    1    4    4    0    0  0.12860781789E+02  0.36040172991E+00  0.11616919532E+00  0.12866788913E+02  0.10566000000E+00 0. -1.
        -13    1    4    4    0    0  0.56348715618E+01 -0.39542313588E+00 -0.73604083057E+00  0.56974605847E+01  0.10566000000E+00 0.  1.
        -14    1    4    4    0    0  0.12744868220E+02 -0.41027952949E+00 -0.11310917795E+00  0.12751971962E+02  0.00000000000E+00 0.  1.
<mgrwt>
<rscale>  0 0.76261553E+02</rscale>
<asrwt>0</asrwt>
<pdfrwt beam="1">  1        1 0.10976770E-01 0.76261553E+02</pdfrwt>
<pdfrwt beam="2">  1       -2 0.31350900E-02 0.76261553E+02</pdfrwt>
<totfact> 0.15851664E+05</totfact>
</mgrwt>
</event>
<event>
 8    1  0.1241100E-020  0.8284998E+02  0.7818608E-02  0.1321153E+00
          1   -1    0    0  501    0  0.00000000000E+00  0.00000000000E+00  0.12602185048E+02  0.12602186056E+02  0.50400000000E-02 0. -1.
         -2   -1    0    0    0  501 -0.00000000000E+00 -0.00000000000E+00 -0.13616923188E+03  0.13616923190E+03  0.25500000000E-02 0.  1.
        -24    2    1    2    0    0  0.17763568394E-14  0.00000000000E+00 -0.12356704683E+03  0.14877141796E+03  0.82849983337E+02 0.  0.
         66    2    3    3    0    0 -0.12828928024E+02 -0.37588786729E+02 -0.40837962394E+02  0.57002082896E+02  0.20000000030E+01 0.  0.
         13    1    3    3    0    0  0.12828928024E+02  0.37588786729E+02 -0.82729084435E+02  0.91769335061E+02  0.10566000000E+00 0. -1.
         13    1    4    4    0    0 -0.23217536041E+01 -0.50083258373E+01 -0.61346542592E+01  0.82534244048E+01  0.10566000000E+00 0. -1.
        -13    1    4    4    0    0 -0.36248572570E+01 -0.11182567180E+02 -0.12213708080E+02  0.16952145232E+02  0.10566000000E+00 0.  1.
         14    1    4    4    0    0 -0.68823171631E+01 -0.21397893712E+02 -0.22489600055E+02  0.31796513260E+02  0.00000000000E+00 0. -1.
<mgrwt>
<rscale>  0 0.82849983E+02</rscale>
<asrwt>0</asrwt>
<pdfrwt beam="1">  1        1 0.19387979E-02 0.82849983E+02</pdfrwt>
<pdfrwt beam="2">  1       -2 0.20949112E-01 0.82849983E+02</pdfrwt>
<totfact> 0.89064905E+04</totfact>
</mgrwt>
</event>
<event>
 8    1  0.1241100E-020  0.7794850E+02  0.7818608E-02  0.1334976E+00
          1   -1    0    0  501    0  0.00000000000E+00  0.00000000000E+00  0.73923399500E+02  0.73923399671E+02  0.50400000000E-02 0. -1.
         -2   -1    0    0    0  501 -0.00000000000E+00 -0.00000000000E+00 -0.20548193517E+02  0.20548193675E+02  0.25500000000E-02 0.  1.
        -24    2    1    2    0    0 -0.17763568394E-14  0.00000000000E+00  0.53375205983E+02  0.94471593347E+02  0.77948504384E+02 0.  0.
         66    2    3    3    0    0 -0.13844720623E+02 -0.24538665461E+02 -0.58869627288E+01  0.28852707375E+02  0.20000002339E+01 0.  0.
         13    1    3    3    0    0  0.13844720623E+02  0.24538665461E+02  0.59262168711E+02  0.65618885972E+02  0.10566000000E+00 0. -1.
         13    1    4    4    0    0 -0.69384620567E+01 -0.13512110785E+02 -0.31731310737E+01  0.15517709832E+02  0.10566000000E+00 0.  1.
        -13    1    4    4    0    0 -0.18868772120E+00 -0.12229345159E+00 -0.43844449606E-01  0.25227983628E+00  0.10566000000E+00 0.  1.
        -14    1    4    4    0    0 -0.67175708449E+01 -0.10904261225E+02 -0.26699872055E+01  0.13082717707E+02  0.00000000000E+00 0.  1.
<mgrwt>
<rscale>  0 0.77948504E+02</rscale>
<asrwt>0</asrwt>
<pdfrwt beam="1">  1        1 0.11372831E-01 0.77948504E+02</pdfrwt>
<pdfrwt beam="2">  1       -2 0.31612606E-02 0.77948504E+02</pdfrwt>
<totfact> 0.15018341E+05</totfact>
</mgrwt>
</event>
<event>
 8    1  0.1241100E-020  0.7834377E+02  0.7818608E-02  0.1333818E+00
          1   -1    0    0  501    0  0.00000000000E+00  0.00000000000E+00  0.99360505735E+01  0.99360518517E+01  0.50400000000E-02 0. -1.
         -2   -1    0    0    0  501 -0.00000000000E+00 -0.00000000000E+00 -0.15443122280E+03  0.15443122282E+03  0.25500000000E-02 0.  1.
        -24    2    1    2    0    0 -0.71054273576E-14  0.00000000000E+00 -0.14449517223E+03  0.16436727467E+03  0.78343769290E+02 0.  0.
         66    2    3    3    0    0  0.26901260338E+02 -0.18820826354E+02 -0.11702386037E+03  0.12155856701E+03  0.20000015133E+01 0.  0.
         13    1    3    3    0    0 -0.26901260338E+02  0.18820826354E+02 -0.27471311862E+02  0.42808707664E+02  0.10566000000E+00 0. -1.
         13    1    4    4    0    0  0.27583915768E+01 -0.24167140820E+01 -0.14411338977E+02  0.14871014968E+02  0.10566000000E+00 0. -1.
        -13    1    4    4    0    0  0.61348485506E+01 -0.45986171376E+01 -0.26173265917E+02  0.27273332381E+02  0.10566000000E+00 0.  1.
        -14    1    4    4    0    0  0.18008020211E+02 -0.11805495135E+02 -0.76439255472E+02  0.79414219661E+02  0.00000000000E+00 0.  1.
<mgrwt>
<rscale>  0 0.78343769E+02</rscale>
<asrwt>0</asrwt>
<pdfrwt beam="1">  1        1 0.15286234E-02 0.78343769E+02</pdfrwt>
<pdfrwt beam="2">  1       -2 0.23758648E-01 0.78343769E+02</pdfrwt>
<totfact> 0.98777246E+04</totfact>
</mgrwt>
</event>
<event>
 8    1  0.1241100E-020  0.7955895E+02  0.7818608E-02  0.1330308E+00
         -2   -1    0    0    0  501 -0.00000000000E+00  0.00000000000E+00  0.12019590826E+03  0.12019590829E+03  0.25500000000E-02 0.  1.
          1   -1    0    0  501    0  0.00000000000E+00 -0.00000000000E+00 -0.13165228280E+02  0.13165229245E+02  0.50400000000E-02 0. -1.
        -24    2    1    2    0    0  0.00000000000E+00  0.00000000000E+00  0.10703067998E+03  0.13336113753E+03  0.79558950136E+02 0.  0.
         66    2    3    3    0    0  0.27095379997E+02 -0.87880082630E+01  0.10003344871E+03  0.10402922461E+03  0.20000010234E+01 0.  0.
         13    1    3    3    0    0 -0.27095379997E+02  0.87880082630E+01  0.69972312644E+01  0.29331912925E+02  0.10566000000E+00 0. -1.
         13    1    4    4    0    0  0.10647338134E+02 -0.38424969952E+01  0.38961825258E+02  0.40572966172E+02  0.10566000000E+00 0. -1.
        -13    1    4    4    0    0  0.13713108321E+02 -0.35961779310E+01  0.49637911819E+02  0.51622817526E+02  0.10566000000E+00 0.  1.
         14    1    4    4    0    0  0.27349335424E+01 -0.13493333368E+01  0.11433711636E+02  0.11833440908E+02  0.00000000000E+00 0. -1.
<mgrwt>
<rscale>  0 0.79558950E+02</rscale>
<asrwt>0</asrwt>
<pdfrwt beam="1">  1        1 0.20254198E-02 0.79558950E+02</pdfrwt>
<pdfrwt beam="2">  1       -2 0.18491679E-01 0.79558950E+02</pdfrwt>
<totfact> 0.10254386E+05</totfact>
</mgrwt>
</event>
<event>
 8    1  0.1241100E-020  0.7963625E+02  0.7818608E-02  0.1330087E+00
          1   -1    0    0  501    0  0.00000000000E+00  0.00000000000E+00  0.53311802719E+02  0.53311802957E+02  0.50400000000E-02 0. -1.
         -2   -1    0    0    0  501 -0.00000000000E+00 -0.00000000000E+00 -0.29739813797E+02  0.29739813907E+02  0.25500000000E-02 0.  1.
        -24    2    1    2    0    0  0.00000000000E+00  0.00000000000E+00  0.23571988921E+02  0.83051616864E+02  0.79636250552E+02 0.  0.
         66    2    3    3    0    0  0.11674890382E+02 -0.16676368650E+02 -0.23864697082E+02  0.31431323569E+02  0.19999994288E+01 0.  0.
         13    1    3    3    0    0 -0.11674890382E+02  0.16676368650E+02  0.47436686003E+02  0.51620293294E+02  0.10566000000E+00 0. -1.
         13    1    4    4    0    0  0.55861098733E+01 -0.69408874708E+01 -0.95642457963E+01  0.13071591490E+02  0.10566000000E+00 0. -1.
        -13    1    4    4    0    0  0.12248056199E+01 -0.16254729293E+01 -0.29586335647E+01  0.35926296297E+01  0.10566000000E+00 0.  1.
        -14    1    4    4    0    0  0.48639748886E+01 -0.81100082498E+01 -0.11341817721E+02  0.14767102449E+02  0.00000000000E+00 0.  1.
<mgrwt>
<rscale>  0 0.79636251E+02</rscale>
<asrwt>0</asrwt>
<pdfrwt beam="1">  1        1 0.82018158E-02 0.79636251E+02</pdfrwt>
<pdfrwt beam="2">  1       -2 0.45753560E-02 0.79636251E+02</pdfrwt>
<totfact> 0.13459155E+05</totfact>
</mgrwt>
</event>
<event>
 8    1  0.1241100E-020  0.8150900E+02  0.7818608E-02  0.1324823E+00
          1   -1    0    0  501    0  0.00000000000E+00  0.00000000000E+00  0.17708296689E+03  0.17708296696E+03  0.50400000000E-02 0. -1.
         -2   -1    0    0    0  501 -0.00000000000E+00 -0.00000000000E+00 -0.93793841444E+01  0.93793844911E+01  0.25500000000E-02 0.  1.
        -24    2    1    2    0    0  0.71054273576E-14 -0.71054273576E-14  0.16770358274E+03  0.18646235145E+03  0.81508998543E+02 0.  0.
         66    2    3    3    0    0  0.19047727206E+02 -0.32567121509E+02  0.48796835651E+02  0.61713567957E+02  0.19999963305E+01 0.  0.
         13    1    3    3    0    0 -0.19047727206E+02  0.32567121509E+02  0.11890674709E+03  0.12474878349E+03  0.10566000000E+00 0. -1.
         13    1    4    4    0    0  0.26807633790E+01 -0.52713871833E+01  0.84347185585E+01  0.10301924885E+02  0.10566000000E+00 0. -1.
        -13    1    4    4    0    0  0.48810653909E+01 -0.90329737636E+01  0.13280383291E+02  0.16786874598E+02  0.10566000000E+00 0.  1.
        -14    1    4    4    0    0  0.11485898436E+02 -0.18262760562E+02  0.27081733801E+02  0.34624768475E+02  0.00000000000E+00 0.  1.
<mgrwt>
<rscale>  0 0.81508999E+02</rscale>
<asrwt>0</asrwt>
<pdfrwt beam="1">  1        1 0.27243531E-01 0.81508999E+02</pdfrwt>
<pdfrwt beam="2">  1       -2 0.14429823E-02 0.81508999E+02</pdfrwt>
<totfact> 0.15496192E+05</totfact>
</mgrwt>
</event>
<event>
 8    1  0.1241100E-020  0.8099922E+02  0.7818608E-02  0.1326239E+00
         -2   -1    0    0    0  501 -0.00000000000E+00  0.00000000000E+00  0.93060801556E+02  0.93060801591E+02  0.25500000000E-02 0.  1.
          1   -1    0    0  501    0  0.00000000000E+00 -0.00000000000E+00 -0.17625231682E+02  0.17625232403E+02  0.50400000000E-02 0. -1.
        -24    2    1    2    0    0 -0.35527136788E-14  0.35527136788E-14  0.75435569874E+02  0.11068603399E+03  0.80999215546E+02 0.  0.
         66    2    3    3    0    0 -0.29998971730E+02  0.19246420892E+02  0.63949540136E+02  0.73238696769E+02  0.19999996976E+01 0.  0.
         13    1    3    3    0    0  0.29998971730E+02 -0.19246420892E+02  0.11486029738E+02  0.37447337224E+02  0.10566000000E+00 0. -1.
         13    1    4    4    0    0 -0.36083475661E+01  0.28974628835E+01  0.90654148705E+01  0.10178819879E+02  0.10566000000E+00 0. -1.
        -13    1    4    4    0    0 -0.76114444140E+01  0.49724699628E+01  0.15605592587E+02  0.18061152445E+02  0.10566000000E+00 0.  1.
         14    1    4    4    0    0 -0.18779179750E+02  0.11376488046E+02  0.39278532679E+02  0.44998724446E+02  0.00000000000E+00 0. -1.
<mgrwt>
<rscale>  0 0.80999216E+02</rscale>
<asrwt>0</asrwt>
<pdfrwt beam="1">  1        1 0.27115743E-02 0.80999216E+02</pdfrwt>
<pdfrwt beam="2">  1       -2 0.14317046E-01 0.80999216E+02</pdfrwt>
<totfact> 0.10462329E+05</totfact>
</mgrwt>
</event>
<event>
 8    1  0.1241100E-020  0.8505958E+02  0.7818608E-02  0.1315277E+00
         -2   -1    0    0    0  501 -0.00000000000E+00  0.00000000000E+00  0.20053253409E+03  0.20053253411E+03  0.25500000000E-02 0.  1.
          1   -1    0    0  501    0  0.00000000000E+00 -0.00000000000E+00 -0.90198964360E+01  0.90198978441E+01  0.50400000000E-02 0. -1.
        -24    2    1    2    0    0  0.35527136788E-14  0.00000000000E+00  0.19151263766E+03  0.20955243195E+03  0.85059575330E+02 0.  0.
         66    2    3    3    0    0  0.27680241532E+02 -0.19365003696E+02  0.15936695997E+03  0.16292030894E+03  0.19999982462E+01 0.  0.
         13    1    3    3    0    0 -0.27680241532E+02  0.19365003696E+02  0.32145677684E+02  0.46632123018E+02  0.10566000000E+00 0. -1.
         13    1    4    4    0    0  0.51838481938E+01 -0.27982128395E+01  0.27027039505E+02  0.27661784210E+02  0.10566000000E+00 0. -1.
        -13    1    4    4    0    0  0.56878104501E+01 -0.45180433636E+01  0.34920362533E+02  0.35668007893E+02  0.10566000000E+00 0.  1.
         14    1    4    4    0    0  0.16808582888E+02 -0.12048747493E+02  0.97419557935E+02  0.99590516834E+02  0.00000000000E+00 0. -1.
<mgrwt>
<rscale>  0 0.85059575E+02</rscale>
<asrwt>0</asrwt>
<pdfrwt beam="1">  1        1 0.13876764E-02 0.85059575E+02</pdfrwt>
<pdfrwt beam="2">  1       -2 0.30851160E-01 0.85059575E+02</pdfrwt>
<totfact> 0.72528600E+04</totfact>
</mgrwt>
</event>
<event>
 8    1  0.1241100E-020  0.7901030E+02  0.7818608E-02  0.1331884E+00
         -2   -1    0    0    0  501 -0.00000000000E+00  0.00000000000E+00  0.83944458855E+01  0.83944462729E+01  0.25500000000E-02 0.  1.
          1   -1    0    0  501    0  0.00000000000E+00 -0.00000000000E+00 -0.18591540003E+03  0.18591540010E+03  0.50400000000E-02 0. -1.
        -24    2    1    2    0    0  0.00000000000E+00  0.22204460493E-15 -0.17752095415E+03  0.19430984637E+03  0.79010298294E+02 0.  0.
         66    2    3    3    0    0 -0.38823937847E+02  0.96073458505E+00 -0.10628179114E+03  0.11317261281E+03  0.20000001562E+01 0.  0.
         13    1    3    3    0    0  0.38823937847E+02 -0.96073458505E+00 -0.71239163002E+02  0.81137233562E+02  0.10566000000E+00 0. -1.
         13    1    4    4    0    0 -0.66605358832E+00  0.57097481650E-01 -0.21304364327E+01  0.22353547670E+01  0.10566000000E+00 0.  1.
        -13    1    4    4    0    0 -0.23961634248E+02 -0.14301473777E+00 -0.64287540050E+02  0.68608157961E+02  0.10566000000E+00 0.  1.
        -14    1    4    4    0    0 -0.14196250010E+02  0.10466518412E+01 -0.39863814662E+02  0.42329100083E+02  0.00000000000E+00 0.  1.
<mgrwt>
<rscale>  0 0.79010298E+02</rscale>
<asrwt>0</asrwt>
<pdfrwt beam="1">  1        1 0.28602366E-01 0.79010298E+02</pdfrwt>
<pdfrwt beam="2">  1       -2 0.12914534E-02 0.79010298E+02</pdfrwt>
<totfact> 0.16993056E+05</totfact>
</mgrwt>
</event>
<event>
 8    1  0.1241100E-020  0.8041938E+02  0.7818608E-02  0.1327865E+00
         -2   -1    0    0    0  501 -0.00000000000E+00  0.00000000000E+00  0.13407914806E+02  0.13407915048E+02  0.25500000000E-02 0.  1.
          1   -1    0    0  501    0  0.00000000000E+00 -0.00000000000E+00 -0.12058691309E+03  0.12058691320E+03  0.50400000000E-02 0. -1.
        -24    2    1    2    0    0  0.00000000000E+00  0.00000000000E+00 -0.10717899829E+03  0.13399482825E+03  0.80419377782E+02 0.  0.
         66    2    3    3    0    0  0.29426976387E+02 -0.23597553161E+02 -0.30533634441E+02  0.48570508421E+02  0.20000003988E+01 0.  0.
         13    1    3    3    0    0 -0.29426976387E+02  0.23597553161E+02 -0.76645363846E+02  0.85424319825E+02  0.10566000000E+00 0. -1.
         13    1    4    4    0    0  0.11900015159E+02 -0.93531489574E+01 -0.12809984947E+02  0.19829236864E+02  0.10566000000E+00 0. -1.
        -13    1    4    4    0    0  0.15480590652E+02 -0.12386320712E+02 -0.16063205948E+02  0.25516805777E+02  0.10566000000E+00 0.  1.
         14    1    4    4    0    0  0.20463705756E+01 -0.18580834920E+01 -0.16604435453E+01  0.32244657795E+01  0.00000000000E+00 0. -1.
<mgrwt>
<rscale>  0 0.80419378E+02</rscale>
<asrwt>0</asrwt>
<pdfrwt beam="1">  1        1 0.18551832E-01 0.80419378E+02</pdfrwt>
<pdfrwt beam="2">  1       -2 0.20627562E-02 0.80419378E+02</pdfrwt>
<totfact> 0.14967504E+05</totfact>
</mgrwt>
</event>
<event>
 8    1  0.1241100E-020  0.7621608E+02  0.7818608E-02  0.1340146E+00
         -2   -1    0    0    0  501 -0.00000000000E+00  0.00000000000E+00  0.79681521467E+01  0.79681525547E+01  0.25500000000E-02 0.  1.
          1   -1    0    0  501    0  0.00000000000E+00 -0.00000000000E+00 -0.18225337533E+03  0.18225337540E+03  0.50400000000E-02 0. -1.
        -24    2    1    2    0    0  0.00000000000E+00  0.00000000000E+00 -0.17428522318E+03  0.19022152795E+03  0.76216078862E+02 0.  0.
         66    2    3    3    0    0 -0.37404753850E+02  0.42978389250E+01 -0.72945503213E+02  0.82113540101E+02  0.19999997265E+01 0.  0.
         13    1    3    3    0    0  0.37404753850E+02 -0.42978389250E+01 -0.10133971997E+03  0.10810798785E+03  0.10566000000E+00 0. -1.
         13    1    4    4    0    0 -0.10445413534E+02  0.16070914580E+01 -0.19910587520E+02  0.22541784895E+02  0.10566000000E+00 0. -1.
        -13    1    4    4    0    0 -0.80420320327E+01  0.35903529483E+00 -0.14724524551E+02  0.16781715432E+02  0.10566000000E+00 0.  1.
        -14    1    4    4    0    0 -0.18917308284E+02  0.23317121721E+01 -0.38310391142E+02  0.42790039774E+02  0.00000000000E+00 0.  1.
<mgrwt>
<rscale>  0 0.76216079E+02</rscale>
<asrwt>0</asrwt>
<pdfrwt beam="1">  1        1 0.28038978E-01 0.76216079E+02</pdfrwt>
<pdfrwt beam="2">  1       -2 0.12258697E-02 0.76216079E+02</pdfrwt>
<totfact> 0.18623845E+05</totfact>
</mgrwt>
</event>
<event>
 8    1  0.1241100E-020  0.7962628E+02  0.7818608E-02  0.1330115E+00
         -2   -1    0    0    0  501 -0.00000000000E+00  0.00000000000E+00  0.33910891858E+01  0.33910901446E+01  0.25500000000E-02 0.  1.
          1   -1    0    0  501    0  0.00000000000E+00 -0.00000000000E+00 -0.46742682140E+03  0.46742682143E+03  0.50400000000E-02 0. -1.
        -24    2    1    2    0    0  0.00000000000E+00 -0.71054273576E-14 -0.46403573221E+03  0.47081791157E+03  0.79626283884E+02 0.  0.
         66    2    3    3    0    0  0.19833976877E+02  0.34406993290E+02 -0.24646938613E+03  0.24965653624E+03  0.19999905447E+01 0.  0.
         13    1    3    3    0    0 -0.19833976877E+02 -0.34406993290E+02 -0.21756634609E+03  0.22116137533E+03  0.10566000000E+00 0. -1.
         13    1    4    4    0    0  0.66069468606E+00  0.14030925682E+01 -0.89999385771E+01  0.91331946574E+01  0.10566000000E+00 0.  1.
        -13    1    4    4    0    0  0.17769463011E+02  0.29786334832E+02 -0.21731866545E+03  0.22006906433E+03  0.10566000000E+00 0. -1.
         14    1    4    4    0    0  0.14038191801E+01  0.32175658904E+01 -0.20150782098E+02  0.20454277247E+02  0.00000000000E+00 0. -1.
<mgrwt>
<rscale>  0 0.79626284E+02</rscale>
<asrwt>0</asrwt>
<pdfrwt beam="1">  1        1 0.71911768E-01 0.79626284E+02</pdfrwt>
<pdfrwt beam="2">  1       -2 0.52170648E-03 0.79626284E+02</pdfrwt>
<totfact> 0.19682361E+05</totfact>
</mgrwt>
</event>
<event>
 8    1  0.1241100E-020  0.7964887E+02  0.7818608E-02  0.1330051E+00
          1   -1    0    0  501    0  0.00000000000E+00  0.00000000000E+00  0.17354337024E+02  0.17354337756E+02  0.50400000000E-02 0. -1.
         -2   -1    0    0    0  501 -0.00000000000E+00 -0.00000000000E+00 -0.91388432499E+02  0.91388432535E+02  0.25500000000E-02 0.  1.
        -24    2    1    2    0    0  0.00000000000E+00  0.00000000000E+00 -0.74034095475E+02  0.10874277029E+03  0.79648871917E+02 0.  0.
         66    2    3    3    0    0  0.11878722858E+02 -0.74052671382E+01 -0.87905616038E+02  0.89035607002E+02  0.19999862803E+01 0.  0.
         13    1    3    3    0    0 -0.11878722858E+02  0.74052671382E+01  0.13871520563E+02  0.19707163288E+02  0.10566000000E+00 0. -1.
         13    1    4    4    0    0  0.61362308341E+00 -0.10563189759E+00 -0.49297102286E+01  0.49699998350E+01  0.10566000000E+00 0. -1.
        -13    1    4    4    0    0  0.68776040512E+01 -0.45268198158E+01 -0.54880428380E+02  0.55494739556E+02  0.10566000000E+00 0.  1.
        -14    1    4    4    0    0  0.43874957231E+01 -0.27728154247E+01 -0.28095477429E+02  0.28570867611E+02  0.00000000000E+00 0.  1.
<mgrwt>
<rscale>  0 0.79648872E+02</rscale>
<asrwt>0</asrwt>
<pdfrwt beam="1">  1        1 0.26698981E-02 0.79648872E+02</pdfrwt>
<pdfrwt beam="2">  1       -2 0.14059759E-01 0.79648872E+02</pdfrwt>
<totfact> 0.10968579E+05</totfact>
</mgrwt>
</event>
<event>
 8    1  0.1241100E-020  0.7922894E+02  0.7818608E-02  0.1331254E+00
          1   -1    0    0  501    0  0.00000000000E+00  0.00000000000E+00  0.19135112756E+02  0.19135113420E+02  0.50400000000E-02 0. -1.
         -2   -1    0    0    0  501 -0.00000000000E+00 -0.00000000000E+00 -0.82011858241E+02  0.82011858281E+02  0.25500000000E-02 0.  1.
        -24    2    1    2    0    0  0.00000000000E+00  0.00000000000E+00 -0.62876745486E+02  0.10114697170E+03  0.79228938914E+02 0.  0.
         66    2    3    3    0    0  0.16417332718E+02  0.13553484411E+02 -0.74069804755E+02  0.77094497959E+02  0.19999714575E+01 0.  0.
         13    1    3    3    0    0 -0.16417332718E+02 -0.13553484411E+02  0.11193059270E+02  0.24052473742E+02  0.10566000000E+00 0. -1.
         13    1    4    4    0    0  0.25327759397E+01  0.26586318086E+01 -0.13195508878E+02  0.13697295194E+02  0.10566000000E+00 0. -1.
        -13    1    4    4    0    0  0.31616057704E+01  0.32165712769E+01 -0.14770001577E+02  0.15443645698E+02  0.10566000000E+00 0.  1.
        -14    1    4    4    0    0  0.10722951008E+02  0.76782813259E+01 -0.46104294300E+02  0.47953557066E+02  0.00000000000E+00 0.  1.
<mgrwt>
<rscale>  0 0.79228939E+02</rscale>
<asrwt>0</asrwt>
<pdfrwt beam="1">  1        1 0.29438636E-02 0.79228939E+02</pdfrwt>
<pdfrwt beam="2">  1       -2 0.12617209E-01 0.79228939E+02</pdfrwt>
<totfact> 0.11393656E+05</totfact>
</mgrwt>
</event>
<event>
 8    1  0.1241100E-020  0.8794921E+02  0.7818608E-02  0.1307895E+00
          1   -1    0    0  501    0  0.00000000000E+00  0.00000000000E+00  0.18634409411E+02  0.18634410092E+02  0.50400000000E-02 0. -1.
         -2   -1    0    0    0  501 -0.00000000000E+00 -0.00000000000E+00 -0.10377392302E+03  0.10377392305E+03  0.25500000000E-02 0.  1.
        -24    2    1    2    0    0  0.00000000000E+00 -0.35527136788E-14 -0.85139513611E+02  0.12240833315E+03  0.87949208329E+02 0.  0.
         66    2    3    3    0    0  0.32790578728E+02  0.25082520530E+02 -0.63580135286E+02  0.75833953416E+02  0.19999995546E+01 0.  0.
         13    1    3    3    0    0 -0.32790578728E+02 -0.25082520530E+02 -0.21559378325E+02  0.46574379730E+02  0.10566000000E+00 0. -1.
         13    1    4    4    0    0  0.17784232830E+01  0.14271759327E+01 -0.42565644909E+01  0.48300233765E+01  0.10566000000E+00 0.  1.
        -13    1    4    4    0    0  0.14730182884E+02  0.10856523624E+02 -0.28504935638E+02  0.33873070613E+02  0.10566000000E+00 0.  1.
         14    1    4    4    0    0  0.16281972561E+02  0.12798820973E+02 -0.30818635158E+02  0.37130859427E+02  0.00000000000E+00 0. -1.
<mgrwt>
<rscale>  0 0.87949208E+02</rscale>
<asrwt>0</asrwt>
<pdfrwt beam="1">  1        1 0.28668323E-02 0.87949208E+02</pdfrwt>
<pdfrwt beam="2">  1       -2 0.15965219E-01 0.87949208E+02</pdfrwt>
<totfact> 0.82457723E+04</totfact>
</mgrwt>
</event>
<event>
 8    1  0.1241100E-020  0.7926636E+02  0.7818608E-02  0.1331146E+00
         -2   -1    0    0    0  501 -0.00000000000E+00  0.00000000000E+00  0.29285738962E+03  0.29285738963E+03  0.25500000000E-02 0.  1.
          1   -1    0    0  501    0  0.00000000000E+00 -0.00000000000E+00 -0.53636637617E+01  0.53636661296E+01  0.50400000000E-02 0. -1.
        -24    2    1    2    0    0  0.17763568394E-14  0.00000000000E+00  0.28749372586E+03  0.29822105576E+03  0.79266359139E+02 0.  0.
         66    2    3    3    0    0 -0.13660255992E+02  0.16367627196E+02  0.26942578380E+03  0.27027533143E+03  0.19999979881E+01 0.  0.
         13    1    3    3    0    0  0.13660255992E+02 -0.16367627196E+02  0.18067942056E+02  0.27945724324E+02  0.10566000000E+00 0. -1.
         13    1    4    4    0    0 -0.38531677763E+01  0.50262904485E+01  0.71500284533E+02  0.71780306143E+02  0.10566000000E+00 0. -1.
        -13    1    4    4    0    0 -0.59702413720E+01  0.64801240155E+01  0.12135063946E+03  0.12167014691E+03  0.10566000000E+00 0.  1.
        -14    1    4    4    0    0 -0.38368468440E+01  0.48612127323E+01  0.76574859809E+02  0.76824878377E+02  0.00000000000E+00 0.  1.
<mgrwt>
<rscale>  0 0.79266359E+02</rscale>
<asrwt>0</asrwt>
<pdfrwt beam="1">  1        1 0.82517921E-03 0.79266359E+02</pdfrwt>
<pdfrwt beam="2">  1       -2 0.45054984E-01 0.79266359E+02</pdfrwt>
<totfact> 0.72902899E+04</totfact>
</mgrwt>
</event>
<event>
 8    1  0.1241100E-020  0.7983263E+02  0.7818608E-02  0.1329527E+00
          1   -1    0    0  501    0  0.00000000000E+00  0.00000000000E+00  0.21192787451E+02  0.21192788051E+02  0.50400000000E-02 0. -1.
         -2   -1    0    0    0  501 -0.00000000000E+00 -0.00000000000E+00 -0.75181806199E+02  0.75181806242E+02  0.25500000000E-02 0.  1.
        -24    2    1    2    0    0  0.00000000000E+00 -0.17763568394E-14 -0.53989018747E+02  0.96374594293E+02  0.79832626662E+02 0.  0.
         66    2    3    3    0    0 -0.30267134270E+02  0.91672954487E+01 -0.56363407721E+02  0.64660439569E+02  0.19999981444E+01 0.  0.
         13    1    3    3    0    0  0.30267134270E+02 -0.91672954487E+01  0.23743889738E+01  0.31714154723E+02  0.10566000000E+00 0. -1.
         13    1    4    4    0    0 -0.92164674411E+01  0.21138266525E+01 -0.17880291306E+02  0.20226900811E+02  0.10566000000E+00 0. -1.
        -13    1    4    4    0    0 -0.10648391724E+02  0.37328421811E+01 -0.20179862981E+02  0.23120562083E+02  0.10566000000E+00 0.  1.
         14    1    4    4    0    0 -0.10402275106E+02  0.33206266151E+01 -0.18303253434E+02  0.21312976675E+02  0.00000000000E+00 0. -1.
<mgrwt>
<rscale>  0 0.79832627E+02</rscale>
<asrwt>0</asrwt>
<pdfrwt beam="1">  1        1 0.32604289E-02 0.79832627E+02</pdfrwt>
<pdfrwt beam="2">  1       -2 0.11566432E-01 0.79832627E+02</pdfrwt>
<totfact> 0.11384876E+05</totfact>
</mgrwt>
</event>
<event>
 8    1  0.1241100E-020  0.7767599E+02  0.7818608E-02  0.1335779E+00
          1   -1    0    0  501    0  0.00000000000E+00  0.00000000000E+00  0.17842720841E+01  0.17842792023E+01  0.50400000000E-02 0. -1.
         -2   -1    0    0    0  501 -0.00000000000E+00 -0.00000000000E+00 -0.84537948831E+03  0.84537948831E+03  0.25500000000E-02 0.  1.
        -24    2    1    2    0    0  0.00000000000E+00  0.00000000000E+00 -0.84359521623E+03  0.84716376752E+03  0.77675994702E+02 0.  0.
         66    2    3    3    0    0 -0.14908049824E+01 -0.17943912268E+02 -0.79706854735E+03  0.79727440424E+03  0.20000004066E+01 0.  0.
         13    1    3    3    0    0  0.14908049824E+01  0.17943912268E+02 -0.46526668879E+02  0.49889363275E+02  0.10566000000E+00 0. -1.
         13    1    4    4    0    0  0.20130971802E+00 -0.70468249934E+01 -0.33532991217E+03  0.33540402417E+03  0.10566000000E+00 0. -1.
        -13    1    4    4    0    0 -0.13008417148E+01 -0.77529387181E+01 -0.32715694698E+03  0.32725140086E+03  0.10566000000E+00 0.  1.
        -14    1    4    4    0    0 -0.39127298554E+00 -0.31441485561E+01 -0.13458168820E+03  0.13461897921E+03  0.00000000000E+00 0.  1.
<mgrwt>
<rscale>  0 0.77675995E+02</rscale>
<asrwt>0</asrwt>
<pdfrwt beam="1">  1        1 0.27450462E-03 0.77675995E+02</pdfrwt>
<pdfrwt beam="2">  1       -2 0.13005806E+00 0.77675995E+02</pdfrwt>
<totfact> 0.33866238E+04</totfact>
</mgrwt>
</event>
<event>
 8    1  0.1241100E-020  0.7957968E+02  0.7818608E-02  0.1330248E+00
          1   -1    0    0  501    0  0.00000000000E+00  0.00000000000E+00  0.29380359659E+02  0.29380360091E+02  0.50400000000E-02 0. -1.
         -2   -1    0    0    0  501 -0.00000000000E+00 -0.00000000000E+00 -0.53887400466E+02  0.53887400526E+02  0.25500000000E-02 0.  1.
        -24    2    1    2    0    0  0.44408920985E-15 -0.71054273576E-14 -0.24507040806E+02  0.83267760617E+02  0.79579676483E+02 0.  0.
         66    2    3    3    0    0 -0.32226431289E+01  0.37165000656E+02  0.21465716213E+01  0.37419653546E+02  0.19999998156E+01 0.  0.
         13    1    3    3    0    0  0.32226431289E+01 -0.37165000656E+02 -0.26653612428E+02  0.45848107071E+02  0.10566000000E+00 0. -1.
         13    1    4    4    0    0 -0.34096696119E+00  0.85019151055E+01  0.88637922792E+00  0.85554456985E+01  0.10566000000E+00 0. -1.
        -13    1    4    4    0    0 -0.24750407424E+01  0.26504338088E+02  0.14499248568E+01  0.26659317513E+02  0.10566000000E+00 0.  1.
         14    1    4    4    0    0 -0.40663542535E+00  0.21587474630E+01 -0.18973246344E+00  0.22048903342E+01  0.00000000000E+00 0. -1.
<mgrwt>
<rscale>  0 0.79579676E+02</rscale>
<asrwt>0</asrwt>
<pdfrwt beam="1">  1        1 0.45200554E-02 0.79579676E+02</pdfrwt>
<pdfrwt beam="2">  1       -2 0.82903693E-02 0.79579676E+02</pdfrwt>
<totfact> 0.12234032E+05</totfact>
</mgrwt>
</event>
<event>
 8    1  0.1241100E-020  0.7966965E+02  0.7818608E-02  0.1329992E+00
         -2   -1    0    0    0  501 -0.00000000000E+00  0.00000000000E+00  0.16581714974E+03  0.16581714976E+03  0.25500000000E-02 0.  1.
          1   -1    0    0  501    0  0.00000000000E+00 -0.00000000000E+00 -0.95696557859E+01  0.95696571131E+01  0.50400000000E-02 0. -1.
        -24    2    1    2    0    0  0.00000000000E+00 -0.11102230246E-15  0.15624749395E+03  0.17538680687E+03  0.79669647031E+02 0.  0.
         66    2    3    3    0    0  0.12104795004E+02  0.55037433224E+00  0.16165243810E+03  0.16211828928E+03  0.19999997794E+01 0.  0.
         13    1    3    3    0    0 -0.12104795004E+02 -0.55037433224E+00 -0.54049441474E+01  0.13268517598E+02  0.10566000000E+00 0. -1.
         13    1    4    4    0    0  0.22865930734E+01  0.64574358748E+00  0.30646640556E+02  0.30738790380E+02  0.10566000000E+00 0. -1.
        -13    1    4    4    0    0  0.19215198665E+01  0.44075884746E+00  0.28959912538E+02  0.29027128780E+02  0.10566000000E+00 0.  1.
         14    1    4    4    0    0  0.78966820636E+01 -0.53612810270E+00  0.10204588501E+03  0.10235237011E+03  0.00000000000E+00 0. -1.
<mgrwt>
<rscale>  0 0.79669647E+02</rscale>
<asrwt>0</asrwt>
<pdfrwt beam="1">  1        1 0.14722549E-02 0.79669647E+02</pdfrwt>
<pdfrwt beam="2">  1       -2 0.25510329E-01 0.79669647E+02</pdfrwt>
<totfact> 0.92316072E+04</totfact>
</mgrwt>
</event>
<event>
 8    1  0.1241100E-020  0.7976046E+02  0.7818608E-02  0.1329733E+00
          1   -1    0    0  501    0  0.00000000000E+00  0.00000000000E+00  0.20722394554E+03  0.20722394560E+03  0.50400000000E-02 0. -1.
         -2   -1    0    0    0  501 -0.00000000000E+00 -0.00000000000E+00 -0.76749469039E+01  0.76749473275E+01  0.25500000000E-02 0.  1.
        -24    2    1    2    0    0  0.35527136788E-14  0.00000000000E+00  0.19954899863E+03  0.21489889293E+03  0.79760462168E+02 0.  0.
         66    2    3    3    0    0  0.31521271716E+02 -0.21449428229E+02  0.68559995202E+02  0.78473826586E+02  0.19999937333E+01 0.  0.
         13    1    3    3    0    0 -0.31521271716E+02  0.21449428229E+02  0.13098900343E+03  0.13642506634E+03  0.10566000000E+00 0. -1.
         13    1    4    4    0    0  0.66170310096E+01 -0.46695109159E+01  0.13850271067E+02  0.16044644098E+02  0.10566000000E+00 0. -1.
        -13    1    4    4    0    0  0.16874920345E+02 -0.10830251720E+02  0.35281772780E+02  0.40581670043E+02  0.10566000000E+00 0.  1.
         14    1    4    4    0    0  0.80293203616E+01 -0.59496655939E+01  0.19427951355E+02  0.21847512444E+02  0.00000000000E+00 0. -1.
<mgrwt>
<rscale>  0 0.79760462E+02</rscale>
<asrwt>0</asrwt>
<pdfrwt beam="1">  1        1 0.31880604E-01 0.79760462E+02</pdfrwt>
<pdfrwt beam="2">  1       -2 0.11807612E-02 0.79760462E+02</pdfrwt>
<totfact> 0.16923392E+05</totfact>
</mgrwt>
</event>
<event>
 8    1  0.1241100E-020  0.7680800E+02  0.7818608E-02  0.1338362E+00
         -2   -1    0    0    0  501 -0.00000000000E+00  0.00000000000E+00  0.56047936516E+01  0.56047942317E+01  0.25500000000E-02 0.  1.
          1   -1    0    0  501    0  0.00000000000E+00 -0.00000000000E+00 -0.26314387323E+03  0.26314387328E+03  0.50400000000E-02 0. -1.
        -24    2    1    2    0    0  0.00000000000E+00 -0.35527136788E-14 -0.25753907958E+03  0.26874866751E+03  0.76807999443E+02 0.  0.
         66    2    3    3    0    0  0.14177079930E+02  0.30812948643E+02 -0.66027499721E+02  0.74256704224E+02  0.20000008372E+01 0.  0.
         13    1    3    3    0    0 -0.14177079930E+02 -0.30812948643E+02 -0.19151157986E+03  0.19449196329E+03  0.10566000000E+00 0. -1.
         13    1    4    4    0    0  0.10495054908E+02  0.24258464423E+02 -0.51879978351E+02  0.58225102760E+02  0.10566000000E+00 0. -1.
        -13    1    4    4    0    0  0.32400851571E+01  0.60349317805E+01 -0.13065692629E+02  0.14752696070E+02  0.10566000000E+00 0.  1.
         14    1    4    4    0    0  0.44193986421E+00  0.51955243940E+00 -0.10818287407E+01  0.12789053933E+01  0.00000000000E+00 0. -1.
<mgrwt>
<rscale>  0 0.76807999E+02</rscale>
<asrwt>0</asrwt>
<pdfrwt beam="1">  1        1 0.40483663E-01 0.76807999E+02</pdfrwt>
<pdfrwt beam="2">  1       -2 0.86227620E-03 0.76807999E+02</pdfrwt>
<totfact> 0.19583311E+05</totfact>
</mgrwt>
</event>
<event>
 8    1  0.1241100E-020  0.7539532E+02  0.7818608E-02  0.1342651E+00
         -2   -1    0    0    0  501 -0.00000000000E+00  0.00000000000E+00  0.64660352345E+01  0.64660357373E+01  0.25500000000E-02 0.  1.
          1   -1    0    0  501    0  0.00000000000E+00 -0.00000000000E+00 -0.21978130878E+03  0.21978130884E+03  0.50400000000E-02 0. -1.
        -24    2    1    2    0    0 -0.71054273576E-14  0.00000000000E+00 -0.21331527355E+03  0.22624734458E+03  0.75395324786E+02 0.  0.
         66    2    3    3    0    0  0.35149769890E+02 -0.11757773173E+02 -0.86522644966E+02  0.94148391592E+02  0.19999984995E+01 0.  0.
         13    1    3    3    0    0 -0.35149769890E+02  0.11757773173E+02 -0.12679262858E+03  0.13209895299E+03  0.10566000000E+00 0. -1.
         13    1    4    4    0    0  0.17181425037E+02 -0.56680642064E+01 -0.42167691845E+02  0.45885223304E+02  0.10566000000E+00 0.  1.
        -13    1    4    4    0    0  0.10732249235E+02 -0.31047380989E+01 -0.24850687685E+02  0.27246805588E+02  0.10566000000E+00 0. -1.
         14    1    4    4    0    0  0.72360956182E+01 -0.29849708673E+01 -0.19504265437E+02  0.21016362699E+02  0.00000000000E+00 0. -1.
<mgrwt>
<rscale>  0 0.75395325E+02</rscale>
<asrwt>0</asrwt>
<pdfrwt beam="1">  1        1 0.33812504E-01 0.75395325E+02</pdfrwt>
<pdfrwt beam="2">  1       -2 0.99477486E-03 0.75395325E+02</pdfrwt>
<totfact> 0.19862015E+05</totfact>
</mgrwt>
</event>
<event>
 8    1  0.1241100E-020  0.8039614E+02  0.7818608E-02  0.1327931E+00
          1   -1    0    0  501    0  0.00000000000E+00  0.00000000000E+00  0.21774242319E+03  0.21774242325E+03  0.50400000000E-02 0. -1.
         -2   -1    0    0    0  501 -0.00000000000E+00 -0.00000000000E+00 -0.74210836989E+01  0.74210841370E+01  0.25500000000E-02 0.  1.
        -24    2    1    2    0    0  0.00000000000E+00  0.14210854715E-13  0.21032133949E+03  0.22516350739E+03  0.80396139290E+02 0.  0.
         66    2    3    3    0    0 -0.18610440459E+01  0.40005267495E+02  0.96371301037E+02  0.10438061398E+03  0.19999996081E+01 0.  0.
         13    1    3    3    0    0  0.18610440459E+01 -0.40005267495E+02  0.11395003846E+03  0.12078289341E+03  0.10566000000E+00 0. -1.
         13    1    4    4    0    0 -0.90033744131E+00  0.24224707374E+02  0.58275776203E+02  0.63116751429E+02  0.10566000000E+00 0.  1.
        -13    1    4    4    0    0  0.20664146577E-01  0.47394711661E+01  0.12632932727E+02  0.13493152607E+02  0.10566000000E+00 0. -1.
        -14    1    4    4    0    0 -0.98137075113E+00  0.11041088955E+02  0.25462592107E+02  0.27770709942E+02  0.00000000000E+00 0.  1.
<mgrwt>
<rscale>  0 0.80396139E+02</rscale>
<asrwt>0</asrwt>
<pdfrwt beam="1">  1        1 0.33498833E-01 0.80396139E+02</pdfrwt>
<pdfrwt beam="2">  1       -2 0.11417053E-02 0.80396139E+02</pdfrwt>
<totfact> 0.16731520E+05</totfact>
</mgrwt>
</event>
<event>
 8    1  0.1241100E-020  0.8047290E+02  0.7818608E-02  0.1327715E+00
         -2   -1    0    0    0  501 -0.00000000000E+00  0.00000000000E+00  0.69165328507E+01  0.69165333208E+01  0.25500000000E-02 0.  1.
          1   -1    0    0  501    0  0.00000000000E+00 -0.00000000000E+00 -0.23407271885E+03  0.23407271890E+03  0.50400000000E-02 0. -1.
        -24    2    1    2    0    0  0.00000000000E+00 -0.35527136788E-14 -0.22715618599E+03  0.24098925222E+03  0.80472895127E+02 0.  0.
         66    2    3    3    0    0  0.15093847485E+02  0.29045636812E+02 -0.43705280399E+02  0.54640871015E+02  0.20000002218E+01 0.  0.
         13    1    3    3    0    0 -0.15093847485E+02 -0.29045636812E+02 -0.18345090560E+03  0.18634838120E+03  0.10566000000E+00 0. -1.
         13    1    4    4    0    0  0.14740669265E+01  0.25660556221E+01 -0.33011650152E+01  0.44346780326E+01  0.10566000000E+00 0. -1.
        -13    1    4    4    0    0  0.63821631186E+01  0.11154913948E+02 -0.17117112515E+02  0.21404925044E+02  0.10566000000E+00 0.  1.
         14    1    4    4    0    0  0.72376174399E+01  0.15324667242E+02 -0.23287002868E+02  0.28801267938E+02  0.00000000000E+00 0. -1.
<mgrwt>
<rscale>  0 0.80472895E+02</rscale>
<asrwt>0</asrwt>
<pdfrwt beam="1">  1        1 0.36011182E-01 0.80472895E+02</pdfrwt>
<pdfrwt beam="2">  1       -2 0.10640822E-02 0.80472895E+02</pdfrwt>
<totfact> 0.16926876E+05</totfact>
</mgrwt>
</event>
<event>
 8    1  0.1241100E-020  0.7852101E+02  0.7818608E-02  0.1333302E+00
         -2   -1    0    0    0  501 -0.00000000000E+00  0.00000000000E+00  0.29524978060E+02  0.29524978170E+02  0.25500000000E-02 0.  1.
          1   -1    0    0  501    0  0.00000000000E+00 -0.00000000000E+00 -0.52206204710E+02  0.52206204953E+02  0.50400000000E-02 0. -1.
        -24    2    1    2    0    0  0.00000000000E+00  0.00000000000E+00 -0.22681226650E+02  0.81731183123E+02  0.78521005167E+02 0.  0.
         66    2    3    3    0    0 -0.19966557887E+02  0.24398423041E+01  0.23715533702E+02  0.31161559835E+02  0.20000020546E+01 0.  0.
         13    1    3    3    0    0  0.19966557887E+02 -0.24398423041E+01 -0.46396760352E+02  0.50569623288E+02  0.10566000000E+00 0. -1.
         13    1    4    4    0    0 -0.10522794950E+01 -0.84423628395E-01  0.10275041177E+01  0.14769388044E+01  0.10566000000E+00 0.  1.
        -13    1    4    4    0    0 -0.16172283899E+02  0.26922619994E+01  0.19411304168E+02  0.25408678335E+02  0.10566000000E+00 0.  1.
        -14    1    4    4    0    0 -0.27419944933E+01 -0.16799606697E+00  0.32767254166E+01  0.42759426956E+01  0.00000000000E+00 0.  1.
<mgrwt>
<rscale>  0 0.78521005E+02</rscale>
<asrwt>0</asrwt>
<pdfrwt beam="1">  1        1 0.80317239E-02 0.78521005E+02</pdfrwt>
<pdfrwt beam="2">  1       -2 0.45423043E-02 0.78521005E+02</pdfrwt>
<totfact> 0.13949638E+05</totfact>
</mgrwt>
</event>
<event>
 8    1  0.1241100E-020  0.7828474E+02  0.7818608E-02  0.1333991E+00
          1   -1    0    0  501    0  0.00000000000E+00  0.00000000000E+00  0.31935564636E+02  0.31935565033E+02  0.50400000000E-02 0. -1.
         -2   -1    0    0    0  501 -0.00000000000E+00 -0.00000000000E+00 -0.47975507802E+02  0.47975507870E+02  0.25500000000E-02 0.  1.
        -24    2    1    2    0    0 -0.71054273576E-14  0.44408920985E-15 -0.16039943167E+02  0.79911072904E+02  0.78284735395E+02 0.  0.
         66    2    3    3    0    0  0.37677770160E+02 -0.29766834251E+01 -0.18316554586E+02  0.42047249378E+02  0.19999999750E+01 0.  0.
         13    1    3    3    0    0 -0.37677770160E+02  0.29766834251E+01  0.22766114190E+01  0.37863823526E+02  0.10566000000E+00 0. -1.
         13    1    4    4    0    0  0.27662946274E+02 -0.23035490675E+01 -0.13629487450E+02  0.30924408273E+02  0.10566000000E+00 0.  1.
        -13    1    4    4    0    0  0.82498702105E+01 -0.80037196643E+00 -0.41714522976E+01  0.92797161639E+01  0.10566000000E+00 0. -1.
         14    1    4    4    0    0  0.17649536753E+01  0.12723760879E+00 -0.51561483824E+00  0.18431249405E+01  0.00000000000E+00 0. -1.
<mgrwt>
<rscale>  0 0.78284735E+02</rscale>
<asrwt>0</asrwt>
<pdfrwt beam="1">  1        1 0.49131638E-02 0.78284735E+02</pdfrwt>
<pdfrwt beam="2">  1       -2 0.73808474E-02 0.78284735E+02</pdfrwt>
<totfact> 0.13008266E+05</totfact>
</mgrwt>
</event>
<event>
 8    1  0.1241100E-020  0.8899648E+02  0.7818608E-02  0.1305300E+00
         -2   -1    0    0    0  501 -0.00000000000E+00  0.00000000000E+00  0.27976293548E+02  0.27976293664E+02  0.25500000000E-02 0.  1.
          1   -1    0    0  501    0  0.00000000000E+00 -0.00000000000E+00 -0.70777541788E+02  0.70777541968E+02  0.50400000000E-02 0. -1.
        -24    2    1    2    0    0  0.00000000000E+00  0.88817841970E-15 -0.42801248240E+02  0.98753835632E+02  0.88996478588E+02 0.  0.
         66    2    3    3    0    0 -0.10805428797E+02 -0.79027360316E+01  0.25651854042E+02  0.29003933091E+02  0.19999976747E+01 0.  0.
         13    1    3    3    0    0  0.10805428797E+02  0.79027360316E+01 -0.68453102282E+02  0.69749902540E+02  0.10566000000E+00 0. -1.
         13    1    4    4    0    0 -0.70719782148E+01 -0.42175945749E+01  0.15740204411E+02  0.17764182469E+02  0.10566000000E+00 0. -1.
        -13    1    4    4    0    0 -0.11641379552E+01 -0.70509261981E+00  0.26032248448E+01  0.29394415131E+01  0.10566000000E+00 0.  1.
        -14    1    4    4    0    0 -0.25693126273E+01 -0.29800488368E+01  0.73084247862E+01  0.83003091089E+01  0.00000000000E+00 0.  1.
<mgrwt>
<rscale>  0 0.88996479E+02</rscale>
<asrwt>0</asrwt>
<pdfrwt beam="1">  1        1 0.10888853E-01 0.88996479E+02</pdfrwt>
<pdfrwt beam="2">  1       -2 0.43040452E-02 0.88996479E+02</pdfrwt>
<totfact> 0.10355080E+05</totfact>
</mgrwt>
</event>
<event>
 8    1  0.1241100E-020  0.7888377E+02  0.7818608E-02  0.1332249E+00
          1   -1    0    0  501    0  0.00000000000E+00  0.00000000000E+00  0.19774314485E+03  0.19774314491E+03  0.50400000000E-02 0. -1.
         -2   -1    0    0    0  501 -0.00000000000E+00 -0.00000000000E+00 -0.78670850412E+01  0.78670854545E+01  0.25500000000E-02 0.  1.
        -24    2    1    2    0    0  0.00000000000E+00  0.00000000000E+00  0.18987605981E+03  0.20561023037E+03  0.78883767302E+02 0.  0.
         66    2    3    3    0    0 -0.42074103691E+01  0.30132095603E+02  0.29679671128E+02  0.42550303967E+02  0.20000005030E+01 0.  0.
         13    1    3    3    0    0  0.42074103691E+01 -0.30132095603E+02  0.16019638868E+03  0.16305992640E+03  0.10566000000E+00 0. -1.
         13    1    4    4    0    0 -0.38202939623E+00  0.36092353114E+01  0.40819981311E+01  0.54631857712E+01  0.10566000000E+00 0. -1.
        -13    1    4    4    0    0 -0.31028169225E+01  0.19705697832E+02  0.19834258407E+02  0.28130961066E+02  0.10566000000E+00 0.  1.
         14    1    4    4    0    0 -0.72256405038E+00  0.68171624597E+01  0.57634145894E+01  0.89561571300E+01  0.00000000000E+00 0. -1.
<mgrwt>
<rscale>  0 0.78883767E+02</rscale>
<asrwt>0</asrwt>
<pdfrwt beam="1">  1        1 0.30422021E-01 0.78883767E+02</pdfrwt>
<pdfrwt beam="2">  1       -2 0.12103209E-02 0.78883767E+02</pdfrwt>
<totfact> 0.17269296E+05</totfact>
</mgrwt>
</event>
<event>
 8    1  0.1436144E-020  0.8075762E+02  0.7818608E-02  0.1326915E+00
         -2   -1    0    0    0  501 -0.00000000000E+00  0.00000000000E+00  0.25655238811E+02  0.25655238937E+02  0.25500000000E-02 0.  1.
          1   -1    0    0  501    0  0.00000000000E+00 -0.00000000000E+00 -0.63552249156E+02  0.63552249356E+02  0.50400000000E-02 0. -1.
        -24    2    1    2    0    0  0.00000000000E+00  0.00000000000E+00 -0.37897010346E+02  0.89207488294E+02  0.80757616201E+02 0.  0.
         66    2    3    3    0    0  0.26153327768E+02  0.20936273797E+02  0.58909226229E+01  0.34073847460E+02  0.19999993931E+01 0.  0.
         13    1    3    3    0    0 -0.26153327768E+02 -0.20936273797E+02 -0.43787932969E+02  0.55133640833E+02  0.10566000000E+00 0. -1.
         13    1    4    4    0    0  0.57024695080E+01  0.46186094583E+01  0.18764476793E+01  0.75750862534E+01  0.10566000000E+00 0. -1.
        -13    1    4    4    0    0  0.14048924105E+02  0.11567529113E+02  0.32959124262E+01  0.18494707379E+02  0.10566000000E+00 0.  1.
         14    1    4    4    0    0  0.64019341554E+01  0.47501352251E+01  0.71856251740E+00  0.80040538278E+01  0.00000000000E+00 0. -1.
<mgrwt>
<rscale>  0 0.80757616E+02</rscale>
<asrwt>0</asrwt>
<pdfrwt beam="1">  1        1 0.97772691E-02 0.80757616E+02</pdfrwt>
<pdfrwt beam="2">  1       -2 0.39469599E-02 0.80757616E+02</pdfrwt>
<totfact> 0.13311341E+05</totfact>
</mgrwt>
</event>
<event>
 8    1  0.1241100E-020  0.7829593E+02  0.7818608E-02  0.1333958E+00
          1   -1    0    0  501    0  0.00000000000E+00  0.00000000000E+00  0.43499617406E+01  0.43499646604E+01  0.50400000000E-02 0. -1.
         -2   -1    0    0    0  501 -0.00000000000E+00 -0.00000000000E+00 -0.35231635568E+03  0.35231635568E+03  0.25500000000E-02 0.  1.
        -24    2    1    2    0    0 -0.17763568394E-14  0.00000000000E+00 -0.34796639394E+03  0.35666632035E+03  0.78295930676E+02 0.  0.
         66    2    3    3    0    0 -0.13143446437E+02 -0.30734789290E+02 -0.26669256432E+03  0.26878672089E+03  0.20000009281E+01 0.  0.
         13    1    3    3    0    0  0.13143446437E+02  0.30734789290E+02 -0.81273829615E+02  0.87879599460E+02  0.10566000000E+00 0. -1.
         13    1    4    4    0    0 -0.10859113720E+01 -0.27172342511E+01 -0.24115699492E+02  0.24292811519E+02  0.10566000000E+00 0. -1.
        -13    1    4    4    0    0 -0.11949042987E+02 -0.27631935295E+02 -0.23733067223E+03  0.23923244475E+03  0.10566000000E+00 0.  1.
         14    1    4    4    0    0 -0.10849207792E+00 -0.38561974423E+00 -0.52461926007E+01  0.52614646176E+01  0.00000000000E+00 0. -1.
<mgrwt>
<rscale>  0 0.78295931E+02</rscale>
<asrwt>0</asrwt>
<pdfrwt beam="1">  1        1 0.66922539E-03 0.78295931E+02</pdfrwt>
<pdfrwt beam="2">  1       -2 0.54202494E-01 0.78295931E+02</pdfrwt>
<totfact> 0.67719513E+04</totfact>
</mgrwt>
</event>
<event>
 8    1  0.1241100E-020  0.8029902E+02  0.7818608E-02  0.1328205E+00
          1   -1    0    0  501    0  0.00000000000E+00  0.00000000000E+00  0.13017862038E+01  0.13017959602E+01  0.50400000000E-02 0. -1.
         -2   -1    0    0    0  501 -0.00000000000E+00 -0.00000000000E+00 -0.12382808971E+04  0.12382808971E+04  0.25500000000E-02 0.  1.
        -24    2    1    2    0    0 -0.35527136788E-14  0.00000000000E+00 -0.12369791109E+04  0.12395826930E+04  0.80299017100E+02 0.  0.
         66    2    3    3    0    0 -0.20547194330E+02  0.10035245126E+01 -0.11506755334E+04  0.11508611460E+04  0.20000006845E+01 0.  0.
         13    1    3    3    0    0  0.20547194330E+02 -0.10035245126E+01 -0.86303577443E+02  0.88721546987E+02  0.10566000000E+00 0. -1.
         13    1    4    4    0    0 -0.53117649610E+01 -0.26964988168E+00 -0.26737791095E+03  0.26743082468E+03  0.10566000000E+00 0. -1.
        -13    1    4    4    0    0 -0.11439150113E+02  0.13109321042E+01 -0.66750413509E+03  0.66760344085E+03  0.10566000000E+00 0.  1.
        -14    1    4    4    0    0 -0.37962792566E+01 -0.37757709890E-01 -0.21579348736E+03  0.21582688051E+03  0.00000000000E+00 0.  1.
<mgrwt>
<rscale>  0 0.80299017E+02</rscale>
<asrwt>0</asrwt>
<pdfrwt beam="1">  1        1 0.20027654E-03 0.80299017E+02</pdfrwt>
<pdfrwt beam="2">  1       -2 0.19050381E+00 0.80299017E+02</pdfrwt>
<totfact> 0.19703944E+04</totfact>
</mgrwt>
</event>
<event>
 8    1  0.1241100E-020  0.7811872E+02  0.7818608E-02  0.1334477E+00
          1   -1    0    0  501    0  0.00000000000E+00  0.00000000000E+00  0.22045068677E+02  0.22045069253E+02  0.50400000000E-02 0. -1.
         -2   -1    0    0    0  501 -0.00000000000E+00 -0.00000000000E+00 -0.69205215232E+02  0.69205215279E+02  0.25500000000E-02 0.  1.
        -24    2    1    2    0    0  0.00000000000E+00  0.00000000000E+00 -0.47160146555E+02  0.91250284533E+02  0.78118723775E+02 0.  0.
         66    2    3    3    0    0  0.33136268520E+02  0.52565304204E+01 -0.46898530617E+02  0.57698488598E+02  0.20000022526E+01 0.  0.
         13    1    3    3    0    0 -0.33136268520E+02 -0.52565304204E+01 -0.26161593824E+00  0.33551795935E+02  0.10566000000E+00 0. -1.
         13    1    4    4    0    0  0.89638061552E+00  0.22127402843E+00 -0.16809356070E+01  0.19207209465E+01  0.10566000000E+00 0.  1.
        -13    1    4    4    0    0  0.87144886815E+01  0.12877650866E+01 -0.11236390499E+02  0.14278245249E+02  0.10566000000E+00 0.  1.
        -14    1    4    4    0    0  0.23525399223E+02  0.37474913054E+01 -0.33981204511E+02  0.41499522403E+02  0.00000000000E+00 0.  1.
<mgrwt>
<rscale>  0 0.78118724E+02</rscale>
<asrwt>0</asrwt>
<pdfrwt beam="1">  1        1 0.33915491E-02 0.78118724E+02</pdfrwt>
<pdfrwt beam="2">  1       -2 0.10646956E-01 0.78118724E+02</pdfrwt>
<totfact> 0.12234686E+05</totfact>
</mgrwt>
</event>
<event>
 8    1  0.1241100E-020  0.7961086E+02  0.7818608E-02  0.1330159E+00
          1   -1    0    0  501    0  0.00000000000E+00  0.00000000000E+00  0.27723368993E+02  0.27723369451E+02  0.50400000000E-02 0. -1.
         -2   -1    0    0    0  501 -0.00000000000E+00 -0.00000000000E+00 -0.57152943769E+02  0.57152943826E+02  0.25500000000E-02 0.  1.
        -24    2    1    2    0    0  0.00000000000E+00  0.71054273576E-14 -0.29429574777E+02  0.84876313277E+02  0.79610857827E+02 0.  0.
         66    2    3    3    0    0 -0.38878351330E+01  0.39552345033E+02 -0.12888565744E+02  0.41828439886E+02  0.19999991867E+01 0.  0.
         13    1    3    3    0    0  0.38878351330E+01 -0.39552345033E+02 -0.16541009033E+02  0.43047873391E+02  0.10566000000E+00 0. -1.
         13    1    4    4    0    0 -0.31236825101E-01  0.80121135830E+00 -0.47936082251E+00  0.94014159235E+00  0.10566000000E+00 0. -1.
        -13    1    4    4    0    0 -0.39379270376E+01  0.38094684910E+02 -0.12171916823E+02  0.40185557243E+02  0.10566000000E+00 0.  1.
        -14    1    4    4    0    0  0.81328729678E-01  0.65644876484E+00 -0.23728809851E+00  0.70274105105E+00  0.00000000000E+00 0.  1.
<mgrwt>
<rscale>  0 0.79610858E+02</rscale>
<asrwt>0</asrwt>
<pdfrwt beam="1">  1        1 0.42651337E-02 0.79610858E+02</pdfrwt>
<pdfrwt beam="2">  1       -2 0.87927606E-02 0.79610858E+02</pdfrwt>
<totfact> 0.12093563E+05</totfact>
</mgrwt>
</event>
<event>
 8    1  0.1241100E-020  0.8482272E+02  0.7818608E-02  0.1315897E+00
         -2   -1    0    0    0  501 -0.00000000000E+00  0.00000000000E+00  0.43843049497E+03  0.43843049498E+03  0.25500000000E-02 0.  1.
          1   -1    0    0  501    0  0.00000000000E+00 -0.00000000000E+00 -0.41026405273E+01  0.41026436230E+01  0.50400000000E-02 0. -1.
        -24    2    1    2    0    0  0.00000000000E+00  0.88817841970E-15  0.43432785444E+03  0.44253313860E+03  0.84822718742E+02 0.  0.
         66    2    3    3    0    0  0.26395622704E+02  0.63238539548E+01  0.38714239971E+03  0.38809787127E+03  0.20000014470E+01 0.  0.
         13    1    3    3    0    0 -0.26395622704E+02 -0.63238539548E+01  0.47185454734E+02  0.54435267330E+02  0.10566000000E+00 0. -1.
         13    1    4    4    0    0  0.65266375205E+01  0.14559376098E+01  0.88221967818E+02  0.88475101138E+02  0.10566000000E+00 0. -1.
        -13    1    4    4    0    0  0.11438322109E+02  0.23025964758E+01  0.17721734887E+03  0.17760106156E+03  0.10566000000E+00 0.  1.
         14    1    4    4    0    0  0.84306630747E+01  0.25653198691E+01  0.12170308302E+03  0.12202170857E+03  0.00000000000E+00 0. -1.
<mgrwt>
<rscale>  0 0.84822719E+02</rscale>
<asrwt>0</asrwt>
<pdfrwt beam="1">  1        1 0.63117585E-03 0.84822719E+02</pdfrwt>
<pdfrwt beam="2">  1       -2 0.67450830E-01 0.84822719E+02</pdfrwt>
<totfact> 0.47694666E+04</totfact>
</mgrwt>
</event>
<event>
 8    1  0.1241100E-020  0.8044219E+02  0.7818608E-02  0.1327801E+00
         -2   -1    0    0    0  501 -0.00000000000E+00  0.00000000000E+00  0.25264403053E+02  0.25264403182E+02  0.25500000000E-02 0.  1.
          1   -1    0    0  501    0  0.00000000000E+00 -0.00000000000E+00 -0.64032251154E+02  0.64032251353E+02  0.50400000000E-02 0. -1.
        -24    2    1    2    0    0  0.35527136788E-14  0.00000000000E+00 -0.38767848101E+02  0.89296654534E+02  0.80442193311E+02 0.  0.
         66    2    3    3    0    0  0.29478552356E+02  0.20338214326E+02  0.86419886756E+00  0.35880006175E+02  0.19999981252E+01 0.  0.
         13    1    3    3    0    0 -0.29478552356E+02 -0.20338214326E+02 -0.39632046969E+02  0.53416648359E+02  0.10566000000E+00 0. -1.
         13    1    4    4    0    0  0.51524741256E+01  0.43101514967E+01 -0.28567655197E+00  0.67244457517E+01  0.10566000000E+00 0. -1.
        -13    1    4    4    0    0  0.14906194386E+02  0.98892334933E+01  0.61374785106E+00  0.17899145807E+02  0.10566000000E+00 0.  1.
         14    1    4    4    0    0  0.94198838441E+01  0.61388293358E+01  0.53612756848E+00  0.11256414617E+02  0.00000000000E+00 0. -1.
<mgrwt>
<rscale>  0 0.80442193E+02</rscale>
<asrwt>0</asrwt>
<pdfrwt beam="1">  1        1 0.98511156E-02 0.80442193E+02</pdfrwt>
<pdfrwt beam="2">  1       -2 0.38868313E-02 0.80442193E+02</pdfrwt>
<totfact> 0.13471474E+05</totfact>
</mgrwt>
</event>
<event>
 8    1  0.1241100E-020  0.7935920E+02  0.7818608E-02  0.1330880E+00
          1   -1    0    0  501    0  0.00000000000E+00  0.00000000000E+00  0.58197572981E+01  0.58197594804E+01  0.50400000000E-02 0. -1.
         -2   -1    0    0    0  501 -0.00000000000E+00 -0.00000000000E+00 -0.27053881560E+03  0.27053881562E+03  0.25500000000E-02 0.  1.
        -24    2    1    2    0    0  0.00000000000E+00  0.00000000000E+00 -0.26471905831E+03  0.27635857510E+03  0.79359197318E+02 0.  0.
         66    2    3    3    0    0 -0.33269000460E+02  0.18764397646E+02 -0.16954931346E+03  0.17380995000E+03  0.20000036025E+01 0.  0.
         13    1    3    3    0    0  0.33269000460E+02 -0.18764397646E+02 -0.95169744845E+02  0.10254862509E+03  0.10566000000E+00 0. -1.
         13    1    4    4    0    0 -0.38419997102E+01  0.27686892607E+01 -0.20175556479E+02  0.20724160906E+02  0.10566000000E+00 0. -1.
        -13    1    4    4    0    0 -0.45505834193E+01  0.21411961881E+01 -0.23137750767E+02  0.23678243287E+02  0.10566000000E+00 0.  1.
        -14    1    4    4    0    0 -0.24876417330E+02  0.13854512197E+02 -0.12623600621E+03  0.12940754581E+03  0.00000000000E+00 0.  1.
<mgrwt>
<rscale>  0 0.79359197E+02</rscale>
<asrwt>0</asrwt>
<pdfrwt beam="1">  1        1 0.89534766E-03 0.79359197E+02</pdfrwt>
<pdfrwt beam="2">  1       -2 0.41621346E-01 0.79359197E+02</pdfrwt>
<totfact> 0.75739945E+04</totfact>
</mgrwt>
</event>
<event>
 8    1  0.1241100E-020  0.7927846E+02  0.7818608E-02  0.1331112E+00
          1   -1    0    0  501    0  0.00000000000E+00  0.00000000000E+00  0.15842143440E+03  0.15842143448E+03  0.50400000000E-02 0. -1.
         -2   -1    0    0    0  501 -0.00000000000E+00 -0.00000000000E+00 -0.99182817863E+01  0.99182821141E+01  0.25500000000E-02 0.  1.
        -24    2    1    2    0    0  0.00000000000E+00  0.00000000000E+00  0.14850315261E+03  0.16833971659E+03  0.79278457646E+02 0.  0.
         66    2    3    3    0    0 -0.28825437840E+02  0.12008817444E+02  0.22540644146E+02  0.38564209404E+02  0.20000113423E+01 0.  0.
         13    1    3    3    0    0  0.28825437840E+02 -0.12008817444E+02  0.12596250847E+03  0.12977550719E+03  0.10566000000E+00 0. -1.
         13    1    4    4    0    0 -0.82620581557E+01  0.30549294194E+01  0.58092180456E+01  0.10552363577E+02  0.10566000000E+00 0.  1.
        -13    1    4    4    0    0 -0.70001699492E+01  0.23870493202E+01  0.54994178509E+01  0.92171115057E+01  0.10566000000E+00 0.  1.
        -14    1    4    4    0    0 -0.13563209735E+02  0.65668387044E+01  0.11232008250E+02  0.18794734321E+02  0.00000000000E+00 0.  1.
<mgrwt>
<rscale>  0 0.79278458E+02</rscale>
<asrwt>0</asrwt>
<pdfrwt beam="1">  1        1 0.24372527E-01 0.79278458E+02</pdfrwt>
<pdfrwt beam="2">  1       -2 0.15258896E-02 0.79278458E+02</pdfrwt>
<totfact> 0.16339369E+05</totfact>
</mgrwt>
</event>
<event>
 8    1  0.1701201E-020  0.7523481E+02  0.7818608E-02  0.1343145E+00
          1   -1    0    0  501    0  0.00000000000E+00  0.00000000000E+00  0.13094482248E+03  0.13094482257E+03  0.50400000000E-02 0. -1.
         -2   -1    0    0    0  501 -0.00000000000E+00 -0.00000000000E+00 -0.10806605162E+02  0.10806605463E+02  0.25500000000E-02 0.  1.
        -24    2    1    2    0    0  0.22204460493E-15 -0.35527136788E-14  0.12013821731E+03  0.14175142804E+03  0.75234806379E+02 0.  0.
         66    2    3    3    0    0  0.18023788211E+01 -0.24326966865E+02  0.62238112320E+01  0.25254419648E+02  0.19999998170E+01 0.  0.
         13    1    3    3    0    0 -0.18023788211E+01  0.24326966865E+02  0.11391440608E+03  0.11649700839E+03  0.10566000000E+00 0. -1.
         13    1    4    4    0    0  0.88089668247E+00 -0.11870373218E+02  0.30997722701E+01  0.12300467123E+02  0.10566000000E+00 0. -1.
        -13    1    4    4    0    0  0.45765455797E+00 -0.10381995835E+02  0.21364872554E+01  0.10609949436E+02  0.10566000000E+00 0.  1.
         14    1    4    4    0    0  0.46382758070E+00 -0.20745978122E+01  0.98755170652E+00  0.23440030888E+01  0.00000000000E+00 0. -1.
<mgrwt>
<rscale>  0 0.75234806E+02</rscale>
<asrwt>0</asrwt>
<pdfrwt beam="1">  1        1 0.20145358E-01 0.75234806E+02</pdfrwt>
<pdfrwt beam="2">  1       -2 0.16625546E-02 0.75234806E+02</pdfrwt>
<totfact> 0.18148713E+05</totfact>
</mgrwt>
</event>
<event>
 8    1  0.1241100E-020  0.8130632E+02  0.7818608E-02  0.1325385E+00
         -2   -1    0    0    0  501 -0.00000000000E+00  0.00000000000E+00  0.26143639411E+03  0.26143639412E+03  0.25500000000E-02 0.  1.
          1   -1    0    0  501    0  0.00000000000E+00 -0.00000000000E+00 -0.63215339138E+01  0.63215359229E+01  0.50400000000E-02 0. -1.
        -24    2    1    2    0    0  0.35527136788E-14  0.00000000000E+00  0.25511486020E+03  0.26775793005E+03  0.81306317155E+02 0.  0.
         66    2    3    3    0    0 -0.25547048984E+02 -0.15781289822E+02  0.21776064225E+03  0.21983038491E+03  0.19999992571E+01 0.  0.
         13    1    3    3    0    0  0.25547048984E+02  0.15781289822E+02  0.37354217952E+02  0.47927545140E+02  0.10566000000E+00 0. -1.
         13    1    4    4    0    0 -0.18595879849E+02 -0.11366522254E+02  0.15232433087E+03  0.15387565602E+03  0.10566000000E+00 0.  1.
        -13    1    4    4    0    0 -0.41330292038E+01 -0.28703266281E+01  0.41204816440E+02  0.41511068008E+02  0.10566000000E+00 0. -1.
        -14    1    4    4    0    0 -0.28181399312E+01 -0.15444409399E+01  0.24231494934E+02  0.24443660880E+02  0.00000000000E+00 0.  1.
<mgrwt>
<rscale>  0 0.81306317E+02</rscale>
<asrwt>0</asrwt>
<pdfrwt beam="1">  1        1 0.97254382E-03 0.81306317E+02</pdfrwt>
<pdfrwt beam="2">  1       -2 0.40220984E-01 0.81306317E+02</pdfrwt>
<totfact> 0.72367703E+04</totfact>
</mgrwt>
</event>
<event>
 8    1  0.1241100E-020  0.7339695E+02  0.7818608E-02  0.1348908E+00
          1   -1    0    0  501    0  0.00000000000E+00  0.00000000000E+00  0.38768462424E+01  0.38768495184E+01  0.50400000000E-02 0. -1.
         -2   -1    0    0    0  501 -0.00000000000E+00 -0.00000000000E+00 -0.34738997308E+03  0.34738997309E+03  0.25500000000E-02 0.  1.
        -24    2    1    2    0    0  0.00000000000E+00  0.00000000000E+00 -0.34351312684E+03  0.35126682261E+03  0.73396950585E+02 0.  0.
         66    2    3    3    0    0  0.86830596152E+01 -0.13863822207E+02 -0.32895678814E+03  0.32936935127E+03  0.20000013585E+01 0.  0.
         13    1    3    3    0    0 -0.86830596152E+01  0.13863822207E+02 -0.14556338699E+02  0.21897471334E+02  0.10566000000E+00 0. -1.
         13    1    4    4    0    0  0.16099068469E+01 -0.15247056777E+01 -0.38881536426E+02  0.38944852887E+02  0.10566000000E+00 0. -1.
        -13    1    4    4    0    0  0.57392560889E+01 -0.94709647454E+01 -0.22683483137E+03  0.22710502003E+03  0.10566000000E+00 0.  1.
        -14    1    4    4    0    0  0.13338966794E+01 -0.28681517841E+01 -0.63240420339E+02  0.63319478359E+02  0.00000000000E+00 0.  1.
<mgrwt>
<rscale>  0 0.73396951E+02</rscale>
<asrwt>0</asrwt>
<pdfrwt beam="1">  1        1 0.59643841E-03 0.73396951E+02</pdfrwt>
<pdfrwt beam="2">  1       -2 0.53444587E-01 0.73396951E+02</pdfrwt>
<totfact> 0.80647114E+04</totfact>
</mgrwt>
</event>
<event>
 8    1  0.1241100E-020  0.7880563E+02  0.7818608E-02  0.1332475E+00
         -2   -1    0    0    0  501 -0.00000000000E+00  0.00000000000E+00  0.49626141770E+02  0.49626141836E+02  0.25500000000E-02 0.  1.
          1   -1    0    0  501    0  0.00000000000E+00 -0.00000000000E+00 -0.31285565993E+02  0.31285566399E+02  0.50400000000E-02 0. -1.
        -24    2    1    2    0    0 -0.22204460493E-15  0.35527136788E-14  0.18340575777E+02  0.80911708235E+02  0.78805633108E+02 0.  0.
         66    2    3    3    0    0  0.13270100255E+01 -0.23528345218E+02  0.41566591821E+02  0.47823901272E+02  0.19999982331E+01 0.  0.
         13    1    3    3    0    0 -0.13270100255E+01  0.23528345218E+02 -0.23226016044E+02  0.33087806963E+02  0.10566000000E+00 0. -1.
         13    1    4    4    0    0 -0.18298699308E+00 -0.58066189429E+01  0.10197646946E+02  0.11736842636E+02  0.10566000000E+00 0. -1.
        -13    1    4    4    0    0  0.59597701479E-01 -0.85594557376E+01  0.14707758716E+02  0.17017554609E+02  0.10566000000E+00 0.  1.
         14    1    4    4    0    0  0.14503993171E+01 -0.91622705375E+01  0.16661186160E+02  0.19069504027E+02  0.00000000000E+00 0. -1.
<mgrwt>
<rscale>  0 0.78805633E+02</rscale>
<asrwt>0</asrwt>
<pdfrwt beam="1">  1        1 0.48131641E-02 0.78805633E+02</pdfrwt>
<pdfrwt beam="2">  1       -2 0.76347910E-02 0.78805633E+02</pdfrwt>
<totfact> 0.12720021E+05</totfact>
</mgrwt>
</event>
<event>
 8    1  0.1241100E-020  0.7859205E+02  0.7818608E-02  0.1333095E+00
          1   -1    0    0  501    0  0.00000000000E+00  0.00000000000E+00  0.50447494819E+02  0.50447495071E+02  0.50400000000E-02 0. -1.
         -2   -1    0    0    0  501 -0.00000000000E+00 -0.00000000000E+00 -0.30609597310E+02  0.30609597416E+02  0.25500000000E-02 0.  1.
        -24    2    1    2    0    0  0.00000000000E+00  0.00000000000E+00  0.19837897509E+02  0.81057092487E+02  0.78592048356E+02 0.  0.
         66    2    3    3    0    0  0.19939586351E+02  0.44236201077E+01 -0.24667943719E+02  0.32088361789E+02  0.19999990588E+01 0.  0.
         13    1    3    3    0    0 -0.19939586351E+02 -0.44236201077E+01  0.44505841228E+02  0.48968730698E+02  0.10566000000E+00 0. -1.
         13    1    4    4    0    0  0.23730342841E+01  0.22283029524E+00 -0.36372280885E+01  0.43498893385E+01  0.10566000000E+00 0. -1.
        -13    1    4    4    0    0  0.88474248939E+01  0.24280888605E+01 -0.10128977999E+02  0.13666744386E+02  0.10566000000E+00 0.  1.
        -14    1    4    4    0    0  0.87191271733E+01  0.17727009520E+01 -0.10901737631E+02  0.14071728064E+02  0.00000000000E+00 0.  1.
<mgrwt>
<rscale>  0 0.78592048E+02</rscale>
<asrwt>0</asrwt>
<pdfrwt beam="1">  1        1 0.77611530E-02 0.78592048E+02</pdfrwt>
<pdfrwt beam="2">  1       -2 0.47091689E-02 0.78592048E+02</pdfrwt>
<totfact> 0.13841296E+05</totfact>
</mgrwt>
</event>
<event>
 8    1  0.1241100E-020  0.8019744E+02  0.7818608E-02  0.1328492E+00
          1   -1    0    0  501    0  0.00000000000E+00  0.00000000000E+00  0.94248539878E+02  0.94248540013E+02  0.50400000000E-02 0. -1.
         -2   -1    0    0    0  501 -0.00000000000E+00 -0.00000000000E+00 -0.17060287275E+02  0.17060287466E+02  0.25500000000E-02 0.  1.
        -24    2    1    2    0    0  0.00000000000E+00  0.00000000000E+00  0.77188252603E+02  0.11130882748E+03  0.80197435961E+02 0.  0.
         66    2    3    3    0    0 -0.27603557551E+01  0.37428001059E+02  0.19116349570E+02  0.42165267308E+02  0.20000297632E+01 0.  0.
         13    1    3    3    0    0  0.27603557551E+01 -0.37428001059E+02  0.58071903033E+02  0.69143560171E+02  0.10566000000E+00 0. -1.
         13    1    4    4    0    0 -0.21264416899E+01  0.29493237247E+02  0.14292029099E+02  0.32842747410E+02  0.10566000000E+00 0. -1.
        -13    1    4    4    0    0 -0.63835340431E+00  0.78663629820E+01  0.48303987906E+01  0.92537061843E+01  0.10566000000E+00 0.  1.
        -14    1    4    4    0    0  0.44393390423E-02  0.68400830084E-01 -0.60783196477E-02  0.68813714164E-01  0.00000000000E+00 0.  1.
<mgrwt>
<rscale>  0 0.80197436E+02</rscale>
<asrwt>0</asrwt>
<pdfrwt beam="1">  1        1 0.14499775E-01 0.80197436E+02</pdfrwt>
<pdfrwt beam="2">  1       -2 0.26246596E-02 0.80197436E+02</pdfrwt>
<totfact> 0.14457472E+05</totfact>
</mgrwt>
</event>
<event>
 8    1  0.1241100E-020  0.7931172E+02  0.7818608E-02  0.1331016E+00
          1   -1    0    0  501    0  0.00000000000E+00  0.00000000000E+00  0.27557995666E+02  0.27557996127E+02  0.50400000000E-02 0. -1.
         -2   -1    0    0    0  501 -0.00000000000E+00 -0.00000000000E+00 -0.57064638935E+02  0.57064638992E+02  0.25500000000E-02 0.  1.
        -24    2    1    2    0    0  0.00000000000E+00  0.00000000000E+00 -0.29506643269E+02  0.84622635119E+02  0.79311716521E+02 0.  0.
         66    2    3    3    0    0 -0.79972370711E+01  0.18681937676E+02 -0.51064682763E+02  0.54996112763E+02  0.19999993291E+01 0.  0.
         13    1    3    3    0    0  0.79972370711E+01 -0.18681937676E+02  0.21558039494E+02  0.29626522356E+02  0.10566000000E+00 0. -1.
         13    1    4    4    0    0 -0.52632889706E+01  0.10696788179E+02 -0.29569016197E+02  0.31881991327E+02  0.10566000000E+00 0. -1.
        -13    1    4    4    0    0 -0.11360562002E+01  0.29820733751E+01 -0.69199340390E+01  0.76210259443E+01  0.10566000000E+00 0.  1.
         14    1    4    4    0    0 -0.15978919002E+01  0.50030761218E+01 -0.14575732527E+02  0.15493095491E+02  0.00000000000E+00 0. -1.
<mgrwt>
<rscale>  0 0.79311717E+02</rscale>
<asrwt>0</asrwt>
<pdfrwt beam="1">  1        1 0.42396917E-02 0.79311717E+02</pdfrwt>
<pdfrwt beam="2">  1       -2 0.87791752E-02 0.79311717E+02</pdfrwt>
<totfact> 0.12212511E+05</totfact>
</mgrwt>
</event>
<event>
 8    1  0.1241100E-020  0.7804523E+02  0.7818608E-02  0.1334692E+00
         -2   -1    0    0    0  501 -0.00000000000E+00  0.00000000000E+00  0.21269309659E+02  0.21269309811E+02  0.25500000000E-02 0.  1.
          1   -1    0    0  501    0  0.00000000000E+00 -0.00000000000E+00 -0.71594450606E+02  0.71594450783E+02  0.50400000000E-02 0. -1.
        -24    2    1    2    0    0  0.00000000000E+00  0.00000000000E+00 -0.50325140947E+02  0.92863760595E+02  0.78045231888E+02 0.  0.
         66    2    3    3    0    0  0.18930570549E+02  0.39292596392E+01  0.15117967849E+02  0.24624349434E+02  0.20000126291E+01 0.  0.
         13    1    3    3    0    0 -0.18930570549E+02 -0.39292596392E+01 -0.65443108797E+02  0.68239411161E+02  0.10566000000E+00 0. -1.
         13    1    4    4    0    0  0.14939628090E+02  0.24664379631E+01  0.12071287275E+02  0.19364992750E+02  0.10566000000E+00 0.  1.
        -13    1    4    4    0    0  0.96346442181E+00  0.37954431487E+00  0.48557048576E+00  0.11485905760E+01  0.10566000000E+00 0. -1.
        -14    1    4    4    0    0  0.30274780370E+01  0.10832773612E+01  0.25611100887E+01  0.41107661077E+01  0.00000000000E+00 0.  1.
<mgrwt>
<rscale>  0 0.78045232E+02</rscale>
<asrwt>0</asrwt>
<pdfrwt beam="1">  1        1 0.11014531E-01 0.78045232E+02</pdfrwt>
<pdfrwt beam="2">  1       -2 0.32722015E-02 0.78045232E+02</pdfrwt>
<totfact> 0.14893013E+05</totfact>
</mgrwt>
</event>
<event>
 8    1  0.1241100E-020  0.8225000E+02  0.7818608E-02  0.1322785E+00
          1   -1    0    0  501    0  0.00000000000E+00  0.00000000000E+00  0.27174618005E+02  0.27174618473E+02  0.50400000000E-02 0. -1.
         -2   -1    0    0    0  501 -0.00000000000E+00 -0.00000000000E+00 -0.62236963741E+02  0.62236963793E+02  0.25500000000E-02 0.  1.
        -24    2    1    2    0    0  0.00000000000E+00  0.00000000000E+00 -0.35062345736E+02  0.89411582266E+02  0.82250002765E+02 0.  0.
         66    2    3    3    0    0 -0.50343503872E+01  0.37233375980E+02 -0.35653290649E+02  0.51834603268E+02  0.19999978018E+01 0.  0.
         13    1    3    3    0    0  0.50343503872E+01 -0.37233375980E+02  0.59094491266E+00  0.37576978998E+02  0.10566000000E+00 0. -1.
         13    1    4    4    0    0 -0.47867499634E-01  0.28299450512E+01 -0.27149939281E+01  0.39234215114E+01  0.10566000000E+00 0.  1.
        -13    1    4    4    0    0 -0.19237550811E+01  0.94251527256E+01 -0.86658542315E+01  0.12947684392E+02  0.10566000000E+00 0. -1.
        -14    1    4    4    0    0 -0.30627278065E+01  0.24978278203E+02 -0.24272442489E+02  0.34963497365E+02  0.00000000000E+00 0.  1.
<mgrwt>
<rscale>  0 0.82250003E+02</rscale>
<asrwt>0</asrwt>
<pdfrwt beam="1">  1        1 0.41807105E-02 0.82250003E+02</pdfrwt>
<pdfrwt beam="2">  1       -2 0.95749175E-02 0.82250003E+02</pdfrwt>
<totfact> 0.10960178E+05</totfact>
</mgrwt>
</event>
<event>
 8    1  0.1241100E-020  0.7984973E+02  0.7818608E-02  0.1329478E+00
         -2   -1    0    0    0  501 -0.00000000000E+00  0.00000000000E+00  0.35380276221E+02  0.35380276313E+02  0.25500000000E-02 0.  1.
          1   -1    0    0  501    0  0.00000000000E+00 -0.00000000000E+00 -0.45053203390E+02  0.45053203672E+02  0.50400000000E-02 0. -1.
        -24    2    1    2    0    0  0.00000000000E+00  0.00000000000E+00 -0.96729271691E+01  0.80433479985E+02  0.79849728757E+02 0.  0.
         66    2    3    3    0    0 -0.87916000651E+01  0.27478911337E+02  0.22922967947E+02  0.36903187746E+02  0.20000015890E+01 0.  0.
         13    1    3    3    0    0  0.87916000651E+01 -0.27478911337E+02 -0.32595895116E+02  0.43530292239E+02  0.10566000000E+00 0. -1.
         13    1    4    4    0    0 -0.32700188309E+01  0.12827570528E+02  0.10275683081E+02  0.16758293935E+02  0.10566000000E+00 0. -1.
        -13    1    4    4    0    0 -0.45496594097E+01  0.12830967680E+02  0.11098103494E+02  0.17564515295E+02  0.10566000000E+00 0.  1.
         14    1    4    4    0    0 -0.97192182445E+00  0.18203731295E+01  0.15491813725E+01  0.25803785165E+01  0.00000000000E+00 0. -1.
<mgrwt>
<rscale>  0 0.79849729E+02</rscale>
<asrwt>0</asrwt>
<pdfrwt beam="1">  1        1 0.69312621E-02 0.79849729E+02</pdfrwt>
<pdfrwt beam="2">  1       -2 0.54431195E-02 0.79849729E+02</pdfrwt>
<totfact> 0.13010541E+05</totfact>
</mgrwt>
</event>
<event>
 8    1  0.1241100E-020  0.8121555E+02  0.7818608E-02  0.1325637E+00
         -2   -1    0    0    0  501 -0.00000000000E+00  0.00000000000E+00  0.29281952233E+02  0.29281952344E+02  0.25500000000E-02 0.  1.
          1   -1    0    0  501    0  0.00000000000E+00 -0.00000000000E+00 -0.56314262732E+02  0.56314262957E+02  0.50400000000E-02 0. -1.
        -24    2    1    2    0    0  0.88817841970E-15  0.71054273576E-14 -0.27032310498E+02  0.85596215302E+02  0.81215554318E+02 0.  0.
         66    2    3    3    0    0 -0.63509231176E+01 -0.31440773093E+02  0.12678930275E+02  0.34548686028E+02  0.19999990523E+01 0.  0.
         13    1    3    3    0    0  0.63509231176E+01  0.31440773093E+02 -0.39711240773E+02  0.51047529274E+02  0.10566000000E+00 0. -1.
         13    1    4    4    0    0 -0.76895158516E+00 -0.24542313776E+01  0.11396482908E+01  0.28150489263E+01  0.10566000000E+00 0. -1.
        -13    1    4    4    0    0 -0.99172693409E+00 -0.58814166639E+01  0.16842292705E+01  0.61985785917E+01  0.10566000000E+00 0.  1.
        -14    1    4    4    0    0 -0.45902445984E+01 -0.23105125052E+02  0.98550527135E+01  0.25535058510E+02  0.00000000000E+00 0.  1.
<mgrwt>
<rscale>  0 0.81215554E+02</rscale>
<asrwt>0</asrwt>
<pdfrwt beam="1">  1        1 0.86637328E-02 0.81215554E+02</pdfrwt>
<pdfrwt beam="2">  1       -2 0.45049158E-02 0.81215554E+02</pdfrwt>
<totfact> 0.12856659E+05</totfact>
</mgrwt>
</event>
<event>
 8    1  0.1241100E-020  0.7979026E+02  0.7818608E-02  0.1329648E+00
         -2   -1    0    0    0  501 -0.00000000000E+00  0.00000000000E+00  0.92968483271E+01  0.92968486768E+01  0.25500000000E-02 0.  1.
          1   -1    0    0  501    0  0.00000000000E+00 -0.00000000000E+00 -0.17120010952E+03  0.17120010960E+03  0.50400000000E-02 0. -1.
        -24    2    1    2    0    0  0.00000000000E+00  0.00000000000E+00 -0.16190326120E+03  0.18049695827E+03  0.79790262315E+02 0.  0.
         66    2    3    3    0    0 -0.32938810348E+02 -0.92157609688E+01 -0.34657617818E+02  0.48734443119E+02  0.19999989820E+01 0.  0.
         13    1    3    3    0    0  0.32938810348E+02  0.92157609688E+01 -0.12724564338E+03  0.13176251515E+03  0.10566000000E+00 0. -1.
         13    1    4    4    0    0 -0.11873217061E+02 -0.33389339316E+01 -0.12463610892E+02  0.17534951488E+02  0.10566000000E+00 0.  1.
        -13    1    4    4    0    0 -0.41294030670E+01 -0.14912664463E+01 -0.37097933046E+01  0.57488760382E+01  0.10566000000E+00 0. -1.
         14    1    4    4    0    0 -0.16936190220E+02 -0.43855605910E+01 -0.18484213621E+02  0.25450615593E+02  0.00000000000E+00 0. -1.
<mgrwt>
<rscale>  0 0.79790262E+02</rscale>
<asrwt>0</asrwt>
<pdfrwt beam="1">  1        1 0.26338476E-01 0.79790262E+02</pdfrwt>
<pdfrwt beam="2">  1       -2 0.14302845E-02 0.79790262E+02</pdfrwt>
<totfact> 0.16296891E+05</totfact>
</mgrwt>
</event>
<event>
 8    1  0.1241100E-020  0.8193388E+02  0.7818608E-02  0.1323651E+00
         -2   -1    0    0    0  501 -0.00000000000E+00  0.00000000000E+00  0.57022932350E+03  0.57022932351E+03  0.25500000000E-02 0.  1.
          1   -1    0    0  501    0  0.00000000000E+00 -0.00000000000E+00 -0.29431826586E+01  0.29431869739E+01  0.50400000000E-02 0. -1.
        -24    2    1    2    0    0  0.88817841970E-15  0.17763568394E-14  0.56728614085E+03  0.57317251048E+03  0.81933882971E+02 0.  0.
         66    2    3    3    0    0  0.48759854151E+01  0.13737268702E+02  0.55145856877E+03  0.55165482039E+03  0.20000006024E+01 0.  0.
         13    1    3    3    0    0 -0.48759854151E+01 -0.13737268702E+02  0.15827572071E+02  0.21517690091E+02  0.10566000000E+00 0. -1.
         13    1    4    4    0    0  0.18236566915E+01  0.38591276057E+01  0.14638854512E+03  0.14645079685E+03  0.10566000000E+00 0. -1.
        -13    1    4    4    0    0  0.13241514886E+01  0.61176484754E+01  0.23103659753E+03  0.23112139572E+03  0.10566000000E+00 0.  1.
         14    1    4    4    0    0  0.17281772350E+01  0.37604926209E+01  0.17403342613E+03  0.17408262783E+03  0.00000000000E+00 0. -1.
<mgrwt>
<rscale>  0 0.81933883E+02</rscale>
<asrwt>0</asrwt>
<pdfrwt beam="1">  1        1 0.45279822E-03 0.81933883E+02</pdfrwt>
<pdfrwt beam="2">  1       -2 0.87727480E-01 0.81933883E+02</pdfrwt>
<totfact> 0.42654053E+04</totfact>
</mgrwt>
</event>
<event>
 8    1  0.1241100E-020  0.7902233E+02  0.7818608E-02  0.1331849E+00
         -2   -1    0    0    0  501 -0.00000000000E+00  0.00000000000E+00  0.44741737315E+03  0.44741737315E+03  0.25500000000E-02 0.  1.
          1   -1    0    0  501    0  0.00000000000E+00 -0.00000000000E+00 -0.34892057259E+01  0.34892093659E+01  0.50400000000E-02 0. -1.
        -24    2    1    2    0    0  0.00000000000E+00  0.00000000000E+00  0.44392816742E+03  0.45090658252E+03  0.79022328049E+02 0.  0.
         66    2    3    3    0    0  0.45957180278E+01 -0.18013338503E+02  0.42088066822E+03  0.42129578429E+03  0.19999983055E+01 0.  0.
         13    1    3    3    0    0 -0.45957180278E+01  0.18013338503E+02  0.23047499202E+02  0.29610798228E+02  0.10566000000E+00 0. -1.
         13    1    4    4    0    0  0.71604306625E+00 -0.29829316209E+01  0.58455459493E+02  0.58535993263E+02  0.10566000000E+00 0. -1.
        -13    1    4    4    0    0  0.28282232006E+01 -0.10027108120E+02  0.22977446418E+03  0.23001055910E+03  0.10566000000E+00 0.  1.
         14    1    4    4    0    0  0.10514517609E+01 -0.50032987625E+01  0.13265074454E+03  0.13274923193E+03  0.00000000000E+00 0. -1.
<mgrwt>
<rscale>  0 0.79022328E+02</rscale>
<asrwt>0</asrwt>
<pdfrwt beam="1">  1        1 0.53680141E-03 0.79022328E+02</pdfrwt>
<pdfrwt beam="2">  1       -2 0.68833410E-01 0.79022328E+02</pdfrwt>
<totfact> 0.56473906E+04</totfact>
</mgrwt>
</event>
<event>
 8    1  0.1241100E-020  0.8001001E+02  0.7818608E-02  0.1329023E+00
         -2   -1    0    0    0  501 -0.00000000000E+00  0.00000000000E+00  0.31812248489E+03  0.31812248490E+03  0.25500000000E-02 0.  1.
          1   -1    0    0  501    0  0.00000000000E+00 -0.00000000000E+00 -0.50307664985E+01  0.50307690232E+01  0.50400000000E-02 0. -1.
        -24    2    1    2    0    0  0.00000000000E+00  0.35527136788E-14  0.31309171839E+03  0.32315325392E+03  0.80010008098E+02 0.  0.
         66    2    3    3    0    0  0.23941670907E+02 -0.28551653612E+02  0.21517205850E+03  0.21838364245E+03  0.20000008099E+01 0.  0.
         13    1    3    3    0    0 -0.23941670907E+02  0.28551653612E+02  0.97919659893E+02  0.10476961147E+03  0.10566000000E+00 0. -1.
         13    1    4    4    0    0  0.40669666112E+01 -0.49848794165E+01  0.39751411677E+02  0.40268786107E+02  0.10566000000E+00 0. -1.
        -13    1    4    4    0    0  0.15193161174E+01 -0.24193436173E+01  0.16746215375E+02  0.16988479580E+02  0.10566000000E+00 0.  1.
        -14    1    4    4    0    0  0.18355388178E+02 -0.21147430578E+02  0.15867443144E+03  0.16112637676E+03  0.00000000000E+00 0.  1.
<mgrwt>
<rscale>  0 0.80010008E+02</rscale>
<asrwt>0</asrwt>
<pdfrwt beam="1">  1        1 0.77396417E-03 0.80010008E+02</pdfrwt>
<pdfrwt beam="2">  1       -2 0.48941928E-01 0.80010008E+02</pdfrwt>
<totfact> 0.67995876E+04</totfact>
</mgrwt>
</event>
<event>
 8    1  0.1241100E-020  0.7948383E+02  0.7818608E-02  0.1330523E+00
         -2   -1    0    0    0  501 -0.00000000000E+00  0.00000000000E+00  0.52315804307E+01  0.52315810522E+01  0.25500000000E-02 0.  1.
          1   -1    0    0  501    0  0.00000000000E+00 -0.00000000000E+00 -0.30190108347E+03  0.30190108352E+03  0.50400000000E-02 0. -1.
        -24    2    1    2    0    0  0.17763568394E-14  0.71054273576E-14 -0.29666950304E+03  0.30713266457E+03  0.79483832374E+02 0.  0.
         66    2    3    3    0    0 -0.10644509521E+02 -0.35497747082E+02 -0.93235552205E+02  0.10035070416E+03  0.20000001082E+01 0.  0.
         13    1    3    3    0    0  0.10644509521E+02  0.35497747082E+02 -0.20343395084E+03  0.20678196040E+03  0.10566000000E+00 0. -1.
         13    1    4    4    0    0 -0.47674546059E+01 -0.13668934128E+02 -0.35757822203E+02  0.38577213434E+02  0.10566000000E+00 0. -1.
        -13    1    4    4    0    0 -0.44922444926E+01 -0.15847748442E+02 -0.43050488029E+02  0.46094328011E+02  0.10566000000E+00 0.  1.
         14    1    4    4    0    0 -0.13848104230E+01 -0.59810645120E+01 -0.14427241973E+02  0.15679162719E+02  0.00000000000E+00 0. -1.
<mgrwt>
<rscale>  0 0.79483832E+02</rscale>
<asrwt>0</asrwt>
<pdfrwt beam="1">  1        1 0.46446307E-01 0.79483832E+02</pdfrwt>
<pdfrwt beam="2">  1       -2 0.80485881E-03 0.79483832E+02</pdfrwt>
<totfact> 0.18374059E+05</totfact>
</mgrwt>
</event>
<event>
 8    1  0.1241100E-020  0.8411799E+02  0.7818608E-02  0.1317755E+00
         -2   -1    0    0    0  501 -0.00000000000E+00  0.00000000000E+00  0.69038975280E+02  0.69038975327E+02  0.25500000000E-02 0.  1.
          1   -1    0    0  501    0  0.00000000000E+00 -0.00000000000E+00 -0.25622611904E+02  0.25622612400E+02  0.50400000000E-02 0. -1.
        -24    2    1    2    0    0 -0.35527136788E-14  0.35527136788E-14  0.43416363376E+02  0.94661587727E+02  0.84117986081E+02 0.  0.
         66    2    3    3    0    0  0.21938751818E+02 -0.17686809093E+02  0.56819971022E+02  0.63455820484E+02  0.19999997770E+01 0.  0.
         13    1    3    3    0    0 -0.21938751818E+02  0.17686809093E+02 -0.13403607647E+02  0.31205767243E+02  0.10566000000E+00 0. -1.
         13    1    4    4    0    0  0.64381898737E+01 -0.47544502575E+01  0.14686662742E+02  0.16726156541E+02  0.10566000000E+00 0. -1.
        -13    1    4    4    0    0  0.13755398623E+02 -0.11852189066E+02  0.37811980796E+02  0.41945708155E+02  0.10566000000E+00 0.  1.
        -14    1    4    4    0    0  0.17451633213E+01 -0.10801697700E+01  0.43213274849E+01  0.47839557880E+01  0.00000000000E+00 0.  1.
<mgrwt>
<rscale>  0 0.84117986E+02</rscale>
<asrwt>0</asrwt>
<pdfrwt beam="1">  1        1 0.39419404E-02 0.84117986E+02</pdfrwt>
<pdfrwt beam="2">  1       -2 0.10621381E-01 0.84117986E+02</pdfrwt>
<totfact> 0.10143447E+05</totfact>
</mgrwt>
</event>
<event>
 8    1  0.1292667E-020  0.7958973E+02  0.7818608E-02  0.1330220E+00
         -2   -1    0    0    0  501 -0.00000000000E+00  0.00000000000E+00  0.10201320608E+02  0.10201320927E+02  0.25500000000E-02 0.  1.
          1   -1    0    0  501    0  0.00000000000E+00 -0.00000000000E+00 -0.15523787139E+03  0.15523787148E+03  0.50400000000E-02 0. -1.
        -24    2    1    2    0    0  0.35527136788E-14  0.00000000000E+00 -0.14503655079E+03  0.16543919240E+03  0.79589731240E+02 0.  0.
         66    2    3    3    0    0  0.19008383459E+02 -0.19895632516E+02 -0.12878390267E+02  0.30446802280E+02  0.19999995693E+01 0.  0.
         13    1    3    3    0    0 -0.19008383459E+02  0.19895632516E+02 -0.13215816052E+03  0.13499239012E+03  0.10566000000E+00 0. -1.
         13    1    4    4    0    0  0.52669486822E+00 -0.91784853182E+00 -0.45248614346E+00  0.11557513388E+01  0.10566000000E+00 0. -1.
        -13    1    4    4    0    0  0.13594711893E+02 -0.14408499964E+02 -0.87362542210E+01  0.21650735888E+02  0.10566000000E+00 0.  1.
         14    1    4    4    0    0  0.48869766984E+01 -0.45692840205E+01 -0.36896499023E+01  0.76403150532E+01  0.00000000000E+00 0. -1.
<mgrwt>
<rscale>  0 0.79589731E+02</rscale>
<asrwt>0</asrwt>
<pdfrwt beam="1">  1        1 0.23882748E-01 0.79589731E+02</pdfrwt>
<pdfrwt beam="2">  1       -2 0.15694341E-02 0.79589731E+02</pdfrwt>
<totfact> 0.16108653E+05</totfact>
</mgrwt>
</event>
<event>
 8    1  0.1241100E-020  0.7946689E+02  0.7818608E-02  0.1330571E+00
          1   -1    0    0  501    0  0.00000000000E+00  0.00000000000E+00  0.22724558973E+02  0.22724559532E+02  0.50400000000E-02 0. -1.
         -2   -1    0    0    0  501 -0.00000000000E+00 -0.00000000000E+00 -0.69473148376E+02  0.69473148423E+02  0.25500000000E-02 0.  1.
        -24    2    1    2    0    0  0.00000000000E+00  0.00000000000E+00 -0.46748589403E+02  0.92197707954E+02  0.79466890847E+02 0.  0.
         66    2    3    3    0    0  0.36155294707E+02  0.37725333669E+01 -0.41927066037E+02  0.55527616668E+02  0.20000007423E+01 0.  0.
         13    1    3    3    0    0 -0.36155294707E+02 -0.37725333669E+01 -0.48215233656E+01  0.36670091286E+02  0.10566000000E+00 0. -1.
         13    1    4    4    0    0  0.39205865459E+01  0.12970137996E+00 -0.52028834283E+01  0.65168229465E+01  0.10566000000E+00 0. -1.
        -13    1    4    4    0    0  0.29519413295E+02  0.33793824069E+01 -0.34042758220E+02  0.45185578872E+02  0.10566000000E+00 0.  1.
        -14    1    4    4    0    0  0.27152948655E+01  0.26344958000E+00 -0.26814243893E+01  0.38252148494E+01  0.00000000000E+00 0.  1.
<mgrwt>
<rscale>  0 0.79466891E+02</rscale>
<asrwt>0</asrwt>
<pdfrwt beam="1">  1        1 0.34960861E-02 0.79466891E+02</pdfrwt>
<pdfrwt beam="2">  1       -2 0.10688177E-01 0.79466891E+02</pdfrwt>
<totfact> 0.11705619E+05</totfact>
</mgrwt>
</event>
<event>
 8    1  0.1241100E-020  0.7837935E+02  0.7818608E-02  0.1333715E+00
         -2   -1    0    0    0  501 -0.00000000000E+00  0.00000000000E+00  0.19214173402E+03  0.19214173404E+03  0.25500000000E-02 0.  1.
          1   -1    0    0  501    0  0.00000000000E+00 -0.00000000000E+00 -0.79932172188E+01  0.79932188077E+01  0.50400000000E-02 0. -1.
        -24    2    1    2    0    0  0.00000000000E+00 -0.17763568394E-14  0.18414851680E+03  0.20013495285E+03  0.78379353851E+02 0.  0.
         66    2    3    3    0    0 -0.55741172408E+01  0.14383519061E+02  0.18405232172E+03  0.18470845548E+03  0.19999978950E+01 0.  0.
         13    1    3    3    0    0  0.55741172408E+01 -0.14383519061E+02  0.96195086749E-01  0.15426497371E+02  0.10566000000E+00 0. -1.
         13    1    4    4    0    0 -0.19388719899E+01  0.54643863073E+01  0.77039883983E+02  0.77257838635E+02  0.10566000000E+00 0. -1.
        -13    1    4    4    0    0 -0.90572733223E+00  0.35191541223E+01  0.42297067615E+02  0.42453007910E+02  0.10566000000E+00 0.  1.
         14    1    4    4    0    0 -0.27295179187E+01  0.53999786314E+01  0.64715370119E+02  0.64997608933E+02  0.00000000000E+00 0. -1.
<mgrwt>
<rscale>  0 0.78379354E+02</rscale>
<asrwt>0</asrwt>
<pdfrwt beam="1">  1        1 0.12297258E-02 0.78379354E+02</pdfrwt>
<pdfrwt beam="2">  1       -2 0.29560267E-01 0.78379354E+02</pdfrwt>
<totfact> 0.91132756E+04</totfact>
</mgrwt>
</event>
<event>
 8    1  0.1241100E-020  0.8137487E+02  0.7818608E-02  0.1325194E+00
         -2   -1    0    0    0  501 -0.00000000000E+00  0.00000000000E+00  0.27284796258E+01  0.27284808174E+01  0.25500000000E-02 0.  1.
          1   -1    0    0  501    0  0.00000000000E+00 -0.00000000000E+00 -0.60673599606E+03  0.60673599608E+03  0.50400000000E-02 0. -1.
        -24    2    1    2    0    0 -0.35527136788E-14 -0.35527136788E-14 -0.60400751643E+03  0.60946447690E+03  0.81374865234E+02 0.  0.
         66    2    3    3    0    0 -0.28158795098E+02 -0.26854913877E+02 -0.39060030653E+03  0.39253879252E+03  0.20000073671E+01 0.  0.
         13    1    3    3    0    0  0.28158795098E+02  0.26854913877E+02 -0.21340720990E+03  0.21692568438E+03  0.10566000000E+00 0. -1.
         13    1    4    4    0    0 -0.11083501486E+02 -0.10796662535E+02 -0.15871580794E+03  0.15946827515E+03  0.10566000000E+00 0. -1.
        -13    1    4    4    0    0 -0.78056176000E+01 -0.81880056814E+01 -0.10838604281E+03  0.10897484362E+03  0.10566000000E+00 0.  1.
        -14    1    4    4    0    0 -0.92696760116E+01 -0.78702456608E+01 -0.12349845579E+03  0.12409567374E+03  0.00000000000E+00 0.  1.
<mgrwt>
<rscale>  0 0.81374865E+02</rscale>
<asrwt>0</asrwt>
<pdfrwt beam="1">  1        1 0.93343892E-01 0.81374865E+02</pdfrwt>
<pdfrwt beam="2">  1       -2 0.41976667E-03 0.81374865E+02</pdfrwt>
<totfact> 0.19078091E+05</totfact>
</mgrwt>
</event>
<event>
 8    1  0.1241100E-020  0.7769975E+02  0.7818608E-02  0.1335709E+00
          1   -1    0    0  501    0  0.00000000000E+00  0.00000000000E+00  0.25309719505E+03  0.25309719510E+03  0.50400000000E-02 0. -1.
         -2   -1    0    0    0  501 -0.00000000000E+00 -0.00000000000E+00 -0.59633726814E+01  0.59633732266E+01  0.25500000000E-02 0.  1.
        -24    2    1    2    0    0  0.00000000000E+00  0.00000000000E+00  0.24713382237E+03  0.25906056833E+03  0.77699754847E+02 0.  0.
         66    2    3    3    0    0 -0.15925435632E+02  0.32978157520E+02  0.16662250278E+03  0.17061136188E+03  0.19999999411E+01 0.  0.
         13    1    3    3    0    0  0.15925435632E+02 -0.32978157520E+02  0.80511319594E+02  0.88449206442E+02  0.10566000000E+00 0. -1.
         13    1    4    4    0    0 -0.70443159920E+01  0.14851473141E+02  0.78555353722E+02  0.80256734326E+02  0.10566000000E+00 0. -1.
        -13    1    4    4    0    0 -0.11606440517E+01  0.29620424008E+01  0.13368628785E+02  0.13742350215E+02  0.10566000000E+00 0.  1.
         14    1    4    4    0    0 -0.77204755880E+01  0.15164641978E+02  0.74698520268E+02  0.76612277344E+02  0.00000000000E+00 0. -1.
<mgrwt>
<rscale>  0 0.77699755E+02</rscale>
<asrwt>0</asrwt>
<pdfrwt beam="1">  1        1 0.38938047E-01 0.77699755E+02</pdfrwt>
<pdfrwt beam="2">  1       -2 0.91744159E-03 0.77699755E+02</pdfrwt>
<totfact> 0.18854386E+05</totfact>
</mgrwt>
</event>
<event>
 8    1  0.1241100E-020  0.7817698E+02  0.7818608E-02  0.1334306E+00
         -2   -1    0    0    0  501 -0.00000000000E+00  0.00000000000E+00  0.33901146753E+02  0.33901146849E+02  0.25500000000E-02 0.  1.
          1   -1    0    0  501    0  0.00000000000E+00 -0.00000000000E+00 -0.45069563819E+02  0.45069564101E+02  0.50400000000E-02 0. -1.
        -24    2    1    2    0    0  0.00000000000E+00 -0.35527136788E-14 -0.11168417066E+02  0.78970710950E+02  0.78176976459E+02 0.  0.
         66    2    3    3    0    0  0.23560625100E+01 -0.27261638781E+02  0.22572724566E+02  0.35528521983E+02  0.20000001019E+01 0.  0.
         13    1    3    3    0    0 -0.23560625100E+01  0.27261638781E+02 -0.33741141632E+02  0.43442188967E+02  0.10566000000E+00 0. -1.
         13    1    4    4    0    0 -0.27134474178E+00 -0.62067746662E+01  0.52722911817E+01  0.81489814128E+01  0.10566000000E+00 0. -1.
        -13    1    4    4    0    0  0.36510753600E+00 -0.36672865344E+01  0.29932104110E+01  0.47489753251E+01  0.10566000000E+00 0.  1.
        -14    1    4    4    0    0  0.22622997158E+01 -0.17387577580E+02  0.14307222974E+02  0.22630565245E+02  0.00000000000E+00 0.  1.
<mgrwt>
<rscale>  0 0.78176976E+02</rscale>
<asrwt>0</asrwt>
<pdfrwt beam="1">  1        1 0.69337791E-02 0.78176976E+02</pdfrwt>
<pdfrwt beam="2">  1       -2 0.52155611E-02 0.78176976E+02</pdfrwt>
<totfact> 0.13803324E+05</totfact>
</mgrwt>
</event>
<event>
 8    1  0.1241100E-020  0.7807856E+02  0.7818608E-02  0.1334594E+00
         -2   -1    0    0    0  501 -0.00000000000E+00  0.00000000000E+00  0.61879367721E+01  0.61879372975E+01  0.25500000000E-02 0.  1.
          1   -1    0    0  501    0  0.00000000000E+00 -0.00000000000E+00 -0.24629618055E+03  0.24629618060E+03  0.50400000000E-02 0. -1.
        -24    2    1    2    0    0  0.71054273576E-14  0.17763568394E-14 -0.24010824378E+03  0.25248411790E+03  0.78078556987E+02 0.  0.
         66    2    3    3    0    0  0.35339282013E+02  0.13824147256E+02 -0.14943103174E+03  0.15418691627E+03  0.20000005928E+01 0.  0.
         13    1    3    3    0    0 -0.35339282013E+02 -0.13824147256E+02 -0.90677212039E+02  0.98297201627E+02  0.10566000000E+00 0. -1.
         13    1    4    4    0    0  0.37571333364E+01  0.18058724569E+01 -0.17348833954E+02  0.17842937814E+02  0.10566000000E+00 0. -1.
        -13    1    4    4    0    0  0.61973933311E+01  0.17627735078E+01 -0.25451648609E+02  0.26254764053E+02  0.10566000000E+00 0.  1.
        -14    1    4    4    0    0  0.25384755345E+02  0.10255501291E+02 -0.10663054917E+03  0.11008921440E+03  0.00000000000E+00 0.  1.
<mgrwt>
<rscale>  0 0.78078557E+02</rscale>
<asrwt>0</asrwt>
<pdfrwt beam="1">  1        1 0.37891713E-01 0.78078557E+02</pdfrwt>
<pdfrwt beam="2">  1       -2 0.95199050E-03 0.78078557E+02</pdfrwt>
<totfact> 0.18516371E+05</totfact>
</mgrwt>
</event>
<event>
 8    1  0.1241100E-020  0.7901423E+02  0.7818608E-02  0.1331872E+00
         -2   -1    0    0    0  501 -0.00000000000E+00  0.00000000000E+00  0.37828638470E+03  0.37828638471E+03  0.25500000000E-02 0.  1.
          1   -1    0    0  501    0  0.00000000000E+00 -0.00000000000E+00 -0.41260046805E+01  0.41260077588E+01  0.50400000000E-02 0. -1.
        -24    2    1    2    0    0 -0.35527136788E-14  0.00000000000E+00  0.37416038002E+03  0.38241239247E+03  0.79014226164E+02 0.  0.
         66    2    3    3    0    0 -0.29807288928E+02 -0.18322974635E+02  0.27572970096E+03  0.27794796974E+03  0.20000038555E+01 0.  0.
         13    1    3    3    0    0  0.29807288928E+02  0.18322974635E+02  0.98430679058E+02  0.10446442273E+03  0.10566000000E+00 0. -1.
         13    1    4    4    0    0 -0.22991877715E+02 -0.13769839803E+02  0.20849566963E+03  0.21021106143E+03  0.10566000000E+00 0.  1.
        -13    1    4    4    0    0 -0.55966515361E+01 -0.33424978139E+01  0.52770367902E+02  0.53171587268E+02  0.10566000000E+00 0.  1.
        -14    1    4    4    0    0 -0.12187596768E+01 -0.12106370187E+01  0.14463663430E+02  0.14565321038E+02  0.00000000000E+00 0.  1.
<mgrwt>
<rscale>  0 0.79014226E+02</rscale>
<asrwt>0</asrwt>
<pdfrwt beam="1">  1        1 0.63477020E-03 0.79014226E+02</pdfrwt>
<pdfrwt beam="2">  1       -2 0.58197905E-01 0.79014226E+02</pdfrwt>
<totfact> 0.63272303E+04</totfact>
</mgrwt>
</event>
<event>
 8    1  0.1241100E-020  0.8021315E+02  0.7818608E-02  0.1328448E+00
         -2   -1    0    0    0  501 -0.00000000000E+00  0.00000000000E+00  0.16500243287E+03  0.16500243289E+03  0.25500000000E-02 0.  1.
          1   -1    0    0  501    0  0.00000000000E+00 -0.00000000000E+00 -0.97485679870E+01  0.97485692898E+01  0.50400000000E-02 0. -1.
        -24    2    1    2    0    0  0.00000000000E+00 -0.11102230246E-15  0.15525386488E+03  0.17475100218E+03  0.80213154792E+02 0.  0.
         66    2    3    3    0    0 -0.36270013599E+02  0.86232198493E+00  0.11479257868E+03  0.12040595336E+03  0.19999999015E+01 0.  0.
         13    1    3    3    0    0  0.36270013599E+02 -0.86232198493E+00  0.40461286207E+02  0.54345048820E+02  0.10566000000E+00 0. -1.
         13    1    4    4    0    0 -0.19522584054E+02 -0.20265416646E+00  0.59727573175E+02  0.62837620246E+02  0.10566000000E+00 0. -1.
        -13    1    4    4    0    0 -0.15784306274E+02  0.11296234839E+01  0.52061681256E+02  0.54413694904E+02  0.10566000000E+00 0.  1.
         14    1    4    4    0    0 -0.96312327142E+00 -0.64647332481E-01  0.30033242458E+01  0.31546382105E+01  0.00000000000E+00 0. -1.
<mgrwt>
<rscale>  0 0.80213155E+02</rscale>
<asrwt>0</asrwt>
<pdfrwt beam="1">  1        1 0.14997799E-02 0.80213155E+02</pdfrwt>
<pdfrwt beam="2">  1       -2 0.25384988E-01 0.80213155E+02</pdfrwt>
<totfact> 0.90870954E+04</totfact>
</mgrwt>
</event>
<event>
 8    1  0.1241100E-020  0.8129092E+02  0.7818608E-02  0.1325427E+00
          1   -1    0    0  501    0  0.00000000000E+00  0.00000000000E+00  0.39947971308E+01  0.39948003101E+01  0.50400000000E-02 0. -1.
         -2   -1    0    0    0  501 -0.00000000000E+00 -0.00000000000E+00 -0.41355107849E+03  0.41355107850E+03  0.25500000000E-02 0.  1.
        -24    2    1    2    0    0  0.35527136788E-14  0.00000000000E+00 -0.40955628136E+03  0.41754587881E+03  0.81290917751E+02 0.  0.
         66    2    3    3    0    0 -0.27550312914E+02 -0.29276022484E+02 -0.23482701232E+03  0.23825161271E+03  0.20000019182E+01 0.  0.
         13    1    3    3    0    0  0.27550312914E+02  0.29276022484E+02 -0.17472926903E+03  0.17929426610E+03  0.10566000000E+00 0. -1.
         13    1    4    4    0    0 -0.14278334744E+01 -0.15894389629E+01 -0.11770572059E+02  0.11963383940E+02  0.10566000000E+00 0. -1.
        -13    1    4    4    0    0 -0.10933028783E+02 -0.11569485434E+02 -0.98583361830E+02  0.99860274911E+02  0.10566000000E+00 0.  1.
        -14    1    4    4    0    0 -0.15189450656E+02 -0.16117098087E+02 -0.12447307844E+03  0.12642795386E+03  0.00000000000E+00 0.  1.
<mgrwt>
<rscale>  0 0.81290918E+02</rscale>
<asrwt>0</asrwt>
<pdfrwt beam="1">  1        1 0.61458475E-03 0.81290918E+02</pdfrwt>
<pdfrwt beam="2">  1       -2 0.63623209E-01 0.81290918E+02</pdfrwt>
<totfact> 0.55445538E+04</totfact>
</mgrwt>
</event>
<event>
 8    1  0.1241100E-020  0.7930683E+02  0.7818608E-02  0.1331030E+00
          1   -1    0    0  501    0  0.00000000000E+00  0.00000000000E+00  0.66487786316E+01  0.66487805419E+01  0.50400000000E-02 0. -1.
         -2   -1    0    0    0  501 -0.00000000000E+00 -0.00000000000E+00 -0.23649349812E+03  0.23649349813E+03  0.25500000000E-02 0.  1.
        -24    2    1    2    0    0  0.00000000000E+00  0.00000000000E+00 -0.22984471949E+03  0.24314227867E+03  0.79306825701E+02 0.  0.
         66    2    3    3    0    0  0.18840189546E+02  0.26077116817E+02 -0.18593619028E+03  0.18870939463E+03  0.20000010608E+01 0.  0.
         13    1    3    3    0    0 -0.18840189546E+02 -0.26077116817E+02 -0.43908529206E+02  0.54432884038E+02  0.10566000000E+00 0. -1.
         13    1    4    4    0    0  0.23208990581E+01  0.28943587990E+01 -0.20770149063E+02  0.21099150254E+02  0.10566000000E+00 0.  1.
        -13    1    4    4    0    0  0.12945392258E+02  0.17402562029E+02 -0.12216263936E+03  0.12407317988E+03  0.10566000000E+00 0.  1.
         14    1    4    4    0    0  0.35738982297E+01  0.57801959889E+01 -0.43003401860E+02  0.43537064506E+02  0.00000000000E+00 0. -1.
<mgrwt>
<rscale>  0 0.79306826E+02</rscale>
<asrwt>0</asrwt>
<pdfrwt beam="1">  1        1 0.10228894E-02 0.79306826E+02</pdfrwt>
<pdfrwt beam="2">  1       -2 0.36383609E-01 0.79306826E+02</pdfrwt>
<totfact> 0.80940782E+04</totfact>
</mgrwt>
</event>
<event>
 8    1  0.1241100E-020  0.7874196E+02  0.7818608E-02  0.1332660E+00
          1   -1    0    0  501    0  0.00000000000E+00  0.00000000000E+00  0.16777523205E+03  0.16777523213E+03  0.50400000000E-02 0. -1.
         -2   -1    0    0    0  501 -0.00000000000E+00 -0.00000000000E+00 -0.92389921363E+01  0.92389924882E+01  0.25500000000E-02 0.  1.
        -24    2    1    2    0    0 -0.88817841970E-15  0.00000000000E+00  0.15853623992E+03  0.17701422462E+03  0.78741960541E+02 0.  0.
         66    2    3    3    0    0  0.68683539702E+01  0.25473291932E+02  0.13701063929E+02  0.29795671929E+02  0.20000061985E+01 0.  0.
         13    1    3    3    0    0 -0.68683539702E+01 -0.25473291932E+02  0.14483517599E+03  0.14721855269E+03  0.10566000000E+00 0. -1.
         13    1    4    4    0    0  0.10267332993E+01  0.43526943603E+01  0.18240203103E+01  0.48309774984E+01  0.10566000000E+00 0. -1.
        -13    1    4    4    0    0  0.40286282928E+01  0.15109233424E+02  0.77653510790E+01  0.17459399245E+02  0.10566000000E+00 0.  1.
        -14    1    4    4    0    0  0.18129923780E+01  0.60113641476E+01  0.41116925396E+01  0.75052951853E+01  0.00000000000E+00 0.  1.
<mgrwt>
<rscale>  0 0.78741961E+02</rscale>
<asrwt>0</asrwt>
<pdfrwt beam="1">  1        1 0.25811573E-01 0.78741961E+02</pdfrwt>
<pdfrwt beam="2">  1       -2 0.14213835E-02 0.78741961E+02</pdfrwt>
<totfact> 0.16816699E+05</totfact>
</mgrwt>
</event>
<event>
 8    1  0.1241100E-020  0.7932907E+02  0.7818608E-02  0.1330966E+00
         -2   -1    0    0    0  501 -0.00000000000E+00  0.00000000000E+00  0.59593814821E+03  0.59593814821E+03  0.25500000000E-02 0.  1.
          1   -1    0    0  501    0  0.00000000000E+00 -0.00000000000E+00 -0.26399955392E+01  0.26400003501E+01  0.50400000000E-02 0. -1.
        -24    2    1    2    0    0  0.00000000000E+00  0.00000000000E+00  0.59329815267E+03  0.59857814856E+03  0.79329073973E+02 0.  0.
         66    2    3    3    0    0 -0.20980692745E+02  0.12081794324E+02  0.53366405928E+03  0.53421670451E+03  0.19999973620E+01 0.  0.
         13    1    3    3    0    0  0.20980692745E+02 -0.12081794324E+02  0.59634093387E+02  0.64361444050E+02  0.10566000000E+00 0. -1.
         13    1    4    4    0    0 -0.27674190370E+01  0.19850284091E+01  0.70625960087E+02  0.70708106665E+02  0.10566000000E+00 0. -1.
        -13    1    4    4    0    0 -0.10707807771E+02  0.65707761326E+01  0.26815131230E+03  0.26844546877E+03  0.10566000000E+00 0.  1.
         14    1    4    4    0    0 -0.75054659368E+01  0.35259897822E+01  0.19488678689E+03  0.19506312908E+03  0.00000000000E+00 0. -1.
<mgrwt>
<rscale>  0 0.79329074E+02</rscale>
<asrwt>0</asrwt>
<pdfrwt beam="1">  1        1 0.40615308E-03 0.79329074E+02</pdfrwt>
<pdfrwt beam="2">  1       -2 0.91682894E-01 0.79329074E+02</pdfrwt>
<totfact> 0.44680832E+04</totfact>
</mgrwt>
</event>
<event>
 8    1  0.1241100E-020  0.7722185E+02  0.7818608E-02  0.1337126E+00
          1   -1    0    0  501    0  0.00000000000E+00  0.00000000000E+00  0.59700484649E+02  0.59700484861E+02  0.50400000000E-02 0. -1.
         -2   -1    0    0    0  501 -0.00000000000E+00 -0.00000000000E+00 -0.24971377502E+02  0.24971377632E+02  0.25500000000E-02 0.  1.
        -24    2    1    2    0    0  0.35527136788E-14  0.35527136788E-14  0.34729107146E+02  0.84671862493E+02  0.77221845451E+02 0.  0.
         66    2    3    3    0    0  0.17245083006E+02  0.20986688922E+02 -0.12671350536E+02  0.30039925384E+02  0.19999982081E+01 0.  0.
         13    1    3    3    0    0 -0.17245083006E+02 -0.20986688922E+02  0.47400457683E+02  0.54631937110E+02  0.10566000000E+00 0. -1.
         13    1    4    4    0    0  0.58620118309E+01  0.63215532836E+01 -0.41807876080E+01  0.95820335880E+01  0.10566000000E+00 0. -1.
        -13    1    4    4    0    0  0.91399032033E+01  0.12368194969E+02 -0.74017455915E+01  0.17067720387E+02  0.10566000000E+00 0.  1.
         14    1    4    4    0    0  0.22431679716E+01  0.22969406698E+01 -0.10888173370E+01  0.33901714091E+01  0.00000000000E+00 0. -1.
<mgrwt>
<rscale>  0 0.77221845E+02</rscale>
<asrwt>0</asrwt>
<pdfrwt beam="1">  1        1 0.91846899E-02 0.77221845E+02</pdfrwt>
<pdfrwt beam="2">  1       -2 0.38417504E-02 0.77221845E+02</pdfrwt>
<totfact> 0.14908398E+05</totfact>
</mgrwt>
</event>
<event>
 8    1  0.1241100E-020  0.7383382E+02  0.7818608E-02  0.1347521E+00
          1   -1    0    0  501    0  0.00000000000E+00  0.00000000000E+00  0.79092928869E+02  0.79092929029E+02  0.50400000000E-02 0. -1.
         -2   -1    0    0    0  501 -0.00000000000E+00 -0.00000000000E+00 -0.17231099577E+02  0.17231099766E+02  0.25500000000E-02 0.  1.
        -24    2    1    2    0    0 -0.17763568394E-14  0.35527136788E-14  0.61861829292E+02  0.96324028795E+02  0.73833817455E+02 0.  0.
         66    2    3    3    0    0 -0.13363339868E+02  0.30016853940E+02  0.90741392666E+01  0.34145722650E+02  0.19999997370E+01 0.  0.
         13    1    3    3    0    0  0.13363339868E+02 -0.30016853940E+02  0.52787690025E+02  0.62178306145E+02  0.10566000000E+00 0. -1.
         13    1    4    4    0    0 -0.71258256023E+01  0.15162382658E+02  0.44055389376E+01  0.17323255345E+02  0.10566000000E+00 0. -1.
        -13    1    4    4    0    0 -0.32477361513E+01  0.87325788293E+01  0.21796155852E+01  0.95690966791E+01  0.10566000000E+00 0.  1.
         14    1    4    4    0    0 -0.29897781146E+01  0.61218924526E+01  0.24889847438E+01  0.72533706254E+01  0.00000000000E+00 0. -1.
<mgrwt>
<rscale>  0 0.73833817E+02</rscale>
<asrwt>0</asrwt>
<pdfrwt beam="1">  1        1 0.12168143E-01 0.73833817E+02</pdfrwt>
<pdfrwt beam="2">  1       -2 0.26509384E-02 0.73833817E+02</pdfrwt>
<totfact> 0.17574405E+05</totfact>
</mgrwt>
</event>
<event>
 8    1  0.1241100E-020  0.7952557E+02  0.7818608E-02  0.1330403E+00
          1   -1    0    0  501    0  0.00000000000E+00  0.00000000000E+00  0.60658145229E+02  0.60658145438E+02  0.50400000000E-02 0. -1.
         -2   -1    0    0    0  501 -0.00000000000E+00 -0.00000000000E+00 -0.26065402425E+02  0.26065402550E+02  0.25500000000E-02 0.  1.
        -24    2    1    2    0    0  0.00000000000E+00  0.00000000000E+00  0.34592742804E+02  0.86723547988E+02  0.79525567718E+02 0.  0.
         66    2    3    3    0    0 -0.26380414691E+02 -0.95690189402E+01  0.47988888062E+02  0.55627563125E+02  0.19999997558E+01 0.  0.
         13    1    3    3    0    0  0.26380414691E+02  0.95690189402E+01 -0.13396145258E+02  0.31095984863E+02  0.10566000000E+00 0. -1.
         13    1    4    4    0    0 -0.11711827846E+02 -0.43047769390E+01  0.21489176676E+02  0.24849424425E+02  0.10566000000E+00 0.  1.
        -13    1    4    4    0    0 -0.12160265192E+02 -0.44762139808E+01  0.23022194078E+02  0.26418575385E+02  0.10566000000E+00 0. -1.
         14    1    4    4    0    0 -0.25083216532E+01 -0.78802802043E+00  0.34775173083E+01  0.43595633160E+01  0.00000000000E+00 0. -1.
<mgrwt>
<rscale>  0 0.79525568E+02</rscale>
<asrwt>0</asrwt>
<pdfrwt beam="1">  1        1 0.93320224E-02 0.79525568E+02</pdfrwt>
<pdfrwt beam="2">  1       -2 0.40100619E-02 0.79525568E+02</pdfrwt>
<totfact> 0.13785566E+05</totfact>
</mgrwt>
</event>
<event>
 8    1  0.1241100E-020  0.7930038E+02  0.7818608E-02  0.1331049E+00
         -2   -1    0    0    0  501 -0.00000000000E+00  0.00000000000E+00  0.81374957347E+02  0.81374957387E+02  0.25500000000E-02 0.  1.
          1   -1    0    0  501    0  0.00000000000E+00 -0.00000000000E+00 -0.19319674460E+02  0.19319675117E+02  0.50400000000E-02 0. -1.
        -24    2    1    2    0    0  0.00000000000E+00  0.17763568394E-14  0.62055282888E+02  0.10069463250E+03  0.79300383863E+02 0.  0.
         66    2    3    3    0    0 -0.36833531449E+02 -0.81246263236E+01  0.15630294397E+02  0.40878168949E+02  0.20000004461E+01 0.  0.
         13    1    3    3    0    0  0.36833531449E+02  0.81246263236E+01  0.46424988491E+02  0.59816463555E+02  0.10566000000E+00 0. -1.
         13    1    4    4    0    0 -0.20938315097E+02 -0.38548603083E+01  0.81385690602E+01  0.22792991411E+02  0.10566000000E+00 0. -1.
        -13    1    4    4    0    0 -0.36434450736E+01 -0.98327713723E+00  0.17647853038E+01  0.41673921266E+01  0.10566000000E+00 0.  1.
         14    1    4    4    0    0 -0.12251771278E+02 -0.32864888781E+01  0.57269400329E+01  0.13917785411E+02  0.00000000000E+00 0. -1.
<mgrwt>
<rscale>  0 0.79300384E+02</rscale>
<asrwt>0</asrwt>
<pdfrwt beam="1">  1        1 0.29722577E-02 0.79300384E+02</pdfrwt>
<pdfrwt beam="2">  1       -2 0.12519224E-01 0.79300384E+02</pdfrwt>
<totfact> 0.11386859E+05</totfact>
</mgrwt>
</event>
<event>
 8    1  0.1241100E-020  0.7764908E+02  0.7818608E-02  0.1335859E+00
          1   -1    0    0  501    0  0.00000000000E+00  0.00000000000E+00  0.60817139325E+02  0.60817139534E+02  0.50400000000E-02 0. -1.
         -2   -1    0    0    0  501 -0.00000000000E+00 -0.00000000000E+00 -0.24784870320E+02  0.24784870451E+02  0.25500000000E-02 0.  1.
        -24    2    1    2    0    0  0.00000000000E+00  0.00000000000E+00  0.36032269005E+02  0.85602009985E+02  0.77649080509E+02 0.  0.
         66    2    3    3    0    0 -0.15058746407E+02  0.29030509679E+02 -0.49859984386E+01  0.33142065611E+02  0.19999992471E+01 0.  0.
         13    1    3    3    0    0  0.15058746407E+02 -0.29030509679E+02  0.41018267444E+02  0.52459944374E+02  0.10566000000E+00 0. -1.
         13    1    4    4    0    0 -0.64218598246E+01  0.12354988688E+02 -0.30918049683E+01  0.14263816147E+02  0.10566000000E+00 0. -1.
        -13    1    4    4    0    0 -0.37375637173E+01  0.68724321580E+01 -0.81027706140E+00  0.78655844830E+01  0.10566000000E+00 0.  1.
         14    1    4    4    0    0 -0.48993228648E+01  0.98030888329E+01 -0.10839164089E+01  0.11012664981E+02  0.00000000000E+00 0. -1.
<mgrwt>
<rscale>  0 0.77649081E+02</rscale>
<asrwt>0</asrwt>
<pdfrwt beam="1">  1        1 0.93564830E-02 0.77649081E+02</pdfrwt>
<pdfrwt beam="2">  1       -2 0.38130570E-02 0.77649081E+02</pdfrwt>
<totfact> 0.14726147E+05</totfact>
</mgrwt>
</event>
<event>
 8    1  0.1241100E-020  0.8309504E+02  0.7818608E-02  0.1320491E+00
          1   -1    0    0  501    0  0.00000000000E+00  0.00000000000E+00  0.11243289652E+03  0.11243289664E+03  0.50400000000E-02 0. -1.
         -2   -1    0    0    0  501 -0.00000000000E+00 -0.00000000000E+00 -0.15353124948E+02  0.15353125160E+02  0.25500000000E-02 0.  1.
        -24    2    1    2    0    0  0.00000000000E+00 -0.88817841970E-15  0.97079771575E+02  0.12778602180E+03  0.83095037861E+02 0.  0.
         66    2    3    3    0    0  0.37292427222E+02  0.70800939882E+01  0.22682160920E+02  0.44264356976E+02  0.20000038705E+01 0.  0.
         13    1    3    3    0    0 -0.37292427222E+02 -0.70800939882E+01  0.74397610655E+02  0.83521664819E+02  0.10566000000E+00 0. -1.
         13    1    4    4    0    0  0.88959661123E+01  0.16828570970E+01  0.49811399193E+01  0.10334076640E+02  0.10566000000E+00 0. -1.
        -13    1    4    4    0    0  0.14454492342E+02  0.30865107089E+01  0.82236037736E+01  0.16914423439E+02  0.10566000000E+00 0.  1.
         14    1    4    4    0    0  0.13941968768E+02  0.23107261824E+01  0.94774172268E+01  0.17015856896E+02  0.00000000000E+00 0. -1.
<mgrwt>
<rscale>  0 0.83095038E+02</rscale>
<asrwt>0</asrwt>
<pdfrwt beam="1">  1        1 0.17297369E-01 0.83095038E+02</pdfrwt>
<pdfrwt beam="2">  1       -2 0.23620192E-02 0.83095038E+02</pdfrwt>
<totfact> 0.13535064E+05</totfact>
</mgrwt>
</event>
<event>
 8    1  0.1241100E-020  0.7940553E+02  0.7818608E-02  0.1330747E+00
          1   -1    0    0  501    0  0.00000000000E+00  0.00000000000E+00  0.76535807104E+01  0.76535823699E+01  0.50400000000E-02 0. -1.
         -2   -1    0    0    0  501 -0.00000000000E+00 -0.00000000000E+00 -0.20595710750E+03  0.20595710751E+03  0.25500000000E-02 0.  1.
        -24    2    1    2    0    0 -0.35527136788E-14  0.71054273576E-14 -0.19830352679E+03  0.21361068988E+03  0.79405529380E+02 0.  0.
         66    2    3    3    0    0 -0.17629492416E+02  0.24681979855E+02 -0.16802622321E+03  0.17075365536E+03  0.19999997370E+01 0.  0.
         13    1    3    3    0    0  0.17629492416E+02 -0.24681979855E+02 -0.30277303573E+02  0.42857034523E+02  0.10566000000E+00 0. -1.
         13    1    4    4    0    0 -0.13221143248E+01  0.25647116535E+01 -0.17419058380E+02  0.17656740669E+02  0.10566000000E+00 0.  1.
        -13    1    4    4    0    0 -0.22535993138E+01  0.34668532160E+01 -0.21282782746E+02  0.21681000589E+02  0.10566000000E+00 0.  1.
         14    1    4    4    0    0 -0.14053778778E+02  0.18650414985E+02 -0.12932438209E+03  0.13141591410E+03  0.00000000000E+00 0. -1.
<mgrwt>
<rscale>  0 0.79405529E+02</rscale>
<asrwt>0</asrwt>
<pdfrwt beam="1">  1        1 0.11774742E-02 0.79405529E+02</pdfrwt>
<pdfrwt beam="2">  1       -2 0.31685705E-01 0.79405529E+02</pdfrwt>
<totfact> 0.85691302E+04</totfact>
</mgrwt>
</event>
<event>
 8    1  0.1241100E-020  0.8268362E+02  0.7818608E-02  0.1321604E+00
         -2   -1    0    0    0  501 -0.00000000000E+00  0.00000000000E+00  0.37474990142E+02  0.37474990228E+02  0.25500000000E-02 0.  1.
          1   -1    0    0  501    0  0.00000000000E+00 -0.00000000000E+00 -0.45607621591E+02  0.45607621870E+02  0.50400000000E-02 0. -1.
        -24    2    1    2    0    0  0.17763568394E-14 -0.17763568394E-14 -0.81326314496E+01  0.83082612098E+02  0.82683618322E+02 0.  0.
         66    2    3    3    0    0  0.13046676549E+02 -0.93356159336E+01  0.34190903059E+02  0.37820462004E+02  0.20000000844E+01 0.  0.
         13    1    3    3    0    0 -0.13046676549E+02  0.93356159336E+01 -0.42323534509E+02  0.45262150095E+02  0.10566000000E+00 0. -1.
         13    1    4    4    0    0  0.17131476024E+01 -0.10918598147E+01  0.44531960775E+01  0.48958300525E+01  0.10566000000E+00 0. -1.
        -13    1    4    4    0    0  0.27581922942E+01 -0.11151122164E+01  0.59856307106E+01  0.66850608842E+01  0.10566000000E+00 0.  1.
        -14    1    4    4    0    0  0.85753366523E+01 -0.71286439026E+01  0.23752076271E+02  0.26239571067E+02  0.00000000000E+00 0.  1.
<mgrwt>
<rscale>  0 0.82683618E+02</rscale>
<asrwt>0</asrwt>
<pdfrwt beam="1">  1        1 0.70165572E-02 0.82683618E+02</pdfrwt>
<pdfrwt beam="2">  1       -2 0.57653831E-02 0.82683618E+02</pdfrwt>
<totfact> 0.11821649E+05</totfact>
</mgrwt>
</event>
<event>
 8    1  0.1241100E-020  0.7233388E+02  0.7818608E-02  0.1352332E+00
          1   -1    0    0  501    0  0.00000000000E+00  0.00000000000E+00  0.22317353141E+01  0.22317410051E+01  0.50400000000E-02 0. -1.
         -2   -1    0    0    0  501 -0.00000000000E+00 -0.00000000000E+00 -0.58611152251E+03  0.58611152252E+03  0.25500000000E-02 0.  1.
        -24    2    1    2    0    0 -0.88817841970E-15  0.71054273576E-14 -0.58387978720E+03  0.58834326352E+03  0.72333877501E+02 0.  0.
         66    2    3    3    0    0 -0.33165425749E+01  0.33262541808E+02 -0.40387795222E+03  0.40526386025E+03  0.19999988525E+01 0.  0.
         13    1    3    3    0    0  0.33165425749E+01 -0.33262541808E+02 -0.18000183498E+03  0.18307940327E+03  0.10566000000E+00 0. -1.
         13    1    4    4    0    0 -0.15090890440E+00  0.23374279939E+00 -0.39841806410E+01  0.39952807924E+01  0.10566000000E+00 0.  1.
        -13    1    4    4    0    0 -0.95030974399E+00  0.11232453871E+02 -0.13958670845E+03  0.14004117769E+03  0.10566000000E+00 0.  1.
         14    1    4    4    0    0 -0.22153239265E+01  0.21796345138E+02 -0.26030706313E+03  0.26122740177E+03  0.00000000000E+00 0. -1.
<mgrwt>
<rscale>  0 0.72333878E+02</rscale>
<asrwt>0</asrwt>
<pdfrwt beam="1">  1        1 0.34334480E-03 0.72333878E+02</pdfrwt>
<pdfrwt beam="2">  1       -2 0.90170881E-01 0.72333878E+02</pdfrwt>
<totfact> 0.57443567E+04</totfact>
</mgrwt>
</event>
<event>
 8    1  0.1241100E-020  0.8034262E+02  0.7818608E-02  0.1328082E+00
         -2   -1    0    0    0  501 -0.00000000000E+00  0.00000000000E+00  0.84514085801E+02  0.84514085839E+02  0.25500000000E-02 0.  1.
          1   -1    0    0  501    0  0.00000000000E+00 -0.00000000000E+00 -0.19094260187E+02  0.19094260853E+02  0.50400000000E-02 0. -1.
        -24    2    1    2    0    0  0.35527136788E-14  0.00000000000E+00  0.65419825613E+02  0.10360834669E+03  0.80342615846E+02 0.  0.
         66    2    3    3    0    0 -0.30782478895E+02 -0.17759607035E+02  0.86468907314E+01  0.36629678833E+02  0.20000007824E+01 0.  0.
         13    1    3    3    0    0  0.30782478895E+02  0.17759607035E+02  0.56772934882E+02  0.66978667859E+02  0.10566000000E+00 0. -1.
         13    1    4    4    0    0 -0.67953504921E+01 -0.35700217840E+01  0.24455689188E+01  0.80569110223E+01  0.10566000000E+00 0. -1.
        -13    1    4    4    0    0 -0.99550937218E+01 -0.58940047834E+01  0.31264647092E+01  0.11984537079E+02  0.10566000000E+00 0.  1.
        -14    1    4    4    0    0 -0.14032034681E+02 -0.82955804672E+01  0.30748571034E+01  0.16588230731E+02  0.00000000000E+00 0.  1.
<mgrwt>
<rscale>  0 0.80342616E+02</rscale>
<asrwt>0</asrwt>
<pdfrwt beam="1">  1        1 0.29375785E-02 0.80342616E+02</pdfrwt>
<pdfrwt beam="2">  1       -2 0.13002167E-01 0.80342616E+02</pdfrwt>
<totfact> 0.10922367E+05</totfact>
</mgrwt>
</event>
<event>
 8    1  0.1241100E-020  0.7971405E+02  0.7818608E-02  0.1329865E+00
         -2   -1    0    0    0  501 -0.00000000000E+00  0.00000000000E+00  0.15056067428E+03  0.15056067430E+03  0.25500000000E-02 0.  1.
          1   -1    0    0  501    0  0.00000000000E+00 -0.00000000000E+00 -0.10551110341E+02  0.10551111545E+02  0.50400000000E-02 0. -1.
        -24    2    1    2    0    0  0.17763568394E-14  0.00000000000E+00  0.14000956394E+03  0.16111178585E+03  0.79714048601E+02 0.  0.
         66    2    3    3    0    0  0.15342237431E+02 -0.99720417426E+01  0.14155621343E+03  0.14274798573E+03  0.20000008526E+01 0.  0.
         13    1    3    3    0    0 -0.15342237431E+02  0.99720417426E+01 -0.15466494948E+01  0.18363800113E+02  0.10566000000E+00 0. -1.
         13    1    4    4    0    0  0.18738716423E+01 -0.15428992892E+01  0.15593328339E+02  0.15781476036E+02  0.10566000000E+00 0. -1.
        -13    1    4    4    0    0  0.24123579420E+01 -0.13073530809E+01  0.18735854665E+02  0.18935998969E+02  0.10566000000E+00 0.  1.
         14    1    4    4    0    0  0.11056007847E+02 -0.71217893725E+01  0.10722703043E+03  0.10803051073E+03  0.00000000000E+00 0. -1.
<mgrwt>
<rscale>  0 0.79714049E+02</rscale>
<asrwt>0</asrwt>
<pdfrwt beam="1">  1        1 0.16232479E-02 0.79714049E+02</pdfrwt>
<pdfrwt beam="2">  1       -2 0.23163180E-01 0.79714049E+02</pdfrwt>
<totfact> 0.95268174E+04</totfact>
</mgrwt>
</event>
<event>
 8    1  0.1241100E-020  0.7439569E+02  0.7818608E-02  0.1345753E+00
         -2   -1    0    0    0  501 -0.00000000000E+00  0.00000000000E+00  0.34605073246E+03  0.34605073247E+03  0.25500000000E-02 0.  1.
          1   -1    0    0  501    0  0.00000000000E+00 -0.00000000000E+00 -0.39984863471E+01  0.39984895235E+01  0.50400000000E-02 0. -1.
        -24    2    1    2    0    0  0.00000000000E+00 -0.35527136788E-14  0.34205224611E+03  0.35004922199E+03  0.74395690379E+02 0.  0.
         66    2    3    3    0    0  0.19164363995E+02 -0.17798985004E+02  0.29542444215E+03  0.29658671194E+03  0.19999916489E+01 0.  0.
         13    1    3    3    0    0 -0.19164363995E+02  0.17798985004E+02  0.46627803964E+02  0.53462510052E+02  0.10566000000E+00 0. -1.
         13    1    4    4    0    0  0.16654007022E+02 -0.15776562389E+02  0.26405749481E+03  0.26505212242E+03  0.10566000000E+00 0. -1.
        -13    1    4    4    0    0  0.16847505174E+01 -0.15680918079E+01  0.22600379347E+02  0.22717517622E+02  0.10566000000E+00 0.  1.
         14    1    4    4    0    0  0.82560645517E+00 -0.45433080642E+00  0.87665679851E+01  0.88170718914E+01  0.00000000000E+00 0. -1.
<mgrwt>
<rscale>  0 0.74395690E+02</rscale>
<asrwt>0</asrwt>
<pdfrwt beam="1">  1        1 0.61515200E-03 0.74395690E+02</pdfrwt>
<pdfrwt beam="2">  1       -2 0.53238574E-01 0.74395690E+02</pdfrwt>
<totfact> 0.78080916E+04</totfact>
</mgrwt>
</event>
<event>
 8    1  0.1241100E-020  0.8153086E+02  0.7818608E-02  0.1324762E+00
         -2   -1    0    0    0  501 -0.00000000000E+00  0.00000000000E+00  0.13916693835E+02  0.13916694069E+02  0.25500000000E-02 0.  1.
          1   -1    0    0  501    0  0.00000000000E+00 -0.00000000000E+00 -0.11941199823E+03  0.11941199834E+03  0.50400000000E-02 0. -1.
        -24    2    1    2    0    0  0.00000000000E+00  0.00000000000E+00 -0.10549530440E+03  0.13332869241E+03  0.81530859000E+02 0.  0.
         66    2    3    3    0    0  0.30917272126E+02  0.90550939373E+01 -0.11996524170E+02  0.34435287623E+02  0.19999999030E+01 0.  0.
         13    1    3    3    0    0 -0.30917272126E+02 -0.90550939373E+01 -0.93498780228E+02  0.98893404786E+02  0.10566000000E+00 0. -1.
         13    1    4    4    0    0  0.56766592232E+00  0.41394585508E+00 -0.30206705611E+00  0.77201315551E+00  0.10566000000E+00 0. -1.
        -13    1    4    4    0    0  0.24487619414E+02  0.69233158418E+01 -0.90860312470E+01  0.27021157167E+02  0.10566000000E+00 0.  1.
        -14    1    4    4    0    0  0.58619867896E+01  0.17178322404E+01 -0.26084258669E+01  0.66421173003E+01  0.00000000000E+00 0.  1.
<mgrwt>
<rscale>  0 0.81530859E+02</rscale>
<asrwt>0</asrwt>
<pdfrwt beam="1">  1        1 0.18371076E-01 0.81530859E+02</pdfrwt>
<pdfrwt beam="2">  1       -2 0.21410299E-02 0.81530859E+02</pdfrwt>
<totfact> 0.14399661E+05</totfact>
</mgrwt>
</event>
<event>
 8    1  0.1241100E-020  0.7534914E+02  0.7818608E-02  0.1342793E+00
          1   -1    0    0  501    0  0.00000000000E+00  0.00000000000E+00  0.78080991685E+02  0.78080991847E+02  0.50400000000E-02 0. -1.
         -2   -1    0    0    0  501 -0.00000000000E+00 -0.00000000000E+00 -0.18178215515E+02  0.18178215694E+02  0.25500000000E-02 0.  1.
        -24    2    1    2    0    0  0.00000000000E+00  0.00000000000E+00  0.59902776170E+02  0.96259207541E+02  0.75349136980E+02 0.  0.
         66    2    3    3    0    0  0.32109337774E+02  0.78086290183E+01  0.69282075983E+01  0.33822837221E+02  0.19999994276E+01 0.  0.
         13    1    3    3    0    0 -0.32109337774E+02 -0.78086290183E+01  0.52974568571E+02  0.62436370320E+02  0.10566000000E+00 0. -1.
         13    1    4    4    0    0  0.59353044088E+01  0.84048521947E+00  0.13159370175E+01  0.61381681387E+01  0.10566000000E+00 0. -1.
        -13    1    4    4    0    0  0.73315028045E+01  0.14680754412E+01  0.17386239371E+01  0.76772492537E+01  0.10566000000E+00 0.  1.
         14    1    4    4    0    0  0.18842530560E+02  0.55000683577E+01  0.38736466437E+01  0.20007419828E+02  0.00000000000E+00 0. -1.
<mgrwt>
<rscale>  0 0.75349137E+02</rscale>
<asrwt>0</asrwt>
<pdfrwt beam="1">  1        1 0.12012460E-01 0.75349137E+02</pdfrwt>
<pdfrwt beam="2">  1       -2 0.27966486E-02 0.75349137E+02</pdfrwt>
<totfact> 0.16605971E+05</totfact>
</mgrwt>
</event>
<event>
 8    1  0.1241100E-020  0.7687103E+02  0.7818608E-02  0.1338173E+00
         -2   -1    0    0    0  501 -0.00000000000E+00  0.00000000000E+00  0.66748690718E+02  0.66748690766E+02  0.25500000000E-02 0.  1.
          1   -1    0    0  501    0  0.00000000000E+00 -0.00000000000E+00 -0.22132098710E+02  0.22132099284E+02  0.50400000000E-02 0. -1.
        -24    2    1    2    0    0  0.00000000000E+00  0.00000000000E+00  0.44616592007E+02  0.88880790051E+02  0.76871025476E+02 0.  0.
         66    2    3    3    0    0  0.35689888510E+02 -0.33521709150E+01  0.63741094461E+01  0.36464153110E+02  0.19999997585E+01 0.  0.
         13    1    3    3    0    0 -0.35689888510E+02  0.33521709150E+01  0.38242482561E+02  0.52416636941E+02  0.10566000000E+00 0. -1.
         13    1    4    4    0    0  0.26061878315E+02 -0.25661993215E+01  0.39658932922E+01  0.26486720332E+02  0.10566000000E+00 0. -1.
        -13    1    4    4    0    0  0.79414098167E+01 -0.89159231375E+00  0.19479870932E+01  0.82259798493E+01  0.10566000000E+00 0.  1.
         14    1    4    4    0    0  0.16866003784E+01  0.10562072032E+00  0.46022906059E+00  0.17514529287E+01  0.00000000000E+00 0. -1.
<mgrwt>
<rscale>  0 0.76871025E+02</rscale>
<asrwt>0</asrwt>
<pdfrwt beam="1">  1        1 0.34049383E-02 0.76871025E+02</pdfrwt>
<pdfrwt beam="2">  1       -2 0.10269029E-01 0.76871025E+02</pdfrwt>
<totfact> 0.12835159E+05</totfact>
</mgrwt>
</event>
<event>
 8    1  0.1241100E-020  0.7640063E+02  0.7818608E-02  0.1339588E+00
         -2   -1    0    0    0  501 -0.00000000000E+00  0.00000000000E+00  0.28391353227E+03  0.28391353228E+03  0.25500000000E-02 0.  1.
          1   -1    0    0  501    0  0.00000000000E+00 -0.00000000000E+00 -0.51398178184E+01  0.51398202895E+01  0.50400000000E-02 0. -1.
        -24    2    1    2    0    0  0.00000000000E+00  0.00000000000E+00  0.27877371445E+03  0.28905335257E+03  0.76400633265E+02 0.  0.
         66    2    3    3    0    0 -0.24985135553E+02 -0.26605100615E+02  0.97153620577E+02  0.10380228499E+03  0.20000000827E+01 0.  0.
         13    1    3    3    0    0  0.24985135553E+02  0.26605100615E+02  0.18162009387E+03  0.18525106758E+03  0.10566000000E+00 0. -1.
         13    1    4    4    0    0 -0.30420188536E+01 -0.28448658119E+01  0.12281735023E+02  0.12969168031E+02  0.10566000000E+00 0. -1.
        -13    1    4    4    0    0 -0.92666782812E+01 -0.94317934131E+01  0.35804413692E+02  0.38168013535E+02  0.10566000000E+00 0.  1.
         14    1    4    4    0    0 -0.12676438418E+02 -0.14328441390E+02  0.49067471862E+02  0.52665103423E+02  0.00000000000E+00 0. -1.
<mgrwt>
<rscale>  0 0.76400633E+02</rscale>
<asrwt>0</asrwt>
<pdfrwt beam="1">  1        1 0.79074155E-03 0.76400633E+02</pdfrwt>
<pdfrwt beam="2">  1       -2 0.43678997E-01 0.76400633E+02</pdfrwt>
<totfact> 0.81488739E+04</totfact>
</mgrwt>
</event>
<event>
 8    1  0.1241100E-020  0.7949555E+02  0.7818608E-02  0.1330489E+00
         -2   -1    0    0    0  501 -0.00000000000E+00  0.00000000000E+00  0.96668401406E+02  0.96668401440E+02  0.25500000000E-02 0.  1.
          1   -1    0    0  501    0  0.00000000000E+00 -0.00000000000E+00 -0.16343351609E+02  0.16343352386E+02  0.50400000000E-02 0. -1.
        -24    2    1    2    0    0  0.00000000000E+00  0.00000000000E+00  0.80325049797E+02  0.11301175383E+03  0.79495552566E+02 0.  0.
         66    2    3    3    0    0 -0.79747310926E+00 -0.28156274567E+02  0.80004888205E+02  0.84842170436E+02  0.19999966863E+01 0.  0.
         13    1    3    3    0    0  0.79747310926E+00  0.28156274567E+02  0.32016159248E+00  0.28169583389E+02  0.10566000000E+00 0. -1.
         13    1    4    4    0    0 -0.57316736128E+00 -0.80576260127E+01  0.23365371593E+02  0.24722572914E+02  0.10566000000E+00 0. -1.
        -13    1    4    4    0    0 -0.57225240557E+00 -0.18854600164E+02  0.52781832978E+02  0.56051373549E+02  0.10566000000E+00 0.  1.
        -14    1    4    4    0    0  0.34794665758E+00 -0.12440483905E+01  0.38576836339E+01  0.40682239729E+01  0.00000000000E+00 0.  1.
<mgrwt>
<rscale>  0 0.79495553E+02</rscale>
<asrwt>0</asrwt>
<pdfrwt beam="1">  1        1 0.25143618E-02 0.79495553E+02</pdfrwt>
<pdfrwt beam="2">  1       -2 0.14872062E-01 0.79495553E+02</pdfrwt>
<totfact> 0.10876027E+05</totfact>
</mgrwt>
</event>
<event>
 8    1  0.1241100E-020  0.7960575E+02  0.7818608E-02  0.1330174E+00
          1   -1    0    0  501    0  0.00000000000E+00  0.00000000000E+00  0.15740198397E+02  0.15740199203E+02  0.50400000000E-02 0. -1.
         -2   -1    0    0    0  501 -0.00000000000E+00 -0.00000000000E+00 -0.10065114323E+03  0.10065114326E+03  0.25500000000E-02 0.  1.
        -24    2    1    2    0    0  0.35527136788E-14  0.00000000000E+00 -0.84910944831E+02  0.11639134246E+03  0.79605753864E+02 0.  0.
         66    2    3    3    0    0 -0.21878435410E+02  0.37797639198E+01 -0.90738300632E+02  0.93436565380E+02  0.19999993223E+01 0.  0.
         13    1    3    3    0    0  0.21878435410E+02 -0.37797639198E+01  0.58273558005E+01  0.22954777083E+02  0.10566000000E+00 0. -1.
         13    1    4    4    0    0 -0.57512392217E+01  0.49148804336E+00 -0.20735557559E+02  0.21524238068E+02  0.10566000000E+00 0. -1.
        -13    1    4    4    0    0 -0.13671792964E+02  0.28434319125E+01 -0.58990789500E+02  0.60621179779E+02  0.10566000000E+00 0.  1.
         14    1    4    4    0    0 -0.24554032242E+01  0.44484396393E+00 -0.11011953572E+02  0.11291147533E+02  0.00000000000E+00 0. -1.
<mgrwt>
<rscale>  0 0.79605754E+02</rscale>
<asrwt>0</asrwt>
<pdfrwt beam="1">  1        1 0.24215691E-02 0.79605754E+02</pdfrwt>
<pdfrwt beam="2">  1       -2 0.15484791E-01 0.79605754E+02</pdfrwt>
<totfact> 0.10730484E+05</totfact>
</mgrwt>
</event>
<event>
 8    1  0.1241100E-020  0.7982235E+02  0.7818608E-02  0.1329556E+00
         -2   -1    0    0    0  501 -0.00000000000E+00  0.00000000000E+00  0.52379410115E+01  0.52379416322E+01  0.25500000000E-02 0.  1.
          1   -1    0    0  501    0  0.00000000000E+00 -0.00000000000E+00 -0.30410840485E+03  0.30410840489E+03  0.50400000000E-02 0. -1.
        -24    2    1    2    0    0  0.00000000000E+00  0.00000000000E+00 -0.29887046384E+03  0.30934634653E+03  0.79822352463E+02 0.  0.
         66    2    3    3    0    0  0.60631092733E+01 -0.38144637147E+02 -0.11094486376E+03  0.11749271230E+03  0.20000027816E+01 0.  0.
         13    1    3    3    0    0 -0.60631092733E+01  0.38144637147E+02 -0.18792560008E+03  0.19185363423E+03  0.10566000000E+00 0. -1.
         13    1    4    4    0    0  0.33919485374E+00 -0.18580454522E+01 -0.63876671912E+01  0.66618947929E+01  0.10566000000E+00 0. -1.
        -13    1    4    4    0    0  0.18301951142E+01 -0.14119056318E+02 -0.42067810499E+02  0.44411813853E+02  0.10566000000E+00 0.  1.
        -14    1    4    4    0    0  0.38937193053E+01 -0.22167535376E+02 -0.62489386068E+02  0.66419003649E+02  0.00000000000E+00 0.  1.
<mgrwt>
<rscale>  0 0.79822352E+02</rscale>
<asrwt>0</asrwt>
<pdfrwt beam="1">  1        1 0.46785895E-01 0.79822352E+02</pdfrwt>
<pdfrwt beam="2">  1       -2 0.80583737E-03 0.79822352E+02</pdfrwt>
<totfact> 0.18194577E+05</totfact>
</mgrwt>
</event>
<event>
 8    1  0.1241100E-020  0.7928824E+02  0.7818608E-02  0.1331084E+00
          1   -1    0    0  501    0  0.00000000000E+00  0.00000000000E+00  0.14308208876E+03  0.14308208885E+03  0.50400000000E-02 0. -1.
         -2   -1    0    0    0  501 -0.00000000000E+00 -0.00000000000E+00 -0.10984296778E+02  0.10984297074E+02  0.25500000000E-02 0.  1.
        -24    2    1    2    0    0  0.00000000000E+00  0.00000000000E+00  0.13209779198E+03  0.15406638592E+03  0.79288237619E+02 0.  0.
         66    2    3    3    0    0 -0.33071094068E+02  0.68874393424E+01  0.25866992137E+02  0.42593841845E+02  0.19999993441E+01 0.  0.
         13    1    3    3    0    0  0.33071094068E+02 -0.68874393424E+01  0.10623079984E+03  0.11147254408E+03  0.10566000000E+00 0. -1.
         13    1    4    4    0    0 -0.95351377343E+01  0.16936845640E+01  0.76871414630E+01  0.12364898986E+02  0.10566000000E+00 0. -1.
        -13    1    4    4    0    0 -0.13616580419E+01  0.57195126443E+00  0.83464387293E+00  0.16997162417E+01  0.10566000000E+00 0.  1.
        -14    1    4    4    0    0 -0.22174298291E+02  0.46218035140E+01  0.17345206801E+02  0.28529226618E+02  0.00000000000E+00 0.  1.
<mgrwt>
<rscale>  0 0.79288238E+02</rscale>
<asrwt>0</asrwt>
<pdfrwt beam="1">  1        1 0.22012629E-01 0.79288238E+02</pdfrwt>
<pdfrwt beam="2">  1       -2 0.16898919E-02 0.79288238E+02</pdfrwt>
<totfact> 0.16030652E+05</totfact>
</mgrwt>
</event>
<event>
 8    1  0.1241100E-020  0.7444517E+02  0.7818608E-02  0.1345598E+00
          1   -1    0    0  501    0  0.00000000000E+00  0.00000000000E+00  0.71857411042E+02  0.71857411219E+02  0.50400000000E-02 0. -1.
         -2   -1    0    0    0  501 -0.00000000000E+00 -0.00000000000E+00 -0.19281532156E+02  0.19281532325E+02  0.25500000000E-02 0.  1.
        -24    2    1    2    0    0  0.00000000000E+00  0.00000000000E+00  0.52575878885E+02  0.91138943543E+02  0.74445174388E+02 0.  0.
         66    2    3    3    0    0  0.31290823545E+01  0.25570916298E+02 -0.65396635379E+01  0.26653895379E+02  0.20000057455E+01 0.  0.
         13    1    3    3    0    0 -0.31290823545E+01 -0.25570916298E+02  0.59115542423E+02  0.64485048164E+02  0.10566000000E+00 0. -1.
         13    1    4    4    0    0 -0.71712966821E-01  0.19108312413E+01 -0.34912420695E+00  0.19466562433E+01  0.10566000000E+00 0. -1.
        -13    1    4    4    0    0  0.18767807173E+01  0.11068924963E+02 -0.22809359071E+01  0.11456755140E+02  0.10566000000E+00 0.  1.
        -14    1    4    4    0    0  0.13240146041E+01  0.12591160094E+02 -0.39096034238E+01  0.13250483995E+02  0.00000000000E+00 0.  1.
<mgrwt>
<rscale>  0 0.74445174E+02</rscale>
<asrwt>0</asrwt>
<pdfrwt beam="1">  1        1 0.11054986E-01 0.74445174E+02</pdfrwt>
<pdfrwt beam="2">  1       -2 0.29663896E-02 0.74445174E+02</pdfrwt>
<totfact> 0.16939486E+05</totfact>
</mgrwt>
</event>
<event>
 8    1  0.1241100E-020  0.8230797E+02  0.7818608E-02  0.1322626E+00
          1   -1    0    0  501    0  0.00000000000E+00  0.00000000000E+00  0.49738313270E+02  0.49738313525E+02  0.50400000000E-02 0. -1.
         -2   -1    0    0    0  501 -0.00000000000E+00 -0.00000000000E+00 -0.34051223859E+02  0.34051223954E+02  0.25500000000E-02 0.  1.
        -24    2    1    2    0    0  0.00000000000E+00  0.00000000000E+00  0.15687089411E+02  0.83789537479E+02  0.82307969340E+02 0.  0.
         66    2    3    3    0    0 -0.24992705397E+02 -0.44142098634E+01 -0.25099914612E+02  0.35750892275E+02  0.20000032931E+01 0.  0.
         13    1    3    3    0    0  0.24992705397E+02  0.44142098634E+01  0.40787004024E+02  0.48038645204E+02  0.10566000000E+00 0. -1.
         13    1    4    4    0    0 -0.11089849333E+01 -0.33903378992E+00 -0.16036453203E+01  0.19818258859E+01  0.10566000000E+00 0. -1.
        -13    1    4    4    0    0 -0.10492403640E+02 -0.14390789507E+01 -0.10855578710E+02  0.15166286149E+02  0.10566000000E+00 0.  1.
         14    1    4    4    0    0 -0.13391316823E+02 -0.26360971228E+01 -0.12640690582E+02  0.18602780241E+02  0.00000000000E+00 0. -1.
<mgrwt>
<rscale>  0 0.82307969E+02</rscale>
<asrwt>0</asrwt>
<pdfrwt beam="1">  1        1 0.76520482E-02 0.82307969E+02</pdfrwt>
<pdfrwt beam="2">  1       -2 0.52386498E-02 0.82307969E+02</pdfrwt>
<totfact> 0.12143663E+05</totfact>
</mgrwt>
</event>
<event>
 8    1  0.1241100E-020  0.7944225E+02  0.7818608E-02  0.1330642E+00
         -2   -1    0    0    0  501 -0.00000000000E+00  0.00000000000E+00  0.60084708965E+03  0.60084708966E+03  0.25500000000E-02 0.  1.
          1   -1    0    0  501    0  0.00000000000E+00 -0.00000000000E+00 -0.26259033437E+01  0.26259081805E+01  0.50400000000E-02 0. -1.
        -24    2    1    2    0    0 -0.88817841970E-15  0.35527136788E-14  0.59822118631E+03  0.60347299784E+03  0.79442251802E+02 0.  0.
         66    2    3    3    0    0 -0.55178050988E+01  0.21549705065E+02  0.54904904902E+03  0.54950313392E+03  0.19999999040E+01 0.  0.
         13    1    3    3    0    0  0.55178050988E+01 -0.21549705065E+02  0.49172137288E+02  0.53969863915E+02  0.10566000000E+00 0. -1.
         13    1    4    4    0    0 -0.36076769630E+01  0.15539053392E+02  0.39970679222E+03  0.40002500975E+03  0.10566000000E+00 0. -1.
        -13    1    4    4    0    0 -0.13087014613E+01  0.44754675820E+01  0.11861483041E+03  0.11870649379E+03  0.10566000000E+00 0.  1.
         14    1    4    4    0    0 -0.60142667447E+00  0.15351840909E+01  0.30727426391E+02  0.30771630390E+02  0.00000000000E+00 0. -1.
<mgrwt>
<rscale>  0 0.79442252E+02</rscale>
<asrwt>0</asrwt>
<pdfrwt beam="1">  1        1 0.40398476E-03 0.79442252E+02</pdfrwt>
<pdfrwt beam="2">  1       -2 0.92438183E-01 0.79442252E+02</pdfrwt>
<totfact> 0.44205915E+04</totfact>
</mgrwt>
</event>
<event>
 8    1  0.1241100E-020  0.7904200E+02  0.7818608E-02  0.1331792E+00
          1   -1    0    0  501    0  0.00000000000E+00  0.00000000000E+00  0.33215878023E+02  0.33215878406E+02  0.50400000000E-02 0. -1.
         -2   -1    0    0    0  501 -0.00000000000E+00 -0.00000000000E+00 -0.47022973075E+02  0.47022973144E+02  0.25500000000E-02 0.  1.
        -24    2    1    2    0    0  0.00000000000E+00  0.00000000000E+00 -0.13807095052E+02  0.80238851550E+02  0.79041997851E+02 0.  0.
         66    2    3    3    0    0 -0.89692009629E+01  0.38367026185E+02 -0.41410369977E+01  0.39668922951E+02  0.19999991190E+01 0.  0.
         13    1    3    3    0    0  0.89692009629E+01 -0.38367026185E+02 -0.96660580539E+01  0.40569928599E+02  0.10566000000E+00 0. -1.
         13    1    4    4    0    0 -0.36174865689E+01  0.13153537393E+02 -0.19018044472E+01  0.13774243326E+02  0.10566000000E+00 0. -1.
        -13    1    4    4    0    0 -0.24072459339E+01  0.13830160063E+02 -0.13433019562E+01  0.14102616231E+02  0.10566000000E+00 0.  1.
        -14    1    4    4    0    0 -0.29444684601E+01  0.11383328729E+02 -0.89593059430E+00  0.11792063394E+02  0.00000000000E+00 0.  1.
<mgrwt>
<rscale>  0 0.79041998E+02</rscale>
<asrwt>0</asrwt>
<pdfrwt beam="1">  1        1 0.51101352E-02 0.79041998E+02</pdfrwt>
<pdfrwt beam="2">  1       -2 0.72343035E-02 0.79041998E+02</pdfrwt>
<totfact> 0.12740760E+05</totfact>
</mgrwt>
</event>
<event>
 8    1  0.1241100E-020  0.7800546E+02  0.7818608E-02  0.1334809E+00
         -2   -1    0    0    0  501 -0.00000000000E+00  0.00000000000E+00  0.89946219909E+02  0.89946219946E+02  0.25500000000E-02 0.  1.
          1   -1    0    0  501    0  0.00000000000E+00 -0.00000000000E+00 -0.16912473366E+02  0.16912474117E+02  0.50400000000E-02 0. -1.
        -24    2    1    2    0    0  0.00000000000E+00  0.00000000000E+00  0.73033746544E+02  0.10685869406E+03  0.78005463671E+02 0.  0.
         66    2    3    3    0    0 -0.22989308628E+02  0.16858961767E+02  0.72951871027E+02  0.78349909966E+02  0.20000005418E+01 0.  0.
         13    1    3    3    0    0  0.22989308628E+02 -0.16858961767E+02  0.81875516211E-01  0.28508784097E+02  0.10566000000E+00 0. -1.
         13    1    4    4    0    0 -0.96346076062E+01  0.76325498890E+01  0.33365168731E+02  0.35557377997E+02  0.10566000000E+00 0. -1.
        -13    1    4    4    0    0 -0.11962593589E+02  0.79830699046E+01  0.35268042327E+02  0.38087780509E+02  0.10566000000E+00 0.  1.
         14    1    4    4    0    0 -0.13921074320E+01  0.12433419734E+01  0.43186599701E+01  0.47047514602E+01  0.00000000000E+00 0. -1.
<mgrwt>
<rscale>  0 0.78005464E+02</rscale>
<asrwt>0</asrwt>
<pdfrwt beam="1">  1        1 0.26019190E-02 0.78005464E+02</pdfrwt>
<pdfrwt beam="2">  1       -2 0.13837880E-01 0.78005464E+02</pdfrwt>
<totfact> 0.11611253E+05</totfact>
</mgrwt>
</event>
<event>
 8    1  0.1241100E-020  0.7885262E+02  0.7818608E-02  0.1332339E+00
         -2   -1    0    0    0  501 -0.00000000000E+00  0.00000000000E+00  0.23956940604E+02  0.23956940740E+02  0.25500000000E-02 0.  1.
          1   -1    0    0  501    0  0.00000000000E+00 -0.00000000000E+00 -0.64884494330E+02  0.64884494526E+02  0.50400000000E-02 0. -1.
        -24    2    1    2    0    0  0.00000000000E+00  0.00000000000E+00 -0.40927553726E+02  0.88841435266E+02  0.78852621809E+02 0.  0.
         66    2    3    3    0    0  0.20734021472E+02 -0.38171497836E+01  0.17025682204E+02  0.27172488480E+02  0.19999992014E+01 0.  0.
         13    1    3    3    0    0 -0.20734021472E+02  0.38171497836E+01 -0.57953235931E+02  0.61668946786E+02  0.10566000000E+00 0. -1.
         13    1    4    4    0    0  0.53667036581E-01  0.23301117307E-01  0.78545823508E-01  0.14407142282E+00  0.10566000000E+00 0.  1.
        -13    1    4    4    0    0  0.17873623559E+02 -0.34414379634E+01  0.15036914501E+02  0.23609952904E+02  0.10566000000E+00 0.  1.
        -14    1    4    4    0    0  0.28067308762E+01 -0.39901293751E+00  0.19102218800E+01  0.34184641532E+01  0.00000000000E+00 0.  1.
<mgrwt>
<rscale>  0 0.78852622E+02</rscale>
<asrwt>0</asrwt>
<pdfrwt beam="1">  1        1 0.99822298E-02 0.78852622E+02</pdfrwt>
<pdfrwt beam="2">  1       -2 0.36856832E-02 0.78852622E+02</pdfrwt>
<totfact> 0.14259802E+05</totfact>
</mgrwt>
</event>
<event>
 8    1  0.1241100E-020  0.7228197E+02  0.7818608E-02  0.1352501E+00
          1   -1    0    0  501    0  0.00000000000E+00  0.00000000000E+00  0.32221435394E+02  0.32221435788E+02  0.50400000000E-02 0. -1.
         -2   -1    0    0    0  501 -0.00000000000E+00 -0.00000000000E+00 -0.40537323000E+02  0.40537323080E+02  0.25500000000E-02 0.  1.
        -24    2    1    2    0    0  0.00000000000E+00 -0.88817841970E-15 -0.83158876066E+01  0.72758758868E+02  0.72281968743E+02 0.  0.
         66    2    3    3    0    0 -0.17882971343E+02  0.67866727300E+01 -0.34994959662E+02  0.39931275862E+02  0.19999998592E+01 0.  0.
         13    1    3    3    0    0  0.17882971343E+02 -0.67866727300E+01  0.26679072055E+02  0.32827483007E+02  0.10566000000E+00 0. -1.
         13    1    4    4    0    0 -0.15747698678E+01  0.10425499264E+01 -0.30107116014E+01  0.35556094932E+01  0.10566000000E+00 0.  1.
        -13    1    4    4    0    0 -0.19081389846E+01  0.31607373862E+00 -0.35533062661E+01  0.40469799170E+01  0.10566000000E+00 0. -1.
        -14    1    4    4    0    0 -0.14400062490E+02  0.54280490650E+01 -0.28430941794E+02  0.32328686452E+02  0.00000000000E+00 0.  1.
<mgrwt>
<rscale>  0 0.72281969E+02</rscale>
<asrwt>0</asrwt>
<pdfrwt beam="1">  1        1 0.49571440E-02 0.72281969E+02</pdfrwt>
<pdfrwt beam="2">  1       -2 0.62365112E-02 0.72281969E+02</pdfrwt>
<totfact> 0.16314300E+05</totfact>
</mgrwt>
</event>
<event>
 8    1  0.1241100E-020  0.7908857E+02  0.7818608E-02  0.1331658E+00
          1   -1    0    0  501    0  0.00000000000E+00  0.00000000000E+00  0.73906519557E+02  0.73906519729E+02  0.50400000000E-02 0. -1.
         -2   -1    0    0    0  501 -0.00000000000E+00 -0.00000000000E+00 -0.21158492140E+02  0.21158492294E+02  0.25500000000E-02 0.  1.
        -24    2    1    2    0    0 -0.35527136788E-14  0.35527136788E-14  0.52748027417E+02  0.95065012023E+02  0.79088571327E+02 0.  0.
         66    2    3    3    0    0 -0.19027304377E+02  0.30997839649E+02  0.78144300797E+01  0.37255465161E+02  0.19999980285E+01 0.  0.
         13    1    3    3    0    0  0.19027304377E+02 -0.30997839649E+02  0.44933597337E+02  0.57809546863E+02  0.10566000000E+00 0. -1.
         13    1    4    4    0    0 -0.11193448252E+01  0.22585863913E+01  0.20010442151E+00  0.25308795190E+01  0.10566000000E+00 0. -1.
        -13    1    4    4    0    0 -0.61512719938E+01  0.10664501325E+02  0.30752435191E+01  0.12690075744E+02  0.10566000000E+00 0.  1.
        -14    1    4    4    0    0 -0.11756687558E+02  0.18074751932E+02  0.45390821391E+01  0.22034509897E+02  0.00000000000E+00 0.  1.
<mgrwt>
<rscale>  0 0.79088571E+02</rscale>
<asrwt>0</asrwt>
<pdfrwt beam="1">  1        1 0.11370234E-01 0.79088571E+02</pdfrwt>
<pdfrwt beam="2">  1       -2 0.32551527E-02 0.79088571E+02</pdfrwt>
<totfact> 0.14435265E+05</totfact>
</mgrwt>
</event>
<event>
 8    1  0.1241100E-020  0.7860891E+02  0.7818608E-02  0.1333046E+00
         -2   -1    0    0    0  501 -0.00000000000E+00  0.00000000000E+00  0.17022621551E+02  0.17022621742E+02  0.25500000000E-02 0.  1.
          1   -1    0    0  501    0  0.00000000000E+00 -0.00000000000E+00 -0.90752184871E+02  0.90752185011E+02  0.50400000000E-02 0. -1.
        -24    2    1    2    0    0  0.00000000000E+00  0.00000000000E+00 -0.73729563320E+02  0.10777480675E+03  0.78608908296E+02 0.  0.
         66    2    3    3    0    0 -0.38293395263E+02 -0.87345801751E+01 -0.37433828508E+02  0.54295198105E+02  0.20000022349E+01 0.  0.
         13    1    3    3    0    0  0.38293395263E+02  0.87345801751E+01 -0.36295734812E+02  0.53479608648E+02  0.10566000000E+00 0. -1.
         13    1    4    4    0    0 -0.74500635136E+00 -0.36306086306E+00 -0.78734396923E+00  0.11480079335E+01  0.10566000000E+00 0. -1.
        -13    1    4    4    0    0 -0.24880152040E+02 -0.54529333806E+01 -0.25092901393E+02  0.35755018002E+02  0.10566000000E+00 0.  1.
        -14    1    4    4    0    0 -0.12668236872E+02 -0.29185859314E+01 -0.11553583146E+02  0.17392172170E+02  0.00000000000E+00 0.  1.
<mgrwt>
<rscale>  0 0.78608908E+02</rscale>
<asrwt>0</asrwt>
<pdfrwt beam="1">  1        1 0.13961874E-01 0.78608908E+02</pdfrwt>
<pdfrwt beam="2">  1       -2 0.26188649E-02 0.78608908E+02</pdfrwt>
<totfact> 0.15167185E+05</totfact>
</mgrwt>
</event>
<event>
 8    1  0.1241100E-020  0.7948867E+02  0.7818608E-02  0.1330509E+00
         -2   -1    0    0    0  501 -0.00000000000E+00  0.00000000000E+00  0.33079300268E+02  0.33079300366E+02  0.25500000000E-02 0.  1.
          1   -1    0    0  501    0  0.00000000000E+00 -0.00000000000E+00 -0.47752290192E+02  0.47752290458E+02  0.50400000000E-02 0. -1.
        -24    2    1    2    0    0  0.35527136788E-14  0.00000000000E+00 -0.14672989924E+02  0.80831590824E+02  0.79488674929E+02 0.  0.
         66    2    3    3    0    0  0.19165797720E+02 -0.11286862146E+02  0.26122061107E+02  0.34366890115E+02  0.20000000745E+01 0.  0.
         13    1    3    3    0    0 -0.19165797720E+02  0.11286862146E+02 -0.40795051032E+02  0.46464700710E+02  0.10566000000E+00 0. -1.
         13    1    4    4    0    0  0.11675416411E+02 -0.74954963978E+01  0.15280101791E+02  0.20639537044E+02  0.10566000000E+00 0. -1.
        -13    1    4    4    0    0  0.75009069997E+01 -0.37959651934E+01  0.10833486339E+02  0.13713079445E+02  0.10566000000E+00 0.  1.
         14    1    4    4    0    0 -0.10525690030E-01  0.45994454681E-02  0.84729778369E-02  0.14273626121E-01  0.00000000000E+00 0. -1.
<mgrwt>
<rscale>  0 0.79488675E+02</rscale>
<asrwt>0</asrwt>
<pdfrwt beam="1">  1        1 0.73465062E-02 0.79488675E+02</pdfrwt>
<pdfrwt beam="2">  1       -2 0.50891231E-02 0.79488675E+02</pdfrwt>
<totfact> 0.13297628E+05</totfact>
</mgrwt>
</event>
<event>
 8    1  0.1241100E-020  0.7737252E+02  0.7818608E-02  0.1336678E+00
          1   -1    0    0  501    0  0.00000000000E+00  0.00000000000E+00  0.65552872831E+02  0.65552873025E+02  0.50400000000E-02 0. -1.
         -2   -1    0    0    0  501 -0.00000000000E+00 -0.00000000000E+00 -0.22830834024E+02  0.22830834166E+02  0.25500000000E-02 0.  1.
        -24    2    1    2    0    0  0.00000000000E+00  0.00000000000E+00  0.42722038807E+02  0.88383707191E+02  0.77372521589E+02 0.  0.
         66    2    3    3    0    0 -0.45817097407E+01 -0.32495176311E+02 -0.19708412600E+01  0.32936495896E+02  0.19999997473E+01 0.  0.
         13    1    3    3    0    0  0.45817097407E+01  0.32495176311E+02  0.44692880067E+02  0.55447211295E+02  0.10566000000E+00 0. -1.
         13    1    4    4    0    0 -0.32756408939E-01 -0.19236913605E+01 -0.39217284773E+00  0.19663735685E+01  0.10566000000E+00 0. -1.
        -13    1    4    4    0    0 -0.26930961536E+00 -0.12872973872E+01 -0.26483830236E+00  0.13457212170E+01  0.10566000000E+00 0.  1.
        -14    1    4    4    0    0 -0.42796437164E+01 -0.29284187564E+02 -0.13138301099E+01  0.29624401111E+02  0.00000000000E+00 0.  1.
<mgrwt>
<rscale>  0 0.77372522E+02</rscale>
<asrwt>0</asrwt>
<pdfrwt beam="1">  1        1 0.10085057E-01 0.77372522E+02</pdfrwt>
<pdfrwt beam="2">  1       -2 0.35124360E-02 0.77372522E+02</pdfrwt>
<totfact> 0.15042444E+05</totfact>
</mgrwt>
</event>
<event>
 8    1  0.1241100E-020  0.8268719E+02  0.7818608E-02  0.1321594E+00
         -2   -1    0    0    0  501 -0.00000000000E+00  0.00000000000E+00  0.31952892837E+03  0.31952892838E+03  0.25500000000E-02 0.  1.
          1   -1    0    0  501    0  0.00000000000E+00 -0.00000000000E+00 -0.53494132270E+01  0.53494156013E+01  0.50400000000E-02 0. -1.
        -24    2    1    2    0    0  0.00000000000E+00  0.00000000000E+00  0.31417951515E+03  0.32487834399E+03  0.82687185541E+02 0.  0.
         66    2    3    3    0    0 -0.13746373236E+02  0.38262775363E+02  0.18612964030E+03  0.19052885806E+03  0.20000000993E+01 0.  0.
         13    1    3    3    0    0  0.13746373236E+02 -0.38262775363E+02  0.12804987485E+03  0.13434948592E+03  0.10566000000E+00 0. -1.
         13    1    4    4    0    0 -0.14847463285E+01  0.62362173917E+01  0.29501268557E+02  0.30189913705E+02  0.10566000000E+00 0. -1.
        -13    1    4    4    0    0 -0.81828478942E+01  0.21080788324E+02  0.10356597126E+03  0.10600603853E+03  0.10566000000E+00 0.  1.
         14    1    4    4    0    0 -0.40787790128E+01  0.10945769648E+02  0.53062400481E+02  0.54332905832E+02  0.00000000000E+00 0. -1.
<mgrwt>
<rscale>  0 0.82687186E+02</rscale>
<asrwt>0</asrwt>
<pdfrwt beam="1">  1        1 0.82298687E-03 0.82687186E+02</pdfrwt>
<pdfrwt beam="2">  1       -2 0.49158295E-01 0.82687186E+02</pdfrwt>
<totfact> 0.62289699E+04</totfact>
</mgrwt>
</event>
<event>
 8    1  0.1241100E-020  0.8040889E+02  0.7818608E-02  0.1327895E+00
         -2   -1    0    0    0  501 -0.00000000000E+00  0.00000000000E+00  0.37649054506E+02  0.37649054592E+02  0.25500000000E-02 0.  1.
          1   -1    0    0  501    0  0.00000000000E+00 -0.00000000000E+00 -0.42933280007E+02  0.42933280303E+02  0.50400000000E-02 0. -1.
        -24    2    1    2    0    0  0.00000000000E+00  0.00000000000E+00 -0.52842255017E+01  0.80582334895E+02  0.80408890416E+02 0.  0.
         66    2    3    3    0    0 -0.35090751293E+02 -0.12878155752E+02  0.12125234260E+02  0.39347541636E+02  0.20000012647E+01 0.  0.
         13    1    3    3    0    0  0.35090751293E+02  0.12878155752E+02 -0.17409459762E+02  0.41234793259E+02  0.10566000000E+00 0. -1.
         13    1    4    4    0    0 -0.96746056004E+00 -0.53411582117E+00  0.41648037707E+00  0.11856979319E+01  0.10566000000E+00 0. -1.
        -13    1    4    4    0    0 -0.14062461152E+02 -0.43978753680E+01  0.43239232482E+01  0.15355832693E+02  0.10566000000E+00 0.  1.
        -14    1    4    4    0    0 -0.20060829582E+02 -0.79461645624E+01  0.73848306347E+01  0.22806011012E+02  0.00000000000E+00 0.  1.
<mgrwt>
<rscale>  0 0.80408890E+02</rscale>
<asrwt>0</asrwt>
<pdfrwt beam="1">  1        1 0.66051200E-02 0.80408890E+02</pdfrwt>
<pdfrwt beam="2">  1       -2 0.57921623E-02 0.80408890E+02</pdfrwt>
<totfact> 0.12660745E+05</totfact>
</mgrwt>
</event>
<event>
 8    1  0.1241100E-020  0.7993579E+02  0.7818608E-02  0.1329234E+00
          1   -1    0    0  501    0  0.00000000000E+00  0.00000000000E+00  0.23299144402E+03  0.23299144408E+03  0.50400000000E-02 0. -1.
         -2   -1    0    0    0  501 -0.00000000000E+00 -0.00000000000E+00 -0.68561849543E+01  0.68561854285E+01  0.25500000000E-02 0.  1.
        -24    2    1    2    0    0  0.00000000000E+00  0.00000000000E+00  0.22613525907E+03  0.23984762950E+03  0.79935786639E+02 0.  0.
         66    2    3    3    0    0  0.19175059684E+02 -0.35009605040E+02  0.10881897262E+03  0.11592637391E+03  0.20000015714E+01 0.  0.
         13    1    3    3    0    0 -0.19175059684E+02  0.35009605040E+02  0.11731628645E+03  0.12392125560E+03  0.10566000000E+00 0. -1.
         13    1    4    4    0    0  0.67872762077E+01 -0.12124334872E+02  0.37674425619E+02  0.40155200462E+02  0.10566000000E+00 0.  1.
        -13    1    4    4    0    0  0.52431160634E+01 -0.84743648627E+01  0.28707038637E+02  0.30387667848E+02  0.10566000000E+00 0.  1.
        -14    1    4    4    0    0  0.71446674127E+01 -0.14410905305E+02  0.42437508363E+02  0.45383505597E+02  0.00000000000E+00 0.  1.
<mgrwt>
<rscale>  0 0.79935787E+02</rscale>
<asrwt>0</asrwt>
<pdfrwt beam="1">  1        1 0.35844833E-01 0.79935787E+02</pdfrwt>
<pdfrwt beam="2">  1       -2 0.10547979E-02 0.79935787E+02</pdfrwt>
<totfact> 0.17214146E+05</totfact>
</mgrwt>
</event>
<event>
 8    1  0.2530164E-020  0.8101517E+02  0.7818608E-02  0.1326195E+00
          1   -1    0    0  501    0  0.00000000000E+00  0.00000000000E+00  0.82851676026E+02  0.82851676180E+02  0.50400000000E-02 0. -1.
         -2   -1    0    0    0  501 -0.00000000000E+00 -0.00000000000E+00 -0.19804844670E+02  0.19804844834E+02  0.25500000000E-02 0.  1.
        -24    2    1    2    0    0  0.00000000000E+00  0.00000000000E+00  0.63046831356E+02  0.10265652101E+03  0.81015173657E+02 0.  0.
         66    2    3    3    0    0  0.17791610672E+02 -0.13708819414E+01 -0.14502092549E+02  0.23080975207E+02  0.20000001592E+01 0.  0.
         13    1    3    3    0    0 -0.17791610672E+02  0.13708819414E+01  0.77548923905E+02  0.79575545807E+02  0.10566000000E+00 0. -1.
         13    1    4    4    0    0  0.43613526566E+01 -0.63136385462E-01 -0.33134176774E+01  0.54786206238E+01  0.10566000000E+00 0. -1.
        -13    1    4    4    0    0  0.97544359700E+01 -0.29955068666E+00 -0.76366747007E+01  0.12392284544E+02  0.10566000000E+00 0.  1.
         14    1    4    4    0    0  0.36758220450E+01 -0.10081948692E+01 -0.35520001708E+01  0.52100700393E+01  0.00000000000E+00 0. -1.
<mgrwt>
<rscale>  0 0.81015174E+02</rscale>
<asrwt>0</asrwt>
<pdfrwt beam="1">  1        1 0.12746412E-01 0.81015174E+02</pdfrwt>
<pdfrwt beam="2">  1       -2 0.30468992E-02 0.81015174E+02</pdfrwt>
<totfact> 0.13768875E+05</totfact>
</mgrwt>
</event>
<event>
 8    1  0.1241100E-020  0.8107587E+02  0.7818608E-02  0.1326026E+00
         -2   -1    0    0    0  501 -0.00000000000E+00  0.00000000000E+00  0.79259853183E+02  0.79259853224E+02  0.25500000000E-02 0.  1.
          1   -1    0    0  501    0  0.00000000000E+00 -0.00000000000E+00 -0.20733374343E+02  0.20733374956E+02  0.50400000000E-02 0. -1.
        -24    2    1    2    0    0  0.00000000000E+00  0.17763568394E-14  0.58526478840E+02  0.99993228180E+02  0.81075871605E+02 0.  0.
         66    2    3    3    0    0 -0.33962240499E+02 -0.10397705701E+02  0.53315830604E+02  0.64094647670E+02  0.20000008525E+01 0.  0.
         13    1    3    3    0    0  0.33962240499E+02  0.10397705701E+02  0.52106482355E+01  0.35898580510E+02  0.10566000000E+00 0. -1.
         13    1    4    4    0    0 -0.65377659968E+00 -0.39870984040E-01  0.11132155734E+01  0.12959268831E+01  0.10566000000E+00 0. -1.
        -13    1    4    4    0    0 -0.30783233754E+02 -0.92329715356E+01  0.47765817070E+02  0.57571170634E+02  0.10566000000E+00 0.  1.
        -14    1    4    4    0    0 -0.25252301449E+01 -0.11248631813E+01  0.44367979608E+01  0.52275501534E+01  0.00000000000E+00 0.  1.
<mgrwt>
<rscale>  0 0.81075872E+02</rscale>
<asrwt>0</asrwt>
<pdfrwt beam="1">  1        1 0.31897499E-02 0.81075872E+02</pdfrwt>
<pdfrwt beam="2">  1       -2 0.12193824E-01 0.81075872E+02</pdfrwt>
<totfact> 0.10823615E+05</totfact>
</mgrwt>
</event>
<event>
 8    1  0.1241100E-020  0.8251408E+02  0.7818608E-02  0.1322065E+00
          1   -1    0    0  501    0  0.00000000000E+00  0.00000000000E+00  0.57875813295E+03  0.57875813297E+03  0.50400000000E-02 0. -1.
         -2   -1    0    0    0  501 -0.00000000000E+00 -0.00000000000E+00 -0.29410263384E+01  0.29410274439E+01  0.25500000000E-02 0.  1.
        -24    2    1    2    0    0  0.00000000000E+00 -0.88817841970E-15  0.57581710661E+03  0.58169916042E+03  0.82514077357E+02 0.  0.
         66    2    3    3    0    0  0.39994819101E+02  0.41204372380E+01  0.35252497426E+03  0.35481603832E+03  0.20000034998E+01 0.  0.
         13    1    3    3    0    0 -0.39994819101E+02 -0.41204372380E+01  0.22329213235E+03  0.22688312209E+03  0.10566000000E+00 0. -1.
         13    1    4    4    0    0  0.17231982118E+01  0.46551996884E+00  0.14035213706E+02  0.14148657489E+02  0.10566000000E+00 0. -1.
        -13    1    4    4    0    0  0.36759628725E+02  0.36656307157E+01  0.32597640255E+03  0.32806300208E+03  0.10566000000E+00 0.  1.
         14    1    4    4    0    0  0.15119921641E+01 -0.10713446550E-01  0.12513358005E+02  0.12604378749E+02  0.00000000000E+00 0. -1.
<mgrwt>
<rscale>  0 0.82514077E+02</rscale>
<asrwt>0</asrwt>
<pdfrwt beam="1">  1        1 0.89039680E-01 0.82514077E+02</pdfrwt>
<pdfrwt beam="2">  1       -2 0.45246584E-03 0.82514077E+02</pdfrwt>
<totfact> 0.18338544E+05</totfact>
</mgrwt>
</event>
<event>
 8    1  0.1241100E-020  0.7934590E+02  0.7818608E-02  0.1330918E+00
         -2   -1    0    0    0  501 -0.00000000000E+00  0.00000000000E+00  0.12160170203E+02  0.12160170471E+02  0.25500000000E-02 0.  1.
          1   -1    0    0  501    0  0.00000000000E+00 -0.00000000000E+00 -0.12943428172E+03  0.12943428182E+03  0.50400000000E-02 0. -1.
        -24    2    1    2    0    0 -0.71054273576E-14  0.00000000000E+00 -0.11727411152E+03  0.14159445229E+03  0.79345898994E+02 0.  0.
         66    2    3    3    0    0 -0.38755625720E+02 -0.34138469161E+01 -0.72298079181E+02  0.82125909981E+02  0.19999903056E+01 0.  0.
         13    1    3    3    0    0  0.38755625720E+02  0.34138469161E+01 -0.44976032340E+02  0.59468542312E+02  0.10566000000E+00 0. -1.
         13    1    4    4    0    0 -0.55834064213E+01 -0.43721217585E+00 -0.95709359103E+01  0.11089614961E+02  0.10566000000E+00 0. -1.
        -13    1    4    4    0    0 -0.16303542142E+02 -0.85567156677E+00 -0.29826417905E+02  0.34002412109E+02  0.10566000000E+00 0.  1.
         14    1    4    4    0    0 -0.16868677156E+02 -0.21209631735E+01 -0.32900725367E+02  0.37033882911E+02  0.00000000000E+00 0. -1.
<mgrwt>
<rscale>  0 0.79345899E+02</rscale>
<asrwt>0</asrwt>
<pdfrwt beam="1">  1        1 0.19912966E-01 0.79345899E+02</pdfrwt>
<pdfrwt beam="2">  1       -2 0.18707955E-02 0.79345899E+02</pdfrwt>
<totfact> 0.15713125E+05</totfact>
</mgrwt>
</event>
<event>
 8    1  0.1241100E-020  0.8249259E+02  0.7818608E-02  0.1322123E+00
         -2   -1    0    0    0  501 -0.00000000000E+00  0.00000000000E+00  0.90552485430E+02  0.90552485466E+02  0.25500000000E-02 0.  1.
          1   -1    0    0  501    0  0.00000000000E+00 -0.00000000000E+00 -0.18787522954E+02  0.18787523630E+02  0.50400000000E-02 0. -1.
        -24    2    1    2    0    0  0.35527136788E-14  0.35527136788E-14  0.71764962476E+02  0.10934000910E+03  0.82492592092E+02 0.  0.
         66    2    3    3    0    0 -0.30731276206E+02 -0.11596188006E+02  0.68916834673E+02  0.76370236433E+02  0.19999994964E+01 0.  0.
         13    1    3    3    0    0  0.30731276206E+02  0.11596188006E+02  0.28481278038E+01  0.32969772664E+02  0.10566000000E+00 0. -1.
         13    1    4    4    0    0 -0.48271172016E+01 -0.17827452493E+01  0.11463856391E+02  0.12566240825E+02  0.10566000000E+00 0. -1.
        -13    1    4    4    0    0 -0.14030050781E+02 -0.59871659287E+01  0.32832933796E+02  0.36203607368E+02  0.10566000000E+00 0.  1.
         14    1    4    4    0    0 -0.11874108224E+02 -0.38262768277E+01  0.24620044486E+02  0.27600388240E+02  0.00000000000E+00 0. -1.
<mgrwt>
<rscale>  0 0.82492592E+02</rscale>
<asrwt>0</asrwt>
<pdfrwt beam="1">  1        1 0.28903882E-02 0.82492592E+02</pdfrwt>
<pdfrwt beam="2">  1       -2 0.13931152E-01 0.82492592E+02</pdfrwt>
<totfact> 0.10049489E+05</totfact>
</mgrwt>
</event>
<event>
 8    1  0.1241100E-020  0.7871559E+02  0.7818608E-02  0.1332736E+00
         -2   -1    0    0    0  501 -0.00000000000E+00  0.00000000000E+00  0.17108318026E+03  0.17108318028E+03  0.25500000000E-02 0.  1.
          1   -1    0    0  501    0  0.00000000000E+00 -0.00000000000E+00 -0.90542862897E+01  0.90542876925E+01  0.50400000000E-02 0. -1.
        -24    2    1    2    0    0  0.00000000000E+00  0.35527136788E-14  0.16202889397E+03  0.18013746798E+03  0.78715594936E+02 0.  0.
         66    2    3    3    0    0  0.17338788633E+02  0.25573432383E+02  0.13676590692E+03  0.14022677124E+03  0.20000103211E+01 0.  0.
         13    1    3    3    0    0 -0.17338788633E+02 -0.25573432383E+02  0.25262987055E+02  0.39910696738E+02  0.10566000000E+00 0. -1.
         13    1    4    4    0    0  0.10214231770E+02  0.13884223818E+02  0.73696060374E+02  0.75685022827E+02  0.10566000000E+00 0.  1.
        -13    1    4    4    0    0  0.22994393319E+01  0.32537930719E+01  0.17904990651E+02  0.18343239758E+02  0.10566000000E+00 0. -1.
         14    1    4    4    0    0  0.48251175320E+01  0.84354154925E+01  0.45164855894E+02  0.46198508652E+02  0.00000000000E+00 0. -1.
<mgrwt>
<rscale>  0 0.78715595E+02</rscale>
<asrwt>0</asrwt>
<pdfrwt beam="1">  1        1 0.13929673E-02 0.78715595E+02</pdfrwt>
<pdfrwt beam="2">  1       -2 0.26320487E-01 0.78715595E+02</pdfrwt>
<totfact> 0.94168369E+04</totfact>
</mgrwt>
</event>
<event>
 8    1  0.1241100E-020  0.8028084E+02  0.7818608E-02  0.1328256E+00
         -2   -1    0    0    0  501 -0.00000000000E+00  0.00000000000E+00  0.11265181630E+02  0.11265181918E+02  0.25500000000E-02 0.  1.
          1   -1    0    0  501    0  0.00000000000E+00 -0.00000000000E+00 -0.14302951508E+03  0.14302951517E+03  0.50400000000E-02 0. -1.
        -24    2    1    2    0    0  0.00000000000E+00  0.00000000000E+00 -0.13176433345E+03  0.15429469709E+03  0.80280844413E+02 0.  0.
         66    2    3    3    0    0  0.29867483732E+02 -0.26656670878E+02 -0.70861921331E+02  0.81412877319E+02  0.20000029547E+01 0.  0.
         13    1    3    3    0    0 -0.29867483732E+02  0.26656670878E+02 -0.60902412122E+02  0.72881819770E+02  0.10566000000E+00 0. -1.
         13    1    4    4    0    0  0.38385478200E+01 -0.26487569739E+01 -0.80053872693E+01  0.92654062102E+01  0.10566000000E+00 0. -1.
        -13    1    4    4    0    0  0.16966508021E+02 -0.15249610450E+02 -0.40669894929E+02  0.46631154080E+02  0.10566000000E+00 0.  1.
        -14    1    4    4    0    0  0.90624278914E+01 -0.87583034540E+01 -0.22186639133E+02  0.25516317029E+02  0.00000000000E+00 0.  1.
<mgrwt>
<rscale>  0 0.80280844E+02</rscale>
<asrwt>0</asrwt>
<pdfrwt beam="1">  1        1 0.22004540E-01 0.80280844E+02</pdfrwt>
<pdfrwt beam="2">  1       -2 0.17331050E-02 0.80280844E+02</pdfrwt>
<totfact> 0.15505021E+05</totfact>
</mgrwt>
</event>
<event>
 8    1  0.1241100E-020  0.7950405E+02  0.7818608E-02  0.1330465E+00
         -2   -1    0    0    0  501 -0.00000000000E+00  0.00000000000E+00  0.13900410586E+03  0.13900410589E+03  0.25500000000E-02 0.  1.
          1   -1    0    0  501    0  0.00000000000E+00 -0.00000000000E+00 -0.11368177294E+02  0.11368178411E+02  0.50400000000E-02 0. -1.
        -24    2    1    2    0    0  0.00000000000E+00 -0.44408920985E-15  0.12763592857E+03  0.15037228430E+03  0.79504047840E+02 0.  0.
         66    2    3    3    0    0  0.28660557210E+02 -0.28368517433E+01  0.11561236522E+03  0.11916247002E+03  0.20000007098E+01 0.  0.
         13    1    3    3    0    0 -0.28660557210E+02  0.28368517433E+01  0.12023563349E+02  0.31209814274E+02  0.10566000000E+00 0. -1.
         13    1    4    4    0    0  0.10282182410E+01  0.15794670222E+00  0.41343346810E+01  0.42645125398E+01  0.10566000000E+00 0. -1.
        -13    1    4    4    0    0  0.13938435479E+02 -0.11808659642E+01  0.53807263968E+02  0.55595928338E+02  0.10566000000E+00 0.  1.
         14    1    4    4    0    0  0.13693903489E+02 -0.18139324813E+01  0.57670766571E+02  0.59302029145E+02  0.00000000000E+00 0. -1.
<mgrwt>
<rscale>  0 0.79504048E+02</rscale>
<asrwt>0</asrwt>
<pdfrwt beam="1">  1        1 0.17489503E-02 0.79504048E+02</pdfrwt>
<pdfrwt beam="2">  1       -2 0.21385249E-01 0.79504048E+02</pdfrwt>
<totfact> 0.98401112E+04</totfact>
</mgrwt>
</event>
<event>
 8    1  0.1241100E-020  0.8283957E+02  0.7818608E-02  0.1321181E+00
         -2   -1    0    0    0  501 -0.00000000000E+00  0.00000000000E+00  0.10867289511E+03  0.10867289514E+03  0.25500000000E-02 0.  1.
          1   -1    0    0  501    0  0.00000000000E+00 -0.00000000000E+00 -0.15786810550E+02  0.15786811355E+02  0.50400000000E-02 0. -1.
        -24    2    1    2    0    0  0.00000000000E+00  0.00000000000E+00  0.92886084560E+02  0.12445970649E+03  0.82839566849E+02 0.  0.
         66    2    3    3    0    0 -0.14976416670E+02 -0.22733988192E+02  0.93322045868E+02  0.97232358080E+02  0.19999843311E+01 0.  0.
         13    1    3    3    0    0  0.14976416670E+02  0.22733988192E+02 -0.43596130867E+00  0.27227348414E+02  0.10566000000E+00 0. -1.
         13    1    4    4    0    0 -0.11903796915E+01 -0.26413321118E+01  0.10821025691E+02  0.11202651480E+02  0.10566000000E+00 0. -1.
        -13    1    4    4    0    0 -0.77693279834E+01 -0.11894673364E+02  0.46881974590E+02  0.48987512870E+02  0.10566000000E+00 0.  1.
        -14    1    4    4    0    0 -0.60167089948E+01 -0.81979827165E+01  0.35619045587E+02  0.37042193730E+02  0.00000000000E+00 0.  1.
<mgrwt>
<rscale>  0 0.82839567E+02</rscale>
<asrwt>0</asrwt>
<pdfrwt beam="1">  1        1 0.24287402E-02 0.82839567E+02</pdfrwt>
<pdfrwt beam="2">  1       -2 0.16718907E-01 0.82839567E+02</pdfrwt>
<totfact> 0.95008267E+04</totfact>
</mgrwt>
</event>
<event>
 8    1  0.1241100E-020  0.7825947E+02  0.7818608E-02  0.1334065E+00
          1   -1    0    0  501    0  0.00000000000E+00  0.00000000000E+00  0.42142564739E+02  0.42142565041E+02  0.50400000000E-02 0. -1.
         -2   -1    0    0    0  501 -0.00000000000E+00 -0.00000000000E+00 -0.36332291704E+02  0.36332291793E+02  0.25500000000E-02 0.  1.
        -24    2    1    2    0    0  0.00000000000E+00  0.35527136788E-14  0.58102730352E+01  0.78474856834E+02  0.78259465130E+02 0.  0.
         66    2    3    3    0    0 -0.16289455063E+02 -0.26292669969E+02 -0.21085382380E+02  0.37486586748E+02  0.19999988801E+01 0.  0.
         13    1    3    3    0    0  0.16289455063E+02  0.26292669969E+02  0.26895655416E+02  0.40988270086E+02  0.10566000000E+00 0. -1.
         13    1    4    4    0    0 -0.41256929502E+01 -0.58764294486E+01 -0.42792583352E+01  0.83592452601E+01  0.10566000000E+00 0. -1.
        -13    1    4    4    0    0 -0.97512451673E+01 -0.15601457385E+02 -0.12724899733E+02  0.22370214395E+02  0.10566000000E+00 0.  1.
         14    1    4    4    0    0 -0.24125169458E+01 -0.48147831359E+01 -0.40812243126E+01  0.67571270929E+01  0.00000000000E+00 0. -1.
<mgrwt>
<rscale>  0 0.78259465E+02</rscale>
<asrwt>0</asrwt>
<pdfrwt beam="1">  1        1 0.64834715E-02 0.78259465E+02</pdfrwt>
<pdfrwt beam="2">  1       -2 0.55895834E-02 0.78259465E+02</pdfrwt>
<totfact> 0.13619207E+05</totfact>
</mgrwt>
</event>
<event>
 8    1  0.1241100E-020  0.7956339E+02  0.7818608E-02  0.1330295E+00
          1   -1    0    0  501    0  0.00000000000E+00  0.00000000000E+00  0.10568010804E+02  0.10568012006E+02  0.50400000000E-02 0. -1.
         -2   -1    0    0    0  501 -0.00000000000E+00 -0.00000000000E+00 -0.14975224514E+03  0.14975224516E+03  0.25500000000E-02 0.  1.
        -24    2    1    2    0    0  0.35527136788E-14  0.00000000000E+00 -0.13918423433E+03  0.16032025717E+03  0.79563394664E+02 0.  0.
         66    2    3    3    0    0 -0.16034698233E+02  0.35649541558E+02 -0.84246752054E+02  0.92895191470E+02  0.20000014598E+01 0.  0.
         13    1    3    3    0    0  0.16034698233E+02 -0.35649541558E+02 -0.54937482280E+02  0.67425065696E+02  0.10566000000E+00 0. -1.
         13    1    4    4    0    0 -0.91728607856E+00  0.29485328067E+01 -0.64356220722E+01  0.71388833128E+01  0.10566000000E+00 0. -1.
        -13    1    4    4    0    0 -0.97086148987E+01  0.21952614134E+02 -0.50728968841E+02  0.56121421171E+02  0.10566000000E+00 0.  1.
         14    1    4    4    0    0 -0.54087972562E+01  0.10748394618E+02 -0.27082161142E+02  0.29634886987E+02  0.00000000000E+00 0. -1.
<mgrwt>
<rscale>  0 0.79563395E+02</rscale>
<asrwt>0</asrwt>
<pdfrwt beam="1">  1        1 0.16258480E-02 0.79563395E+02</pdfrwt>
<pdfrwt beam="2">  1       -2 0.23038805E-01 0.79563395E+02</pdfrwt>
<totfact> 0.95902594E+04</totfact>
</mgrwt>
</event>
<event>
 8    1  0.1241100E-020  0.8349655E+02  0.7818608E-02  0.1319412E+00
         -2   -1    0    0    0  501 -0.00000000000E+00  0.00000000000E+00  0.53769203079E+01  0.53769209126E+01  0.25500000000E-02 0.  1.
          1   -1    0    0  501    0  0.00000000000E+00 -0.00000000000E+00 -0.32414805262E+03  0.32414805266E+03  0.50400000000E-02 0. -1.
        -24    2    1    2    0    0 -0.71054273576E-14 -0.44408920985E-15 -0.31877113232E+03  0.32952497358E+03  0.83496547306E+02 0.  0.
         66    2    3    3    0    0  0.40418880583E+02  0.34104962613E+01 -0.19806362894E+03  0.20218436761E+03  0.20000011847E+01 0.  0.
         13    1    3    3    0    0 -0.40418880583E+02 -0.34104962613E+01 -0.12070750337E+03  0.12734060596E+03  0.10566000000E+00 0. -1.
         13    1    4    4    0    0  0.53412676332E+01  0.90863570432E+00 -0.27675320136E+02  0.28200873523E+02  0.10566000000E+00 0. -1.
        -13    1    4    4    0    0  0.24422060803E+02  0.12626914641E+01 -0.11720597103E+03  0.11973003906E+03  0.10566000000E+00 0.  1.
        -14    1    4    4    0    0  0.10655552147E+02  0.12391690929E+01 -0.53182337773E+02  0.54253455029E+02  0.00000000000E+00 0.  1.
<mgrwt>
<rscale>  0 0.83496547E+02</rscale>
<asrwt>0</asrwt>
<pdfrwt beam="1">  1        1 0.49868916E-01 0.83496547E+02</pdfrwt>
<pdfrwt beam="2">  1       -2 0.82721881E-03 0.83496547E+02</pdfrwt>
<totfact> 0.16351556E+05</totfact>
</mgrwt>
</event>
<event>
 8    1  0.1241100E-020  0.8089261E+02  0.7818608E-02  0.1326537E+00
         -2   -1    0    0    0  501 -0.00000000000E+00  0.00000000000E+00  0.30678146613E+02  0.30678146719E+02  0.25500000000E-02 0.  1.
          1   -1    0    0  501    0  0.00000000000E+00 -0.00000000000E+00 -0.53324726392E+02  0.53324726630E+02  0.50400000000E-02 0. -1.
        -24    2    1    2    0    0  0.00000000000E+00  0.00000000000E+00 -0.22646579779E+02  0.84002873349E+02  0.80892614961E+02 0.  0.
         66    2    3    3    0    0 -0.37056306513E+02 -0.95614013999E+01  0.21819662221E+01  0.38384257525E+02  0.20000000051E+01 0.  0.
         13    1    3    3    0    0  0.37056306513E+02  0.95614013999E+01 -0.24828546001E+02  0.45618615824E+02  0.10566000000E+00 0. -1.
         13    1    4    4    0    0 -0.61919170554E+01 -0.21719580814E+01  0.49009365502E+00  0.65809265726E+01  0.10566000000E+00 0. -1.
        -13    1    4    4    0    0 -0.24323540589E+02 -0.61143198272E+01  0.95397338252E+00  0.25098620739E+02  0.10566000000E+00 0.  1.
        -14    1    4    4    0    0 -0.65408488690E+01 -0.12751234913E+01  0.73789918455E+00  0.67047102139E+01  0.00000000000E+00 0.  1.
<mgrwt>
<rscale>  0 0.80892615E+02</rscale>
<asrwt>0</asrwt>
<pdfrwt beam="1">  1        1 0.82038041E-02 0.80892615E+02</pdfrwt>
<pdfrwt beam="2">  1       -2 0.47197149E-02 0.80892615E+02</pdfrwt>
<totfact> 0.12887728E+05</totfact>
</mgrwt>
</event>
<event>
 8    1  0.1241100E-020  0.7769211E+02  0.7818608E-02  0.1335731E+00
         -2   -1    0    0    0  501 -0.00000000000E+00  0.00000000000E+00  0.34716998136E+03  0.34716998137E+03  0.25500000000E-02 0.  1.
          1   -1    0    0  501    0  0.00000000000E+00 -0.00000000000E+00 -0.43466189583E+01  0.43466218803E+01  0.50400000000E-02 0. -1.
        -24    2    1    2    0    0  0.00000000000E+00  0.00000000000E+00  0.34282336240E+03  0.35151660325E+03  0.77692113832E+02 0.  0.
         66    2    3    3    0    0 -0.12885409670E+02  0.17706569228E+02  0.31655242757E+03  0.31731529396E+03  0.20000009371E+01 0.  0.
         13    1    3    3    0    0  0.12885409670E+02 -0.17706569228E+02  0.26270934828E+02  0.34201309287E+02  0.10566000000E+00 0. -1.
         13    1    4    4    0    0 -0.40244569045E+01  0.48949650865E+01  0.10109874235E+03  0.10129720532E+03  0.10566000000E+00 0. -1.
        -13    1    4    4    0    0 -0.69873467576E+01  0.10524544423E+02  0.17069374276E+03  0.17116060888E+03  0.10566000000E+00 0.  1.
        -14    1    4    4    0    0 -0.18736060075E+01  0.22870597177E+01  0.44759942458E+02  0.44857479760E+02  0.00000000000E+00 0.  1.
<mgrwt>
<rscale>  0 0.77692114E+02</rscale>
<asrwt>0</asrwt>
<pdfrwt beam="1">  1        1 0.66871079E-03 0.77692114E+02</pdfrwt>
<pdfrwt beam="2">  1       -2 0.53410770E-01 0.77692114E+02</pdfrwt>
<totfact> 0.69703742E+04</totfact>
</mgrwt>
</event>
<event>
 8    1  0.1241100E-020  0.7994272E+02  0.7818608E-02  0.1329214E+00
         -2   -1    0    0    0  501 -0.00000000000E+00  0.00000000000E+00  0.48153686604E+01  0.48153693356E+01  0.25500000000E-02 0.  1.
          1   -1    0    0  501    0  0.00000000000E+00 -0.00000000000E+00 -0.33179377253E+03  0.33179377257E+03  0.50400000000E-02 0. -1.
        -24    2    1    2    0    0  0.44408920985E-15 -0.71054273576E-14 -0.32697840387E+03  0.33660914190E+03  0.79942715842E+02 0.  0.
         66    2    3    3    0    0  0.35915938795E+01 -0.37869246377E+02 -0.11224138991E+03  0.11852893717E+03  0.19999925878E+01 0.  0.
         13    1    3    3    0    0 -0.35915938795E+01  0.37869246377E+02 -0.21473701396E+03  0.21808020473E+03  0.10566000000E+00 0. -1.
         13    1    4    4    0    0  0.85655594826E-01 -0.73541208485E+01 -0.21087962215E+02  0.22333914676E+02  0.10566000000E+00 0.  1.
        -13    1    4    4    0    0  0.32404484230E+01 -0.24997233500E+02 -0.75224419107E+02  0.79335279559E+02  0.10566000000E+00 0. -1.
         14    1    4    4    0    0  0.26548986163E+00 -0.55178920286E+01 -0.15929008587E+02  0.16859742936E+02  0.00000000000E+00 0. -1.
<mgrwt>
<rscale>  0 0.79942716E+02</rscale>
<asrwt>0</asrwt>
<pdfrwt beam="1">  1        1 0.51045178E-01 0.79942716E+02</pdfrwt>
<pdfrwt beam="2">  1       -2 0.74082626E-03 0.79942716E+02</pdfrwt>
<totfact> 0.18419514E+05</totfact>
</mgrwt>
</event>
<event>
 8    1  0.1241100E-020  0.8611546E+02  0.7818608E-02  0.1312541E+00
         -2   -1    0    0    0  501 -0.00000000000E+00  0.00000000000E+00  0.10275257800E+02  0.10275258116E+02  0.25500000000E-02 0.  1.
          1   -1    0    0  501    0  0.00000000000E+00 -0.00000000000E+00 -0.18043033680E+03  0.18043033687E+03  0.50400000000E-02 0. -1.
        -24    2    1    2    0    0  0.00000000000E+00  0.71054273576E-14 -0.17015507900E+03  0.19070559499E+03  0.86115463476E+02 0.  0.
         66    2    3    3    0    0  0.19563907095E+02  0.38314309811E+02 -0.82666842912E+02  0.93212336681E+02  0.19999988503E+01 0.  0.
         13    1    3    3    0    0 -0.19563907095E+02 -0.38314309811E+02 -0.87488236090E+02  0.97493258307E+02  0.10566000000E+00 0. -1.
         13    1    4    4    0    0  0.16561560849E+01  0.29010743908E+01 -0.58468290421E+01  0.67346610517E+01  0.10566000000E+00 0. -1.
        -13    1    4    4    0    0  0.12713938234E+01  0.32436215996E+01 -0.73138498602E+01  0.81019187325E+01  0.10566000000E+00 0.  1.
        -14    1    4    4    0    0  0.16636357187E+02  0.32169613821E+02 -0.69506164009E+02  0.78375756897E+02  0.00000000000E+00 0.  1.
<mgrwt>
<rscale>  0 0.86115463E+02</rscale>
<asrwt>0</asrwt>
<pdfrwt beam="1">  1        1 0.27758511E-01 0.86115463E+02</pdfrwt>
<pdfrwt beam="2">  1       -2 0.15808091E-02 0.86115463E+02</pdfrwt>
<totfact> 0.13425335E+05</totfact>
</mgrwt>
</event>
<event>
 8    1  0.1241100E-020  0.7765505E+02  0.7818608E-02  0.1335841E+00
         -2   -1    0    0    0  501 -0.00000000000E+00  0.00000000000E+00  0.15803371134E+03  0.15803371136E+03  0.25500000000E-02 0.  1.
          1   -1    0    0  501    0  0.00000000000E+00 -0.00000000000E+00 -0.95395884662E+01  0.95395897976E+01  0.50400000000E-02 0. -1.
        -24    2    1    2    0    0  0.88817841970E-15  0.71054273576E-14  0.14849412288E+03  0.16757330116E+03  0.77655049630E+02 0.  0.
         66    2    3    3    0    0 -0.42100003966E+01 -0.36704733210E+02  0.99884598739E+02  0.10651710947E+03  0.20000001067E+01 0.  0.
         13    1    3    3    0    0  0.42100003966E+01  0.36704733210E+02  0.48609524137E+02  0.61056191694E+02  0.10566000000E+00 0. -1.
         13    1    4    4    0    0 -0.79838544361E+00 -0.81350946398E+01  0.20720224125E+02  0.22274560287E+02  0.10566000000E+00 0.  1.
        -13    1    4    4    0    0 -0.26160547420E+00 -0.66115039501E+01  0.17477880505E+02  0.18688710306E+02  0.10566000000E+00 0. -1.
        -14    1    4    4    0    0 -0.31500094788E+01 -0.21958134620E+02  0.61686494108E+02  0.65553838874E+02  0.00000000000E+00 0.  1.
<mgrwt>
<rscale>  0 0.77655050E+02</rscale>
<asrwt>0</asrwt>
<pdfrwt beam="1">  1        1 0.14676292E-02 0.77655050E+02</pdfrwt>
<pdfrwt beam="2">  1       -2 0.24312878E-01 0.77655050E+02</pdfrwt>
<totfact> 0.10026164E+05</totfact>
</mgrwt>
</event>
<event>
 8    1  0.1241100E-020  0.7958751E+02  0.7818608E-02  0.1330226E+00
         -2   -1    0    0    0  501 -0.00000000000E+00  0.00000000000E+00  0.81246593175E+02  0.81246593215E+02  0.25500000000E-02 0.  1.
          1   -1    0    0  501    0  0.00000000000E+00 -0.00000000000E+00 -0.19490573676E+02  0.19490574328E+02  0.50400000000E-02 0. -1.
        -24    2    1    2    0    0  0.00000000000E+00  0.00000000000E+00  0.61756019498E+02  0.10073716754E+03  0.79587505177E+02 0.  0.
         66    2    3    3    0    0  0.83099697326E+01 -0.20123398354E+02  0.73020794318E+02  0.76223639154E+02  0.20000011911E+01 0.  0.
         13    1    3    3    0    0 -0.83099697326E+01  0.20123398354E+02 -0.11264774820E+02  0.24513528389E+02  0.10566000000E+00 0. -1.
         13    1    4    4    0    0  0.57858886766E+01 -0.13317172705E+02  0.50377762774E+02  0.52428558466E+02  0.10566000000E+00 0. -1.
        -13    1    4    4    0    0  0.24902136125E+01 -0.66487595702E+01  0.21535343836E+02  0.22675743997E+02  0.10566000000E+00 0.  1.
         14    1    4    4    0    0  0.33867443423E-01 -0.15746607957E+00  0.11076877080E+01  0.11193366913E+01  0.00000000000E+00 0. -1.
<mgrwt>
<rscale>  0 0.79587505E+02</rscale>
<asrwt>0</asrwt>
<pdfrwt beam="1">  1        1 0.29985498E-02 0.79587505E+02</pdfrwt>
<pdfrwt beam="2">  1       -2 0.12499476E-01 0.79587505E+02</pdfrwt>
<totfact> 0.11286328E+05</totfact>
</mgrwt>
</event>
<event>
 8    1  0.1241100E-020  0.8155581E+02  0.7818608E-02  0.1324693E+00
          1   -1    0    0  501    0  0.00000000000E+00  0.00000000000E+00  0.43168738836E+02  0.43168739130E+02  0.50400000000E-02 0. -1.
         -2   -1    0    0    0  501 -0.00000000000E+00 -0.00000000000E+00 -0.38519482298E+02  0.38519482383E+02  0.25500000000E-02 0.  1.
        -24    2    1    2    0    0  0.00000000000E+00  0.00000000000E+00  0.46492565374E+01  0.81688221513E+02  0.81555808791E+02 0.  0.
         66    2    3    3    0    0 -0.39410777676E+02  0.98636216661E+01  0.55455952740E+01  0.41051845978E+02  0.20000004698E+01 0.  0.
         13    1    3    3    0    0  0.39410777676E+02 -0.98636216661E+01 -0.89633873664E+00  0.40636375534E+02  0.10566000000E+00 0. -1.
         13    1    4    4    0    0 -0.20440439326E+02  0.49059502870E+01  0.37645188580E+01  0.21355623951E+02  0.10566000000E+00 0.  1.
        -13    1    4    4    0    0 -0.11412448028E+02  0.32554633665E+01  0.11168257681E+01  0.11920590403E+02  0.10566000000E+00 0. -1.
        -14    1    4    4    0    0 -0.75578903223E+01  0.17022080126E+01  0.66425064792E+00  0.77756316248E+01  0.00000000000E+00 0.  1.
<mgrwt>
<rscale>  0 0.81555809E+02</rscale>
<asrwt>0</asrwt>
<pdfrwt beam="1">  1        1 0.66413445E-02 0.81555809E+02</pdfrwt>
<pdfrwt beam="2">  1       -2 0.59260742E-02 0.81555809E+02</pdfrwt>
<totfact> 0.12177384E+05</totfact>
</mgrwt>
</event>
<event>
 8    1  0.1241100E-020  0.8289179E+02  0.7818608E-02  0.1321040E+00
          1   -1    0    0  501    0  0.00000000000E+00  0.00000000000E+00  0.10724387013E+03  0.10724387025E+03  0.50400000000E-02 0. -1.
         -2   -1    0    0    0  501 -0.00000000000E+00 -0.00000000000E+00 -0.16017344827E+02  0.16017345030E+02  0.25500000000E-02 0.  1.
        -24    2    1    2    0    0 -0.35527136788E-14  0.00000000000E+00  0.91226525307E+02  0.12326121528E+03  0.82891786524E+02 0.  0.
         66    2    3    3    0    0 -0.19033945097E+02  0.13567374632E+00 -0.90663464975E+01  0.21178010139E+02  0.20000003236E+01 0.  0.
         13    1    3    3    0    0  0.19033945097E+02 -0.13567374632E+00  0.10029287180E+03  0.10208320514E+03  0.10566000000E+00 0. -1.
         13    1    4    4    0    0 -0.55030004447E+01  0.47139857551E+00 -0.22428338646E+01  0.59621051896E+01  0.10566000000E+00 0. -1.
        -13    1    4    4    0    0 -0.90685815011E+01 -0.71638003727E+00 -0.41425016829E+01  0.99961920264E+01  0.10566000000E+00 0.  1.
         14    1    4    4    0    0 -0.44623631516E+01  0.38065520808E+00 -0.26810109501E+01  0.52197129231E+01  0.00000000000E+00 0. -1.
<mgrwt>
<rscale>  0 0.82891787E+02</rscale>
<asrwt>0</asrwt>
<pdfrwt beam="1">  1        1 0.16499057E-01 0.82891787E+02</pdfrwt>
<pdfrwt beam="2">  1       -2 0.24642069E-02 0.82891787E+02</pdfrwt>
<totfact> 0.13513086E+05</totfact>
</mgrwt>
</event>
<event>
 8    1  0.1241100E-020  0.8067984E+02  0.7818608E-02  0.1327133E+00
         -2   -1    0    0    0  501 -0.00000000000E+00  0.00000000000E+00  0.22443694837E+02  0.22443694982E+02  0.25500000000E-02 0.  1.
          1   -1    0    0  501    0  0.00000000000E+00 -0.00000000000E+00 -0.72506293435E+02  0.72506293610E+02  0.50400000000E-02 0. -1.
        -24    2    1    2    0    0  0.00000000000E+00  0.00000000000E+00 -0.50062598598E+02  0.94949988592E+02  0.80679839831E+02 0.  0.
         66    2    3    3    0    0  0.21493147441E+02 -0.17966510078E+02  0.90736359999E+01  0.29514094178E+02  0.20000034067E+01 0.  0.
         13    1    3    3    0    0 -0.21493147441E+02  0.17966510078E+02 -0.59136234597E+02  0.65435894413E+02  0.10566000000E+00 0. -1.
         13    1    4    4    0    0  0.60470017599E+00 -0.72606783483E+00  0.62313715944E+00  0.11367940705E+01  0.10566000000E+00 0.  1.
        -13    1    4    4    0    0  0.81936216011E+01 -0.66091206942E+01  0.30493823504E+01  0.10960191971E+02  0.10566000000E+00 0. -1.
        -14    1    4    4    0    0  0.12694825664E+02 -0.10631321549E+02  0.54011164901E+01  0.17417108137E+02  0.00000000000E+00 0.  1.
<mgrwt>
<rscale>  0 0.80679840E+02</rscale>
<asrwt>0</asrwt>
<pdfrwt beam="1">  1        1 0.11154814E-01 0.80679840E+02</pdfrwt>
<pdfrwt beam="2">  1       -2 0.34528762E-02 0.80679840E+02</pdfrwt>
<totfact> 0.13629009E+05</totfact>
</mgrwt>
</event>
<event>
 8    1  0.1241100E-020  0.8145702E+02  0.7818608E-02  0.1324967E+00
          1   -1    0    0  501    0  0.00000000000E+00  0.00000000000E+00  0.21117774188E+02  0.21117774790E+02  0.50400000000E-02 0. -1.
         -2   -1    0    0    0  501 -0.00000000000E+00 -0.00000000000E+00 -0.78550490135E+02  0.78550490177E+02  0.25500000000E-02 0.  1.
        -24    2    1    2    0    0  0.00000000000E+00  0.00000000000E+00 -0.57432715947E+02  0.99668264966E+02  0.81457020448E+02 0.  0.
         66    2    3    3    0    0  0.27735716562E+02 -0.37750677161E+01 -0.64891795066E+02  0.70699831546E+02  0.20000010609E+01 0.  0.
         13    1    3    3    0    0 -0.27735716562E+02  0.37750677161E+01  0.74590791192E+01  0.28968433420E+02  0.10566000000E+00 0. -1.
         13    1    4    4    0    0  0.10691185445E+01 -0.10859842409E+00 -0.27092365963E+01  0.29164936225E+01  0.10566000000E+00 0.  1.
        -13    1    4    4    0    0  0.16469547876E+02 -0.27076869859E+01 -0.40447819641E+02  0.43756312159E+02  0.10566000000E+00 0.  1.
        -14    1    4    4    0    0  0.10197050142E+02 -0.95878230615E+00 -0.21734738829E+02  0.24027025764E+02  0.00000000000E+00 0.  1.
<mgrwt>
<rscale>  0 0.81457020E+02</rscale>
<asrwt>0</asrwt>
<pdfrwt beam="1">  1        1 0.32488884E-02 0.81457020E+02</pdfrwt>
<pdfrwt beam="2">  1       -2 0.12084691E-01 0.81457020E+02</pdfrwt>
<totfact> 0.10715722E+05</totfact>
</mgrwt>
</event>
<event>
 8    1  0.1241100E-020  0.7829622E+02  0.7818608E-02  0.1333957E+00
          1   -1    0    0  501    0  0.00000000000E+00  0.00000000000E+00  0.54427249704E+03  0.54427249706E+03  0.50400000000E-02 0. -1.
         -2   -1    0    0    0  501 -0.00000000000E+00 -0.00000000000E+00 -0.28158212896E+01  0.28158224442E+01  0.25500000000E-02 0.  1.
        -24    2    1    2    0    0 -0.71054273576E-14  0.00000000000E+00  0.54145667575E+03  0.54708831950E+03  0.78296217194E+02 0.  0.
         66    2    3    3    0    0 -0.27247870675E+02  0.16447943998E+02  0.42987217067E+03  0.43105343572E+03  0.20000022579E+01 0.  0.
         13    1    3    3    0    0  0.27247870675E+02 -0.16447943998E+02  0.11158450507E+03  0.11603488378E+03  0.10566000000E+00 0. -1.
         13    1    4    4    0    0 -0.56444655736E+01  0.28779120874E+01  0.91595587027E+02  0.91814514628E+02  0.10566000000E+00 0. -1.
        -13    1    4    4    0    0 -0.65725591952E+01  0.37373432127E+01  0.95654685400E+02  0.95953094123E+02  0.10566000000E+00 0.  1.
        -14    1    4    4    0    0 -0.15030845906E+02  0.98326886974E+01  0.24262189825E+03  0.24328582697E+03  0.00000000000E+00 0.  1.
<mgrwt>
<rscale>  0 0.78296217E+02</rscale>
<asrwt>0</asrwt>
<pdfrwt beam="1">  1        1 0.83734200E-01 0.78296217E+02</pdfrwt>
<pdfrwt beam="2">  1       -2 0.43320352E-03 0.78296217E+02</pdfrwt>
<totfact> 0.20931928E+05</totfact>
</mgrwt>
</event>
<event>
 8    1  0.1241100E-020  0.8515019E+02  0.7818608E-02  0.1315040E+00
          1   -1    0    0  501    0  0.00000000000E+00  0.00000000000E+00  0.12504745793E+03  0.12504745804E+03  0.50400000000E-02 0. -1.
         -2   -1    0    0    0  501 -0.00000000000E+00 -0.00000000000E+00 -0.14495604739E+02  0.14495604963E+02  0.25500000000E-02 0.  1.
        -24    2    1    2    0    0  0.35527136788E-14 -0.11102230246E-15  0.11055185320E+03  0.13954306300E+03  0.85150186060E+02 0.  0.
         66    2    3    3    0    0 -0.25389828425E+02  0.91256561703E-01 -0.65248210826E+00  0.25476998503E+02  0.20000011475E+01 0.  0.
         13    1    3    3    0    0  0.25389828425E+02 -0.91256561703E-01  0.11120433530E+03  0.11406606450E+03  0.10566000000E+00 0. -1.
         13    1    4    4    0    0 -0.13138531366E+01 -0.36892267486E+00 -0.68261540548E-02  0.13687675612E+01  0.10566000000E+00 0. -1.
        -13    1    4    4    0    0 -0.11274170527E+02  0.14553423334E+00 -0.77116523626E+00  0.11301945016E+02  0.10566000000E+00 0.  1.
         14    1    4    4    0    0 -0.12801804761E+02  0.31464500322E+00  0.12550928205E+00  0.12806285925E+02  0.00000000000E+00 0. -1.
<mgrwt>
<rscale>  0 0.85150186E+02</rscale>
<asrwt>0</asrwt>
<pdfrwt beam="1">  1        1 0.19238071E-01 0.85150186E+02</pdfrwt>
<pdfrwt beam="2">  1       -2 0.22300930E-02 0.85150186E+02</pdfrwt>
<totfact> 0.12912419E+05</totfact>
</mgrwt>
</event>
<event>
 8    1  0.1241100E-020  0.7793987E+02  0.7818608E-02  0.1335002E+00
          1   -1    0    0  501    0  0.00000000000E+00  0.00000000000E+00  0.10626963246E+03  0.10626963258E+03  0.50400000000E-02 0. -1.
         -2   -1    0    0    0  501 -0.00000000000E+00 -0.00000000000E+00 -0.14290591262E+02  0.14290591489E+02  0.25500000000E-02 0.  1.
        -24    2    1    2    0    0  0.00000000000E+00  0.00000000000E+00  0.91979041200E+02  0.12056022407E+03  0.77939871747E+02 0.  0.
         66    2    3    3    0    0 -0.25266777179E+02  0.18016115775E+01  0.26381077651E+00  0.25411127969E+02  0.19999988134E+01 0.  0.
         13    1    3    3    0    0  0.25266777179E+02 -0.18016115775E+01  0.91715230424E+02  0.95149096102E+02  0.10566000000E+00 0. -1.
         13    1    4    4    0    0 -0.73542368956E+00  0.12221673381E+00 -0.11324703184E+00  0.76142882727E+00  0.10566000000E+00 0. -1.
        -13    1    4    4    0    0 -0.17943338367E+02  0.19760048647E+01  0.27068636901E+00  0.18054152490E+02  0.10566000000E+00 0.  1.
        -14    1    4    4    0    0 -0.65880151223E+01 -0.29661002102E+00  0.10637143934E+00  0.65955466520E+01  0.00000000000E+00 0.  1.
<mgrwt>
<rscale>  0 0.77939872E+02</rscale>
<asrwt>0</asrwt>
<pdfrwt beam="1">  1        1 0.16349174E-01 0.77939872E+02</pdfrwt>
<pdfrwt beam="2">  1       -2 0.21985525E-02 0.77939872E+02</pdfrwt>
<totfact> 0.15932170E+05</totfact>
</mgrwt>
</event>
<event>
 8    1  0.1241100E-020  0.8151987E+02  0.7818608E-02  0.1324793E+00
         -2   -1    0    0    0  501 -0.00000000000E+00  0.00000000000E+00  0.47701796260E+01  0.47701803076E+01  0.25500000000E-02 0.  1.
          1   -1    0    0  501    0  0.00000000000E+00 -0.00000000000E+00 -0.34828289696E+03  0.34828289699E+03  0.50400000000E-02 0. -1.
        -24    2    1    2    0    0  0.00000000000E+00 -0.71054273576E-14 -0.34351271733E+03  0.35305307730E+03  0.81519865209E+02 0.  0.
         66    2    3    3    0    0  0.80114999732E+01  0.39043479076E+02 -0.20829805240E+03  0.21208643526E+03  0.20000000346E+01 0.  0.
         13    1    3    3    0    0 -0.80114999732E+01 -0.39043479076E+02 -0.13521466493E+03  0.14096664204E+03  0.10566000000E+00 0. -1.
         13    1    4    4    0    0  0.13256558857E+00  0.45508524321E+00 -0.27392518352E+01  0.27819670858E+01  0.10566000000E+00 0. -1.
        -13    1    4    4    0    0  0.42075566698E+01  0.22110764243E+02 -0.12151537996E+03  0.12358231330E+03  0.10566000000E+00 0.  1.
         14    1    4    4    0    0  0.36713777148E+01  0.16477629590E+02 -0.84043420600E+02  0.85722154880E+02  0.00000000000E+00 0. -1.
<mgrwt>
<rscale>  0 0.81519865E+02</rscale>
<asrwt>0</asrwt>
<pdfrwt beam="1">  1        1 0.53581964E-01 0.81519865E+02</pdfrwt>
<pdfrwt beam="2">  1       -2 0.73387411E-03 0.81519865E+02</pdfrwt>
<totfact> 0.17650219E+05</totfact>
</mgrwt>
</event>
<event>
 8    1  0.1241100E-020  0.7975092E+02  0.7818608E-02  0.1329760E+00
          1   -1    0    0  501    0  0.00000000000E+00  0.00000000000E+00  0.11796843330E+03  0.11796843341E+03  0.50400000000E-02 0. -1.
         -2   -1    0    0    0  501 -0.00000000000E+00 -0.00000000000E+00 -0.13478624185E+02  0.13478624426E+02  0.25500000000E-02 0.  1.
        -24    2    1    2    0    0  0.35527136788E-14  0.00000000000E+00  0.10448980912E+03  0.13144705784E+03  0.79750917264E+02 0.  0.
         66    2    3    3    0    0 -0.30994215405E+02  0.68007169080E+01  0.12543734612E+02  0.34179473719E+02  0.20000016617E+01 0.  0.
         13    1    3    3    0    0  0.30994215405E+02 -0.68007169080E+01  0.91946074506E+02  0.97267584118E+02  0.10566000000E+00 0. -1.
         13    1    4    4    0    0 -0.76207751546E+00  0.33491420833E+00  0.50065496914E+00  0.97711263436E+00  0.10566000000E+00 0. -1.
        -13    1    4    4    0    0 -0.25988004692E+02  0.57555939476E+01  0.99462483703E+01  0.28415528681E+02  0.10566000000E+00 0.  1.
        -14    1    4    4    0    0 -0.42441331981E+01  0.71020875215E+00  0.20968312730E+01  0.47868324039E+01  0.00000000000E+00 0.  1.
<mgrwt>
<rscale>  0 0.79750917E+02</rscale>
<asrwt>0</asrwt>
<pdfrwt beam="1">  1        1 0.18148990E-01 0.79750917E+02</pdfrwt>
<pdfrwt beam="2">  1       -2 0.20736345E-02 0.79750917E+02</pdfrwt>
<totfact> 0.15248496E+05</totfact>
</mgrwt>
</event>
<event>
 8    1  0.1241100E-020  0.8917463E+02  0.7818608E-02  0.1304863E+00
          1   -1    0    0  501    0  0.00000000000E+00  0.00000000000E+00  0.19814606335E+02  0.19814606976E+02  0.50400000000E-02 0. -1.
         -2   -1    0    0    0  501 -0.00000000000E+00 -0.00000000000E+00 -0.10033146959E+03  0.10033146962E+03  0.25500000000E-02 0.  1.
        -24    2    1    2    0    0  0.00000000000E+00  0.71054273576E-14 -0.80516863252E+02  0.12014607659E+03  0.89174628977E+02 0.  0.
         66    2    3    3    0    0  0.12796790557E+02  0.42252981344E+02 -0.48468605747E+02  0.65591752713E+02  0.19999999777E+01 0.  0.
         13    1    3    3    0    0 -0.12796790557E+02 -0.42252981344E+02 -0.32048257505E+02  0.54554323882E+02  0.10566000000E+00 0. -1.
         13    1    4    4    0    0  0.21692878526E+01  0.65753503741E+01 -0.67195081394E+01  0.96490411959E+01  0.10566000000E+00 0. -1.
        -13    1    4    4    0    0  0.44769797097E+01  0.16070581417E+02 -0.19168461546E+02  0.25411572491E+02  0.10566000000E+00 0.  1.
        -14    1    4    4    0    0  0.61505229949E+01  0.19607049553E+02 -0.22580636061E+02  0.30531139026E+02  0.00000000000E+00 0.  1.
<mgrwt>
<rscale>  0 0.89174629E+02</rscale>
<asrwt>0</asrwt>
<pdfrwt beam="1">  1        1 0.30484011E-02 0.89174629E+02</pdfrwt>
<pdfrwt beam="2">  1       -2 0.15435610E-01 0.89174629E+02</pdfrwt>
<totfact> 0.80269080E+04</totfact>
</mgrwt>
</event>
<event>
 8    1  0.1241100E-020  0.8055035E+02  0.7818608E-02  0.1327497E+00
          1   -1    0    0  501    0  0.00000000000E+00  0.00000000000E+00  0.37640441745E+02  0.37640442082E+02  0.50400000000E-02 0. -1.
         -2   -1    0    0    0  501 -0.00000000000E+00 -0.00000000000E+00 -0.43094331409E+02  0.43094331485E+02  0.25500000000E-02 0.  1.
        -24    2    1    2    0    0  0.35527136788E-14  0.00000000000E+00 -0.54538896645E+01  0.80734773567E+02  0.80550349164E+02 0.  0.
         66    2    3    3    0    0 -0.24165713948E+02 -0.32092454328E+02 -0.52197422628E+01  0.40560486461E+02  0.19999993060E+01 0.  0.
         13    1    3    3    0    0  0.24165713948E+02  0.32092454328E+02 -0.23414740171E+00  0.40174287106E+02  0.10566000000E+00 0. -1.
         13    1    4    4    0    0 -0.15735190590E+02 -0.20669250381E+02 -0.33905661671E+01  0.26197733436E+02  0.10566000000E+00 0. -1.
        -13    1    4    4    0    0 -0.50015141367E+01 -0.57984362590E+01 -0.97232404187E+00  0.77196881276E+01  0.10566000000E+00 0.  1.
         14    1    4    4    0    0 -0.34290092211E+01 -0.56247676882E+01 -0.85685205378E+00  0.66430648971E+01  0.00000000000E+00 0. -1.
<mgrwt>
<rscale>  0 0.80550349E+02</rscale>
<asrwt>0</asrwt>
<pdfrwt beam="1">  1        1 0.57908372E-02 0.80550349E+02</pdfrwt>
<pdfrwt beam="2">  1       -2 0.66298972E-02 0.80550349E+02</pdfrwt>
<totfact> 0.12330197E+05</totfact>
</mgrwt>
</event>
<event>
 8    1  0.1241100E-020  0.8011456E+02  0.7818608E-02  0.1328727E+00
          1   -1    0    0  501    0  0.00000000000E+00  0.00000000000E+00  0.16113859319E+01  0.16113938137E+01  0.50400000000E-02 0. -1.
         -2   -1    0    0    0  501 -0.00000000000E+00 -0.00000000000E+00 -0.99577737458E+03  0.99577737458E+03  0.25500000000E-02 0.  1.
        -24    2    1    2    0    0  0.00000000000E+00  0.35527136788E-14 -0.99416598865E+03  0.99738876840E+03  0.80114557602E+02 0.  0.
         66    2    3    3    0    0  0.21444180878E+02  0.21413205841E+02 -0.82303759244E+03  0.82359775186E+03  0.20000032287E+01 0.  0.
         13    1    3    3    0    0 -0.21444180878E+02 -0.21413205841E+02 -0.17112839620E+03  0.17379101654E+03  0.10566000000E+00 0. -1.
         13    1    4    4    0    0  0.14358718198E+02  0.14008570397E+02 -0.54270696469E+03  0.54307759439E+03  0.10566000000E+00 0. -1.
        -13    1    4    4    0    0  0.70763876368E+01  0.71692427504E+01 -0.27346962884E+03  0.27365511573E+03  0.10566000000E+00 0.  1.
         14    1    4    4    0    0  0.90750429981E-02  0.23539269426E+00 -0.68609989120E+01  0.68650417440E+01  0.00000000000E+00 0. -1.
<mgrwt>
<rscale>  0 0.80114558E+02</rscale>
<asrwt>0</asrwt>
<pdfrwt beam="1">  1        1 0.24790693E-03 0.80114558E+02</pdfrwt>
<pdfrwt beam="2">  1       -2 0.15319603E+00 0.80114558E+02</pdfrwt>
<totfact> 0.26110201E+04</totfact>
</mgrwt>
</event>
<event>
 8    1  0.1241100E-020  0.8001988E+02  0.7818608E-02  0.1328995E+00
         -2   -1    0    0    0  501 -0.00000000000E+00  0.00000000000E+00  0.50776119296E+02  0.50776119360E+02  0.25500000000E-02 0.  1.
          1   -1    0    0  501    0  0.00000000000E+00 -0.00000000000E+00 -0.31526539963E+02  0.31526540366E+02  0.50400000000E-02 0. -1.
        -24    2    1    2    0    0 -0.88817841970E-15 -0.71054273576E-14  0.19249579333E+02  0.82302659726E+02  0.80019881864E+02 0.  0.
         66    2    3    3    0    0 -0.50374315220E+01 -0.35426987488E+02 -0.87203858894E+01  0.36884851794E+02  0.20000007498E+01 0.  0.
         13    1    3    3    0    0  0.50374315220E+01  0.35426987488E+02  0.27969965222E+02  0.45417807932E+02  0.10566000000E+00 0. -1.
         13    1    4    4    0    0 -0.13105361763E+01 -0.11158019515E+02 -0.24596282492E+01  0.11501297306E+02  0.10566000000E+00 0.  1.
        -13    1    4    4    0    0 -0.13688875522E+01 -0.53765513982E+01 -0.10934359983E+01  0.56557868052E+01  0.10566000000E+00 0. -1.
        -14    1    4    4    0    0 -0.23580077935E+01 -0.18892416575E+02 -0.51673216419E+01  0.19727767683E+02  0.00000000000E+00 0.  1.
<mgrwt>
<rscale>  0 0.80019882E+02</rscale>
<asrwt>0</asrwt>
<pdfrwt beam="1">  1        1 0.48502369E-02 0.80019882E+02</pdfrwt>
<pdfrwt beam="2">  1       -2 0.78117107E-02 0.80019882E+02</pdfrwt>
<totfact> 0.12191920E+05</totfact>
</mgrwt>
</event>
<event>
 8    1  0.1241100E-020  0.8193414E+02  0.7818608E-02  0.1323651E+00
          1   -1    0    0  501    0  0.00000000000E+00  0.00000000000E+00  0.15265141689E+02  0.15265142521E+02  0.50400000000E-02 0. -1.
         -2   -1    0    0    0  501 -0.00000000000E+00 -0.00000000000E+00 -0.10994334304E+03  0.10994334307E+03  0.25500000000E-02 0.  1.
        -24    2    1    2    0    0  0.00000000000E+00  0.00000000000E+00 -0.94678201354E+02  0.12520848559E+03  0.81934138506E+02 0.  0.
         66    2    3    3    0    0 -0.18059180552E+02 -0.32013817648E+02 -0.74928275799E+02  0.83482124068E+02  0.20000005377E+01 0.  0.
         13    1    3    3    0    0  0.18059180552E+02  0.32013817648E+02 -0.19749925555E+02  0.41726361524E+02  0.10566000000E+00 0. -1.
         13    1    4    4    0    0 -0.94817916024E+00 -0.16634357924E+01 -0.31959717704E+01  0.37271251587E+01  0.10566000000E+00 0. -1.
        -13    1    4    4    0    0 -0.68821166486E+01 -0.11491762109E+02 -0.28606467340E+02  0.31587422555E+02  0.10566000000E+00 0.  1.
         14    1    4    4    0    0 -0.10228884743E+02 -0.18858619746E+02 -0.43125836688E+02  0.48167576355E+02  0.00000000000E+00 0. -1.
<mgrwt>
<rscale>  0 0.81934139E+02</rscale>
<asrwt>0</asrwt>
<pdfrwt beam="1">  1        1 0.23484835E-02 0.81934139E+02</pdfrwt>
<pdfrwt beam="2">  1       -2 0.16914360E-01 0.81934139E+02</pdfrwt>
<totfact> 0.97426317E+04</totfact>
</mgrwt>
</event>
<event>
 8    1  0.1241100E-020  0.7956413E+02  0.7818608E-02  0.1330293E+00
         -2   -1    0    0    0  501 -0.00000000000E+00  0.00000000000E+00  0.40544323697E+02  0.40544323777E+02  0.25500000000E-02 0.  1.
          1   -1    0    0  501    0  0.00000000000E+00 -0.00000000000E+00 -0.39034141033E+02  0.39034141358E+02  0.50400000000E-02 0. -1.
        -24    2    1    2    0    0  0.71054273576E-14 -0.17763568394E-14  0.15101826640E+01  0.79578465135E+02  0.79564134266E+02 0.  0.
         66    2    3    3    0    0 -0.38723987931E+02 -0.89992489942E+01  0.10279924022E+01  0.39819473759E+02  0.19999995760E+01 0.  0.
         13    1    3    3    0    0  0.38723987931E+02  0.89992489942E+01  0.48219026184E+00  0.39758991376E+02  0.10566000000E+00 0. -1.
         13    1    4    4    0    0 -0.99890223499E+01 -0.15987341059E+01  0.62710438944E-02  0.10116705077E+02  0.10566000000E+00 0. -1.
        -13    1    4    4    0    0 -0.12940170381E+01 -0.19716698199E+00  0.10306398496E+00  0.13172475600E+01  0.10566000000E+00 0. -1.
        -14    1    4    4    0    0 -0.27440948543E+02 -0.72033479063E+01  0.91865737330E+00  0.28385521122E+02  0.00000000000E+00 0.  1.
<mgrwt>
<rscale>  0 0.79564134E+02</rscale>
<asrwt>0</asrwt>
<pdfrwt beam="1">  1        1 0.60052525E-02 0.79564134E+02</pdfrwt>
<pdfrwt beam="2">  1       -2 0.62375883E-02 0.79564134E+02</pdfrwt>
<totfact> 0.12843472E+05</totfact>
</mgrwt>
</event>
<event>
 8    1  0.2231104E-020  0.7403243E+02  0.7818608E-02  0.1346894E+00
         -2   -1    0    0    0  501 -0.00000000000E+00  0.00000000000E+00  0.63611309311E+02  0.63611309362E+02  0.25500000000E-02 0.  1.
          1   -1    0    0  501    0  0.00000000000E+00 -0.00000000000E+00 -0.21540196341E+02  0.21540196930E+02  0.50400000000E-02 0. -1.
        -24    2    1    2    0    0  0.00000000000E+00 -0.17763568394E-14  0.42071112971E+02  0.85151506292E+02  0.74032428552E+02 0.  0.
         66    2    3    3    0    0 -0.41361643840E+01  0.13745041354E+02  0.60261469891E+02  0.61979664187E+02  0.20000004184E+01 0.  0.
         13    1    3    3    0    0  0.41361643840E+01 -0.13745041354E+02 -0.18190356920E+02  0.23171842106E+02  0.10566000000E+00 0. -1.
         13    1    4    4    0    0 -0.62885139156E+00  0.25633279439E+01  0.93358627469E+01  0.97023503072E+01  0.10566000000E+00 0. -1.
        -13    1    4    4    0    0 -0.24379452124E+01  0.79611739971E+01  0.33077172706E+02  0.34109153999E+02  0.10566000000E+00 0.  1.
         14    1    4    4    0    0 -0.10693677801E+01  0.32205394135E+01  0.17848434438E+02  0.18168159881E+02  0.00000000000E+00 0. -1.
<mgrwt>
<rscale>  0 0.74032429E+02</rscale>
<asrwt>0</asrwt>
<pdfrwt beam="1">  1        1 0.33138765E-02 0.74032429E+02</pdfrwt>
<pdfrwt beam="2">  1       -2 0.97863552E-02 0.74032429E+02</pdfrwt>
<totfact> 0.14246055E+05</totfact>
</mgrwt>
</event>
<event>
 8    1  0.1241100E-020  0.8196089E+02  0.7818608E-02  0.1323577E+00
         -2   -1    0    0    0  501 -0.00000000000E+00  0.00000000000E+00  0.69830861355E+02  0.69830861401E+02  0.25500000000E-02 0.  1.
          1   -1    0    0  501    0  0.00000000000E+00 -0.00000000000E+00 -0.24049495743E+02  0.24049496271E+02  0.50400000000E-02 0. -1.
        -24    2    1    2    0    0  0.00000000000E+00  0.17763568394E-14  0.45781365612E+02  0.93880357673E+02  0.81960893843E+02 0.  0.
         66    2    3    3    0    0 -0.25667708543E+02  0.12053506776E+02  0.56753073222E+02  0.63474637497E+02  0.19999994587E+01 0.  0.
         13    1    3    3    0    0  0.25667708543E+02 -0.12053506776E+02 -0.10971707610E+02  0.30405720175E+02  0.10566000000E+00 0. -1.
         13    1    4    4    0    0 -0.17649971891E+01  0.11422452340E+01  0.33447769861E+01  0.39520420512E+01  0.10566000000E+00 0. -1.
        -13    1    4    4    0    0 -0.21704013180E+02  0.98610847546E+01  0.48620423044E+02  0.54150363634E+02  0.10566000000E+00 0.  1.
        -14    1    4    4    0    0 -0.21986981742E+01  0.10501767877E+01  0.47878731917E+01  0.53722318124E+01  0.00000000000E+00 0.  1.
<mgrwt>
<rscale>  0 0.81960894E+02</rscale>
<asrwt>0</asrwt>
<pdfrwt beam="1">  1        1 0.36999225E-02 0.81960894E+02</pdfrwt>
<pdfrwt beam="2">  1       -2 0.10743209E-01 0.81960894E+02</pdfrwt>
<totfact> 0.10810720E+05</totfact>
</mgrwt>
</event>
<event>
 8    1  0.1241100E-020  0.8724386E+02  0.7818608E-02  0.1309667E+00
          1   -1    0    0  501    0  0.00000000000E+00  0.00000000000E+00  0.48520180778E+02  0.48520181040E+02  0.50400000000E-02 0. -1.
         -2   -1    0    0    0  501 -0.00000000000E+00 -0.00000000000E+00 -0.39218174601E+02  0.39218174684E+02  0.25500000000E-02 0.  1.
        -24    2    1    2    0    0 -0.11102230246E-15  0.00000000000E+00  0.93020061770E+01  0.87738355724E+02  0.87243863660E+02 0.  0.
         66    2    3    3    0    0 -0.60564528850E+00  0.17654752755E+02 -0.35432371886E+02  0.39642276406E+02  0.20000000425E+01 0.  0.
         13    1    3    3    0    0  0.60564528850E+00 -0.17654752755E+02  0.44734378063E+02  0.48096079318E+02  0.10566000000E+00 0. -1.
         13    1    4    4    0    0 -0.47151360373E+00  0.24480898738E+01 -0.42419440061E+01  0.49214552823E+01  0.10566000000E+00 0. -1.
        -13    1    4    4    0    0 -0.51080543952E-01  0.12753355341E+02 -0.25102998315E+02  0.28157101593E+02  0.10566000000E+00 0.  1.
         14    1    4    4    0    0 -0.83051140817E-01  0.24533075399E+01 -0.60874295648E+01  0.65637195311E+01  0.00000000000E+00 0. -1.
<mgrwt>
<rscale>  0 0.87243864E+02</rscale>
<asrwt>0</asrwt>
<pdfrwt beam="1">  1        1 0.74646432E-02 0.87243864E+02</pdfrwt>
<pdfrwt beam="2">  1       -2 0.60335654E-02 0.87243864E+02</pdfrwt>
<totfact> 0.10266336E+05</totfact>
</mgrwt>
</event>
<event>
 8    1  0.1241100E-020  0.8262295E+02  0.7818608E-02  0.1321768E+00
          1   -1    0    0  501    0  0.00000000000E+00  0.00000000000E+00  0.47128122688E+02  0.47128122958E+02  0.50400000000E-02 0. -1.
         -2   -1    0    0    0  501 -0.00000000000E+00 -0.00000000000E+00 -0.36212733253E+02  0.36212733343E+02  0.25500000000E-02 0.  1.
        -24    2    1    2    0    0  0.00000000000E+00  0.00000000000E+00  0.10915389435E+02  0.83340856301E+02  0.82622954452E+02 0.  0.
         66    2    3    3    0    0  0.24142457749E+02  0.27143279207E+02 -0.14331465614E+02  0.39102516298E+02  0.20000004849E+01 0.  0.
         13    1    3    3    0    0 -0.24142457749E+02 -0.27143279207E+02  0.25246855049E+02  0.44238340002E+02  0.10566000000E+00 0. -1.
         13    1    4    4    0    0  0.26613663114E+01  0.25608294546E+01 -0.14264265916E+01  0.39606281062E+01  0.10566000000E+00 0. -1.
        -13    1    4    4    0    0  0.18326110305E+02  0.20247581327E+02 -0.10383583065E+02  0.29217132470E+02  0.10566000000E+00 0.  1.
         14    1    4    4    0    0  0.31549811325E+01  0.43348684260E+01 -0.25214559574E+01  0.59247557217E+01  0.00000000000E+00 0. -1.
<mgrwt>
<rscale>  0 0.82622954E+02</rscale>
<asrwt>0</asrwt>
<pdfrwt beam="1">  1        1 0.72504805E-02 0.82622954E+02</pdfrwt>
<pdfrwt beam="2">  1       -2 0.55711897E-02 0.82622954E+02</pdfrwt>
<totfact> 0.11909757E+05</totfact>
</mgrwt>
</event>
<event>
 8    1  0.1241100E-020  0.7965037E+02  0.7818608E-02  0.1330047E+00
         -2   -1    0    0    0  501 -0.00000000000E+00  0.00000000000E+00  0.25260743616E+02  0.25260743745E+02  0.25500000000E-02 0.  1.
          1   -1    0    0  501    0  0.00000000000E+00 -0.00000000000E+00 -0.62786963622E+02  0.62786963824E+02  0.50400000000E-02 0. -1.
        -24    2    1    2    0    0  0.17763568394E-14  0.00000000000E+00 -0.37526220006E+02  0.88047707569E+02  0.79650371125E+02 0.  0.
         66    2    3    3    0    0  0.14936236825E+02  0.34308324008E+02 -0.37847164304E+01  0.37662665203E+02  0.20000012450E+01 0.  0.
         13    1    3    3    0    0 -0.14936236825E+02 -0.34308324008E+02 -0.33741503575E+02  0.50385042367E+02  0.10566000000E+00 0. -1.
         13    1    4    4    0    0  0.50995791596E+01  0.10000581916E+02 -0.15163540886E+01  0.11328187852E+02  0.10566000000E+00 0. -1.
        -13    1    4    4    0    0  0.28510292839E+01  0.61067374786E+01 -0.67062845532E+00  0.67735896813E+01  0.10566000000E+00 0.  1.
         14    1    4    4    0    0  0.69856283814E+01  0.18201004614E+02 -0.15977338865E+01  0.19560887669E+02  0.00000000000E+00 0. -1.
<mgrwt>
<rscale>  0 0.79650371E+02</rscale>
<asrwt>0</asrwt>
<pdfrwt beam="1">  1        1 0.96595329E-02 0.79650371E+02</pdfrwt>
<pdfrwt beam="2">  1       -2 0.38862683E-02 0.79650371E+02</pdfrwt>
<totfact> 0.13800329E+05</totfact>
</mgrwt>
</event>
<event>
 8    1  0.1241100E-020  0.8272027E+02  0.7818608E-02  0.1321504E+00
         -2   -1    0    0    0  501 -0.00000000000E+00  0.00000000000E+00  0.11984584379E+02  0.11984584650E+02  0.25500000000E-02 0.  1.
          1   -1    0    0  501    0  0.00000000000E+00 -0.00000000000E+00 -0.14273842963E+03  0.14273842972E+03  0.50400000000E-02 0. -1.
        -24    2    1    2    0    0  0.17763568394E-14  0.00000000000E+00 -0.13075384525E+03  0.15472301437E+03  0.82720270354E+02 0.  0.
         66    2    3    3    0    0 -0.11530668705E+02  0.39461322293E+02 -0.73460846481E+02  0.84205986992E+02  0.20000004533E+01 0.  0.
         13    1    3    3    0    0  0.11530668705E+02 -0.39461322293E+02 -0.57292998772E+02  0.70517027378E+02  0.10566000000E+00 0. -1.
         13    1    4    4    0    0 -0.28320749057E+01  0.99001000229E+01 -0.19764453672E+02  0.22286260828E+02  0.10566000000E+00 0. -1.
        -13    1    4    4    0    0 -0.29171097447E+00  0.18507154710E+01 -0.32695066027E+01  0.37697586803E+01  0.10566000000E+00 0.  1.
         14    1    4    4    0    0 -0.84068828251E+01  0.27710506799E+02 -0.50426886206E+02  0.58149967484E+02  0.00000000000E+00 0. -1.
<mgrwt>
<rscale>  0 0.82720270E+02</rscale>
<asrwt>0</asrwt>
<pdfrwt beam="1">  1        1 0.21959757E-01 0.82720270E+02</pdfrwt>
<pdfrwt beam="2">  1       -2 0.18437823E-02 0.82720270E+02</pdfrwt>
<totfact> 0.14303897E+05</totfact>
</mgrwt>
</event>
<event>
 8    1  0.1241100E-020  0.7998333E+02  0.7818608E-02  0.1329099E+00
          1   -1    0    0  501    0  0.00000000000E+00  0.00000000000E+00  0.17578614758E+02  0.17578615480E+02  0.50400000000E-02 0. -1.
         -2   -1    0    0    0  501 -0.00000000000E+00 -0.00000000000E+00 -0.90981762472E+02  0.90981762508E+02  0.25500000000E-02 0.  1.
        -24    2    1    2    0    0  0.35527136788E-14  0.00000000000E+00 -0.73403147715E+02  0.10856037799E+03  0.79983333104E+02 0.  0.
         66    2    3    3    0    0  0.29483200345E+02  0.41508809043E+01 -0.72911878655E+02  0.78782174143E+02  0.19999997072E+01 0.  0.
         13    1    3    3    0    0 -0.29483200345E+02 -0.41508809043E+01 -0.49126905923E+00  0.29778203845E+02  0.10566000000E+00 0. -1.
         13    1    4    4    0    0  0.63139289476E+01  0.15808629177E+01 -0.16677346827E+02  0.17902789937E+02  0.10566000000E+00 0. -1.
        -13    1    4    4    0    0  0.91922025087E+01  0.11795776030E+01 -0.21528622324E+02  0.23438872274E+02  0.10566000000E+00 0.  1.
        -14    1    4    4    0    0  0.13977068889E+02  0.13904403835E+01 -0.34705909505E+02  0.37440511932E+02  0.00000000000E+00 0.  1.
<mgrwt>
<rscale>  0 0.79983333E+02</rscale>
<asrwt>0</asrwt>
<pdfrwt beam="1">  1        1 0.27044024E-02 0.79983333E+02</pdfrwt>
<pdfrwt beam="2">  1       -2 0.13997194E-01 0.79983333E+02</pdfrwt>
<totfact> 0.10863118E+05</totfact>
</mgrwt>
</event>
<event>
 8    1  0.1241100E-020  0.7691021E+02  0.7818608E-02  0.1338056E+00
          1   -1    0    0  501    0  0.00000000000E+00  0.00000000000E+00  0.19268833527E+03  0.19268833534E+03  0.50400000000E-02 0. -1.
         -2   -1    0    0    0  501 -0.00000000000E+00 -0.00000000000E+00 -0.76745440679E+01  0.76745444915E+01  0.25500000000E-02 0.  1.
        -24    2    1    2    0    0  0.00000000000E+00  0.35527136788E-14  0.18501379121E+03  0.20036287983E+03  0.76910211792E+02 0.  0.
         66    2    3    3    0    0 -0.28308275002E+02 -0.25803771810E+02  0.10063986415E+03  0.10770132468E+03  0.20000018040E+01 0.  0.
         13    1    3    3    0    0  0.28308275002E+02  0.25803771810E+02  0.84373927054E+02  0.92661555155E+02  0.10566000000E+00 0. -1.
         13    1    4    4    0    0 -0.16601788700E+01 -0.11962244072E+01  0.63262750172E+01  0.66498170156E+01  0.10566000000E+00 0. -1.
        -13    1    4    4    0    0 -0.19690983453E+02 -0.18035073619E+02  0.68447160451E+02  0.73471243678E+02  0.10566000000E+00 0.  1.
        -14    1    4    4    0    0 -0.69571126797E+01 -0.65724737836E+01  0.25866428684E+02  0.27580263982E+02  0.00000000000E+00 0.  1.
<mgrwt>
<rscale>  0 0.76910212E+02</rscale>
<asrwt>0</asrwt>
<pdfrwt beam="1">  1        1 0.29644356E-01 0.76910212E+02</pdfrwt>
<pdfrwt beam="2">  1       -2 0.11806992E-02 0.76910212E+02</pdfrwt>
<totfact> 0.18376176E+05</totfact>
</mgrwt>
</event>
<event>
 8    1  0.1241100E-020  0.7407809E+02  0.7818608E-02  0.1346750E+00
          1   -1    0    0  501    0  0.00000000000E+00  0.00000000000E+00  0.19594044995E+03  0.19594045001E+03  0.50400000000E-02 0. -1.
         -2   -1    0    0    0  501 -0.00000000000E+00 -0.00000000000E+00 -0.70015710166E+01  0.70015714810E+01  0.25500000000E-02 0.  1.
        -24    2    1    2    0    0  0.00000000000E+00  0.00000000000E+00  0.18893887893E+03  0.20294202150E+03  0.74078094712E+02 0.  0.
         66    2    3    3    0    0  0.43411747582E+01  0.34267169925E+02  0.58110968482E+02  0.67631127440E+02  0.20000019924E+01 0.  0.
         13    1    3    3    0    0 -0.43411747582E+01 -0.34267169925E+02  0.13082791045E+03  0.13531089406E+03  0.10566000000E+00 0. -1.
         13    1    4    4    0    0  0.14822724967E+00  0.44828453870E+00  0.90435140316E+00  0.10256441104E+01  0.10566000000E+00 0. -1.
        -13    1    4    4    0    0  0.20078608195E+01  0.10427988087E+02  0.17903256728E+02  0.20816152529E+02  0.10566000000E+00 0.  1.
        -14    1    4    4    0    0  0.21850866890E+01  0.23390897300E+02  0.39303360351E+02  0.45789330801E+02  0.00000000000E+00 0.  1.
<mgrwt>
<rscale>  0 0.74078095E+02</rscale>
<asrwt>0</asrwt>
<pdfrwt beam="1">  1        1 0.30144682E-01 0.74078095E+02</pdfrwt>
<pdfrwt beam="2">  1       -2 0.10771649E-02 0.74078095E+02</pdfrwt>
<totfact> 0.20352256E+05</totfact>
</mgrwt>
</event>
<event>
 8    1  0.1241100E-020  0.8046756E+02  0.7818608E-02  0.1327730E+00
          1   -1    0    0  501    0  0.00000000000E+00  0.00000000000E+00  0.32311631944E+03  0.32311631948E+03  0.50400000000E-02 0. -1.
         -2   -1    0    0    0  501 -0.00000000000E+00 -0.00000000000E+00 -0.50098278380E+01  0.50098284870E+01  0.25500000000E-02 0.  1.
        -24    2    1    2    0    0  0.00000000000E+00 -0.17763568394E-14  0.31810649160E+03  0.32812614797E+03  0.80467564769E+02 0.  0.
         66    2    3    3    0    0  0.38741586440E+02  0.10685778301E+02  0.16439854897E+03  0.16925123123E+03  0.19999973759E+01 0.  0.
         13    1    3    3    0    0 -0.38741586440E+02 -0.10685778301E+02  0.15370794263E+03  0.15887491674E+03  0.10566000000E+00 0. -1.
         13    1    4    4    0    0  0.13787413079E+02  0.32061400746E+01  0.55641318784E+02  0.57413758052E+02  0.10566000000E+00 0. -1.
        -13    1    4    4    0    0  0.12001179595E+02  0.39747705213E+01  0.53900138737E+02  0.55363013215E+02  0.10566000000E+00 0.  1.
        -14    1    4    4    0    0  0.12952993766E+02  0.35048677054E+01  0.54857091452E+02  0.56474459959E+02  0.00000000000E+00 0.  1.
<mgrwt>
<rscale>  0 0.80467565E+02</rscale>
<asrwt>0</asrwt>
<pdfrwt beam="1">  1        1 0.49710204E-01 0.80467565E+02</pdfrwt>
<pdfrwt beam="2">  1       -2 0.77074277E-03 0.80467565E+02</pdfrwt>
<totfact> 0.18016473E+05</totfact>
</mgrwt>
</event>
<event>
 8    1  0.1241100E-020  0.7907209E+02  0.7818608E-02  0.1331706E+00
         -2   -1    0    0    0  501 -0.00000000000E+00  0.00000000000E+00  0.37369641187E+02  0.37369641274E+02  0.25500000000E-02 0.  1.
          1   -1    0    0  501    0  0.00000000000E+00 -0.00000000000E+00 -0.41828042043E+02  0.41828042346E+02  0.50400000000E-02 0. -1.
        -24    2    1    2    0    0  0.00000000000E+00  0.71054273576E-14 -0.44584008555E+01  0.79197683621E+02  0.79072092123E+02 0.  0.
         66    2    3    3    0    0 -0.25880728730E+02 -0.28554563590E+02 -0.10957599663E+02  0.40115386214E+02  0.19999998207E+01 0.  0.
         13    1    3    3    0    0  0.25880728730E+02  0.28554563590E+02  0.64991988072E+01  0.39082297407E+02  0.10566000000E+00 0. -1.
         13    1    4    4    0    0 -0.13197452450E+01 -0.11137617837E+01 -0.54035502515E+00  0.18125508024E+01  0.10566000000E+00 0. -1.
        -13    1    4    4    0    0 -0.61002464279E+00 -0.93604435115E+00 -0.49962592532E+00  0.12284539849E+01  0.10566000000E+00 0.  1.
        -14    1    4    4    0    0 -0.23950958842E+02 -0.26504757455E+02 -0.99176187123E+01  0.37074381426E+02  0.00000000000E+00 0.  1.
<mgrwt>
<rscale>  0 0.79072092E+02</rscale>
<asrwt>0</asrwt>
<pdfrwt beam="1">  1        1 0.64350834E-02 0.79072092E+02</pdfrwt>
<pdfrwt beam="2">  1       -2 0.57491756E-02 0.79072092E+02</pdfrwt>
<totfact> 0.13215251E+05</totfact>
</mgrwt>
</event>
<event>
 8    1  0.1241100E-020  0.7889480E+02  0.7818608E-02  0.1332217E+00
          1   -1    0    0  501    0  0.00000000000E+00  0.00000000000E+00  0.14964468384E+02  0.14964469233E+02  0.50400000000E-02 0. -1.
         -2   -1    0    0    0  501 -0.00000000000E+00 -0.00000000000E+00 -0.10398612904E+03  0.10398612907E+03  0.25500000000E-02 0.  1.
        -24    2    1    2    0    0  0.00000000000E+00 -0.35527136788E-14 -0.89021660652E+02  0.11895059830E+03  0.78894795587E+02 0.  0.
         66    2    3    3    0    0 -0.29982377162E+02 -0.17890860988E+02 -0.72137742868E+02  0.80167822601E+02  0.19999968383E+01 0.  0.
         13    1    3    3    0    0  0.29982377162E+02  0.17890860988E+02 -0.16883917784E+02  0.38782775699E+02  0.10566000000E+00 0. -1.
         13    1    4    4    0    0 -0.85787201150E+01 -0.51473048735E+01 -0.19105303945E+02  0.21566478366E+02  0.10566000000E+00 0. -1.
        -13    1    4    4    0    0 -0.13563115926E+02 -0.76721193536E+01 -0.32249427904E+02  0.35816983306E+02  0.10566000000E+00 0.  1.
         14    1    4    4    0    0 -0.78405411208E+01 -0.50714367610E+01 -0.20783011019E+02  0.22784360929E+02  0.00000000000E+00 0. -1.
<mgrwt>
<rscale>  0 0.78894796E+02</rscale>
<asrwt>0</asrwt>
<pdfrwt beam="1">  1        1 0.23022260E-02 0.78894796E+02</pdfrwt>
<pdfrwt beam="2">  1       -2 0.15997866E-01 0.78894796E+02</pdfrwt>
<totfact> 0.10890056E+05</totfact>
</mgrwt>
</event>
<event>
 8    1  0.1241100E-020  0.8090065E+02  0.7818608E-02  0.1326515E+00
          1   -1    0    0  501    0  0.00000000000E+00  0.00000000000E+00  0.59869430902E+02  0.59869431114E+02  0.50400000000E-02 0. -1.
         -2   -1    0    0    0  501 -0.00000000000E+00 -0.00000000000E+00 -0.27329954427E+02  0.27329954546E+02  0.25500000000E-02 0.  1.
        -24    2    1    2    0    0  0.00000000000E+00  0.00000000000E+00  0.32539476474E+02  0.87199385660E+02  0.80900650988E+02 0.  0.
         66    2    3    3    0    0 -0.25759933375E+02 -0.12638062291E+02 -0.14414300963E+02  0.32172454384E+02  0.19999907182E+01 0.  0.
         13    1    3    3    0    0  0.25759933375E+02  0.12638062291E+02  0.46953777437E+02  0.55026931276E+02  0.10566000000E+00 0. -1.
         13    1    4    4    0    0 -0.34977219287E+01 -0.14553057412E+01 -0.15802646550E+01  0.41061385639E+01  0.10566000000E+00 0. -1.
        -13    1    4    4    0    0 -0.13587363477E+02 -0.75785485387E+01 -0.83444941008E+01  0.17654817758E+02  0.10566000000E+00 0.  1.
        -14    1    4    4    0    0 -0.86748479693E+01 -0.36042080115E+01 -0.44895422072E+01  0.10411498063E+02  0.00000000000E+00 0.  1.
<mgrwt>
<rscale>  0 0.80900651E+02</rscale>
<asrwt>0</asrwt>
<pdfrwt beam="1">  1        1 0.92106817E-02 0.80900651E+02</pdfrwt>
<pdfrwt beam="2">  1       -2 0.42046084E-02 0.80900651E+02</pdfrwt>
<totfact> 0.13122190E+05</totfact>
</mgrwt>
</event>
<event>
 8    1  0.1252474E-020  0.7195839E+02  0.7818608E-02  0.1353557E+00
         -2   -1    0    0    0  501 -0.00000000000E+00  0.00000000000E+00  0.76740369218E+02  0.76740369260E+02  0.25500000000E-02 0.  1.
          1   -1    0    0  501    0  0.00000000000E+00 -0.00000000000E+00 -0.16868595835E+02  0.16868596588E+02  0.50400000000E-02 0. -1.
        -24    2    1    2    0    0  0.00000000000E+00 -0.35527136788E-14  0.59871773382E+02  0.93608965848E+02  0.71958385469E+02 0.  0.
         66    2    3    3    0    0 -0.18858313013E+01  0.25526673740E+02  0.62800088764E+02  0.67845549403E+02  0.19999982804E+01 0.  0.
         13    1    3    3    0    0  0.18858313013E+01 -0.25526673740E+02 -0.29283153815E+01  0.25763416446E+02  0.10566000000E+00 0. -1.
         13    1    4    4    0    0 -0.46058085251E+00  0.93510371907E+01  0.22459905335E+02  0.24333362755E+02  0.10566000000E+00 0. -1.
        -13    1    4    4    0    0 -0.13714605791E+01  0.16158469212E+02  0.39919879668E+02  0.43088107270E+02  0.10566000000E+00 0.  1.
         14    1    4    4    0    0 -0.53789869694E-01  0.17167337984E-01  0.42030376097E+00  0.42407937825E+00  0.00000000000E+00 0. -1.
<mgrwt>
<rscale>  0 0.71958385E+02</rscale>
<asrwt>0</asrwt>
<pdfrwt beam="1">  1        1 0.25951687E-02 0.71958385E+02</pdfrwt>
<pdfrwt beam="2">  1       -2 0.11806210E-01 0.71958385E+02</pdfrwt>
<totfact> 0.14755428E+05</totfact>
</mgrwt>
</event>
<event>
 8    1  0.1241100E-020  0.7907175E+02  0.7818608E-02  0.1331707E+00
          1   -1    0    0  501    0  0.00000000000E+00  0.00000000000E+00  0.29947978268E+03  0.29947978272E+03  0.50400000000E-02 0. -1.
         -2   -1    0    0    0  501 -0.00000000000E+00 -0.00000000000E+00 -0.52193347894E+01  0.52193354124E+01  0.25500000000E-02 0.  1.
        -24    2    1    2    0    0  0.71054273576E-14 -0.44408920985E-15  0.29426044789E+03  0.30469911813E+03  0.79071748427E+02 0.  0.
         66    2    3    3    0    0 -0.39334476317E+02  0.24713901997E+01  0.15796658799E+03  0.16282122625E+03  0.19999994568E+01 0.  0.
         13    1    3    3    0    0  0.39334476317E+02 -0.24713901997E+01  0.13629385989E+03  0.14187789188E+03  0.10566000000E+00 0. -1.
         13    1    4    4    0    0 -0.34898520780E+02  0.26760213723E+01  0.14050003226E+03  0.14479412306E+03  0.10566000000E+00 0. -1.
        -13    1    4    4    0    0 -0.23506717306E+01 -0.18357422730E-01  0.99465079615E+01  0.10221065465E+02  0.10566000000E+00 0.  1.
         14    1    4    4    0    0 -0.20852838065E+01 -0.18627374989E+00  0.75200477684E+01  0.78060377210E+01  0.00000000000E+00 0. -1.
<mgrwt>
<rscale>  0 0.79071748E+02</rscale>
<asrwt>0</asrwt>
<pdfrwt beam="1">  1        1 0.46073816E-01 0.79071748E+02</pdfrwt>
<pdfrwt beam="2">  1       -2 0.80297457E-03 0.79071748E+02</pdfrwt>
<totfact> 0.18598876E+05</totfact>
</mgrwt>
</event>
<event>
 8    1  0.1241100E-020  0.7869242E+02  0.7818608E-02  0.1332804E+00
         -2   -1    0    0    0  501 -0.00000000000E+00  0.00000000000E+00  0.34471844751E+02  0.34471844845E+02  0.25500000000E-02 0.  1.
          1   -1    0    0  501    0  0.00000000000E+00 -0.00000000000E+00 -0.44909819932E+02  0.44909820215E+02  0.50400000000E-02 0. -1.
        -24    2    1    2    0    0 -0.71054273576E-14  0.00000000000E+00 -0.10437975181E+02  0.79381665059E+02  0.78692422899E+02 0.  0.
         66    2    3    3    0    0 -0.33642757571E+02 -0.18645325737E+02 -0.13456941761E+02  0.40799173796E+02  0.19999980100E+01 0.  0.
         13    1    3    3    0    0  0.33642757571E+02  0.18645325737E+02  0.30189665798E+01  0.38582491263E+02  0.10566000000E+00 0. -1.
         13    1    4    4    0    0 -0.24529216075E+02 -0.14139847378E+02 -0.99803039617E+01  0.30020582212E+02  0.10566000000E+00 0. -1.
        -13    1    4    4    0    0 -0.52804251550E+01 -0.30525958159E+01 -0.19493164210E+01  0.64040791358E+01  0.10566000000E+00 0.  1.
         14    1    4    4    0    0 -0.38331163409E+01 -0.14528825433E+01 -0.15273213784E+01  0.43745124483E+01  0.00000000000E+00 0. -1.
<mgrwt>
<rscale>  0 0.78692423E+02</rscale>
<asrwt>0</asrwt>
<pdfrwt beam="1">  1        1 0.69092031E-02 0.78692423E+02</pdfrwt>
<pdfrwt beam="2">  1       -2 0.53033607E-02 0.78692423E+02</pdfrwt>
<totfact> 0.13545243E+05</totfact>
</mgrwt>
</event>
<event>
 8    1  0.1241100E-020  0.7269218E+02  0.7818608E-02  0.1351170E+00
          1   -1    0    0  501    0  0.00000000000E+00  0.00000000000E+00  0.89488109512E+02  0.89488109654E+02  0.50400000000E-02 0. -1.
         -2   -1    0    0    0  501 -0.00000000000E+00 -0.00000000000E+00 -0.14762165621E+02  0.14762165841E+02  0.25500000000E-02 0.  1.
        -24    2    1    2    0    0 -0.35527136788E-14  0.00000000000E+00  0.74725943891E+02  0.10425027549E+03  0.72692181494E+02 0.  0.
         66    2    3    3    0    0 -0.20382280410E+02 -0.10180681123E+02 -0.31709670073E+01  0.23089795491E+02  0.20000003123E+01 0.  0.
         13    1    3    3    0    0  0.20382280410E+02  0.10180681123E+02  0.77896910898E+02  0.81160480003E+02  0.10566000000E+00 0. -1.
         13    1    4    4    0    0 -0.11815222042E+02 -0.65995306569E+01 -0.20386449081E+01  0.13686508462E+02  0.10566000000E+00 0. -1.
        -13    1    4    4    0    0 -0.11346995683E+01 -0.80472289415E+00 -0.28766665979E+00  0.14244431155E+01  0.10566000000E+00 0.  1.
        -14    1    4    4    0    0 -0.74323587997E+01 -0.27764275718E+01 -0.84465543935E+00  0.79788439138E+01  0.00000000000E+00 0.  1.
<mgrwt>
<rscale>  0 0.72692181E+02</rscale>
<asrwt>0</asrwt>
<pdfrwt beam="1">  1        1 0.13767401E-01 0.72692181E+02</pdfrwt>
<pdfrwt beam="2">  1       -2 0.22711024E-02 0.72692181E+02</pdfrwt>
<totfact> 0.18676761E+05</totfact>
</mgrwt>
</event>
<event>
 8    1  0.1241100E-020  0.7768416E+02  0.7818608E-02  0.1335755E+00
         -2   -1    0    0    0  501 -0.00000000000E+00  0.00000000000E+00  0.29156031822E+03  0.29156031823E+03  0.25500000000E-02 0.  1.
          1   -1    0    0  501    0  0.00000000000E+00 -0.00000000000E+00 -0.51745959051E+01  0.51745983596E+01  0.50400000000E-02 0. -1.
        -24    2    1    2    0    0 -0.22551405188E-16  0.00000000000E+00  0.28638572231E+03  0.29673491659E+03  0.77684160408E+02 0.  0.
         66    2    3    3    0    0 -0.12975939150E-01  0.23140419427E+02  0.26232826307E+03  0.26335450783E+03  0.20000022737E+01 0.  0.
         13    1    3    3    0    0  0.12975939150E-01 -0.23140419427E+02  0.24057459241E+02  0.33380408757E+02  0.10566000000E+00 0. -1.
         13    1    4    4    0    0  0.61789154741E+00  0.37569444016E+01  0.46332744997E+02  0.46489040044E+02  0.10566000000E+00 0. -1.
        -13    1    4    4    0    0 -0.21711378573E+00  0.35604060303E+01  0.42251203790E+02  0.42401639299E+02  0.10566000000E+00 0.  1.
         14    1    4    4    0    0 -0.41375370083E+00  0.15823068995E+02  0.17374431428E+03  0.17446382849E+03  0.00000000000E+00 0. -1.
<mgrwt>
<rscale>  0 0.77684160E+02</rscale>
<asrwt>0</asrwt>
<pdfrwt beam="1">  1        1 0.79609178E-03 0.77684160E+02</pdfrwt>
<pdfrwt beam="2">  1       -2 0.44855439E-01 0.77684160E+02</pdfrwt>
<totfact> 0.76977649E+04</totfact>
</mgrwt>
</event>
<event>
 8    1  0.1241100E-020  0.7841504E+02  0.7818608E-02  0.1333610E+00
          1   -1    0    0  501    0  0.00000000000E+00  0.00000000000E+00  0.16779068210E+03  0.16779068218E+03  0.50400000000E-02 0. -1.
         -2   -1    0    0    0  501 -0.00000000000E+00 -0.00000000000E+00 -0.91615914608E+01  0.91615918157E+01  0.25500000000E-02 0.  1.
        -24    2    1    2    0    0  0.00000000000E+00  0.00000000000E+00  0.15862909064E+03  0.17695227399E+03  0.78415042395E+02 0.  0.
         66    2    3    3    0    0  0.33937509634E+02  0.12158115035E+02  0.44724958051E+02  0.57479528538E+02  0.20000017597E+01 0.  0.
         13    1    3    3    0    0 -0.33937509634E+02 -0.12158115035E+02  0.11390413259E+03  0.11947274546E+03  0.10566000000E+00 0. -1.
         13    1    4    4    0    0  0.20120458383E+01  0.58927713077E+00  0.23705974989E+01  0.31664605682E+01  0.10566000000E+00 0. -1.
        -13    1    4    4    0    0  0.10340587109E+02  0.32039834852E+01  0.12534606756E+02  0.16562632112E+02  0.10566000000E+00 0.  1.
        -14    1    4    4    0    0  0.21584876686E+02  0.83648544188E+01  0.29819753796E+02  0.37750435858E+02  0.00000000000E+00 0.  1.
<mgrwt>
<rscale>  0 0.78415042E+02</rscale>
<asrwt>0</asrwt>
<pdfrwt beam="1">  1        1 0.25813948E-01 0.78415042E+02</pdfrwt>
<pdfrwt beam="2">  1       -2 0.14094758E-02 0.78415042E+02</pdfrwt>
<totfact> 0.17004105E+05</totfact>
</mgrwt>
</event>
<event>
 8    1  0.1241100E-020  0.7816665E+02  0.7818608E-02  0.1334336E+00
          1   -1    0    0  501    0  0.00000000000E+00  0.00000000000E+00  0.10003031902E+02  0.10003033172E+02  0.50400000000E-02 0. -1.
         -2   -1    0    0    0  501 -0.00000000000E+00 -0.00000000000E+00 -0.15270432061E+03  0.15270432063E+03  0.25500000000E-02 0.  1.
        -24    2    1    2    0    0 -0.35527136788E-14  0.35527136788E-14 -0.14270128871E+03  0.16270735380E+03  0.78166650066E+02 0.  0.
         66    2    3    3    0    0 -0.20621816209E+02 -0.20335186043E+02 -0.12594489995E+03  0.12924742518E+03  0.19999992909E+01 0.  0.
         13    1    3    3    0    0  0.20621816209E+02  0.20335186043E+02 -0.16756388757E+02  0.33459928622E+02  0.10566000000E+00 0. -1.
         13    1    4    4    0    0 -0.17114040576E+00 -0.77074905978E-01 -0.58308404505E+00  0.62159522103E+00  0.10566000000E+00 0.  1.
        -13    1    4    4    0    0 -0.35726013945E+01 -0.35736949455E+01 -0.23003585580E+02  0.23552301158E+02  0.10566000000E+00 0.  1.
         14    1    4    4    0    0 -0.16878074409E+02 -0.16684416191E+02 -0.10235823033E+03  0.10507352880E+03  0.00000000000E+00 0. -1.
<mgrwt>
<rscale>  0 0.78166650E+02</rscale>
<asrwt>0</asrwt>
<pdfrwt beam="1">  1        1 0.15389282E-02 0.78166650E+02</pdfrwt>
<pdfrwt beam="2">  1       -2 0.23492971E-01 0.78166650E+02</pdfrwt>
<totfact> 0.99727136E+04</totfact>
</mgrwt>
</event>
<event>
 8    1  0.1241100E-020  0.8086499E+02  0.7818608E-02  0.1326614E+00
          1   -1    0    0  501    0  0.00000000000E+00  0.00000000000E+00  0.34506576508E+03  0.34506576511E+03  0.50400000000E-02 0. -1.
         -2   -1    0    0    0  501 -0.00000000000E+00 -0.00000000000E+00 -0.47376090764E+01  0.47376097627E+01  0.25500000000E-02 0.  1.
        -24    2    1    2    0    0  0.00000000000E+00  0.00000000000E+00  0.34032815600E+03  0.34980337488E+03  0.80864994331E+02 0.  0.
         66    2    3    3    0    0  0.25607228750E+02  0.30744676876E+02  0.14586787604E+03  0.15126930484E+03  0.20000011648E+01 0.  0.
         13    1    3    3    0    0 -0.25607228750E+02 -0.30744676876E+02  0.19446027996E+03  0.19853407004E+03  0.10566000000E+00 0. -1.
         13    1    4    4    0    0  0.24041698169E+01  0.29732088215E+01  0.15780745948E+02  0.16237706424E+02  0.10566000000E+00 0. -1.
        -13    1    4    4    0    0  0.22983699864E+02  0.27542601786E+02  0.12851007202E+03  0.13342299332E+03  0.10566000000E+00 0.  1.
        -14    1    4    4    0    0  0.21935906913E+00  0.22886626917E+00  0.15770580757E+01  0.16086050928E+01  0.00000000000E+00 0.  1.
<mgrwt>
<rscale>  0 0.80864994E+02</rscale>
<asrwt>0</asrwt>
<pdfrwt beam="1">  1        1 0.53087034E-01 0.80864994E+02</pdfrwt>
<pdfrwt beam="2">  1       -2 0.72886308E-03 0.80864994E+02</pdfrwt>
<totfact> 0.17999310E+05</totfact>
</mgrwt>
</event>
<event>
 8    1  0.1241100E-020  0.8250671E+02  0.7818608E-02  0.1322085E+00
          1   -1    0    0  501    0  0.00000000000E+00  0.00000000000E+00  0.37059578565E+02  0.37059578908E+02  0.50400000000E-02 0. -1.
         -2   -1    0    0    0  501 -0.00000000000E+00 -0.00000000000E+00 -0.45921715390E+02  0.45921715461E+02  0.25500000000E-02 0.  1.
        -24    2    1    2    0    0  0.17763568394E-14  0.71054273576E-14 -0.88621368246E+01  0.82981294369E+02  0.82506713339E+02 0.  0.
         66    2    3    3    0    0 -0.12798959951E+02 -0.35338318500E+02 -0.21478842078E+02  0.43335329306E+02  0.19999947098E+01 0.  0.
         13    1    3    3    0    0  0.12798959951E+02  0.35338318500E+02  0.12616705254E+02  0.39645965062E+02  0.10566000000E+00 0. -1.
         13    1    4    4    0    0 -0.91948839004E+01 -0.26858523156E+02 -0.16594436361E+02  0.32883318540E+02  0.10566000000E+00 0.  1.
        -13    1    4    4    0    0 -0.34037429197E+01 -0.80123153939E+01 -0.47832776345E+01  0.99334572430E+01  0.10566000000E+00 0. -1.
         14    1    4    4    0    0 -0.20033313113E+00 -0.46747994998E+00 -0.10112808318E+00  0.51855352305E+00  0.00000000000E+00 0. -1.
<mgrwt>
<rscale>  0 0.82506713E+02</rscale>
<asrwt>0</asrwt>
<pdfrwt beam="1">  1        1 0.57014737E-02 0.82506713E+02</pdfrwt>
<pdfrwt beam="2">  1       -2 0.70648793E-02 0.82506713E+02</pdfrwt>
<totfact> 0.11487489E+05</totfact>
</mgrwt>
</event>
<event>
 8    1  0.1241100E-020  0.7739818E+02  0.7818608E-02  0.1336601E+00
          1   -1    0    0  501    0  0.00000000000E+00  0.00000000000E+00  0.28982922057E+02  0.28982922495E+02  0.50400000000E-02 0. -1.
         -2   -1    0    0    0  501 -0.00000000000E+00 -0.00000000000E+00 -0.51672480105E+02  0.51672480168E+02  0.25500000000E-02 0.  1.
        -24    2    1    2    0    0  0.00000000000E+00  0.00000000000E+00 -0.22689558049E+02  0.80655402663E+02  0.77398177849E+02 0.  0.
         66    2    3    3    0    0 -0.14187536158E+02  0.46023670815E+01 -0.48535119759E+02  0.50814622024E+02  0.19999991250E+01 0.  0.
         13    1    3    3    0    0  0.14187536158E+02 -0.46023670815E+01  0.25845561710E+02  0.29840780639E+02  0.10566000000E+00 0. -1.
         13    1    4    4    0    0 -0.16057521582E+01  0.27991334141E+00 -0.72586368663E+01  0.74401454734E+01  0.10566000000E+00 0. -1.
        -13    1    4    4    0    0 -0.22943789192E+01  0.58435496034E+00 -0.66921676982E+01  0.70994308138E+01  0.10566000000E+00 0.  1.
         14    1    4    4    0    0 -0.10287405080E+02  0.37380987798E+01 -0.34584315194E+02  0.36275045737E+02  0.00000000000E+00 0. -1.
<mgrwt>
<rscale>  0 0.77398178E+02</rscale>
<asrwt>0</asrwt>
<pdfrwt beam="1">  1        1 0.44589111E-02 0.77398178E+02</pdfrwt>
<pdfrwt beam="2">  1       -2 0.79496123E-02 0.77398178E+02</pdfrwt>
<totfact> 0.13217803E+05</totfact>
</mgrwt>
</event>
<event>
 8    1  0.1241100E-020  0.7939397E+02  0.7818608E-02  0.1330780E+00
         -2   -1    0    0    0  501 -0.00000000000E+00  0.00000000000E+00  0.38296998385E+02  0.38296998469E+02  0.25500000000E-02 0.  1.
          1   -1    0    0  501    0  0.00000000000E+00 -0.00000000000E+00 -0.41148146174E+02  0.41148146483E+02  0.50400000000E-02 0. -1.
        -24    2    1    2    0    0  0.00000000000E+00 -0.35527136788E-14 -0.28511477897E+01  0.79445144952E+02  0.79393967106E+02 0.  0.
         66    2    3    3    0    0  0.27729619772E+02  0.16597611180E+02  0.21597768002E+02  0.38921409229E+02  0.20000010310E+01 0.  0.
         13    1    3    3    0    0 -0.27729619772E+02 -0.16597611180E+02 -0.24448915792E+02  0.40523735724E+02  0.10566000000E+00 0. -1.
         13    1    4    4    0    0  0.84111223859E+01  0.44654350474E+01  0.72411887219E+01  0.11963823306E+02  0.10566000000E+00 0. -1.
        -13    1    4    4    0    0  0.69960216796E+01  0.44117922020E+01  0.49690694691E+01  0.96494064688E+01  0.10566000000E+00 0.  1.
         14    1    4    4    0    0  0.12322475706E+02  0.77203839306E+01  0.93875098112E+01  0.17308179454E+02  0.00000000000E+00 0. -1.
<mgrwt>
<rscale>  0 0.79393967E+02</rscale>
<asrwt>0</asrwt>
<pdfrwt beam="1">  1        1 0.63304840E-02 0.79393967E+02</pdfrwt>
<pdfrwt beam="2">  1       -2 0.58918460E-02 0.79393967E+02</pdfrwt>
<totfact> 0.13031376E+05</totfact>
</mgrwt>
</event>
<event>
 8    1  0.1241100E-020  0.7931050E+02  0.7818608E-02  0.1331020E+00
          1   -1    0    0  501    0  0.00000000000E+00  0.00000000000E+00  0.21206051828E+02  0.21206052427E+02  0.50400000000E-02 0. -1.
         -2   -1    0    0    0  501 -0.00000000000E+00 -0.00000000000E+00 -0.74155182727E+02  0.74155182771E+02  0.25500000000E-02 0.  1.
        -24    2    1    2    0    0  0.00000000000E+00  0.00000000000E+00 -0.52949130899E+02  0.95361235198E+02  0.79310495620E+02 0.  0.
         66    2    3    3    0    0  0.27585674033E+02 -0.11120250744E+02 -0.57981377131E+02  0.65195624735E+02  0.20000005043E+01 0.  0.
         13    1    3    3    0    0 -0.27585674033E+02  0.11120250744E+02  0.50322462323E+01  0.30165610464E+02  0.10566000000E+00 0. -1.
         13    1    4    4    0    0  0.10515397889E+02 -0.39364439472E+01 -0.23143256304E+02  0.25723348540E+02  0.10566000000E+00 0. -1.
        -13    1    4    4    0    0  0.12084402669E+02 -0.55526380368E+01 -0.25605720822E+02  0.28853573086E+02  0.10566000000E+00 0.  1.
        -14    1    4    4    0    0  0.49858734750E+01 -0.16311687600E+01 -0.92324000055E+01  0.10618703108E+02  0.00000000000E+00 0.  1.
<mgrwt>
<rscale>  0 0.79310496E+02</rscale>
<asrwt>0</asrwt>
<pdfrwt beam="1">  1        1 0.32624696E-02 0.79310496E+02</pdfrwt>
<pdfrwt beam="2">  1       -2 0.11408489E-01 0.79310496E+02</pdfrwt>
<totfact> 0.11609594E+05</totfact>
</mgrwt>
</event>
<event>
 8    1  0.1241100E-020  0.8106850E+02  0.7818608E-02  0.1326046E+00
         -2   -1    0    0    0  501 -0.00000000000E+00  0.00000000000E+00  0.14295967066E+03  0.14295967068E+03  0.25500000000E-02 0.  1.
          1   -1    0    0  501    0  0.00000000000E+00 -0.00000000000E+00 -0.11492929312E+02  0.11492930417E+02  0.50400000000E-02 0. -1.
        -24    2    1    2    0    0 -0.88817841970E-15  0.00000000000E+00  0.13146674135E+03  0.15445260110E+03  0.81068501318E+02 0.  0.
         66    2    3    3    0    0  0.72573707638E+01 -0.38782283474E+02  0.83264468810E+02  0.92161308099E+02  0.20000006008E+01 0.  0.
         13    1    3    3    0    0 -0.72573707638E+01  0.38782283474E+02  0.48202272535E+02  0.62291292998E+02  0.10566000000E+00 0. -1.
         13    1    4    4    0    0  0.56721587746E+01 -0.31058285864E+02  0.65440082317E+02  0.72658145060E+02  0.10566000000E+00 0. -1.
        -13    1    4    4    0    0  0.12048455338E+01 -0.65812489001E+01  0.15576319001E+02  0.16952798221E+02  0.10566000000E+00 0.  1.
         14    1    4    4    0    0  0.38036645540E+00 -0.11427487102E+01  0.22480674922E+01  0.25503648179E+01  0.00000000000E+00 0. -1.
<mgrwt>
<rscale>  0 0.81068501E+02</rscale>
<asrwt>0</asrwt>
<pdfrwt beam="1">  1        1 0.17681431E-02 0.81068501E+02</pdfrwt>
<pdfrwt beam="2">  1       -2 0.21993795E-01 0.81068501E+02</pdfrwt>
<totfact> 0.92767759E+04</totfact>
</mgrwt>
</event>
<event>
 8    1  0.1241100E-020  0.7864363E+02  0.7818608E-02  0.1332945E+00
         -2   -1    0    0    0  501 -0.00000000000E+00  0.00000000000E+00  0.12363301400E+02  0.12363301663E+02  0.25500000000E-02 0.  1.
          1   -1    0    0  501    0  0.00000000000E+00 -0.00000000000E+00 -0.12506408955E+03  0.12506408965E+03  0.50400000000E-02 0. -1.
        -24    2    1    2    0    0  0.00000000000E+00  0.35527136788E-14 -0.11270078815E+03  0.13742739131E+03  0.78643628057E+02 0.  0.
         66    2    3    3    0    0  0.22189358348E+02  0.31706232100E+02 -0.44464514727E+02  0.58980893926E+02  0.20000001243E+01 0.  0.
         13    1    3    3    0    0 -0.22189358348E+02 -0.31706232100E+02 -0.68236273420E+02  0.78446497387E+02  0.10566000000E+00 0. -1.
         13    1    4    4    0    0  0.47471505265E+01  0.66240485839E+01 -0.10311717790E+02  0.13143673215E+02  0.10566000000E+00 0. -1.
        -13    1    4    4    0    0  0.12167697519E+02  0.18381317395E+02 -0.24564121414E+02  0.33005043810E+02  0.10566000000E+00 0.  1.
        -14    1    4    4    0    0  0.52745103031E+01  0.67008661218E+01 -0.95886755233E+01  0.12832176901E+02  0.00000000000E+00 0.  1.
<mgrwt>
<rscale>  0 0.78643628E+02</rscale>
<asrwt>0</asrwt>
<pdfrwt beam="1">  1        1 0.19240628E-01 0.78643628E+02</pdfrwt>
<pdfrwt beam="2">  1       -2 0.19020465E-02 0.78643628E+02</pdfrwt>
<totfact> 0.15994259E+05</totfact>
</mgrwt>
</event>
<event>
 8    1  0.1241100E-020  0.7977771E+02  0.7818608E-02  0.1329683E+00
         -2   -1    0    0    0  501 -0.00000000000E+00  0.00000000000E+00  0.42336615423E+03  0.42336615423E+03  0.25500000000E-02 0.  1.
          1   -1    0    0  501    0  0.00000000000E+00 -0.00000000000E+00 -0.37582599904E+01  0.37582633698E+01  0.50400000000E-02 0. -1.
        -24    2    1    2    0    0  0.00000000000E+00 -0.88817841970E-15  0.41960789424E+03  0.42712441760E+03  0.79777711225E+02 0.  0.
         66    2    3    3    0    0  0.38234590828E+02 -0.54680179322E+01  0.26275590048E+03  0.26558698459E+03  0.19999974484E+01 0.  0.
         13    1    3    3    0    0 -0.38234590828E+02  0.54680179322E+01  0.15685199375E+03  0.16153743301E+03  0.10566000000E+00 0. -1.
         13    1    4    4    0    0  0.75669067803E+01 -0.13146892044E+01  0.48258211391E+02  0.48865658868E+02  0.10566000000E+00 0. -1.
        -13    1    4    4    0    0  0.22997145106E+02 -0.26656996778E+01  0.16107405872E+03  0.16272934030E+03  0.10566000000E+00 0.  1.
        -14    1    4    4    0    0  0.76705389423E+01 -0.14876290500E+01  0.53423630374E+02  0.53991985426E+02  0.00000000000E+00 0.  1.
<mgrwt>
<rscale>  0 0.79777711E+02</rscale>
<asrwt>0</asrwt>
<pdfrwt beam="1">  1        1 0.57819463E-03 0.79777711E+02</pdfrwt>
<pdfrwt beam="2">  1       -2 0.65133196E-01 0.79777711E+02</pdfrwt>
<totfact> 0.57280323E+04</totfact>
</mgrwt>
</event>
<event>
 8    1  0.1241100E-020  0.8022379E+02  0.7818608E-02  0.1328418E+00
         -2   -1    0    0    0  501 -0.00000000000E+00  0.00000000000E+00  0.37112837416E+01  0.37112846176E+01  0.25500000000E-02 0.  1.
          1   -1    0    0  501    0  0.00000000000E+00 -0.00000000000E+00 -0.43353296689E+03  0.43353296692E+03  0.50400000000E-02 0. -1.
        -24    2    1    2    0    0  0.00000000000E+00  0.00000000000E+00 -0.42982168315E+03  0.43724425154E+03  0.80223788228E+02 0.  0.
         66    2    3    3    0    0 -0.19081377046E+02 -0.35253064964E+02 -0.21348761787E+03  0.21722762375E+03  0.19999991101E+01 0.  0.
         13    1    3    3    0    0  0.19081377046E+02  0.35253064964E+02 -0.21633406528E+03  0.22001662779E+03  0.10566000000E+00 0. -1.
         13    1    4    4    0    0 -0.14692072373E+02 -0.25811596183E+02 -0.15850129936E+03  0.16125994094E+03  0.10566000000E+00 0.  1.
        -13    1    4    4    0    0 -0.42109450841E+01 -0.88802490453E+01 -0.51047571308E+02  0.51985157325E+02  0.10566000000E+00 0. -1.
        -14    1    4    4    0    0 -0.17835958975E+00 -0.56121973559E+00 -0.39387471990E+01  0.39825254842E+01  0.00000000000E+00 0.  1.
<mgrwt>
<rscale>  0 0.80223788E+02</rscale>
<asrwt>0</asrwt>
<pdfrwt beam="1">  1        1 0.66697340E-01 0.80223788E+02</pdfrwt>
<pdfrwt beam="2">  1       -2 0.57096714E-03 0.80223788E+02</pdfrwt>
<totfact> 0.19094501E+05</totfact>
</mgrwt>
</event>
<event>
 8    1  0.1241100E-020  0.7960590E+02  0.7818608E-02  0.1330174E+00
         -2   -1    0    0    0  501 -0.00000000000E+00  0.00000000000E+00  0.18925875214E+02  0.18925875386E+02  0.25500000000E-02 0.  1.
          1   -1    0    0  501    0  0.00000000000E+00 -0.00000000000E+00 -0.83709467732E+02  0.83709467884E+02  0.50400000000E-02 0. -1.
        -24    2    1    2    0    0  0.00000000000E+00  0.88817841970E-15 -0.64783592518E+02  0.10263534327E+03  0.79605903228E+02 0.  0.
         66    2    3    3    0    0  0.32394805947E+02  0.72439419965E+01 -0.41542486271E+01  0.33513518550E+02  0.19999989816E+01 0.  0.
         13    1    3    3    0    0 -0.32394805947E+02 -0.72439419965E+01 -0.60629343891E+02  0.69121824720E+02  0.10566000000E+00 0. -1.
         13    1    4    4    0    0  0.66268493337E+00  0.19933843101E+00 -0.19055518072E+00  0.72550840346E+00  0.10566000000E+00 0.  1.
        -13    1    4    4    0    0  0.27213397251E+02  0.60566654087E+01 -0.28089784085E+01  0.28020594383E+02  0.10566000000E+00 0.  1.
        -14    1    4    4    0    0  0.45187237627E+01  0.98793815682E+00 -0.11547150380E+01  0.47674157637E+01  0.00000000000E+00 0.  1.
<mgrwt>
<rscale>  0 0.79605903E+02</rscale>
<asrwt>0</asrwt>
<pdfrwt beam="1">  1        1 0.12878380E-01 0.79605903E+02</pdfrwt>
<pdfrwt beam="2">  1       -2 0.29116732E-02 0.79605903E+02</pdfrwt>
<totfact> 0.14466547E+05</totfact>
</mgrwt>
</event>
<event>
 8    1  0.1241100E-020  0.8009492E+02  0.7818608E-02  0.1328782E+00
          1   -1    0    0  501    0  0.00000000000E+00  0.00000000000E+00  0.47366218220E+02  0.47366218488E+02  0.50400000000E-02 0. -1.
         -2   -1    0    0    0  501 -0.00000000000E+00 -0.00000000000E+00 -0.33859551697E+02  0.33859551793E+02  0.25500000000E-02 0.  1.
        -24    2    1    2    0    0  0.71054273576E-14  0.00000000000E+00  0.13506666523E+02  0.81225770281E+02  0.80094916925E+02 0.  0.
         66    2    3    3    0    0  0.36446144423E+02  0.62092485741E+01 -0.87858954499E+01  0.38053491045E+02  0.20000026798E+01 0.  0.
         13    1    3    3    0    0 -0.36446144423E+02 -0.62092485741E+01  0.22292561973E+02  0.43172279237E+02  0.10566000000E+00 0. -1.
         13    1    4    4    0    0  0.12062742571E+02  0.23831271445E+01 -0.29565461807E+01  0.12646793375E+02  0.10566000000E+00 0. -1.
        -13    1    4    4    0    0  0.20834490619E+02  0.35245515466E+01 -0.44973039594E+01  0.21604059107E+02  0.10566000000E+00 0.  1.
         14    1    4    4    0    0  0.35489112322E+01  0.30156988296E+00 -0.13320453099E+01  0.38026385623E+01  0.00000000000E+00 0. -1.
<mgrwt>
<rscale>  0 0.80094917E+02</rscale>
<asrwt>0</asrwt>
<pdfrwt beam="1">  1        1 0.72871106E-02 0.80094917E+02</pdfrwt>
<pdfrwt beam="2">  1       -2 0.52091618E-02 0.80094917E+02</pdfrwt>
<totfact> 0.13002293E+05</totfact>
</mgrwt>
</event>
<event>
 8    1  0.1241100E-020  0.7891436E+02  0.7818608E-02  0.1332161E+00
         -2   -1    0    0    0  501 -0.00000000000E+00  0.00000000000E+00  0.94444643240E+02  0.94444643274E+02  0.25500000000E-02 0.  1.
          1   -1    0    0  501    0  0.00000000000E+00 -0.00000000000E+00 -0.16484462555E+02  0.16484463325E+02  0.50400000000E-02 0. -1.
        -24    2    1    2    0    0  0.00000000000E+00  0.35527136788E-14  0.77960180685E+02  0.11092910660E+03  0.78914364462E+02 0.  0.
         66    2    3    3    0    0 -0.10338927957E+02 -0.24243978191E+02  0.80232773052E+02  0.84474622103E+02  0.19999995216E+01 0.  0.
         13    1    3    3    0    0  0.10338927957E+02  0.24243978191E+02 -0.22725923669E+01  0.26454484496E+02  0.10566000000E+00 0. -1.
         13    1    4    4    0    0 -0.23136703524E+01 -0.50094205794E+01  0.15562462819E+02  0.16512079762E+02  0.10566000000E+00 0. -1.
        -13    1    4    4    0    0 -0.74417820937E+01 -0.17447461994E+02  0.57394085345E+02  0.60447384124E+02  0.10566000000E+00 0.  1.
         14    1    4    4    0    0 -0.58347551077E+00 -0.17870956183E+01  0.72762248877E+01  0.75151582177E+01  0.00000000000E+00 0. -1.
<mgrwt>
<rscale>  0 0.78914364E+02</rscale>
<asrwt>0</asrwt>
<pdfrwt beam="1">  1        1 0.25360712E-02 0.78914364E+02</pdfrwt>
<pdfrwt beam="2">  1       -2 0.14529945E-01 0.78914364E+02</pdfrwt>
<totfact> 0.11144246E+05</totfact>
</mgrwt>
</event>
<event>
 8    1  0.1241100E-020  0.7898534E+02  0.7818608E-02  0.1331956E+00
         -2   -1    0    0    0  501 -0.00000000000E+00  0.00000000000E+00  0.29311761693E+03  0.29311761694E+03  0.25500000000E-02 0.  1.
          1   -1    0    0  501    0  0.00000000000E+00 -0.00000000000E+00 -0.53209714969E+01  0.53209738839E+01  0.50400000000E-02 0. -1.
        -24    2    1    2    0    0  0.00000000000E+00 -0.71054273576E-14  0.28779664544E+03  0.29843859083E+03  0.78985336431E+02 0.  0.
         66    2    3    3    0    0  0.16236498598E+02  0.35159009588E+02  0.11524313044E+03  0.12159259414E+03  0.19999987336E+01 0.  0.
         13    1    3    3    0    0 -0.16236498598E+02 -0.35159009588E+02  0.17255351500E+03  0.17684599669E+03  0.10566000000E+00 0. -1.
         13    1    4    4    0    0  0.65350407788E+01  0.15996433660E+02  0.52169182189E+02  0.54956595438E+02  0.10566000000E+00 0. -1.
        -13    1    4    4    0    0  0.95415103742E+00  0.24150926105E+01  0.79115796503E+01  0.83275046153E+01  0.10566000000E+00 0.  1.
         14    1    4    4    0    0  0.87473067816E+01  0.16747483317E+02  0.55162368598E+02  0.58308494088E+02  0.00000000000E+00 0. -1.
<mgrwt>
<rscale>  0 0.78985336E+02</rscale>
<asrwt>0</asrwt>
<pdfrwt beam="1">  1        1 0.81861090E-03 0.78985336E+02</pdfrwt>
<pdfrwt beam="2">  1       -2 0.45095034E-01 0.78985336E+02</pdfrwt>
<totfact> 0.73539428E+04</totfact>
</mgrwt>
</event>
<event>
 8    1  0.1241100E-020  0.7814108E+02  0.7818608E-02  0.1334411E+00
          1   -1    0    0  501    0  0.00000000000E+00  0.00000000000E+00  0.59676410046E+02  0.59676410259E+02  0.50400000000E-02 0. -1.
         -2   -1    0    0    0  501 -0.00000000000E+00 -0.00000000000E+00 -0.25579739387E+02  0.25579739514E+02  0.25500000000E-02 0.  1.
        -24    2    1    2    0    0  0.17763568394E-14 -0.44408920985E-15  0.34096670660E+02  0.85256149773E+02  0.78141078339E+02 0.  0.
         66    2    3    3    0    0  0.14625063798E+02  0.37921736366E+01 -0.22221948458E+02  0.26946021190E+02  0.19999981892E+01 0.  0.
         13    1    3    3    0    0 -0.14625063798E+02 -0.37921736366E+01  0.56318619118E+02  0.58310128583E+02  0.10566000000E+00 0. -1.
         13    1    4    4    0    0  0.41132139072E+01  0.81508059374E+00 -0.62947576111E+01  0.75642595433E+01  0.10566000000E+00 0.  1.
        -13    1    4    4    0    0  0.57778663845E+01  0.10493030578E+01 -0.75073633506E+01  0.95318647377E+01  0.10566000000E+00 0. -1.
         14    1    4    4    0    0  0.47339835059E+01  0.19277899851E+01 -0.84198274961E+01  0.98498969093E+01  0.00000000000E+00 0. -1.
<mgrwt>
<rscale>  0 0.78141078E+02</rscale>
<asrwt>0</asrwt>
<pdfrwt beam="1">  1        1 0.91809861E-02 0.78141078E+02</pdfrwt>
<pdfrwt beam="2">  1       -2 0.39353446E-02 0.78141078E+02</pdfrwt>
<totfact> 0.14431143E+05</totfact>
</mgrwt>
</event>
<event>
 8    1  0.1241100E-020  0.8019947E+02  0.7818608E-02  0.1328486E+00
         -2   -1    0    0    0  501 -0.00000000000E+00  0.00000000000E+00  0.26634717748E+03  0.26634717749E+03  0.25500000000E-02 0.  1.
          1   -1    0    0  501    0  0.00000000000E+00 -0.00000000000E+00 -0.60371893984E+01  0.60371915022E+01  0.50400000000E-02 0. -1.
        -24    2    1    2    0    0 -0.17763568394E-14 -0.17763568394E-14  0.26030998808E+03  0.27238436899E+03  0.80199467438E+02 0.  0.
         66    2    3    3    0    0 -0.93963678512E+01 -0.13987833840E+02  0.25372570100E+03  0.25429251379E+03  0.19999991940E+01 0.  0.
         13    1    3    3    0    0  0.93963678512E+01  0.13987833840E+02  0.65842870801E+01  0.18091855204E+02  0.10566000000E+00 0. -1.
         13    1    4    4    0    0 -0.33647399491E+00 -0.77823707877E-01  0.45581501945E+01  0.45724357305E+01  0.10566000000E+00 0. -1.
        -13    1    4    4    0    0 -0.74766429532E+01 -0.11342229857E+02  0.20485029698E+03  0.20530027205E+03  0.10566000000E+00 0.  1.
         14    1    4    4    0    0 -0.15832509031E+01 -0.25677802750E+01  0.44317253825E+02  0.44419806005E+02  0.00000000000E+00 0. -1.
<mgrwt>
<rscale>  0 0.80199467E+02</rscale>
<asrwt>0</asrwt>
<pdfrwt beam="1">  1        1 0.92879824E-03 0.80199467E+02</pdfrwt>
<pdfrwt beam="2">  1       -2 0.40976502E-01 0.80199467E+02</pdfrwt>
<totfact> 0.74288057E+04</totfact>
</mgrwt>
</event>
<event>
 8    1  0.1241100E-020  0.8195081E+02  0.7818608E-02  0.1323605E+00
          1   -1    0    0  501    0  0.00000000000E+00  0.00000000000E+00  0.14050547990E+02  0.14050548894E+02  0.50400000000E-02 0. -1.
         -2   -1    0    0    0  501 -0.00000000000E+00 -0.00000000000E+00 -0.11949595672E+03  0.11949595675E+03  0.25500000000E-02 0.  1.
        -24    2    1    2    0    0 -0.35527136788E-14  0.71054273576E-14 -0.10544540873E+03  0.13354650564E+03  0.81950808091E+02 0.  0.
         66    2    3    3    0    0  0.30451572778E+02 -0.24924544774E+02 -0.71222966766E+02  0.81395590838E+02  0.19999990131E+01 0.  0.
         13    1    3    3    0    0 -0.30451572778E+02  0.24924544774E+02 -0.34222441967E+02  0.52150914805E+02  0.10566000000E+00 0. -1.
         13    1    4    4    0    0  0.58849126737E+00 -0.23218015433E+00 -0.98807114740E+00  0.11779975483E+01  0.10566000000E+00 0. -1.
        -13    1    4    4    0    0  0.15725354775E+02 -0.12602231925E+02 -0.36572601135E+02  0.41757267033E+02  0.10566000000E+00 0.  1.
         14    1    4    4    0    0  0.14137726736E+02 -0.12090132694E+02 -0.33662294483E+02  0.38460326256E+02  0.00000000000E+00 0. -1.
<mgrwt>
<rscale>  0 0.81950808E+02</rscale>
<asrwt>0</asrwt>
<pdfrwt beam="1">  1        1 0.21616229E-02 0.81950808E+02</pdfrwt>
<pdfrwt beam="2">  1       -2 0.18383993E-01 0.81950808E+02</pdfrwt>
<totfact> 0.95188896E+04</totfact>
</mgrwt>
</event>
<event>
 8    1  0.1241100E-020  0.7836979E+02  0.7818608E-02  0.1333742E+00
          1   -1    0    0  501    0  0.00000000000E+00  0.00000000000E+00  0.88279738605E+01  0.88279752992E+01  0.50400000000E-02 0. -1.
         -2   -1    0    0    0  501 -0.00000000000E+00 -0.00000000000E+00 -0.17393073162E+03  0.17393073164E+03  0.25500000000E-02 0.  1.
        -24    2    1    2    0    0  0.00000000000E+00  0.00000000000E+00 -0.16510275776E+03  0.18275870694E+03  0.78369792280E+02 0.  0.
         66    2    3    3    0    0 -0.21024035445E+02 -0.20244211629E+02 -0.14348830951E+03  0.14644020328E+03  0.19999999193E+01 0.  0.
         13    1    3    3    0    0  0.21024035445E+02  0.20244211629E+02 -0.21614448251E+02  0.36318503660E+02  0.10566000000E+00 0. -1.
         13    1    4    4    0    0 -0.32594190391E+00 -0.18422877668E+00 -0.26037362216E+01  0.26326383561E+01  0.10566000000E+00 0. -1.
        -13    1    4    4    0    0 -0.10860655235E+02 -0.11322062987E+02 -0.76672832059E+02  0.78261595195E+02  0.10566000000E+00 0.  1.
        -14    1    4    4    0    0 -0.98374383055E+01 -0.87379198649E+01 -0.64211741231E+02  0.65545969731E+02  0.00000000000E+00 0.  1.
<mgrwt>
<rscale>  0 0.78369792E+02</rscale>
<asrwt>0</asrwt>
<pdfrwt beam="1">  1        1 0.13581501E-02 0.78369792E+02</pdfrwt>
<pdfrwt beam="2">  1       -2 0.26758572E-01 0.78369792E+02</pdfrwt>
<totfact> 0.94672674E+04</totfact>
</mgrwt>
</event>
<event>
 8    1  0.1241100E-020  0.7984249E+02  0.7818608E-02  0.1329499E+00
          1   -1    0    0  501    0  0.00000000000E+00  0.00000000000E+00  0.19283602279E+02  0.19283602938E+02  0.50400000000E-02 0. -1.
         -2   -1    0    0    0  501 -0.00000000000E+00 -0.00000000000E+00 -0.82645655315E+02  0.82645655354E+02  0.25500000000E-02 0.  1.
        -24    2    1    2    0    0  0.35527136788E-14  0.00000000000E+00 -0.63362053036E+02  0.10192925829E+03  0.79842494519E+02 0.  0.
         66    2    3    3    0    0 -0.28573718464E+02 -0.26178968305E+02 -0.19596060395E+02  0.43471846065E+02  0.20000122292E+01 0.  0.
         13    1    3    3    0    0  0.28573718464E+02  0.26178968305E+02 -0.43765992641E+02  0.58457412227E+02  0.10566000000E+00 0. -1.
         13    1    4    4    0    0 -0.70249139353E+01 -0.66987600572E+01 -0.39952449261E+01  0.10497425787E+02  0.10566000000E+00 0. -1.
        -13    1    4    4    0    0 -0.15994945095E+02 -0.14289494424E+02 -0.11520659562E+02  0.24346759132E+02  0.10566000000E+00 0.  1.
         14    1    4    4    0    0 -0.55538594332E+01 -0.51907138247E+01 -0.40801559072E+01  0.86276611455E+01  0.00000000000E+00 0. -1.
<mgrwt>
<rscale>  0 0.79842495E+02</rscale>
<asrwt>0</asrwt>
<pdfrwt beam="1">  1        1 0.29667082E-02 0.79842495E+02</pdfrwt>
<pdfrwt beam="2">  1       -2 0.12714716E-01 0.79842495E+02</pdfrwt>
<totfact> 0.11152912E+05</totfact>
</mgrwt>
</event>
<event>
 8    1  0.1241100E-020  0.7991987E+02  0.7818608E-02  0.1329279E+00
          1   -1    0    0  501    0  0.00000000000E+00  0.00000000000E+00  0.18939274119E+03  0.18939274126E+03  0.50400000000E-02 0. -1.
         -2   -1    0    0    0  501 -0.00000000000E+00 -0.00000000000E+00 -0.84311371611E+01  0.84311375467E+01  0.25500000000E-02 0.  1.
        -24    2    1    2    0    0  0.00000000000E+00  0.35527136788E-14  0.18096160403E+03  0.19782387881E+03  0.79919865443E+02 0.  0.
         66    2    3    3    0    0 -0.25222568127E+02  0.26717700719E+02  0.51810654518E+02  0.63548071607E+02  0.20000022008E+01 0.  0.
         13    1    3    3    0    0  0.25222568127E+02 -0.26717700719E+02  0.12915094952E+03  0.13427580720E+03  0.10566000000E+00 0. -1.
         13    1    4    4    0    0 -0.16651996886E+01  0.17134848394E+01  0.29487800621E+01  0.37967602226E+01  0.10566000000E+00 0. -1.
        -13    1    4    4    0    0 -0.32683679770E+01  0.39575018481E+01  0.81105608473E+01  0.95987713487E+01  0.10566000000E+00 0.  1.
        -14    1    4    4    0    0 -0.20289000462E+02  0.21046714031E+02  0.40751313608E+02  0.50152540036E+02  0.00000000000E+00 0.  1.
<mgrwt>
<rscale>  0 0.79919865E+02</rscale>
<asrwt>0</asrwt>
<pdfrwt beam="1">  1        1 0.29137346E-01 0.79919865E+02</pdfrwt>
<pdfrwt beam="2">  1       -2 0.12970980E-02 0.79919865E+02</pdfrwt>
<totfact> 0.16543003E+05</totfact>
</mgrwt>
</event>
<event>
 8    1  0.1241100E-020  0.7838132E+02  0.7818608E-02  0.1333709E+00
          1   -1    0    0  501    0  0.00000000000E+00  0.00000000000E+00  0.90617826775E+01  0.90617840790E+01  0.50400000000E-02 0. -1.
         -2   -1    0    0    0  501 -0.00000000000E+00 -0.00000000000E+00 -0.16949286579E+03  0.16949286581E+03  0.25500000000E-02 0.  1.
        -24    2    1    2    0    0  0.88817841970E-15 -0.71054273576E-14 -0.16043108311E+03  0.17855464988E+03  0.78381315171E+02 0.  0.
         66    2    3    3    0    0  0.50212845707E+01 -0.37029501744E+02 -0.10698036696E+03  0.11333664992E+03  0.20000006790E+01 0.  0.
         13    1    3    3    0    0 -0.50212845707E+01  0.37029501744E+02 -0.53450716148E+02  0.65217999961E+02  0.10566000000E+00 0. -1.
         13    1    4    4    0    0 -0.10140272756E+00 -0.33766628625E+00 -0.10504853784E+01  0.11130968511E+01  0.10566000000E+00 0. -1.
        -13    1    4    4    0    0  0.49916685771E+01 -0.36221298454E+02 -0.10440981588E+03  0.11062694081E+03  0.10566000000E+00 0.  1.
        -14    1    4    4    0    0  0.13101872121E+00 -0.47053700362E+00 -0.15200657028E+01  0.15966122628E+01  0.00000000000E+00 0.  1.
<mgrwt>
<rscale>  0 0.78381315E+02</rscale>
<asrwt>0</asrwt>
<pdfrwt beam="1">  1        1 0.13941207E-02 0.78381315E+02</pdfrwt>
<pdfrwt beam="2">  1       -2 0.26075823E-01 0.78381315E+02</pdfrwt>
<totfact> 0.95525707E+04</totfact>
</mgrwt>
</event>
<event>
 8    1  0.1241100E-020  0.8022224E+02  0.7818608E-02  0.1328422E+00
         -2   -1    0    0    0  501 -0.00000000000E+00  0.00000000000E+00  0.12019134888E+02  0.12019135158E+02  0.25500000000E-02 0.  1.
          1   -1    0    0  501    0  0.00000000000E+00 -0.00000000000E+00 -0.13386170837E+03  0.13386170847E+03  0.50400000000E-02 0. -1.
        -24    2    1    2    0    0  0.22204460493E-15  0.00000000000E+00 -0.12184257349E+03  0.14588084363E+03  0.80222240206E+02 0.  0.
         66    2    3    3    0    0  0.10034801685E+01  0.33569591281E+02 -0.21161270609E+02  0.39745739424E+02  0.19999993289E+01 0.  0.
         13    1    3    3    0    0 -0.10034801685E+01 -0.33569591281E+02 -0.10068130288E+03  0.10613510420E+03  0.10566000000E+00 0. -1.
         13    1    4    4    0    0  0.12456638634E+01  0.16928735823E+02 -0.10517538445E+02  0.19969064926E+02  0.10566000000E+00 0. -1.
        -13    1    4    4    0    0 -0.13971524341E+00  0.15292212859E+02 -0.10047967793E+02  0.18298746276E+02  0.10566000000E+00 0.  1.
         14    1    4    4    0    0 -0.10246845142E+00  0.13486425983E+01 -0.59576437156E+00  0.14779282215E+01  0.00000000000E+00 0. -1.
<mgrwt>
<rscale>  0 0.80222240E+02</rscale>
<asrwt>0</asrwt>
<pdfrwt beam="1">  1        1 0.20594108E-01 0.80222240E+02</pdfrwt>
<pdfrwt beam="2">  1       -2 0.18490978E-02 0.80222240E+02</pdfrwt>
<totfact> 0.15349578E+05</totfact>
</mgrwt>
</event>
<event>
 8    1  0.1241100E-020  0.7816031E+02  0.7818608E-02  0.1334355E+00
         -2   -1    0    0    0  501 -0.00000000000E+00  0.00000000000E+00  0.11582960422E+02  0.11582960703E+02  0.25500000000E-02 0.  1.
          1   -1    0    0  501    0  0.00000000000E+00 -0.00000000000E+00 -0.13185390955E+03  0.13185390965E+03  0.50400000000E-02 0. -1.
        -24    2    1    2    0    0  0.88817841970E-15  0.35527136788E-14 -0.12027094913E+03  0.14343687035E+03  0.78160313277E+02 0.  0.
         66    2    3    3    0    0 -0.52526950918E+01 -0.27766136447E+02 -0.10703424794E+02  0.30283864682E+02  0.20000047078E+01 0.  0.
         13    1    3    3    0    0  0.52526950918E+01  0.27766136447E+02 -0.10956752433E+03  0.11315300567E+03  0.10566000000E+00 0. -1.
         13    1    4    4    0    0 -0.60519472336E+00 -0.25127353886E+01 -0.72550716174E+00  0.26865636906E+01  0.10566000000E+00 0. -1.
        -13    1    4    4    0    0 -0.43574036784E+01 -0.20906488597E+02 -0.86677463968E+01  0.23047976568E+02  0.10566000000E+00 0.  1.
        -14    1    4    4    0    0 -0.29009669005E+00 -0.43469124616E+01 -0.13101712355E+01  0.45493244229E+01  0.00000000000E+00 0.  1.
<mgrwt>
<rscale>  0 0.78160313E+02</rscale>
<asrwt>0</asrwt>
<pdfrwt beam="1">  1        1 0.20285216E-01 0.78160313E+02</pdfrwt>
<pdfrwt beam="2">  1       -2 0.17819940E-02 0.78160313E+02</pdfrwt>
<totfact> 0.16413166E+05</totfact>
</mgrwt>
</event>
<event>
 8    1  0.1241100E-020  0.8180405E+02  0.7818608E-02  0.1324008E+00
          1   -1    0    0  501    0  0.00000000000E+00  0.00000000000E+00  0.28102880043E+02  0.28102880495E+02  0.50400000000E-02 0. -1.
         -2   -1    0    0    0  501 -0.00000000000E+00 -0.00000000000E+00 -0.59530396353E+02  0.59530396407E+02  0.25500000000E-02 0.  1.
        -24    2    1    2    0    0  0.44408920985E-15  0.00000000000E+00 -0.31427516310E+02  0.87633276902E+02  0.81804049039E+02 0.  0.
         66    2    3    3    0    0 -0.18120144190E+01 -0.36196708315E+02 -0.35977716026E+02  0.51106566531E+02  0.20000007502E+01 0.  0.
         13    1    3    3    0    0  0.18120144190E+01  0.36196708315E+02  0.45501997161E+01  0.36526710372E+02  0.10566000000E+00 0. -1.
         13    1    4    4    0    0 -0.10223131424E+00 -0.35428950050E+01 -0.42460504781E+01  0.55319675484E+01  0.10566000000E+00 0. -1.
        -13    1    4    4    0    0 -0.13642023869E+01 -0.18643698537E+02 -0.18523788733E+02  0.26317113374E+02  0.10566000000E+00 0.  1.
         14    1    4    4    0    0 -0.34558071786E+00 -0.14010114772E+02 -0.13207876816E+02  0.19257485608E+02  0.00000000000E+00 0. -1.
<mgrwt>
<rscale>  0 0.81804049E+02</rscale>
<asrwt>0</asrwt>
<pdfrwt beam="1">  1        1 0.43235201E-02 0.81804049E+02</pdfrwt>
<pdfrwt beam="2">  1       -2 0.91585225E-02 0.81804049E+02</pdfrwt>
<totfact> 0.11206115E+05</totfact>
</mgrwt>
</event>
<event>
 8    1  0.1241100E-020  0.7888856E+02  0.7818608E-02  0.1332235E+00
         -2   -1    0    0    0  501 -0.00000000000E+00  0.00000000000E+00  0.95114365425E+01  0.95114368844E+01  0.25500000000E-02 0.  1.
          1   -1    0    0  501    0  0.00000000000E+00 -0.00000000000E+00 -0.16357688096E+03  0.16357688104E+03  0.50400000000E-02 0. -1.
        -24    2    1    2    0    0  0.35527136788E-14  0.00000000000E+00 -0.15406544442E+03  0.17308831792E+03  0.78888558344E+02 0.  0.
         66    2    3    3    0    0  0.26253976325E+02 -0.28462239656E+02 -0.93276155270E+02  0.10101391749E+03  0.20000062225E+01 0.  0.
         13    1    3    3    0    0 -0.26253976325E+02  0.28462239656E+02 -0.60789289148E+02  0.72074400436E+02  0.10566000000E+00 0. -1.
         13    1    4    4    0    0  0.55477715744E+01 -0.54080925577E+01 -0.17068079410E+02  0.18744485411E+02  0.10566000000E+00 0. -1.
        -13    1    4    4    0    0  0.59249692081E+01 -0.63164866388E+01 -0.20864442934E+02  0.22590692919E+02  0.10566000000E+00 0.  1.
         14    1    4    4    0    0  0.14781235542E+02 -0.16737660459E+02 -0.55343632926E+02  0.59678739156E+02  0.00000000000E+00 0. -1.
<mgrwt>
<rscale>  0 0.78888558E+02</rscale>
<asrwt>0</asrwt>
<pdfrwt beam="1">  1        1 0.25165672E-01 0.78888558E+02</pdfrwt>
<pdfrwt beam="2">  1       -2 0.14632981E-02 0.78888558E+02</pdfrwt>
<totfact> 0.16654490E+05</totfact>
</mgrwt>
</event>
<event>
 8    1  0.1241100E-020  0.7875251E+02  0.7818608E-02  0.1332629E+00
         -2   -1    0    0    0  501 -0.00000000000E+00  0.00000000000E+00  0.41753062962E+02  0.41753063039E+02  0.25500000000E-02 0.  1.
          1   -1    0    0  501    0  0.00000000000E+00 -0.00000000000E+00 -0.37134746095E+02  0.37134746437E+02  0.50400000000E-02 0. -1.
        -24    2    1    2    0    0  0.35527136788E-14  0.00000000000E+00  0.46183168668E+01  0.78887809476E+02  0.78752508743E+02 0.  0.
         66    2    3    3    0    0 -0.24592367415E+02  0.15873124573E+02  0.28656853812E+02  0.41011655483E+02  0.19999990752E+01 0.  0.
         13    1    3    3    0    0  0.24592367415E+02 -0.15873124573E+02 -0.24038536945E+02  0.37876153993E+02  0.10566000000E+00 0. -1.
         13    1    4    4    0    0 -0.20853807949E+01  0.16032729883E+01  0.20955898244E+01  0.33648117455E+01  0.10566000000E+00 0. -1.
        -13    1    4    4    0    0 -0.38284544368E+00  0.22714850092E+00  0.29495017282E+00  0.54435899484E+00  0.10566000000E+00 0.  1.
        -14    1    4    4    0    0 -0.22124141177E+02  0.14042703084E+02  0.26266313814E+02  0.37102484743E+02  0.00000000000E+00 0.  1.
<mgrwt>
<rscale>  0 0.78752509E+02</rscale>
<asrwt>0</asrwt>
<pdfrwt beam="1">  1        1 0.57130379E-02 0.78752509E+02</pdfrwt>
<pdfrwt beam="2">  1       -2 0.64235481E-02 0.78752509E+02</pdfrwt>
<totfact> 0.13113604E+05</totfact>
</mgrwt>
</event>
